 Entering Gaussian System, Link 0=g16
 Input=243-an.com
 Output=243-an.log
 Initial command:
 /sysapps/ubuntu-applications/gaussian/Gaussian/AVX2/g16/l1.exe "/scratch/selhajj1/4233087/Gau-2090251.inp" -scrdir="/scratch/selhajj1/4233087/"
 Entering Link 1 = /sysapps/ubuntu-applications/gaussian/Gaussian/AVX2/g16/l1.exe PID=   2090262.
  
 Copyright (c) 1988,1990,1992,1993,1995,1998,2003,2009,2016,
            Gaussian, Inc.  All Rights Reserved.
  
 This is part of the Gaussian(R) 16 program.  It is based on
 the Gaussian(R) 09 system (copyright 2009, Gaussian, Inc.),
 the Gaussian(R) 03 system (copyright 2003, Gaussian, Inc.),
 the Gaussian(R) 98 system (copyright 1998, Gaussian, Inc.),
 the Gaussian(R) 94 system (copyright 1995, Gaussian, Inc.),
 the Gaussian 92(TM) system (copyright 1992, Gaussian, Inc.),
 the Gaussian 90(TM) system (copyright 1990, Gaussian, Inc.),
 the Gaussian 88(TM) system (copyright 1988, Gaussian, Inc.),
 the Gaussian 86(TM) system (copyright 1986, Carnegie Mellon
 University), and the Gaussian 82(TM) system (copyright 1983,
 Carnegie Mellon University). Gaussian is a federally registered
 trademark of Gaussian, Inc.
  
 This software contains proprietary and confidential information,
 including trade secrets, belonging to Gaussian, Inc.
  
 This software is provided under written license and may be
 used, copied, transmitted, or stored only in accord with that
 written license.
  
 The following legend is applicable only to US Government
 contracts under FAR:
  
                    RESTRICTED RIGHTS LEGEND
  
 Use, reproduction and disclosure by the US Government is
 subject to restrictions as set forth in subparagraphs (a)
 and (c) of the Commercial Computer Software - Restricted
 Rights clause in FAR 52.227-19.
  
 Gaussian, Inc.
 340 Quinnipiac St., Bldg. 40, Wallingford CT 06492
  
  
 ---------------------------------------------------------------
 Warning -- This program may not be used in any manner that
 competes with the business of Gaussian, Inc. or will provide
 assistance to any competitor of Gaussian, Inc.  The licensee
 of this program is prohibited from giving any competitor of
 Gaussian, Inc. access to this program.  By using this program,
 the user acknowledges that Gaussian, Inc. is engaged in the
 business of creating and licensing software in the field of
 computational chemistry and represents and warrants to the
 licensee that it is not a competitor of Gaussian, Inc. and that
 it will not use this program in any manner prohibited above.
 ---------------------------------------------------------------
  

 Cite this work as:
 Gaussian 16, Revision A.03,
 M. J. Frisch, G. W. Trucks, H. B. Schlegel, G. E. Scuseria, 
 M. A. Robb, J. R. Cheeseman, G. Scalmani, V. Barone, 
 G. A. Petersson, H. Nakatsuji, X. Li, M. Caricato, A. V. Marenich, 
 J. Bloino, B. G. Janesko, R. Gomperts, B. Mennucci, H. P. Hratchian, 
 J. V. Ortiz, A. F. Izmaylov, J. L. Sonnenberg, D. Williams-Young, 
 F. Ding, F. Lipparini, F. Egidi, J. Goings, B. Peng, A. Petrone, 
 T. Henderson, D. Ranasinghe, V. G. Zakrzewski, J. Gao, N. Rega, 
 G. Zheng, W. Liang, M. Hada, M. Ehara, K. Toyota, R. Fukuda, 
 J. Hasegawa, M. Ishida, T. Nakajima, Y. Honda, O. Kitao, H. Nakai, 
 T. Vreven, K. Throssell, J. A. Montgomery, Jr., J. E. Peralta, 
 F. Ogliaro, M. J. Bearpark, J. J. Heyd, E. N. Brothers, K. N. Kudin, 
 V. N. Staroverov, T. A. Keith, R. Kobayashi, J. Normand, 
 K. Raghavachari, A. P. Rendell, J. C. Burant, S. S. Iyengar, 
 J. Tomasi, M. Cossi, J. M. Millam, M. Klene, C. Adamo, R. Cammi, 
 J. W. Ochterski, R. L. Martin, K. Morokuma, O. Farkas, 
 J. B. Foresman, and D. J. Fox, Gaussian, Inc., Wallingford CT, 2016.
 
 ******************************************
 Gaussian 16:  ES64L-G16RevA.03 25-Dec-2016
                26-Dec-2023 
 ******************************************
 %chk=243-an.chk
 %nproc=8
 Will use up to    8 processors via shared memory.
 %mem=30GB
 --------------------------------------
 #P UB3LYP/6-311++G(d,p) nosym opt freq
 --------------------------------------
 1/18=20,19=15,26=3,38=1/1,3;
 2/9=110,12=2,15=1,17=6,18=5,40=1/2;
 3/5=4,6=6,7=1111,11=2,25=1,30=1,71=1,74=-5,116=2/1,2,3;
 4//1;
 5/5=2,38=5/2;
 6/7=2,8=2,9=2,10=2,28=1/1;
 7/30=1/1,2,3,16;
 1/18=20,19=15,26=3/3(2);
 2/9=110,15=1/2;
 99//99;
 2/9=110,15=1/2;
 3/5=4,6=6,7=1111,11=2,25=1,30=1,71=1,74=-5,116=2/1,2,3;
 4/5=5,16=3,69=1/1;
 5/5=2,38=5/2;
 7/30=1/1,2,3,16;
 1/18=20,19=15,26=3/3(-5);
 2/9=110,15=1/2;
 6/7=2,8=2,9=2,10=2,19=2,28=1/1;
 99/9=1/99;
 Leave Link    1 at Tue Dec 26 20:02:25 2023, MaxMem=  4026531840 cpu:               0.9 elap:               0.2
 (Enter /sysapps/ubuntu-applications/gaussian/Gaussian/AVX2/g16/l101.exe)
 -------
 Reduced
 -------
 Symbolic Z-matrix:
 Charge = -2 Multiplicity = 1
 C                     3.73159  -1.02967  -0.2883 
 C                     2.44288  -0.30352  -0.08112 
 C                     2.4574    1.07366   0.05176 
 C                     1.26266   1.76506   0.24561 
 C                     0.05035   1.11108   0.31001 
 C                    -1.21284   1.81014   0.51185 
 O                    -1.22039   3.07564   0.63616 
 C                    -2.50092   1.09742   0.57852 
 C                    -2.47723  -0.21896   0.44753 
 C                    -3.75247  -0.96114   0.50997 
 C                    -1.24644  -0.96681   0.24436 
 O                    -1.26149  -2.21244   0.12437 
 C                     0.03152  -0.27554   0.17666 
 C                     1.23596  -0.94445  -0.01602 
 H                     4.5235   -0.31001  -0.53421 
 H                     4.02851  -1.51276   0.6839 
 H                     3.5678   -1.7939   -1.07275 
 H                     3.41152   1.60327   0.00252 
 H                     1.28465   2.84253   0.34846 
 H                    -3.41719   1.62942   0.72736 
 H                    -3.53936  -1.96097   0.94064 
 H                    -4.51056  -0.44149   1.14753 
 H                    -4.13001  -1.05571  -0.54932 
 H                     1.24057  -2.02085  -0.12158 
 
 ITRead=  0  0  0  0  0  0  0  0  0  0  0  0  0  0  0  0  0  0  0  0
 ITRead=  0  0  0  0
 MicOpt= -1 -1 -1 -1 -1 -1 -1 -1 -1 -1 -1 -1 -1 -1 -1 -1 -1 -1 -1 -1
 MicOpt= -1 -1 -1 -1
 NAtoms=     24 NQM=       24 NQMF=       0 NMMI=      0 NMMIF=      0
                NMic=       0 NMicF=      0.
                    Isotopes and Nuclear Properties:
 (Nuclear quadrupole moments (NQMom) in fm**2, nuclear magnetic moments (NMagM)
  in nuclear magnetons)

  Atom         1           2           3           4           5           6           7           8           9          10
 IAtWgt=          12          12          12          12          12          12          16          12          12          12
 AtmWgt=  12.0000000  12.0000000  12.0000000  12.0000000  12.0000000  12.0000000  15.9949146  12.0000000  12.0000000  12.0000000
 NucSpn=           0           0           0           0           0           0           0           0           0           0
 AtZEff=  -0.0000000  -0.0000000  -0.0000000  -0.0000000  -0.0000000  -0.0000000  -0.0000000  -0.0000000  -0.0000000  -0.0000000
 NQMom=    0.0000000   0.0000000   0.0000000   0.0000000   0.0000000   0.0000000   0.0000000   0.0000000   0.0000000   0.0000000
 NMagM=    0.0000000   0.0000000   0.0000000   0.0000000   0.0000000   0.0000000   0.0000000   0.0000000   0.0000000   0.0000000
 AtZNuc=   6.0000000   6.0000000   6.0000000   6.0000000   6.0000000   6.0000000   8.0000000   6.0000000   6.0000000   6.0000000

  Atom        11          12          13          14          15          16          17          18          19          20
 IAtWgt=          12          16          12          12           1           1           1           1           1           1
 AtmWgt=  12.0000000  15.9949146  12.0000000  12.0000000   1.0078250   1.0078250   1.0078250   1.0078250   1.0078250   1.0078250
 NucSpn=           0           0           0           0           1           1           1           1           1           1
 AtZEff=  -0.0000000  -0.0000000  -0.0000000  -0.0000000  -0.0000000  -0.0000000  -0.0000000  -0.0000000  -0.0000000  -0.0000000
 NQMom=    0.0000000   0.0000000   0.0000000   0.0000000   0.0000000   0.0000000   0.0000000   0.0000000   0.0000000   0.0000000
 NMagM=    0.0000000   0.0000000   0.0000000   0.0000000   2.7928460   2.7928460   2.7928460   2.7928460   2.7928460   2.7928460
 AtZNuc=   6.0000000   8.0000000   6.0000000   6.0000000   1.0000000   1.0000000   1.0000000   1.0000000   1.0000000   1.0000000

  Atom        21          22          23          24
 IAtWgt=           1           1           1           1
 AtmWgt=   1.0078250   1.0078250   1.0078250   1.0078250
 NucSpn=           1           1           1           1
 AtZEff=  -0.0000000  -0.0000000  -0.0000000  -0.0000000
 NQMom=    0.0000000   0.0000000   0.0000000   0.0000000
 NMagM=    2.7928460   2.7928460   2.7928460   2.7928460
 AtZNuc=   1.0000000   1.0000000   1.0000000   1.0000000
 Leave Link  101 at Tue Dec 26 20:02:26 2023, MaxMem=  4026531840 cpu:               3.6 elap:               0.9
 (Enter /sysapps/ubuntu-applications/gaussian/Gaussian/AVX2/g16/l103.exe)

 GradGradGradGradGradGradGradGradGradGradGradGradGradGradGradGradGradGrad
 Berny optimization.
 Initialization pass.
                           ----------------------------
                           !    Initial Parameters    !
                           ! (Angstroms and Degrees)  !
 --------------------------                            --------------------------
 ! Name  Definition              Value          Derivative Info.                !
 --------------------------------------------------------------------------------
 ! R1    R(1,2)                  1.4937         estimate D2E/DX2                !
 ! R2    R(1,15)                 1.098          estimate D2E/DX2                !
 ! R3    R(1,16)                 1.1255         estimate D2E/DX2                !
 ! R4    R(1,17)                 1.1073         estimate D2E/DX2                !
 ! R5    R(2,3)                  1.3837         estimate D2E/DX2                !
 ! R6    R(2,14)                 1.3681         estimate D2E/DX2                !
 ! R7    R(3,4)                  1.3939         estimate D2E/DX2                !
 ! R8    R(3,18)                 1.0924         estimate D2E/DX2                !
 ! R9    R(4,5)                  1.379          estimate D2E/DX2                !
 ! R10   R(4,19)                 1.0826         estimate D2E/DX2                !
 ! R11   R(5,6)                  1.4578         estimate D2E/DX2                !
 ! R12   R(5,13)                 1.3931         estimate D2E/DX2                !
 ! R13   R(6,7)                  1.2716         estimate D2E/DX2                !
 ! R14   R(6,8)                  1.4736         estimate D2E/DX2                !
 ! R15   R(8,9)                  1.3231         estimate D2E/DX2                !
 ! R16   R(8,20)                 1.0699         estimate D2E/DX2                !
 ! R17   R(9,10)                 1.4768         estimate D2E/DX2                !
 ! R18   R(9,11)                 1.4544         estimate D2E/DX2                !
 ! R19   R(10,21)                1.1093         estimate D2E/DX2                !
 ! R20   R(10,22)                1.1186         estimate D2E/DX2                !
 ! R21   R(10,23)                1.1285         estimate D2E/DX2                !
 ! R22   R(11,12)                1.2515         estimate D2E/DX2                !
 ! R23   R(11,13)                1.4545         estimate D2E/DX2                !
 ! R24   R(13,14)                1.3911         estimate D2E/DX2                !
 ! R25   R(14,24)                1.0816         estimate D2E/DX2                !
 ! A1    A(2,1,15)             109.5547         estimate D2E/DX2                !
 ! A2    A(2,1,16)             108.4495         estimate D2E/DX2                !
 ! A3    A(2,1,17)             107.8279         estimate D2E/DX2                !
 ! A4    A(15,1,16)            106.5307         estimate D2E/DX2                !
 ! A5    A(15,1,17)            113.6023         estimate D2E/DX2                !
 ! A6    A(16,1,17)            110.7759         estimate D2E/DX2                !
 ! A7    A(1,2,3)              119.2191         estimate D2E/DX2                !
 ! A8    A(1,2,14)             122.6831         estimate D2E/DX2                !
 ! A9    A(3,2,14)             118.0978         estimate D2E/DX2                !
 ! A10   A(2,3,4)              119.8714         estimate D2E/DX2                !
 ! A11   A(2,3,18)             119.17           estimate D2E/DX2                !
 ! A12   A(4,3,18)             120.9586         estimate D2E/DX2                !
 ! A13   A(3,4,5)              121.654          estimate D2E/DX2                !
 ! A14   A(3,4,19)             119.3055         estimate D2E/DX2                !
 ! A15   A(5,4,19)             119.0405         estimate D2E/DX2                !
 ! A16   A(4,5,6)              122.7415         estimate D2E/DX2                !
 ! A17   A(4,5,13)             118.6488         estimate D2E/DX2                !
 ! A18   A(6,5,13)             118.6098         estimate D2E/DX2                !
 ! A19   A(5,6,7)              119.7304         estimate D2E/DX2                !
 ! A20   A(5,6,8)              122.1238         estimate D2E/DX2                !
 ! A21   A(7,6,8)              118.1458         estimate D2E/DX2                !
 ! A22   A(6,8,9)              117.4561         estimate D2E/DX2                !
 ! A23   A(6,8,20)             120.9546         estimate D2E/DX2                !
 ! A24   A(9,8,20)             121.5892         estimate D2E/DX2                !
 ! A25   A(8,9,10)             118.7088         estimate D2E/DX2                !
 ! A26   A(8,9,11)             122.7214         estimate D2E/DX2                !
 ! A27   A(10,9,11)            118.5698         estimate D2E/DX2                !
 ! A28   A(9,10,21)            107.6672         estimate D2E/DX2                !
 ! A29   A(9,10,22)            112.0773         estimate D2E/DX2                !
 ! A30   A(9,10,23)            106.9364         estimate D2E/DX2                !
 ! A31   A(21,10,22)           109.1252         estimate D2E/DX2                !
 ! A32   A(21,10,23)           110.6804         estimate D2E/DX2                !
 ! A33   A(22,10,23)           110.316          estimate D2E/DX2                !
 ! A34   A(9,11,12)            120.9968         estimate D2E/DX2                !
 ! A35   A(9,11,13)            120.3741         estimate D2E/DX2                !
 ! A36   A(12,11,13)           118.6291         estimate D2E/DX2                !
 ! A37   A(5,13,11)            118.7148         estimate D2E/DX2                !
 ! A38   A(5,13,14)            118.6949         estimate D2E/DX2                !
 ! A39   A(11,13,14)           122.5903         estimate D2E/DX2                !
 ! A40   A(2,14,13)            123.0331         estimate D2E/DX2                !
 ! A41   A(2,14,24)            117.2475         estimate D2E/DX2                !
 ! A42   A(13,14,24)           119.7194         estimate D2E/DX2                !
 ! D1    D(15,1,2,3)           -12.8452         estimate D2E/DX2                !
 ! D2    D(15,1,2,14)          167.1549         estimate D2E/DX2                !
 ! D3    D(16,1,2,3)           103.0549         estimate D2E/DX2                !
 ! D4    D(16,1,2,14)          -76.945          estimate D2E/DX2                !
 ! D5    D(17,1,2,3)          -136.9394         estimate D2E/DX2                !
 ! D6    D(17,1,2,14)           43.0606         estimate D2E/DX2                !
 ! D7    D(1,2,3,4)           -179.9998         estimate D2E/DX2                !
 ! D8    D(1,2,3,18)             0.0007         estimate D2E/DX2                !
 ! D9    D(14,2,3,4)             0.0001         estimate D2E/DX2                !
 ! D10   D(14,2,3,18)         -179.9994         estimate D2E/DX2                !
 ! D11   D(1,2,14,13)          179.9998         estimate D2E/DX2                !
 ! D12   D(1,2,14,24)           -0.0004         estimate D2E/DX2                !
 ! D13   D(3,2,14,13)           -0.0002         estimate D2E/DX2                !
 ! D14   D(3,2,14,24)          179.9996         estimate D2E/DX2                !
 ! D15   D(2,3,4,5)             -0.0001         estimate D2E/DX2                !
 ! D16   D(2,3,4,19)           179.9994         estimate D2E/DX2                !
 ! D17   D(18,3,4,5)           179.9994         estimate D2E/DX2                !
 ! D18   D(18,3,4,19)           -0.0011         estimate D2E/DX2                !
 ! D19   D(3,4,5,6)           -179.9998         estimate D2E/DX2                !
 ! D20   D(3,4,5,13)             0.0            estimate D2E/DX2                !
 ! D21   D(19,4,5,6)             0.0008         estimate D2E/DX2                !
 ! D22   D(19,4,5,13)         -179.9994         estimate D2E/DX2                !
 ! D23   D(4,5,6,7)             -0.0001         estimate D2E/DX2                !
 ! D24   D(4,5,6,8)            179.9998         estimate D2E/DX2                !
 ! D25   D(13,5,6,7)          -179.9999         estimate D2E/DX2                !
 ! D26   D(13,5,6,8)             0.0            estimate D2E/DX2                !
 ! D27   D(4,5,13,11)         -179.9998         estimate D2E/DX2                !
 ! D28   D(4,5,13,14)           -0.0001         estimate D2E/DX2                !
 ! D29   D(6,5,13,11)            0.0            estimate D2E/DX2                !
 ! D30   D(6,5,13,14)          179.9997         estimate D2E/DX2                !
 ! D31   D(5,6,8,9)              0.0002         estimate D2E/DX2                !
 ! D32   D(5,6,8,20)          -179.9998         estimate D2E/DX2                !
 ! D33   D(7,6,8,9)            180.0            estimate D2E/DX2                !
 ! D34   D(7,6,8,20)             0.0            estimate D2E/DX2                !
 ! D35   D(6,8,9,10)          -179.9999         estimate D2E/DX2                !
 ! D36   D(6,8,9,11)            -0.0002         estimate D2E/DX2                !
 ! D37   D(20,8,9,10)            0.0001         estimate D2E/DX2                !
 ! D38   D(20,8,9,11)          179.9998         estimate D2E/DX2                !
 ! D39   D(8,9,10,21)         -148.9501         estimate D2E/DX2                !
 ! D40   D(8,9,10,22)          -28.9339         estimate D2E/DX2                !
 ! D41   D(8,9,10,23)           92.0747         estimate D2E/DX2                !
 ! D42   D(11,9,10,21)          31.0502         estimate D2E/DX2                !
 ! D43   D(11,9,10,22)         151.0664         estimate D2E/DX2                !
 ! D44   D(11,9,10,23)         -87.925          estimate D2E/DX2                !
 ! D45   D(8,9,11,12)         -179.9997         estimate D2E/DX2                !
 ! D46   D(8,9,11,13)            0.0002         estimate D2E/DX2                !
 ! D47   D(10,9,11,12)           0.0            estimate D2E/DX2                !
 ! D48   D(10,9,11,13)         179.9999         estimate D2E/DX2                !
 ! D49   D(9,11,13,5)            0.0            estimate D2E/DX2                !
 ! D50   D(9,11,13,14)        -179.9998         estimate D2E/DX2                !
 ! D51   D(12,11,13,5)         179.9999         estimate D2E/DX2                !
 ! D52   D(12,11,13,14)          0.0001         estimate D2E/DX2                !
 ! D53   D(5,13,14,2)            0.0001         estimate D2E/DX2                !
 ! D54   D(5,13,14,24)        -179.9996         estimate D2E/DX2                !
 ! D55   D(11,13,14,2)         179.9999         estimate D2E/DX2                !
 ! D56   D(11,13,14,24)          0.0001         estimate D2E/DX2                !
 --------------------------------------------------------------------------------
 Trust Radius=3.00D-01 FncErr=1.00D-07 GrdErr=1.00D-06 EigMax=2.50D+02 EigMin=1.00D-04
 Number of steps in this run=    133 maximum allowed number of steps=    144.
 GradGradGradGradGradGradGradGradGradGradGradGradGradGradGradGradGradGrad

 Leave Link  103 at Tue Dec 26 20:02:26 2023, MaxMem=  4026531840 cpu:               0.2 elap:               0.1
 (Enter /sysapps/ubuntu-applications/gaussian/Gaussian/AVX2/g16/l202.exe)
                          Input orientation:                          
 ---------------------------------------------------------------------
 Center     Atomic      Atomic             Coordinates (Angstroms)
 Number     Number       Type             X           Y           Z
 ---------------------------------------------------------------------
      1          6           0        3.731591   -1.029672   -0.288304
      2          6           0        2.442878   -0.303523   -0.081122
      3          6           0        2.457396    1.073657    0.051759
      4          6           0        1.262662    1.765055    0.245612
      5          6           0        0.050345    1.111084    0.310012
      6          6           0       -1.212837    1.810144    0.511848
      7          8           0       -1.220385    3.075639    0.636160
      8          6           0       -2.500921    1.097416    0.578521
      9          6           0       -2.477229   -0.218960    0.447535
     10          6           0       -3.752469   -0.961141    0.509973
     11          6           0       -1.246439   -0.966806    0.244362
     12          8           0       -1.261491   -2.212439    0.124374
     13          6           0        0.031517   -0.275540    0.176664
     14          6           0        1.235957   -0.944453   -0.016022
     15          1           0        4.523500   -0.310007   -0.534209
     16          1           0        4.028508   -1.512764    0.683904
     17          1           0        3.567801   -1.793897   -1.072745
     18          1           0        3.411515    1.603274    0.002522
     19          1           0        1.284654    2.842533    0.348461
     20          1           0       -3.417186    1.629424    0.727356
     21          1           0       -3.539363   -1.960967    0.940638
     22          1           0       -4.510564   -0.441493    1.147527
     23          1           0       -4.130011   -1.055708   -0.549316
     24          1           0        1.240572   -2.020854   -0.121576
 ---------------------------------------------------------------------
                    Distance matrix (angstroms):
                    1          2          3          4          5
     1  C    0.000000
     2  C    1.493652   0.000000
     3  C    2.482581   1.383652   0.000000
     4  C    3.767118   2.403889   1.393915   0.000000
     5  C    4.300278   2.806833   2.421154   1.378963   0.000000
     6  C    5.757792   4.264206   3.771565   2.490182   1.457755
     7  O    6.498483   5.035149   4.227946   2.834727   2.362330
     8  C    6.642296   5.180628   4.986276   3.836812   2.565393
     9  C    6.304614   4.949150   5.116445   4.238381   2.859469
    10  C    7.526826   6.258130   6.550785   5.714331   4.335378
    11  C    5.006842   3.762572   4.233081   3.709266   2.450222
    12  O    5.147826   4.172355   4.963247   4.712379   3.577874
    13  C    3.804662   2.425262   2.778636   2.384219   1.393148
    14  C    2.511889   1.368096   2.359930   2.722242   2.395247
    15  H    1.097956   2.129394   2.554735   3.942978   4.768787
    16  H    1.125489   2.135825   3.091532   4.311160   4.780183
    17  H    1.107346   2.114233   3.274198   4.440482   4.766910
    18  H    2.668227   2.140357   1.092366   2.168602   3.410904
    19  H    4.624602   3.379895   2.142960   1.082598   2.126714
    20  H    7.694633   6.223365   5.939362   4.706533   3.530811
    21  H    7.432657   6.291131   6.779393   6.117659   4.766675
    22  H    8.386936   7.062505   7.214489   6.245995   4.890176
    23  H    7.865977   6.632334   6.949058   6.137552   4.786315
    24  H    2.686153   2.096760   3.329670   3.803739   3.378157
                    6          7          8          9         10
     6  C    0.000000
     7  O    1.271608   0.000000
     8  C    1.473631   2.357214   0.000000
     9  C    2.391671   3.531235   1.323089   0.000000
    10  C    3.758957   4.766861   2.410130   1.476810   0.000000
    11  C    2.790005   4.061471   2.438524   1.454440   2.520073
    12  O    4.041495   5.312945   3.563366   2.357204   2.814144
    13  C    2.451702   3.606771   2.908563   2.523961   3.860013
    14  C    3.723311   4.756059   4.299647   3.811689   5.016109
    15  H    6.204421   6.769386   7.249931   7.069818   8.366957
    16  H    6.208302   6.971843   7.032608   6.637349   7.802445
    17  H    6.193104   7.039848   6.922121   6.429157   7.535571
    18  H    4.656913   4.901414   5.961927   6.180281   7.626034
    19  H    2.707394   2.532258   4.174798   4.851218   6.314003
    20  H    2.222219   2.631689   1.069919   2.092450   2.621202
    21  H    4.451726   5.553176   3.250107   2.099016   1.109297
    22  H    4.043385   4.843242   2.594354   2.161935   1.118578
    23  H    4.224818   5.190309   2.926072   2.103699   1.128527
    24  H    4.593146   5.710054   4.920621   4.170462   5.143181
                   11         12         13         14         15
    11  C    0.000000
    12  O    1.251490   0.000000
    13  C    1.454512   2.329418   0.000000
    14  C    2.496115   2.804416   1.391132   0.000000
    15  H    5.859161   6.125285   4.548015   3.388064   0.000000
    16  H    5.321309   5.365325   4.214730   2.934486   1.781977
    17  H    5.059225   4.993028   4.046200   2.697353   1.845350
    18  H    5.325442   6.034195   3.871001   3.350270   2.277111
    19  H    4.574750   5.664434   3.364854   3.804797   4.605186
    20  H    3.418456   4.446406   3.978154   5.369283   8.270879
    21  H    2.594351   2.432741   4.021879   4.975157   8.361257
    22  H    3.427269   3.839215   4.647647   5.884669   9.190204
    23  H    2.992125   3.165484   4.295815   5.393551   8.685595
    24  H    2.725831   2.521411   2.144034   1.081574   3.724901
                   16         17         18         19         20
    16  H    0.000000
    17  H    1.837689   0.000000
    18  H    3.248792   3.566707   0.000000
    19  H    5.158475   5.359950   2.485754   0.000000
    20  H    8.081682   7.984331   6.867112   4.870574   0.000000
    21  H    7.585478   7.388735   7.867565   6.833405   3.598795
    22  H    8.618487   8.486377   8.261444   6.708792   2.379227
    23  H    8.263846   7.750819   8.015568   6.732079   3.057442
    24  H    2.946106   2.524327   4.226429   4.886247   5.978288
                   21         22         23         24
    21  H    0.000000
    22  H    1.815168   0.000000
    23  H    1.840740   1.844277   0.000000
    24  H    4.896904   6.097587   5.473356   0.000000
 Symmetry turned off by external request.
 Stoichiometry    C12H10O2(2-)
 Framework group  C1[X(C12H10O2)]
 Deg. of freedom    66
 Full point group                 C1      NOp   1
 Rotational constants (GHZ):           1.1876489           0.5708191           0.3875298
 Leave Link  202 at Tue Dec 26 20:02:27 2023, MaxMem=  4026531840 cpu:               0.4 elap:               0.1
 (Enter /sysapps/ubuntu-applications/gaussian/Gaussian/AVX2/g16/l301.exe)
 Standard basis: 6-311++G(d,p) (5D, 7F)
 Ernie: Thresh=  0.10000D-02 Tol=  0.10000D-05 Strict=F.
   378 basis functions,   594 primitive gaussians,   392 cartesian basis functions
    50 alpha electrons       50 beta electrons
       nuclear repulsion energy       825.2454003190 Hartrees.
 IExCor=  402 DFT=T Ex+Corr=B3LYP ExCW=0 ScaHFX=  0.200000
 ScaDFX=  0.800000  0.720000  1.000000  0.810000 ScalE2=  1.000000  1.000000
 IRadAn=      5 IRanWt=     -1 IRanGd=            0 ICorTp=0 IEmpDi=  4
 NAtoms=   24 NActive=   24 NUniq=   24 SFac= 1.00D+00 NAtFMM=   60 NAOKFM=F Big=F
 Integral buffers will be    131072 words long.
 Raffenetti 2 integral format.
 Two-electron integral symmetry is turned off.
 Leave Link  301 at Tue Dec 26 20:02:27 2023, MaxMem=  4026531840 cpu:               0.6 elap:               0.2
 (Enter /sysapps/ubuntu-applications/gaussian/Gaussian/AVX2/g16/l302.exe)
 NPDir=0 NMtPBC=     1 NCelOv=     1 NCel=       1 NClECP=     1 NCelD=      1
         NCelK=      1 NCelE2=     1 NClLst=     1 CellRange=     0.0.
 One-electron integrals computed using PRISM.
 NBasis=   378 RedAO= T EigKep=  1.13D-06  NBF=   378
 NBsUse=   374 1.00D-06 EigRej=  7.15D-07 NBFU=   374
 Precomputing XC quadrature grid using
 IXCGrd= 4 IRadAn=           5 IRanWt=          -1 IRanGd=           0 AccXCQ= 0.00D+00.
 Generated NRdTot=       0 NPtTot=           0 NUsed=           0 NTot=          32
 NSgBfM=   392   392   392   392   392 MxSgAt=    24 MxSgA2=    24.
 Leave Link  302 at Tue Dec 26 20:02:28 2023, MaxMem=  4026531840 cpu:               7.0 elap:               1.2
 (Enter /sysapps/ubuntu-applications/gaussian/Gaussian/AVX2/g16/l303.exe)
 DipDrv:  MaxL=1.
 Leave Link  303 at Tue Dec 26 20:02:28 2023, MaxMem=  4026531840 cpu:               1.4 elap:               0.4
 (Enter /sysapps/ubuntu-applications/gaussian/Gaussian/AVX2/g16/l401.exe)
 ExpMin= 3.60D-02 ExpMax= 8.59D+03 ExpMxC= 1.30D+03 IAcc=3 IRadAn=         5 AccDes= 0.00D+00
 Harris functional with IExCor=  402 and IRadAn=       5 diagonalized for initial guess.
 HarFok:  IExCor=  402 AccDes= 0.00D+00 IRadAn=         5 IDoV= 1 UseB2=F ITyADJ=14
 ICtDFT=  3500011 ScaDFX=  1.000000  1.000000  1.000000  1.000000
 FoFCou: FMM=F IPFlag=           0 FMFlag=      100000 FMFlg1=           0
         NFxFlg=           0 DoJE=T BraDBF=F KetDBF=T FulRan=T
         wScrn=  0.000000 ICntrl=       500 IOpCl=  0 I1Cent=   200000004 NGrid=           0
         NMat0=    1 NMatS0=      1 NMatT0=    0 NMatD0=    1 NMtDS0=    0 NMtDT0=    0
 Symmetry not used in FoFCou.
 Harris En= -614.420793662582    
 JPrj=0 DoOrth=F DoCkMO=F.
 Initial guess <Sx>= 0.0000 <Sy>= 0.0000 <Sz>= 0.0000 <S**2>= 0.0000 S= 0.0000
 Leave Link  401 at Tue Dec 26 20:02:31 2023, MaxMem=  4026531840 cpu:              17.9 elap:               2.3
 (Enter /sysapps/ubuntu-applications/gaussian/Gaussian/AVX2/g16/l502.exe)
 Two-electron integral symmetry not used.
 UHF open shell SCF:
 Using DIIS extrapolation, IDIIS=  1040.
 NGot=  4026531840 LenX=  4026218500 LenY=  4026064395
 Requested convergence on RMS density matrix=1.00D-08 within 128 cycles.
 Requested convergence on MAX density matrix=1.00D-06.
 Requested convergence on             energy=1.00D-06.
 No special actions if energy rises.
 Fock matrices will be formed incrementally for  20 cycles.

 Cycle   1  Pass 1  IDiag  1:
 FoFJK:  IHMeth= 1 ICntrl=       0 DoSepK=F KAlg= 0 I1Cent=           0 FoldK=F
 IRaf= 890000000 NMat=       1 IRICut=       1 DoRegI=T DoRafI=F ISym2E= 0 IDoP0=0 IntGTp=1.
 FoFCou: FMM=F IPFlag=           0 FMFlag=      100000 FMFlg1=           0
         NFxFlg=           0 DoJE=F BraDBF=F KetDBF=F FulRan=T
         wScrn=  0.000000 ICntrl=         0 IOpCl=  1 I1Cent=           0 NGrid=           0
         NMat0=    1 NMatS0=      1 NMatT0=    0 NMatD0=    1 NMtDS0=    0 NMtDT0=    0
 Symmetry not used in FoFCou.
 E= -613.199726009082    
 DIIS: error= 4.47D-02 at cycle   1 NSaved=   1.
 NSaved= 1 IEnMin= 1 EnMin= -613.199726009082     IErMin= 1 ErrMin= 4.47D-02
 ErrMax= 4.47D-02  0.00D+00 EMaxC= 1.00D-01 BMatC= 2.64D+00 BMatP= 2.64D+00
 IDIUse=3 WtCom= 5.53D-01 WtEn= 4.47D-01
 Coeff-Com:  0.100D+01
 Coeff-En:   0.100D+01
 Coeff:      0.100D+01
 Gap=     0.025 Goal=   None    Shift=    0.000
 Gap=     0.025 Goal=   None    Shift=    0.000
 GapD=    0.025 DampG=0.250 DampE=0.500 DampFc=0.2500 IDamp=-1.
 Damping current iteration by 2.50D-01
 RMSDP=8.75D+00 MaxDP=1.06D+03              OVMax= 9.47D-01

 Cycle   2  Pass 1  IDiag  1:
 RMSU=  2.16D+00    CP:  3.00D+00
 E= -613.081661707329     Delta-E=        0.118064301754 Rises=F Damp=T
 DIIS: error= 1.80D-02 at cycle   2 NSaved=   2.
 NSaved= 2 IEnMin= 1 EnMin= -613.199726009082     IErMin= 2 ErrMin= 1.80D-02
 ErrMax= 1.80D-02  0.00D+00 EMaxC= 1.00D-01 BMatC= 4.85D-01 BMatP= 2.64D+00
 IDIUse=3 WtCom= 8.20D-01 WtEn= 1.80D-01
 Coeff-Com:  0.113D-01 0.989D+00
 Coeff-En:   0.573D+00 0.427D+00
 Coeff:      0.113D+00 0.887D+00
 Gap=     0.158 Goal=   None    Shift=    0.000
 Gap=     0.158 Goal=   None    Shift=    0.000
 RMSDP=2.18D+00 MaxDP=2.65D+02 DE= 1.18D-01 OVMax= 7.83D-01

 Cycle   3  Pass 1  IDiag  1:
 RMSU=  1.80D-02    CP:  1.34D+00 -8.14D-04
 E= -613.243686549251     Delta-E=       -0.162024841923 Rises=F Damp=F
 DIIS: error= 5.10D-02 at cycle   3 NSaved=   3.
 NSaved= 3 IEnMin= 3 EnMin= -613.243686549251     IErMin= 2 ErrMin= 1.80D-02
 ErrMax= 5.10D-02  0.00D+00 EMaxC= 1.00D-01 BMatC= 2.05D+00 BMatP= 4.85D-01
 IDIUse=2 WtCom= 0.00D+00 WtEn= 1.00D+00
 EnCoef did     2 forward-backward iterations
 Coeff-En:   0.122D+00 0.385D+00 0.492D+00
 Coeff:      0.122D+00 0.385D+00 0.492D+00
 Gap=     0.074 Goal=   None    Shift=    0.000
 Gap=     0.074 Goal=   None    Shift=    0.000
 RMSDP=2.71D+00 MaxDP=4.09D+02 DE=-1.62D-01 OVMax= 9.74D-01

 Cycle   4  Pass 1  IDiag  1:
 RMSU=  2.13D+00    CP:  3.00D+00  7.62D-01  3.00D+00
 E= -613.016662793391     Delta-E=        0.227023755860 Rises=F Damp=F
 DIIS: error= 6.95D-02 at cycle   4 NSaved=   4.
 NSaved= 4 IEnMin= 3 EnMin= -613.243686549251     IErMin= 2 ErrMin= 1.80D-02
 ErrMax= 6.95D-02  0.00D+00 EMaxC= 1.00D-01 BMatC= 2.61D+00 BMatP= 4.85D-01
 IDIUse=2 WtCom= 0.00D+00 WtEn= 1.00D+00
 EnCoef did     4 forward-backward iterations
 Coeff-En:   0.645D-01 0.000D+00 0.501D+00 0.434D+00
 Coeff:      0.645D-01 0.000D+00 0.501D+00 0.434D+00
 Gap=     0.162 Goal=   None    Shift=    0.000
 Gap=     0.162 Goal=   None    Shift=    0.000
 RMSDP=2.71D+00 MaxDP=4.09D+02 DE= 2.27D-01 OVMax= 9.86D-01

 Cycle   5  Pass 1  IDiag  1:
 RMSU=  2.58D-02    CP:  1.27D+00 -7.16D-04 -1.53D-01  1.05D-04
 E= -613.788392157577     Delta-E=       -0.771729364185 Rises=F Damp=F
 DIIS: error= 9.66D-03 at cycle   5 NSaved=   5.
 NSaved= 5 IEnMin= 5 EnMin= -613.788392157577     IErMin= 5 ErrMin= 9.66D-03
 ErrMax= 9.66D-03  0.00D+00 EMaxC= 1.00D-01 BMatC= 1.58D-01 BMatP= 4.85D-01
 IDIUse=3 WtCom= 9.03D-01 WtEn= 9.66D-02
 Coeff-Com: -0.155D+00 0.306D+00 0.209D+00 0.773D-01 0.562D+00
 Coeff-En:   0.000D+00 0.000D+00 0.000D+00 0.120D+00 0.880D+00
 Coeff:     -0.140D+00 0.277D+00 0.189D+00 0.814D-01 0.593D+00
 Gap=     0.040 Goal=   None    Shift=    0.000
 Gap=     0.040 Goal=   None    Shift=    0.000
 RMSDP=8.00D-03 MaxDP=4.96D-01 DE=-7.72D-01 OVMax= 6.99D-02

 Cycle   6  Pass 1  IDiag  1:
 RMSU=  6.59D-03    CP:  1.22D+00 -7.11D-04 -3.25D-02  3.53D-05  9.01D-01
 E= -613.796843354828     Delta-E=       -0.008451197251 Rises=F Damp=F
 DIIS: error= 1.78D-02 at cycle   6 NSaved=   6.
 NSaved= 6 IEnMin= 6 EnMin= -613.796843354828     IErMin= 5 ErrMin= 9.66D-03
 ErrMax= 1.78D-02  0.00D+00 EMaxC= 1.00D-01 BMatC= 1.95D-01 BMatP= 1.58D-01
 IDIUse=2 WtCom= 0.00D+00 WtEn= 1.00D+00
 EnCoef did     2 forward-backward iterations
 Coeff-En:   0.000D+00 0.000D+00 0.000D+00 0.116D+00 0.310D+00 0.574D+00
 Coeff:      0.000D+00 0.000D+00 0.000D+00 0.116D+00 0.310D+00 0.574D+00
 Gap=    -0.018 Goal=   None    Shift=    0.000
 Gap=    -0.018 Goal=   None    Shift=    0.000
 RMSDP=4.17D+00 MaxDP=6.22D+02 DE=-8.45D-03 OVMax= 1.00D+00

 Cycle   7  Pass 1  IDiag  1:
 RMSU=  6.21D-01    CP:  3.00D+00  1.24D+00  3.00D+00  1.46D+00 -3.00D+00
                    CP:  3.00D+00
 E= -613.540748988190     Delta-E=        0.256094366637 Rises=F Damp=F
 DIIS: error= 2.68D-02 at cycle   7 NSaved=   7.
 NSaved= 7 IEnMin= 6 EnMin= -613.796843354828     IErMin= 5 ErrMin= 9.66D-03
 ErrMax= 2.68D-02  0.00D+00 EMaxC= 1.00D-01 BMatC= 6.00D-01 BMatP= 1.58D-01
 IDIUse=2 WtCom= 0.00D+00 WtEn= 1.00D+00
 EnCoef did     5 forward-backward iterations
 Coeff-En:   0.000D+00 0.000D+00 0.000D+00 0.000D+00 0.278D+00 0.478D+00
 Coeff-En:   0.244D+00
 Coeff:      0.000D+00 0.000D+00 0.000D+00 0.000D+00 0.278D+00 0.478D+00
 Coeff:      0.244D+00
 Gap=    -0.002 Goal=   None    Shift=    0.000
 Gap=    -0.002 Goal=   None    Shift=    0.000
 RMSDP=4.17D+00 MaxDP=6.22D+02 DE= 2.56D-01 OVMax= 9.98D-01

 Cycle   8  Pass 1  IDiag  1:
 RMSU=  3.34D-02    CP:  1.72D+00  2.40D-04 -1.11D-01 -1.77D-03  2.50D+00
                    CP:  8.91D-01 -1.44D-03
 E= -613.831914277520     Delta-E=       -0.291165289329 Rises=F Damp=F
 DIIS: error= 5.91D-03 at cycle   8 NSaved=   8.
 NSaved= 8 IEnMin= 8 EnMin= -613.831914277520     IErMin= 8 ErrMin= 5.91D-03
 ErrMax= 5.91D-03  0.00D+00 EMaxC= 1.00D-01 BMatC= 3.63D-02 BMatP= 1.58D-01
 IDIUse=3 WtCom= 9.41D-01 WtEn= 5.91D-02
 EnCoef did    10 forward-backward iterations
 Coeff-Com: -0.876D-01 0.115D+00-0.168D-01-0.319D-01 0.251D+00 0.395D+00
 Coeff-Com:  0.141D+00 0.234D+00
 Coeff-En:   0.000D+00 0.000D+00 0.000D+00 0.000D+00 0.000D+00 0.208D+00
 Coeff-En:   0.166D+00 0.625D+00
 Coeff:     -0.824D-01 0.108D+00-0.158D-01-0.300D-01 0.237D+00 0.384D+00
 Coeff:      0.142D+00 0.257D+00
 Gap=     0.022 Goal=   None    Shift=    0.000
 Gap=     0.022 Goal=   None    Shift=    0.000
 RMSDP=2.83D-02 MaxDP=2.17D+00 DE=-2.91D-01 OVMax= 4.75D-02

 Cycle   9  Pass 1  IDiag  1:
 RMSU=  5.53D-03    CP:  1.49D+00 -4.67D-04 -9.89D-02 -8.12D-04  1.79D+00
                    CP:  1.14D+00 -2.42D-04  5.57D-01
 E= -613.833710024689     Delta-E=       -0.001795747169 Rises=F Damp=F
 DIIS: error= 5.09D-03 at cycle   9 NSaved=   9.
 NSaved= 9 IEnMin= 9 EnMin= -613.833710024689     IErMin= 9 ErrMin= 5.09D-03
 ErrMax= 5.09D-03  0.00D+00 EMaxC= 1.00D-01 BMatC= 3.15D-02 BMatP= 3.63D-02
 IDIUse=3 WtCom= 9.49D-01 WtEn= 5.09D-02
 EnCoef did     7 forward-backward iterations
 Coeff-Com: -0.474D-01 0.712D-01-0.401D-01-0.109D-01-0.859D-02 0.628D-01
 Coeff-Com:  0.753D-01 0.129D+00 0.769D+00
 Coeff-En:   0.000D+00 0.000D+00 0.000D+00 0.000D+00 0.000D+00 0.000D+00
 Coeff-En:   0.164D+00 0.621D-01 0.774D+00
 Coeff:     -0.450D-01 0.676D-01-0.381D-01-0.104D-01-0.815D-02 0.596D-01
 Coeff:      0.798D-01 0.125D+00 0.769D+00
 Gap=     0.004 Goal=   None    Shift=    0.000
 Gap=     0.004 Goal=   None    Shift=    0.000
 RMSDP=7.80D-02 MaxDP=9.43D+00 DE=-1.80D-03 OVMax= 8.77D-02

 Cycle  10  Pass 1  IDiag  1:
 RMSU=  4.89D-02    CP:  1.95D+00  7.70D-03  8.30D-01  3.55D-03  2.81D+00
                    CP:  1.36D+00  6.14D-03  1.65D+00  3.00D+00
 E= -613.841733064449     Delta-E=       -0.008023039760 Rises=F Damp=F
 DIIS: error= 2.42D-03 at cycle  10 NSaved=  10.
 NSaved=10 IEnMin=10 EnMin= -613.841733064449     IErMin=10 ErrMin= 2.42D-03
 ErrMax= 2.42D-03  0.00D+00 EMaxC= 1.00D-01 BMatC= 1.03D-02 BMatP= 3.15D-02
 IDIUse=3 WtCom= 9.76D-01 WtEn= 2.42D-02
 Coeff-Com: -0.151D-01 0.322D-01-0.249D-01 0.131D-01-0.138D+00-0.219D+00
 Coeff-Com: -0.129D-02-0.778D-01 0.612D+00 0.818D+00
 Coeff-En:   0.000D+00 0.000D+00 0.000D+00 0.000D+00 0.000D+00 0.000D+00
 Coeff-En:   0.120D+00 0.000D+00 0.000D+00 0.880D+00
 Coeff:     -0.148D-01 0.315D-01-0.243D-01 0.128D-01-0.135D+00-0.213D+00
 Coeff:      0.165D-02-0.759D-01 0.597D+00 0.820D+00
 Gap=    -0.009 Goal=   None    Shift=    0.000
 Gap=    -0.009 Goal=   None    Shift=    0.000
 RMSDP=4.36D+00 MaxDP=6.34D+02 DE=-8.02D-03 OVMax= 9.78D-01

 Cycle  11  Pass 1  IDiag  1:
 RMSU=  2.44D-01    CP:  3.00D+00  1.31D+00  3.00D+00  1.51D+00 -3.00D+00
                    CP:  3.00D+00  1.24D+00  6.26D-01  2.13D+00  2.91D+00
 E= -613.594084689670     Delta-E=        0.247648374779 Rises=F Damp=F
 DIIS: error= 2.79D-02 at cycle  11 NSaved=  11.
 NSaved=11 IEnMin=10 EnMin= -613.841733064449     IErMin=10 ErrMin= 2.42D-03
 ErrMax= 2.79D-02  0.00D+00 EMaxC= 1.00D-01 BMatC= 3.46D-01 BMatP= 1.03D-02
 IDIUse=2 WtCom= 0.00D+00 WtEn= 1.00D+00
 Coeff-En:   0.000D+00 0.000D+00 0.000D+00 0.000D+00 0.000D+00 0.000D+00
 Coeff-En:   0.000D+00 0.000D+00 0.000D+00 0.859D+00 0.141D+00
 Coeff:      0.000D+00 0.000D+00 0.000D+00 0.000D+00 0.000D+00 0.000D+00
 Coeff:      0.000D+00 0.000D+00 0.000D+00 0.859D+00 0.141D+00
 Gap=    -0.008 Goal=   None    Shift=    0.000
 Gap=    -0.008 Goal=   None    Shift=    0.000
 RMSDP=4.27D+00 MaxDP=6.24D+02 DE= 2.48D-01 OVMax= 9.56D-01

 Cycle  12  Pass 1  IDiag  1:
 RMSU=  1.90D-02    CP:  2.29D+00  3.36D-02  2.42D+00  3.08D-02  2.94D+00
                    CP:  7.83D-01  2.58D-02  2.37D+00  3.00D+00  2.58D+00
                    CP: -1.02D-02
 E= -613.840872834335     Delta-E=       -0.246788144665 Rises=F Damp=F
 DIIS: error= 4.76D-03 at cycle  12 NSaved=  12.
 NSaved=12 IEnMin=10 EnMin= -613.841733064449     IErMin=10 ErrMin= 2.42D-03
 ErrMax= 4.76D-03  0.00D+00 EMaxC= 1.00D-01 BMatC= 1.77D-02 BMatP= 1.03D-02
 IDIUse=3 WtCom= 9.76D-01 WtEn= 2.42D-02
 EnCoef did    26 forward-backward iterations
 Coeff-Com: -0.124D-01 0.206D-01-0.675D-02 0.610D-02-0.717D-01-0.841D-01
 Coeff-Com: -0.561D-01-0.143D+00-0.580D-01 0.914D+00 0.904D-01 0.402D+00
 Coeff-En:   0.000D+00 0.000D+00 0.000D+00 0.000D+00 0.000D+00 0.000D+00
 Coeff-En:   0.000D+00 0.000D+00 0.000D+00 0.510D+00 0.141D+00 0.350D+00
 Coeff:     -0.121D-01 0.201D-01-0.659D-02 0.595D-02-0.700D-01-0.821D-01
 Coeff:     -0.547D-01-0.140D+00-0.566D-01 0.904D+00 0.916D-01 0.400D+00
 Gap=    -0.004 Goal=   None    Shift=    0.000
 Gap=    -0.004 Goal=   None    Shift=    0.000
 RMSDP=4.12D+00 MaxDP=6.08D+02 DE=-2.47D-01 OVMax= 8.80D-01

 Cycle  13  Pass 1  IDiag  1:
 RMSU=  1.80D-01    CP:  3.00D+00  1.26D+00  3.00D+00  1.46D+00 -3.00D+00
                    CP:  2.03D+00  1.19D+00  1.79D+00  3.00D+00  3.00D+00
                    CP:  1.08D+00  7.84D-01
 E= -613.656294076896     Delta-E=        0.184578757440 Rises=F Damp=F
 DIIS: error= 2.36D-02 at cycle  13 NSaved=  13.
 NSaved=13 IEnMin=10 EnMin= -613.841733064449     IErMin=10 ErrMin= 2.42D-03
 ErrMax= 2.36D-02  0.00D+00 EMaxC= 1.00D-01 BMatC= 2.83D-01 BMatP= 1.03D-02
 IDIUse=2 WtCom= 0.00D+00 WtEn= 1.00D+00
 EnCoef did   100 forward-backward iterations
 Coeff-En:   0.000D+00 0.000D+00 0.000D+00 0.000D+00 0.000D+00 0.000D+00
 Coeff-En:   0.000D+00 0.000D+00 0.000D+00 0.470D+00 0.256D-02 0.370D+00
 Coeff-En:   0.158D+00
 Coeff:      0.000D+00 0.000D+00 0.000D+00 0.000D+00 0.000D+00 0.000D+00
 Coeff:      0.000D+00 0.000D+00 0.000D+00 0.470D+00 0.256D-02 0.370D+00
 Coeff:      0.158D+00
 Gap=    -0.004 Goal=   None    Shift=    0.000
 Gap=    -0.004 Goal=   None    Shift=    0.000
 RMSDP=3.97D+00 MaxDP=5.87D+02 DE= 1.85D-01 OVMax= 8.36D-01

 Cycle  14  Pass 1  IDiag  1:
 RMSU=  2.60D-02    CP:  2.56D+00  7.68D-02  3.00D+00  8.35D-02  2.46D+00
                    CP:  5.34D-01  5.63D-02  2.53D+00  3.00D+00  3.00D+00
                    CP: -6.52D-03  1.53D+00  2.29D-01
 E= -613.845941278070     Delta-E=       -0.189647201174 Rises=F Damp=F
 DIIS: error= 2.13D-03 at cycle  14 NSaved=  14.
 NSaved=14 IEnMin=14 EnMin= -613.845941278070     IErMin=14 ErrMin= 2.13D-03
 ErrMax= 2.13D-03  0.00D+00 EMaxC= 1.00D-01 BMatC= 8.97D-03 BMatP= 1.03D-02
 IDIUse=3 WtCom= 9.79D-01 WtEn= 2.13D-02
 Coeff-Com: -0.487D-02 0.488D-02-0.836D-02 0.801D-02-0.612D-01-0.462D-01
 Coeff-Com: -0.200D-01-0.257D+00-0.238D+00 0.582D+00-0.152D+00 0.468D+00
 Coeff-Com:  0.227D+00 0.499D+00
 Coeff-En:   0.000D+00 0.000D+00 0.000D+00 0.000D+00 0.000D+00 0.000D+00
 Coeff-En:   0.000D+00 0.000D+00 0.000D+00 0.000D+00 0.000D+00 0.000D+00
 Coeff-En:   0.140D+00 0.860D+00
 Coeff:     -0.477D-02 0.478D-02-0.818D-02 0.784D-02-0.599D-01-0.452D-01
 Coeff:     -0.196D-01-0.252D+00-0.233D+00 0.569D+00-0.149D+00 0.458D+00
 Coeff:      0.225D+00 0.506D+00
 Gap=    -0.003 Goal=   None    Shift=    0.000
 Gap=    -0.003 Goal=   None    Shift=    0.000
 RMSDP=4.33D+00 MaxDP=6.46D+02 DE=-1.90D-01 OVMax= 8.01D-01

 Cycle  15  Pass 1  IDiag  1:
 RMSU=  1.30D-01    CP:  3.00D+00  1.40D+00  3.00D+00  1.55D+00 -3.00D+00
                    CP:  1.03D-01  1.41D+00  2.16D+00  2.81D+00  3.00D+00
                    CP:  5.01D-01 -1.93D+00  1.43D+00 -9.04D-01
 E= -613.681669996604     Delta-E=        0.164271281466 Rises=F Damp=F
 DIIS: error= 2.12D-02 at cycle  15 NSaved=  15.
 NSaved=15 IEnMin=14 EnMin= -613.845941278070     IErMin=14 ErrMin= 2.13D-03
 ErrMax= 2.12D-02  0.00D+00 EMaxC= 1.00D-01 BMatC= 2.52D-01 BMatP= 8.97D-03
 IDIUse=2 WtCom= 0.00D+00 WtEn= 1.00D+00
 Coeff-En:   0.000D+00 0.000D+00 0.000D+00 0.000D+00 0.000D+00 0.000D+00
 Coeff-En:   0.000D+00 0.000D+00 0.000D+00 0.000D+00 0.000D+00 0.000D+00
 Coeff-En:   0.000D+00 0.849D+00 0.151D+00
 Coeff:      0.000D+00 0.000D+00 0.000D+00 0.000D+00 0.000D+00 0.000D+00
 Coeff:      0.000D+00 0.000D+00 0.000D+00 0.000D+00 0.000D+00 0.000D+00
 Coeff:      0.000D+00 0.849D+00 0.151D+00
 Gap=     0.001 Goal=   None    Shift=    0.000
 Gap=     0.001 Goal=   None    Shift=    0.000
 RMSDP=3.65D+00 MaxDP=5.48D+02 DE= 1.64D-01 OVMax= 6.60D-01

 Cycle  16  Pass 1  IDiag  1:
 RMSU=  3.20D-02    CP:  3.00D+00  2.80D-01  3.00D+00  3.22D-01  1.31D+00
                    CP: -7.86D-01  1.96D-01  3.00D+00  3.00D+00  3.00D+00
                    CP:  9.28D-03  2.26D+00  9.86D-01  3.00D+00  1.11D-01
 E= -613.852467802982     Delta-E=       -0.170797806378 Rises=F Damp=F
 DIIS: error= 2.11D-03 at cycle  16 NSaved=  16.
 NSaved=16 IEnMin=16 EnMin= -613.852467802982     IErMin=16 ErrMin= 2.11D-03
 ErrMax= 2.11D-03  0.00D+00 EMaxC= 1.00D-01 BMatC= 7.35D-03 BMatP= 8.97D-03
 IDIUse=3 WtCom= 9.79D-01 WtEn= 2.11D-02
 EnCoef did   100 forward-backward iterations
 Coeff-Com: -0.336D-02 0.383D-02-0.306D-02 0.341D-02-0.221D-01-0.367D-01
 Coeff-Com: -0.184D-01-0.933D-02 0.132D-01-0.112D+00-0.481D-01-0.221D+00
 Coeff-Com: -0.868D-01 0.815D+00 0.200D+00 0.524D+00
 Coeff-En:   0.000D+00 0.000D+00 0.000D+00 0.000D+00 0.000D+00 0.000D+00
 Coeff-En:   0.000D+00 0.000D+00 0.000D+00 0.000D+00 0.000D+00 0.000D+00
 Coeff-En:   0.433D-03 0.116D+00 0.281D-01 0.855D+00
 Coeff:     -0.329D-02 0.375D-02-0.299D-02 0.334D-02-0.216D-01-0.359D-01
 Coeff:     -0.180D-01-0.913D-02 0.130D-01-0.109D+00-0.471D-01-0.216D+00
 Coeff:     -0.849D-01 0.801D+00 0.196D+00 0.531D+00
 Gap=     0.008 Goal=   None    Shift=    0.000
 Gap=     0.008 Goal=   None    Shift=    0.000
 RMSDP=2.32D+00 MaxDP=3.47D+02 DE=-1.71D-01 OVMax= 3.99D-01

 Cycle  17  Pass 1  IDiag  1:
 RMSU=  4.42D-02    CP:  3.00D+00  1.00D+00  3.00D+00  1.10D+00 -1.64D+00
                    CP: -1.70D+00  8.39D-01  3.00D+00  3.00D+00  3.00D+00
                    CP: -4.74D-01 -1.06D+00  1.62D+00  2.64D+00  1.14D+00
                    CP:  1.98D+00
 E= -613.805819061789     Delta-E=        0.046648741192 Rises=F Damp=F
 DIIS: error= 1.03D-02 at cycle  17 NSaved=  17.
 NSaved=17 IEnMin=16 EnMin= -613.852467802982     IErMin=16 ErrMin= 2.11D-03
 ErrMax= 1.03D-02  0.00D+00 EMaxC= 1.00D-01 BMatC= 7.93D-02 BMatP= 7.35D-03
 IDIUse=2 WtCom= 0.00D+00 WtEn= 1.00D+00
 EnCoef did     5 forward-backward iterations
 Coeff-En:   0.000D+00 0.000D+00 0.000D+00 0.000D+00 0.000D+00 0.000D+00
 Coeff-En:   0.000D+00 0.000D+00 0.000D+00 0.000D+00 0.000D+00 0.000D+00
 Coeff-En:   0.000D+00 0.247D+00 0.000D+00 0.631D+00 0.122D+00
 Coeff:      0.000D+00 0.000D+00 0.000D+00 0.000D+00 0.000D+00 0.000D+00
 Coeff:      0.000D+00 0.000D+00 0.000D+00 0.000D+00 0.000D+00 0.000D+00
 Coeff:      0.000D+00 0.247D+00 0.000D+00 0.631D+00 0.122D+00
 Gap=     0.010 Goal=   None    Shift=    0.000
 Gap=     0.010 Goal=   None    Shift=    0.000
 RMSDP=2.09D+00 MaxDP=3.11D+02 DE= 4.66D-02 OVMax= 3.66D-01

 Cycle  18  Pass 1  IDiag  1:
 RMSU=  1.64D-02    CP:  3.00D+00  3.48D-01  3.00D+00  3.97D-01  7.16D-01
                    CP: -8.24D-01  2.50D-01  2.65D+00  3.00D+00  3.00D+00
                    CP: -1.53D-01  1.60D+00  9.23D-01  2.97D+00  2.49D-01
                    CP:  4.84D-01  3.72D-01
 E= -613.851487396046     Delta-E=       -0.045668334257 Rises=F Damp=F
 DIIS: error= 2.81D-03 at cycle  18 NSaved=  18.
 NSaved=18 IEnMin=16 EnMin= -613.852467802982     IErMin=16 ErrMin= 2.11D-03
 ErrMax= 2.81D-03  0.00D+00 EMaxC= 1.00D-01 BMatC= 1.39D-02 BMatP= 7.35D-03
 IDIUse=3 WtCom= 9.79D-01 WtEn= 2.11D-02
 EnCoef did     1 forward-backward iterations
 Coeff-Com: -0.499D-02 0.489D-02-0.188D-02 0.139D-02 0.159D-02 0.661D-03
 Coeff-Com: -0.683D-02 0.500D-02 0.437D-01-0.229D-01 0.339D-01-0.662D-01
 Coeff-Com: -0.106D+00 0.179D+00 0.298D-01 0.516D+00 0.129D+00 0.265D+00
 Coeff-En:   0.000D+00 0.000D+00 0.000D+00 0.000D+00 0.000D+00 0.000D+00
 Coeff-En:   0.000D+00 0.000D+00 0.000D+00 0.000D+00 0.000D+00 0.000D+00
 Coeff-En:   0.000D+00 0.000D+00 0.000D+00 0.552D+00 0.377D-01 0.411D+00
 Coeff:     -0.488D-02 0.479D-02-0.184D-02 0.136D-02 0.156D-02 0.647D-03
 Coeff:     -0.668D-02 0.489D-02 0.427D-01-0.224D-01 0.332D-01-0.648D-01
 Coeff:     -0.104D+00 0.175D+00 0.292D-01 0.517D+00 0.127D+00 0.268D+00
 Gap=     0.011 Goal=   None    Shift=    0.000
 Gap=     0.011 Goal=   None    Shift=    0.000
 RMSDP=1.07D+00 MaxDP=1.58D+02 DE=-4.57D-02 OVMax= 2.01D-01

 Cycle  19  Pass 1  IDiag  1:
 RMSU=  8.50D-03    CP:  3.00D+00  6.76D-01  3.00D+00  7.60D-01 -4.83D-01
                    CP: -1.41D+00  5.09D-01  3.00D+00  3.00D+00  3.00D+00
                    CP: -3.12D-01  7.21D-01  1.36D+00  3.00D+00  6.25D-01
                    CP:  1.69D+00  7.37D-01  8.22D-01
 E= -613.843434838060     Delta-E=        0.008052557986 Rises=F Damp=F
 DIIS: error= 4.81D-03 at cycle  19 NSaved=  19.
 NSaved=19 IEnMin=16 EnMin= -613.852467802982     IErMin=16 ErrMin= 2.11D-03
 ErrMax= 4.81D-03  0.00D+00 EMaxC= 1.00D-01 BMatC= 1.95D-02 BMatP= 7.35D-03
 IDIUse=3 WtCom= 9.79D-01 WtEn= 2.11D-02
 EnCoef did     2 forward-backward iterations
 Coeff-Com: -0.361D-02 0.343D-02-0.977D-03 0.640D-03 0.530D-02-0.136D-02
 Coeff-Com: -0.138D-02 0.777D-02 0.554D-01-0.124D-01 0.417D-01 0.159D-01
 Coeff-Com: -0.129D+00 0.140D+00 0.824D-01 0.262D+00-0.186D+00 0.180D+00
 Coeff-Com:  0.539D+00
 Coeff-En:   0.000D+00 0.000D+00 0.000D+00 0.000D+00 0.000D+00 0.000D+00
 Coeff-En:   0.000D+00 0.000D+00 0.000D+00 0.000D+00 0.000D+00 0.000D+00
 Coeff-En:   0.000D+00 0.000D+00 0.000D+00 0.504D+00 0.000D+00 0.379D+00
 Coeff-En:   0.117D+00
 Coeff:     -0.353D-02 0.336D-02-0.956D-03 0.626D-03 0.519D-02-0.133D-02
 Coeff:     -0.135D-02 0.760D-02 0.542D-01-0.122D-01 0.408D-01 0.156D-01
 Coeff:     -0.126D+00 0.137D+00 0.807D-01 0.267D+00-0.182D+00 0.184D+00
 Coeff:      0.530D+00
 Gap=     0.012 Goal=   None    Shift=    0.000
 Gap=     0.012 Goal=   None    Shift=    0.000
 RMSDP=2.47D-01 MaxDP=3.69D+01 DE= 8.05D-03 OVMax= 4.15D-02

 Cycle  20  Pass 1  IDiag  1:
 RMSU=  3.56D-03    CP:  3.00D+00  5.98D-01  3.00D+00  6.79D-01 -2.36D-01
                    CP: -1.24D+00  4.31D-01  2.95D+00  3.00D+00  3.00D+00
                    CP: -2.57D-01  1.08D+00  1.26D+00  3.00D+00  5.13D-01
                    CP:  1.59D+00  6.20D-01  1.06D+00  1.27D+00
 E= -613.848248827739     Delta-E=       -0.004813989678 Rises=F Damp=F
 DIIS: error= 3.68D-03 at cycle  20 NSaved=  20.
 NSaved=20 IEnMin=16 EnMin= -613.852467802982     IErMin=16 ErrMin= 2.11D-03
 ErrMax= 3.68D-03  0.00D+00 EMaxC= 1.00D-01 BMatC= 1.17D-02 BMatP= 7.35D-03
 IDIUse=3 WtCom= 9.79D-01 WtEn= 2.11D-02
 EnCoef did     3 forward-backward iterations
 Coeff-Com: -0.179D-02 0.149D-02 0.490D-04 0.615D-03 0.441D-02-0.463D-02
 Coeff-Com: -0.687D-04 0.341D-02 0.381D-01 0.954D-02 0.344D-01 0.635D-01
 Coeff-Com: -0.175D+00 0.186D+00 0.187D+00 0.330D-01-0.355D+00 0.376D-01
 Coeff-Com:  0.110D+00 0.827D+00
 Coeff-En:   0.000D+00 0.000D+00 0.000D+00 0.000D+00 0.000D+00 0.000D+00
 Coeff-En:   0.000D+00 0.000D+00 0.000D+00 0.000D+00 0.000D+00 0.000D+00
 Coeff-En:   0.000D+00 0.000D+00 0.000D+00 0.474D+00 0.000D+00 0.358D+00
 Coeff-En:   0.000D+00 0.169D+00
 Coeff:     -0.176D-02 0.146D-02 0.480D-04 0.602D-03 0.432D-02-0.453D-02
 Coeff:     -0.673D-04 0.334D-02 0.373D-01 0.934D-02 0.336D-01 0.621D-01
 Coeff:     -0.172D+00 0.182D+00 0.183D+00 0.423D-01-0.348D+00 0.444D-01
 Coeff:      0.108D+00 0.813D+00
 Gap=     0.011 Goal=   None    Shift=    0.000
 Gap=     0.011 Goal=   None    Shift=    0.000
 RMSDP=2.81D-02 MaxDP=3.68D+00 DE=-4.81D-03 OVMax= 6.76D-03

 Cycle  21  Pass 1  IDiag  1:
 Restarting incremental Fock formation.
 E= -613.847510176244     Delta-E=        0.000738651495 Rises=F Damp=F
 DIIS: error= 3.94D-03 at cycle  21 NSaved=  20.
 NSaved=20 IEnMin=15 EnMin= -613.852467802982     IErMin=15 ErrMin= 2.11D-03
 ErrMax= 3.94D-03  0.00D+00 EMaxC= 1.00D-01 BMatC= 1.31D-02 BMatP= 7.35D-03
 IDIUse=3 WtCom= 9.79D-01 WtEn= 2.11D-02
 Rare condition: small coef for last iteration:  0.222D-15
 Coeff-Com: -0.201D-02 0.170D-02 0.255D-04 0.628D-02-0.253D-02 0.577D-03
 Coeff-Com:  0.654D-02 0.386D-01-0.105D-02 0.368D-01 0.614D-01-0.178D+00
 Coeff-Com:  0.189D+00 0.188D+00 0.280D-01-0.359D+00 0.349D-01 0.964D-01
 Coeff-Com:  0.812D+00 0.419D-01
 Coeff-En:   0.000D+00 0.000D+00 0.000D+00 0.000D+00 0.000D+00 0.000D+00
 Coeff-En:   0.000D+00 0.000D+00 0.000D+00 0.000D+00 0.000D+00 0.000D+00
 Coeff-En:   0.000D+00 0.000D+00 0.480D+00 0.000D+00 0.351D+00 0.000D+00
 Coeff-En:   0.000D+00 0.169D+00
 Coeff:     -0.201D-02 0.170D-02 0.255D-04 0.628D-02-0.253D-02 0.577D-03
 Coeff:      0.654D-02 0.386D-01-0.105D-02 0.368D-01 0.614D-01-0.178D+00
 Coeff:      0.189D+00 0.188D+00 0.280D-01-0.359D+00 0.349D-01 0.964D-01
 Coeff:      0.812D+00 0.419D-01
 Gap=     0.012 Goal=   None    Shift=    0.000
 Gap=     0.012 Goal=   None    Shift=    0.000
 RMSDP=2.62D-02 MaxDP=3.86D+00 DE= 7.39D-04 OVMax= 4.58D-03

 Cycle  22  Pass 1  IDiag  1:
 RMSU=  3.91D-03    CP:  9.87D-01
 E= -613.847992384525     Delta-E=       -0.000482208281 Rises=F Damp=F
 DIIS: error= 3.82D-03 at cycle  22 NSaved=  20.
 NSaved=20 IEnMin=14 EnMin= -613.852467802982     IErMin=14 ErrMin= 2.11D-03
 ErrMax= 3.82D-03  0.00D+00 EMaxC= 1.00D-01 BMatC= 1.23D-02 BMatP= 7.35D-03
 IDIUse=3 WtCom= 9.79D-01 WtEn= 2.11D-02
 EnCoef did    53 forward-backward iterations
 Coeff-Com: -0.623D-03 0.634D-03 0.379D-02-0.283D-02 0.183D-03-0.558D-02
 Coeff-Com:  0.191D-01-0.147D-02 0.219D-01 0.691D-01-0.165D+00 0.199D+00
 Coeff-Com:  0.199D+00 0.344D-01-0.315D+00 0.223D-01 0.365D+00 0.565D+00
 Coeff-Com: -0.633D+01 0.632D+01
 Coeff-En:   0.000D+00 0.000D+00 0.000D+00 0.000D+00 0.000D+00 0.000D+00
 Coeff-En:   0.000D+00 0.000D+00 0.000D+00 0.000D+00 0.000D+00 0.000D+00
 Coeff-En:   0.000D+00 0.474D+00 0.000D+00 0.358D+00 0.000D+00 0.167D+00
 Coeff-En:   0.000D+00 0.145D-02
 Coeff:     -0.610D-03 0.621D-03 0.371D-02-0.277D-02 0.179D-03-0.547D-02
 Coeff:      0.187D-01-0.144D-02 0.214D-01 0.676D-01-0.162D+00 0.195D+00
 Coeff:      0.195D+00 0.437D-01-0.309D+00 0.294D-01 0.357D+00 0.557D+00
 Coeff:     -0.620D+01 0.619D+01
 Gap=     0.012 Goal=   None    Shift=    0.000
 Gap=     0.012 Goal=   None    Shift=    0.000
 RMSDP=6.63D-02 MaxDP=1.02D+01 DE=-4.82D-04 OVMax= 9.84D-03

 Cycle  23  Pass 1  IDiag  1:
 RMSU=  1.11D-02    CP:  1.02D+00 -1.78D+00
 E= -613.847137908705     Delta-E=        0.000854475820 Rises=F Damp=F
 DIIS: error= 4.01D-03 at cycle  23 NSaved=  20.
 NSaved=20 IEnMin=13 EnMin= -613.852467802982     IErMin=13 ErrMin= 2.11D-03
 ErrMax= 4.01D-03  0.00D+00 EMaxC= 1.00D-01 BMatC= 1.36D-02 BMatP= 7.35D-03
 IDIUse=3 WtCom= 9.79D-01 WtEn= 2.11D-02
 Large coefficients: NSaved= 20 BigCof=   13.00 CofMax=   10.00 Det=-1.24D-08
 Inversion failed.  Reducing to 19 matrices.
 Large coefficients: NSaved= 19 BigCof=   12.57 CofMax=   10.00 Det=-1.27D-08
 Inversion failed.  Reducing to 18 matrices.
 Large coefficients: NSaved= 18 BigCof=   12.57 CofMax=   10.00 Det=-1.29D-08
 Inversion failed.  Reducing to 17 matrices.
 Large coefficients: NSaved= 17 BigCof=   12.79 CofMax=   10.00 Det=-2.32D-08
 Inversion failed.  Reducing to 16 matrices.
 Large coefficients: NSaved= 16 BigCof=   14.83 CofMax=   10.00 Det=-2.86D-08
 Inversion failed.  Reducing to 15 matrices.
 Large coefficients: NSaved= 15 BigCof=   16.66 CofMax=   10.00 Det=-3.10D-08
 Inversion failed.  Reducing to 14 matrices.
 Large coefficients: NSaved= 14 BigCof=   16.32 CofMax=   10.00 Det=-3.22D-08
 Inversion failed.  Reducing to 13 matrices.
 Large coefficients: NSaved= 13 BigCof=   16.22 CofMax=   10.00 Det=-3.23D-08
 Inversion failed.  Reducing to 12 matrices.
 Large coefficients: NSaved= 12 BigCof=   19.37 CofMax=   10.00 Det=-3.56D-08
 Inversion failed.  Reducing to 11 matrices.
 Large coefficients: NSaved= 11 BigCof=   19.10 CofMax=   10.00 Det=-3.73D-08
 Inversion failed.  Reducing to 10 matrices.
 Large coefficients: NSaved= 10 BigCof=   15.89 CofMax=   10.00 Det=-4.24D-08
 Inversion failed.  Reducing to  9 matrices.
 Large coefficients: NSaved=  9 BigCof=   14.51 CofMax=   10.00 Det=-4.56D-08
 Inversion failed.  Reducing to  8 matrices.
 Large coefficients: NSaved=  8 BigCof=   14.55 CofMax=   10.00 Det=-4.57D-08
 Inversion failed.  Reducing to  7 matrices.
 Rare condition: small coef for last iteration: -0.888D-15
 Coeff-Com:  0.260D+00 0.214D+00 0.545D-01 0.594D+00-0.853D+01 0.812D+01
 Coeff-Com:  0.295D+00
 Coeff-En:   0.000D+00 0.482D+00 0.354D+00 0.000D+00 0.000D+00 0.000D+00
 Coeff-En:   0.163D+00
 Coeff:      0.260D+00 0.214D+00 0.545D-01 0.594D+00-0.853D+01 0.812D+01
 Coeff:      0.295D+00
 Gap=     0.011 Goal=   None    Shift=    0.000
 Gap=     0.011 Goal=   None    Shift=    0.000
 RMSDP=1.90D-01 MaxDP=2.84D+01 DE= 8.54D-04 OVMax= 3.42D-02

 Cycle  24  Pass 1  IDiag  1:
 RMSU=  2.43D-02    CP:  1.11D+00 -3.00D+00  1.98D+00
 E= -613.842900791408     Delta-E=        0.004237117297 Rises=F Damp=F
 DIIS: error= 4.95D-03 at cycle  24 NSaved=   8.
 NSaved= 8 IEnMin= 2 EnMin= -613.852467802982     IErMin= 2 ErrMin= 2.11D-03
 ErrMax= 4.95D-03  0.00D+00 EMaxC= 1.00D-01 BMatC= 2.07D-02 BMatP= 7.35D-03
 IDIUse=3 WtCom= 9.79D-01 WtEn= 2.11D-02
 Large coefficients: NSaved=  8 BigCof=   12.79 CofMax=   10.00 Det=-8.71D-08
 Inversion failed.  Reducing to  7 matrices.
 Large coefficients: NSaved=  7 BigCof=   11.68 CofMax=   10.00 Det=-8.73D-08
 Inversion failed.  Reducing to  6 matrices.
 EnCoef did   100 forward-backward iterations
 Rare condition: small coef for last iteration:  0.767D-16
 Coeff-Com:  0.551D+00 0.402D+00 0.832D+00-0.218D-01-0.111D+01 0.345D+00
 Coeff-En:   0.505D+00 0.377D+00 0.000D+00 0.000D+00 0.000D+00 0.117D+00
 Coeff:      0.551D+00 0.402D+00 0.832D+00-0.218D-01-0.111D+01 0.345D+00
 Gap=     0.012 Goal=   None    Shift=    0.000
 Gap=     0.012 Goal=   None    Shift=    0.000
 RMSDP=2.59D-01 MaxDP=3.83D+01 DE= 4.24D-03 OVMax= 5.25D-02

 Cycle  25  Pass 1  IDiag  1:
 RMSU=  3.39D-02    CP:  9.86D-01 -1.67D+00  3.19D-01  1.32D-01
 E= -613.849312122563     Delta-E=       -0.006411331155 Rises=F Damp=F
 DIIS: error= 3.46D-03 at cycle  25 NSaved=   7.
 NSaved= 7 IEnMin= 1 EnMin= -613.852467802982     IErMin= 1 ErrMin= 2.11D-03
 ErrMax= 3.46D-03  0.00D+00 EMaxC= 1.00D-01 BMatC= 9.42D-03 BMatP= 7.35D-03
 IDIUse=3 WtCom= 9.79D-01 WtEn= 2.11D-02
 EnCoef did     3 forward-backward iterations
 Coeff-Com:  0.477D+00 0.357D+00 0.666D+00-0.175D+01 0.659D+00-0.111D+00
 Coeff-Com:  0.705D+00
 Coeff-En:   0.460D+00 0.349D+00 0.000D+00 0.000D+00 0.000D+00 0.000D+00
 Coeff-En:   0.191D+00
 Coeff:      0.476D+00 0.357D+00 0.652D+00-0.172D+01 0.645D+00-0.109D+00
 Coeff:      0.695D+00
 Gap=     0.013 Goal=   None    Shift=    0.000
 Gap=     0.013 Goal=   None    Shift=    0.000
 RMSDP=2.92D-01 MaxDP=4.30D+01 DE=-6.41D-03 OVMax= 5.73D-02

 Cycle  26  Pass 1  IDiag  1:
 RMSU=  5.74D-03    CP:  8.46D-01  3.00D+00 -1.28D+00 -6.33D-01  1.17D+00
 E= -613.853438189635     Delta-E=       -0.004126067073 Rises=F Damp=F
 DIIS: error= 1.61D-03 at cycle  26 NSaved=   8.
 NSaved= 8 IEnMin= 8 EnMin= -613.853438189635     IErMin= 8 ErrMin= 1.61D-03
 ErrMax= 1.61D-03  0.00D+00 EMaxC= 1.00D-01 BMatC= 2.48D-03 BMatP= 7.35D-03
 IDIUse=3 WtCom= 9.84D-01 WtEn= 1.61D-02
 EnCoef did     3 forward-backward iterations
 Coeff-Com:  0.183D+00 0.141D+00 0.434D-01-0.223D+01 0.185D+01-0.475D+00
 Coeff-Com:  0.512D+00 0.981D+00
 Coeff-En:   0.312D+00 0.243D+00 0.000D+00 0.000D+00 0.000D+00 0.000D+00
 Coeff-En:   0.000D+00 0.445D+00
 Coeff:      0.185D+00 0.142D+00 0.427D-01-0.220D+01 0.182D+01-0.467D+00
 Coeff:      0.504D+00 0.973D+00
 Gap=     0.014 Goal=   None    Shift=    0.000
 Gap=     0.014 Goal=   None    Shift=    0.000
 RMSDP=2.65D-01 MaxDP=3.84D+01 DE=-4.13D-03 OVMax= 5.67D-02

 Cycle  27  Pass 1  IDiag  1:
 RMSU=  4.77D-03    CP:  7.17D-01  3.00D+00 -9.59D-01 -1.71D+00  1.13D+00
                    CP:  1.36D+00
 E= -613.854878512909     Delta-E=       -0.001440323274 Rises=F Damp=F
 DIIS: error= 1.08D-04 at cycle  27 NSaved=   9.
 NSaved= 9 IEnMin= 9 EnMin= -613.854878512909     IErMin= 9 ErrMin= 1.08D-04
 ErrMax= 1.08D-04  0.00D+00 EMaxC= 1.00D-01 BMatC= 8.75D-06 BMatP= 2.48D-03
 IDIUse=3 WtCom= 9.99D-01 WtEn= 1.08D-03
 Coeff-Com: -0.167D-01-0.133D-01-0.451D+00-0.780D-01 0.527D+00-0.426D-01
 Coeff-Com: -0.117D+00 0.226D+00 0.966D+00
 Coeff-En:   0.000D+00 0.000D+00 0.000D+00 0.000D+00 0.000D+00 0.000D+00
 Coeff-En:   0.000D+00 0.000D+00 0.100D+01
 Coeff:     -0.166D-01-0.133D-01-0.451D+00-0.779D-01 0.527D+00-0.425D-01
 Coeff:     -0.117D+00 0.226D+00 0.966D+00
 Gap=     0.015 Goal=   None    Shift=    0.000
 Gap=     0.015 Goal=   None    Shift=    0.000
 RMSDP=3.54D-02 MaxDP=3.00D+00 DE=-1.44D-03 OVMax= 1.23D-02

 Cycle  28  Pass 1  IDiag  1:
 RMSU=  1.54D-03    CP:  7.06D-01  3.00D+00  9.24D-01 -1.95D+00  6.93D-01
                    CP:  8.01D-01  1.38D+00
 E= -613.854887760237     Delta-E=       -0.000009247329 Rises=F Damp=F
 DIIS: error= 1.42D-04 at cycle  28 NSaved=  10.
 NSaved=10 IEnMin=10 EnMin= -613.854887760237     IErMin= 9 ErrMin= 1.08D-04
 ErrMax= 1.42D-04  0.00D+00 EMaxC= 1.00D-01 BMatC= 1.31D-05 BMatP= 8.75D-06
 IDIUse=3 WtCom= 9.99D-01 WtEn= 1.08D-03
 Coeff-Com: -0.281D-01-0.219D-01-0.320D+00 0.293D+00 0.103D+00 0.947D-02
 Coeff-Com: -0.115D+00-0.215D-03 0.566D+00 0.513D+00
 Coeff-En:   0.000D+00 0.000D+00 0.000D+00 0.000D+00 0.000D+00 0.000D+00
 Coeff-En:   0.000D+00 0.000D+00 0.118D+00 0.882D+00
 Coeff:     -0.280D-01-0.218D-01-0.319D+00 0.293D+00 0.103D+00 0.946D-02
 Coeff:     -0.115D+00-0.215D-03 0.566D+00 0.514D+00
 Gap=     0.014 Goal=   None    Shift=    0.000
 Gap=     0.014 Goal=   None    Shift=    0.000
 RMSDP=2.32D-02 MaxDP=3.14D+00 DE=-9.25D-06 OVMax= 6.31D-03

 Cycle  29  Pass 1  IDiag  1:
 RMSU=  8.48D-04    CP:  7.16D-01  3.00D+00  1.74D+00 -1.97D+00  4.51D-01
                    CP:  5.18D-01  1.28D+00  1.70D+00
 E= -613.854898202976     Delta-E=       -0.000010442738 Rises=F Damp=F
 DIIS: error= 1.92D-05 at cycle  29 NSaved=  11.
 NSaved=11 IEnMin=11 EnMin= -613.854898202976     IErMin=11 ErrMin= 1.92D-05
 ErrMax= 1.92D-05  0.00D+00 EMaxC= 1.00D-01 BMatC= 4.60D-07 BMatP= 8.75D-06
 IDIUse=1 WtCom= 1.00D+00 WtEn= 0.00D+00
 Coeff-Com: -0.132D-01-0.102D-01-0.969D-01 0.199D+00-0.304D-01 0.514D-02
 Coeff-Com: -0.532D-01-0.653D-01 0.161D+00 0.216D+00 0.688D+00
 Coeff:     -0.132D-01-0.102D-01-0.969D-01 0.199D+00-0.304D-01 0.514D-02
 Coeff:     -0.532D-01-0.653D-01 0.161D+00 0.216D+00 0.688D+00
 Gap=     0.014 Goal=   None    Shift=    0.000
 Gap=     0.014 Goal=   None    Shift=    0.000
 RMSDP=1.29D-02 MaxDP=1.15D+00 DE=-1.04D-05 OVMax= 4.68D-03

 Cycle  30  Pass 1  IDiag  1:
 RMSU=  5.99D-04    CP:  7.18D-01  3.00D+00  2.39D+00 -2.05D+00  2.03D-01
                    CP:  2.60D-01  1.04D+00  2.70D+00  3.00D+00
 E= -613.854900123526     Delta-E=       -0.000001920551 Rises=F Damp=F
 DIIS: error= 3.10D-05 at cycle  30 NSaved=  12.
 NSaved=12 IEnMin=12 EnMin= -613.854900123526     IErMin=11 ErrMin= 1.92D-05
 ErrMax= 3.10D-05  0.00D+00 EMaxC= 1.00D-01 BMatC= 9.57D-07 BMatP= 4.60D-07
 IDIUse=1 WtCom= 1.00D+00 WtEn= 0.00D+00
 Coeff-Com:  0.182D-02 0.126D-02 0.410D-01 0.212D-01-0.509D-01 0.902D-02
 Coeff-Com: -0.884D-02-0.439D-01-0.397D-01-0.945D-01 0.299D+00 0.864D+00
 Coeff:      0.182D-02 0.126D-02 0.410D-01 0.212D-01-0.509D-01 0.902D-02
 Coeff:     -0.884D-02-0.439D-01-0.397D-01-0.945D-01 0.299D+00 0.864D+00
 Gap=     0.014 Goal=   None    Shift=    0.000
 Gap=     0.014 Goal=   None    Shift=    0.000
 RMSDP=1.31D-02 MaxDP=1.39D+00 DE=-1.92D-06 OVMax= 4.81D-03

 Cycle  31  Pass 1  IDiag  1:
 RMSU=  3.81D-03    CP:  7.17D-01  3.00D+00  2.99D+00 -2.17D+00 -6.71D-02
                    CP: -2.29D-02  6.64D-01  3.00D+00  3.00D+00  3.00D+00
 E= -613.854902290725     Delta-E=       -0.000002167198 Rises=F Damp=F
 DIIS: error= 2.51D-05 at cycle  31 NSaved=  13.
 NSaved=13 IEnMin=13 EnMin= -613.854902290725     IErMin=11 ErrMin= 1.92D-05
 ErrMax= 2.51D-05  0.00D+00 EMaxC= 1.00D-01 BMatC= 5.74D-07 BMatP= 4.60D-07
 IDIUse=1 WtCom= 1.00D+00 WtEn= 0.00D+00
 Coeff-Com:  0.354D-02 0.284D-02 0.360D-01-0.448D-01-0.893D-02 0.136D-01
 Coeff-Com: -0.189D-02-0.145D-01-0.188D-01-0.784D-01-0.451D-01 0.339D+00
 Coeff-Com:  0.817D+00
 Coeff:      0.354D-02 0.284D-02 0.360D-01-0.448D-01-0.893D-02 0.136D-01
 Coeff:     -0.189D-02-0.145D-01-0.188D-01-0.784D-01-0.451D-01 0.339D+00
 Coeff:      0.817D+00
 Gap=     0.015 Goal=   None    Shift=    0.000
 Gap=     0.014 Goal=   None    Shift=    0.000
 RMSDP=1.34D-02 MaxDP=1.94D+00 DE=-2.17D-06 OVMax= 4.29D-03

 Cycle  32  Pass 1  IDiag  1:
 RMSU=  5.86D-03    CP:  7.14D-01  3.00D+00  3.00D+00 -2.28D+00 -2.68D-01
                    CP: -2.30D-01  3.27D-01  3.00D+00  3.00D+00  3.00D+00
                    CP:  2.81D+00
 E= -613.854903972431     Delta-E=       -0.000001681706 Rises=F Damp=F
 DIIS: error= 1.05D-05 at cycle  32 NSaved=  14.
 NSaved=14 IEnMin=14 EnMin= -613.854903972431     IErMin=14 ErrMin= 1.05D-05
 ErrMax= 1.05D-05  0.00D+00 EMaxC= 1.00D-01 BMatC= 6.46D-08 BMatP= 4.60D-07
 IDIUse=1 WtCom= 1.00D+00 WtEn= 0.00D+00
 Coeff-Com:  0.254D-02 0.210D-02 0.217D-01-0.352D-01 0.135D-03 0.968D-02
 Coeff-Com: -0.200D-02-0.803D-02-0.653D-02-0.518D-01-0.580D-01 0.195D+00
 Coeff-Com:  0.629D+00 0.301D+00
 Coeff:      0.254D-02 0.210D-02 0.217D-01-0.352D-01 0.135D-03 0.968D-02
 Coeff:     -0.200D-02-0.803D-02-0.653D-02-0.518D-01-0.580D-01 0.195D+00
 Coeff:      0.629D+00 0.301D+00
 Gap=     0.015 Goal=   None    Shift=    0.000
 Gap=     0.014 Goal=   None    Shift=    0.000
 RMSDP=7.66D-03 MaxDP=1.16D+00 DE=-1.68D-06 OVMax= 1.85D-03

 Cycle  33  Pass 1  IDiag  1:
 RMSU=  5.17D-03    CP:  7.14D-01  3.00D+00  3.00D+00 -2.30D+00 -3.24D-01
                    CP: -2.93D-01  2.46D-01  3.00D+00  3.00D+00  3.00D+00
                    CP:  3.00D+00  1.78D+00
 E= -613.854904720791     Delta-E=       -0.000000748360 Rises=F Damp=F
 DIIS: error= 1.22D-05 at cycle  33 NSaved=  15.
 NSaved=15 IEnMin=15 EnMin= -613.854904720791     IErMin=14 ErrMin= 1.05D-05
 ErrMax= 1.22D-05  0.00D+00 EMaxC= 1.00D-01 BMatC= 1.07D-07 BMatP= 6.46D-08
 IDIUse=1 WtCom= 1.00D+00 WtEn= 0.00D+00
 Coeff-Com:  0.157D-02 0.149D-02-0.157D-02-0.385D-01 0.264D-01 0.386D-02
 Coeff-Com:  0.158D-03 0.121D-01 0.172D-01-0.547D-02-0.187D+00-0.200D+00
 Coeff-Com:  0.604D+00 0.209D+01-0.132D+01
 Coeff:      0.157D-02 0.149D-02-0.157D-02-0.385D-01 0.264D-01 0.386D-02
 Coeff:      0.158D-03 0.121D-01 0.172D-01-0.547D-02-0.187D+00-0.200D+00
 Coeff:      0.604D+00 0.209D+01-0.132D+01
 Gap=     0.015 Goal=   None    Shift=    0.000
 Gap=     0.014 Goal=   None    Shift=    0.000
 RMSDP=1.37D-02 MaxDP=1.97D+00 DE=-7.48D-07 OVMax= 3.13D-03

 Cycle  34  Pass 1  IDiag  1:
 RMSU=  5.34D-03    CP:  7.14D-01  3.00D+00  3.00D+00 -2.34D+00 -4.15D-01
                    CP: -3.88D-01  1.07D-02  3.00D+00  3.00D+00  3.00D+00
                    CP:  2.28D+00  6.37D-01 -6.08D-01
 E= -613.854904397319     Delta-E=        0.000000323472 Rises=F Damp=F
 DIIS: error= 5.58D-06 at cycle  34 NSaved=  16.
 NSaved=16 IEnMin=15 EnMin= -613.854904720791     IErMin=16 ErrMin= 5.58D-06
 ErrMax= 5.58D-06  0.00D+00 EMaxC= 1.00D-01 BMatC= 4.72D-08 BMatP= 6.46D-08
 IDIUse=1 WtCom= 1.00D+00 WtEn= 0.00D+00
 Coeff-Com: -0.231D-02-0.131D-02-0.548D-01-0.906D-02 0.637D-01-0.115D-01
 Coeff-Com:  0.215D-02 0.348D-01 0.549D-01 0.787D-01-0.192D+00-0.609D+00
 Coeff-Com: -0.202D+00 0.229D+01-0.178D+01 0.133D+01
 Coeff:     -0.231D-02-0.131D-02-0.548D-01-0.906D-02 0.637D-01-0.115D-01
 Coeff:      0.215D-02 0.348D-01 0.549D-01 0.787D-01-0.192D+00-0.609D+00
 Coeff:     -0.202D+00 0.229D+01-0.178D+01 0.133D+01
 Gap=     0.014 Goal=   None    Shift=    0.000
 Gap=     0.014 Goal=   None    Shift=    0.000
 RMSDP=1.50D-02 MaxDP=1.60D+00 DE= 3.23D-07 OVMax= 5.63D-03

 Cycle  35  Pass 1  IDiag  1:
 RMSU=  4.78D-04    CP:  7.13D-01  3.00D+00  3.00D+00 -2.46D+00 -7.21D-01
                    CP: -7.38D-01 -6.47D-01  3.00D+00  3.00D+00  2.64D+00
                    CP:  2.30D+00  4.62D-01 -1.53D+00  2.52D+00
 E= -613.854905249848     Delta-E=       -0.000000852529 Rises=F Damp=F
 DIIS: error= 4.73D-06 at cycle  35 NSaved=  17.
 NSaved=17 IEnMin=17 EnMin= -613.854905249848     IErMin=17 ErrMin= 4.73D-06
 ErrMax= 4.73D-06  0.00D+00 EMaxC= 1.00D-01 BMatC= 3.26D-08 BMatP= 4.72D-08
 IDIUse=1 WtCom= 1.00D+00 WtEn= 0.00D+00
 Coeff-Com: -0.655D-03-0.424D-03-0.265D-01 0.175D-01 0.143D-01-0.259D-02
 Coeff-Com: -0.182D-02-0.333D-03 0.299D-01 0.414D-01 0.256D-01-0.927D-01
 Coeff-Com: -0.384D+00-0.381D+00 0.141D+00 0.426D+00 0.119D+01
 Coeff:     -0.655D-03-0.424D-03-0.265D-01 0.175D-01 0.143D-01-0.259D-02
 Coeff:     -0.182D-02-0.333D-03 0.299D-01 0.414D-01 0.256D-01-0.927D-01
 Coeff:     -0.384D+00-0.381D+00 0.141D+00 0.426D+00 0.119D+01
 Gap=     0.014 Goal=   None    Shift=    0.000
 Gap=     0.014 Goal=   None    Shift=    0.000
 RMSDP=9.45D-03 MaxDP=1.06D+00 DE=-8.53D-07 OVMax= 3.82D-03

 Cycle  36  Pass 1  IDiag  1:
 RMSU=  1.59D-03    CP:  7.13D-01  3.00D+00  3.00D+00 -2.53D+00 -9.29D-01
                    CP: -1.02D+00 -1.11D+00  3.00D+00  3.00D+00  2.56D+00
                    CP:  2.89D+00  5.63D-01 -2.00D+00  3.00D+00  2.37D+00
 E= -613.854905534059     Delta-E=       -0.000000284211 Rises=F Damp=F
 DIIS: error= 7.14D-06 at cycle  36 NSaved=  18.
 NSaved=18 IEnMin=18 EnMin= -613.854905534059     IErMin=17 ErrMin= 4.73D-06
 ErrMax= 7.14D-06  0.00D+00 EMaxC= 1.00D-01 BMatC= 5.44D-08 BMatP= 3.26D-08
 IDIUse=1 WtCom= 1.00D+00 WtEn= 0.00D+00
 Coeff-Com:  0.268D-03 0.227D-03 0.143D-03 0.913D-02-0.848D-02 0.308D-02
 Coeff-Com: -0.220D-02-0.114D-01 0.292D-02 0.125D-02 0.548D-01 0.959D-01
 Coeff-Com: -0.846D-01-0.640D+00 0.440D+00-0.145D+00 0.395D+00 0.890D+00
 Coeff:      0.268D-03 0.227D-03 0.143D-03 0.913D-02-0.848D-02 0.308D-02
 Coeff:     -0.220D-02-0.114D-01 0.292D-02 0.125D-02 0.548D-01 0.959D-01
 Coeff:     -0.846D-01-0.640D+00 0.440D+00-0.145D+00 0.395D+00 0.890D+00
 Gap=     0.015 Goal=   None    Shift=    0.000
 Gap=     0.015 Goal=   None    Shift=    0.000
 RMSDP=3.21D-03 MaxDP=3.26D-01 DE=-2.84D-07 OVMax= 1.18D-03

 Cycle  37  Pass 1  IDiag  1:
 RMSU=  3.80D-05    CP:  7.12D-01  3.00D+00  3.00D+00 -2.54D+00 -9.87D-01
                    CP: -1.12D+00 -1.23D+00  3.00D+00  3.00D+00  2.67D+00
                    CP:  3.00D+00  5.75D-01 -2.06D+00  3.00D+00  2.96D+00
                    CP:  1.86D+00
 E= -613.854905599368     Delta-E=       -0.000000065309 Rises=F Damp=F
 DIIS: error= 4.69D-07 at cycle  37 NSaved=  19.
 NSaved=19 IEnMin=19 EnMin= -613.854905599368     IErMin=19 ErrMin= 4.69D-07
 ErrMax= 4.69D-07  0.00D+00 EMaxC= 1.00D-01 BMatC= 6.28D-10 BMatP= 3.26D-08
 IDIUse=1 WtCom= 1.00D+00 WtEn= 0.00D+00
 Coeff-Com:  0.157D-03 0.127D-03 0.654D-02 0.751D-03-0.754D-02 0.129D-02
 Coeff-Com:  0.137D-03-0.557D-02-0.827D-02-0.973D-02 0.264D-01 0.711D-01
 Coeff-Com:  0.356D-01-0.207D+00 0.170D+00-0.155D+00-0.128D+00 0.421D+00
 Coeff-Com:  0.787D+00
 Coeff:      0.157D-03 0.127D-03 0.654D-02 0.751D-03-0.754D-02 0.129D-02
 Coeff:      0.137D-03-0.557D-02-0.827D-02-0.973D-02 0.264D-01 0.711D-01
 Coeff:      0.356D-01-0.207D+00 0.170D+00-0.155D+00-0.128D+00 0.421D+00
 Coeff:      0.787D+00
 Gap=     0.015 Goal=   None    Shift=    0.000
 Gap=     0.015 Goal=   None    Shift=    0.000
 RMSDP=1.26D-03 MaxDP=1.30D-01 DE=-6.53D-08 OVMax= 4.74D-04

 Cycle  38  Pass 1  IDiag  1:
 RMSU=  1.11D-04    CP:  7.11D-01  3.00D+00  3.00D+00 -2.55D+00 -1.01D+00
                    CP: -1.17D+00 -1.28D+00  3.00D+00  3.00D+00  2.75D+00
                    CP:  3.00D+00  5.83D-01 -2.05D+00  3.00D+00  3.00D+00
                    CP:  2.29D+00  1.85D+00
 E= -613.854905601169     Delta-E=       -0.000000001801 Rises=F Damp=F
 DIIS: error= 2.59D-06 at cycle  38 NSaved=  20.
 NSaved=20 IEnMin=20 EnMin= -613.854905601169     IErMin=19 ErrMin= 4.69D-07
 ErrMax= 2.59D-06  0.00D+00 EMaxC= 1.00D-01 BMatC= 7.32D-09 BMatP= 6.28D-10
 IDIUse=1 WtCom= 1.00D+00 WtEn= 0.00D+00
 Coeff-Com:  0.796D-04 0.478D-04 0.379D-02 0.183D-03-0.339D-02-0.412D-03
 Coeff-Com:  0.950D-03-0.901D-03-0.727D-02-0.635D-02 0.857D-02 0.306D-01
 Coeff-Com:  0.170D-01-0.269D-01 0.325D-01-0.504D-01-0.131D+00 0.677D-01
 Coeff-Com:  0.402D+00 0.664D+00
 Coeff:      0.796D-04 0.478D-04 0.379D-02 0.183D-03-0.339D-02-0.412D-03
 Coeff:      0.950D-03-0.901D-03-0.727D-02-0.635D-02 0.857D-02 0.306D-01
 Coeff:      0.170D-01-0.269D-01 0.325D-01-0.504D-01-0.131D+00 0.677D-01
 Coeff:      0.402D+00 0.664D+00
 Gap=     0.015 Goal=   None    Shift=    0.000
 Gap=     0.015 Goal=   None    Shift=    0.000
 RMSDP=5.98D-04 MaxDP=5.38D-02 DE=-1.80D-09 OVMax= 2.21D-04

 Cycle  39  Pass 1  IDiag  1:
 RMSU=  1.27D-05    CP:  7.12D-01  3.00D+00  3.00D+00 -2.55D+00 -1.02D+00
                    CP: -1.20D+00 -1.30D+00  3.00D+00  3.00D+00  2.80D+00
                    CP:  3.00D+00  5.91D-01 -2.05D+00  3.00D+00  3.00D+00
                    CP:  2.50D+00  2.29D+00  1.38D+00
 E= -613.854905605755     Delta-E=       -0.000000004585 Rises=F Damp=F
 DIIS: error= 8.97D-07 at cycle  39 NSaved=  20.
 NSaved=20 IEnMin=20 EnMin= -613.854905605755     IErMin=18 ErrMin= 4.69D-07
 ErrMax= 8.97D-07  0.00D+00 EMaxC= 1.00D-01 BMatC= 5.96D-10 BMatP= 6.28D-10
 IDIUse=1 WtCom= 1.00D+00 WtEn= 0.00D+00
 Coeff-Com:  0.851D-04 0.487D-04 0.171D-02 0.349D-03-0.198D-02 0.421D-03
 Coeff-Com: -0.144D-03-0.368D-02-0.373D-02 0.216D-02 0.173D-01 0.912D-02
 Coeff-Com: -0.180D-01 0.151D-01-0.156D-01-0.428D-01-0.210D-01 0.456D-01
 Coeff-Com:  0.267D+00 0.748D+00
 Coeff:      0.851D-04 0.487D-04 0.171D-02 0.349D-03-0.198D-02 0.421D-03
 Coeff:     -0.144D-03-0.368D-02-0.373D-02 0.216D-02 0.173D-01 0.912D-02
 Coeff:     -0.180D-01 0.151D-01-0.156D-01-0.428D-01-0.210D-01 0.456D-01
 Coeff:      0.267D+00 0.748D+00
 Gap=     0.015 Goal=   None    Shift=    0.000
 Gap=     0.015 Goal=   None    Shift=    0.000
 RMSDP=1.87D-04 MaxDP=1.71D-02 DE=-4.59D-09 OVMax= 6.44D-05

 Cycle  40  Pass 1  IDiag  1:
 RMSU=  8.10D-06    CP:  7.12D-01  3.00D+00  3.00D+00 -2.54D+00 -1.02D+00
                    CP: -1.21D+00 -1.31D+00  3.00D+00  3.00D+00  2.82D+00
                    CP:  3.00D+00  5.92D-01 -2.05D+00  3.00D+00  3.00D+00
                    CP:  2.57D+00  2.62D+00  1.59D+00  1.58D+00
 E= -613.854905606312     Delta-E=       -0.000000000557 Rises=F Damp=F
 DIIS: error= 9.23D-08 at cycle  40 NSaved=  20.
 NSaved=20 IEnMin=20 EnMin= -613.854905606312     IErMin=20 ErrMin= 9.23D-08
 ErrMax= 9.23D-08  0.00D+00 EMaxC= 1.00D-01 BMatC= 1.49D-11 BMatP= 5.96D-10
 IDIUse=1 WtCom= 1.00D+00 WtEn= 0.00D+00
 Coeff-Com: -0.589D-06-0.543D-05-0.271D-03 0.501D-04 0.516D-04 0.660D-03
 Coeff-Com: -0.262D-03-0.401D-03-0.149D-02 0.849D-04 0.105D-02 0.118D-01
 Coeff-Com: -0.974D-02 0.747D-02-0.260D-02-0.349D-01-0.573D-01-0.294D-01
 Coeff-Com:  0.404D+00 0.711D+00
 Coeff:     -0.589D-06-0.543D-05-0.271D-03 0.501D-04 0.516D-04 0.660D-03
 Coeff:     -0.262D-03-0.401D-03-0.149D-02 0.849D-04 0.105D-02 0.118D-01
 Coeff:     -0.974D-02 0.747D-02-0.260D-02-0.349D-01-0.573D-01-0.294D-01
 Coeff:      0.404D+00 0.711D+00
 Gap=     0.015 Goal=   None    Shift=    0.000
 Gap=     0.015 Goal=   None    Shift=    0.000
 RMSDP=5.33D-05 MaxDP=6.01D-03 DE=-5.57D-10 OVMax= 1.74D-05

 Cycle  41  Pass 1  IDiag  1:
 Restarting incremental Fock formation.
 E= -613.854905606534     Delta-E=       -0.000000000222 Rises=F Damp=F
 DIIS: error= 3.13D-08 at cycle  41 NSaved=  20.
 NSaved=20 IEnMin=20 EnMin= -613.854905606534     IErMin=20 ErrMin= 3.13D-08
 ErrMax= 3.13D-08  0.00D+00 EMaxC= 1.00D-01 BMatC= 1.30D-12 BMatP= 1.49D-11
 IDIUse=1 WtCom= 1.00D+00 WtEn= 0.00D+00
 Coeff-Com: -0.134D-05-0.215D-05-0.469D-04-0.898D-05 0.135D-03-0.208D-04
 Coeff-Com:  0.145D-03 0.111D-03-0.593D-03-0.169D-02 0.480D-02-0.378D-02
 Coeff-Com:  0.320D-02 0.407D-02-0.925D-02-0.186D-01-0.400D-01 0.248D-01
 Coeff-Com:  0.173D+00 0.864D+00
 Coeff:     -0.134D-05-0.215D-05-0.469D-04-0.898D-05 0.135D-03-0.208D-04
 Coeff:      0.145D-03 0.111D-03-0.593D-03-0.169D-02 0.480D-02-0.378D-02
 Coeff:      0.320D-02 0.407D-02-0.925D-02-0.186D-01-0.400D-01 0.248D-01
 Coeff:      0.173D+00 0.864D+00
 Gap=     0.015 Goal=   None    Shift=    0.000
 Gap=     0.015 Goal=   None    Shift=    0.000
 RMSDP=2.17D-05 MaxDP=1.83D-03 DE=-2.22D-10 OVMax= 8.10D-06

 Cycle  42  Pass 1  IDiag  1:
 RMSU=  2.16D-05    CP:  1.00D+00
 E= -613.854905606588     Delta-E=       -0.000000000054 Rises=F Damp=F
 DIIS: error= 2.08D-08 at cycle  42 NSaved=  20.
 NSaved=20 IEnMin=20 EnMin= -613.854905606588     IErMin=20 ErrMin= 2.08D-08
 ErrMax= 2.08D-08  0.00D+00 EMaxC= 1.00D-01 BMatC= 5.85D-13 BMatP= 1.30D-12
 IDIUse=1 WtCom= 1.00D+00 WtEn= 0.00D+00
 Coeff-Com: -0.146D-05-0.183D-05-0.253D-05-0.162D-04 0.863D-04 0.274D-03
 Coeff-Com:  0.359D-03-0.702D-03-0.226D-02 0.200D-02-0.126D-02 0.120D-02
 Coeff-Com:  0.360D-02 0.432D-03-0.675D-03-0.192D-01-0.697D-01-0.436D-01
 Coeff-Com:  0.473D+00 0.657D+00
 Coeff:     -0.146D-05-0.183D-05-0.253D-05-0.162D-04 0.863D-04 0.274D-03
 Coeff:      0.359D-03-0.702D-03-0.226D-02 0.200D-02-0.126D-02 0.120D-02
 Coeff:      0.360D-02 0.432D-03-0.675D-03-0.192D-01-0.697D-01-0.436D-01
 Coeff:      0.473D+00 0.657D+00
 Gap=     0.015 Goal=   None    Shift=    0.000
 Gap=     0.015 Goal=   None    Shift=    0.000
 RMSDP=7.93D-06 MaxDP=7.94D-04 DE=-5.41D-11 OVMax= 2.68D-06

 Cycle  43  Pass 1  IDiag  1:
 RMSU=  4.96D-06    CP:  1.00D+00  1.27D+00
 E= -613.854905606529     Delta-E=        0.000000000058 Rises=F Damp=F
 DIIS: error= 9.78D-09 at cycle  43 NSaved=  20.
 NSaved=20 IEnMin=19 EnMin= -613.854905606588     IErMin=20 ErrMin= 9.78D-09
 ErrMax= 9.78D-09  0.00D+00 EMaxC= 1.00D-01 BMatC= 8.31D-14 BMatP= 5.85D-13
 IDIUse=1 WtCom= 1.00D+00 WtEn= 0.00D+00
 Coeff-Com: -0.398D-05-0.376D-05-0.119D-04 0.742D-04 0.929D-04 0.674D-04
 Coeff-Com: -0.234D-03-0.774D-03 0.824D-03-0.331D-03-0.334D-04 0.287D-03
 Coeff-Com:  0.197D-02 0.343D-02-0.241D-02-0.365D-01-0.416D-01 0.380D-01
 Coeff-Com:  0.212D+00 0.825D+00
 Coeff:     -0.398D-05-0.376D-05-0.119D-04 0.742D-04 0.929D-04 0.674D-04
 Coeff:     -0.234D-03-0.774D-03 0.824D-03-0.331D-03-0.334D-04 0.287D-03
 Coeff:      0.197D-02 0.343D-02-0.241D-02-0.365D-01-0.416D-01 0.380D-01
 Coeff:      0.212D+00 0.825D+00
 Gap=     0.015 Goal=   None    Shift=    0.000
 Gap=     0.015 Goal=   None    Shift=    0.000
 RMSDP=3.51D-06 MaxDP=3.58D-04 DE= 5.84D-11 OVMax= 1.15D-06

 Cycle  44  Pass 1  IDiag  1:
 RMSU=  4.20D-07    CP:  1.00D+00  1.35D+00  1.55D+00
 E= -613.854905606574     Delta-E=       -0.000000000045 Rises=F Damp=F
 DIIS: error= 5.25D-09 at cycle  44 NSaved=  20.
 NSaved=20 IEnMin=18 EnMin= -613.854905606588     IErMin=20 ErrMin= 5.25D-09
 ErrMax= 5.25D-09  0.00D+00 EMaxC= 1.00D-01 BMatC= 4.15D-14 BMatP= 8.31D-14
 IDIUse=1 WtCom= 1.00D+00 WtEn= 0.00D+00
 Coeff-Com:  0.283D-06 0.749D-05 0.327D-05-0.365D-04-0.993D-04 0.358D-04
 Coeff-Com:  0.625D-04 0.199D-03-0.876D-04-0.530D-04-0.756D-03 0.505D-03
 Coeff-Com:  0.139D-02 0.277D-02 0.582D-02 0.797D-02-0.753D-01-0.683D-01
 Coeff-Com:  0.231D+00 0.895D+00
 Coeff:      0.283D-06 0.749D-05 0.327D-05-0.365D-04-0.993D-04 0.358D-04
 Coeff:      0.625D-04 0.199D-03-0.876D-04-0.530D-04-0.756D-03 0.505D-03
 Coeff:      0.139D-02 0.277D-02 0.582D-02 0.797D-02-0.753D-01-0.683D-01
 Coeff:      0.231D+00 0.895D+00
 Gap=     0.015 Goal=   None    Shift=    0.000
 Gap=     0.015 Goal=   None    Shift=    0.000
 RMSDP=4.73D-06 MaxDP=5.82D-04 DE=-4.48D-11 OVMax= 1.47D-06

 Cycle  45  Pass 1  IDiag  1:
 RMSU=  5.26D-07    CP:  1.00D+00  1.25D+00  2.01D+00  2.14D+00
 E= -613.854905606540     Delta-E=        0.000000000034 Rises=F Damp=F
 DIIS: error= 1.09D-08 at cycle  45 NSaved=  20.
 NSaved=20 IEnMin=17 EnMin= -613.854905606588     IErMin=19 ErrMin= 5.25D-09
[...]
 .00471369,0.00173585,0.00068638,0.00033381,0.00111157,0.00027035,-0.00
 017188,0.00030149,-0.00000066,-0.00012283,-0.00048477,-0.00007338,-0.0
 0000627,0.00081883,0.00003202,0.00025957,0.00049799,0.00017255,0.00063
 138,-0.00055265,-0.00017562,0.00015065,0.00001401,0.00011734,-0.000009
 58,0.00158506,-0.00006226,0.00019959,-0.00168056,-0.00010204,-0.000883
 96,-0.00072120,0.00027491,0.00234219,0.00169617,-0.00024740,-0.0034174
 3,-0.01942172,0.00100611,0.05648114,-0.03820174,-0.29487491,-0.0024388
 6,-0.00328596,-0.01715643,-0.00040793,0.00423606,0.00050639,-0.0001976
 3,-0.00077103,-0.00090438,0.00036659,-0.00032528,0.00068781,-0.0001164
 1,0.00027466,-0.00014442,-0.00004892,0.00005220,0.00032088,0.00001080,
 0.00018468,-0.00006420,0.00004478,-0.00001854,0.00005285,-0.00013869,0
 .00002202,-0.00000404,0.00002683,0.00008089,-0.00038717,0.00012122,-0.
 00011476,0.00018501,0.00004341,0.00064346,-0.00028563,0.00017333,-0.00
 314214,0.00101531,-0.00031460,-0.00097965,-0.00503431,-0.00036180,0.04
 198765,0.32340516,0.00026586,-0.00287356,-0.04701580,-0.00123865,-0.00
 390822,-0.00102383,0.00111538,-0.00063740,0.00138968,-0.00017356,-0.00
 036874,0.00090198,0.00048101,-0.00009823,0.00043668,-0.00053624,0.0005
 3449,-0.00027379,0.00012977,-0.00041170,-0.00000412,-0.00015863,-0.000
 07754,-0.00002427,0.00003747,-0.00002356,0.00042162,-0.00008282,0.0000
 3175,-0.00013938,0.00046119,0.00020354,-0.00048097,-0.00008605,0.00004
 153,0.00010499,-0.00027475,0.00017108,0.00021292,-0.00050725,-0.000457
 43,-0.00103912,-0.00355688,-0.02413661,0.00000871,-0.00047821,0.003218
 46,0.04593896,-0.08779835,-0.02886482,0.09316374,-0.01549583,-0.006208
 20,0.02389494,0.00100708,-0.00235131,-0.00098519,-0.00141016,0.0002991
 7,-0.00053092,0.00065959,-0.00052102,-0.00047711,0.00007826,0.00042704
 ,0.00029750,-0.00016044,-0.00048153,0.00000054,-0.00034536,-0.00005495
 ,0.00001830,-0.00025359,0.00014798,0.00014229,-0.00002441,0.00000473,0
 .00013041,-0.00054889,-0.00021038,-0.00004820,0.00002835,0.00061959,-0
 .00008788,-0.00015097,0.00048486,-0.00152258,-0.00193282,0.00282081,0.
 00154607,0.00776295,0.00613801,-0.01829312,-0.00284956,-0.00151848,0.0
 0442409,0.10071178,-0.02655582,-0.06281805,0.05495015,0.00747098,0.005
 63550,-0.01520677,0.00028009,0.00000594,0.00044615,-0.00017410,0.00031
 082,0.00049146,0.00049859,0.00025556,0.00011597,-0.00015501,0.00048485
 ,0.00005863,0.00002717,-0.00065589,-0.00004008,-0.00010103,-0.00035372
 ,0.00002422,-0.00035488,0.00012375,0.00009968,-0.00005751,-0.00002951,
 -0.00018347,-0.00019877,-0.00106594,-0.00001791,-0.00012173,0.00112358
 ,0.00009940,0.00164627,0.00026973,-0.00017479,-0.00135288,-0.00124466,
 -0.00008037,0.00288368,0.00133344,-0.00713981,-0.01255147,-0.00842032,
 0.02849927,0.02887101,0.06491557,0.09263089,0.05689834,-0.22958895,0.0
 0119106,-0.00136862,0.00080225,0.00103688,0.00128369,0.00042007,0.0002
 2002,-0.00041434,0.00024236,-0.00059174,0.00124186,-0.00001938,-0.0013
 0304,-0.00199047,-0.00006789,0.00049707,0.00244062,0.00008662,0.001258
 91,0.00170331,-0.00013183,0.00142852,-0.00144436,-0.00025709,0.0002375
 3,0.00013844,0.00002568,0.00034788,0.00258093,0.00009994,0.00009654,-0
 .00305422,-0.00017946,-0.00268295,-0.00146392,0.00072779,0.00158806,-0
 .00084544,-0.00083338,0.00863088,0.00658694,-0.02324270,-0.00110647,0.
 00019738,0.00136484,-0.10298839,-0.06201908,0.25092989,0.00052305,0.00
 072229,-0.00023785,-0.00057087,0.00210390,-0.00007337,-0.24639935,-0.1
 1210815,0.02253057,-0.02107101,-0.01699471,0.00145041,-0.00151311,0.00
 439468,0.00157538,-0.00025795,-0.00143497,-0.00006006,-0.00014742,-0.0
 0029012,0.00014382,-0.00101929,-0.00006062,-0.00029352,-0.00050001,0.0
 0066550,0.00013755,-0.00008410,-0.00002350,0.00001336,0.00041909,-0.00
 070295,0.00009622,-0.00022462,0.00069472,-0.00004912,0.00049403,0.0012
 1364,0.00001322,0.00175074,-0.00009483,-0.00040767,0.00048847,-0.00028
 718,-0.00001461,0.00029657,-0.00011496,-0.00010612,0.00045281,-0.00039
 768,0.00001930,0.26633563,-0.00102347,0.00147782,0.00016887,-0.0288610
 8,-0.00951592,0.00254889,-0.11113611,-0.12238185,0.00860447,0.01447402
 ,0.01060019,-0.00153259,0.00312746,-0.00165072,-0.00079127,-0.00001153
 ,0.00120981,0.00003557,-0.00008544,-0.00091896,-0.00003178,-0.00021270
 ,-0.00023780,-0.00002512,-0.00045702,0.00023383,0.00001631,-0.00004342
 ,0.00002595,-0.00005546,-0.00014488,-0.00091076,0.00012330,-0.00030173
 ,0.00114206,0.00007807,0.00137696,0.00035689,-0.00022712,0.00171681,-0
 .00634659,-0.00096752,0.00067066,-0.00019058,0.00028977,0.00024013,0.0
 0032138,0.00005277,0.00030598,-0.00033946,-0.00018034,0.12208625,0.126
 62098,-0.00005681,0.00002866,-0.00133202,-0.00174916,-0.00068010,0.001
 13461,0.02165106,0.00756955,-0.02845368,0.00305230,0.00317610,0.000347
 28,0.00202013,-0.00143953,0.00746965,0.00002024,0.00071236,0.00080847,
 -0.00002276,-0.00027288,0.00034171,-0.00016305,-0.00002580,-0.00111912
 ,-0.00000163,0.00019785,0.00016223,-0.00004086,-0.00001940,0.00016693,
 0.00033204,0.00004674,-0.00082905,-0.00006062,0.00007648,-0.00003847,-
 0.00049516,-0.00035162,-0.00033589,0.00069252,-0.00058576,0.00401867,-
 0.00074280,0.00021975,-0.00039262,-0.00003055,-0.00001805,-0.00070323,
 0.00060290,-0.00028357,-0.00030817,-0.02427809,-0.00874799,0.02294456,
 0.00027570,0.00104876,0.00019716,-0.00373520,0.00165199,0.00147515,0.0
 0328818,0.02666083,0.00183613,-0.05520878,0.00127188,0.00214226,0.0053
 8112,-0.02825626,-0.00179285,-0.00133883,-0.00399354,-0.00032939,0.001
 69506,0.00331256,-0.00008387,0.00124031,0.00165812,-0.00009224,0.00028
 414,-0.00085377,-0.00008853,0.00009231,0.00012751,0.00001473,0.0005862
 9,-0.00110488,-0.00017916,-0.00055684,-0.00044792,0.00008046,-0.004864
 93,-0.00128703,0.00090062,-0.00106168,-0.00010137,0.00002761,0.0000053
 4,-0.00006989,-0.00003259,-0.00030279,0.00026473,0.00004250,-0.0000084
 1,0.00000134,-0.00001616,0.00116500,-0.00056870,-0.00081405,0.05314360
 ,-0.00022248,-0.00052419,-0.00006048,0.00285460,0.00157174,-0.00071402
 ,-0.00300426,-0.01028903,-0.00070791,-0.00021896,-0.32463231,-0.018981
 34,-0.00157734,-0.01495182,-0.00111255,0.00174747,-0.00314326,-0.00013
 890,0.00236545,0.00165671,-0.00012291,-0.00020587,-0.00004391,0.000026
 97,-0.00032695,0.00004357,0.00005426,0.00001064,0.00003538,-0.00003475
 ,0.00084118,-0.00078479,-0.00009090,-0.00041837,-0.00004433,0.00005914
 ,-0.00275139,0.00066271,-0.00020261,-0.00061574,0.00075225,0.00020807,
 0.00004350,-0.00000441,-0.00000822,0.00017227,-0.00014015,-0.00001505,
 0.00001696,-0.00000932,0.00006308,0.00062248,0.00095534,0.00029960,0.0
 0073586,0.34900785,0.00014793,-0.00016454,0.00043708,0.00171750,-0.000
 37295,0.00810327,0.00004594,-0.00425593,0.00246239,0.00195328,-0.01914
 717,-0.03870275,-0.00008628,0.00202721,0.00472210,-0.00007596,0.000384
 41,-0.00272877,-0.00014656,-0.00012949,-0.00099549,-0.00008531,-0.0001
 1630,-0.00005507,0.00000610,0.00002734,-0.00002068,0.00000181,-0.00001
 996,0.00006503,-0.00016358,0.00007685,-0.00033652,0.00006394,0.0000269
 1,0.00005131,0.00099882,-0.00022072,0.00520861,-0.00022652,0.00017359,
 -0.00081173,-0.00003427,-0.00007760,-0.00004734,0.00003397,-0.00008317
 ,-0.00020814,-0.00001320,0.00001548,0.00001174,-0.00083666,0.00041725,
 -0.00476759,-0.00321101,0.02143573,0.02831522,-0.00009962,0.00011338,0
 .00003993,-0.00011060,-0.00071269,-0.00013678,-0.00057269,0.00008211,0
 .00002048,-0.00056015,0.00152070,0.00003836,-0.00485978,-0.00516718,0.
 00086471,-0.02094768,0.02107450,0.00434288,0.00430118,-0.00078167,-0.0
 0111894,-0.24347607,0.10721797,0.03129657,-0.00156319,-0.00105262,0.00
 014191,0.00052713,-0.00115610,-0.00065202,0.00282020,-0.00138701,0.000
 02189,0.00000533,0.00040499,0.00006941,0.00007000,-0.00104179,-0.00004
 940,0.00027760,0.00021421,0.00002962,0.00002260,0.00002210,0.00006237,
 -0.00008663,0.00000156,0.00002509,0.00000212,0.00002765,-0.00007146,-0
 .00021067,0.00010864,0.00005630,-0.00003869,-0.00011355,0.00001946,0.2
 6283645,0.00003669,-0.00003230,-0.00010043,-0.00001231,-0.00008206,-0.
 00007851,-0.00019746,0.00003536,0.00005758,-0.00046647,0.00047589,0.00
 018957,-0.00208922,-0.00084533,-0.00009665,-0.01273795,0.00776387,0.00
 152272,0.00080312,0.00197873,0.00027971,0.10824569,-0.11528423,-0.0174
 4224,0.02725887,-0.01202402,-0.00381427,0.00256307,0.00051820,-0.00000
 401,-0.00371207,-0.00368215,-0.00007205,0.00158804,-0.00157524,-0.0002
 9298,-0.00015922,-0.00016674,0.00006120,0.00002635,0.00006365,-0.00003
 258,0.00006229,-0.00000536,0.00000404,0.00005693,0.00001204,0.00000969
 ,-0.00002495,-0.00002170,0.00011894,-0.00008953,-0.00001281,0.00000038
 ,0.00003125,0.00003837,-0.00001059,-0.11915278,0.12237604,0.00006113,0
 .00009770,0.00003070,0.00002833,-0.00012175,0.00012337,-0.00011132,0.0
 0005587,-0.00071437,-0.00001149,-0.00009929,-0.00056205,0.00098268,0.0
 0000428,0.00477925,0.00234920,-0.00224727,0.00542208,-0.00093424,0.000
 50337,-0.00436382,0.03114548,-0.01742641,-0.03185540,0.00182394,-0.000
 54263,0.00098115,-0.00039066,0.00045259,-0.00454564,0.00007633,-0.0002
 9560,0.00516658,0.00005926,-0.00016209,-0.00008685,-0.00003043,0.00021
 290,-0.00044993,0.00000125,0.00007746,-0.00014394,0.00002618,0.0000378
 8,-0.00004399,-0.00002702,-0.00002468,-0.00001525,-0.00001283,-0.00005
 343,0.00007948,0.00009884,0.00001588,0.00009810,0.00003753,0.00000835,
 0.00016006,-0.03498597,0.01953163,0.02471488,0.00006877,0.00000616,-0.
 00004728,0.00023333,0.00017890,0.00008600,-0.00043441,-0.00017911,-0.0
 0009441,0.00053666,0.00017911,0.00005573,-0.00048951,-0.00055953,0.000
 04706,-0.00047404,-0.00117085,-0.00101207,-0.00002905,0.00042016,0.000
 05191,-0.00213181,0.00121861,0.00115579,-0.00032977,-0.02005942,0.0211
 9765,-0.04312386,0.00488320,-0.00317261,-0.00165893,-0.00375223,-0.001
 03624,0.00143614,0.00241365,-0.00030786,0.00154743,0.00056780,-0.00098
 068,-0.00048527,0.00018971,0.00020614,-0.00000786,-0.00002044,0.000017
 60,-0.00002151,-0.00000056,0.00002158,-0.00001043,0.00000534,-0.000008
 66,0.00001447,0.00001988,0.00003872,-0.00002139,-0.00000543,-0.0000267
 2,0.00030175,-0.00026789,0.00019172,0.04612020,-0.00024616,0.00025472,
 0.00015545,0.00025969,-0.00019526,-0.00012773,-0.00006024,0.00001458,0
 .00005068,0.00015387,0.00005025,-0.00007205,-0.00031753,-0.00072993,-0
 .00012759,-0.00127784,-0.00074401,-0.00041187,0.00010541,0.00033621,-0
 .00016647,-0.00133941,0.00158230,0.00144862,-0.00537549,-0.01461974,0.
 00981394,0.00814911,-0.14372435,0.12095199,0.00065214,-0.00204990,-0.0
 0122974,0.00026066,0.00204477,0.00017368,0.00046458,0.00002318,-0.0000
 5644,-0.00008373,0.00021612,0.00022446,-0.00000652,-0.00002675,-0.0000
 2080,-0.00005694,0.00000296,-0.00000332,0.00004440,-0.00000460,-0.0001
 2547,0.00000194,0.00001725,-0.00000893,-0.00003465,-0.00002263,0.00001
 118,-0.00003433,0.00015358,0.00045870,-0.00111608,0.15965001,0.0001696
 3,-0.00030333,-0.00009828,-0.00025078,0.00021883,0.00022160,0.00014986
 ,0.00001528,-0.00005379,-0.00023855,-0.00008946,0.00016982,0.00020992,
 0.00086569,0.00013744,0.00078350,0.00025093,-0.00097770,-0.00018453,-0
 .00033641,0.00038794,-0.00025591,-0.00196372,-0.00150301,0.00284132,0.
 00229298,0.00284532,-0.00491522,0.11987969,-0.18272316,0.00119407,0.00
 338249,0.00209482,-0.00169127,-0.00247775,-0.00022543,-0.00100808,-0.0
 0075973,-0.00010931,0.00022596,-0.00026138,-0.00037681,0.00000804,0.00
 002784,0.00005326,0.00005201,-0.00000326,-0.00000028,-0.00003946,0.000
 02542,0.00006021,-0.00001543,-0.00000629,-0.00002445,0.00002031,0.0000
 0852,-0.00000334,-0.00004765,-0.00004070,0.00036661,0.00614158,-0.1334
 5489,0.20080279,-0.00006891,-0.00003379,0.00008709,-0.00012168,0.00009
 483,0.00002232,0.00001879,0.00003401,0.00001044,0.00011750,-0.00014947
 ,-0.00008438,0.00018900,0.00022070,0.00004668,-0.00026491,-0.00082097,
 0.00002369,0.00020089,0.00009285,-0.00004302,0.00139071,0.00381480,0.0
 0003957,-0.02188814,0.02006167,0.00358627,-0.18506858,0.11796192,0.023
 30978,-0.00341944,-0.00347436,0.00019205,0.00028354,-0.00166649,-0.000
 03313,-0.00123110,0.00134191,0.00023273,-0.00034735,-0.00050422,0.0000
 3692,-0.00005261,0.00000903,0.00001541,-0.00003869,-0.00000391,0.00000
 051,-0.00000242,0.00002997,-0.00009675,0.00002284,0.00000803,0.0000052
 9,-0.00005864,-0.00001558,0.00000405,0.00114321,-0.00149071,-0.0001705
 7,-0.00098103,0.00021933,-0.00106210,0.20641609,-0.00002902,0.00001197
 ,-0.00005471,0.00007681,0.00013654,-0.00003998,-0.00005208,-0.00006579
 ,-0.00000262,0.00003104,0.00003144,0.00002788,-0.00003688,-0.00000730,
 -0.00000467,0.00008374,0.00043482,-0.00003031,0.00004425,0.00000463,0.
 00001626,-0.00184556,-0.00010306,0.00017425,-0.01259691,0.00933392,0.0
 0224467,0.12139188,-0.14773448,-0.02019859,-0.00202280,-0.00411001,-0.
 00008012,0.00196023,0.00190955,-0.00014822,-0.00003771,0.00060173,0.00
 002024,-0.00028317,-0.00004643,0.00001884,0.00003961,-0.00001125,-0.00
 001819,0.00005406,0.00000833,-0.00000301,-0.00001273,-0.00002611,0.000
 09054,-0.00000995,-0.00001981,0.00000431,0.00001548,0.00000188,0.00000
 193,-0.00008459,0.00011389,-0.00001417,0.01403908,-0.01269535,-0.00409
 998,-0.13228997,0.16298780,0.00018446,-0.00013653,-0.00004017,-0.00015
 720,0.00009532,0.00008624,-0.00003335,-0.00003309,-0.00006033,0.000000
 66,0.00003499,0.00001103,0.00004782,0.00014365,0.00005861,0.00005604,0
 .00008596,-0.00020572,-0.00002728,-0.00001700,-0.00001370,-0.00035766,
 -0.00039194,-0.00043148,0.00128528,-0.00151587,-0.00163671,0.02360057,
 -0.01979398,-0.05192603,0.00043812,0.00005519,0.00114148,0.00017800,0.
 00025513,0.00069937,0.00008371,-0.00018553,0.00031161,0.00008083,-0.00
 001689,-0.00013619,-0.00002478,0.00000910,0.00001278,-0.00001636,0.000
 00599,0.00000522,-0.00002561,0.00001644,0.00001703,0.00001129,0.000005
 44,-0.00000453,0.00000529,0.00000310,-0.00000417,-0.00008537,0.0001509
 2,0.00045016,-0.01910092,0.01475115,0.00444164,-0.02692966,0.02269579,
 0.04946495,0.00001427,-0.00001124,0.00006320,0.00032254,0.00034264,-0.
 00009890,-0.00044945,-0.00026692,0.00000338,0.00056243,0.00020660,-0.0
 0010965,-0.00044282,-0.00085128,-0.00003887,-0.00064747,-0.00117158,0.
 00079965,0.00008245,0.00037582,0.00008117,-0.00211341,0.00189044,-0.00
 085985,-0.00607734,-0.01737298,-0.02181733,-0.04838819,-0.01845297,-0.
 03129999,-0.00166644,-0.00502235,0.00104522,0.00194294,0.00318987,0.00
 028896,0.00210912,0.00071536,0.00083010,-0.00068525,0.00019811,-0.0001
 2878,0.00003333,-0.00001684,0.00003622,-0.00004693,0.00002436,0.000038
 28,-0.00001099,0.00002594,-0.00005264,-0.00000097,0.00002186,0.0000299
 9,-0.00002623,-0.00001726,0.00002388,0.00028696,-0.00025111,-0.0002007
 1,0.00001636,-0.00031778,-0.00217931,0.00375212,0.01160142,0.02079341,
 0.05155058,0.00015154,-0.00017889,0.00009990,-0.00006251,0.00030549,0.
 00009537,-0.00012817,-0.00020771,-0.00011637,0.00014300,0.00008125,-0.
 00002756,-0.00011791,-0.00019417,0.00017499,-0.00114421,-0.00093833,0.
 00078034,0.00014942,0.00032487,0.00010795,-0.00139792,0.00159360,-0.00
 080798,-0.00787237,-0.01305290,-0.01082999,-0.01558758,-0.11131316,-0.
 10957250,0.00123908,-0.00203286,0.00053038,0.00001878,0.00195476,0.000
 10355,0.00029278,-0.00018751,-0.00000644,-0.00014682,-0.00005458,-0.00
 015119,-0.00003828,0.00001057,0.00006543,-0.00009284,-0.00000403,0.000
 04744,-0.00002805,0.00009285,-0.00015163,0.00002985,0.00005319,0.00005
 488,-0.00003784,-0.00001449,-0.00000884,-0.00010926,0.00017811,-0.0004
 6200,0.00300180,0.01048726,0.01681818,-0.00341600,-0.01079710,-0.01622
 686,0.02516970,0.12391426,0.00030502,-0.00034907,0.00013698,-0.0001106
 4,0.00064226,0.00014623,-0.00013765,-0.00034775,-0.00014880,0.00015366
 ,0.00009598,0.00010242,0.00017880,-0.00011450,0.00027119,-0.00123797,-
 0.00017230,-0.00093527,0.00034166,0.00022552,0.00037935,0.00042299,0.0
 0207204,-0.00139036,-0.00274291,-0.00071588,0.00697059,-0.02875771,-0.
 10756093,-0.20795722,0.00020759,-0.00341008,0.00161293,0.00125790,0.00
 252026,-0.00030567,0.00048054,0.00040552,-0.00042384,-0.00038154,-0.00
 017999,-0.00026253,-0.00004625,0.00000759,0.00008189,-0.00010276,0.000
 00014,0.00007163,-0.00006450,0.00013774,-0.00014368,0.00002247,0.00006
 187,0.00002469,-0.00003188,-0.00000335,-0.00001197,0.00011420,0.000049
 78,0.00035641,-0.00341438,-0.01224490,-0.02545098,0.00081491,-0.000614
 61,-0.00224388,0.03277909,0.11951870,0.22916833,0.00154437,-0.00173438
 ,-0.00080986,0.00084510,-0.02563453,-0.00068812,-0.00398415,-0.0018731
 1,0.00117155,-0.00076935,0.00018319,0.00000142,-0.00496997,0.00142905,
 0.00134554,0.00065899,0.00075861,-0.00009283,-0.00049226,0.00081804,0.
 00012095,0.00041858,0.00091618,0.00001756,0.00150899,-0.00181140,-0.00
 016167,0.00007575,-0.00008467,-0.00003411,-0.00156586,0.00453385,0.000
 03147,0.00153553,-0.00377680,-0.00054457,0.00584835,0.02736066,0.00119
 192,-0.05464183,-0.00958778,0.00185969,0.00005673,0.00015468,0.0000452
 2,-0.00039152,0.00070473,0.00015643,0.00029969,0.00025285,-0.00026530,
 0.00003667,-0.00131060,-0.00004595,0.00006538,0.00008276,-0.00011060,-
 0.00006878,-0.00002064,-0.00000661,-0.00007624,-0.00004444,0.00009209,
 0.00000883,-0.00003622,-0.00000728,-0.00011760,-0.00001619,-0.00005064
 ,0.05417461,0.00114206,0.00069421,0.00018037,0.00224126,-0.01251389,-0
 .00130690,-0.00262085,0.00159852,0.00011932,0.00043778,0.00054219,0.00
 002481,0.00239035,0.00129578,-0.00043362,-0.00087885,-0.00129266,-0.00
 022675,0.00042627,0.00060562,0.00009242,0.00064137,0.00040291,-0.00003
 470,0.00060321,-0.00041084,-0.00015265,0.00006945,-0.00001840,0.000020
 03,-0.00159330,-0.00239230,0.00066603,-0.00239652,0.00077055,0.0001886
 8,0.00064448,-0.01568156,-0.00156580,-0.00922463,-0.32337905,-0.013055
 78,0.00027069,0.00036914,0.00013356,-0.00101465,0.00090185,0.00020434,
 0.00009588,0.00043767,-0.00028614,0.00007389,-0.00048944,0.00004696,-0
 .00002447,-0.00012116,0.00000939,0.00000574,0.00002420,-0.00000731,0.0
 0000812,-0.00002070,0.00001106,-0.00002358,0.00004019,0.00000953,-0.00
 000983,-0.00002049,-0.00002402,0.00873614,0.34865767,-0.00093158,0.000
 67483,-0.00456103,0.00059634,0.00213257,0.00308487,0.00090618,0.000082
 31,0.00693826,0.00058580,0.00010852,-0.00111771,0.00084697,-0.00065608
 ,0.00560273,-0.00013554,-0.00044012,-0.00058286,0.00012864,0.00021850,
 0.00013719,0.00019639,0.00001674,-0.00005511,0.00001162,-0.00009671,0.
 00002505,-0.00000520,-0.00004335,0.00018779,-0.00063530,-0.00048663,-0
 .00249895,-0.00046611,0.00045430,-0.00105337,0.00016657,-0.00412557,0.
 00346232,0.00159405,-0.01342592,-0.03709509,-0.00065267,-0.00013596,0.
 00001087,0.00002972,-0.00005493,0.00007094,0.00086822,0.00021929,-0.00
 009535,0.00026008,0.00014701,0.00079191,-0.00010802,0.00002617,-0.0008
 4323,0.00000442,0.00000884,0.00005243,-0.00000966,0.00001032,-0.000034
 93,-0.00000810,0.00001448,0.00000281,-0.00002653,-0.00003575,-0.000048
 43,-0.00321630,0.01538715,0.02761888\\0.00000306,-0.00000265,-0.000008
 64,-0.00000486,0.00000075,0.00000319,0.00000194,-0.00000279,-0.0000035
 9,-0.00000126,0.00000170,0.00000140,0.00000106,0.00000619,0.00000082,0
 .00000193,-0.00001058,-0.00000063,0.00000018,0.00000755,0.00000109,0.0
 0000202,-0.00000009,0.00000144,-0.00001143,-0.00000287,-0.00000268,0.0
 0000681,0.00000091,-0.00000156,0.00001022,0.00002891,0.00000312,0.0000
 0228,-0.00002319,-0.00000173,-0.00000869,-0.00000970,-0.00000050,0.000
 00164,0.00000011,-0.00000090,0.00000006,-0.00000032,0.00000052,-0.0000
 0061,-0.00000021,0.00000115,-0.00000135,0.00000126,0.00000180,0.000000
 29,0.00000020,0.00000289,0.00000028,-0.00000015,0.00000024,-0.00000054
 ,0.00000123,0.00000104,-0.00000174,0.00000092,0.00000059,-0.00000281,0
 .00000133,0.00000252,0.00000047,0.00000168,-0.00000070,0.00000106,-0.0
 0000020,-0.00000087\\\@


 IF MATHEMATICALLY YOU END UP WITH THE INCORRECT ANSWER,
 TRY MULTIPLYING BY THE PAGE NUMBER.
 Job cpu time:       0 days  3 hours 35 minutes 31.8 seconds.
 Elapsed time:       0 days  0 hours 27 minutes  3.7 seconds.
 File lengths (MBytes):  RWF=    644 Int=      0 D2E=      0 Chk=     17 Scr=      1
 Normal termination of Gaussian 16 at Tue Dec 26 23:33:08 2023.
