 Entering Gaussian System, Link 0=g16
 Input=014-PCM.com
 Output=014-PCM.log
 Initial command:
 /sysapps/ubuntu-applications/gaussian/Gaussian/AVX2/g16/l1.exe "/scratch/selhajj1/4304225/Gau-1106097.inp" -scrdir="/scratch/selhajj1/4304225/"
 Entering Link 1 = /sysapps/ubuntu-applications/gaussian/Gaussian/AVX2/g16/l1.exe PID=   1106099.
  
 Copyright (c) 1988,1990,1992,1993,1995,1998,2003,2009,2016,
            Gaussian, Inc.  All Rights Reserved.
  
 This is part of the Gaussian(R) 16 program.  It is based on
 the Gaussian(R) 09 system (copyright 2009, Gaussian, Inc.),
 the Gaussian(R) 03 system (copyright 2003, Gaussian, Inc.),
 the Gaussian(R) 98 system (copyright 1998, Gaussian, Inc.),
 the Gaussian(R) 94 system (copyright 1995, Gaussian, Inc.),
 the Gaussian 92(TM) system (copyright 1992, Gaussian, Inc.),
 the Gaussian 90(TM) system (copyright 1990, Gaussian, Inc.),
 the Gaussian 88(TM) system (copyright 1988, Gaussian, Inc.),
 the Gaussian 86(TM) system (copyright 1986, Carnegie Mellon
 University), and the Gaussian 82(TM) system (copyright 1983,
 Carnegie Mellon University). Gaussian is a federally registered
 trademark of Gaussian, Inc.
  
 This software contains proprietary and confidential information,
 including trade secrets, belonging to Gaussian, Inc.
  
 This software is provided under written license and may be
 used, copied, transmitted, or stored only in accord with that
 written license.
  
 The following legend is applicable only to US Government
 contracts under FAR:
  
                    RESTRICTED RIGHTS LEGEND
  
 Use, reproduction and disclosure by the US Government is
 subject to restrictions as set forth in subparagraphs (a)
 and (c) of the Commercial Computer Software - Restricted
 Rights clause in FAR 52.227-19.
  
 Gaussian, Inc.
 340 Quinnipiac St., Bldg. 40, Wallingford CT 06492
  
  
 ---------------------------------------------------------------
 Warning -- This program may not be used in any manner that
 competes with the business of Gaussian, Inc. or will provide
 assistance to any competitor of Gaussian, Inc.  The licensee
 of this program is prohibited from giving any competitor of
 Gaussian, Inc. access to this program.  By using this program,
 the user acknowledges that Gaussian, Inc. is engaged in the
 business of creating and licensing software in the field of
 computational chemistry and represents and warrants to the
 licensee that it is not a competitor of Gaussian, Inc. and that
 it will not use this program in any manner prohibited above.
 ---------------------------------------------------------------
  

 Cite this work as:
 Gaussian 16, Revision A.03,
 M. J. Frisch, G. W. Trucks, H. B. Schlegel, G. E. Scuseria, 
 M. A. Robb, J. R. Cheeseman, G. Scalmani, V. Barone, 
 G. A. Petersson, H. Nakatsuji, X. Li, M. Caricato, A. V. Marenich, 
 J. Bloino, B. G. Janesko, R. Gomperts, B. Mennucci, H. P. Hratchian, 
 J. V. Ortiz, A. F. Izmaylov, J. L. Sonnenberg, D. Williams-Young, 
 F. Ding, F. Lipparini, F. Egidi, J. Goings, B. Peng, A. Petrone, 
 T. Henderson, D. Ranasinghe, V. G. Zakrzewski, J. Gao, N. Rega, 
 G. Zheng, W. Liang, M. Hada, M. Ehara, K. Toyota, R. Fukuda, 
 J. Hasegawa, M. Ishida, T. Nakajima, Y. Honda, O. Kitao, H. Nakai, 
 T. Vreven, K. Throssell, J. A. Montgomery, Jr., J. E. Peralta, 
 F. Ogliaro, M. J. Bearpark, J. J. Heyd, E. N. Brothers, K. N. Kudin, 
 V. N. Staroverov, T. A. Keith, R. Kobayashi, J. Normand, 
 K. Raghavachari, A. P. Rendell, J. C. Burant, S. S. Iyengar, 
 J. Tomasi, M. Cossi, J. M. Millam, M. Klene, C. Adamo, R. Cammi, 
 J. W. Ochterski, R. L. Martin, K. Morokuma, O. Farkas, 
 J. B. Foresman, and D. J. Fox, Gaussian, Inc., Wallingford CT, 2016.
 
 ******************************************
 Gaussian 16:  ES64L-G16RevA.03 25-Dec-2016
                21-Jan-2024 
 ******************************************
 %chk=014-PCM.chk
 %nproc=8
 Will use up to    8 processors via shared memory.
 %mem=30GB
 ----------------------------------------------------------------
 #P UB3LYP/6-311++G(d,p) SCRF=(PCM,Solvent=n,n-DiMethylFormamide)
 ----------------------------------------------------------------
 1/38=1,172=1/1;
 2/12=2,17=6,18=5,40=1/2;
 3/5=4,6=6,7=1111,11=2,25=1,30=1,70=2201,72=148,74=-5,116=2/1,2,3;
 4//1;
 5/5=2,38=5,53=148/2;
 6/7=2,8=2,9=2,10=2,28=1/1;
 99/5=1,9=1/99;
 Leave Link    1 at Sun Jan 21 06:45:44 2024, MaxMem=  4026531840 cpu:               0.6 elap:               0.1
 (Enter /sysapps/ubuntu-applications/gaussian/Gaussian/AVX2/g16/l101.exe)
 ------------------
 Quinone PCM in DMF
 ------------------
 Symbolic Z-matrix:
 Charge =  0 Multiplicity = 1
 C                    -1.5704   -1.55065  -0.64073 
 C                    -1.19078  -0.13796  -0.129 
 C                    -1.5596    0.00111   1.36973 
 C                    -2.01723   0.89309  -0.92036 
 C                     0.31218   0.09605  -0.31791 
 C                     0.81705   1.08059  -1.0817 
 C                     2.25774   1.33396  -1.28541 
 O                     2.6383    2.24576  -1.99236 
 C                     3.22155   0.42616  -0.58876 
 C                     2.76053  -0.57404   0.18683 
 Cl                    3.80591  -1.66308   1.02316 
 C                     1.28452  -0.81676   0.38206 
 O                     0.92284  -1.73188   1.09077 
 Cl                    4.89645   0.74291  -0.84247 
 H                    -1.07294  -2.33515  -0.07306 
 H                    -2.65076  -1.68972  -0.54392 
 H                    -1.31321  -1.66467  -1.69789 
 H                    -1.06174  -0.74921   1.98153 
 H                    -2.63981  -0.12236   1.48702 
 H                    -1.29489   0.99364   1.74601 
 H                    -3.07953   0.69459  -0.76102 
 H                    -1.83026   0.8326   -1.99608 
 H                    -1.82226   1.91745  -0.59103 
 H                     0.18633   1.77759  -1.61701 
 
 ITRead=  0  0  0  0  0  0  0  0  0  0  0  0  0  0  0  0  0  0  0  0
 ITRead=  0  0  0  0
 MicOpt= -1 -1 -1 -1 -1 -1 -1 -1 -1 -1 -1 -1 -1 -1 -1 -1 -1 -1 -1 -1
 MicOpt= -1 -1 -1 -1
 NAtoms=     24 NQM=       24 NQMF=       0 NMMI=      0 NMMIF=      0
                NMic=       0 NMicF=      0.
                    Isotopes and Nuclear Properties:
 (Nuclear quadrupole moments (NQMom) in fm**2, nuclear magnetic moments (NMagM)
  in nuclear magnetons)

  Atom         1           2           3           4           5           6           7           8           9          10
 IAtWgt=          12          12          12          12          12          12          12          16          12          12
 AtmWgt=  12.0000000  12.0000000  12.0000000  12.0000000  12.0000000  12.0000000  12.0000000  15.9949146  12.0000000  12.0000000
 NucSpn=           0           0           0           0           0           0           0           0           0           0
 AtZEff=  -0.0000000  -0.0000000  -0.0000000  -0.0000000  -0.0000000  -0.0000000  -0.0000000  -0.0000000  -0.0000000  -0.0000000
 NQMom=    0.0000000   0.0000000   0.0000000   0.0000000   0.0000000   0.0000000   0.0000000   0.0000000   0.0000000   0.0000000
 NMagM=    0.0000000   0.0000000   0.0000000   0.0000000   0.0000000   0.0000000   0.0000000   0.0000000   0.0000000   0.0000000
 AtZNuc=   6.0000000   6.0000000   6.0000000   6.0000000   6.0000000   6.0000000   6.0000000   8.0000000   6.0000000   6.0000000

  Atom        11          12          13          14          15          16          17          18          19          20
 IAtWgt=          35          12          16          35           1           1           1           1           1           1
 AtmWgt=  34.9688527  12.0000000  15.9949146  34.9688527   1.0078250   1.0078250   1.0078250   1.0078250   1.0078250   1.0078250
 NucSpn=           3           0           0           3           1           1           1           1           1           1
 AtZEff=  -0.0000000  -0.0000000  -0.0000000  -0.0000000  -0.0000000  -0.0000000  -0.0000000  -0.0000000  -0.0000000  -0.0000000
 NQMom=   -8.1650000   0.0000000   0.0000000  -8.1650000   0.0000000   0.0000000   0.0000000   0.0000000   0.0000000   0.0000000
 NMagM=    0.8218740   0.0000000   0.0000000   0.8218740   2.7928460   2.7928460   2.7928460   2.7928460   2.7928460   2.7928460
 AtZNuc=  17.0000000   6.0000000   8.0000000  17.0000000   1.0000000   1.0000000   1.0000000   1.0000000   1.0000000   1.0000000

  Atom        21          22          23          24
 IAtWgt=           1           1           1           1
 AtmWgt=   1.0078250   1.0078250   1.0078250   1.0078250
 NucSpn=           1           1           1           1
 AtZEff=  -0.0000000  -0.0000000  -0.0000000  -0.0000000
 NQMom=    0.0000000   0.0000000   0.0000000   0.0000000
 NMagM=    2.7928460   2.7928460   2.7928460   2.7928460
 AtZNuc=   1.0000000   1.0000000   1.0000000   1.0000000
 Leave Link  101 at Sun Jan 21 06:45:45 2024, MaxMem=  4026531840 cpu:               1.0 elap:               0.2
 (Enter /sysapps/ubuntu-applications/gaussian/Gaussian/AVX2/g16/l202.exe)
                          Input orientation:                          
 ---------------------------------------------------------------------
 Center     Atomic      Atomic             Coordinates (Angstroms)
 Number     Number       Type             X           Y           Z
 ---------------------------------------------------------------------
      1          6           0       -1.570402   -1.550652   -0.640725
      2          6           0       -1.190776   -0.137961   -0.128998
      3          6           0       -1.559595    0.001108    1.369726
      4          6           0       -2.017230    0.893090   -0.920360
      5          6           0        0.312178    0.096054   -0.317905
      6          6           0        0.817046    1.080592   -1.081701
      7          6           0        2.257743    1.333959   -1.285410
      8          8           0        2.638296    2.245761   -1.992356
      9          6           0        3.221554    0.426155   -0.588763
     10          6           0        2.760533   -0.574041    0.186829
     11         17           0        3.805907   -1.663081    1.023164
     12          6           0        1.284516   -0.816760    0.382059
     13          8           0        0.922844   -1.731879    1.090770
     14         17           0        4.896453    0.742909   -0.842468
     15          1           0       -1.072942   -2.335148   -0.073064
     16          1           0       -2.650757   -1.689723   -0.543922
     17          1           0       -1.313205   -1.664674   -1.697889
     18          1           0       -1.061745   -0.749205    1.981525
     19          1           0       -2.639814   -0.122362    1.487021
     20          1           0       -1.294892    0.993637    1.746008
     21          1           0       -3.079529    0.694586   -0.761022
     22          1           0       -1.830262    0.832598   -1.996075
     23          1           0       -1.822257    1.917448   -0.591030
     24          1           0        0.186334    1.777591   -1.617005
 ---------------------------------------------------------------------
                    Distance matrix (angstroms):
                    1          2          3          4          5
     1  C    0.000000
     2  C    1.549734   0.000000
     3  C    2.539683   1.549691   0.000000
     4  C    2.499945   1.540242   2.499911   0.000000
     5  C    2.521896   1.532749   2.522032   2.534632   0.000000
     6  C    3.580197   2.534534   3.580950   2.845050   1.344467
     7  C    4.836455   3.923789   4.837180   4.313122   2.500739
     8  O    5.826903   4.880167   5.827894   4.965160   3.582716
     9  C    5.183947   4.471942   5.184181   5.269995   2.940544
    10  C    4.516150   3.987826   4.515922   5.119117   2.588093
    11  Cl   5.629020   5.349795   5.628343   6.649829   4.135114
    12  C    3.120135   2.617063   3.119834   3.939722   1.506194
    13  O    3.040920   2.914755   3.040323   4.424832   2.387178
    14  Cl   6.864498   6.191876   6.864738   6.915753   4.659309
    15  H    1.088641   2.201055   2.788650   3.468589   2.808780
    16  H    1.093562   2.170639   2.776975   2.685886   3.466853
    17  H    1.093959   2.192547   3.499400   2.764482   2.765210
    18  H    2.788771   2.201040   1.088633   3.468576   2.808826
    19  H    2.776861   2.170593   1.093561   2.685933   3.466947
    20  H    3.499401   2.192488   1.093970   2.764308   2.765514
    21  H    2.707957   2.158698   2.707619   1.092370   3.472502
    22  H    2.753976   2.199296   3.477535   1.093517   2.819362
    23  H    3.477588   2.199306   2.754254   1.093518   2.819200
    24  H    3.887987   2.789254   3.889052   2.474540   2.128630
                    6          7          8          9         10
     6  C    0.000000
     7  C    1.476922   0.000000
     8  O    2.346031   1.214898   0.000000
     9  C    2.540263   1.496114   2.370913   0.000000
    10  C    2.850284   2.461859   3.565820   1.347025   0.000000
    11  Cl   4.570721   4.087612   5.073039   2.702718   1.725767
    12  C    2.441529   2.890193   4.104827   2.497889   1.508527
    13  O    3.555393   4.102140   5.316960   3.572395   2.352615
    14  Cl   4.100344   2.740133   2.946197   1.723365   2.712188
    15  H    4.031958   5.101528   6.200137   5.131611   4.226650
    16  H    4.470963   5.812558   6.749821   6.242034   5.573222
    17  H    3.529043   4.681197   5.567097   5.115248   4.619197
    18  H    4.032538   5.102101   6.200956   5.131715   4.226278
    19  H    4.471612   5.813201   6.750742   6.242226   5.572994
    20  H    3.530408   4.682577   5.568945   5.115806   4.618996
    21  H    3.928757   5.400949   6.051103   6.309150   6.050964
    22  H    2.811729   4.179497   4.686689   5.259902   5.274382
    23  H    2.811940   4.179596   4.687007   5.259657   5.273950
    24  H    1.081737   2.144178   2.524320   3.477962   3.925620
                   11         12         13         14         15
    11  Cl   0.000000
    12  C    2.735816   0.000000
    13  O    2.884676   1.212650   0.000000
    14  Cl   3.233985   4.120452   5.064736   0.000000
    15  H    5.045449   2.840818   2.387803   6.760184   0.000000
    16  H    6.644169   4.135925   3.929964   7.935188   1.768553
    17  H    5.797365   3.434137   3.575060   6.714764   1.774068
    18  H    5.044567   2.840387   2.386983   6.760286   2.595511
    19  H    6.643515   4.135637   3.929388   7.935397   3.128158
    20  H    5.796448   3.433837   3.574371   6.715343   3.799881
    21  H    7.493407   4.757698   5.033474   7.976544   3.698509
    22  H    6.863718   4.251793   4.866698   6.825507   3.782343
    23  H    6.863093   4.251451   4.866376   6.825235   4.349061
    24  H    5.648896   3.454406   4.493425   4.884229   4.569918
                   16         17         18         19         20
    16  H    0.000000
    17  H    1.766724   0.000000
    18  H    3.128485   3.799921   0.000000
    19  H    2.565438   3.779189   1.768550   0.000000
    20  H    3.779229   4.350561   1.774070   1.766732   0.000000
    21  H    2.432264   3.092528   3.698317   2.431964   3.091854
    22  H    3.023915   2.567612   4.349025   3.701254   3.783615
    23  H    3.701394   3.783632   3.782520   3.024487   2.567740
    24  H    4.606827   3.755576   4.570757   4.607810   3.757455
                   21         22         23         24
    21  H    0.000000
    22  H    1.762121   0.000000
    23  H    1.762107   1.775138   0.000000
    24  H    3.545627   2.259063   2.259784   0.000000
 Stoichiometry    C10H10Cl2O2
 Framework group  C1[X(C10H10Cl2O2)]
 Deg. of freedom    66
 Full point group                 C1      NOp   1
 Largest Abelian subgroup         C1      NOp   1
 Largest concise Abelian subgroup C1      NOp   1
                         Standard orientation:                         
 ---------------------------------------------------------------------
 Center     Atomic      Atomic             Coordinates (Angstroms)
 Number     Number       Type             X           Y           Z
 ---------------------------------------------------------------------
      1          6           0        3.173543   -0.669399    1.270276
      2          6           0        2.738721    0.104338   -0.000132
      3          6           0        3.173610   -0.671133   -1.269406
      4          6           0        3.463166    1.463575   -0.001047
      5          6           0        1.217133    0.288970   -0.000136
      6          6           0        0.618265    1.492693   -0.000048
      7          6           0       -0.843116    1.706388    0.000087
      8          8           0       -1.310960    2.827592    0.000203
      9          6           0       -1.716421    0.491606   -0.000011
     10          6           0       -1.159770   -0.735022   -0.000042
     11         17           0       -2.096865   -2.184202   -0.000172
     12          6           0        0.335783   -0.932440    0.000169
     13          8           0        0.785083   -2.058784    0.000605
     14         17           0       -3.417502    0.767845   -0.000073
     15          1           0        2.751581   -1.672532    1.298796
     16          1           0        4.263644   -0.755358    1.283303
     17          1           0        2.870657   -0.134741    2.175344
     18          1           0        2.751491   -1.674225   -1.296715
     19          1           0        4.263698   -0.757281   -1.282133
     20          1           0        2.870963   -0.137577   -2.175216
     21          1           0        4.541853    1.291221   -0.001228
     22          1           0        3.226264    2.057161    0.886259
     23          1           0        3.225838    2.056207   -0.888879
     24          1           0        1.179789    2.417272   -0.000096
 ---------------------------------------------------------------------
 Rotational constants (GHZ):           0.8689301           0.3825050           0.2823706
 Leave Link  202 at Sun Jan 21 06:45:45 2024, MaxMem=  4026531840 cpu:               0.2 elap:               0.1
 (Enter /sysapps/ubuntu-applications/gaussian/Gaussian/AVX2/g16/l301.exe)
 Standard basis: 6-311++G(d,p) (5D, 7F)
 Ernie: Thresh=  0.10000D-02 Tol=  0.10000D-05 Strict=F.
 There are   408 symmetry adapted cartesian basis functions of A   symmetry.
 There are   394 symmetry adapted basis functions of A   symmetry.
   394 basis functions,   628 primitive gaussians,   408 cartesian basis functions
    60 alpha electrons       60 beta electrons
       nuclear repulsion energy      1102.0542785660 Hartrees.
 IExCor=  402 DFT=T Ex+Corr=B3LYP ExCW=0 ScaHFX=  0.200000
 ScaDFX=  0.800000  0.720000  1.000000  0.810000 ScalE2=  1.000000  1.000000
 IRadAn=      5 IRanWt=     -1 IRanGd=            0 ICorTp=0 IEmpDi=  4
 NAtoms=   24 NActive=   24 NUniq=   24 SFac= 1.00D+00 NAtFMM=   60 NAOKFM=F Big=F
 Integral buffers will be    131072 words long.
 Raffenetti 2 integral format.
 Two-electron integral symmetry is turned on.
 ------------------------------------------------------------------------------
 Polarizable Continuum Model (PCM)
 =================================
 Model                : PCM.
 Atomic radii         : UFF (Universal Force Field).
 Polarization charges : Total charges.
 Charge compensation  : None.
 Solution method      : On-the-fly selection.
 Cavity type          : Scaled VdW (van der Waals Surface) (Alpha=1.100).
 Cavity algorithm     : GePol (No added spheres)
                        Default sphere list used, NSphG=   24.
                        Lebedev-Laikov grids with approx.  5.0 points / Ang**2.
                        Smoothing algorithm: York/Karplus (Gamma=1.0000).
                        Polarization charges: spherical gaussians, with
                                              point-specific exponents (IZeta= 3).
                        Self-potential: point-specific (ISelfS= 7).
                        Self-field    : sphere-specific E.n sum rule (ISelfD= 2).
 Solvent              : n,n-DiMethylFormamide, Eps=  37.219000 Eps(inf)=   2.046330
 ------------------------------------------------------------------------------
 GePol: Number of generator spheres                  =      24
 GePol: Total number of spheres                      =      24
 GePol: Number of exposed spheres                    =      24 (100.00%)
 GePol: Number of points                             =    1902
 GePol: Average weight of points                     =       0.14
 GePol: Minimum weight of points                     =   0.11D-08
 GePol: Maximum weight of points                     =    0.21616
 GePol: Number of points with low weight             =     105
 GePol: Fraction of low-weight points (<1% of avg)   =       5.52%
 GePol: Cavity surface area                          =    268.872 Ang**2
 GePol: Cavity volume                                =    290.041 Ang**3
 Leave Link  301 at Sun Jan 21 06:45:45 2024, MaxMem=  4026531840 cpu:               0.8 elap:               0.1
 (Enter /sysapps/ubuntu-applications/gaussian/Gaussian/AVX2/g16/l302.exe)
 NPDir=0 NMtPBC=     1 NCelOv=     1 NCel=       1 NClECP=     1 NCelD=      1
         NCelK=      1 NCelE2=     1 NClLst=     1 CellRange=     0.0.
 One-electron integrals computed using PRISM.
 One-electron integral symmetry used in STVInt
 NBasis=   394 RedAO= T EigKep=  1.33D-06  NBF=   394
 NBsUse=   392 1.00D-06 EigRej=  6.74D-07 NBFU=   392
 Precomputing XC quadrature grid using
 IXCGrd= 4 IRadAn=           5 IRanWt=          -1 IRanGd=           0 AccXCQ= 0.00D+00.
 Generated NRdTot=       0 NPtTot=           0 NUsed=           0 NTot=          32
 NSgBfM=   405   405   405   405   405 MxSgAt=    24 MxSgA2=    24.
 Leave Link  302 at Sun Jan 21 06:45:45 2024, MaxMem=  4026531840 cpu:               2.2 elap:               0.3
 (Enter /sysapps/ubuntu-applications/gaussian/Gaussian/AVX2/g16/l303.exe)
 DipDrv:  MaxL=1.
 Leave Link  303 at Sun Jan 21 06:45:45 2024, MaxMem=  4026531840 cpu:               0.8 elap:               0.2
 (Enter /sysapps/ubuntu-applications/gaussian/Gaussian/AVX2/g16/l401.exe)
 ExpMin= 3.60D-02 ExpMax= 1.06D+05 ExpMxC= 3.62D+03 IAcc=3 IRadAn=         5 AccDes= 0.00D+00
 Harris functional with IExCor=  402 and IRadAn=       5 diagonalized for initial guess.
 HarFok:  IExCor=  402 AccDes= 0.00D+00 IRadAn=         5 IDoV= 1 UseB2=F ITyADJ=14
 ICtDFT=  3500011 ScaDFX=  1.000000  1.000000  1.000000  1.000000
 FoFCou: FMM=F IPFlag=           0 FMFlag=      100000 FMFlg1=           0
         NFxFlg=           0 DoJE=T BraDBF=F KetDBF=T FulRan=T
         wScrn=  0.000000 ICntrl=       500 IOpCl=  0 I1Cent=   200000004 NGrid=           0
         NMat0=    1 NMatS0=      1 NMatT0=    0 NMatD0=    1 NMtDS0=    0 NMtDT0=    0
 Petite list used in FoFCou.
 Harris En= -1458.02591060269    
 JPrj=0 DoOrth=F DoCkMO=F.
 Initial guess <Sx>= 0.0000 <Sy>= 0.0000 <Sz>= 0.0000 <S**2>=-0.0000 S=-0.0000
 Leave Link  401 at Sun Jan 21 06:45:47 2024, MaxMem=  4026531840 cpu:              10.1 elap:               1.3
 (Enter /sysapps/ubuntu-applications/gaussian/Gaussian/AVX2/g16/l502.exe)
 Integral symmetry usage will be decided dynamically.
 UHF open shell SCF:
 Using DIIS extrapolation, IDIIS=  1040.
 NGot=  4026531840 LenX=  4026191742 LenY=  4026024837
 Requested convergence on RMS density matrix=1.00D-08 within 128 cycles.
 Requested convergence on MAX density matrix=1.00D-06.
 Requested convergence on             energy=1.00D-06.
 No special actions if energy rises.
 Fock matrices will be formed incrementally for  20 cycles.

 Cycle   1  Pass 1  IDiag  1:
 FoFJK:  IHMeth= 1 ICntrl=       0 DoSepK=F KAlg= 0 I1Cent=           0 FoldK=F
 IRaf= 880000000 NMat=       1 IRICut=       1 DoRegI=T DoRafI=F ISym2E= 0 IDoP0=0 IntGTp=1.
 FoFCou: FMM=F IPFlag=           0 FMFlag=      100000 FMFlg1=           0
         NFxFlg=           0 DoJE=F BraDBF=F KetDBF=F FulRan=T
         wScrn=  0.000000 ICntrl=         0 IOpCl=  1 I1Cent=           0 NGrid=           0
         NMat0=    1 NMatS0=      1 NMatT0=    0 NMatD0=    1 NMtDS0=    0 NMtDT0=    0
 Symmetry not used in FoFCou.
 Inv3:  Mode=1 IEnd=    10852812.
 Iteration    1 A*A^-1 deviation from unit magnitude is 3.33D-15 for   1271.
 Iteration    1 A*A^-1 deviation from orthogonality  is 2.59D-15 for   1004    182.
 Iteration    1 A^-1*A deviation from unit magnitude is 3.33D-15 for   1271.
 Iteration    1 A^-1*A deviation from orthogonality  is 3.27D-15 for   1020    246.
 E= -1457.70215802296    
 DIIS: error= 3.27D-02 at cycle   1 NSaved=   1.
 NSaved= 1 IEnMin= 1 EnMin= -1457.70215802296     IErMin= 1 ErrMin= 3.27D-02
 ErrMax= 3.27D-02  0.00D+00 EMaxC= 1.00D-01 BMatC= 2.07D+00 BMatP= 2.07D+00
 IDIUse=3 WtCom= 6.73D-01 WtEn= 3.27D-01
 Coeff-Com:  0.100D+01
 Coeff-En:   0.100D+01
 Coeff:      0.100D+01
 Gap=     0.245 Goal=   None    Shift=    0.000
 Gap=     0.245 Goal=   None    Shift=    0.000
 GapD=    0.245 DampG=1.000 DampE=0.500 DampFc=0.5000 IDamp=-1.
 Damping current iteration by 5.00D-01
 RMSDP=5.11D-02 MaxDP=9.23D+00              OVMax= 3.45D-01

 Cycle   2  Pass 1  IDiag  1:
 RMSU=  2.30D-02    CP:  1.13D+00
 E= -1457.82638963343     Delta-E=       -0.124231610471 Rises=F Damp=T
 DIIS: error= 1.70D-02 at cycle   2 NSaved=   2.
 NSaved= 2 IEnMin= 2 EnMin= -1457.82638963343     IErMin= 2 ErrMin= 1.70D-02
 ErrMax= 1.70D-02  0.00D+00 EMaxC= 1.00D-01 BMatC= 2.77D-01 BMatP= 2.07D+00
 IDIUse=3 WtCom= 8.30D-01 WtEn= 1.70D-01
 Coeff-Com:  0.170D+00 0.830D+00
 Coeff-En:   0.314D+00 0.686D+00
 Coeff:      0.195D+00 0.805D+00
 Gap=     0.169 Goal=   None    Shift=    0.000
 Gap=     0.169 Goal=   None    Shift=    0.000
 RMSDP=1.82D-02 MaxDP=3.26D+00 DE=-1.24D-01 OVMax= 2.70D-01

 Cycle   3  Pass 1  IDiag  1:
 RMSU=  7.53D-03    CP:  1.06D+00  3.29D-01
 E= -1458.05135846386     Delta-E=       -0.224968830428 Rises=F Damp=F
 DIIS: error= 2.05D-02 at cycle   3 NSaved=   3.
 NSaved= 3 IEnMin= 3 EnMin= -1458.05135846386     IErMin= 2 ErrMin= 1.70D-02
 ErrMax= 2.05D-02  0.00D+00 EMaxC= 1.00D-01 BMatC= 2.67D-01 BMatP= 2.77D-01
 IDIUse=3 WtCom= 7.95D-01 WtEn= 2.05D-01
 Coeff-Com:  0.229D-01 0.492D+00 0.485D+00
 Coeff-En:   0.000D+00 0.000D+00 0.100D+01
 Coeff:      0.182D-01 0.391D+00 0.591D+00
 Gap=     0.144 Goal=   None    Shift=    0.000
 Gap=     0.144 Goal=   None    Shift=    0.000
 RMSDP=5.12D-03 MaxDP=5.12D-01 DE=-2.25D-01 OVMax= 1.19D-01

 Cycle   4  Pass 1  IDiag  1:
 RMSU=  3.85D-03    CP:  1.06D+00  3.64D-01  5.67D-01
 E= -1458.07674396548     Delta-E=       -0.025385501624 Rises=F Damp=F
 DIIS: error= 1.58D-02 at cycle   4 NSaved=   4.
 NSaved= 4 IEnMin= 4 EnMin= -1458.07674396548     IErMin= 4 ErrMin= 1.58D-02
 ErrMax= 1.58D-02  0.00D+00 EMaxC= 1.00D-01 BMatC= 1.37D-01 BMatP= 2.67D-01
 IDIUse=3 WtCom= 8.42D-01 WtEn= 1.58D-01
 Coeff-Com: -0.814D-02 0.534D-01 0.422D+00 0.533D+00
 Coeff-En:   0.000D+00 0.000D+00 0.381D+00 0.619D+00
 Coeff:     -0.685D-02 0.450D-01 0.416D+00 0.546D+00
 Gap=     0.148 Goal=   None    Shift=    0.000
 Gap=     0.148 Goal=   None    Shift=    0.000
 RMSDP=3.34D-03 MaxDP=3.87D-01 DE=-2.54D-02 OVMax= 5.25D-02

 Cycle   5  Pass 1  IDiag  1:
 RMSU=  8.92D-04    CP:  1.05D+00  3.51D-01  8.31D-01  3.93D-01
 E= -1458.10438261381     Delta-E=       -0.027638648333 Rises=F Damp=F
 DIIS: error= 8.35D-04 at cycle   5 NSaved=   5.
 NSaved= 5 IEnMin= 5 EnMin= -1458.10438261381     IErMin= 5 ErrMin= 8.35D-04
 ErrMax= 8.35D-04  0.00D+00 EMaxC= 1.00D-01 BMatC= 1.62D-03 BMatP= 1.37D-01
 IDIUse=3 WtCom= 9.92D-01 WtEn= 8.35D-03
 Coeff-Com: -0.353D-02 0.101D-01 0.191D+00 0.277D+00 0.525D+00
 Coeff-En:   0.000D+00 0.000D+00 0.000D+00 0.000D+00 0.100D+01
 Coeff:     -0.350D-02 0.100D-01 0.190D+00 0.275D+00 0.529D+00
 Gap=     0.137 Goal=   None    Shift=    0.000
 Gap=     0.137 Goal=   None    Shift=    0.000
 RMSDP=6.99D-04 MaxDP=4.65D-02 DE=-2.76D-02 OVMax= 4.40D-03

 Cycle   6  Pass 1  IDiag  1:
 RMSU=  2.43D-04    CP:  1.05D+00  3.45D-01  8.06D-01  5.13D-01  6.44D-01
 E= -1458.10474320189     Delta-E=       -0.000360588074 Rises=F Damp=F
 DIIS: error= 2.47D-04 at cycle   6 NSaved=   6.
 NSaved= 6 IEnMin= 6 EnMin= -1458.10474320189     IErMin= 6 ErrMin= 2.47D-04
 ErrMax= 2.47D-04  0.00D+00 EMaxC= 1.00D-01 BMatC= 1.24D-04 BMatP= 1.62D-03
 IDIUse=3 WtCom= 9.98D-01 WtEn= 2.47D-03
 Coeff-Com: -0.332D-03-0.230D-02 0.382D-01 0.650D-01 0.256D+00 0.644D+00
 Coeff-En:   0.000D+00 0.000D+00 0.000D+00 0.000D+00 0.000D+00 0.100D+01
 Coeff:     -0.331D-03-0.230D-02 0.381D-01 0.648D-01 0.255D+00 0.644D+00
 Gap=     0.137 Goal=   None    Shift=    0.000
 Gap=     0.137 Goal=   None    Shift=    0.000
 RMSDP=9.12D-05 MaxDP=8.38D-03 DE=-3.61D-04 OVMax= 2.14D-03

 Cycle   7  Pass 1  IDiag  1:
 RMSU=  6.95D-05    CP:  1.05D+00  3.44D-01  8.12D-01  5.06D-01  6.43D-01
                    CP:  9.20D-01
 E= -1458.10477000773     Delta-E=       -0.000026805843 Rises=F Damp=F
 DIIS: error= 1.75D-04 at cycle   7 NSaved=   7.
 NSaved= 7 IEnMin= 7 EnMin= -1458.10477000773     IErMin= 7 ErrMin= 1.75D-04
 ErrMax= 1.75D-04  0.00D+00 EMaxC= 1.00D-01 BMatC= 1.38D-05 BMatP= 1.24D-04
 IDIUse=3 WtCom= 9.98D-01 WtEn= 1.75D-03
 EnCoef did     4 forward-backward iterations
 Coeff-Com:  0.111D-03-0.182D-02 0.992D-02 0.191D-01 0.105D+00 0.347D+00
 Coeff-Com:  0.521D+00
 Coeff-En:   0.000D+00 0.000D+00 0.000D+00 0.000D+00 0.000D+00 0.141D-02
 Coeff-En:   0.999D+00
 Coeff:      0.111D-03-0.182D-02 0.991D-02 0.191D-01 0.105D+00 0.346D+00
 Coeff:      0.522D+00
 Gap=     0.137 Goal=   None    Shift=    0.000
 Gap=     0.137 Goal=   None    Shift=    0.000
 RMSDP=3.52D-05 MaxDP=3.73D-03 DE=-2.68D-05 OVMax= 1.29D-03

 Cycle   8  Pass 1  IDiag  1:
 RMSU=  2.91D-05    CP:  1.05D+00  3.43D-01  8.11D-01  5.09D-01  6.35D-01
                    CP:  9.26D-01  8.91D-01
 E= -1458.10477268738     Delta-E=       -0.000002679646 Rises=F Damp=F
 DIIS: error= 9.40D-05 at cycle   8 NSaved=   8.
 NSaved= 8 IEnMin= 8 EnMin= -1458.10477268738     IErMin= 8 ErrMin= 9.40D-05
 ErrMax= 9.40D-05  0.00D+00 EMaxC= 1.00D-01 BMatC= 2.99D-06 BMatP= 1.38D-05
 IDIUse=1 WtCom= 1.00D+00 WtEn= 0.00D+00
 Coeff-Com:  0.164D-03-0.800D-03 0.359D-03 0.159D-02 0.233D-01 0.110D+00
 Coeff-Com:  0.336D+00 0.529D+00
 Coeff:      0.164D-03-0.800D-03 0.359D-03 0.159D-02 0.233D-01 0.110D+00
 Coeff:      0.336D+00 0.529D+00
 Gap=     0.137 Goal=   None    Shift=    0.000
 Gap=     0.137 Goal=   None    Shift=    0.000
 RMSDP=1.50D-05 MaxDP=3.29D-03 DE=-2.68D-06 OVMax= 4.88D-04

 Cycle   9  Pass 1  IDiag  1:
 RMSU=  8.83D-06    CP:  1.05D+00  3.43D-01  8.11D-01  5.10D-01  6.39D-01
                    CP:  9.33D-01  9.20D-01  7.13D-01
 E= -1458.10477332894     Delta-E=       -0.000000641566 Rises=F Damp=F
 DIIS: error= 1.61D-05 at cycle   9 NSaved=   9.
 NSaved= 9 IEnMin= 9 EnMin= -1458.10477332894     IErMin= 9 ErrMin= 1.61D-05
 ErrMax= 1.61D-05  0.00D+00 EMaxC= 1.00D-01 BMatC= 2.99D-07 BMatP= 2.99D-06
 IDIUse=1 WtCom= 1.00D+00 WtEn= 0.00D+00
 Coeff-Com:  0.978D-04-0.339D-03-0.540D-03-0.693D-03 0.558D-02 0.374D-01
 Coeff-Com:  0.157D+00 0.315D+00 0.487D+00
 Coeff:      0.978D-04-0.339D-03-0.540D-03-0.693D-03 0.558D-02 0.374D-01
 Coeff:      0.157D+00 0.315D+00 0.487D+00
 Gap=     0.137 Goal=   None    Shift=    0.000
 Gap=     0.137 Goal=   None    Shift=    0.000
 RMSDP=5.29D-06 MaxDP=5.73D-04 DE=-6.42D-07 OVMax= 8.72D-05

 Cycle  10  Pass 1  IDiag  1:
 RMSU=  2.32D-06    CP:  1.05D+00  3.43D-01  8.11D-01  5.09D-01  6.40D-01
                    CP:  9.34D-01  9.20D-01  7.57D-01  7.16D-01
 E= -1458.10477338857     Delta-E=       -0.000000059627 Rises=F Damp=F
 DIIS: error= 5.75D-06 at cycle  10 NSaved=  10.
 NSaved=10 IEnMin=10 EnMin= -1458.10477338857     IErMin=10 ErrMin= 5.75D-06
 ErrMax= 5.75D-06  0.00D+00 EMaxC= 1.00D-01 BMatC= 3.28D-08 BMatP= 2.99D-07
 IDIUse=1 WtCom= 1.00D+00 WtEn= 0.00D+00
 Coeff-Com:  0.354D-04-0.782D-04-0.402D-03-0.768D-03-0.539D-03 0.410D-02
 Coeff-Com:  0.376D-01 0.102D+00 0.285D+00 0.573D+00
 Coeff:      0.354D-04-0.782D-04-0.402D-03-0.768D-03-0.539D-03 0.410D-02
 Coeff:      0.376D-01 0.102D+00 0.285D+00 0.573D+00
 Gap=     0.137 Goal=   None    Shift=    0.000
 Gap=     0.137 Goal=   None    Shift=    0.000
 RMSDP=2.41D-06 MaxDP=2.56D-04 DE=-5.96D-08 OVMax= 2.05D-05

 Cycle  11  Pass 1  IDiag  1:
 RMSU=  6.17D-07    CP:  1.05D+00  3.43D-01  8.11D-01  5.09D-01  6.39D-01
                    CP:  9.36D-01  9.32D-01  7.60D-01  7.81D-01  7.50D-01
 E= -1458.10477339473     Delta-E=       -0.000000006161 Rises=F Damp=F
 DIIS: error= 1.50D-06 at cycle  11 NSaved=  11.
 NSaved=11 IEnMin=11 EnMin= -1458.10477339473     IErMin=11 ErrMin= 1.50D-06
 ErrMax= 1.50D-06  0.00D+00 EMaxC= 1.00D-01 BMatC= 2.87D-09 BMatP= 3.28D-08
 IDIUse=1 WtCom= 1.00D+00 WtEn= 0.00D+00
 Coeff-Com:  0.115D-04-0.178D-04-0.177D-03-0.372D-03-0.768D-03-0.775D-03
 Coeff-Com:  0.779D-02 0.319D-01 0.122D+00 0.321D+00 0.520D+00
 Coeff:      0.115D-04-0.178D-04-0.177D-03-0.372D-03-0.768D-03-0.775D-03
 Coeff:      0.779D-02 0.319D-01 0.122D+00 0.321D+00 0.520D+00
 Gap=     0.137 Goal=   None    Shift=    0.000
 Gap=     0.137 Goal=   None    Shift=    0.000
 RMSDP=1.36D-06 MaxDP=1.23D-04 DE=-6.16D-09 OVMax= 9.00D-06

 Cycle  12  Pass 1  IDiag  1:
 RMSU=  3.82D-07    CP:  1.05D+00  3.43D-01  8.11D-01  5.09D-01  6.39D-01
                    CP:  9.38D-01  9.33D-01  7.66D-01  8.08D-01  7.25D-01
                    CP:  1.03D+00
 E= -1458.10477339533     Delta-E=       -0.000000000595 Rises=F Damp=F
 DIIS: error= 4.67D-07 at cycle  12 NSaved=  12.
 NSaved=12 IEnMin=12 EnMin= -1458.10477339533     IErMin=12 ErrMin= 4.67D-07
 ErrMax= 4.67D-07  0.00D+00 EMaxC= 1.00D-01 BMatC= 3.52D-10 BMatP= 2.87D-09
 IDIUse=1 WtCom= 1.00D+00 WtEn= 0.00D+00
 Coeff-Com: -0.122D-05 0.543D-05-0.125D-04-0.435D-04-0.288D-03-0.105D-02
 Coeff-Com: -0.294D-02-0.149D-02 0.121D-01 0.610D-01 0.286D+00 0.647D+00
 Coeff:     -0.122D-05 0.543D-05-0.125D-04-0.435D-04-0.288D-03-0.105D-02
 Coeff:     -0.294D-02-0.149D-02 0.121D-01 0.610D-01 0.286D+00 0.647D+00
 Gap=     0.137 Goal=   None    Shift=    0.000
 Gap=     0.137 Goal=   None    Shift=    0.000
 RMSDP=2.20D-07 MaxDP=1.84D-05 DE=-5.95D-10 OVMax= 3.10D-06

 Cycle  13  Pass 1  IDiag  1:
 RMSU=  9.51D-08    CP:  1.05D+00  3.43D-01  8.11D-01  5.09D-01  6.39D-01
                    CP:  9.38D-01  9.33D-01  7.67D-01  8.14D-01  7.48D-01
                    CP:  1.07D+00  8.23D-01
 E= -1458.10477339542     Delta-E=       -0.000000000090 Rises=F Damp=F
 DIIS: error= 1.69D-07 at cycle  13 NSaved=  13.
 NSaved=13 IEnMin=13 EnMin= -1458.10477339542     IErMin=13 ErrMin= 1.69D-07
 ErrMax= 1.69D-07  0.00D+00 EMaxC= 1.00D-01 BMatC= 2.47D-11 BMatP= 3.52D-10
 IDIUse=1 WtCom= 1.00D+00 WtEn= 0.00D+00
 Coeff-Com: -0.115D-05 0.353D-05-0.105D-06-0.725D-05-0.124D-03-0.509D-03
 Coeff-Com: -0.191D-02-0.216D-02 0.467D-03 0.144D-01 0.128D+00 0.345D+00
 Coeff-Com:  0.517D+00
 Coeff:     -0.115D-05 0.353D-05-0.105D-06-0.725D-05-0.124D-03-0.509D-03
 Coeff:     -0.191D-02-0.216D-02 0.467D-03 0.144D-01 0.128D+00 0.345D+00
 Coeff:      0.517D+00
 Gap=     0.137 Goal=   None    Shift=    0.000
 Gap=     0.137 Goal=   None    Shift=    0.000
 RMSDP=7.01D-08 MaxDP=8.86D-06 DE=-8.96D-11 OVMax= 1.16D-06

 Cycle  14  Pass 1  IDiag  1:
 RMSU=  3.27D-08    CP:  1.05D+00  3.43D-01  8.11D-01  5.09D-01  6.39D-01
                    CP:  9.37D-01  9.34D-01  7.68D-01  8.13D-01  7.43D-01
                    CP:  1.07D+00  7.96D-01  8.05D-01
 E= -1458.10477339542     Delta-E=       -0.000000000001 Rises=F Damp=F
 DIIS: error= 9.07D-08 at cycle  14 NSaved=  14.
 NSaved=14 IEnMin=14 EnMin= -1458.10477339542     IErMin=14 ErrMin= 9.07D-08
 ErrMax= 9.07D-08  0.00D+00 EMaxC= 1.00D-01 BMatC= 4.54D-12 BMatP= 2.47D-11
 IDIUse=1 WtCom= 1.00D+00 WtEn= 0.00D+00
 Coeff-Com: -0.398D-06 0.915D-06 0.141D-05 0.265D-05-0.258D-04-0.107D-03
 Coeff-Com: -0.589D-03-0.876D-03-0.175D-02-0.335D-02 0.263D-01 0.912D-01
 Coeff-Com:  0.313D+00 0.576D+00
 Coeff:     -0.398D-06 0.915D-06 0.141D-05 0.265D-05-0.258D-04-0.107D-03
 Coeff:     -0.589D-03-0.876D-03-0.175D-02-0.335D-02 0.263D-01 0.912D-01
 Coeff:      0.313D+00 0.576D+00
 Gap=     0.137 Goal=   None    Shift=    0.000
 Gap=     0.137 Goal=   None    Shift=    0.000
 RMSDP=2.62D-08 MaxDP=2.71D-06 DE=-9.09D-13 OVMax= 6.51D-07

 Cycle  15  Pass 1  IDiag  1:
 RMSU=  1.08D-08    CP:  1.05D+00  3.43D-01  8.11D-01  5.09D-01  6.39D-01
                    CP:  9.38D-01  9.34D-01  7.68D-01  8.14D-01  7.46D-01
                    CP:  1.08D+00  8.11D-01  8.59D-01  6.23D-01
 E= -1458.10477339542     Delta-E=       -0.000000000005 Rises=F Damp=F
 DIIS: error= 1.46D-08 at cycle  15 NSaved=  15.
 NSaved=15 IEnMin=15 EnMin= -1458.10477339542     IErMin=15 ErrMin= 1.46D-08
 ErrMax= 1.46D-08  0.00D+00 EMaxC= 1.00D-01 BMatC= 2.82D-13 BMatP= 4.54D-12
 IDIUse=1 WtCom= 1.00D+00 WtEn= 0.00D+00
 Coeff-Com: -0.827D-07 0.134D-06 0.915D-06 0.199D-05-0.312D-05-0.129D-04
 Coeff-Com: -0.148D-03-0.237D-03-0.757D-03-0.272D-02 0.293D-02 0.153D-01
 Coeff-Com:  0.909D-01 0.274D+00 0.621D+00
 Coeff:     -0.827D-07 0.134D-06 0.915D-06 0.199D-05-0.312D-05-0.129D-04
 Coeff:     -0.148D-03-0.237D-03-0.757D-03-0.272D-02 0.293D-02 0.153D-01
 Coeff:      0.909D-01 0.274D+00 0.621D+00
 Gap=     0.137 Goal=   None    Shift=    0.000
 Gap=     0.137 Goal=   None    Shift=    0.000
 RMSDP=1.61D-08 MaxDP=1.20D-06 DE=-5.00D-12 OVMax= 6.58D-08

 Cycle  16  Pass 1  IDiag  1:
 RMSU=  3.78D-09    CP:  1.05D+00  3.43D-01  8.11D-01  5.09D-01  6.39D-01
                    CP:  9.38D-01  9.34D-01  7.68D-01  8.14D-01  7.45D-01
                    CP:  1.08D+00  8.15D-01  8.64D-01  6.48D-01  9.00D-01
 E= -1458.10477339541     Delta-E=        0.000000000016 Rises=F Damp=F
 DIIS: error= 2.54D-09 at cycle  16 NSaved=  16.
 NSaved=16 IEnMin=15 EnMin= -1458.10477339542     IErMin=16 ErrMin= 2.54D-09
 ErrMax= 2.54D-09  0.00D+00 EMaxC= 1.00D-01 BMatC= 1.65D-14 BMatP= 2.82D-13
 IDIUse=1 WtCom= 1.00D+00 WtEn= 0.00D+00
 Coeff-Com:  0.917D-08-0.227D-07 0.248D-06 0.456D-06 0.641D-06 0.310D-05
 Coeff-Com: -0.161D-04-0.156D-04-0.121D-03-0.817D-03-0.720D-03-0.152D-02
 Coeff-Com:  0.624D-02 0.654D-01 0.186D+00 0.745D+00
 Coeff:      0.917D-08-0.227D-07 0.248D-06 0.456D-06 0.641D-06 0.310D-05
 Coeff:     -0.161D-04-0.156D-04-0.121D-03-0.817D-03-0.720D-03-0.152D-02
 Coeff:      0.624D-02 0.654D-01 0.186D+00 0.745D+00
 Gap=     0.137 Goal=   None    Shift=    0.000
 Gap=     0.137 Goal=   None    Shift=    0.000
 RMSDP=3.01D-09 MaxDP=4.93D-07 DE= 1.57D-11 OVMax= 3.21D-08

 Error on total polarization charges =  0.01791
 SCF Done:  E(UB3LYP) =  -1458.10477340     A.U. after   16 cycles
            NFock= 16  Conv=0.30D-08     -V/T= 2.0030
 <Sx>= 0.0000 <Sy>= 0.0000 <Sz>= 0.0000 <S**2>=-0.0000 S=-0.0000
 <L.S>=  0.00000000000    
 KE= 1.453692855060D+03 PE=-5.643657583328D+03 EE= 1.629805676307D+03
 Annihilation of the first spin contaminant:
 S**2 before annihilation    -0.0000,   after     0.0000
 Leave Link  502 at Sun Jan 21 06:47:35 2024, MaxMem=  4026531840 cpu:             860.1 elap:             107.9
 (Enter /sysapps/ubuntu-applications/gaussian/Gaussian/AVX2/g16/l601.exe)
 Copying SCF densities to generalized density rwf, IOpCl= 1 IROHF=0.

 **********************************************************************

            Population analysis using the SCF density.

 **********************************************************************

 Orbital symmetries:
 Alpha Orbitals:
       Occupied  (A) (A) (A) (A) (A) (A) (A) (A) (A) (A) (A) (A)
                 (A) (A) (A) (A) (A) (A) (A) (A) (A) (A) (A) (A)
                 (A) (A) (A) (A) (A) (A) (A) (A) (A) (A) (A) (A)
                 (A) (A) (A) (A) (A) (A) (A) (A) (A) (A) (A) (A)
                 (A) (A) (A) (A) (A) (A) (A) (A) (A) (A) (A) (A)
       Virtual   (A) (A) (A) (A) (A) (A) (A) (A) (A) (A) (A) (A)
                 (A) (A) (A) (A) (A) (A) (A) (A) (A) (A) (A) (A)
                 (A) (A) (A) (A) (A) (A) (A) (A) (A) (A) (A) (A)
                 (A) (A) (A) (A) (A) (A) (A) (A) (A) (A) (A) (A)
                 (A) (A) (A) (A) (A) (A) (A) (A) (A) (A) (A) (A)
                 (A) (A) (A) (A) (A) (A) (A) (A) (A) (A) (A) (A)
                 (A) (A) (A) (A) (A) (A) (A) (A) (A) (A) (A) (A)
                 (A) (A) (A) (A) (A) (A) (A) (A) (A) (A) (A) (A)
                 (A) (A) (A) (A) (A) (A) (A) (A) (A) (A) (A) (A)
                 (A) (A) (A) (A) (A) (A) (A) (A) (A) (A) (A) (A)
                 (A) (A) (A) (A) (A) (A) (A) (A) (A) (A) (A) (A)
                 (A) (A) (A) (A) (A) (A) (A) (A) (A) (A) (A) (A)
                 (A) (A) (A) (A) (A) (A) (A) (A) (A) (A) (A) (A)
                 (A) (A) (A) (A) (A) (A) (A) (A) (A) (A) (A) (A)
                 (A) (A) (A) (A) (A) (A) (A) (A) (A) (A) (A) (A)
                 (A) (A) (A) (A) (A) (A) (A) (A) (A) (A) (A) (A)
                 (A) (A) (A) (A) (A) (A) (A) (A) (A) (A) (A) (A)
                 (A) (A) (A) (A) (A) (A) (A) (A) (A) (A) (A) (A)
                 (A) (A) (A) (A) (A) (A) (A) (A) (A) (A) (A) (A)
                 (A) (A) (A) (A) (A) (A) (A) (A) (A) (A) (A) (A)
                 (A) (A) (A) (A) (A) (A) (A) (A) (A) (A) (A) (A)
                 (A) (A) (A) (A) (A) (A) (A) (A) (A) (A) (A) (A)
                 (A) (A) (A) (A) (A) (A) (A) (A) (A) (A) (A) (A)
                 (A) (A) (A) (A) (A) (A) (A) (A) (A) (A) (A) (A)
                 (A) (A) (A) (A) (A) (A) (A) (A) (A) (A) (A) (A)
                 (A) (A) (A) (A) (A) (A) (A) (A) (A) (A) (A) (A)
                 (A) (A) (A) (A) (A) (A) (A) (A) (A) (A) (A) (A)
                 (A) (A) (A) (A) (A) (A) (A) (A)
 Beta  Orbitals:
       Occupied  (A) (A) (A) (A) (A) (A) (A) (A) (A) (A) (A) (A)
                 (A) (A) (A) (A) (A) (A) (A) (A) (A) (A) (A) (A)
                 (A) (A) (A) (A) (A) (A) (A) (A) (A) (A) (A) (A)
                 (A) (A) (A) (A) (A) (A) (A) (A) (A) (A) (A) (A)
                 (A) (A) (A) (A) (A) (A) (A) (A) (A) (A) (A) (A)
       Virtual   (A) (A) (A) (A) (A) (A) (A) (A) (A) (A) (A) (A)
                 (A) (A) (A) (A) (A) (A) (A) (A) (A) (A) (A) (A)
                 (A) (A) (A) (A) (A) (A) (A) (A) (A) (A) (A) (A)
                 (A) (A) (A) (A) (A) (A) (A) (A) (A) (A) (A) (A)
                 (A) (A) (A) (A) (A) (A) (A) (A) (A) (A) (A) (A)
                 (A) (A) (A) (A) (A) (A) (A) (A) (A) (A) (A) (A)
                 (A) (A) (A) (A) (A) (A) (A) (A) (A) (A) (A) (A)
                 (A) (A) (A) (A) (A) (A) (A) (A) (A) (A) (A) (A)
                 (A) (A) (A) (A) (A) (A) (A) (A) (A) (A) (A) (A)
                 (A) (A) (A) (A) (A) (A) (A) (A) (A) (A) (A) (A)
                 (A) (A) (A) (A) (A) (A) (A) (A) (A) (A) (A) (A)
                 (A) (A) (A) (A) (A) (A) (A) (A) (A) (A) (A) (A)
                 (A) (A) (A) (A) (A) (A) (A) (A) (A) (A) (A) (A)
                 (A) (A) (A) (A) (A) (A) (A) (A) (A) (A) (A) (A)
                 (A) (A) (A) (A) (A) (A) (A) (A) (A) (A) (A) (A)
                 (A) (A) (A) (A) (A) (A) (A) (A) (A) (A) (A) (A)
                 (A) (A) (A) (A) (A) (A) (A) (A) (A) (A) (A) (A)
                 (A) (A) (A) (A) (A) (A) (A) (A) (A) (A) (A) (A)
                 (A) (A) (A) (A) (A) (A) (A) (A) (A) (A) (A) (A)
                 (A) (A) (A) (A) (A) (A) (A) (A) (A) (A) (A) (A)
                 (A) (A) (A) (A) (A) (A) (A) (A) (A) (A) (A) (A)
                 (A) (A) (A) (A) (A) (A) (A) (A) (A) (A) (A) (A)
                 (A) (A) (A) (A) (A) (A) (A) (A) (A) (A) (A) (A)
                 (A) (A) (A) (A) (A) (A) (A) (A) (A) (A) (A) (A)
                 (A) (A) (A) (A) (A) (A) (A) (A) (A) (A) (A) (A)
                 (A) (A) (A) (A) (A) (A) (A) (A) (A) (A) (A) (A)
                 (A) (A) (A) (A) (A) (A) (A) (A) (A) (A) (A) (A)
                 (A) (A) (A) (A) (A) (A) (A) (A)
 The electronic state is 1-A.
 Alpha  occ. eigenvalues -- -101.58591-101.58514 -19.15649 -19.15433 -10.30900
 Alpha  occ. eigenvalues --  -10.30462 -10.28299 -10.28137 -10.23064 -10.21422
 Alpha  occ. eigenvalues --  -10.21013 -10.16576 -10.16378 -10.16377  -9.50041
 Alpha  occ. eigenvalues --   -9.49965  -7.26524  -7.26450  -7.25551  -7.25476
 Alpha  occ. eigenvalues --   -7.25432  -7.25354  -1.09387  -1.08866  -0.93814
 Alpha  occ. eigenvalues --   -0.88496  -0.87088  -0.82001  -0.76640  -0.71690
 Alpha  occ. eigenvalues --   -0.69468  -0.69389  -0.64218  -0.62487  -0.56488
 Alpha  occ. eigenvalues --   -0.55170  -0.51722  -0.49498  -0.48252  -0.47897
 Alpha  occ. eigenvalues --   -0.46604  -0.46363  -0.44895  -0.44403  -0.44214
 Alpha  occ. eigenvalues --   -0.42136  -0.40626  -0.38930  -0.38865  -0.37314
 Alpha  occ. eigenvalues --   -0.36887  -0.36332  -0.35396  -0.34845  -0.34453
 Alpha  occ. eigenvalues --   -0.33317  -0.31030  -0.30430  -0.29359  -0.28340
 Alpha virt. eigenvalues --   -0.14666  -0.04159  -0.02516  -0.01688  -0.00645
 Alpha virt. eigenvalues --    0.01189   0.01371   0.01836   0.02014   0.03152
 Alpha virt. eigenvalues --    0.03691   0.03853   0.03946   0.04982   0.05298
 Alpha virt. eigenvalues --    0.06256   0.06905   0.07046   0.07327   0.07745
 Alpha virt. eigenvalues --    0.08409   0.08823   0.09261   0.09419   0.09690
 Alpha virt. eigenvalues --    0.10434   0.10783   0.11277   0.11815   0.11952
 Alpha virt. eigenvalues --    0.12281   0.12978   0.13136   0.13612   0.13834
 Alpha virt. eigenvalues --    0.14258   0.14330   0.14629   0.14743   0.15408
 Alpha virt. eigenvalues --    0.15456   0.15975   0.16076   0.17422   0.17932
 Alpha virt. eigenvalues --    0.18081   0.18151   0.18554   0.18581   0.19190
 Alpha virt. eigenvalues --    0.19387   0.19557   0.20099   0.20116   0.20841
 Alpha virt. eigenvalues --    0.20872   0.21578   0.22412   0.22518   0.23235
 Alpha virt. eigenvalues --    0.24235   0.24926   0.25722   0.25912   0.26281
 Alpha virt. eigenvalues --    0.26729   0.26925   0.27391   0.27847   0.28470
 Alpha virt. eigenvalues --    0.28879   0.30355   0.30567   0.30994   0.32044
 Alpha virt. eigenvalues --    0.32059   0.32931   0.33074   0.33807   0.33912
 Alpha virt. eigenvalues --    0.34503   0.34535   0.35864   0.37440   0.38135
 Alpha virt. eigenvalues --    0.38323   0.40292   0.41226   0.42035   0.43653
 Alpha virt. eigenvalues --    0.43944   0.44615   0.44676   0.46326   0.47071
 Alpha virt. eigenvalues --    0.47919   0.48049   0.49346   0.50510   0.51420
 Alpha virt. eigenvalues --    0.53125   0.53325   0.53898   0.57102   0.57399
 Alpha virt. eigenvalues --    0.58483   0.58542   0.59874   0.60581   0.61329
 Alpha virt. eigenvalues --    0.61428   0.62316   0.63108   0.63131   0.65215
 Alpha virt. eigenvalues --    0.65383   0.65905   0.67201   0.67859   0.68604
 Alpha virt. eigenvalues --    0.68641   0.69463   0.71052   0.71493   0.72223
 Alpha virt. eigenvalues --    0.73589   0.75634   0.77426   0.77489   0.78318
 Alpha virt. eigenvalues --    0.79567   0.80418   0.82303   0.83281   0.83530
 Alpha virt. eigenvalues --    0.83671   0.84682   0.84741   0.86973   0.89141
 Alpha virt. eigenvalues --    0.90053   0.90855   0.91076   0.92405   0.92797
 Alpha virt. eigenvalues --    0.93373   0.94019   0.95271   0.95869   0.96504
 Alpha virt. eigenvalues --    0.99090   1.02032   1.02975   1.05062   1.06837
 Alpha virt. eigenvalues --    1.07573   1.08597   1.09782   1.13661   1.15852
 Alpha virt. eigenvalues --    1.16537   1.18825   1.19475   1.19813   1.22284
 Alpha virt. eigenvalues --    1.23797   1.24324   1.25218   1.25258   1.26254
 Alpha virt. eigenvalues --    1.27897   1.28130   1.30244   1.32075   1.34381
 Alpha virt. eigenvalues --    1.40557   1.42547   1.43643   1.44027   1.45447
 Alpha virt. eigenvalues --    1.46417   1.48450   1.48960   1.50594   1.53442
 Alpha virt. eigenvalues --    1.54497   1.56022   1.58488   1.59185   1.61674
 Alpha virt. eigenvalues --    1.61950   1.63797   1.65856   1.66920   1.69028
 Alpha virt. eigenvalues --    1.69122   1.70128   1.71189   1.71324   1.72419
 Alpha virt. eigenvalues --    1.75471   1.75920   1.76369   1.77957   1.77980
 Alpha virt. eigenvalues --    1.79474   1.80781   1.81871   1.83381   1.85167
 Alpha virt. eigenvalues --    1.85612   1.87997   1.93150   1.93831   1.97619
 Alpha virt. eigenvalues --    1.98624   1.98882   2.04603   2.09293   2.09317
 Alpha virt. eigenvalues --    2.10693   2.11551   2.15607   2.17388   2.18174
 Alpha virt. eigenvalues --    2.21017   2.21920   2.22689   2.23849   2.25766
 Alpha virt. eigenvalues --    2.28078   2.28290   2.31710   2.34790   2.35738
 Alpha virt. eigenvalues --    2.42979   2.42996   2.45175   2.46180   2.50139
 Alpha virt. eigenvalues --    2.51654   2.52381   2.52450   2.52739   2.54033
 Alpha virt. eigenvalues --    2.54695   2.56918   2.57116   2.57825   2.59516
 Alpha virt. eigenvalues --    2.60878   2.63583   2.65420   2.67571   2.68399
 Alpha virt. eigenvalues --    2.70002   2.72805   2.74855   2.77336   2.80011
 Alpha virt. eigenvalues --    2.81870   2.82439   2.82920   2.84979   2.86563
 Alpha virt. eigenvalues --    2.88830   2.90773   2.93945   2.94364   2.99136
 Alpha virt. eigenvalues --    3.01041   3.03656   3.06236   3.07523   3.09435
 Alpha virt. eigenvalues --    3.13643   3.17569   3.19664   3.20447   3.22057
 Alpha virt. eigenvalues --    3.27958   3.31168   3.31448   3.33777   3.46768
 Alpha virt. eigenvalues --    3.53167   3.55533   3.59913   3.63184   3.69718
 Alpha virt. eigenvalues --    3.77169   3.78719   3.79810   3.80664   3.81721
 Alpha virt. eigenvalues --    3.84843   3.87567   3.98354   4.07898   4.14839
 Alpha virt. eigenvalues --    4.25230   4.26662   4.38125   4.66353   5.02487
 Alpha virt. eigenvalues --    5.05164   5.19180   5.25802   5.68635   5.77684
 Alpha virt. eigenvalues --    9.75512   9.79511  23.44245  23.69774  23.77618
 Alpha virt. eigenvalues --   23.83246  23.87522  23.97270  23.98551  24.00280
 Alpha virt. eigenvalues --   24.05169  24.18945  25.77601  25.87062  26.07913
 Alpha virt. eigenvalues --   26.21807  26.51474  26.77892  49.97185  50.02023
 Alpha virt. eigenvalues --  215.74601 215.79124
  Beta  occ. eigenvalues -- -101.58591-101.58514 -19.15649 -19.15433 -10.30900
  Beta  occ. eigenvalues --  -10.30462 -10.28299 -10.28137 -10.23064 -10.21422
  Beta  occ. eigenvalues --  -10.21013 -10.16576 -10.16378 -10.16377  -9.50041
  Beta  occ. eigenvalues --   -9.49965  -7.26524  -7.26450  -7.25551  -7.25476
  Beta  occ. eigenvalues --   -7.25432  -7.25354  -1.09387  -1.08866  -0.93814
  Beta  occ. eigenvalues --   -0.88496  -0.87088  -0.82001  -0.76640  -0.71690
  Beta  occ. eigenvalues --   -0.69468  -0.69389  -0.64218  -0.62487  -0.56488
  Beta  occ. eigenvalues --   -0.55170  -0.51722  -0.49498  -0.48252  -0.47897
  Beta  occ. eigenvalues --   -0.46604  -0.46363  -0.44895  -0.44403  -0.44214
  Beta  occ. eigenvalues --   -0.42136  -0.40626  -0.38930  -0.38865  -0.37314
  Beta  occ. eigenvalues --   -0.36887  -0.36332  -0.35396  -0.34845  -0.34453
  Beta  occ. eigenvalues --   -0.33317  -0.31030  -0.30430  -0.29359  -0.28340
  Beta virt. eigenvalues --   -0.14666  -0.04159  -0.02516  -0.01688  -0.00645
  Beta virt. eigenvalues --    0.01189   0.01371   0.01836   0.02014   0.03152
  Beta virt. eigenvalues --    0.03691   0.03853   0.03946   0.04982   0.05298
  Beta virt. eigenvalues --    0.06256   0.06905   0.07046   0.07327   0.07745
  Beta virt. eigenvalues --    0.08409   0.08823   0.09261   0.09419   0.09690
  Beta virt. eigenvalues --    0.10434   0.10783   0.11277   0.11815   0.11952
  Beta virt. eigenvalues --    0.12281   0.12978   0.13136   0.13612   0.13834
  Beta virt. eigenvalues --    0.14258   0.14330   0.14629   0.14743   0.15408
  Beta virt. eigenvalues --    0.15456   0.15975   0.16076   0.17422   0.17932
  Beta virt. eigenvalues --    0.18081   0.18151   0.18554   0.18581   0.19190
  Beta virt. eigenvalues --    0.19387   0.19557   0.20099   0.20116   0.20841
  Beta virt. eigenvalues --    0.20872   0.21578   0.22412   0.22518   0.23235
  Beta virt. eigenvalues --    0.24235   0.24926   0.25722   0.25912   0.26281
  Beta virt. eigenvalues --    0.26729   0.26925   0.27391   0.27847   0.28470
  Beta virt. eigenvalues --    0.28879   0.30355   0.30567   0.30994   0.32044
  Beta virt. eigenvalues --    0.32059   0.32931   0.33074   0.33807   0.33912
  Beta virt. eigenvalues --    0.34503   0.34535   0.35864   0.37440   0.38135
  Beta virt. eigenvalues --    0.38323   0.40292   0.41226   0.42035   0.43653
  Beta virt. eigenvalues --    0.43944   0.44615   0.44676   0.46326   0.47071
  Beta virt. eigenvalues --    0.47919   0.48049   0.49346   0.50510   0.51420
  Beta virt. eigenvalues --    0.53125   0.53325   0.53898   0.57102   0.57399
  Beta virt. eigenvalues --    0.58483   0.58542   0.59874   0.60581   0.61329
  Beta virt. eigenvalues --    0.61428   0.62316   0.63108   0.63131   0.65215
  Beta virt. eigenvalues --    0.65383   0.65905   0.67201   0.67859   0.68604
  Beta virt. eigenvalues --    0.68641   0.69463   0.71052   0.71493   0.72223
  Beta virt. eigenvalues --    0.73589   0.75634   0.77426   0.77489   0.78318
  Beta virt. eigenvalues --    0.79567   0.80418   0.82303   0.83281   0.83530
  Beta virt. eigenvalues --    0.83671   0.84682   0.84741   0.86973   0.89141
  Beta virt. eigenvalues --    0.90053   0.90855   0.91076   0.92405   0.92797
  Beta virt. eigenvalues --    0.93373   0.94019   0.95271   0.95869   0.96504
  Beta virt. eigenvalues --    0.99090   1.02032   1.02975   1.05062   1.06837
  Beta virt. eigenvalues --    1.07573   1.08597   1.09782   1.13661   1.15852
  Beta virt. eigenvalues --    1.16537   1.18825   1.19475   1.19813   1.22284
  Beta virt. eigenvalues --    1.23797   1.24324   1.25218   1.25258   1.26254
  Beta virt. eigenvalues --    1.27897   1.28130   1.30244   1.32075   1.34381
  Beta virt. eigenvalues --    1.40557   1.42547   1.43643   1.44027   1.45447
  Beta virt. eigenvalues --    1.46417   1.48450   1.48960   1.50594   1.53442
  Beta virt. eigenvalues --    1.54497   1.56022   1.58488   1.59185   1.61674
  Beta virt. eigenvalues --    1.61950   1.63797   1.65856   1.66920   1.69028
  Beta virt. eigenvalues --    1.69122   1.70128   1.71189   1.71324   1.72419
  Beta virt. eigenvalues --    1.75471   1.75920   1.76369   1.77957   1.77980
  Beta virt. eigenvalues --    1.79474   1.80781   1.81871   1.83381   1.85167
  Beta virt. eigenvalues --    1.85612   1.87997   1.93150   1.93831   1.97619
  Beta virt. eigenvalues --    1.98624   1.98882   2.04603   2.09293   2.09317
  Beta virt. eigenvalues --    2.10693   2.11551   2.15607   2.17388   2.18174
  Beta virt. eigenvalues --    2.21017   2.21920   2.22689   2.23849   2.25766
  Beta virt. eigenvalues --    2.28078   2.28290   2.31710   2.34790   2.35738
  Beta virt. eigenvalues --    2.42979   2.42996   2.45175   2.46180   2.50139
  Beta virt. eigenvalues --    2.51654   2.52381   2.52450   2.52739   2.54033
  Beta virt. eigenvalues --    2.54695   2.56918   2.57116   2.57825   2.59516
  Beta virt. eigenvalues --    2.60878   2.63583   2.65420   2.67571   2.68399
  Beta virt. eigenvalues --    2.70002   2.72805   2.74855   2.77336   2.80011
  Beta virt. eigenvalues --    2.81870   2.82439   2.82920   2.84979   2.86563
  Beta virt. eigenvalues --    2.88830   2.90773   2.93945   2.94364   2.99136
  Beta virt. eigenvalues --    3.01041   3.03656   3.06236   3.07523   3.09435
  Beta virt. eigenvalues --    3.13643   3.17569   3.19664   3.20447   3.22057
  Beta virt. eigenvalues --    3.27958   3.31168   3.31448   3.33777   3.46768
  Beta virt. eigenvalues --    3.53167   3.55533   3.59913   3.63184   3.69718
  Beta virt. eigenvalues --    3.77169   3.78719   3.79810   3.80664   3.81721
  Beta virt. eigenvalues --    3.84843   3.87567   3.98354   4.07898   4.14839
  Beta virt. eigenvalues --    4.25230   4.26662   4.38125   4.66353   5.02487
  Beta virt. eigenvalues --    5.05164   5.19180   5.25802   5.68635   5.77684
  Beta virt. eigenvalues --    9.75512   9.79511  23.44245  23.69774  23.77618
  Beta virt. eigenvalues --   23.83246  23.87522  23.97270  23.98551  24.00280
  Beta virt. eigenvalues --   24.05169  24.18945  25.77601  25.87062  26.07913
  Beta virt. eigenvalues --   26.21807  26.51474  26.77892  49.97185  50.02023
  Beta virt. eigenvalues --  215.74601 215.79124
          Condensed to atoms (all electrons):
               1          2          3          4          5          6
     1  C    6.003071  -0.433866  -0.169174  -0.225658   0.705752   0.151693
     2  C   -0.433866  18.689961  -0.437452  -1.091957 -10.427204  -2.706218
     3  C   -0.169174  -0.437452   6.003275  -0.224914   0.708700   0.152023
     4  C   -0.225658  -1.091957  -0.224914   6.278203   0.857641  -0.060519
     5  C    0.705752 -10.427204   0.708700   0.857641  20.103777   0.238732
     6  C    0.151693  -2.706218   0.152023  -0.060519   0.238732  14.097864
     7  C    0.077166   0.429997   0.076188  -0.349101  -1.463340   0.516758
     8  O   -0.000373   0.022517  -0.000367   0.009704   0.053658  -0.128197
     9  C    0.016327   0.957872   0.016619  -0.204464  -1.568843  -0.248173
    10  C   -0.142591  -3.659664  -0.141497   0.504223  -0.509109  -2.579217
    11  Cl   0.012791  -0.299569   0.012844   0.016597   0.277560   0.389135
    12  C   -0.335802   4.641496  -0.337275  -0.274152  -3.017588  -4.241671
    13  O   -0.078637   0.122048  -0.078736   0.033716  -0.343010  -0.024763
    14  Cl  -0.000562  -0.024529  -0.000576  -0.014126  -0.156135   0.090004
    15  H    0.431902  -0.050005  -0.020748   0.016769  -0.099761  -0.014428
    16  H    0.378172  -0.036347  -0.004583  -0.012343   0.005875  -0.010754
    17  H    0.341490   0.116833   0.005977  -0.003353  -0.121204   0.001879
    18  H   -0.020782  -0.050494   0.432040   0.016845  -0.099449  -0.014360
    19  H   -0.004640  -0.036230   0.378256  -0.012355   0.005734  -0.010768
    20  H    0.006016   0.116855   0.341390  -0.003278  -0.121054   0.001784
    21  H   -0.026356  -0.073906  -0.026309   0.427889   0.047329   0.015882
    22  H   -0.007836   0.050086   0.013313   0.373385  -0.047837  -0.021741
    23  H    0.013317   0.049806  -0.007853   0.373657  -0.047664  -0.021751
    24  H    0.000603  -0.275207   0.000687   0.045530   0.071531   0.719133
               7          8          9         10         11         12
     1  C    0.077166  -0.000373   0.016327  -0.142591   0.012791  -0.335802
     2  C    0.429997   0.022517   0.957872  -3.659664  -0.299569   4.641496
     3  C    0.076188  -0.000367   0.016619  -0.141497   0.012844  -0.337275
     4  C   -0.349101   0.009704  -0.204464   0.504223   0.016597  -0.274152
     5  C   -1.463340   0.053658  -1.568843  -0.509109   0.277560  -3.017588
     6  C    0.516758  -0.128197  -0.248173  -2.579217   0.389135  -4.241671
     7  C   12.031982   0.302076  -2.551126  -2.631486   0.093880   0.048637
     8  O    0.302076   8.106826   0.004296  -0.144554  -0.008341  -0.032963
     9  C   -2.551126   0.004296  34.683800 -16.092683   0.214865  -8.207864
    10  C   -2.631486  -0.144554 -16.092683  31.121247  -1.440314   1.405406
    11  Cl   0.093880  -0.008341   0.214865  -1.440314  17.572962  -0.108620
    12  C    0.048637  -0.032963  -8.207864   1.405406  -0.108620  16.749749
    13  O   -0.026810   0.000582  -0.076340  -0.103956   0.080041   0.720247
    14  Cl   0.507348   0.073283  -1.638352   0.463721  -0.283362   0.017868
    15  H   -0.006532  -0.000105   0.003151   0.052170  -0.001512   0.044040
    16  H    0.001897   0.000013  -0.000888  -0.005628  -0.000830   0.025919
    17  H   -0.000969   0.000095   0.014191  -0.023835  -0.000435   0.026265
    18  H   -0.006591  -0.000104   0.003231   0.052416  -0.001523   0.043694
    19  H    0.001902   0.000013  -0.000880  -0.005667  -0.000832   0.025976
    20  H   -0.001002   0.000094   0.014087  -0.023791  -0.000431   0.026266
    21  H   -0.018874   0.000732   0.004238   0.012253   0.000869  -0.015299
    22  H    0.020992   0.000112   0.009410  -0.018665  -0.000699  -0.000865
    23  H    0.020952   0.000108   0.009418  -0.018697  -0.000705  -0.000896
    24  H   -0.141912  -0.033349  -0.263823   0.138341   0.006065  -0.014470
              13         14         15         16         17         18
     1  C   -0.078637  -0.000562   0.431902   0.378172   0.341490  -0.020782
     2  C    0.122048  -0.024529  -0.050005  -0.036347   0.116833  -0.050494
     3  C   -0.078736  -0.000576  -0.020748  -0.004583   0.005977   0.432040
     4  C    0.033716  -0.014126   0.016769  -0.012343  -0.003353   0.016845
     5  C   -0.343010  -0.156135  -0.099761   0.005875  -0.121204  -0.099449
     6  C   -0.024763   0.090004  -0.014428  -0.010754   0.001879  -0.014360
     7  C   -0.026810   0.507348  -0.006532   0.001897  -0.000969  -0.006591
     8  O    0.000582   0.073283  -0.000105   0.000013   0.000095  -0.000104
     9  C   -0.076340  -1.638352   0.003151  -0.000888   0.014191   0.003231
    10  C   -0.103956   0.463721   0.052170  -0.005628  -0.023835   0.052416
    11  Cl   0.080041  -0.283362  -0.001512  -0.000830  -0.000435  -0.001523
    12  C    0.720247   0.017868   0.044040   0.025919   0.026265   0.043694
    13  O    7.958971  -0.005279  -0.008043   0.001406   0.003112  -0.008031
    14  Cl  -0.005279  17.536402  -0.000528   0.000001   0.000227  -0.000528
    15  H   -0.008043  -0.000528   0.535635  -0.031651  -0.024955  -0.009608
    16  H    0.001406   0.000001  -0.031651   0.541956  -0.025730   0.005606
    17  H    0.003112   0.000227  -0.024955  -0.025730   0.540557   0.000999
    18  H   -0.008031  -0.000528  -0.009608   0.005606   0.000999   0.535653
    19  H    0.001407   0.000001   0.005594  -0.009018   0.001197  -0.031628
    20  H    0.003121   0.000225   0.001001   0.001195  -0.004134  -0.024999
    21  H   -0.000359  -0.000715   0.002926   0.000950  -0.001504   0.002925
    22  H   -0.000274   0.000198  -0.000299   0.005887   0.002274  -0.004003
    23  H   -0.000273   0.000202  -0.004003  -0.001116   0.001241  -0.000296
    24  H    0.001207   0.004675   0.001139  -0.001010  -0.001128   0.001142
              19         20         21         22         23         24
     1  C   -0.004640   0.006016  -0.026356  -0.007836   0.013317   0.000603
     2  C   -0.036230   0.116855  -0.073906   0.050086   0.049806  -0.275207
     3  C    0.378256   0.341390  -0.026309   0.013313  -0.007853   0.000687
     4  C   -0.012355  -0.003278   0.427889   0.373385   0.373657   0.045530
     5  C    0.005734  -0.121054   0.047329  -0.047837  -0.047664   0.071531
     6  C   -0.010768   0.001784   0.015882  -0.021741  -0.021751   0.719133
     7  C    0.001902  -0.001002  -0.018874   0.020992   0.020952  -0.141912
     8  O    0.000013   0.000094   0.000732   0.000112   0.000108  -0.033349
     9  C   -0.000880   0.014087   0.004238   0.009410   0.009418  -0.263823
    10  C   -0.005667  -0.023791   0.012253  -0.018665  -0.018697   0.138341
    11  Cl  -0.000832  -0.000431   0.000869  -0.000699  -0.000705   0.006065
    12  C    0.025976   0.026266  -0.015299  -0.000865  -0.000896  -0.014470
    13  O    0.001407   0.003121  -0.000359  -0.000274  -0.000273   0.001207
    14  Cl   0.000001   0.000225  -0.000715   0.000198   0.000202   0.004675
    15  H    0.005594   0.001001   0.002926  -0.000299  -0.004003   0.001139
    16  H   -0.009018   0.001195   0.000950   0.005887  -0.001116  -0.001010
    17  H    0.001197  -0.004134  -0.001504   0.002274   0.001241  -0.001128
    18  H   -0.031628  -0.024999   0.002925  -0.004003  -0.000296   0.001142
    19  H    0.541942  -0.025728   0.000975  -0.001115   0.005871  -0.001011
    20  H   -0.025728   0.540592  -0.001499   0.001239   0.002281  -0.001120
    21  H    0.000975  -0.001499   0.506678  -0.024327  -0.024282   0.002580
    22  H   -0.001115   0.001239  -0.024327   0.558719  -0.041718  -0.010329
    23  H    0.005871   0.002281  -0.024282  -0.041718   0.558628  -0.010354
    24  H   -0.001011  -0.001120   0.002580  -0.010329  -0.010354   0.509385
          Atomic-Atomic Spin Densities.
               1          2          3          4          5          6
     1  C   -0.000000  -0.000000   0.000000  -0.000000  -0.000000   0.000000
     2  C   -0.000000   0.000000   0.000000  -0.000000  -0.000000   0.000000
     3  C    0.000000   0.000000   0.000000  -0.000000  -0.000000  -0.000000
     4  C   -0.000000  -0.000000  -0.000000   0.000000   0.000000  -0.000000
     5  C   -0.000000  -0.000000  -0.000000   0.000000  -0.000000  -0.000000
     6  C    0.000000   0.000000  -0.000000  -0.000000  -0.000000   0.000000
     7  C   -0.000000  -0.000000  -0.000000   0.000000  -0.000000  -0.000000
     8  O    0.000000   0.000000   0.000000  -0.000000  -0.000000   0.000000
     9  C    0.000000   0.000000   0.000000  -0.000000  -0.000000   0.000000
    10  C    0.000000  -0.000000  -0.000000   0.000000   0.000000  -0.000000
    11  Cl   0.000000   0.000000  -0.000000  -0.000000  -0.000000   0.000000
    12  C   -0.000000  -0.000000   0.000000   0.000000   0.000000  -0.000000
    13  O   -0.000000  -0.000000  -0.000000   0.000000   0.000000  -0.000000
    14  Cl  -0.000000   0.000000  -0.000000  -0.000000  -0.000000  -0.000000
    15  H   -0.000000  -0.000000   0.000000  -0.000000   0.000000   0.000000
    16  H    0.000000   0.000000  -0.000000  -0.000000  -0.000000  -0.000000
    17  H    0.000000   0.000000   0.000000  -0.000000  -0.000000   0.000000
    18  H    0.000000  -0.000000   0.000000  -0.000000   0.000000   0.000000
    19  H   -0.000000  -0.000000   0.000000   0.000000   0.000000  -0.000000
    20  H   -0.000000   0.000000   0.000000  -0.000000  -0.000000   0.000000
    21  H    0.000000   0.000000  -0.000000  -0.000000  -0.000000   0.000000
    22  H   -0.000000  -0.000000   0.000000   0.000000   0.000000  -0.000000
    23  H   -0.000000  -0.000000   0.000000   0.000000   0.000000  -0.000000
    24  H    0.000000  -0.000000  -0.000000   0.000000   0.000000  -0.000000
               7          8          9         10         11         12
     1  C   -0.000000   0.000000   0.000000   0.000000   0.000000  -0.000000
     2  C   -0.000000   0.000000   0.000000  -0.000000   0.000000  -0.000000
     3  C   -0.000000   0.000000   0.000000  -0.000000  -0.000000   0.000000
     4  C    0.000000  -0.000000  -0.000000   0.000000  -0.000000   0.000000
     5  C   -0.000000  -0.000000  -0.000000   0.000000  -0.000000   0.000000
     6  C   -0.000000   0.000000   0.000000  -0.000000   0.000000  -0.000000
     7  C    0.000000  -0.000000   0.000000  -0.000000   0.000000   0.000000
     8  O   -0.000000   0.000000   0.000000  -0.000000   0.000000  -0.000000
     9  C    0.000000   0.000000   0.000000  -0.000000   0.000000  -0.000000
    10  C   -0.000000  -0.000000  -0.000000   0.000000  -0.000000   0.000000
    11  Cl   0.000000   0.000000   0.000000  -0.000000   0.000000  -0.000000
    12  C    0.000000  -0.000000  -0.000000   0.000000  -0.000000   0.000000
    13  O    0.000000  -0.000000  -0.000000   0.000000   0.000000   0.000000
    14  Cl   0.000000   0.000000  -0.000000   0.000000  -0.000000   0.000000
    15  H   -0.000000   0.000000   0.000000   0.000000  -0.000000  -0.000000
    16  H    0.000000  -0.000000  -0.000000  -0.000000   0.000000   0.000000
    17  H   -0.000000   0.000000   0.000000  -0.000000  -0.000000  -0.000000
    18  H   -0.000000   0.000000   0.000000   0.000000  -0.000000  -0.000000
    19  H    0.000000  -0.000000  -0.000000   0.000000   0.000000  -0.000000
    20  H   -0.000000   0.000000   0.000000  -0.000000  -0.000000  -0.000000
    21  H   -0.000000   0.000000   0.000000  -0.000000  -0.000000  -0.000000
    22  H    0.000000  -0.000000  -0.000000   0.000000   0.000000   0.000000
    23  H    0.000000  -0.000000  -0.000000   0.000000   0.000000   0.000000
    24  H    0.000000  -0.000000  -0.000000   0.000000  -0.000000   0.000000
              13         14         15         16         17         18
     1  C   -0.000000  -0.000000  -0.000000   0.000000   0.000000   0.000000
     2  C   -0.000000   0.000000  -0.000000   0.000000   0.000000  -0.000000
     3  C   -0.000000  -0.000000   0.000000  -0.000000   0.000000   0.000000
     4  C    0.000000  -0.000000  -0.000000  -0.000000  -0.000000  -0.000000
     5  C    0.000000  -0.000000   0.000000  -0.000000  -0.000000   0.000000
     6  C   -0.000000  -0.000000   0.000000  -0.000000   0.000000   0.000000
     7  C    0.000000   0.000000  -0.000000   0.000000  -0.000000  -0.000000
     8  O   -0.000000   0.000000   0.000000  -0.000000   0.000000   0.000000
     9  C   -0.000000  -0.000000   0.000000  -0.000000   0.000000   0.000000
    10  C    0.000000   0.000000   0.000000  -0.000000  -0.000000   0.000000
    11  Cl   0.000000  -0.000000  -0.000000   0.000000  -0.000000  -0.000000
    12  C    0.000000   0.000000  -0.000000   0.000000  -0.000000  -0.000000
    13  O    0.000000   0.000000  -0.000000   0.000000  -0.000000  -0.000000
    14  Cl   0.000000   0.000000  -0.000000   0.000000  -0.000000  -0.000000
    15  H   -0.000000  -0.000000   0.000000  -0.000000   0.000000   0.000000
    16  H    0.000000   0.000000  -0.000000  -0.000000   0.000000  -0.000000
    17  H   -0.000000  -0.000000   0.000000   0.000000  -0.000000   0.000000
    18  H   -0.000000  -0.000000   0.000000  -0.000000   0.000000   0.000000
    19  H    0.000000   0.000000  -0.000000  -0.000000  -0.000000  -0.000000
    20  H   -0.000000  -0.000000   0.000000   0.000000   0.000000   0.000000
    21  H   -0.000000  -0.000000   0.000000  -0.000000   0.000000   0.000000
    22  H    0.000000   0.000000  -0.000000   0.000000  -0.000000  -0.000000
    23  H    0.000000   0.000000  -0.000000   0.000000  -0.000000  -0.000000
    24  H    0.000000   0.000000   0.000000  -0.000000  -0.000000  -0.000000
              19         20         21         22         23         24
     1  C   -0.000000  -0.000000   0.000000  -0.000000  -0.000000   0.000000
     2  C   -0.000000   0.000000   0.000000  -0.000000  -0.000000  -0.000000
     3  C    0.000000   0.000000  -0.000000   0.000000   0.000000  -0.000000
     4  C    0.000000  -0.000000  -0.000000   0.000000   0.000000   0.000000
     5  C    0.000000  -0.000000  -0.000000   0.000000   0.000000   0.000000
     6  C   -0.000000   0.000000   0.000000  -0.000000  -0.000000  -0.000000
     7  C    0.000000  -0.000000  -0.000000   0.000000   0.000000   0.000000
     8  O   -0.000000   0.000000   0.000000  -0.000000  -0.000000  -0.000000
     9  C   -0.000000   0.000000   0.000000  -0.000000  -0.000000  -0.000000
    10  C    0.000000  -0.000000  -0.000000   0.000000   0.000000   0.000000
    11  Cl   0.000000  -0.000000  -0.000000   0.000000   0.000000  -0.000000
    12  C   -0.000000  -0.000000  -0.000000   0.000000   0.000000   0.000000
    13  O    0.000000  -0.000000  -0.000000   0.000000   0.000000   0.000000
    14  Cl   0.000000  -0.000000  -0.000000   0.000000   0.000000   0.000000
    15  H   -0.000000   0.000000   0.000000  -0.000000  -0.000000   0.000000
    16  H   -0.000000   0.000000  -0.000000   0.000000   0.000000  -0.000000
    17  H   -0.000000   0.000000   0.000000  -0.000000  -0.000000  -0.000000
    18  H   -0.000000   0.000000   0.000000  -0.000000  -0.000000  -0.000000
    19  H   -0.000000   0.000000   0.000000  -0.000000   0.000000   0.000000
    20  H    0.000000  -0.000000   0.000000  -0.000000  -0.000000  -0.000000
    21  H    0.000000   0.000000   0.000000   0.000000  -0.000000  -0.000000
    22  H   -0.000000  -0.000000   0.000000  -0.000000  -0.000000   0.000000
    23  H    0.000000  -0.000000  -0.000000  -0.000000  -0.000000   0.000000
    24  H    0.000000  -0.000000  -0.000000   0.000000   0.000000   0.000000
 Mulliken charges and spin densities:
               1          2
     1  C   -0.692023   0.000000
     2  C    0.405177  -0.000000
     3  C   -0.691828   0.000000
     4  C   -0.477939   0.000000
     5  C    0.945909   0.000000
     6  C   -0.292324  -0.000000
     7  C   -0.932031  -0.000000
     8  O   -0.225758  -0.000000
     9  C    0.901930  -0.000000
    10  C   -0.208421   0.000000
    11  Cl   0.469564   0.000000
    12  C   -1.188097  -0.000000
    13  O   -0.171346   0.000000
    14  Cl   0.430537   0.000000
    15  H    0.177850  -0.000000
    16  H    0.171023  -0.000000
    17  H    0.150910  -0.000000
    18  H    0.177844  -0.000000
    19  H    0.171005  -0.000000
    20  H    0.150893  -0.000000
    21  H    0.187206  -0.000000
    22  H    0.144094   0.000000
    23  H    0.144127   0.000000
    24  H    0.251697  -0.000000
 Sum of Mulliken charges =  -0.00000  -0.00000
 Mulliken charges and spin densities with hydrogens summed into heavy atoms:
               1          2
     1  C   -0.192240   0.000000
     2  C    0.405177  -0.000000
     3  C   -0.192086   0.000000
     4  C   -0.002511   0.000000
     5  C    0.945909   0.000000
     6  C   -0.040627  -0.000000
     7  C   -0.932031  -0.000000
     8  O   -0.225758  -0.000000
     9  C    0.901930  -0.000000
    10  C   -0.208421   0.000000
    11  Cl   0.469564   0.000000
    12  C   -1.188097  -0.000000
    13  O   -0.171346   0.000000
    14  Cl   0.430537   0.000000
 Electronic spatial extent (au):  <R**2>=           3761.1854
 Charge=             -0.0000 electrons
 Dipole moment (field-independent basis, Debye):
    X=              3.5304    Y=              0.2630    Z=             -0.0009  Tot=              3.5402
 Quadrupole moment (field-independent basis, Debye-Ang):
   XX=            -92.4576   YY=           -111.9351   ZZ=            -95.3197
   XY=              8.9469   XZ=             -0.0001   YZ=              0.0013
 Traceless Quadrupole moment (field-independent basis, Debye-Ang):
   XX=              7.4465   YY=            -12.0310   ZZ=              4.5844
   XY=              8.9469   XZ=             -0.0001   YZ=              0.0013
 Octapole moment (field-independent basis, Debye-Ang**2):
  XXX=              4.0576  YYY=            -26.6402  ZZZ=              0.0011  XYY=              7.3089
  XXY=             -6.3784  XXZ=              0.0001  XZZ=             -7.2791  YZZ=             -0.2700
  YYZ=             -0.0072  XYZ=              0.0027
 Hexadecapole moment (field-independent basis, Debye-Ang**3):
 XXXX=          -3189.1424 YYYY=          -1475.5425 ZZZZ=           -288.3636 XXXY=              5.0541
 XXXZ=              0.0122 YYYX=             91.7933 YYYZ=              0.0043 ZZZX=             -0.0002
 ZZZY=             -0.0029 XXYY=           -801.5173 XXZZ=           -614.7253 YYZZ=           -268.9109
 XXYZ=             -0.0030 YYXZ=              0.0095 ZZXY=             -1.0963
 N-N= 1.102054278566D+03 E-N=-5.643657583767D+03  KE= 1.453692855060D+03
                          Isotropic Fermi Contact Couplings
        Atom                 a.u.       MegaHertz       Gauss      10(-4) cm-1
     1  C(13)             -0.00000      -0.00000      -0.00000      -0.00000
     2  C(13)              0.00000       0.00000       0.00000       0.00000
     3  C(13)             -0.00000      -0.00000      -0.00000      -0.00000
     4  C(13)             -0.00000      -0.00000      -0.00000      -0.00000
     5  C(13)              0.00000       0.00000       0.00000       0.00000
     6  C(13)              0.00000       0.00000       0.00000       0.00000
     7  C(13)             -0.00000      -0.00000      -0.00000      -0.00000
     8  O(17)             -0.00000       0.00000       0.00000       0.00000
     9  C(13)             -0.00000      -0.00000      -0.00000      -0.00000
    10  C(13)             -0.00000      -0.00000      -0.00000      -0.00000
    11  Cl(35)            -0.00000      -0.00000      -0.00000      -0.00000
    12  C(13)             -0.00000      -0.00000      -0.00000      -0.00000
    13  O(17)             -0.00000       0.00000       0.00000       0.00000
    14  Cl(35)            -0.00000      -0.00000      -0.00000      -0.00000
    15  H(1)               0.00000       0.00000       0.00000       0.00000
    16  H(1)              -0.00000      -0.00000      -0.00000      -0.00000
    17  H(1)              -0.00000      -0.00000      -0.00000      -0.00000
    18  H(1)              -0.00000      -0.00000      -0.00000      -0.00000
    19  H(1)               0.00000       0.00000       0.00000       0.00000
    20  H(1)              -0.00000      -0.00000      -0.00000      -0.00000
    21  H(1)               0.00000       0.00000       0.00000       0.00000
    22  H(1)               0.00000       0.00000       0.00000       0.00000
    23  H(1)              -0.00000      -0.00000      -0.00000      -0.00000
    24  H(1)               0.00000       0.00000       0.00000       0.00000
 --------------------------------------------------------
       Center         ----  Spin Dipole Couplings  ----
                      3XX-RR        3YY-RR        3ZZ-RR
 --------------------------------------------------------
     1   Atom        0.000000      0.000000     -0.000000
     2   Atom        0.000000     -0.000000     -0.000000
     3   Atom       -0.000000      0.000000      0.000000
     4   Atom        0.000000     -0.000000      0.000000
     5   Atom        0.000000     -0.000000      0.000000
     6   Atom        0.000000     -0.000000     -0.000000
     7   Atom        0.000000      0.000000     -0.000000
     8   Atom       -0.000000      0.000000      0.000000
     9   Atom       -0.000000      0.000000     -0.000000
    10   Atom       -0.000000      0.000000     -0.000000
    11   Atom       -0.000000      0.000000     -0.000000
    12   Atom       -0.000000      0.000000      0.000000
    13   Atom       -0.000000      0.000000      0.000000
    14   Atom       -0.000000      0.000000     -0.000000
    15   Atom        0.000000     -0.000000     -0.000000
    16   Atom       -0.000000     -0.000000      0.000000
    17   Atom       -0.000000     -0.000000      0.000000
    18   Atom        0.000000      0.000000     -0.000000
    19   Atom       -0.000000      0.000000      0.000000
    20   Atom       -0.000000      0.000000      0.000000
    21   Atom       -0.000000      0.000000     -0.000000
    22   Atom        0.000000      0.000000     -0.000000
    23   Atom        0.000000      0.000000     -0.000000
    24   Atom       -0.000000      0.000000     -0.000000
 --------------------------------------------------------
                        XY            XZ            YZ
 --------------------------------------------------------
     1   Atom       -0.000000     -0.000000      0.000000
     2   Atom        0.000000      0.000000      0.000000
     3   Atom       -0.000000      0.000000     -0.000000
     4   Atom        0.000000     -0.000000      0.000000
     5   Atom        0.000000     -0.000000      0.000000
     6   Atom        0.000000     -0.000000      0.000000
     7   Atom       -0.000000     -0.000000      0.000000
     8   Atom       -0.000000     -0.000000      0.000000
     9   Atom       -0.000000     -0.000000      0.000000
    10   Atom       -0.000000      0.000000     -0.000000
    11   Atom       -0.000000     -0.000000      0.000000
    12   Atom        0.000000      0.000000      0.000000
    13   Atom       -0.000000      0.000000     -0.000000
    14   Atom       -0.000000     -0.000000      0.000000
    15   Atom        0.000000      0.000000      0.000000
    16   Atom        0.000000      0.000000     -0.000000
    17   Atom       -0.000000      0.000000     -0.000000
    18   Atom        0.000000     -0.000000     -0.000000
    19   Atom        0.000000     -0.000000      0.000000
    20   Atom       -0.000000     -0.000000     -0.000000
    21   Atom        0.000000      0.000000     -0.000000
    22   Atom        0.000000     -0.000000     -0.000000
    23   Atom        0.000000      0.000000      0.000000
    24   Atom       -0.000000     -0.000000      0.000000
 --------------------------------------------------------


 ---------------------------------------------------------------------------------
              Anisotropic Spin Dipole Couplings in Principal Axis System
 ---------------------------------------------------------------------------------

       Atom             a.u.   MegaHertz   Gauss  10(-4) cm-1        Axes

              Baa    -0.0000    -0.000    -0.000    -0.000 -0.0903 -0.5764  0.8122
     1 C(13)  Bbb    -0.0000    -0.000    -0.000    -0.000  0.8339  0.4021  0.3780
              Bcc     0.0000     0.000     0.000     0.000 -0.5445  0.7114  0.4443
 
              Baa    -0.0000    -0.000    -0.000    -0.000 -0.5186  0.8498 -0.0947
     2 C(13)  Bbb    -0.0000    -0.000    -0.000    -0.000 -0.1072  0.0452  0.9932
              Bcc     0.0000     0.000     0.000     0.000  0.8483  0.5252  0.0677
 
              Baa    -0.0000    -0.000    -0.000    -0.000  0.7201  0.6839  0.1176
     3 C(13)  Bbb    -0.0000    -0.000    -0.000    -0.000 -0.4166  0.2905  0.8614
              Bcc     0.0000     0.000     0.000     0.000 -0.5549  0.6693 -0.4941
 
              Baa    -0.0000    -0.000    -0.000    -0.000 -0.0828  0.9965 -0.0076
     4 C(13)  Bbb     0.0000     0.000     0.000     0.000  0.0163  0.0090  0.9998
              Bcc     0.0000     0.000     0.000     0.000  0.9964  0.0827 -0.0169
 
              Baa    -0.0000    -0.000    -0.000    -0.000 -0.0450  0.9989 -0.0110
     5 C(13)  Bbb     0.0000     0.000     0.000     0.000  0.4070  0.0284  0.9130
              Bcc     0.0000     0.000     0.000     0.000  0.9123  0.0367 -0.4078
 
              Baa    -0.0000    -0.000    -0.000    -0.000 -0.2997  0.9357 -0.1863
     6 C(13)  Bbb    -0.0000    -0.000    -0.000    -0.000 -0.0187  0.1895  0.9817
              Bcc     0.0000     0.000     0.000     0.000  0.9539  0.2977 -0.0393
 
              Baa    -0.0000    -0.000    -0.000    -0.000  0.7082  0.6872  0.1620
     7 C(13)  Bbb    -0.0000    -0.000    -0.000    -0.000 -0.0845 -0.1453  0.9858
              Bcc     0.0000     0.000     0.000     0.000 -0.7009  0.7118  0.0448
 
              Baa    -0.0000     0.000     0.000     0.000  0.8786  0.4775  0.0102
     8 O(17)  Bbb     0.0000    -0.000    -0.000    -0.000 -0.4703  0.8686 -0.1559
              Bcc     0.0000    -0.000    -0.000    -0.000 -0.0833  0.1322  0.9877
 
              Baa    -0.0000    -0.000    -0.000    -0.000  0.7958  0.6054 -0.0105
     9 C(13)  Bbb    -0.0000    -0.000    -0.000    -0.000  0.0221 -0.0117  0.9997
              Bcc     0.0000     0.000     0.000     0.000 -0.6051  0.7958  0.0227
 
              Baa    -0.0000    -0.000    -0.000    -0.000 -0.0296  0.0008  0.9996
    10 C(13)  Bbb    -0.0000    -0.000    -0.000    -0.000  0.9971  0.0699  0.0294
              Bcc     0.0000     0.000     0.000     0.000 -0.0698  0.9976 -0.0028
 
              Baa    -0.0000    -0.000    -0.000    -0.000  0.0034  0.0001  1.0000
    11 Cl(35) Bbb    -0.0000    -0.000    -0.000    -0.000  0.9138  0.4061 -0.0032
              Bcc     0.0000     0.000     0.000     0.000 -0.4061  0.9138  0.0013
 
              Baa    -0.0000    -0.000    -0.000    -0.000  0.8132 -0.5807 -0.0393
    12 C(13)  Bbb     0.0000     0.000     0.000     0.000 -0.0028 -0.0715  0.9974
              Bcc     0.0000     0.000     0.000     0.000  0.5820  0.8110  0.0598
 
              Baa    -0.0000     0.000     0.000     0.000  0.9658  0.2589 -0.0102
    13 O(17)  Bbb     0.0000    -0.000    -0.000    -0.000 -0.0154  0.0965  0.9952
              Bcc     0.0000    -0.000    -0.000    -0.000 -0.2587  0.9611 -0.0972
 
              Baa    -0.0000    -0.000    -0.000    -0.000  0.0020 -0.0001  1.0000
    14 Cl(35) Bbb    -0.0000    -0.000    -0.000    -0.000  0.9054  0.4245 -0.0018
              Bcc     0.0000     0.000     0.000     0.000 -0.4245  0.9054  0.0010
 
              Baa    -0.0000    -0.000    -0.000    -0.000 -0.4991 -0.4130  0.7618
    15 H(1)   Bbb    -0.0000    -0.000    -0.000    -0.000 -0.4077  0.8877  0.2141
              Bcc     0.0000     0.000     0.000     0.000  0.7647  0.2037  0.6114
 
              Baa    -0.0000    -0.000    -0.000    -0.000 -0.5633  0.7115  0.4200
    16 H(1)   Bbb     0.0000     0.000     0.000     0.000  0.7876  0.3088  0.5332
              Bcc     0.0000     0.000     0.000     0.000 -0.2496 -0.6311  0.7344
 
              Baa    -0.0000    -0.000    -0.000    -0.000  0.2262  0.9099  0.3476
    17 H(1)   Bbb    -0.0000    -0.000    -0.000    -0.000  0.8597 -0.0187 -0.5105
              Bcc     0.0000     0.000     0.000     0.000  0.4580 -0.4143  0.7865
 
              Baa    -0.0000    -0.000    -0.000    -0.000  0.5014 -0.1274  0.8558
    18 H(1)   Bbb     0.0000     0.000     0.000     0.000 -0.2653  0.9188  0.2923
              Bcc     0.0000     0.000     0.000     0.000  0.8235  0.3736 -0.4269
 
              Baa    -0.0000    -0.000    -0.000    -0.000  0.7568 -0.4886  0.4341
    19 H(1)   Bbb    -0.0000    -0.000    -0.000    -0.000 -0.6074 -0.2804  0.7433
              Bcc     0.0000     0.000     0.000     0.000  0.2414  0.8262  0.5090
 
              Baa    -0.0000    -0.000    -0.000    -0.000  0.8975  0.2945  0.3284
    20 H(1)   Bbb     0.0000     0.000     0.000     0.000 -0.2358  0.9495 -0.2070
              Bcc     0.0000     0.000     0.000     0.000 -0.3728  0.1083  0.9216
 
              Baa    -0.0000    -0.000    -0.000    -0.000  0.9812 -0.1927 -0.0111
    21 H(1)   Bbb    -0.0000    -0.000    -0.000    -0.000  0.0144  0.0162  0.9998
              Bcc     0.0000     0.000     0.000     0.000  0.1925  0.9811 -0.0187
 
              Baa    -0.0000    -0.000    -0.000    -0.000  0.0348  0.2308  0.9724
    22 H(1)   Bbb     0.0000     0.000     0.000     0.000  0.9339 -0.3539  0.0506
              Bcc     0.0000     0.000     0.000     0.000  0.3558  0.9064 -0.2278
 
              Baa    -0.0000    -0.000    -0.000    -0.000 -0.0340 -0.2420  0.9697
    23 H(1)   Bbb     0.0000     0.000     0.000     0.000  0.7048 -0.6937 -0.1484
              Bcc     0.0000     0.000     0.000     0.000  0.7086  0.6783  0.1942
 
              Baa    -0.0000    -0.000    -0.000    -0.000  0.7591  0.6311  0.1596
    24 H(1)   Bbb    -0.0000    -0.000    -0.000    -0.000 -0.0263 -0.2152  0.9762
              Bcc     0.0000     0.000     0.000     0.000 -0.6505  0.7452  0.1467
 

 ---------------------------------------------------------------------------------

 No NMR shielding tensors so no spin-rotation constants.
 Leave Link  601 at Sun Jan 21 06:47:35 2024, MaxMem=  4026531840 cpu:               3.2 elap:               0.5
 (Enter /sysapps/ubuntu-applications/gaussian/Gaussian/AVX2/g16/l9999.exe)
 1\1\GINC-ACIDSCN028\SP\UB3LYP\6-311++G(d,p)\C10H10Cl2O2\SELHAJJ1\21-Ja
 n-2024\0\\#P UB3LYP/6-311++G(d,p) SCRF=(PCM,Solvent=n,n-DiMethylFormam
 ide)\\Quinone PCM in DMF\\0,1\C,0,-1.570402,-1.550652,-0.640725\C,0,-1
 .190776,-0.137961,-0.128998\C,0,-1.559595,0.001108,1.369726\C,0,-2.017
 23,0.89309,-0.92036\C,0,0.312178,0.096054,-0.317905\C,0,0.817046,1.080
 592,-1.081701\C,0,2.257743,1.333959,-1.28541\O,0,2.638296,2.245761,-1.
 992356\C,0,3.221554,0.426155,-0.588763\C,0,2.760533,-0.574041,0.186829
 \Cl,0,3.805907,-1.663081,1.023164\C,0,1.284516,-0.81676,0.382059\O,0,0
 .922844,-1.731879,1.09077\Cl,0,4.896453,0.742909,-0.842468\H,0,-1.0729
 42,-2.335148,-0.073064\H,0,-2.650757,-1.689723,-0.543922\H,0,-1.313205
 ,-1.664674,-1.697889\H,0,-1.061745,-0.749205,1.981525\H,0,-2.639814,-0
 .122362,1.487021\H,0,-1.294892,0.993637,1.746008\H,0,-3.079529,0.69458
 6,-0.761022\H,0,-1.830262,0.832598,-1.996075\H,0,-1.822257,1.917448,-0
 .59103\H,0,0.186334,1.777591,-1.617005\\Version=ES64L-G16RevA.03\State
 =1-A\HF=-1458.1047734\S2=0.\S2-1=0.\S2A=0.\RMSD=3.008e-09\Dipole=-1.39
 28104,0.0012455,0.0069514\Quadrupole=6.4676293,-4.886267,-1.5813622,-4
 .3336893,3.3333435,6.4334895\PG=C01 [X(C10H10Cl2O2)]\\@


 There ain't no surer way to find out whether you
 like people or hate them than to travel with them.
                                     -- Mark Twain
 Job cpu time:       0 days  0 hours 14 minutes 39.7 seconds.
 Elapsed time:       0 days  0 hours  1 minutes 51.0 seconds.
 File lengths (MBytes):  RWF=    217 Int=      0 D2E=      0 Chk=     13 Scr=      1
 Normal termination of Gaussian 16 at Sun Jan 21 06:47:35 2024.
