 Entering Gaussian System, Link 0=g16
 Input=106-rad.com
 Output=106-rad.log
 Initial command:
 /sysapps/ubuntu-applications/gaussian/Gaussian/AVX2/g16/l1.exe "/scratch/selhajj1/4221445/Gau-94441.inp" -scrdir="/scratch/selhajj1/4221445/"
 Entering Link 1 = /sysapps/ubuntu-applications/gaussian/Gaussian/AVX2/g16/l1.exe PID=     94443.
  
 Copyright (c) 1988,1990,1992,1993,1995,1998,2003,2009,2016,
            Gaussian, Inc.  All Rights Reserved.
  
 This is part of the Gaussian(R) 16 program.  It is based on
 the Gaussian(R) 09 system (copyright 2009, Gaussian, Inc.),
 the Gaussian(R) 03 system (copyright 2003, Gaussian, Inc.),
 the Gaussian(R) 98 system (copyright 1998, Gaussian, Inc.),
 the Gaussian(R) 94 system (copyright 1995, Gaussian, Inc.),
 the Gaussian 92(TM) system (copyright 1992, Gaussian, Inc.),
 the Gaussian 90(TM) system (copyright 1990, Gaussian, Inc.),
 the Gaussian 88(TM) system (copyright 1988, Gaussian, Inc.),
 the Gaussian 86(TM) system (copyright 1986, Carnegie Mellon
 University), and the Gaussian 82(TM) system (copyright 1983,
 Carnegie Mellon University). Gaussian is a federally registered
 trademark of Gaussian, Inc.
  
 This software contains proprietary and confidential information,
 including trade secrets, belonging to Gaussian, Inc.
  
 This software is provided under written license and may be
 used, copied, transmitted, or stored only in accord with that
 written license.
  
 The following legend is applicable only to US Government
 contracts under FAR:
  
                    RESTRICTED RIGHTS LEGEND
  
 Use, reproduction and disclosure by the US Government is
 subject to restrictions as set forth in subparagraphs (a)
 and (c) of the Commercial Computer Software - Restricted
 Rights clause in FAR 52.227-19.
  
 Gaussian, Inc.
 340 Quinnipiac St., Bldg. 40, Wallingford CT 06492
  
  
 ---------------------------------------------------------------
 Warning -- This program may not be used in any manner that
 competes with the business of Gaussian, Inc. or will provide
 assistance to any competitor of Gaussian, Inc.  The licensee
 of this program is prohibited from giving any competitor of
 Gaussian, Inc. access to this program.  By using this program,
 the user acknowledges that Gaussian, Inc. is engaged in the
 business of creating and licensing software in the field of
 computational chemistry and represents and warrants to the
 licensee that it is not a competitor of Gaussian, Inc. and that
 it will not use this program in any manner prohibited above.
 ---------------------------------------------------------------
  

 Cite this work as:
 Gaussian 16, Revision A.03,
 M. J. Frisch, G. W. Trucks, H. B. Schlegel, G. E. Scuseria, 
 M. A. Robb, J. R. Cheeseman, G. Scalmani, V. Barone, 
 G. A. Petersson, H. Nakatsuji, X. Li, M. Caricato, A. V. Marenich, 
 J. Bloino, B. G. Janesko, R. Gomperts, B. Mennucci, H. P. Hratchian, 
 J. V. Ortiz, A. F. Izmaylov, J. L. Sonnenberg, D. Williams-Young, 
 F. Ding, F. Lipparini, F. Egidi, J. Goings, B. Peng, A. Petrone, 
 T. Henderson, D. Ranasinghe, V. G. Zakrzewski, J. Gao, N. Rega, 
 G. Zheng, W. Liang, M. Hada, M. Ehara, K. Toyota, R. Fukuda, 
 J. Hasegawa, M. Ishida, T. Nakajima, Y. Honda, O. Kitao, H. Nakai, 
 T. Vreven, K. Throssell, J. A. Montgomery, Jr., J. E. Peralta, 
 F. Ogliaro, M. J. Bearpark, J. J. Heyd, E. N. Brothers, K. N. Kudin, 
 V. N. Staroverov, T. A. Keith, R. Kobayashi, J. Normand, 
 K. Raghavachari, A. P. Rendell, J. C. Burant, S. S. Iyengar, 
 J. Tomasi, M. Cossi, J. M. Millam, M. Klene, C. Adamo, R. Cammi, 
 J. W. Ochterski, R. L. Martin, K. Morokuma, O. Farkas, 
 J. B. Foresman, and D. J. Fox, Gaussian, Inc., Wallingford CT, 2016.
 
 ******************************************
 Gaussian 16:  ES64L-G16RevA.03 25-Dec-2016
                21-Dec-2023 
 ******************************************
 %chk=106-rad.chk
 %nproc=8
 Will use up to    8 processors via shared memory.
 %mem=30GB
 --------------------------------------
 #P UB3LYP/6-311++G(d,p) nosym opt freq
 --------------------------------------
 1/18=20,19=15,26=3,38=1/1,3;
 2/9=110,12=2,15=1,17=6,18=5,40=1/2;
 3/5=4,6=6,7=1111,11=2,25=1,30=1,71=1,74=-5,116=2/1,2,3;
 4//1;
 5/5=2,38=5/2;
 6/7=2,8=2,9=2,10=2,28=1/1;
 7/30=1/1,2,3,16;
 1/18=20,19=15,26=3/3(2);
 2/9=110,15=1/2;
 99//99;
 2/9=110,15=1/2;
 3/5=4,6=6,7=1111,11=2,25=1,30=1,71=1,74=-5,116=2/1,2,3;
 4/5=5,16=3,69=1/1;
 5/5=2,38=5/2;
 7/30=1/1,2,3,16;
 1/18=20,19=15,26=3/3(-5);
 2/9=110,15=1/2;
 6/7=2,8=2,9=2,10=2,19=2,28=1/1;
 99/9=1/99;
 Leave Link    1 at Thu Dec 21 01:08:30 2023, MaxMem=  4026531840 cpu:               0.4 elap:               0.1
 (Enter /sysapps/ubuntu-applications/gaussian/Gaussian/AVX2/g16/l101.exe)
 -------
 Radical
 -------
 Symbolic Z-matrix:
 Charge = -1 Multiplicity = 2
 C                    -0.75691  -1.70493   3.56733 
 C                     0.33232  -2.46424   2.86667 
 C                     0.42301  -2.32605   1.53382 
 C                    -0.48219  -1.48551   0.73682 
 C                    -1.56227  -0.78702   1.43835 
 C                    -1.73183  -0.86618   2.76099 
 O                    -0.88761  -1.73355   4.79098 
 O                    -0.33922  -1.37983  -0.4746 
 N                    -2.72046  -0.25463   3.52556 
 C                    -3.73011   0.75404   3.21743 
 C                    -4.45532   1.09567   4.53501 
 C                    -4.7687    0.20127   2.2338 
 C                    -3.07889   2.03399   2.68066 
 H                    -2.20937  -0.20529   0.7987 
 H                    -2.55255  -0.42066   4.5252 
 H                    -3.75645   1.49207   5.2812 
 H                    -4.92552   0.20589   4.9704 
 H                    -5.23802   1.84628   4.37757 
 H                    -5.19527  -0.74073   2.59778 
 H                    -4.34476   0.0051    1.24554 
 H                    -5.59306   0.90988   2.09322 
 H                    -2.30898   2.40393   3.36778 
 H                    -3.82215   2.82893   2.55068 
 H                    -2.60066   1.87889   1.70913 
 C                     1.27606  -3.34618   3.71102 
 C                     0.47873  -4.4328    4.4643 
 C                     2.32892  -4.09639   2.85342 
 C                     2.06846  -2.48538   4.71773 
 H                     1.1765   -2.82594   0.9368 
 H                    -0.19135  -4.01607   5.22177 
 H                     1.15112  -5.12211   4.989 
 H                    -0.12896  -5.02721   3.77195 
 H                     1.8539   -4.76252   2.1236 
 H                     2.97845  -4.71963   3.48021 
 H                     2.9807   -3.3998    2.31319 
 H                     1.42739  -2.02264   5.4736 
 H                     2.61375  -1.68302   4.20697 
 H                     2.80413  -3.09125   5.26017 
 
 ITRead=  0  0  0  0  0  0  0  0  0  0  0  0  0  0  0  0  0  0  0  0
 ITRead=  0  0  0  0  0  0  0  0  0  0  0  0  0  0  0  0  0  0
 MicOpt= -1 -1 -1 -1 -1 -1 -1 -1 -1 -1 -1 -1 -1 -1 -1 -1 -1 -1 -1 -1
 MicOpt= -1 -1 -1 -1 -1 -1 -1 -1 -1 -1 -1 -1 -1 -1 -1 -1 -1 -1
 NAtoms=     38 NQM=       38 NQMF=       0 NMMI=      0 NMMIF=      0
                NMic=       0 NMicF=      0.
                    Isotopes and Nuclear Properties:
 (Nuclear quadrupole moments (NQMom) in fm**2, nuclear magnetic moments (NMagM)
  in nuclear magnetons)

  Atom         1           2           3           4           5           6           7           8           9          10
 IAtWgt=          12          12          12          12          12          12          16          16          14          12
 AtmWgt=  12.0000000  12.0000000  12.0000000  12.0000000  12.0000000  12.0000000  15.9949146  15.9949146  14.0030740  12.0000000
 NucSpn=           0           0           0           0           0           0           0           0           2           0
 AtZEff=  -0.0000000  -0.0000000  -0.0000000  -0.0000000  -0.0000000  -0.0000000  -0.0000000  -0.0000000  -0.0000000  -0.0000000
 NQMom=    0.0000000   0.0000000   0.0000000   0.0000000   0.0000000   0.0000000   0.0000000   0.0000000   2.0440000   0.0000000
 NMagM=    0.0000000   0.0000000   0.0000000   0.0000000   0.0000000   0.0000000   0.0000000   0.0000000   0.4037610   0.0000000
 AtZNuc=   6.0000000   6.0000000   6.0000000   6.0000000   6.0000000   6.0000000   8.0000000   8.0000000   7.0000000   6.0000000

  Atom        11          12          13          14          15          16          17          18          19          20
 IAtWgt=          12          12          12           1           1           1           1           1           1           1
 AtmWgt=  12.0000000  12.0000000  12.0000000   1.0078250   1.0078250   1.0078250   1.0078250   1.0078250   1.0078250   1.0078250
 NucSpn=           0           0           0           1           1           1           1           1           1           1
 AtZEff=  -0.0000000  -0.0000000  -0.0000000  -0.0000000  -0.0000000  -0.0000000  -0.0000000  -0.0000000  -0.0000000  -0.0000000
 NQMom=    0.0000000   0.0000000   0.0000000   0.0000000   0.0000000   0.0000000   0.0000000   0.0000000   0.0000000   0.0000000
 NMagM=    0.0000000   0.0000000   0.0000000   2.7928460   2.7928460   2.7928460   2.7928460   2.7928460   2.7928460   2.7928460
 AtZNuc=   6.0000000   6.0000000   6.0000000   1.0000000   1.0000000   1.0000000   1.0000000   1.0000000   1.0000000   1.0000000

  Atom        21          22          23          24          25          26          27          28          29          30
 IAtWgt=           1           1           1           1          12          12          12          12           1           1
 AtmWgt=   1.0078250   1.0078250   1.0078250   1.0078250  12.0000000  12.0000000  12.0000000  12.0000000   1.0078250   1.0078250
 NucSpn=           1           1           1           1           0           0           0           0           1           1
 AtZEff=  -0.0000000  -0.0000000  -0.0000000  -0.0000000  -0.0000000  -0.0000000  -0.0000000  -0.0000000  -0.0000000  -0.0000000
 NQMom=    0.0000000   0.0000000   0.0000000   0.0000000   0.0000000   0.0000000   0.0000000   0.0000000   0.0000000   0.0000000
 NMagM=    2.7928460   2.7928460   2.7928460   2.7928460   0.0000000   0.0000000   0.0000000   0.0000000   2.7928460   2.7928460
 AtZNuc=   1.0000000   1.0000000   1.0000000   1.0000000   6.0000000   6.0000000   6.0000000   6.0000000   1.0000000   1.0000000

  Atom        31          32          33          34          35          36          37          38
 IAtWgt=           1           1           1           1           1           1           1           1
 AtmWgt=   1.0078250   1.0078250   1.0078250   1.0078250   1.0078250   1.0078250   1.0078250   1.0078250
 NucSpn=           1           1           1           1           1           1           1           1
 AtZEff=  -0.0000000  -0.0000000  -0.0000000  -0.0000000  -0.0000000  -0.0000000  -0.0000000  -0.0000000
 NQMom=    0.0000000   0.0000000   0.0000000   0.0000000   0.0000000   0.0000000   0.0000000   0.0000000
 NMagM=    2.7928460   2.7928460   2.7928460   2.7928460   2.7928460   2.7928460   2.7928460   2.7928460
 AtZNuc=   1.0000000   1.0000000   1.0000000   1.0000000   1.0000000   1.0000000   1.0000000   1.0000000
 Leave Link  101 at Thu Dec 21 01:08:31 2023, MaxMem=  4026531840 cpu:               3.2 elap:               0.5
 (Enter /sysapps/ubuntu-applications/gaussian/Gaussian/AVX2/g16/l103.exe)

 GradGradGradGradGradGradGradGradGradGradGradGradGradGradGradGradGradGrad
 Berny optimization.
 Initialization pass.
                           ----------------------------
                           !    Initial Parameters    !
                           ! (Angstroms and Degrees)  !
 --------------------------                            --------------------------
 ! Name  Definition              Value          Derivative Info.                !
 --------------------------------------------------------------------------------
 ! R1    R(1,2)                  1.5013         estimate D2E/DX2                !
 ! R2    R(1,6)                  1.5179         estimate D2E/DX2                !
 ! R3    R(1,7)                  1.2309         estimate D2E/DX2                !
 ! R4    R(2,3)                  1.3431         estimate D2E/DX2                !
 ! R5    R(2,25)                 1.5432         estimate D2E/DX2                !
 ! R6    R(3,4)                  1.4701         estimate D2E/DX2                !
 ! R7    R(3,29)                 1.0835         estimate D2E/DX2                !
 ! R8    R(4,5)                  1.4651         estimate D2E/DX2                !
 ! R9    R(4,8)                  1.2244         estimate D2E/DX2                !
 ! R10   R(5,6)                  1.3358         estimate D2E/DX2                !
 ! R11   R(5,14)                 1.08           estimate D2E/DX2                !
 ! R12   R(6,9)                  1.3914         estimate D2E/DX2                !
 ! R13   R(9,10)                 1.4601         estimate D2E/DX2                !
 ! R14   R(9,15)                 1.0272         estimate D2E/DX2                !
 ! R15   R(10,11)                1.5423         estimate D2E/DX2                !
 ! R16   R(10,12)                1.5335         estimate D2E/DX2                !
 ! R17   R(10,13)                1.5331         estimate D2E/DX2                !
 ! R18   R(11,16)                1.0965         estimate D2E/DX2                !
 ! R19   R(11,17)                1.0965         estimate D2E/DX2                !
 ! R20   R(11,18)                1.0958         estimate D2E/DX2                !
 ! R21   R(12,19)                1.0963         estimate D2E/DX2                !
 ! R22   R(12,20)                1.0931         estimate D2E/DX2                !
 ! R23   R(12,21)                1.0961         estimate D2E/DX2                !
 ! R24   R(13,22)                1.0962         estimate D2E/DX2                !
 ! R25   R(13,23)                1.096          estimate D2E/DX2                !
 ! R26   R(13,24)                1.0939         estimate D2E/DX2                !
 ! R27   R(25,26)                1.544          estimate D2E/DX2                !
 ! R28   R(25,27)                1.5514         estimate D2E/DX2                !
 ! R29   R(25,28)                1.5435         estimate D2E/DX2                !
 ! R30   R(26,30)                1.0938         estimate D2E/DX2                !
 ! R31   R(26,31)                1.0966         estimate D2E/DX2                !
 ! R32   R(26,32)                1.0963         estimate D2E/DX2                !
 ! R33   R(27,33)                1.0964         estimate D2E/DX2                !
 ! R34   R(27,34)                1.0969         estimate D2E/DX2                !
 ! R35   R(27,35)                1.0963         estimate D2E/DX2                !
 ! R36   R(28,36)                1.0938         estimate D2E/DX2                !
 ! R37   R(28,37)                1.0964         estimate D2E/DX2                !
 ! R38   R(28,38)                1.0966         estimate D2E/DX2                !
 ! A1    A(2,1,6)              119.8367         estimate D2E/DX2                !
 ! A2    A(2,1,7)              121.9523         estimate D2E/DX2                !
 ! A3    A(6,1,7)              118.2104         estimate D2E/DX2                !
 ! A4    A(1,2,3)              117.394          estimate D2E/DX2                !
 ! A5    A(1,2,25)             118.5154         estimate D2E/DX2                !
 ! A6    A(3,2,25)             124.0904         estimate D2E/DX2                !
 ! A7    A(2,3,4)              123.7301         estimate D2E/DX2                !
 ! A8    A(2,3,29)             123.1126         estimate D2E/DX2                !
 ! A9    A(4,3,29)             113.1572         estimate D2E/DX2                !
 ! A10   A(3,4,5)              117.8347         estimate D2E/DX2                !
 ! A11   A(3,4,8)              120.921          estimate D2E/DX2                !
 ! A12   A(5,4,8)              121.2434         estimate D2E/DX2                !
 ! A13   A(4,5,6)              122.6441         estimate D2E/DX2                !
 ! A14   A(4,5,14)             114.5144         estimate D2E/DX2                !
 ! A15   A(6,5,14)             122.8415         estimate D2E/DX2                !
 ! A16   A(1,6,5)              118.5018         estimate D2E/DX2                !
 ! A17   A(1,6,9)              114.0363         estimate D2E/DX2                !
 ! A18   A(5,6,9)              127.4616         estimate D2E/DX2                !
 ! A19   A(6,9,10)             132.7675         estimate D2E/DX2                !
 ! A20   A(6,9,15)             110.3398         estimate D2E/DX2                !
 ! A21   A(10,9,15)            115.4739         estimate D2E/DX2                !
 ! A22   A(9,10,11)            107.3314         estimate D2E/DX2                !
 ! A23   A(9,10,12)            110.7735         estimate D2E/DX2                !
 ! A24   A(9,10,13)            110.9109         estimate D2E/DX2                !
 ! A25   A(11,10,12)           108.0199         estimate D2E/DX2                !
 ! A26   A(11,10,13)           108.2948         estimate D2E/DX2                !
 ! A27   A(12,10,13)           111.3481         estimate D2E/DX2                !
 ! A28   A(10,11,16)           111.2072         estimate D2E/DX2                !
 ! A29   A(10,11,17)           111.1679         estimate D2E/DX2                !
 ! A30   A(10,11,18)           111.398          estimate D2E/DX2                !
 ! A31   A(16,11,17)           107.2443         estimate D2E/DX2                !
 ! A32   A(16,11,18)           107.7812         estimate D2E/DX2                !
 ! A33   A(17,11,18)           107.8541         estimate D2E/DX2                !
 ! A34   A(10,12,19)           111.1183         estimate D2E/DX2                !
 ! A35   A(10,12,20)           112.4527         estimate D2E/DX2                !
 ! A36   A(10,12,21)           111.0131         estimate D2E/DX2                !
 ! A37   A(19,12,20)           107.27           estimate D2E/DX2                !
 ! A38   A(19,12,21)           107.7849         estimate D2E/DX2                !
 ! A39   A(20,12,21)           106.9625         estimate D2E/DX2                !
 ! A40   A(10,13,22)           111.1373         estimate D2E/DX2                !
 ! A41   A(10,13,23)           111.0383         estimate D2E/DX2                !
 ! A42   A(10,13,24)           112.2267         estimate D2E/DX2                !
 ! A43   A(22,13,23)           107.809          estimate D2E/DX2                !
 ! A44   A(22,13,24)           107.3067         estimate D2E/DX2                !
 ! A45   A(23,13,24)           107.0964         estimate D2E/DX2                !
 ! A46   A(2,25,26)            110.6919         estimate D2E/DX2                !
 ! A47   A(2,25,27)            112.8887         estimate D2E/DX2                !
 ! A48   A(2,25,28)            110.616          estimate D2E/DX2                !
 ! A49   A(26,25,27)           106.2503         estimate D2E/DX2                !
 ! A50   A(26,25,28)           109.8403         estimate D2E/DX2                !
 ! A51   A(27,25,28)           106.3693         estimate D2E/DX2                !
 ! A52   A(25,26,30)           112.7111         estimate D2E/DX2                !
 ! A53   A(25,26,31)           111.0497         estimate D2E/DX2                !
 ! A54   A(25,26,32)           111.0824         estimate D2E/DX2                !
 ! A55   A(30,26,31)           106.4846         estimate D2E/DX2                !
 ! A56   A(30,26,32)           107.7174         estimate D2E/DX2                !
 ! A57   A(31,26,32)           107.531          estimate D2E/DX2                !
 ! A58   A(25,27,33)           111.577          estimate D2E/DX2                !
 ! A59   A(25,27,34)           111.1461         estimate D2E/DX2                !
 ! A60   A(25,27,35)           111.6303         estimate D2E/DX2                !
 ! A61   A(33,27,34)           106.9611         estimate D2E/DX2                !
 ! A62   A(33,27,35)           108.398          estimate D2E/DX2                !
 ! A63   A(34,27,35)           106.8911         estimate D2E/DX2                !
 ! A64   A(25,28,36)           112.6913         estimate D2E/DX2                !
 ! A65   A(25,28,37)           111.0776         estimate D2E/DX2                !
 ! A66   A(25,28,38)           111.0335         estimate D2E/DX2                !
 ! A67   A(36,28,37)           107.6876         estimate D2E/DX2                !
 ! A68   A(36,28,38)           106.5643         estimate D2E/DX2                !
 ! A69   A(37,28,38)           107.525          estimate D2E/DX2                !
 ! D1    D(6,1,2,3)              2.275          estimate D2E/DX2                !
 ! D2    D(6,1,2,25)          -177.8992         estimate D2E/DX2                !
 ! D3    D(7,1,2,3)           -177.4317         estimate D2E/DX2                !
 ! D4    D(7,1,2,25)             2.3942         estimate D2E/DX2                !
 ! D5    D(2,1,6,5)             -2.4157         estimate D2E/DX2                !
 ! D6    D(2,1,6,9)            177.7432         estimate D2E/DX2                !
 ! D7    D(7,1,6,5)            177.3018         estimate D2E/DX2                !
 ! D8    D(7,1,6,9)             -2.5392         estimate D2E/DX2                !
 ! D9    D(1,2,3,4)             -0.307          estimate D2E/DX2                !
 ! D10   D(1,2,3,29)           179.6269         estimate D2E/DX2                !
 ! D11   D(25,2,3,4)           179.8778         estimate D2E/DX2                !
 ! D12   D(25,2,3,29)           -0.1883         estimate D2E/DX2                !
 ! D13   D(1,2,25,26)           59.6698         estimate D2E/DX2                !
 ! D14   D(1,2,25,27)          178.6272         estimate D2E/DX2                !
 ! D15   D(1,2,25,28)          -62.3165         estimate D2E/DX2                !
 ! D16   D(3,2,25,26)         -120.5169         estimate D2E/DX2                !
 ! D17   D(3,2,25,27)           -1.5595         estimate D2E/DX2                !
 ! D18   D(3,2,25,28)          117.4967         estimate D2E/DX2                !
 ! D19   D(2,3,4,5)             -1.5253         estimate D2E/DX2                !
 ! D20   D(2,3,4,8)            178.8145         estimate D2E/DX2                !
 ! D21   D(29,3,4,5)           178.5349         estimate D2E/DX2                !
 ! D22   D(29,3,4,8)            -1.1253         estimate D2E/DX2                !
 ! D23   D(3,4,5,6)              1.3829         estimate D2E/DX2                !
 ! D24   D(3,4,5,14)          -178.5333         estimate D2E/DX2                !
 ! D25   D(8,4,5,6)           -178.9581         estimate D2E/DX2                !
 ! D26   D(8,4,5,14)             1.1258         estimate D2E/DX2                !
 ! D27   D(4,5,6,1)              0.5429         estimate D2E/DX2                !
 ! D28   D(4,5,6,9)           -179.64           estimate D2E/DX2                !
 ! D29   D(14,5,6,1)          -179.5479         estimate D2E/DX2                !
 ! D30   D(14,5,6,9)             0.2692         estimate D2E/DX2                !
 ! D31   D(1,6,9,10)           170.5684         estimate D2E/DX2                !
 ! D32   D(1,6,9,15)             5.1663         estimate D2E/DX2                !
 ! D33   D(5,6,9,10)            -9.2556         estimate D2E/DX2                !
 ! D34   D(5,6,9,15)          -174.6578         estimate D2E/DX2                !
 ! D35   D(6,9,10,11)         -175.5017         estimate D2E/DX2                !
 ! D36   D(6,9,10,12)           66.7899         estimate D2E/DX2                !
 ! D37   D(6,9,10,13)          -57.3859         estimate D2E/DX2                !
 ! D38   D(15,9,10,11)         -10.6767         estimate D2E/DX2                !
 ! D39   D(15,9,10,12)        -128.385          estimate D2E/DX2                !
 ! D40   D(15,9,10,13)         107.4392         estimate D2E/DX2                !
 ! D41   D(9,10,11,16)          60.1934         estimate D2E/DX2                !
 ! D42   D(9,10,11,17)         -59.2288         estimate D2E/DX2                !
 ! D43   D(9,10,11,18)        -179.5506         estimate D2E/DX2                !
 ! D44   D(12,10,11,16)        179.6803         estimate D2E/DX2                !
 ! D45   D(12,10,11,17)         60.2581         estimate D2E/DX2                !
 ! D46   D(12,10,11,18)        -60.0637         estimate D2E/DX2                !
 ! D47   D(13,10,11,16)        -59.6065         estimate D2E/DX2                !
 ! D48   D(13,10,11,17)       -179.0286         estimate D2E/DX2                !
 ! D49   D(13,10,11,18)         60.6496         estimate D2E/DX2                !
 ! D50   D(9,10,12,19)          53.2047         estimate D2E/DX2                !
 ! D51   D(9,10,12,20)         -67.0579         estimate D2E/DX2                !
 ! D52   D(9,10,12,21)         173.1468         estimate D2E/DX2                !
 ! D53   D(11,10,12,19)        -64.0821         estimate D2E/DX2                !
 ! D54   D(11,10,12,20)        175.6553         estimate D2E/DX2                !
 ! D55   D(11,10,12,21)         55.8599         estimate D2E/DX2                !
 ! D56   D(13,10,12,19)        177.1305         estimate D2E/DX2                !
 ! D57   D(13,10,12,20)         56.8679         estimate D2E/DX2                !
 ! D58   D(13,10,12,21)        -62.9275         estimate D2E/DX2                !
 ! D59   D(9,10,13,22)         -53.8874         estimate D2E/DX2                !
 ! D60   D(9,10,13,23)        -173.8894         estimate D2E/DX2                !
 ! D61   D(9,10,13,24)          66.2802         estimate D2E/DX2                !
 ! D62   D(11,10,13,22)         63.6419         estimate D2E/DX2                !
 ! D63   D(11,10,13,23)        -56.3601         estimate D2E/DX2                !
 ! D64   D(11,10,13,24)       -176.1904         estimate D2E/DX2                !
 ! D65   D(12,10,13,22)       -177.7353         estimate D2E/DX2                !
 ! D66   D(12,10,13,23)         62.2627         estimate D2E/DX2                !
 ! D67   D(12,10,13,24)        -57.5677         estimate D2E/DX2                !
 ! D68   D(2,25,26,30)         -66.0797         estimate D2E/DX2                !
 ! D69   D(2,25,26,31)         174.5349         estimate D2E/DX2                !
 ! D70   D(2,25,26,32)          54.9124         estimate D2E/DX2                !
 ! D71   D(27,25,26,30)        171.0215         estimate D2E/DX2                !
 ! D72   D(27,25,26,31)         51.6361         estimate D2E/DX2                !
 ! D73   D(27,25,26,32)        -67.9864         estimate D2E/DX2                !
 ! D74   D(28,25,26,30)         56.3603         estimate D2E/DX2                !
 ! D75   D(28,25,26,31)        -63.0251         estimate D2E/DX2                !
 ! D76   D(28,25,26,32)        177.3524         estimate D2E/DX2                !
 ! D77   D(2,25,27,33)         -60.2595         estimate D2E/DX2                !
 ! D78   D(2,25,27,34)        -179.5552         estimate D2E/DX2                !
 ! D79   D(2,25,27,35)          61.2021         estimate D2E/DX2                !
 ! D80   D(26,25,27,33)         61.2447         estimate D2E/DX2                !
 ! D81   D(26,25,27,34)        -58.051          estimate D2E/DX2                !
 ! D82   D(26,25,27,35)       -177.2936         estimate D2E/DX2                !
 ! D83   D(28,25,27,33)        178.2503         estimate D2E/DX2                !
 ! D84   D(28,25,27,34)         58.9546         estimate D2E/DX2                !
 ! D85   D(28,25,27,35)        -60.2881         estimate D2E/DX2                !
 ! D86   D(2,25,28,36)          65.512          estimate D2E/DX2                !
 ! D87   D(2,25,28,37)         -55.4243         estimate D2E/DX2                !
 ! D88   D(2,25,28,38)        -175.0254         estimate D2E/DX2                !
 ! D89   D(26,25,28,36)        -56.973          estimate D2E/DX2                !
 ! D90   D(26,25,28,37)       -177.9093         estimate D2E/DX2                !
 ! D91   D(26,25,28,38)         62.4896         estimate D2E/DX2                !
 ! D92   D(27,25,28,36)       -171.5582         estimate D2E/DX2                !
 ! D93   D(27,25,28,37)         67.5055         estimate D2E/DX2                !
 ! D94   D(27,25,28,38)        -52.0956         estimate D2E/DX2                !
 --------------------------------------------------------------------------------
 Trust Radius=3.00D-01 FncErr=1.00D-07 GrdErr=1.00D-06 EigMax=2.50D+02 EigMin=1.00D-04
 Number of steps in this run=    211 maximum allowed number of steps=    228.
 GradGradGradGradGradGradGradGradGradGradGradGradGradGradGradGradGradGrad

 Leave Link  103 at Thu Dec 21 01:08:31 2023, MaxMem=  4026531840 cpu:               0.3 elap:               0.1
 (Enter /sysapps/ubuntu-applications/gaussian/Gaussian/AVX2/g16/l202.exe)
                          Input orientation:                          
 ---------------------------------------------------------------------
 Center     Atomic      Atomic             Coordinates (Angstroms)
 Number     Number       Type             X           Y           Z
 ---------------------------------------------------------------------
      1          6           0       -0.756910   -1.704930    3.567330
      2          6           0        0.332320   -2.464240    2.866670
      3          6           0        0.423010   -2.326050    1.533820
      4          6           0       -0.482190   -1.485510    0.736820
      5          6           0       -1.562270   -0.787020    1.438350
      6          6           0       -1.731830   -0.866180    2.760990
      7          8           0       -0.887610   -1.733550    4.790980
      8          8           0       -0.339220   -1.379830   -0.474600
      9          7           0       -2.720460   -0.254630    3.525560
     10          6           0       -3.730110    0.754040    3.217430
     11          6           0       -4.455320    1.095670    4.535010
     12          6           0       -4.768700    0.201270    2.233800
     13          6           0       -3.078890    2.033990    2.680660
     14          1           0       -2.209370   -0.205290    0.798700
     15          1           0       -2.552550   -0.420660    4.525200
     16          1           0       -3.756450    1.492070    5.281200
     17          1           0       -4.925520    0.205890    4.970400
     18          1           0       -5.238020    1.846280    4.377570
     19          1           0       -5.195270   -0.740730    2.597780
     20          1           0       -4.344760    0.005100    1.245540
     21          1           0       -5.593060    0.909880    2.093220
     22          1           0       -2.308980    2.403930    3.367780
     23          1           0       -3.822150    2.828930    2.550680
     24          1           0       -2.600660    1.878890    1.709130
     25          6           0        1.276060   -3.346180    3.711020
     26          6           0        0.478730   -4.432800    4.464300
     27          6           0        2.328920   -4.096390    2.853420
     28          6           0        2.068460   -2.485380    4.717730
     29          1           0        1.176500   -2.825940    0.936800
     30          1           0       -0.191350   -4.016070    5.221770
     31          1           0        1.151120   -5.122110    4.989000
     32          1           0       -0.128960   -5.027210    3.771950
     33          1           0        1.853900   -4.762520    2.123600
     34          1           0        2.978450   -4.719630    3.480210
     35          1           0        2.980700   -3.399800    2.313190
     36          1           0        1.427390   -2.022640    5.473600
     37          1           0        2.613750   -1.683020    4.206970
     38          1           0        2.804130   -3.091250    5.260170
 ---------------------------------------------------------------------
                    Distance matrix (angstroms):
                    1          2          3          4          5
     1  C    0.000000
     2  C    1.501299   0.000000
     3  C    2.431700   1.343060   0.000000
     4  C    2.852263   2.481451   1.470069   0.000000
     5  C    2.454327   2.905621   2.513775   1.465130   0.000000
     6  C    1.517944   2.612600   2.877586   2.458136   1.335812
     7  O    1.230943   2.392719   3.560600   4.081924   3.548410
     8  O    4.076439   3.576450   2.347355   1.224397   2.346626
     9  N    2.441443   3.825700   4.259015   3.781797   2.445667
    10  C    3.874130   5.194583   5.437822   4.660257   3.199925
    11  C    4.738987   6.194983   6.671837   6.072438   4.637193
    12  C    4.637495   5.790153   5.816457   4.843588   3.448282
    13  C    4.489688   5.648453   5.708633   4.786256   3.435341
    14  H    3.467546   3.979892   3.459400   2.150801   1.079954
    15  H    2.406489   3.905050   4.629560   4.446585   3.262440
    16  H    4.706952   6.180646   6.788872   6.343355   4.977567
    17  H    4.795534   6.261003   6.843068   6.366099   4.977218
    18  H    5.774767   7.203616   7.585678   6.853744   5.392997
    19  H    4.644217   5.796295   5.933828   5.121620   3.813805
    20  H    4.602997   5.531797   5.314978   4.171350   2.899462
    21  H    5.691975   6.862437   6.853997   5.805059   4.422171
    22  H    4.396757   5.561174   5.761935   5.038537   3.802951
    23  H    5.566432   6.736254   6.754939   5.749766   4.406748
    24  H    4.438027   5.367034   5.182165   4.092980   2.873787
    25  C    2.616738   1.543175   2.551188   3.924207   4.446397
    26  C    3.126122   2.539505   3.609600   4.848092   5.158853
    27  C    3.968765   2.578856   2.916837   4.381670   5.300539
    28  C    3.148847   2.537923   3.587503   4.832515   5.178896
    29  H    3.451728   2.137256   1.083545   2.141961   3.451030
    30  H    2.897999   2.868606   4.102997   5.157819   5.159501
    31  H    4.163994   3.498427   4.504039   5.828687   6.225962
    32  H    3.387290   2.757014   3.551079   4.677652   5.047700
    33  H    4.271948   2.854724   2.886464   4.256674   5.286245
    34  H    4.800929   3.530612   4.005987   5.473733   6.344506
    35  H    4.291291   2.862783   2.881343   4.259232   5.313242
    36  H    2.916500   2.861865   4.077095   5.135376   5.171853
    37  H    3.430884   2.758919   3.515474   4.654653   5.089913
    38  H    4.179545   3.497403   4.487867   5.817129   6.243495
                    6          7          8          9         10
     6  C    0.000000
     7  O    2.363450   0.000000
     8  O    3.559809   5.305863   0.000000
     9  N    1.391384   2.673543   4.789328   0.000000
    10  C    2.612771   4.091940   5.448176   1.460052   0.000000
    11  C    3.796498   4.560544   6.940214   2.419099   1.542290
    12  C    3.261895   5.034437   5.427301   2.464097   1.533542
    13  C    3.198751   4.842470   5.395890   2.465788   1.533128
    14  H    2.124948   4.474475   2.549176   2.774782   3.013838
    15  H    1.996123   2.136901   5.551291   1.027151   2.115852
    16  H    4.001486   4.344558   7.283852   2.684494   2.191924
    17  H    4.028707   4.483117   7.293605   2.676178   2.191433
    18  H    4.718489   5.649085   7.612462   3.387898   2.193788
    19  H    3.469552   4.934749   5.781798   2.687332   2.182887
    20  H    3.143743   5.248327   4.573977   2.811459   2.197056
    21  H    4.302256   6.033812   6.280072   3.414603   2.181448
    22  H    3.375636   4.600493   5.741139   2.694838   2.182740
    23  H    4.250589   5.869131   6.244740   3.416497   2.181329
    24  H    3.065401   5.047976   4.527918   2.804582   2.194519
    25  C    4.012525   2.906606   4.898477   5.056110   6.489775
    26  C    4.528644   3.042952   5.863651   5.345386   6.795022
    27  C    5.189652   4.436577   5.057112   6.380214   7.769879
    28  C    4.570869   3.051059   5.829190   5.415835   6.809417
    29  H    3.953064   4.506503   2.526003   5.338503   6.487862
    30  H    4.283728   2.424924   6.278555   4.839624   6.268505
    31  H    5.602532   3.959542   6.787982   6.389300   7.841811
    32  H    4.572243   3.530180   5.601855   5.436368   6.833639
    33  H    5.333403   4.879083   4.796145   6.573533   7.925280
    34  H    6.128058   5.057787   6.148310   7.239880   8.662268
    35  H    5.369143   4.886681   4.782669   6.623078   7.943992
    36  H    4.321611   2.430796   6.238205   4.911759   6.276947
    37  H    4.652113   3.550091   5.543379   5.564029   6.867533
    38  H    5.636645   3.961368   6.759970   6.447975   7.852091
                   11         12         13         14         15
    11  C    0.000000
    12  C    2.488720   0.000000
    13  C    2.492713   2.532588   0.000000
    14  H    4.549374   2.962258   3.051592   0.000000
    15  H    2.433082   3.247866   3.115232   3.748461   0.000000
    16  H    1.096518   3.460847   2.741455   5.036595   2.383159
    17  H    1.096522   2.741093   3.463366   4.994960   2.494345
    18  H    1.095820   2.742639   2.752559   5.117614   3.517465
    19  H    2.769973   1.096270   3.490703   3.526894   3.286543
    20  H    3.467301   1.093099   2.788977   2.191762   3.761577
    21  H    2.700242   1.096111   2.815983   3.790613   4.114555
    22  H    2.771416   3.491109   1.096244   3.663076   3.062231
    23  H    2.709734   2.810866   1.096020   3.857069   4.008796
    24  H    3.469697   2.791072   1.093906   2.307769   3.636000
    25  C    7.297788   7.162800   6.998104   5.522230   4.886697
    26  C    7.410387   7.347466   7.593247   6.207604   5.028880
    27  C    8.706960   8.320458   8.176540   6.321282   6.335187
    28  C    7.444260   7.754660   7.146298   6.233573   5.064965
    29  H    7.748776   6.796441   6.690913   4.283806   5.706821
    30  H    6.692008   6.904061   7.169264   6.177216   4.357459
    31  H    8.384454   8.424593   8.627351   7.281938   6.002992
    32  H    7.535868   7.157520   7.730042   6.034835   5.259418
    33  H    8.940892   8.277088   8.416370   6.247709   6.635980
    34  H    9.496908   9.262134   9.107252   7.381276   7.082733
    35  H    8.968842   8.545596   8.147376   6.279761   6.662216
    36  H    6.723919   7.337139   6.675576   6.195440   4.393828
    37  H    7.602663   7.870484   6.967922   6.087896   5.327802
    38  H    8.411645   8.794735   8.217778   7.305386   6.030444
                   16         17         18         19         20
    16  H    0.000000
    17  H    1.765667   0.000000
    18  H    1.771175   1.772000   0.000000
    19  H    3.775757   2.568692   3.140398   0.000000
    20  H    4.340938   3.775206   3.741319   1.763004   0.000000
    21  H    3.724956   3.036343   2.494224   1.771251   1.759387
    22  H    2.566678   3.774394   3.148003   4.337333   3.795087
    23  H    3.040929   3.735346   2.511537   3.824938   3.154446
    24  H    3.774277   4.340482   3.751973   3.792639   2.601517
    25  C    7.155437   7.256916   8.356983   7.064403   6.993088
    26  C    7.328585   7.139993   8.492090   7.022076   7.302152
    27  C    8.611430   8.695868   9.741506   8.242526   7.996593
    28  C    7.075817   7.498169   8.500802   7.765292   7.706360
    29  H    7.864669   7.918117   8.649544   6.906983   6.212441
    30  H    6.561484   6.348267   7.781304   6.530880   7.016483
    31  H    8.241177   8.081676   9.473828   8.074100   8.396813
    32  H    7.611671   7.199209   8.585694   6.739442   7.034192
    33  H    8.975877   8.874114   9.952484   8.129603   7.869217
    34  H    9.337433   9.431551  10.555890   9.133456   8.997012
    35  H    8.839042   9.086808   9.966463   8.602217   8.148349
    36  H    6.265972   6.751224   7.784441   7.333025   7.436796
    37  H    7.198237   7.809699   8.610189   8.028586   7.748592
    38  H    8.003029   8.408483   9.478099   8.752352   8.764204
                   21         22         23         24         25
    21  H    0.000000
    22  H    3.826470   0.000000
    23  H    2.651065   1.771429   0.000000
    24  H    3.168748   1.764048   1.761482   0.000000
    25  C    8.241125   6.784843   8.091361   6.807193   0.000000
    26  C    8.428101   7.464219   8.654030   7.543940   1.543991
    27  C    9.402043   8.001802   9.267544   7.830334   1.551389
    28  C    8.781499   6.699977   8.224189   7.063937   1.543483
    29  H    7.817967   6.738678   7.718074   6.082669   2.824333
    30  H    7.951810   7.009853   8.195819   7.272824   2.210070
    31  H    9.500232   8.440493   9.690091   8.593451   2.191522
    32  H    8.241575   7.754849   8.766418   7.619629   2.191724
    33  H    9.361317   8.380666   9.488417   8.007697   2.204500
    34  H   10.348232   8.872128  10.202595   8.820638   2.199493
    35  H    9.598494   7.923141   9.226714   7.705909   2.205131
    36  H    8.325465   6.163559   7.722620   6.754136   2.209377
    37  H    8.862438   6.452958   8.032546   6.790912   2.191228
    38  H    9.826058   7.740933   9.289642   8.156220   2.190857
                   26         27         28         29         30
    26  C    0.000000
    27  C    2.476148   0.000000
    28  C    2.526641   2.477669   0.000000
    29  H    3.938545   2.572071   3.899616   0.000000
    30  H    1.093815   3.459378   2.775574   4.652783   0.000000
    31  H    1.096616   2.645754   2.804897   4.657614   1.754917
    32  H    1.096339   2.784115   3.490566   3.819410   1.768693
    33  H    2.734718   1.096362   3.458455   2.370170   3.786673
    34  H    2.701723   1.096897   2.711348   3.647193   3.684516
    35  H    3.457487   1.096313   2.729498   2.340706   4.347589
    36  H    2.779841   3.461003   1.093818   4.614195   2.580213
    37  H    3.490819   2.781651   1.096357   3.750462   3.787021
    38  H    2.800116   2.651146   1.096599   4.627213   3.135230
                   31         32         33         34         35
    31  H    0.000000
    32  H    1.768848   0.000000
    33  H    2.972158   2.592075   0.000000
    34  H    2.403658   3.136194   1.762624   0.000000
    35  H    3.670650   3.800846   1.778378   1.761787   0.000000
    36  H    3.149266   3.787516   4.348719   3.695016   3.781208
    37  H    3.818141   4.346873   3.794881   3.143595   2.582322
    38  H    2.632559   3.816511   3.678879   2.418732   2.968345
                   36         37         38
    36  H    0.000000
    37  H    1.768373   0.000000
    38  H    1.755817   1.768781   0.000000
 Symmetry turned off by external request.
 Stoichiometry    C14H21NO2(1-,2)
 Framework group  C1[X(C14H21NO2)]
 Deg. of freedom   108
 Full point group                 C1      NOp   1
 Rotational constants (GHZ):           0.7885952           0.2745762           0.2240351
 Leave Link  202 at Thu Dec 21 01:08:31 2023, MaxMem=  4026531840 cpu:               0.3 elap:               0.1
 (Enter /sysapps/ubuntu-applications/gaussian/Gaussian/AVX2/g16/l301.exe)
 Standard basis: 6-311++G(d,p) (5D, 7F)
 Ernie: Thresh=  0.10000D-02 Tol=  0.10000D-05 Strict=F.
   521 basis functions,   801 primitive gaussians,   538 cartesian basis functions
    65 alpha electrons       64 beta electrons
       nuclear repulsion energy      1244.7247800564 Hartrees.
 IExCor=  402 DFT=T Ex+Corr=B3LYP ExCW=0 ScaHFX=  0.200000
 ScaDFX=  0.800000  0.720000  1.000000  0.810000 ScalE2=  1.000000  1.000000
 IRadAn=      5 IRanWt=     -1 IRanGd=            0 ICorTp=0 IEmpDi=  4
 NAtoms=   38 NActive=   38 NUniq=   38 SFac= 1.00D+00 NAtFMM=   60 NAOKFM=F Big=F
 Integral buffers will be    131072 words long.
 Raffenetti 2 integral format.
 Two-electron integral symmetry is turned off.
 Leave Link  301 at Thu Dec 21 01:08:31 2023, MaxMem=  4026531840 cpu:               0.3 elap:               0.1
 (Enter /sysapps/ubuntu-applications/gaussian/Gaussian/AVX2/g16/l302.exe)
 NPDir=0 NMtPBC=     1 NCelOv=     1 NCel=       1 NClECP=     1 NCelD=      1
         NCelK=      1 NCelE2=     1 NClLst=     1 CellRange=     0.0.
 One-electron integrals computed using PRISM.
 NBasis=   521 RedAO= T EigKep=  2.21D-06  NBF=   521
 NBsUse=   517 1.00D-06 EigRej=  9.09D-07 NBFU=   517
 Precomputing XC quadrature grid using
 IXCGrd= 4 IRadAn=           5 IRanWt=          -1 IRanGd=           0 AccXCQ= 0.00D+00.
 Generated NRdTot=       0 NPtTot=           0 NUsed=           0 NTot=          32
 NSgBfM=   537   537   537   537   537 MxSgAt=    38 MxSgA2=    38.
 Leave Link  302 at Thu Dec 21 01:08:32 2023, MaxMem=  4026531840 cpu:               4.0 elap:               0.6
 (Enter /sysapps/ubuntu-applications/gaussian/Gaussian/AVX2/g16/l303.exe)
 DipDrv:  MaxL=1.
 Leave Link  303 at Thu Dec 21 01:08:32 2023, MaxMem=  4026531840 cpu:               0.9 elap:               0.2
 (Enter /sysapps/ubuntu-applications/gaussian/Gaussian/AVX2/g16/l401.exe)
 ExpMin= 3.60D-02 ExpMax= 8.59D+03 ExpMxC= 1.30D+03 IAcc=3 IRadAn=         5 AccDes= 0.00D+00
 Harris functional with IExCor=  402 and IRadAn=       5 diagonalized for initial guess.
 HarFok:  IExCor=  402 AccDes= 0.00D+00 IRadAn=         5 IDoV= 1 UseB2=F ITyADJ=14
 ICtDFT=  3500011 ScaDFX=  1.000000  1.000000  1.000000  1.000000
 FoFCou: FMM=F IPFlag=           0 FMFlag=      100000 FMFlg1=           0
         NFxFlg=           0 DoJE=T BraDBF=F KetDBF=T FulRan=T
         wScrn=  0.000000 ICntrl=       500 IOpCl=  0 I1Cent=   200000004 NGrid=           0
         NMat0=    1 NMatS0=      1 NMatT0=    0 NMatD0=    1 NMtDS0=    0 NMtDT0=    0
 Symmetry not used in FoFCou.
 Harris En= -751.871741430168    
 JPrj=0 DoOrth=F DoCkMO=F.
 Initial guess <Sx>= 0.0000 <Sy>= 0.0000 <Sz>= 0.5000 <S**2>= 0.7500 S= 0.5000
 Leave Link  401 at Thu Dec 21 01:08:35 2023, MaxMem=  4026531840 cpu:              22.2 elap:               3.2
 (Enter /sysapps/ubuntu-applications/gaussian/Gaussian/AVX2/g16/l502.exe)
 Two-electron integral symmetry not used.
 UHF open shell SCF:
 Using DIIS extrapolation, IDIIS=  1040.
 NGot=  4026531840 LenX=  4025944608 LenY=  4025654626
 Requested convergence on RMS density matrix=1.00D-08 within 128 cycles.
 Requested convergence on MAX density matrix=1.00D-06.
 Requested convergence on             energy=1.00D-06.
 No special actions if energy rises.
 Fock matrices will be formed incrementally for  20 cycles.

 Cycle   1  Pass 1  IDiag  1:
 FoFJK:  IHMeth= 1 ICntrl=       0 DoSepK=F KAlg= 0 I1Cent=           0 FoldK=F
 IRaf= 850000000 NMat=       1 IRICut=       1 DoRegI=T DoRafI=F ISym2E= 0 IDoP0=0 IntGTp=1.
 FoFCou: FMM=F IPFlag=           0 FMFlag=      100000 FMFlg1=           0
         NFxFlg=           0 DoJE=F BraDBF=F KetDBF=F FulRan=T
         wScrn=  0.000000 ICntrl=         0 IOpCl=  1 I1Cent=           0 NGrid=           0
         NMat0=    1 NMatS0=      1 NMatT0=    0 NMatD0=    1 NMtDS0=    0 NMtDT0=    0
 Symmetry not used in FoFCou.
 E= -750.888862914243    
 DIIS: error= 4.08D-02 at cycle   1 NSaved=   1.
 NSaved= 1 IEnMin= 1 EnMin= -750.888862914243     IErMin= 1 ErrMin= 4.08D-02
 ErrMax= 4.08D-02  0.00D+00 EMaxC= 1.00D-01 BMatC= 3.09D+00 BMatP= 3.09D+00
 IDIUse=3 WtCom= 5.92D-01 WtEn= 4.08D-01
 Coeff-Com:  0.100D+01
 Coeff-En:   0.100D+01
 Coeff:      0.100D+01
 Gap=     0.136 Goal=   None    Shift=    0.000
 Gap=     0.146 Goal=   None    Shift=    0.000
 GapD=    0.136 DampG=1.000 DampE=0.500 DampFc=0.5000 IDamp=-1.
 Damping current iteration by 5.00D-01
 RMSDP=1.04D+00 MaxDP=1.79D+02              OVMax= 9.93D-01

 Cycle   2  Pass 1  IDiag  1:
 RMSU=  5.03D-01    CP:  3.00D+00
 E= -750.571376660850     Delta-E=        0.317486253393 Rises=F Damp=T
 DIIS: error= 4.55D-02 at cycle   2 NSaved=   2.
 NSaved= 2 IEnMin= 1 EnMin= -750.888862914243     IErMin= 1 ErrMin= 4.08D-02
 ErrMax= 4.55D-02  0.00D+00 EMaxC= 1.00D-01 BMatC= 9.67D-01 BMatP= 3.09D+00
 IDIUse=3 WtCom= 5.45D-01 WtEn= 4.55D-01
 Coeff-Com:  0.305D+00 0.695D+00
 Coeff-En:   0.632D+00 0.368D+00
 Coeff:      0.454D+00 0.546D+00
 Gap=     0.034 Goal=   None    Shift=    0.000
 Gap=    -0.001 Goal=   None    Shift=    0.000
 RMSDP=5.18D-01 MaxDP=8.99D+01 DE= 3.17D-01 OVMax= 6.98D-01

 Cycle   3  Pass 1  IDiag  1:
 RMSU=  5.00D-03    CP:  1.05D+00  6.24D-04
 E= -751.154067530321     Delta-E=       -0.582690869471 Rises=F Damp=F
 DIIS: error= 4.83D-02 at cycle   3 NSaved=   3.
 NSaved= 3 IEnMin= 3 EnMin= -751.154067530321     IErMin= 1 ErrMin= 4.08D-02
 ErrMax= 4.83D-02  0.00D+00 EMaxC= 1.00D-01 BMatC= 1.68D+00 BMatP= 9.67D-01
 IDIUse=2 WtCom= 0.00D+00 WtEn= 1.00D+00
 EnCoef did     2 forward-backward iterations
 Coeff-En:   0.223D+00 0.192D+00 0.586D+00
 Coeff:      0.223D+00 0.192D+00 0.586D+00
 Gap=     0.133 Goal=   None    Shift=    0.000
 Gap=     0.167 Goal=   None    Shift=    0.000
 RMSDP=3.76D-01 MaxDP=8.21D+01 DE=-5.83D-01 OVMax= 9.98D-01

 Cycle   4  Pass 1  IDiag  1:
 RMSU=  2.53D-01    CP:  3.00D+00  5.34D-01  1.28D+00
 E= -749.036772989624     Delta-E=        2.117294540697 Rises=F Damp=F
 DIIS: error= 1.61D-01 at cycle   4 NSaved=   4.
 NSaved= 4 IEnMin= 3 EnMin= -751.154067530321     IErMin= 1 ErrMin= 4.08D-02
 ErrMax= 1.61D-01  0.00D+00 EMaxC= 1.00D-01 BMatC= 6.19D+00 BMatP= 9.67D-01
 IDIUse=2 WtCom= 0.00D+00 WtEn= 1.00D+00
 EnCoef did     2 forward-backward iterations
 Coeff-En:   0.109D+00 0.000D+00 0.690D+00 0.201D+00
 Coeff:      0.109D+00 0.000D+00 0.690D+00 0.201D+00
 Gap=     0.069 Goal=   None    Shift=    0.000
 Gap=     0.002 Goal=   None    Shift=    0.000
 RMSDP=3.77D-01 MaxDP=8.20D+01 DE= 2.12D+00 OVMax= 9.90D-01

 Cycle   5  Pass 1  IDiag  1:
 RMSU=  6.76D-03    CP:  1.03D+00 -1.41D-03  2.21D-01 -1.39D-03
 E= -751.519056679678     Delta-E=       -2.482283690054 Rises=F Damp=F
 DIIS: error= 2.05D-02 at cycle   5 NSaved=   5.
 NSaved= 5 IEnMin= 5 EnMin= -751.519056679678     IErMin= 5 ErrMin= 2.05D-02
 ErrMax= 2.05D-02  0.00D+00 EMaxC= 1.00D-01 BMatC= 3.29D-01 BMatP= 9.67D-01
 IDIUse=3 WtCom= 7.95D-01 WtEn= 2.05D-01
 Coeff-Com:  0.362D-02 0.138D+00 0.276D+00-0.252D-01 0.607D+00
 Coeff-En:   0.000D+00 0.000D+00 0.164D+00 0.000D+00 0.836D+00
 Coeff:      0.288D-02 0.110D+00 0.253D+00-0.201D-01 0.654D+00
 Gap=     0.071 Goal=   None    Shift=    0.000
 Gap=     0.148 Goal=   None    Shift=    0.000
 RMSDP=3.51D-03 MaxDP=3.81D-01 DE=-2.48D+00 OVMax= 8.96D-02

 Cycle   6  Pass 1  IDiag  1:
 RMSU=  2.33D-03    CP:  1.03D+00 -1.04D-03  3.90D-01 -1.01D-03  6.34D-01
 E= -751.585411899702     Delta-E=       -0.066355220024 Rises=F Damp=F
 DIIS: error= 5.85D-03 at cycle   6 NSaved=   6.
 NSaved= 6 IEnMin= 6 EnMin= -751.585411899702     IErMin= 6 ErrMin= 5.85D-03
 ErrMax= 5.85D-03  0.00D+00 EMaxC= 1.00D-01 BMatC= 3.88D-02 BMatP= 3.29D-01
 IDIUse=3 WtCom= 9.41D-01 WtEn= 5.85D-02
 Coeff-Com: -0.116D-01 0.836D-01 0.111D+00-0.281D-01 0.366D+00 0.478D+00
 Coeff-En:   0.000D+00 0.000D+00 0.000D+00 0.000D+00 0.359D-01 0.964D+00
 Coeff:     -0.109D-01 0.787D-01 0.105D+00-0.264D-01 0.347D+00 0.507D+00
 Gap=     0.058 Goal=   None    Shift=    0.000
 Gap=     0.147 Goal=   None    Shift=    0.000
 RMSDP=1.26D-03 MaxDP=1.22D-01 DE=-6.64D-02 OVMax= 5.18D-02

 Cycle   7  Pass 1  IDiag  1:
 RMSU=  8.49D-04    CP:  1.06D+00 -8.68D-04  4.45D-01 -9.59D-04  6.88D-01
                    CP:  9.57D-01
 E= -751.593087623100     Delta-E=       -0.007675723398 Rises=F Damp=F
 DIIS: error= 1.94D-03 at cycle   7 NSaved=   7.
 NSaved= 7 IEnMin= 7 EnMin= -751.593087623100     IErMin= 7 ErrMin= 1.94D-03
 ErrMax= 1.94D-03  0.00D+00 EMaxC= 1.00D-01 BMatC= 5.44D-03 BMatP= 3.88D-02
 IDIUse=3 WtCom= 9.81D-01 WtEn= 1.94D-02
 Coeff-Com: -0.417D-02 0.186D-01 0.435D-02-0.773D-02 0.523D-01 0.301D+00
 Coeff-Com:  0.636D+00
 Coeff-En:   0.000D+00 0.000D+00 0.000D+00 0.000D+00 0.000D+00 0.116D+00
 Coeff-En:   0.884D+00
 Coeff:     -0.409D-02 0.183D-01 0.427D-02-0.758D-02 0.513D-01 0.297D+00
 Coeff:      0.641D+00
 Gap=     0.058 Goal=   None    Shift=    0.000
 Gap=     0.134 Goal=   None    Shift=    0.000
 RMSDP=5.11D-04 MaxDP=4.79D-02 DE=-7.68D-03 OVMax= 1.64D-02

 Cycle   8  Pass 1  IDiag  1:
 RMSU=  3.13D-04    CP:  1.05D+00 -1.01D-03  4.36D-01 -1.10D-03  6.90D-01
                    CP:  9.71D-01  7.00D-01
 E= -751.594249187531     Delta-E=       -0.001161564431 Rises=F Damp=F
 DIIS: error= 7.51D-04 at cycle   8 NSaved=   8.
 NSaved= 8 IEnMin= 8 EnMin= -751.594249187531     IErMin= 8 ErrMin= 7.51D-04
 ErrMax= 7.51D-04  0.00D+00 EMaxC= 1.00D-01 BMatC= 4.97D-04 BMatP= 5.44D-03
 IDIUse=3 WtCom= 9.92D-01 WtEn= 7.51D-03
 Coeff-Com: -0.137D-02 0.399D-02-0.474D-02-0.540D-03 0.117D-02 0.124D+00
 Coeff-Com:  0.335D+00 0.543D+00
 Coeff-En:   0.000D+00 0.000D+00 0.000D+00 0.000D+00 0.000D+00 0.000D+00
 Coeff-En:   0.000D+00 0.100D+01
 Coeff:     -0.135D-02 0.396D-02-0.471D-02-0.536D-03 0.116D-02 0.123D+00
 Coeff:      0.332D+00 0.546D+00
 Gap=     0.061 Goal=   None    Shift=    0.000
 Gap=     0.136 Goal=   None    Shift=    0.000
 RMSDP=1.87D-04 MaxDP=2.59D-02 DE=-1.16D-03 OVMax= 7.41D-03

 Cycle   9  Pass 1  IDiag  1:
 RMSU=  1.18D-04    CP:  1.05D+00 -9.83D-04  4.44D-01 -1.07D-03  6.83D-01
                    CP:  9.60D-01  7.16D-01  8.70D-01
 E= -751.594395001611     Delta-E=       -0.000145814080 Rises=F Damp=F
 DIIS: error= 2.85D-04 at cycle   9 NSaved=   9.
 NSaved= 9 IEnMin= 9 EnMin= -751.594395001611     IErMin= 9 ErrMin= 2.85D-04
 ErrMax= 2.85D-04  0.00D+00 EMaxC= 1.00D-01 BMatC= 5.46D-05 BMatP= 4.97D-04
 IDIUse=3 WtCom= 9.97D-01 WtEn= 2.85D-03
 Coeff-Com:  0.148D-03 0.816D-03-0.275D-02-0.625D-04-0.471D-02 0.214D-02
 Coeff-Com:  0.201D-01 0.214D+00 0.770D+00
 Coeff-En:   0.000D+00 0.000D+00 0.000D+00 0.000D+00 0.000D+00 0.000D+00
 Coeff-En:   0.000D+00 0.000D+00 0.100D+01
 Coeff:      0.147D-03 0.814D-03-0.274D-02-0.623D-04-0.470D-02 0.214D-02
 Coeff:      0.201D-01 0.214D+00 0.771D+00
 Gap=     0.061 Goal=   None    Shift=    0.000
 Gap=     0.136 Goal=   None    Shift=    0.000
 RMSDP=6.62D-05 MaxDP=1.09D-02 DE=-1.46D-04 OVMax= 2.97D-03

 Cycle  10  Pass 1  IDiag  1:
 RMSU=  4.25D-05    CP:  1.05D+00 -9.83D-04  4.39D-01 -1.08D-03  6.85D-01
                    CP:  9.61D-01  7.13D-01  8.73D-01  8.52D-01
 E= -751.594416875034     Delta-E=       -0.000021873423 Rises=F Damp=F
 DIIS: error= 1.51D-04 at cycle  10 NSaved=  10.
 NSaved=10 IEnMin=10 EnMin= -751.594416875034     IErMin=10 ErrMin= 1.51D-04
 ErrMax= 1.51D-04  0.00D+00 EMaxC= 1.00D-01 BMatC= 1.93D-05 BMatP= 5.46D-05
 IDIUse=3 WtCom= 9.98D-01 WtEn= 1.51D-03
 Coeff-Com:  0.471D-03-0.280D-03 0.220D-03 0.997D-04-0.279D-02-0.304D-01
 Coeff-Com: -0.703D-01 0.197D-01 0.421D+00 0.662D+00
 Coeff-En:   0.000D+00 0.000D+00 0.000D+00 0.000D+00 0.000D+00 0.000D+00
 Coeff-En:   0.000D+00 0.000D+00 0.000D+00 0.100D+01
 Coeff:      0.470D-03-0.280D-03 0.220D-03 0.995D-04-0.279D-02-0.303D-01
 Coeff:     -0.702D-01 0.197D-01 0.420D+00 0.663D+00
 Gap=     0.061 Goal=   None    Shift=    0.000
 Gap=     0.136 Goal=   None    Shift=    0.000
 RMSDP=3.64D-05 MaxDP=3.47D-03 DE=-2.19D-05 OVMax= 2.27D-03

 Cycle  11  Pass 1  IDiag  1:
 RMSU=  2.29D-05    CP:  1.05D+00 -9.77D-04  4.40D-01 -1.08D-03  6.83D-01
                    CP:  9.63D-01  7.17D-01  9.23D-01  9.18D-01  1.10D+00
 E= -751.594423955728     Delta-E=       -0.000007080694 Rises=F Damp=F
 DIIS: error= 9.65D-05 at cycle  11 NSaved=  11.
 NSaved=11 IEnMin=11 EnMin= -751.594423955728     IErMin=11 ErrMin= 9.65D-05
 ErrMax= 9.65D-05  0.00D+00 EMaxC= 1.00D-01 BMatC= 5.97D-06 BMatP= 1.93D-05
 IDIUse=1 WtCom= 1.00D+00 WtEn= 0.00D+00
 Coeff-Com:  0.249D-03 0.178D-03 0.128D-02-0.200D-03-0.509D-03-0.171D-01
 Coeff-Com: -0.414D-01-0.387D-01-0.461D-01 0.348D+00 0.795D+00
 Coeff:      0.249D-03 0.178D-03 0.128D-02-0.200D-03-0.509D-03-0.171D-01
 Coeff:     -0.414D-01-0.387D-01-0.461D-01 0.348D+00 0.795D+00
 Gap=     0.061 Goal=   None    Shift=    0.000
 Gap=     0.136 Goal=   None    Shift=    0.000
 RMSDP=2.68D-05 MaxDP=3.73D-03 DE=-7.08D-06 OVMax= 1.29D-03

 Cycle  12  Pass 1  IDiag  1:
 RMSU=  1.24D-05    CP:  1.05D+00 -9.75D-04  4.42D-01 -1.07D-03  6.81D-01
                    CP:  9.63D-01  7.23D-01  9.38D-01  9.84D-01  1.19D+00
                    CP:  8.24D-01
 E= -751.594426797200     Delta-E=       -0.000002841471 Rises=F Damp=F
 DIIS: error= 4.46D-05 at cycle  12 NSaved=  12.
 NSaved=12 IEnMin=12 EnMin= -751.594426797200     IErMin=12 ErrMin= 4.46D-05
 ErrMax= 4.46D-05  0.00D+00 EMaxC= 1.00D-01 BMatC= 1.16D-06 BMatP= 5.97D-06
 IDIUse=1 WtCom= 1.00D+00 WtEn= 0.00D+00
 Coeff-Com:  0.761D-04-0.182D-03 0.793D-03-0.317D-04-0.147D-05-0.507D-02
 Coeff-Com: -0.117D-01-0.184D-01-0.798D-01 0.552D-01 0.395D+00 0.664D+00
 Coeff:      0.761D-04-0.182D-03 0.793D-03-0.317D-04-0.147D-05-0.507D-02
 Coeff:     -0.117D-01-0.184D-01-0.798D-01 0.552D-01 0.395D+00 0.664D+00
 Gap=     0.061 Goal=   None    Shift=    0.000
 Gap=     0.136 Goal=   None    Shift=    0.000
 RMSDP=1.52D-05 MaxDP=2.30D-03 DE=-2.84D-06 OVMax= 4.27D-04

 Cycle  13  Pass 1  IDiag  1:
 RMSU=  3.31D-06    CP:  1.05D+00 -9.75D-04  4.42D-01 -1.07D-03  6.81D-01
                    CP:  9.63D-01  7.22D-01  9.50D-01  9.75D-01  1.24D+00
                    CP:  9.94D-01  1.00D+00
 E= -751.594427141823     Delta-E=       -0.000000344624 Rises=F Damp=F
 DIIS: error= 1.62D-05 at cycle  13 NSaved=  13.
 NSaved=13 IEnMin=13 EnMin= -751.594427141823     IErMin=13 ErrMin= 1.62D-05
 ErrMax= 1.62D-05  0.00D+00 EMaxC= 1.00D-01 BMatC= 2.95D-07 BMatP= 1.16D-06
 IDIUse=1 WtCom= 1.00D+00 WtEn= 0.00D+00
 Coeff-Com:  0.474D-04-0.321D-04 0.131D-03-0.240D-04-0.832D-04 0.189D-02
 Coeff-Com:  0.555D-02 0.118D-02-0.279D-01-0.703D-01 0.725D-02 0.343D+00
 Coeff-Com:  0.739D+00
 Coeff:      0.474D-04-0.321D-04 0.131D-03-0.240D-04-0.832D-04 0.189D-02
 Coeff:      0.555D-02 0.118D-02-0.279D-01-0.703D-01 0.725D-02 0.343D+00
 Coeff:      0.739D+00
 Gap=     0.061 Goal=   None    Shift=    0.000
 Gap=     0.136 Goal=   None    Shift=    0.000
 RMSDP=5.23D-06 MaxDP=6.29D-04 DE=-3.45D-07 OVMax= 2.27D-04

 Cycle  14  Pass 1  IDiag  1:
 RMSU=  1.68D-06    CP:  1.05D+00 -9.74D-04  4.42D-01 -1.07D-03  6.80D-01
                    CP:  9.63D-01  7.22D-01  9.49D-01  9.85D-01  1.25D+00
                    CP:  1.01D+00  1.11D+00  1.29D+00
 E= -751.594427241688     Delta-E=       -0.000000099864 Rises=F Damp=F
 DIIS: error= 6.54D-06 at cycle  14 NSaved=  14.
 NSaved=14 IEnMin=14 EnMin= -751.594427241688     IErMin=14 ErrMin= 6.54D-06
 ErrMax= 6.54D-06  0.00D+00 EMaxC= 1.00D-01 BMatC= 3.35D-08 BMatP= 2.95D-07
 IDIUse=1 WtCom= 1.00D+00 WtEn= 0.00D+00
 Coeff-Com:  0.264D-04-0.325D-04-0.406D-04 0.559D-05-0.606D-04 0.149D-02
 Coeff-Com:  0.414D-02 0.326D-02 0.228D-02-0.396D-01-0.591D-01 0.592D-01
 Coeff-Com:  0.319D+00 0.709D+00
 Coeff:      0.264D-04-0.325D-04-0.406D-04 0.559D-05-0.606D-04 0.149D-02
 Coeff:      0.414D-02 0.326D-02 0.228D-02-0.396D-01-0.591D-01 0.592D-01
 Coeff:      0.319D+00 0.709D+00
 Gap=     0.061 Goal=   None    Shift=    0.000
 Gap=     0.136 Goal=   None    Shift=    0.000
 RMSDP=1.46D-06 MaxDP=1.93D-04 DE=-9.99D-08 OVMax= 6.38D-05

 Cycle  15  Pass 1  IDiag  1:
 RMSU=  7.30D-07    CP:  1.05D+00 -9.74D-04  4.42D-01 -1.07D-03  6.80D-01
                    CP:  9.63D-01  7.23D-01  9.49D-01  9.83D-01  1.25D+00
                    CP:  1.02D+00  1.15D+00  1.30D+00  7.86D-01
 E= -751.594427252710     Delta-E=       -0.000000011022 Rises=F Damp=F
 DIIS: error= 3.09D-06 at cycle  15 NSaved=  15.
 NSaved=15 IEnMin=15 EnMin= -751.594427252710     IErMin=15 ErrMin= 3.09D-06
 ErrMax= 3.09D-06  0.00D+00 EMaxC= 1.00D-01 BMatC= 1.10D-08 BMatP= 3.35D-08
 IDIUse=1 WtCom= 1.00D+00 WtEn= 0.00D+00
 Coeff-Com:  0.698D-05-0.812D-05-0.441D-04 0.503D-05-0.176D-04 0.476D-03
 Coeff-Com:  0.132D-02 0.144D-02 0.640D-02-0.752D-02-0.342D-01-0.292D-01
 Coeff-Com:  0.194D-01 0.426D+00 0.616D+00
 Coeff:      0.698D-05-0.812D-05-0.441D-04 0.503D-05-0.176D-04 0.476D-03
 Coeff:      0.132D-02 0.144D-02 0.640D-02-0.752D-02-0.342D-01-0.292D-01
 Coeff:      0.194D-01 0.426D+00 0.616D+00
 Gap=     0.061 Goal=   None    Shift=    0.000
 Gap=     0.136 Goal=   None    Shift=    0.000
 RMSDP=7.27D-07 MaxDP=8.15D-05 DE=-1.10D-08 OVMax= 3.46D-05

 Cycle  16  Pass 1  IDiag  1:
 RMSU=  2.90D-07    CP:  1.05D+00 -9.74D-04  4.42D-01 -1.07D-03  6.80D-01
                    CP:  9.63D-01  7.23D-01  9.49D-01  9.85D-01  1.25D+00
                    CP:  1.02D+00  1.17D+00  1.32D+00  9.26D-01  8.94D-01
 E= -751.594427256485     Delta-E=       -0.000000003776 Rises=F Damp=F
 DIIS: error= 1.11D-06 at cycle  16 NSaved=  16.
 NSaved=16 IEnMin=16 EnMin= -751.594427256485     IErMin=16 ErrMin= 1.11D-06
 ErrMax= 1.11D-06  0.00D+00 EMaxC= 1.00D-01 BMatC= 1.54D-09 BMatP= 1.10D-08
 IDIUse=1 WtCom= 1.00D+00 WtEn= 0.00D+00
 Coeff-Com: -0.445D-05 0.828D-05-0.118D-04 0.177D-06 0.966D-05-0.115D-03
 Coeff-Com: -0.310D-03 0.250D-04 0.278D-02 0.632D-02-0.433D-02-0.271D-01
 Coeff-Com: -0.779D-01 0.276D-01 0.274D+00 0.799D+00
 Coeff:     -0.445D-05 0.828D-05-0.118D-04 0.177D-06 0.966D-05-0.115D-03
 Coeff:     -0.310D-03 0.250D-04 0.278D-02 0.632D-02-0.433D-02-0.271D-01
 Coeff:     -0.779D-01 0.276D-01 0.274D+00 0.799D+00
 Gap=     0.061 Goal=   None    Shift=    0.000
 Gap=     0.136 Goal=   None    Shift=    0.000
 RMSDP=3.30D-07 MaxDP=2.83D-05 DE=-3.78D-09 OVMax= 2.07D-05

 Cycle  17  Pass 1  IDiag  1:
 RMSU=  1.54D-07    CP:  1.05D+00 -9.74D-04  4.42D-01 -1.07D-03  6.80D-01
                    CP:  9.63D-01  7.23D-01  9.49D-01  9.85D-01  1.25D+00
                    CP:  1.02D+00  1.17D+00  1.34D+00  9.53D-01  1.05D+00
                    CP:  9.03D-01
 E= -751.594427257271     Delta-E=       -0.000000000786 Rises=F Damp=F
 DIIS: error= 5.88D-07 at cycle  17 NSaved=  17.
 NSaved=17 IEnMin=17 EnMin= -751.594427257271     IErMin=17 ErrMin= 5.88D-07
 ErrMax= 5.88D-07  0.00D+00 EMaxC= 1.00D-01 BMatC= 4.83D-10 BMatP= 1.54D-09
 IDIUse=1 WtCom= 1.00D+00 WtEn= 0.00D+00
 Coeff-Com: -0.452D-05 0.723D-05-0.677D-06-0.724D-06 0.705D-06-0.157D-03
 Coeff-Com: -0.397D-03-0.180D-03 0.162D-03 0.468D-02 0.358D-02-0.794D-02
 Coeff-Com: -0.459D-01-0.635D-01 0.264D-01 0.444D+00 0.639D+00
 Coeff:     -0.452D-05 0.723D-05-0.677D-06-0.724D-06 0.705D-06-0.157D-03
 Coeff:     -0.397D-03-0.180D-03 0.162D-03 0.468D-02 0.358D-02-0.794D-02
 Coeff:     -0.459D-01-0.635D-01 0.264D-01 0.444D+00 0.639D+00
 Gap=     0.061 Goal=   None    Shift=    0.000
 Gap=     0.136 Goal=   None    Shift=    0.000
 RMSDP=1.34D-07 MaxDP=1.69D-05 DE=-7.86D-10 OVMax= 8.20D-06

 Cycle  18  Pass 1  IDiag  1:
 RMSU=  6.23D-08    CP:  1.05D+00 -9.74D-04  4.42D-01 -1.07D-03  6.80D-01
                    CP:  9.63D-01  7.23D-01  9.49D-01  9.85D-01  1.25D+00
                    CP:  1.02D+00  1.17D+00  1.35D+00  9.85D-01  1.02D+00
                    CP:  1.04D+00  1.11D+00
 E= -751.594427257451     Delta-E=       -0.000000000180 Rises=F Damp=F
 DIIS: error= 2.84D-07 at cycle  18 NSaved=  18.
 NSaved=18 IEnMin=18 EnMin= -751.594427257451     IErMin=18 ErrMin= 2.84D-07
 ErrMax= 2.84D-07  0.00D+00 EMaxC= 1.00D-01 BMatC= 7.67D-11 BMatP= 4.83D-10
 IDIUse=1 WtCom= 1.00D+00 WtEn= 0.00D+00
 Coeff-Com: -0.212D-05 0.230D-05 0.238D-05-0.199D-06-0.576D-06-0.663D-04
 Coeff-Com: -0.154D-03-0.911D-04-0.558D-03 0.948D-03 0.250D-02 0.237D-02
 Coeff-Com: -0.400D-02-0.350D-01-0.527D-01 0.182D-01 0.258D+00 0.811D+00
 Coeff:     -0.212D-05 0.230D-05 0.238D-05-0.199D-06-0.576D-06-0.663D-04
 Coeff:     -0.154D-03-0.911D-04-0.558D-03 0.948D-03 0.250D-02 0.237D-02
 Coeff:     -0.400D-02-0.350D-01-0.527D-01 0.182D-01 0.258D+00 0.811D+00
 Gap=     0.061 Goal=   None    Shift=    0.000
 Gap=     0.136 Goal=   None    Shift=    0.000
 RMSDP=1.38D-07 MaxDP=2.92D-05 DE=-1.80D-10 OVMax= 4.69D-06

 Cycle  19  Pass 1  IDiag  1:
 RMSU=  3.52D-08    CP:  1.05D+00 -9.74D-04  4.42D-01 -1.07D-03  6.80D-01
                    CP:  9.63D-01  7.23D-01  9.49D-01  9.85D-01  1.25D+00
                    CP:  1.02D+00  1.17D+00  1.34D+00  9.81D-01  1.05D+00
                    CP:  1.10D+00  1.22D+00  1.15D+00
 E= -751.594427257487     Delta-E=       -0.000000000035 Rises=F Damp=F
 DIIS: error= 8.77D-08 at cycle  19 NSaved=  19.
 NSaved=19 IEnMin=19 EnMin= -751.594427257487     IErMin=19 ErrMin= 8.77D-08
 ErrMax= 8.77D-08  0.00D+00 EMaxC= 1.00D-01 BMatC= 1.08D-11 BMatP= 7.67D-11
 IDIUse=1 WtCom= 1.00D+00 WtEn= 0.00D+00
 Coeff-Com: -0.467D-06 0.213D-06 0.753D-06 0.647D-07-0.861D-07-0.788D-05
 Coeff-Com: -0.899D-05 0.220D-06-0.255D-03-0.165D-03 0.395D-03 0.171D-02
 Coeff-Com:  0.387D-02-0.619D-02-0.237D-01-0.459D-01 0.131D-01 0.336D+00
 Coeff-Com:  0.722D+00
 Coeff:     -0.467D-06 0.213D-06 0.753D-06 0.647D-07-0.861D-07-0.788D-05
 Coeff:     -0.899D-05 0.220D-06-0.255D-03-0.165D-03 0.395D-03 0.171D-02
 Coeff:      0.387D-02-0.619D-02-0.237D-01-0.459D-01 0.131D-01 0.336D+00
 Coeff:      0.722D+00
 Gap=     0.061 Goal=   None    Shift=    0.000
 Gap=     0.136 Goal=   None    Shift=    0.000
 RMSDP=3.42D-08 MaxDP=3.80D-06 DE=-3.52D-11 OVMax= 1.98D-06

 Cycle  20  Pass 1  IDiag  1:
 RMSU=  1.48D-08    CP:  1.05D+00 -9.74D-04  4.42D-01 -1.07D-03  6.80D-01
                    CP:  9.63D-01  7.23D-01  9.49D-01  9.85D-01  1.25D+00
                    CP:  1.02D+00  1.17D+00  1.34D+00  9.81D-01  1.04D+00
                    CP:  1.10D+00  1.27D+00  1.28D+00  1.01D+00
 E= -751.594427257472     Delta-E=        0.000000000014 Rises=F Damp=F
 DIIS: error= 4.38D-08 at cycle  20 NSaved=  20.
 NSaved=20 IEnMin=19 EnMin= -751.594427257487     IErMin=20 ErrMin= 4.38D-08
 ErrMax= 4.38D-08  0.00D+00 EMaxC= 1.00D-01 BMatC= 3.54D-12 BMatP= 1.08D-11
 IDIUse=1 WtCom= 1.00D+00 WtEn= 0.00D+00
 Coeff-Com:  0.346D-06-0.391D-06-0.609D-08 0.887D-07-0.398D-06 0.723D-05
 Coeff-Com:  0.248D-04 0.184D-04-0.271D-04-0.276D-03-0.321D-03 0.447D-03
 Coeff-Com:  0.326D-02 0.414D-02-0.189D-02-0.318D-01-0.562D-01 0.107D-01
 Coeff-Com:  0.425D+00 0.647D+00
 Coeff:      0.346D-06-0.391D-06-0.609D-08 0.887D-07-0.398D-06 0.723D-05
 Coeff:      0.248D-04 0.184D-04-0.271D-04-0.276D-03-0.321D-03 0.447D-03
 Coeff:      0.326D-02 0.414D-02-0.189D-02-0.318D-01-0.562D-01 0.107D-01
 Coeff:      0.425D+00 0.647D+00
 Gap=     0.061 Goal=   None    Shift=    0.000
 Gap=     0.136 Goal=   None    Shift=    0.000
 RMSDP=1.39D-08 MaxDP=2.51D-06 DE= 1.43D-11 OVMax= 7.20D-07

 Cycle  21  Pass 1  IDiag  1:
 Restarting incremental Fock formation.
 E= -751.594427257489     Delta-E=       -0.000000000017 Rises=F Damp=F
 DIIS: error= 2.47D-08 at cycle  21 NSaved=  20.
 NSaved=20 IEnMin=20 EnMin= -751.594427257489     IErMin=20 ErrMin= 2.47D-08
 ErrMax= 2.47D-08  0.00D+00 EMaxC= 1.00D-01 BMatC= 3.17D-13 BMatP= 3.54D-12
 IDIUse=1 WtCom= 1.00D+00 WtEn= 0.00D+00
 Coeff-Com:  0.213D-06-0.205D-06-0.476D-07-0.105D-06 0.398D-05 0.119D-04
 Coeff-Com:  0.751D-05 0.194D-04-0.739D-04-0.173D-03-0.697D-04 0.690D-03
 Coeff-Com:  0.209D-02 0.226D-02-0.476D-02-0.226D-01-0.333D-01 0.653D-01
 Coeff-Com:  0.237D+00 0.754D+00
 Coeff:      0.213D-06-0.205D-06-0.476D-07-0.105D-06 0.398D-05 0.119D-04
 Coeff:      0.751D-05 0.194D-04-0.739D-04-0.173D-03-0.697D-04 0.690D-03
 Coeff:      0.209D-02 0.226D-02-0.476D-02-0.226D-01-0.333D-01 0.653D-01
 Coeff:      0.237D+00 0.754D+00
 Gap=     0.061 Goal=   None    Shift=    0.000
 Gap=     0.136 Goal=   None    Shift=    0.000
 RMSDP=3.31D-09 MaxDP=6.05D-07 DE=-1.68D-11 OVMax= 1.89D-07

 SCF Done:  E(UB3LYP) =  -751.594427257     A.U. after   21 cycles
            NFock= 21  Conv=0.33D-08     -V/T= 2.0043
 <Sx>= 0.0000 <Sy>= 0.0000 <Sz>= 0.5000 <S**2>= 0.7582 S= 0.5041
 <L.S>=  0.00000000000    
 KE= 7.484084790705D+02 PE=-4.257329691336D+03 EE= 1.512602004952D+03
 Annihilation of the first spin contaminant:
 S**2 before annihilation     0.7582,   after     0.7500
 Leave Link  502 at Thu Dec 21 01:15:00 2023, MaxMem=  4026531840 cpu:            2774.3 elap:             384.7
 (Enter /sysapps/ubuntu-applications/gaussian/Gaussian/AVX2/g16/l601.exe)
 Copying SCF densities to generalized density rwf, IOpCl= 1 IROHF=0.

 **********************************************************************

            Population analysis using the SCF density.

 **********************************************************************

 Alpha  occ. eigenvalues --  -18.93317 -18.91814 -14.18771 -10.11977 -10.07970
 Alpha  occ. eigenvalues --  -10.07396 -10.06845 -10.06807 -10.06565 -10.06109
 Alpha  occ. eigenvalues --  -10.05986 -10.04548 -10.03484 -10.03474 -10.03016
 Alpha  occ. eigenvalues --  -10.00869 -10.00210  -0.87690  -0.86009  -0.80421
 Alpha  occ. eigenvalues --   -0.70350  -0.69532  -0.64926  -0.60216  -0.59336
 Alpha  occ. eigenvalues --   -0.59045  -0.56674  -0.56376  -0.51922  -0.48710
 Alpha  occ. eigenvalues --   -0.45521  -0.43008  -0.40448  -0.37580  -0.36486
 Alpha  occ. eigenvalues --   -0.35339  -0.34130  -0.33344  -0.32199  -0.32088
 Alpha  occ. eigenvalues --   -0.31662  -0.30362  -0.30110  -0.29320  -0.28222
 Alpha  occ. eigenvalues --   -0.27749  -0.27279  -0.26080  -0.25969  -0.25514
 Alpha  occ. eigenvalues --   -0.24958  -0.24398  -0.24048  -0.23825  -0.22902
 Alpha  occ. eigenvalues --   -0.22559  -0.21508  -0.20813  -0.20209  -0.17842
 Alpha  occ. eigenvalues --   -0.12825  -0.09948  -0.08181  -0.07590   0.00662
 Alpha virt. eigenvalues --    0.06791   0.08274   0.09181   0.09440   0.10161
 Alpha virt. eigenvalues --    0.10590   0.10606   0.11618   0.11771   0.12394
 Alpha virt. eigenvalues --    0.12728   0.13111   0.13480   0.13656   0.14498
 Alpha virt. eigenvalues --    0.14728   0.14862   0.15334   0.15892   0.16194
 Alpha virt. eigenvalues --    0.17037   0.17157   0.17491   0.17600   0.17777
 Alpha virt. eigenvalues --    0.18584   0.19190   0.19548   0.19842   0.20324
 Alpha virt. eigenvalues --    0.20493   0.20694   0.20872   0.21127   0.21433
 Alpha virt. eigenvalues --    0.21584   0.21912   0.22402   0.22626   0.22822
 Alpha virt. eigenvalues --    0.22918   0.23456   0.23852   0.23972   0.24318
 Alpha virt. eigenvalues --    0.24781   0.24853   0.24998   0.25190   0.25313
 Alpha virt. eigenvalues --    0.25423   0.26165   0.26284   0.26439   0.26661
 Alpha virt. eigenvalues --    0.27066   0.27351   0.28086   0.28288   0.28599
 Alpha virt. eigenvalues --    0.29374   0.29488   0.29592   0.30243   0.30487
 Alpha virt. eigenvalues --    0.30719   0.30887   0.31618   0.31779   0.32176
 Alpha virt. eigenvalues --    0.32861   0.32955   0.33306   0.33770   0.34260
 Alpha virt. eigenvalues --    0.34517   0.35070   0.35415   0.35868   0.36250
 Alpha virt. eigenvalues --    0.36901   0.37201   0.37489   0.37826   0.38415
 Alpha virt. eigenvalues --    0.38464   0.38799   0.39034   0.39770   0.40057
 Alpha virt. eigenvalues --    0.40317   0.40861   0.41357   0.41872   0.42038
 Alpha virt. eigenvalues --    0.42357   0.43340   0.43412   0.44196   0.44325
 Alpha virt. eigenvalues --    0.44445   0.44891   0.45659   0.45774   0.46381
 Alpha virt. eigenvalues --    0.46478   0.46890   0.47426   0.47810   0.48688
 Alpha virt. eigenvalues --    0.48990   0.49643   0.50142   0.51462   0.52425
 Alpha virt. eigenvalues --    0.53395   0.54435   0.54756   0.55287   0.56006
 Alpha virt. eigenvalues --    0.56559   0.58064   0.58445   0.59330   0.59639
 Alpha virt. eigenvalues --    0.60636   0.61499   0.62399   0.63400   0.64035
 Alpha virt. eigenvalues --    0.64675   0.65476   0.66035   0.66611   0.67471
 Alpha virt. eigenvalues --    0.68139   0.69005   0.69474   0.70568   0.71231
 Alpha virt. eigenvalues --    0.71905   0.71979   0.73343   0.73933   0.74512
 Alpha virt. eigenvalues --    0.74866   0.75315   0.75464   0.76124   0.76855
 Alpha virt. eigenvalues --    0.77335   0.78144   0.78530   0.78630   0.79002
 Alpha virt. eigenvalues --    0.79346   0.79806   0.80054   0.81167   0.81614
 Alpha virt. eigenvalues --    0.82231   0.82532   0.82994   0.83330   0.84403
 Alpha virt. eigenvalues --    0.84601   0.86369   0.86609   0.87293   0.88158
 Alpha virt. eigenvalues --    0.88568   0.89137   0.89989   0.90133   0.90432
 Alpha virt. eigenvalues --    0.91459   0.92868   0.93679   0.94965   0.95379
 Alpha virt. eigenvalues --    0.96612   0.97953   0.99673   1.01433   1.01943
 Alpha virt. eigenvalues --    1.02920   1.03128   1.06111   1.07032   1.07823
 Alpha virt. eigenvalues --    1.09205   1.09761   1.10187   1.10881   1.12388
 Alpha virt. eigenvalues --    1.12739   1.13822   1.15151   1.15806   1.17014
 Alpha virt. eigenvalues --    1.18988   1.19745   1.21708   1.22065   1.24127
 Alpha virt. eigenvalues --    1.25211   1.25947   1.26848   1.27951   1.28932
 Alpha virt. eigenvalues --    1.30628   1.33280   1.34136   1.36014   1.36613
 Alpha virt. eigenvalues --    1.37774   1.38629   1.40215   1.40600   1.42086
 Alpha virt. eigenvalues --    1.43995   1.44681   1.44806   1.48489   1.50447
 Alpha virt. eigenvalues --    1.52940   1.54457   1.54932   1.55824   1.56409
 Alpha virt. eigenvalues --    1.56522   1.57162   1.58135   1.58426   1.58525
 Alpha virt. eigenvalues --    1.60559   1.61378   1.62769   1.63527   1.63571
 Alpha virt. eigenvalues --    1.64223   1.65390   1.65944   1.66586   1.67260
 Alpha virt. eigenvalues --    1.68534   1.69137   1.70336   1.72315   1.72984
 Alpha virt. eigenvalues --    1.73687   1.75731   1.76246   1.76760   1.77196
 Alpha virt. eigenvalues --    1.77646   1.77975   1.78928   1.79125   1.79974
 Alpha virt. eigenvalues --    1.80690   1.81214   1.82660   1.84405   1.85041
 Alpha virt. eigenvalues --    1.85318   1.85806   1.86248   1.87068   1.88046
 Alpha virt. eigenvalues --    1.88984   1.89650   1.91288   1.91932   1.92746
 Alpha virt. eigenvalues --    1.93096   1.93737   1.93862   1.95720   1.96887
 Alpha virt. eigenvalues --    1.97857   1.98792   2.01023   2.02843   2.03641
 Alpha virt. eigenvalues --    2.06450   2.07938   2.08644   2.08869   2.09703
 Alpha virt. eigenvalues --    2.10086   2.10886   2.14131   2.15948   2.16788
 Alpha virt. eigenvalues --    2.17988   2.21009   2.21575   2.22182   2.22922
 Alpha virt. eigenvalues --    2.23673   2.24198   2.26999   2.27368   2.28518
 Alpha virt. eigenvalues --    2.30140   2.32089   2.33522   2.34153   2.35148
 Alpha virt. eigenvalues --    2.36229   2.37853   2.38612   2.40033   2.41927
 Alpha virt. eigenvalues --    2.43439   2.45977   2.48359   2.50004   2.53314
 Alpha virt. eigenvalues --    2.54332   2.55250   2.56512   2.58363   2.58664
 Alpha virt. eigenvalues --    2.59181   2.61268   2.61496   2.61850   2.62254
 Alpha virt. eigenvalues --    2.63644   2.64379   2.64824   2.64878   2.66200
 Alpha virt. eigenvalues --    2.66417   2.67232   2.67899   2.69062   2.69935
 Alpha virt. eigenvalues --    2.71146   2.72109   2.73236   2.73323   2.74604
 Alpha virt. eigenvalues --    2.75890   2.77208   2.79870   2.80455   2.81092
 Alpha virt. eigenvalues --    2.85054   2.85839   2.87060   2.87963   2.88638
 Alpha virt. eigenvalues --    2.89769   2.90109   2.90976   2.91871   2.92404
 Alpha virt. eigenvalues --    2.94131   2.95192   2.96805   2.98843   2.99439
 Alpha virt. eigenvalues --    3.01334   3.03135   3.03988   3.05096   3.05922
 Alpha virt. eigenvalues --    3.06779   3.11186   3.12607   3.13044   3.15168
 Alpha virt. eigenvalues --    3.16118   3.16865   3.18154   3.18956   3.20767
 Alpha virt. eigenvalues --    3.24365   3.24652   3.30329   3.31255   3.32265
 Alpha virt. eigenvalues --    3.34920   3.36494   3.38772   3.40926   3.43337
 Alpha virt. eigenvalues --    3.44943   3.47210   3.51315   3.54313   3.55482
 Alpha virt. eigenvalues --    3.57938   3.63493   3.72379   3.78842   3.79056
 Alpha virt. eigenvalues --    3.82718   3.85771   3.87319   3.88317   3.89058
 Alpha virt. eigenvalues --    3.89476   3.89846   3.90440   3.91592   3.93437
 Alpha virt. eigenvalues --    3.94183   3.95083   3.95944   3.97341   3.98770
 Alpha virt. eigenvalues --    4.02384   4.12074   4.15222   4.30051   4.31428
 Alpha virt. eigenvalues --    4.37089   4.38651   4.39657   4.41214   4.42606
 Alpha virt. eigenvalues --    4.56355   4.88535   4.97250   5.23774   5.24482
 Alpha virt. eigenvalues --    5.26609   5.42428   5.51777   5.92521   5.99817
 Alpha virt. eigenvalues --   23.83156  23.88080  23.92697  23.96016  24.03642
 Alpha virt. eigenvalues --   24.06647  24.07381  24.09871  24.10013  24.10427
 Alpha virt. eigenvalues --   24.11730  24.12888  24.37557  24.43471  35.78163
 Alpha virt. eigenvalues --   50.20816  50.24074
  Beta  occ. eigenvalues --  -18.92683 -18.91226 -14.18722 -10.11981 -10.07702
  Beta  occ. eigenvalues --  -10.07395 -10.06814 -10.06759 -10.06479 -10.06106
  Beta  occ. eigenvalues --  -10.05982 -10.04549 -10.03479 -10.03469 -10.02941
  Beta  occ. eigenvalues --  -10.00641 -10.00185  -0.86616  -0.85010  -0.80275
  Beta  occ. eigenvalues --   -0.70178  -0.69449  -0.64529  -0.60151  -0.59328
  Beta  occ. eigenvalues --   -0.58893  -0.56652  -0.56359  -0.51154  -0.48413
  Beta  occ. eigenvalues --   -0.45157  -0.42769  -0.40298  -0.37480  -0.36274
  Beta  occ. eigenvalues --   -0.35313  -0.34054  -0.33188  -0.32131  -0.32041
  Beta  occ. eigenvalues --   -0.31282  -0.30274  -0.30028  -0.29278  -0.27676
  Beta  occ. eigenvalues --   -0.27648  -0.27275  -0.25820  -0.25520  -0.25008
  Beta  occ. eigenvalues --   -0.24671  -0.23924  -0.23855  -0.23558  -0.22368
  Beta  occ. eigenvalues --   -0.21484  -0.20679  -0.20438  -0.20104  -0.16660
  Beta  occ. eigenvalues --   -0.10480  -0.09394  -0.07623  -0.06806
  Beta virt. eigenvalues --    0.06785   0.07694   0.08269   0.09172   0.09478
  Beta virt. eigenvalues --    0.10155   0.10597   0.10607   0.11614   0.11773
  Beta virt. eigenvalues --    0.12386   0.12729   0.13174   0.13508   0.13651
  Beta virt. eigenvalues --    0.14506   0.14728   0.14918   0.15704   0.15903
  Beta virt. eigenvalues --    0.16843   0.17129   0.17420   0.17595   0.17773
  Beta virt. eigenvalues --    0.18376   0.18592   0.19554   0.19843   0.20202
  Beta virt. eigenvalues --    0.20477   0.20547   0.20740   0.20924   0.21242
  Beta virt. eigenvalues --    0.21460   0.21591   0.21915   0.22454   0.22642
  Beta virt. eigenvalues --    0.22833   0.22921   0.23512   0.23858   0.24039
  Beta virt. eigenvalues --    0.24328   0.24809   0.24872   0.25024   0.25226
  Beta virt. eigenvalues --    0.25354   0.25465   0.26190   0.26317   0.26512
  Beta virt. eigenvalues --    0.26696   0.27083   0.27413   0.28141   0.28327
  Beta virt. eigenvalues --    0.28640   0.29528   0.29667   0.29699   0.30262
  Beta virt. eigenvalues --    0.30509   0.30756   0.31164   0.31692   0.31799
  Beta virt. eigenvalues --    0.32316   0.32931   0.33446   0.33551   0.33915
  Beta virt. eigenvalues --    0.34295   0.34589   0.35097   0.35488   0.35904
  Beta virt. eigenvalues --    0.36364   0.36940   0.37254   0.37548   0.37893
  Beta virt. eigenvalues --    0.38469   0.38550   0.38867   0.39088   0.39807
  Beta virt. eigenvalues --    0.40218   0.40390   0.40930   0.41398   0.41944
  Beta virt. eigenvalues --    0.42105   0.42419   0.43390   0.43500   0.44302
  Beta virt. eigenvalues --    0.44422   0.44468   0.45008   0.45757   0.46077
  Beta virt. eigenvalues --    0.46461   0.46626   0.46950   0.47522   0.47859
  Beta virt. eigenvalues --    0.48743   0.49146   0.49661   0.50382   0.51613
  Beta virt. eigenvalues --    0.52596   0.53493   0.54591   0.54855   0.55328
  Beta virt. eigenvalues --    0.56136   0.56628   0.58188   0.58489   0.59415
  Beta virt. eigenvalues --    0.59835   0.60746   0.61552   0.62660   0.63466
  Beta virt. eigenvalues --    0.64224   0.64788   0.65569   0.66095   0.66674
  Beta virt. eigenvalues --    0.67525   0.68166   0.69062   0.69528   0.70656
  Beta virt. eigenvalues --    0.71267   0.71933   0.72050   0.73402   0.73985
  Beta virt. eigenvalues --    0.74887   0.74987   0.75429   0.75591   0.76283
  Beta virt. eigenvalues --    0.76972   0.77416   0.78220   0.78608   0.78743
  Beta virt. eigenvalues --    0.79037   0.79603   0.79872   0.80118   0.81354
  Beta virt. eigenvalues --    0.81726   0.82339   0.82708   0.83255   0.83448
  Beta virt. eigenvalues --    0.84652   0.84918   0.86413   0.86690   0.87558
  Beta virt. eigenvalues --    0.88230   0.88609   0.89280   0.90089   0.90200
  Beta virt. eigenvalues --    0.90514   0.91533   0.92977   0.93777   0.95000
[...]
 32650,0.07824709,-0.09388846,0.00050579,-0.00098659,-0.00140492,0.0000
 4372,-0.00035945,0.00002205,0.00040779,-0.00006089,0.00024866,0.000133
 99,-0.00066695,0.00102875,-0.00005416,-0.00000472,0.00002908,-0.008628
 96,0.00655206,-0.00722741,0.15863314,0.00043570,-0.00009763,0.00140941
 ,0.00144739,-0.00041868,-0.00241217,0.00022856,0.00034032,-0.00039050,
 0.00003229,0.00018556,-0.00021266,0.00001135,-0.00005065,0.00003732,0.
 00002838,0.00000578,-0.00023408,-0.00010877,0.00001888,-0.00055497,0.0
 0003937,-0.00002855,0.00025351,0.00025366,-0.00016889,0.00001743,-0.00
 007584,0.00009290,-0.00006381,0.00001439,-0.00002416,0.00001269,0.0000
 0464,-0.00001574,0.00000933,0.00001534,-0.00002128,0.00001372,0.000010
 23,-0.00002629,0.00001595,-0.00002334,-0.00000096,-0.00000190,-0.00000
 560,0.00000239,-0.00000096,-0.00000171,0.00000712,0.00000064,0.0000131
 0,-0.00001356,-0.00000568,-0.00000217,0.00000472,-0.00000535,-0.000010
 61,0.00000484,-0.00000860,0.00001648,-0.00001495,0.00000432,-0.0000026
 5,0.00000418,-0.00000593,0.00000812,-0.00002305,0.00000258,-0.00000258
 ,0.00001802,-0.00000608,0.00916632,-0.00902571,0.00865786,-0.00122204,
 0.00028828,0.00062055,0.07842438,-0.11038593,0.07519666,0.00047723,0.0
 0006085,0.00147596,-0.00025889,-0.00026125,-0.00017473,-0.00020329,-0.
 00011470,-0.00020654,-0.00019053,0.00064136,-0.00016152,-0.00009636,0.
 00002309,-0.00011597,-0.01290253,0.01162773,-0.01193063,-0.08965409,0.
 11832334,0.00053037,-0.00033710,0.00028586,0.00221613,-0.00121663,-0.0
 0233971,0.00017929,0.00007421,-0.00096274,-0.00014807,0.00004455,0.000
 66699,-0.00011897,0.00008493,-0.00012731,0.00032705,-0.00015263,-0.000
 26753,-0.00010580,0.00001710,0.00042952,-0.00002708,0.00005096,-0.0001
 9245,-0.00018945,0.00001455,0.00014133,0.00010787,-0.00007575,0.000021
 80,-0.00000301,0.00000966,-0.00000256,-0.00000638,0.00000899,-0.000014
 50,-0.00000909,0.00002378,-0.00001097,-0.00006830,0.00003723,0.0000132
 7,0.00002440,-0.00000115,0.00001748,0.00000377,-0.00000311,-0.00000072
 ,0.00000184,-0.00000677,-0.00000042,-0.00000945,0.00001069,-0.00000099
 ,0.00000223,-0.00000496,0.00000572,0.00001073,-0.00000485,0.00001070,-
 0.00001415,0.00001546,-0.00000108,0.00000170,-0.00000537,0.00000316,-0
 .00000909,0.00002059,-0.00000301,0.00000157,-0.00001698,0.00000625,0.0
 1164712,-0.00921781,0.00846611,0.00040155,-0.00068661,0.00069063,-0.09
 542786,0.07626430,-0.13463590,0.00082497,-0.00032699,0.00083107,-0.000
 70669,0.00032844,0.00064767,-0.00012812,-0.00021310,0.00023741,0.00014
 801,-0.00005940,0.00005263,-0.00004841,0.00013429,-0.00009701,-0.01194
 879,0.01122016,-0.01248909,0.10238731,-0.08291673,0.14826054,-0.000131
 00,0.00017737,0.00055657,0.00115356,-0.00077397,0.00052707,-0.00032304
 ,0.00054181,0.00033107,0.00021106,0.00008021,-0.00055812,0.00010091,-0
 .00010941,0.00004312,-0.00021253,0.00003660,0.00012142,0.00009127,0.00
 022131,-0.00064713,0.00004121,-0.00000512,0.00009348,0.00019236,-0.000
 02652,-0.00013784,-0.00006570,0.00003140,-0.00002562,0.00000336,-0.000
 00983,0.00000620,0.00000118,-0.00000742,0.00000859,0.00000784,-0.00001
 244,0.00000706,0.00005111,-0.00003611,-0.00001642,0.00000471,-0.000033
 93,0.00001408,-0.00000372,-0.00000081,0.00000046,0.00000364,0.00000575
 ,-0.00000024,0.00000515,-0.00000463,-0.00000227,0.00000215,0.00000486,
 -0.00000494,-0.00000708,0.00000066,-0.00000750,0.00000767,-0.00000689,
 0.00000124,-0.00000153,0.00000318,0.00000026,0.00000448,-0.00001054,0.
 00000194,-0.00000190,0.00000877,-0.00000678,-0.01174311,-0.01751177,0.
 01044894,-0.00364206,0.00358410,0.00268926,-0.11519867,-0.09184157,0.0
 6632258,0.00045340,-0.00090062,-0.00116565,-0.00092545,-0.00019172,-0.
 00119769,-0.00042738,-0.00142556,0.00120584,0.00037740,-0.00012422,0.0
 0013673,0.00029369,0.00029473,-0.00022632,-0.00720939,-0.00863721,0.00
 657334,0.01152900,0.01462790,-0.00996036,0.12480096,-0.00020546,-0.000
 01907,-0.00017117,-0.00010678,0.00035352,0.00015061,0.00019480,0.00032
 335,0.00123402,0.00027207,-0.00014252,-0.00018887,0.00000837,-0.000041
 75,0.00006271,-0.00003892,0.00005156,0.00006595,-0.00002781,0.00010633
 ,-0.00010830,0.00003887,0.00005157,-0.00013280,-0.00001277,0.00003481,
 -0.00005654,0.00000716,-0.00002394,0.00001050,-0.00000219,0.00000441,-
 0.00000010,-0.00000099,0.00000195,-0.00000052,-0.00000072,0.00000436,0
 .00000065,0.00002162,-0.00003245,-0.00002174,0.00001890,-0.00001447,0.
 00000971,0.00000054,-0.00000263,-0.00000078,0.00000233,-0.00000057,-0.
 00000073,-0.00000338,0.00000382,-0.00000024,0.00000271,-0.00000027,-0.
 00000026,0.00000120,-0.00000214,-0.00000029,-0.00000339,0.00000383,-0.
 00000121,0.00000033,-0.00000261,0.00000027,-0.00000369,0.00000523,-0.0
 0000085,0.00000172,-0.00000374,0.00000039,0.00611060,0.00902642,-0.006
 84902,0.00127477,-0.00014891,-0.00103863,-0.09382583,-0.17022358,0.088
 51148,0.00053105,0.00101121,-0.00008500,0.00098055,-0.00030113,-0.0000
 9921,0.00043682,0.00051476,-0.00031935,-0.00001234,0.00005123,-0.00034
 162,0.00033322,0.00008716,0.00001991,-0.00943717,-0.01412485,0.0106296
 2,-0.00771903,-0.01124030,0.00679447,0.10114200,0.18446598,0.00009095,
 -0.00016486,-0.00015474,-0.00087535,0.00021936,0.00001439,-0.00078744,
 -0.00000625,0.00007129,-0.00001770,-0.00002145,0.00010949,-0.00000013,
 -0.00000332,0.00004759,-0.00002491,0.00004281,-0.00007862,-0.00005925,
 -0.00025876,0.00009330,0.00004751,-0.00005549,0.00001039,0.00005644,-0
 .00003746,0.00001971,-0.00001719,0.00004815,-0.00000836,0.00000402,-0.
 00000341,0.00000231,0.00000404,-0.00000656,0.00000435,0.00000465,-0.00
 000905,0.00000773,0.00001352,0.00000142,0.00001080,-0.00001676,0.00001
 992,-0.00001090,-0.00000077,0.00000258,-0.00000146,-0.00000482,-0.0000
 0014,0.00000065,0.00000406,-0.00000538,0.00000020,-0.00000387,-0.00000
 050,-0.00000133,-0.00000264,0.00000225,-0.00000275,0.00000608,-0.00000
 544,0.00000180,-0.00000042,0.00000004,-0.00000630,0.00000178,-0.000008
 21,0.00000018,0.00000040,0.00000670,0.00000152,0.00813948,0.01328952,-
 0.00992518,0.00294988,-0.00292047,-0.00249647,0.06699289,0.08853495,-0
 .11056789,0.00014928,0.00157229,0.00058099,-0.00108743,0.00024641,-0.0
 0024003,0.00089959,0.00122463,-0.00031119,-0.00019995,-0.00032974,0.00
 035119,0.00011032,0.00018370,0.00023542,-0.01121565,-0.01489902,0.0114
 0349,0.01007126,0.01279374,-0.00982482,-0.07491916,-0.09831543,0.12050
 068,-0.00033752,-0.00009782,-0.00388665,0.00062942,0.00017712,0.000858
 09,0.00003532,0.00003082,0.00002953,-0.00005662,0.00009258,-0.00025406
 ,-0.00004258,-0.00002530,-0.00001650,-0.00006684,0.00000330,0.00041344
 ,-0.00258380,0.00045301,0.00180091,-0.00005739,-0.00004740,0.00051335,
 0.00033328,-0.00018622,0.00008731,-0.00015770,0.00020879,-0.00003632,0
 .00001908,-0.00003086,0.00001506,0.00001525,-0.00004389,0.00001949,0.0
 0003339,-0.00003769,0.00003268,0.00001135,-0.00002205,0.00006926,-0.00
 021717,0.00015909,-0.00007740,-0.00000973,0.00001137,-0.00000271,-0.00
 001164,0.00000892,0.00000158,0.00002175,-0.00002267,-0.00000206,-0.000
 00912,0.00000432,-0.00000968,-0.00001670,0.00000878,-0.00001292,0.0000
 3204,-0.00002397,0.00001252,-0.00000434,0.00000603,-0.00001992,0.00000
 638,-0.00003975,0.00000571,-0.00000045,0.00002827,-0.00000546,0.010784
 65,-0.00659708,-0.00926828,0.00072857,0.00035421,-0.00026198,-0.001076
 40,-0.00192218,-0.00200020,-0.16791038,0.07925908,0.11316691,-0.000036
 22,-0.00003856,0.00011257,0.00001312,-0.00036630,0.00014494,-0.0001197
 5,0.00013984,0.00002391,-0.00000662,0.00013125,-0.00000592,0.00072032,
 -0.00074573,-0.00082701,-0.00000004,-0.00020035,0.00009542,-0.00007066
 ,0.00008940,-0.00011712,0.18131644,0.00038916,0.00030221,-0.00075555,0
 .00006445,0.00044769,0.00085660,0.00009095,0.00006269,-0.00008180,0.00
 002660,-0.00004195,0.00002556,0.00002283,-0.00002618,0.00003711,-0.000
 03328,-0.00007026,0.00014010,0.00137462,-0.00082689,0.00092742,-0.0000
 2041,0.00002071,-0.00001700,-0.00004075,-0.00007174,0.00011921,0.00000
 249,0.00002491,0.00002081,0.00000803,0.00000382,0.00000701,0.00000205,
 -0.00000834,0.00000083,0.00001801,0.00000278,0.00002330,0.00000703,0.0
 0001625,0.00002368,-0.00004008,0.00011827,-0.00004761,0.00000422,0.000
 00175,-0.00000738,-0.00000956,-0.00000513,-0.00000135,-0.00000149,-0.0
 0000095,-0.00000043,-0.00000492,-0.00000362,-0.00000046,-0.00000009,0.
 00000104,0.00000042,0.00000211,0.00000087,0.00000138,0.00000094,-0.000
 01306,-0.00001183,-0.00000923,-0.00000339,-0.00000383,-0.00000005,0.00
 000018,0.00000147,0.01317352,-0.00932507,-0.01140679,0.00129368,0.0006
 6083,-0.00003600,-0.00265022,-0.00247421,-0.00252083,0.07612385,-0.096
 20791,-0.06734485,-0.00001878,-0.00003421,0.00006529,-0.00059777,-0.00
 033479,0.00014075,0.00002158,-0.00010617,-0.00005322,-0.00006483,0.000
 30101,0.00017609,0.00087841,-0.00028716,-0.00117913,-0.00039565,0.0002
 5750,0.00015907,0.00018955,0.00022024,-0.00022329,-0.08346050,0.103586
 90,-0.00060328,0.00019040,-0.00291083,0.00082931,0.00003660,0.00042367
 ,-0.00000391,0.00006265,-0.00009179,0.00002096,-0.00010584,-0.00012099
 ,-0.00003914,0.00005241,0.00002132,-0.00015138,-0.00023497,0.00002572,
 0.00213699,0.00042476,0.00166719,-0.00006744,0.00003199,0.00026265,0.0
 0012735,-0.00008908,0.00016077,-0.00008953,0.00007472,0.00001328,0.000
 00236,-0.00001279,-0.00000176,0.00000767,-0.00001534,0.00000431,0.0000
 0526,-0.00002719,-0.00000661,0.00002095,0.00002886,0.00004519,-0.00015
 406,0.00010785,-0.00005534,-0.00000515,0.00000394,0.00000584,0.0000012
 6,0.00000858,0.00000050,0.00000985,-0.00001075,0.00000029,0.00000163,0
 .00000626,-0.00000386,-0.00000928,0.00000312,-0.00000379,0.00001423,-0
 .00001146,0.00000586,-0.00000276,0.00001682,0.00000835,0.00001293,-0.0
 0001974,0.00000662,-0.00000088,0.00001114,-0.00000741,0.01430375,-0.00
 851754,-0.01362014,0.00038135,0.00104417,0.00064820,-0.00319244,-0.002
 46175,-0.00260447,0.10834673,-0.06696463,-0.14559075,-0.00001064,-0.00
 002225,0.00015948,-0.00020797,-0.00034831,0.00051284,-0.00014840,-0.00
 004615,0.00001892,-0.00006950,0.00016527,-0.00007581,0.00098839,-0.001
 10192,-0.00066016,0.00019768,-0.00018636,0.00027342,-0.00026689,0.0001
 8474,0.00029279,-0.11890948,0.07618462,0.15808589,-0.00024935,0.000061
 35,0.00087709,0.00078668,-0.00049337,0.00103768,0.00008131,0.00033741,
 -0.00040596,-0.00001706,-0.00005507,-0.00008547,0.00000041,0.00001997,
 0.00000015,-0.00015732,0.00010675,-0.00005590,-0.00080878,0.00048341,-
 0.00088561,0.00001604,0.00004383,-0.00002784,0.00001664,0.00007297,-0.
 00010286,-0.00001730,-0.00005087,-0.00000390,-0.00000280,0.00000329,-0
 .00000384,-0.00000092,0.00001177,-0.00000426,-0.00001435,-0.00000036,-
 0.00001894,-0.00000216,-0.00000184,-0.00001300,0.00004026,-0.00008889,
 0.00004326,-0.00000267,-0.00000435,0.00000676,0.00001048,0.00000608,-0
 .00000208,-0.00000128,0.00000113,0.,0.00000827,0.00000621,0.00000033,-
 0.00000221,-0.00000243,-0.00000076,-0.00000287,-0.00000019,-0.00000157
 ,-0.00000376,0.00001360,0.00002478,0.00001399,0.00000153,0.00000283,-0
 .00000725,-0.00000207,-0.00001482,-0.00889670,-0.01041308,0.00785424,-
 0.00107361,-0.00124892,-0.00312858,0.00023851,0.00100059,0.00055212,-0
 .10805942,-0.08833066,0.06276105,-0.00000643,-0.00006377,-0.00000810,0
 .00027193,0.00025047,-0.00010596,0.00025072,-0.00015484,0.00018838,-0.
 00021834,-0.00116771,0.00049722,-0.00006964,0.00014391,-0.00014191,0.0
 0004746,0.00005422,-0.00011613,0.00061862,0.00004584,-0.00023570,-0.00
 938265,-0.01688080,0.00993100,0.11520082,-0.00011933,0.00014952,0.0004
 3779,0.00159883,0.00039786,0.00100917,-0.00009962,0.00041662,-0.000398
 08,-0.00000386,-0.00011929,-0.00001660,0.00001482,-0.00000773,0.000005
 52,-0.00007768,0.00005202,0.00006390,0.00013227,-0.00004551,-0.0002617
 5,0.00002855,0.00004758,-0.00010337,0.00002398,0.00003028,-0.00004988,
 0.00000122,-0.00002378,0.00000580,-0.00000284,0.00000155,0.00000116,-0
 .00000125,0.00000033,0.00000069,0.00000078,0.00000659,-0.00000046,-0.0
 0000453,-0.00000918,-0.00000575,0.00000687,-0.00001762,0.00000546,0.00
 000066,-0.00000193,-0.00000020,0.00000370,0.00000110,-0.00000112,-0.00
 000246,0.00000301,-0.00000083,0.00000354,0.00000115,-0.00000123,0.0000
 0013,-0.00000200,-0.00000014,-0.00000249,0.00000308,-0.00000033,0.0000
 0067,-0.00000160,0.00000280,-0.00000309,0.00000381,-0.00000052,-0.0000
 0088,-0.00000446,-0.00000167,-0.00940185,-0.01500406,0.01005143,-0.001
 66508,-0.00203257,-0.00414581,-0.00045327,0.00032649,0.00157601,-0.088
 46156,-0.17468265,0.09013040,0.00000475,-0.00003828,-0.00006996,0.0000
 5016,0.00005717,0.00003443,0.00022085,0.00044702,-0.00018689,-0.001064
 53,-0.00104687,0.00052602,0.00021601,0.00046468,-0.00011028,-0.0000808
 8,-0.00007109,-0.00000890,0.00055523,0.00010623,-0.00093298,0.00589613
 ,0.01140133,-0.00662068,0.10062951,0.19131152,0.00022436,-0.00004143,-
 0.00018421,0.00023887,-0.00034532,0.00143525,0.00031539,-0.00000924,-0
 .00003935,-0.00008651,0.00007776,-0.00014278,0.00003641,-0.00006790,0.
 00004833,-0.00015431,0.00004852,0.00010006,0.00051032,-0.00014370,0.00
 033788,0.00001245,-0.00005273,0.00017648,0.00015685,-0.00009067,-0.000
 01028,-0.00006469,0.00009528,-0.00002673,0.00000756,-0.00001225,0.0000
 0833,0.00000339,-0.00001865,0.00001225,0.00001876,-0.00001915,0.000027
 86,0.00001834,-0.00000440,0.00002071,-0.00004335,0.00004806,-0.0000310
 8,-0.00000133,0.00000595,-0.00000490,-0.00000893,0.00000003,0.00000053
 ,0.00000915,-0.00000918,-0.00000072,-0.00000729,-0.00000037,-0.0000045
 2,-0.00000655,0.00000523,-0.00000592,0.00001351,-0.00001043,0.00000356
 ,0.00000083,-0.00000314,-0.00001958,-0.00000004,-0.00001841,-0.0000002
 9,0.00000140,0.00001544,0.00000155,-0.01046597,-0.01534260,0.00898918,
 -0.00177919,-0.00248194,-0.00240608,-0.00072690,-0.00015792,0.00115820
 ,0.06391248,0.09236798,-0.10997525,-0.00001830,-0.00002298,-0.00004026
 ,-0.00012398,-0.00000947,-0.00010834,0.00019550,-0.00025606,0.00002353
 ,-0.00057903,-0.00105202,0.00077239,-0.00010104,0.00025553,0.00022441,
 0.00012087,0.00002068,-0.00009687,0.00008312,0.00005839,-0.00000782,0.
 00740611,0.01485290,-0.00961937,-0.06782758,-0.09879719,0.11852741,-0.
 00011503,0.00022010,0.00035039,0.00019077,-0.00318609,-0.00208403,-0.0
 0082450,0.00033046,0.00031172,0.00023702,0.00017685,0.00018660,-0.0000
 2137,0.00000832,-0.00019667,0.00048406,0.00005689,0.00010106,-0.001296
 30,-0.00042361,-0.00015664,-0.00005739,0.00007695,-0.00049432,-0.00041
 186,0.00017723,-0.00000108,0.00016970,-0.00017960,0.00005143,-0.000013
 82,0.00003497,-0.00001144,-0.00001108,0.00003257,-0.00002121,-0.000026
 42,0.00004930,-0.00002002,-0.00005295,-0.00001787,-0.00005868,0.000118
 45,-0.00005578,0.00003849,0.00001005,-0.00000664,-0.00000120,0.0000021
 4,-0.00001367,-0.00000218,-0.00002190,0.00002317,0.00000388,0.00000379
 ,-0.00000924,0.00000983,0.00002006,-0.00001055,0.00001676,-0.00003061,
 0.00002753,-0.00000771,0.00000405,-0.00001184,0.00000889,-0.00001571,0
 .00004351,-0.00000552,0.00000125,-0.00003516,0.00001134,-0.01156262,0.
 00867665,-0.00822816,0.00007752,0.00141568,-0.00034059,0.00020465,0.00
 080424,0.00108892,-0.15179887,0.08487651,-0.08603436,0.00003633,-0.000
 14466,-0.00009646,-0.00016572,0.00012483,-0.00001336,0.00022250,-0.000
 93006,0.00038186,0.00033596,-0.00013792,0.00032617,0.00007812,-0.00024
 274,0.00017046,0.00082780,-0.00034773,0.00013389,0.00000851,-0.0001144
 1,0.00004010,-0.01252605,0.01053435,-0.01340751,0.01139472,-0.00794348
 ,0.00870936,0.16452475,-0.00007106,0.00029565,-0.00099121,-0.00097251,
 -0.00146388,-0.00224310,-0.00034328,0.00057661,-0.00039448,0.00023470,
 0.00023795,-0.00018378,-0.00005959,0.00002985,-0.00006454,-0.00001976,
 -0.00012104,0.00009882,0.00067730,0.00017916,0.00086361,-0.00008071,-0
 .00001407,0.00015186,0.00009522,-0.00004900,0.00006523,-0.00006773,0.0
 0005147,-0.00000838,0.00000226,-0.00000969,-0.00000265,0.00000638,-0.0
 0000607,0.00000264,-0.00000011,-0.00001738,-0.00000709,0.00000531,-0.0
 0000314,0.00002493,-0.00008427,0.00003941,-0.00003115,-0.00000487,0.00
 000500,0.00000547,0.00000137,0.00000760,-0.00000044,0.00000926,-0.0000
 1017,0.00000159,0.00000109,0.00000612,-0.00000316,-0.00000654,0.000001
 90,-0.00000304,0.00001046,-0.00001062,0.00000418,-0.00000434,0.0000162
 5,0.00001168,0.00001503,-0.00001544,0.00000609,-0.00000551,0.00000701,
 -0.00001057,-0.01267283,0.00783467,-0.01077429,-0.00022771,0.00119716,
 -0.00050361,-0.00078630,0.00070373,-0.00007621,0.08555508,-0.11508839,
 0.07153526,-0.00013099,-0.00014235,-0.00000910,-0.00001689,-0.00008722
 ,0.00013831,0.00005326,0.00000432,0.00001374,0.00024084,0.00031843,-0.
 00002284,-0.00018589,0.00024916,0.00026982,0.00003615,0.00009653,-0.00
 005860,0.00016487,-0.00010304,0.00001875,0.00684600,-0.00758995,0.0081
 5786,0.01566539,-0.01212033,0.01111541,-0.09387907,0.12499379,-0.00005
 924,0.00026730,-0.00206980,-0.00128014,-0.00399530,-0.00298389,-0.0009
 5876,0.00025360,0.00069571,0.00037945,0.00033918,0.00009199,-0.0000513
 2,0.00004370,-0.00025910,0.00053874,-0.00028848,0.00023975,0.00081204,
 0.00004771,0.00164502,-0.00012505,0.00004737,-0.00031183,-0.00036752,0
 .00012453,0.00015873,0.00012617,-0.00012492,0.00006444,-0.00001509,0.0
 0002391,-0.00001479,-0.00000843,0.00002064,-0.00001910,-0.00002089,0.0
 0003528,-0.00002210,-0.00003042,0.00000131,-0.00002595,-0.00000390,0.0
 0004737,-0.00002509,0.00000744,-0.00000189,0.00000156,0.00000180,-0.00
 000980,-0.00000097,-0.00001576,0.00001733,0.00000476,0.00000405,-0.000
 00688,0.00000785,0.00001699,-0.00000852,0.00001622,-0.00002347,0.00002
 301,-0.00000384,0.00000417,-0.00000455,0.00000781,-0.00001313,0.000033
 52,-0.00000179,0.00000426,-0.00003075,0.00001098,-0.01411075,0.0113949
 5,-0.01299635,0.00084006,0.00121594,0.00046952,-0.00088690,0.00154152,
 0.00026748,-0.08565047,0.07015972,-0.11783000,-0.00004466,-0.00018999,
 -0.00013204,0.00003624,-0.00000581,0.00004451,0.00007472,-0.00058748,0
 .00060396,0.00031384,-0.00008182,0.00006394,0.00031238,-0.00004848,0.0
 0044737,0.00066422,-0.00094719,0.00000612,-0.00002945,-0.00000074,-0.0
 0012237,0.01090487,-0.01007226,0.01273001,-0.01058609,0.00786403,-0.00
 914355,0.09923999,-0.07709703,0.12838485\\-0.00000360,0.00000381,0.000
 01119,0.00000385,-0.00000371,-0.00000228,-0.00000191,0.00000181,0.0000
 0170,0.00000068,-0.00000237,-0.00000526,-0.00000112,-0.00000028,0.0000
 0161,0.00000595,-0.00000369,-0.00000727,0.00000452,-0.00000413,-0.0000
 0389,-0.00000086,0.00000089,0.00000192,-0.00000122,0.00000281,0.000006
 36,-0.00000127,0.00000184,-0.00000426,0.00000052,0.00000167,-0.0000002
 2,0.00000052,0.00000085,0.00000329,-0.00000242,0.00000112,0.00000070,-
 0.00000128,-0.00000003,0.00000061,-0.00000166,-0.00000213,-0.00000173,
 0.00000054,-0.00000013,0.00000024,0.00000025,-0.00000045,0.00000029,0.
 00000018,-0.00000016,0.00000027,-0.00000063,0.00000035,0.00000063,-0.0
 0000028,0.00000002,0.00000067,-0.00000159,0.00000036,-0.00000045,0.000
 00014,-0.00000059,0.00000033,0.00000024,0.00000096,0.00000014,-0.00000
 060,0.00000049,0.00000049,-0.00000020,0.00000047,-0.00000064,-0.000000
 78,0.00000038,-0.00000198,-0.00000263,0.00000127,0.00000088,0.00000056
 ,0.00000120,-0.00000133,0.00000027,-0.00000020,-0.00000043,0.00000074,
 -0.00000015,0.00000014,0.00000035,-0.00000051,0.00000061,0.00000036,0.
 00000002,0.00000017,0.00000010,-0.00000058,-0.00000010,0.00000050,-0.0
 0000021,-0.00000086,-0.00000027,0.00000033,-0.00000096,0.00000078,-0.0
 0000060,-0.00000038,0.00000018,-0.00000048,-0.00000045,0.00000106,-0.0
 0000026,0.00000024\\\@


 YE HAVE SOWN MUCH, AND BRING IN LITTLE.
 YE EAT, BUT YE HAVE NOT ENOUGH.
 YE DRINK, BUT YE ARE NOT FILLED WITH DRINK.
 YE CLOTHE YOU, BUT THERE IS NONE WARM.
 AND HE THAT EARNETH WAGES EARNETH WAGES TO PUT
 IT INTO A BAG WITH HOLES.
                                     HAGGAI I,6
 Job cpu time:       0 days  6 hours 53 minutes 42.1 seconds.
 Elapsed time:       0 days  1 hours  0 minutes 23.3 seconds.
 File lengths (MBytes):  RWF=   1810 Int=      0 D2E=      0 Chk=     32 Scr=      1
 Normal termination of Gaussian 16 at Thu Dec 21 03:39:30 2023.
