 Entering Gaussian System, Link 0=g16
 Input=187-rad.com
 Output=187-rad.log
 Initial command:
 /sysapps/ubuntu-applications/gaussian/Gaussian/AVX2/g16/l1.exe "/scratch/selhajj1/4261013/Gau-4127324.inp" -scrdir="/scratch/selhajj1/4261013/"
 Entering Link 1 = /sysapps/ubuntu-applications/gaussian/Gaussian/AVX2/g16/l1.exe PID=   4127339.
  
 Copyright (c) 1988,1990,1992,1993,1995,1998,2003,2009,2016,
            Gaussian, Inc.  All Rights Reserved.
  
 This is part of the Gaussian(R) 16 program.  It is based on
 the Gaussian(R) 09 system (copyright 2009, Gaussian, Inc.),
 the Gaussian(R) 03 system (copyright 2003, Gaussian, Inc.),
 the Gaussian(R) 98 system (copyright 1998, Gaussian, Inc.),
 the Gaussian(R) 94 system (copyright 1995, Gaussian, Inc.),
 the Gaussian 92(TM) system (copyright 1992, Gaussian, Inc.),
 the Gaussian 90(TM) system (copyright 1990, Gaussian, Inc.),
 the Gaussian 88(TM) system (copyright 1988, Gaussian, Inc.),
 the Gaussian 86(TM) system (copyright 1986, Carnegie Mellon
 University), and the Gaussian 82(TM) system (copyright 1983,
 Carnegie Mellon University). Gaussian is a federally registered
 trademark of Gaussian, Inc.
  
 This software contains proprietary and confidential information,
 including trade secrets, belonging to Gaussian, Inc.
  
 This software is provided under written license and may be
 used, copied, transmitted, or stored only in accord with that
 written license.
  
 The following legend is applicable only to US Government
 contracts under FAR:
  
                    RESTRICTED RIGHTS LEGEND
  
 Use, reproduction and disclosure by the US Government is
 subject to restrictions as set forth in subparagraphs (a)
 and (c) of the Commercial Computer Software - Restricted
 Rights clause in FAR 52.227-19.
  
 Gaussian, Inc.
 340 Quinnipiac St., Bldg. 40, Wallingford CT 06492
  
  
 ---------------------------------------------------------------
 Warning -- This program may not be used in any manner that
 competes with the business of Gaussian, Inc. or will provide
 assistance to any competitor of Gaussian, Inc.  The licensee
 of this program is prohibited from giving any competitor of
 Gaussian, Inc. access to this program.  By using this program,
 the user acknowledges that Gaussian, Inc. is engaged in the
 business of creating and licensing software in the field of
 computational chemistry and represents and warrants to the
 licensee that it is not a competitor of Gaussian, Inc. and that
 it will not use this program in any manner prohibited above.
 ---------------------------------------------------------------
  

 Cite this work as:
 Gaussian 16, Revision A.03,
 M. J. Frisch, G. W. Trucks, H. B. Schlegel, G. E. Scuseria, 
 M. A. Robb, J. R. Cheeseman, G. Scalmani, V. Barone, 
 G. A. Petersson, H. Nakatsuji, X. Li, M. Caricato, A. V. Marenich, 
 J. Bloino, B. G. Janesko, R. Gomperts, B. Mennucci, H. P. Hratchian, 
 J. V. Ortiz, A. F. Izmaylov, J. L. Sonnenberg, D. Williams-Young, 
 F. Ding, F. Lipparini, F. Egidi, J. Goings, B. Peng, A. Petrone, 
 T. Henderson, D. Ranasinghe, V. G. Zakrzewski, J. Gao, N. Rega, 
 G. Zheng, W. Liang, M. Hada, M. Ehara, K. Toyota, R. Fukuda, 
 J. Hasegawa, M. Ishida, T. Nakajima, Y. Honda, O. Kitao, H. Nakai, 
 T. Vreven, K. Throssell, J. A. Montgomery, Jr., J. E. Peralta, 
 F. Ogliaro, M. J. Bearpark, J. J. Heyd, E. N. Brothers, K. N. Kudin, 
 V. N. Staroverov, T. A. Keith, R. Kobayashi, J. Normand, 
 K. Raghavachari, A. P. Rendell, J. C. Burant, S. S. Iyengar, 
 J. Tomasi, M. Cossi, J. M. Millam, M. Klene, C. Adamo, R. Cammi, 
 J. W. Ochterski, R. L. Martin, K. Morokuma, O. Farkas, 
 J. B. Foresman, and D. J. Fox, Gaussian, Inc., Wallingford CT, 2016.
 
 ******************************************
 Gaussian 16:  ES64L-G16RevA.03 25-Dec-2016
                 7-Jan-2024 
 ******************************************
 %chk=187-rad.chk
 %nproc=8
 Will use up to    8 processors via shared memory.
 %mem=30GB
 --------------------------------------
 #P UB3LYP/6-311++G(d,p) nosym opt freq
 --------------------------------------
 1/18=20,19=15,26=3,38=1/1,3;
 2/9=110,12=2,15=1,17=6,18=5,40=1/2;
 3/5=4,6=6,7=1111,11=2,25=1,30=1,71=1,74=-5,116=2/1,2,3;
 4//1;
 5/5=2,38=5/2;
 6/7=2,8=2,9=2,10=2,28=1/1;
 7/30=1/1,2,3,16;
 1/18=20,19=15,26=3/3(2);
 2/9=110,15=1/2;
 99//99;
 2/9=110,15=1/2;
 3/5=4,6=6,7=1111,11=2,25=1,30=1,71=1,74=-5,116=2/1,2,3;
 4/5=5,16=3,69=1/1;
 5/5=2,38=5/2;
 7/30=1/1,2,3,16;
 1/18=20,19=15,26=3/3(-5);
 2/9=110,15=1/2;
 6/7=2,8=2,9=2,10=2,19=2,28=1/1;
 99/9=1/99;
 Leave Link    1 at Sun Jan  7 04:55:25 2024, MaxMem=  4026531840 cpu:               1.3 elap:               0.3
 (Enter /sysapps/ubuntu-applications/gaussian/Gaussian/AVX2/g16/l101.exe)
 -------
 Radical
 -------
 Symbolic Z-matrix:
 Charge = -1 Multiplicity = 2
 O                    -2.29129  -2.68658  -0.434 
 C                    -2.34038  -1.33611  -0.20288 
 C                    -3.57496  -0.71461  -0.08326 
 C                    -3.66561   0.66912   0.15404 
 C                    -2.51673   1.41813   0.26941 
 C                    -1.24572   0.81593   0.15268 
 C                    -0.07406   1.68567   0.28849 
 O                    -0.19408   2.91731   0.49989 
 C                     1.23865   1.05228   0.1662 
 C                     2.3979    1.84369   0.28894 
 C                     3.64999   1.26721   0.17709 
 C                     3.79027  -0.10842  -0.05932 
 C                     2.66252  -0.91416  -0.18487 
 O                     2.82143  -2.23212  -0.41167 
 C                     1.35292  -0.34514  -0.07365 
 C                     0.18739  -1.20898  -0.20869 
 O                     0.34495  -2.45662  -0.4238 
 C                    -1.12671  -0.59355  -0.0893 
 H                    -3.20096  -3.00053  -0.47771 
 H                    -4.47836  -1.31429  -0.17581 
 H                    -4.64214   1.13474   0.24423 
 H                    -2.54383   2.48491   0.45189 
 H                     2.2691    2.90302   0.47125 
 H                     4.54045   1.8823    0.27261 
 H                     4.76654  -0.57188  -0.14892 
 H                     1.87274  -2.59135  -0.46284 
 
 ITRead=  0  0  0  0  0  0  0  0  0  0  0  0  0  0  0  0  0  0  0  0
 ITRead=  0  0  0  0  0  0
 MicOpt= -1 -1 -1 -1 -1 -1 -1 -1 -1 -1 -1 -1 -1 -1 -1 -1 -1 -1 -1 -1
 MicOpt= -1 -1 -1 -1 -1 -1
 NAtoms=     26 NQM=       26 NQMF=       0 NMMI=      0 NMMIF=      0
                NMic=       0 NMicF=      0.
                    Isotopes and Nuclear Properties:
 (Nuclear quadrupole moments (NQMom) in fm**2, nuclear magnetic moments (NMagM)
  in nuclear magnetons)

  Atom         1           2           3           4           5           6           7           8           9          10
 IAtWgt=          16          12          12          12          12          12          12          16          12          12
 AtmWgt=  15.9949146  12.0000000  12.0000000  12.0000000  12.0000000  12.0000000  12.0000000  15.9949146  12.0000000  12.0000000
 NucSpn=           0           0           0           0           0           0           0           0           0           0
 AtZEff=  -0.0000000  -0.0000000  -0.0000000  -0.0000000  -0.0000000  -0.0000000  -0.0000000  -0.0000000  -0.0000000  -0.0000000
 NQMom=    0.0000000   0.0000000   0.0000000   0.0000000   0.0000000   0.0000000   0.0000000   0.0000000   0.0000000   0.0000000
 NMagM=    0.0000000   0.0000000   0.0000000   0.0000000   0.0000000   0.0000000   0.0000000   0.0000000   0.0000000   0.0000000
 AtZNuc=   8.0000000   6.0000000   6.0000000   6.0000000   6.0000000   6.0000000   6.0000000   8.0000000   6.0000000   6.0000000

  Atom        11          12          13          14          15          16          17          18          19          20
 IAtWgt=          12          12          12          16          12          12          16          12           1           1
 AtmWgt=  12.0000000  12.0000000  12.0000000  15.9949146  12.0000000  12.0000000  15.9949146  12.0000000   1.0078250   1.0078250
 NucSpn=           0           0           0           0           0           0           0           0           1           1
 AtZEff=  -0.0000000  -0.0000000  -0.0000000  -0.0000000  -0.0000000  -0.0000000  -0.0000000  -0.0000000  -0.0000000  -0.0000000
 NQMom=    0.0000000   0.0000000   0.0000000   0.0000000   0.0000000   0.0000000   0.0000000   0.0000000   0.0000000   0.0000000
 NMagM=    0.0000000   0.0000000   0.0000000   0.0000000   0.0000000   0.0000000   0.0000000   0.0000000   2.7928460   2.7928460
 AtZNuc=   6.0000000   6.0000000   6.0000000   8.0000000   6.0000000   6.0000000   8.0000000   6.0000000   1.0000000   1.0000000

  Atom        21          22          23          24          25          26
 IAtWgt=           1           1           1           1           1           1
 AtmWgt=   1.0078250   1.0078250   1.0078250   1.0078250   1.0078250   1.0078250
 NucSpn=           1           1           1           1           1           1
 AtZEff=  -0.0000000  -0.0000000  -0.0000000  -0.0000000  -0.0000000  -0.0000000
 NQMom=    0.0000000   0.0000000   0.0000000   0.0000000   0.0000000   0.0000000
 NMagM=    2.7928460   2.7928460   2.7928460   2.7928460   2.7928460   2.7928460
 AtZNuc=   1.0000000   1.0000000   1.0000000   1.0000000   1.0000000   1.0000000
 Leave Link  101 at Sun Jan  7 04:55:26 2024, MaxMem=  4026531840 cpu:               3.4 elap:               0.8
 (Enter /sysapps/ubuntu-applications/gaussian/Gaussian/AVX2/g16/l103.exe)

 GradGradGradGradGradGradGradGradGradGradGradGradGradGradGradGradGradGrad
 Berny optimization.
 Initialization pass.
                           ----------------------------
                           !    Initial Parameters    !
                           ! (Angstroms and Degrees)  !
 --------------------------                            --------------------------
 ! Name  Definition              Value          Derivative Info.                !
 --------------------------------------------------------------------------------
 ! R1    R(1,2)                  1.371          estimate D2E/DX2                !
 ! R2    R(1,19)                 0.9633         estimate D2E/DX2                !
 ! R3    R(2,3)                  1.3874         estimate D2E/DX2                !
 ! R4    R(2,18)                 1.4273         estimate D2E/DX2                !
 ! R5    R(3,4)                  1.4068         estimate D2E/DX2                !
 ! R6    R(3,20)                 1.0883         estimate D2E/DX2                !
 ! R7    R(4,5)                  1.3763         estimate D2E/DX2                !
 ! R8    R(4,21)                 1.0856         estimate D2E/DX2                !
 ! R9    R(5,6)                  1.4113         estimate D2E/DX2                !
 ! R10   R(5,22)                 1.0826         estimate D2E/DX2                !
 ! R11   R(6,7)                  1.4655         estimate D2E/DX2                !
 ! R12   R(6,18)                 1.435          estimate D2E/DX2                !
 ! R13   R(7,8)                  1.2554         estimate D2E/DX2                !
 ! R14   R(7,9)                  1.4627         estimate D2E/DX2                !
 ! R15   R(9,10)                 1.409          estimate D2E/DX2                !
 ! R16   R(9,15)                 1.4224         estimate D2E/DX2                !
 ! R17   R(10,11)                1.383          estimate D2E/DX2                !
 ! R18   R(10,23)                1.0826         estimate D2E/DX2                !
 ! R19   R(11,12)                1.4028         estimate D2E/DX2                !
 ! R20   R(11,24)                1.0865         estimate D2E/DX2                !
 ! R21   R(12,13)                1.3917         estimate D2E/DX2                !
 ! R22   R(12,25)                1.0844         estimate D2E/DX2                !
 ! R23   R(13,14)                1.3467         estimate D2E/DX2                !
 ! R24   R(13,15)                1.4322         estimate D2E/DX2                !
 ! R25   R(14,26)                1.0157         estimate D2E/DX2                !
 ! R26   R(15,16)                1.457          estimate D2E/DX2                !
 ! R27   R(16,17)                1.2758         estimate D2E/DX2                !
 ! R28   R(16,18)                1.456          estimate D2E/DX2                !
 ! A1    A(2,1,19)             107.1497         estimate D2E/DX2                !
 ! A2    A(1,2,3)              119.1877         estimate D2E/DX2                !
 ! A3    A(1,2,18)             119.6976         estimate D2E/DX2                !
 ! A4    A(3,2,18)             121.1147         estimate D2E/DX2                !
 ! A5    A(2,3,4)              120.8299         estimate D2E/DX2                !
 ! A6    A(2,3,20)             118.9816         estimate D2E/DX2                !
 ! A7    A(4,3,20)             120.1885         estimate D2E/DX2                !
 ! A8    A(3,4,5)              119.7113         estimate D2E/DX2                !
 ! A9    A(3,4,21)             119.592          estimate D2E/DX2                !
 ! A10   A(5,4,21)             120.6967         estimate D2E/DX2                !
 ! A11   A(4,5,6)              120.8384         estimate D2E/DX2                !
 ! A12   A(4,5,22)             121.9713         estimate D2E/DX2                !
 ! A13   A(6,5,22)             117.1903         estimate D2E/DX2                !
 ! A14   A(5,6,7)              117.3305         estimate D2E/DX2                !
 ! A15   A(5,6,18)             120.5136         estimate D2E/DX2                !
 ! A16   A(7,6,18)             122.156          estimate D2E/DX2                !
 ! A17   A(6,7,8)              121.4273         estimate D2E/DX2                !
 ! A18   A(6,7,9)              116.9224         estimate D2E/DX2                !
 ! A19   A(8,7,9)              121.6503         estimate D2E/DX2                !
 ! A20   A(7,9,10)             119.2016         estimate D2E/DX2                !
 ! A21   A(7,9,15)             120.7718         estimate D2E/DX2                !
 ! A22   A(10,9,15)            120.0266         estimate D2E/DX2                !
 ! A23   A(9,10,11)            120.2458         estimate D2E/DX2                !
 ! A24   A(9,10,23)            117.8012         estimate D2E/DX2                !
 ! A25   A(11,10,23)           121.953          estimate D2E/DX2                !
 ! A26   A(10,11,12)           120.8592         estimate D2E/DX2                !
 ! A27   A(10,11,24)           119.9297         estimate D2E/DX2                !
 ! A28   A(12,11,24)           119.2111         estimate D2E/DX2                !
 ! A29   A(11,12,13)           120.1264         estimate D2E/DX2                !
 ! A30   A(11,12,25)           121.537          estimate D2E/DX2                !
 ! A31   A(13,12,25)           118.3366         estimate D2E/DX2                !
 ! A32   A(12,13,14)           119.0891         estimate D2E/DX2                !
 ! A33   A(12,13,15)           120.2618         estimate D2E/DX2                !
 ! A34   A(14,13,15)           120.6491         estimate D2E/DX2                !
 ! A35   A(13,14,26)           104.1461         estimate D2E/DX2                !
 ! A36   A(9,15,13)            118.4803         estimate D2E/DX2                !
 ! A37   A(9,15,16)            122.2638         estimate D2E/DX2                !
 ! A38   A(13,15,16)           119.256          estimate D2E/DX2                !
 ! A39   A(15,16,17)           119.7771         estimate D2E/DX2                !
 ! A40   A(15,16,18)           117.6313         estimate D2E/DX2                !
 ! A41   A(17,16,18)           122.5917         estimate D2E/DX2                !
 ! A42   A(2,18,6)             116.9921         estimate D2E/DX2                !
 ! A43   A(2,18,16)            122.7531         estimate D2E/DX2                !
 ! A44   A(6,18,16)            120.2549         estimate D2E/DX2                !
 ! D1    D(19,1,2,3)             0.0027         estimate D2E/DX2                !
 ! D2    D(19,1,2,18)         -179.9996         estimate D2E/DX2                !
 ! D3    D(1,2,3,4)            179.9985         estimate D2E/DX2                !
 ! D4    D(1,2,3,20)            -0.002          estimate D2E/DX2                !
 ! D5    D(18,2,3,4)             0.0009         estimate D2E/DX2                !
 ! D6    D(18,2,3,20)         -179.9996         estimate D2E/DX2                !
 ! D7    D(1,2,18,6)          -179.9991         estimate D2E/DX2                !
 ! D8    D(1,2,18,16)           -0.0004         estimate D2E/DX2                !
 ! D9    D(3,2,18,6)            -0.0015         estimate D2E/DX2                !
 ! D10   D(3,2,18,16)          179.9972         estimate D2E/DX2                !
 ! D11   D(2,3,4,5)             -0.0003         estimate D2E/DX2                !
 ! D12   D(2,3,4,21)          -179.9992         estimate D2E/DX2                !
 ! D13   D(20,3,4,5)          -179.9998         estimate D2E/DX2                !
 ! D14   D(20,3,4,21)            0.0013         estimate D2E/DX2                !
 ! D15   D(3,4,5,6)              0.0004         estimate D2E/DX2                !
 ! D16   D(3,4,5,22)          -179.9989         estimate D2E/DX2                !
 ! D17   D(21,4,5,6)           179.9993         estimate D2E/DX2                !
 ! D18   D(21,4,5,22)            0.0            estimate D2E/DX2                !
 ! D19   D(4,5,6,7)           -179.9969         estimate D2E/DX2                !
 ! D20   D(4,5,6,18)            -0.0011         estimate D2E/DX2                !
 ! D21   D(22,5,6,7)             0.0025         estimate D2E/DX2                !
 ! D22   D(22,5,6,18)          179.9982         estimate D2E/DX2                !
 ! D23   D(5,6,7,8)             -0.0161         estimate D2E/DX2                !
 ! D24   D(5,6,7,9)            179.9907         estimate D2E/DX2                !
 ! D25   D(18,6,7,8)           179.9882         estimate D2E/DX2                !
 ! D26   D(18,6,7,9)            -0.005          estimate D2E/DX2                !
 ! D27   D(5,6,18,2)             0.0016         estimate D2E/DX2                !
 ! D28   D(5,6,18,16)         -179.9971         estimate D2E/DX2                !
 ! D29   D(7,6,18,2)           179.9972         estimate D2E/DX2                !
 ! D30   D(7,6,18,16)           -0.0016         estimate D2E/DX2                !
 ! D31   D(6,7,9,10)          -179.9926         estimate D2E/DX2                !
 ! D32   D(6,7,9,15)             0.0039         estimate D2E/DX2                !
 ! D33   D(8,7,9,10)             0.0142         estimate D2E/DX2                !
 ! D34   D(8,7,9,15)          -179.9893         estimate D2E/DX2                !
 ! D35   D(7,9,10,11)          179.9964         estimate D2E/DX2                !
 ! D36   D(7,9,10,23)           -0.0013         estimate D2E/DX2                !
 ! D37   D(15,9,10,11)          -0.0002         estimate D2E/DX2                !
 ! D38   D(15,9,10,23)        -179.9979         estimate D2E/DX2                !
 ! D39   D(7,9,15,13)         -179.9981         estimate D2E/DX2                !
 ! D40   D(7,9,15,16)            0.0038         estimate D2E/DX2                !
 ! D41   D(10,9,15,13)          -0.0016         estimate D2E/DX2                !
 ! D42   D(10,9,15,16)        -179.9997         estimate D2E/DX2                !
 ! D43   D(9,10,11,12)           0.0004         estimate D2E/DX2                !
 ! D44   D(9,10,11,24)        -179.9989         estimate D2E/DX2                !
 ! D45   D(23,10,11,12)        179.998          estimate D2E/DX2                !
 ! D46   D(23,10,11,24)         -0.0013         estimate D2E/DX2                !
 ! D47   D(10,11,12,13)          0.0013         estimate D2E/DX2                !
 ! D48   D(10,11,12,25)        179.9996         estimate D2E/DX2                !
 ! D49   D(24,11,12,13)       -179.9995         estimate D2E/DX2                !
 ! D50   D(24,11,12,25)         -0.0011         estimate D2E/DX2                !
 ! D51   D(11,12,13,14)        179.9984         estimate D2E/DX2                !
 ! D52   D(11,12,13,15)         -0.0031         estimate D2E/DX2                !
 ! D53   D(25,12,13,14)          0.0            estimate D2E/DX2                !
 ! D54   D(25,12,13,15)        179.9985         estimate D2E/DX2                !
 ! D55   D(12,13,14,26)        179.9979         estimate D2E/DX2                !
 ! D56   D(15,13,14,26)         -0.0006         estimate D2E/DX2                !
 ! D57   D(12,13,15,9)           0.0032         estimate D2E/DX2                !
 ! D58   D(12,13,15,16)       -179.9986         estimate D2E/DX2                !
 ! D59   D(14,13,15,9)        -179.9983         estimate D2E/DX2                !
 ! D60   D(14,13,15,16)         -0.0002         estimate D2E/DX2                !
 ! D61   D(9,15,16,17)         179.9811         estimate D2E/DX2                !
 ! D62   D(9,15,16,18)          -0.0103         estimate D2E/DX2                !
 ! D63   D(13,15,16,17)         -0.017          estimate D2E/DX2                !
 ! D64   D(13,15,16,18)        179.9916         estimate D2E/DX2                !
 ! D65   D(15,16,18,2)        -179.9896         estimate D2E/DX2                !
 ! D66   D(15,16,18,6)           0.0091         estimate D2E/DX2                !
 ! D67   D(17,16,18,2)           0.0193         estimate D2E/DX2                !
 ! D68   D(17,16,18,6)        -179.9821         estimate D2E/DX2                !
 --------------------------------------------------------------------------------
 Trust Radius=3.00D-01 FncErr=1.00D-07 GrdErr=1.00D-06 EigMax=2.50D+02 EigMin=1.00D-04
 Number of steps in this run=    150 maximum allowed number of steps=    156.
 GradGradGradGradGradGradGradGradGradGradGradGradGradGradGradGradGradGrad

 Leave Link  103 at Sun Jan  7 04:55:26 2024, MaxMem=  4026531840 cpu:               0.5 elap:               0.2
 (Enter /sysapps/ubuntu-applications/gaussian/Gaussian/AVX2/g16/l202.exe)
                          Input orientation:                          
 ---------------------------------------------------------------------
 Center     Atomic      Atomic             Coordinates (Angstroms)
 Number     Number       Type             X           Y           Z
 ---------------------------------------------------------------------
      1          8           0       -2.291291   -2.686575   -0.434002
      2          6           0       -2.340382   -1.336108   -0.202875
      3          6           0       -3.574961   -0.714606   -0.083256
      4          6           0       -3.665605    0.669116    0.154035
      5          6           0       -2.516734    1.418133    0.269405
      6          6           0       -1.245723    0.815928    0.152681
      7          6           0       -0.074059    1.685674    0.288492
      8          8           0       -0.194081    2.917312    0.499894
      9          6           0        1.238650    1.052276    0.166200
     10          6           0        2.397902    1.843694    0.288935
     11          6           0        3.649990    1.267212    0.177093
     12          6           0        3.790270   -0.108422   -0.059321
     13          6           0        2.662524   -0.914155   -0.184873
     14          8           0        2.821430   -2.232119   -0.411670
     15          6           0        1.352915   -0.345139   -0.073651
     16          6           0        0.187388   -1.208980   -0.208693
     17          8           0        0.344945   -2.456615   -0.423801
     18          6           0       -1.126705   -0.593548   -0.089303
     19          1           0       -3.200961   -3.000530   -0.477707
     20          1           0       -4.478364   -1.314288   -0.175807
     21          1           0       -4.642143    1.134736    0.244229
     22          1           0       -2.543833    2.484905    0.451894
     23          1           0        2.269104    2.903023    0.471245
     24          1           0        4.540449    1.882304    0.272614
     25          1           0        4.766535   -0.571876   -0.148916
     26          1           0        1.872738   -2.591353   -0.462842
 ---------------------------------------------------------------------
                    Distance matrix (angstroms):
                    1          2          3          4          5
     1  O    0.000000
     2  C    1.370982   0.000000
     3  C    2.378969   1.387357   0.000000
     4  C    3.673580   2.429923   1.406844   0.000000
     5  C    4.170639   2.799999   2.406822   1.376314   0.000000
     6  C    3.702018   2.440483   2.797061   2.424332   1.411292
     7  C    4.955268   3.809046   4.260969   3.735060   2.457357
     8  O    6.055906   4.815815   4.996123   4.150359   2.774055
     9  C    5.176846   4.318572   5.133707   4.919215   3.774574
    10  C    6.560069   5.727508   6.508342   6.177698   4.933065
    11  C    7.162729   6.542645   7.496353   7.340040   6.169261
    12  C    6.616090   6.254016   7.390173   7.499344   6.497440
    13  C    5.267240   5.020701   6.241503   6.531985   5.698302
    14  O    5.132928   5.243161   6.582136   7.128731   6.502630
    15  C    4.346540   3.826116   4.941716   5.125046   4.266263
    16  C    2.894460   2.530971   3.796763   4.301671   3.800339
    17  O    2.646266   2.918103   4.303049   5.117480   4.866561
    18  C    2.419884   1.427342   2.451255   2.845970   2.471379
    19  H    0.963316   1.893787   2.349663   3.752505   4.533313
    20  H    2.594827   2.138265   1.088265   2.168701   3.392983
    21  H    4.537502   3.406329   2.160136   1.085617   2.144367
    22  H    5.252884   3.882043   3.403892   2.155036   1.082608
    23  H    7.270508   6.298574   6.895492   6.349152   5.014966
    24  H    8.249038   7.611183   8.528216   8.296096   7.072432
    25  H    7.373339   7.148093   8.342975   8.528354   7.561821
    26  H    4.165217   4.403817   5.774399   6.456349   5.989961
                    6          7          8          9         10
     6  C    0.000000
     7  C    1.465503   0.000000
     8  O    2.375357   1.255400   0.000000
     9  C    2.495627   1.462653   2.375380   0.000000
    10  C    3.788254   2.477007   2.813456   1.408997   0.000000
    11  C    4.916529   3.749141   4.195702   2.420925   1.382955
    12  C    5.124509   4.274669   5.034167   2.812267   2.422958
    13  C    4.287368   3.804218   4.827964   2.453063   2.810738
    14  O    5.113787   4.921706   6.036629   3.691392   4.157220
    15  C    2.855210   2.508307   3.655918   1.422446   2.452439
    16  C    2.506921   2.948655   4.204034   2.521701   3.801687
    17  O    3.684032   4.223918   5.479311   3.668668   4.818224
    18  C    1.435042   2.538828   3.680092   2.892909   4.301868
    19  H    4.334247   5.685515   6.709537   6.045659   7.443219
    20  H    3.885318   5.349135   6.059545   6.196922   7.581020
    21  H    3.412578   4.601400   4.798770   5.881889   7.075794
    22  H    2.135440   2.601010   2.389689   4.054778   4.985825
    23  H    4.100178   2.646838   2.463393   2.140129   1.082591
    24  H    5.884839   4.618723   4.851667   3.406192   2.142957
    25  H    6.177719   5.359031   6.099434   3.896555   3.411321
    26  H    4.659746   4.758937   5.961878   3.751506   4.528864
                   11         12         13         14         15
    11  C    0.000000
    12  C    1.402832   0.000000
    13  C    2.421667   1.391682   0.000000
    14  O    3.643964   2.360697   1.346743   0.000000
    15  C    2.817641   2.448865   1.432210   2.414847   0.000000
    16  C    4.274339   3.770185   2.492747   2.833053   1.457021
    17  O    5.015106   4.185346   2.794180   2.486669   2.365785
    18  C    5.133246   4.940940   3.803969   4.286794   2.492081
    19  H    8.098019   7.577377   6.230503   6.071574   5.286979
    20  H    8.535738   8.356913   7.152095   7.361049   5.912149
    21  H    8.293463   8.528961   7.598700   8.214063   6.183187
    22  H    6.318365   6.863494   6.250219   7.195978   4.844584
    23  H    2.160845   3.415296   3.893086   5.239684   3.418606
    24  H    1.086453   2.153123   3.399423   4.511291   3.904072
    25  H    2.176051   1.084394   2.131973   2.570774   3.421970
    26  H    4.296122   3.163021   1.874572   1.015719   2.338197
                   16         17         18         19         20
    16  C    0.000000
    17  O    1.275809   0.000000
    18  C    1.455971   2.397637   0.000000
    19  H    3.842256   3.587785   3.201087   0.000000
    20  H    4.667056   4.962935   3.429368   2.136894   0.000000
    21  H    5.387255   6.181837   3.931477   4.438313   2.490175
    22  H    4.641199   5.790553   3.431912   5.602318   4.309325
    23  H    4.658801   5.764479   4.906296   8.103953   7.983277
    24  H    5.360675   6.075645   6.194955   9.183381   9.579054
    25  H    4.623642   4.814381   5.893581   8.335914   9.274700
    26  H    2.194528   1.534220   3.623177   5.090193   6.484580
                   21         22         23         24         25
    21  H    0.000000
    22  H    2.503794   0.000000
    23  H    7.137486   4.831103   0.000000
    24  H    9.213016   7.112125   2.498065   0.000000
    25  H    9.570283   7.946469   4.323966   2.500360   0.000000
    26  H    7.538393   6.790526   5.587288   5.260341   3.542725
                   26
    26  H    0.000000
 Symmetry turned off by external request.
 Stoichiometry    C14H8O4(1-,2)
 Framework group  C1[X(C14H8O4)]
 Deg. of freedom    72
 Full point group                 C1      NOp   1
 Rotational constants (GHZ):           0.7412200           0.3753416           0.2491673
 Leave Link  202 at Sun Jan  7 04:55:26 2024, MaxMem=  4026531840 cpu:               0.7 elap:               0.2
 (Enter /sysapps/ubuntu-applications/gaussian/Gaussian/AVX2/g16/l301.exe)
 Standard basis: 6-311++G(d,p) (5D, 7F)
 Ernie: Thresh=  0.10000D-02 Tol=  0.10000D-05 Strict=F.
   452 basis functions,   720 primitive gaussians,   470 cartesian basis functions
    63 alpha electrons       62 beta electrons
       nuclear repulsion energy      1236.3706371930 Hartrees.
 IExCor=  402 DFT=T Ex+Corr=B3LYP ExCW=0 ScaHFX=  0.200000
 ScaDFX=  0.800000  0.720000  1.000000  0.810000 ScalE2=  1.000000  1.000000
 IRadAn=      5 IRanWt=     -1 IRanGd=            0 ICorTp=0 IEmpDi=  4
 NAtoms=   26 NActive=   26 NUniq=   26 SFac= 1.00D+00 NAtFMM=   60 NAOKFM=F Big=F
 Integral buffers will be    131072 words long.
 Raffenetti 2 integral format.
 Two-electron integral symmetry is turned off.
 Leave Link  301 at Sun Jan  7 04:55:26 2024, MaxMem=  4026531840 cpu:               0.6 elap:               0.2
 (Enter /sysapps/ubuntu-applications/gaussian/Gaussian/AVX2/g16/l302.exe)
 NPDir=0 NMtPBC=     1 NCelOv=     1 NCel=       1 NClECP=     1 NCelD=      1
         NCelK=      1 NCelE2=     1 NClLst=     1 CellRange=     0.0.
 One-electron integrals computed using PRISM.
 NBasis=   452 RedAO= T EigKep=  1.34D-06  NBF=   452
 NBsUse=   445 1.00D-06 EigRej=  7.13D-07 NBFU=   445
 Precomputing XC quadrature grid using
 IXCGrd= 4 IRadAn=           5 IRanWt=          -1 IRanGd=           0 AccXCQ= 0.00D+00.
 Generated NRdTot=       0 NPtTot=           0 NUsed=           0 NTot=          32
 NSgBfM=   470   470   470   470   470 MxSgAt=    26 MxSgA2=    26.
 Leave Link  302 at Sun Jan  7 04:55:27 2024, MaxMem=  4026531840 cpu:               4.6 elap:               0.7
 (Enter /sysapps/ubuntu-applications/gaussian/Gaussian/AVX2/g16/l303.exe)
 DipDrv:  MaxL=1.
 Leave Link  303 at Sun Jan  7 04:55:27 2024, MaxMem=  4026531840 cpu:               1.0 elap:               0.3
 (Enter /sysapps/ubuntu-applications/gaussian/Gaussian/AVX2/g16/l401.exe)
 ExpMin= 3.60D-02 ExpMax= 8.59D+03 ExpMxC= 1.30D+03 IAcc=3 IRadAn=         5 AccDes= 0.00D+00
 Harris functional with IExCor=  402 and IRadAn=       5 diagonalized for initial guess.
 HarFok:  IExCor=  402 AccDes= 0.00D+00 IRadAn=         5 IDoV= 1 UseB2=F ITyADJ=14
 ICtDFT=  3500011 ScaDFX=  1.000000  1.000000  1.000000  1.000000
 FoFCou: FMM=F IPFlag=           0 FMFlag=      100000 FMFlg1=           0
         NFxFlg=           0 DoJE=T BraDBF=F KetDBF=T FulRan=T
         wScrn=  0.000000 ICntrl=       500 IOpCl=  0 I1Cent=   200000004 NGrid=           0
         NMat0=    1 NMatS0=      1 NMatT0=    0 NMatD0=    1 NMtDS0=    0 NMtDT0=    0
 Symmetry not used in FoFCou.
 Harris En= -839.687222897306    
 JPrj=0 DoOrth=F DoCkMO=F.
 Initial guess <Sx>= 0.0000 <Sy>= 0.0000 <Sz>= 0.5000 <S**2>= 0.7500 S= 0.5000
 Leave Link  401 at Sun Jan  7 04:55:31 2024, MaxMem=  4026531840 cpu:              24.6 elap:               3.3
 (Enter /sysapps/ubuntu-applications/gaussian/Gaussian/AVX2/g16/l502.exe)
 Two-electron integral symmetry not used.
 UHF open shell SCF:
 Using DIIS extrapolation, IDIIS=  1040.
 NGot=  4026531840 LenX=  4026083004 LenY=  4025861634
 Requested convergence on RMS density matrix=1.00D-08 within 128 cycles.
 Requested convergence on MAX density matrix=1.00D-06.
 Requested convergence on             energy=1.00D-06.
 No special actions if energy rises.
 Fock matrices will be formed incrementally for  20 cycles.

 Cycle   1  Pass 1  IDiag  1:
 FoFJK:  IHMeth= 1 ICntrl=       0 DoSepK=F KAlg= 0 I1Cent=           0 FoldK=F
 IRaf= 860000000 NMat=       1 IRICut=       1 DoRegI=T DoRafI=F ISym2E= 0 IDoP0=0 IntGTp=1.
 FoFCou: FMM=F IPFlag=           0 FMFlag=      100000 FMFlg1=           0
         NFxFlg=           0 DoJE=F BraDBF=F KetDBF=F FulRan=T
         wScrn=  0.000000 ICntrl=         0 IOpCl=  1 I1Cent=           0 NGrid=           0
         NMat0=    1 NMatS0=      1 NMatT0=    0 NMatD0=    1 NMtDS0=    0 NMtDT0=    0
 Symmetry not used in FoFCou.
 E= -839.050697352360    
 DIIS: error= 4.03D-02 at cycle   1 NSaved=   1.
 NSaved= 1 IEnMin= 1 EnMin= -839.050697352360     IErMin= 1 ErrMin= 4.03D-02
 ErrMax= 4.03D-02  0.00D+00 EMaxC= 1.00D-01 BMatC= 2.29D+00 BMatP= 2.29D+00
 IDIUse=3 WtCom= 5.97D-01 WtEn= 4.03D-01
 Coeff-Com:  0.100D+01
 Coeff-En:   0.100D+01
 Coeff:      0.100D+01
 Gap=     0.075 Goal=   None    Shift=    0.000
 Gap=     0.145 Goal=   None    Shift=    0.000
 GapD=    0.075 DampG=0.500 DampE=0.500 DampFc=0.2500 IDamp=-1.
 Damping current iteration by 2.50D-01
 RMSDP=9.23D-01 MaxDP=1.01D+02              OVMax= 9.88D-01

 Cycle   2  Pass 1  IDiag  1:
 RMSU=  1.94D-01    CP:  3.00D+00
 E= -839.134249010561     Delta-E=       -0.083551658200 Rises=F Damp=T
 DIIS: error= 2.17D-02 at cycle   2 NSaved=   2.
 NSaved= 2 IEnMin= 2 EnMin= -839.134249010561     IErMin= 2 ErrMin= 2.17D-02
 ErrMax= 2.17D-02  0.00D+00 EMaxC= 1.00D-01 BMatC= 4.88D-01 BMatP= 2.29D+00
 IDIUse=3 WtCom= 7.83D-01 WtEn= 2.17D-01
 Coeff-Com: -0.360D+00 0.136D+01
 Coeff-En:   0.282D+00 0.718D+00
 Coeff:     -0.221D+00 0.122D+01
 Gap=     0.202 Goal=   None    Shift=    0.000
 Gap=    -0.171 Goal=   None    Shift=    0.000
 RMSDP=2.24D-01 MaxDP=2.38D+01 DE=-8.36D-02 OVMax= 7.31D-01

 Cycle   3  Pass 1  IDiag  1:
 RMSU=  1.22D-02    CP:  1.21D+00  4.73D-03
 E= -839.143527347028     Delta-E=       -0.009278336467 Rises=F Damp=F
 DIIS: error= 5.58D-02 at cycle   3 NSaved=   3.
 NSaved= 3 IEnMin= 3 EnMin= -839.143527347028     IErMin= 2 ErrMin= 2.17D-02
 ErrMax= 5.58D-02  0.00D+00 EMaxC= 1.00D-01 BMatC= 1.41D+00 BMatP= 4.88D-01
 IDIUse=2 WtCom= 0.00D+00 WtEn= 1.00D+00
 Coeff-En:   0.000D+00 0.491D+00 0.509D+00
 Coeff:      0.000D+00 0.491D+00 0.509D+00
 Gap=     0.093 Goal=   None    Shift=    0.000
 Gap=     0.191 Goal=   None    Shift=    0.000
 RMSDP=1.91D-02 MaxDP=1.29D+00 DE=-9.28D-03 OVMax= 7.08D-01

 Cycle   4  Pass 1  IDiag  1:
 RMSU=  1.64D-02    CP:  1.15D+00  3.29D-02  3.81D-01
 E= -839.147610060575     Delta-E=       -0.004082713548 Rises=F Damp=F
 DIIS: error= 6.27D-02 at cycle   4 NSaved=   4.
 NSaved= 4 IEnMin= 4 EnMin= -839.147610060575     IErMin= 2 ErrMin= 2.17D-02
 ErrMax= 6.27D-02  0.00D+00 EMaxC= 1.00D-01 BMatC= 1.48D+00 BMatP= 4.88D-01
 IDIUse=2 WtCom= 0.00D+00 WtEn= 1.00D+00
 Coeff-En:   0.000D+00 0.000D+00 0.498D+00 0.502D+00
 Coeff:      0.000D+00 0.000D+00 0.498D+00 0.502D+00
 Gap=     0.188 Goal=   None    Shift=    0.000
 Gap=     0.162 Goal=   None    Shift=    0.000
 RMSDP=1.62D-02 MaxDP=2.04D+00 DE=-4.08D-03 OVMax= 4.44D-01

 Cycle   5  Pass 1  IDiag  1:
 RMSU=  3.98D-03    CP:  1.03D+00  4.28D-03  4.76D-01  2.15D-01
 E= -839.490155751118     Delta-E=       -0.342545690542 Rises=F Damp=F
 DIIS: error= 1.48D-02 at cycle   5 NSaved=   5.
 NSaved= 5 IEnMin= 5 EnMin= -839.490155751118     IErMin= 5 ErrMin= 1.48D-02
 ErrMax= 1.48D-02  0.00D+00 EMaxC= 1.00D-01 BMatC= 1.36D-01 BMatP= 4.88D-01
 IDIUse=3 WtCom= 8.52D-01 WtEn= 1.48D-01
 Coeff-Com: -0.150D+00 0.322D+00 0.211D+00 0.157D+00 0.460D+00
 Coeff-En:   0.000D+00 0.000D+00 0.000D+00 0.159D-01 0.984D+00
 Coeff:     -0.128D+00 0.274D+00 0.180D+00 0.136D+00 0.538D+00
 Gap=     0.105 Goal=   None    Shift=    0.000
 Gap=     0.126 Goal=   None    Shift=    0.000
 RMSDP=2.76D-03 MaxDP=1.83D-01 DE=-3.43D-01 OVMax= 1.26D-01

 Cycle   6  Pass 1  IDiag  1:
 RMSU=  2.19D-03    CP:  1.06D+00  2.22D-03  5.22D-01  2.16D-01  7.95D-01
 E= -839.504275596458     Delta-E=       -0.014119845340 Rises=F Damp=F
 DIIS: error= 1.01D-02 at cycle   6 NSaved=   6.
 NSaved= 6 IEnMin= 6 EnMin= -839.504275596458     IErMin= 6 ErrMin= 1.01D-02
 ErrMax= 1.01D-02  0.00D+00 EMaxC= 1.00D-01 BMatC= 6.08D-02 BMatP= 1.36D-01
 IDIUse=3 WtCom= 8.99D-01 WtEn= 1.01D-01
 Coeff-Com: -0.136D+00 0.186D+00 0.862D-02 0.787D-02 0.438D+00 0.495D+00
 Coeff-En:   0.000D+00 0.000D+00 0.000D+00 0.000D+00 0.355D+00 0.645D+00
 Coeff:     -0.122D+00 0.167D+00 0.775D-02 0.708D-02 0.430D+00 0.511D+00
 Gap=     0.091 Goal=   None    Shift=    0.000
 Gap=     0.133 Goal=   None    Shift=    0.000
 RMSDP=1.53D-03 MaxDP=1.02D-01 DE=-1.41D-02 OVMax= 7.02D-02

 Cycle   7  Pass 1  IDiag  1:
 RMSU=  9.66D-04    CP:  1.04D+00  2.88D-03  5.32D-01  2.26D-01  9.65D-01
                    CP:  6.99D-01
 E= -839.518980547240     Delta-E=       -0.014704950782 Rises=F Damp=F
 DIIS: error= 4.41D-03 at cycle   7 NSaved=   7.
 NSaved= 7 IEnMin= 7 EnMin= -839.518980547240     IErMin= 7 ErrMin= 4.41D-03
 ErrMax= 4.41D-03  0.00D+00 EMaxC= 1.00D-01 BMatC= 5.31D-03 BMatP= 6.08D-02
 IDIUse=3 WtCom= 9.56D-01 WtEn= 4.41D-02
 Coeff-Com: -0.804D-01 0.102D+00-0.133D-01 0.227D-02 0.254D+00 0.328D+00
 Coeff-Com:  0.407D+00
 Coeff-En:   0.000D+00 0.000D+00 0.000D+00 0.000D+00 0.000D+00 0.000D+00
 Coeff-En:   0.100D+01
 Coeff:     -0.768D-01 0.976D-01-0.127D-01 0.217D-02 0.243D+00 0.313D+00
 Coeff:      0.433D+00
 Gap=     0.092 Goal=   None    Shift=    0.000
 Gap=     0.132 Goal=   None    Shift=    0.000
 RMSDP=5.81D-04 MaxDP=4.29D-02 DE=-1.47D-02 OVMax= 2.32D-02

 Cycle   8  Pass 1  IDiag  1:
 RMSU=  2.47D-04    CP:  1.04D+00  2.74D-03  5.13D-01  2.29D-01  9.57D-01
                    CP:  7.08D-01  7.26D-01
 E= -839.520443877432     Delta-E=       -0.001463330193 Rises=F Damp=F
 DIIS: error= 1.71D-03 at cycle   8 NSaved=   8.
 NSaved= 8 IEnMin= 8 EnMin= -839.520443877432     IErMin= 8 ErrMin= 1.71D-03
 ErrMax= 1.71D-03  0.00D+00 EMaxC= 1.00D-01 BMatC= 8.66D-04 BMatP= 5.31D-03
 IDIUse=3 WtCom= 9.83D-01 WtEn= 1.71D-02
 Coeff-Com: -0.290D-01 0.400D-01-0.904D-02 0.137D-02 0.404D-01 0.297D-01
 Coeff-Com:  0.120D+00 0.806D+00
 Coeff-En:   0.000D+00 0.000D+00 0.000D+00 0.000D+00 0.000D+00 0.000D+00
 Coeff-En:   0.000D+00 0.100D+01
 Coeff:     -0.285D-01 0.393D-01-0.888D-02 0.135D-02 0.397D-01 0.292D-01
 Coeff:      0.118D+00 0.809D+00
 Gap=     0.090 Goal=   None    Shift=    0.000
 Gap=     0.133 Goal=   None    Shift=    0.000
 RMSDP=2.60D-04 MaxDP=1.68D-02 DE=-1.46D-03 OVMax= 9.17D-03

 Cycle   9  Pass 1  IDiag  1:
 RMSU=  1.54D-04    CP:  1.04D+00  2.96D-03  5.10D-01  2.36D-01  9.91D-01
                    CP:  7.18D-01  7.76D-01  1.07D+00
 E= -839.520722352457     Delta-E=       -0.000278475025 Rises=F Damp=F
 DIIS: error= 5.44D-04 at cycle   9 NSaved=   9.
 NSaved= 9 IEnMin= 9 EnMin= -839.520722352457     IErMin= 9 ErrMin= 5.44D-04
 ErrMax= 5.44D-04  0.00D+00 EMaxC= 1.00D-01 BMatC= 1.57D-04 BMatP= 8.66D-04
 IDIUse=3 WtCom= 9.95D-01 WtEn= 5.44D-03
 Coeff-Com: -0.168D-02 0.516D-02-0.196D-02 0.671D-03-0.357D-01-0.688D-01
 Coeff-Com: -0.720D-01 0.460D+00 0.714D+00
 Coeff-En:   0.000D+00 0.000D+00 0.000D+00 0.000D+00 0.000D+00 0.000D+00
 Coeff-En:   0.000D+00 0.000D+00 0.100D+01
 Coeff:     -0.168D-02 0.514D-02-0.195D-02 0.667D-03-0.355D-01-0.684D-01
 Coeff:     -0.716D-01 0.458D+00 0.716D+00
 Gap=     0.089 Goal=   None    Shift=    0.000
 Gap=     0.133 Goal=   None    Shift=    0.000
 RMSDP=1.63D-04 MaxDP=1.65D-02 DE=-2.78D-04 OVMax= 5.42D-03

 Cycle  10  Pass 1  IDiag  1:
 RMSU=  9.53D-05    CP:  1.03D+00  2.73D-03  5.07D-01  2.36D-01  9.99D-01
                    CP:  7.21D-01  8.11D-01  1.29D+00  1.27D+00
 E= -839.520786608753     Delta-E=       -0.000064256296 Rises=F Damp=F
 DIIS: error= 1.44D-04 at cycle  10 NSaved=  10.
 NSaved=10 IEnMin=10 EnMin= -839.520786608753     IErMin=10 ErrMin= 1.44D-04
 ErrMax= 1.44D-04  0.00D+00 EMaxC= 1.00D-01 BMatC= 2.72D-05 BMatP= 1.57D-04
 IDIUse=3 WtCom= 9.99D-01 WtEn= 1.44D-03
 Coeff-Com:  0.309D-02-0.329D-02 0.120D-02-0.483D-03-0.178D-01-0.308D-01
 Coeff-Com: -0.633D-01 0.241D-01 0.395D+00 0.692D+00
 Coeff-En:   0.000D+00 0.000D+00 0.000D+00 0.000D+00 0.000D+00 0.000D+00
 Coeff-En:   0.000D+00 0.000D+00 0.000D+00 0.100D+01
 Coeff:      0.308D-02-0.328D-02 0.120D-02-0.482D-03-0.178D-01-0.308D-01
 Coeff:     -0.632D-01 0.241D-01 0.395D+00 0.693D+00
 Gap=     0.090 Goal=   None    Shift=    0.000
 Gap=     0.134 Goal=   None    Shift=    0.000
 RMSDP=6.77D-05 MaxDP=4.07D-03 DE=-6.43D-05 OVMax= 2.44D-03

 Cycle  11  Pass 1  IDiag  1:
 RMSU=  4.65D-05    CP:  1.03D+00  2.74D-03  5.08D-01  2.35D-01  9.97D-01
                    CP:  7.20D-01  8.20D-01  1.41D+00  1.44D+00  1.02D+00
 E= -839.520798691895     Delta-E=       -0.000012083142 Rises=F Damp=F
 DIIS: error= 1.10D-04 at cycle  11 NSaved=  11.
 NSaved=11 IEnMin=11 EnMin= -839.520798691895     IErMin=11 ErrMin= 1.10D-04
 ErrMax= 1.10D-04  0.00D+00 EMaxC= 1.00D-01 BMatC= 8.82D-06 BMatP= 2.72D-05
 IDIUse=3 WtCom= 9.99D-01 WtEn= 1.10D-03
 Coeff-Com:  0.954D-03-0.147D-02 0.141D-02-0.988D-03 0.434D-02 0.783D-02
 Coeff-Com:  0.104D-02-0.803D-01-0.577D-01 0.222D+00 0.903D+00
 Coeff-En:   0.000D+00 0.000D+00 0.000D+00 0.000D+00 0.000D+00 0.000D+00
 Coeff-En:   0.000D+00 0.000D+00 0.000D+00 0.000D+00 0.100D+01
 Coeff:      0.952D-03-0.147D-02 0.141D-02-0.987D-03 0.434D-02 0.782D-02
 Coeff:      0.104D-02-0.802D-01-0.577D-01 0.221D+00 0.903D+00
 Gap=     0.090 Goal=   None    Shift=    0.000
 Gap=     0.134 Goal=   None    Shift=    0.000
 RMSDP=5.01D-05 MaxDP=5.86D-03 DE=-1.21D-05 OVMax= 1.35D-03

 Cycle  12  Pass 1  IDiag  1:
 RMSU=  2.99D-05    CP:  1.03D+00  2.67D-03  5.08D-01  2.33D-01  9.96D-01
                    CP:  7.16D-01  8.24D-01  1.42D+00  1.42D+00  1.17D+00
                    CP:  1.14D+00
 E= -839.520802414486     Delta-E=       -0.000003722591 Rises=F Damp=F
 DIIS: error= 9.07D-05 at cycle  12 NSaved=  12.
 NSaved=12 IEnMin=12 EnMin= -839.520802414486     IErMin=12 ErrMin= 9.07D-05
 ErrMax= 9.07D-05  0.00D+00 EMaxC= 1.00D-01 BMatC= 3.79D-06 BMatP= 8.82D-06
 IDIUse=1 WtCom= 1.00D+00 WtEn= 0.00D+00
 Coeff-Com:  0.333D-04-0.281D-03 0.797D-03-0.832D-03 0.630D-02 0.111D-01
 Coeff-Com:  0.182D-01-0.495D-01-0.145D+00-0.548D-01 0.572D+00 0.642D+00
 Coeff:      0.333D-04-0.281D-03 0.797D-03-0.832D-03 0.630D-02 0.111D-01
 Coeff:      0.182D-01-0.495D-01-0.145D+00-0.548D-01 0.572D+00 0.642D+00
 Gap=     0.090 Goal=   None    Shift=    0.000
 Gap=     0.134 Goal=   None    Shift=    0.000
 RMSDP=1.83D-05 MaxDP=2.14D-03 DE=-3.72D-06 OVMax= 7.82D-04

 Cycle  13  Pass 1  IDiag  1:
 RMSU=  1.05D-05    CP:  1.03D+00  2.70D-03  5.09D-01  2.33D-01  9.95D-01
                    CP:  7.15D-01  8.22D-01  1.42D+00  1.47D+00  1.16D+00
                    CP:  1.28D+00  1.06D+00
 E= -839.520804002325     Delta-E=       -0.000001587840 Rises=F Damp=F
 DIIS: error= 2.38D-05 at cycle  13 NSaved=  13.
 NSaved=13 IEnMin=13 EnMin= -839.520804002325     IErMin=13 ErrMin= 2.38D-05
 ErrMax= 2.38D-05  0.00D+00 EMaxC= 1.00D-01 BMatC= 5.05D-07 BMatP= 3.79D-06
 IDIUse=1 WtCom= 1.00D+00 WtEn= 0.00D+00
 Coeff-Com: -0.239D-03 0.250D-03 0.152D-03-0.200D-03 0.140D-02 0.169D-02
 Coeff-Com:  0.702D-02-0.199D-03-0.404D-01-0.725D-01-0.396D-02 0.248D+00
 Coeff-Com:  0.859D+00
 Coeff:     -0.239D-03 0.250D-03 0.152D-03-0.200D-03 0.140D-02 0.169D-02
 Coeff:      0.702D-02-0.199D-03-0.404D-01-0.725D-01-0.396D-02 0.248D+00
 Coeff:      0.859D+00
 Gap=     0.090 Goal=   None    Shift=    0.000
 Gap=     0.134 Goal=   None    Shift=    0.000
 RMSDP=1.02D-05 MaxDP=8.44D-04 DE=-1.59D-06 OVMax= 3.59D-04

 Cycle  14  Pass 1  IDiag  1:
 RMSU=  3.94D-06    CP:  1.03D+00  2.69D-03  5.09D-01  2.33D-01  9.95D-01
                    CP:  7.14D-01  8.24D-01  1.43D+00  1.47D+00  1.18D+00
                    CP:  1.34D+00  1.19D+00  9.57D-01
 E= -839.520804292142     Delta-E=       -0.000000289817 Rises=F Damp=F
 DIIS: error= 2.65D-05 at cycle  14 NSaved=  14.
 NSaved=14 IEnMin=14 EnMin= -839.520804292142     IErMin=13 ErrMin= 2.38D-05
 ErrMax= 2.65D-05  0.00D+00 EMaxC= 1.00D-01 BMatC= 1.62D-07 BMatP= 5.05D-07
 IDIUse=1 WtCom= 1.00D+00 WtEn= 0.00D+00
 Coeff-Com: -0.164D-03 0.229D-03-0.282D-04-0.176D-04-0.139D-03-0.703D-03
 Coeff-Com:  0.133D-02 0.556D-02-0.913D-03-0.323D-01-0.865D-01 0.396D-01
 Coeff-Com:  0.523D+00 0.551D+00
 Coeff:     -0.164D-03 0.229D-03-0.282D-04-0.176D-04-0.139D-03-0.703D-03
 Coeff:      0.133D-02 0.556D-02-0.913D-03-0.323D-01-0.865D-01 0.396D-01
 Coeff:      0.523D+00 0.551D+00
 Gap=     0.090 Goal=   None    Shift=    0.000
 Gap=     0.134 Goal=   None    Shift=    0.000
 RMSDP=2.17D-06 MaxDP=1.13D-04 DE=-2.90D-07 OVMax= 1.72D-04

 Cycle  15  Pass 1  IDiag  1:
 RMSU=  1.89D-06    CP:  1.03D+00  2.69D-03  5.09D-01  2.33D-01  9.95D-01
                    CP:  7.14D-01  8.24D-01  1.43D+00  1.47D+00  1.19D+00
                    CP:  1.35D+00  1.18D+00  9.56D-01  1.02D+00
 E= -839.520804362569     Delta-E=       -0.000000070427 Rises=F Damp=F
 DIIS: error= 1.14D-05 at cycle  15 NSaved=  15.
 NSaved=15 IEnMin=15 EnMin= -839.520804362569     IErMin=15 ErrMin= 1.14D-05
 ErrMax= 1.14D-05  0.00D+00 EMaxC= 1.00D-01 BMatC= 3.61D-08 BMatP= 1.62D-07
 IDIUse=1 WtCom= 1.00D+00 WtEn= 0.00D+00
 Coeff-Com:  0.385D-04-0.405D-04-0.816D-04 0.110D-03-0.562D-03-0.906D-03
 Coeff-Com: -0.190D-02 0.144D-02 0.141D-01 0.121D-01-0.300D-01-0.801D-01
 Coeff-Com: -0.784D-01 0.229D+00 0.935D+00
 Coeff:      0.385D-04-0.405D-04-0.816D-04 0.110D-03-0.562D-03-0.906D-03
 Coeff:     -0.190D-02 0.144D-02 0.141D-01 0.121D-01-0.300D-01-0.801D-01
 Coeff:     -0.784D-01 0.229D+00 0.935D+00
 Gap=     0.090 Goal=   None    Shift=    0.000
 Gap=     0.134 Goal=   None    Shift=    0.000
 RMSDP=2.44D-06 MaxDP=1.28D-04 DE=-7.04D-08 OVMax= 1.60D-04

 Cycle  16  Pass 1  IDiag  1:
 RMSU=  1.22D-06    CP:  1.03D+00  2.70D-03  5.09D-01  2.33D-01  9.95D-01
                    CP:  7.14D-01  8.24D-01  1.43D+00  1.47D+00  1.18D+00
                    CP:  1.35D+00  1.17D+00  9.70D-01  1.25D+00  1.04D+00
 E= -839.520804397179     Delta-E=       -0.000000034610 Rises=F Damp=F
 DIIS: error= 4.55D-06 at cycle  16 NSaved=  16.
 NSaved=16 IEnMin=16 EnMin= -839.520804397179     IErMin=16 ErrMin= 4.55D-06
 ErrMax= 4.55D-06  0.00D+00 EMaxC= 1.00D-01 BMatC= 1.47D-08 BMatP= 3.61D-08
 IDIUse=1 WtCom= 1.00D+00 WtEn= 0.00D+00
 Coeff-Com: -0.155D-04 0.524D-04-0.461D-04 0.471D-04-0.148D-03-0.165D-03
 Coeff-Com: -0.118D-02-0.622D-03 0.799D-02 0.155D-01 0.517D-02-0.611D-01
 Coeff-Com: -0.189D+00-0.204D-01 0.553D+00 0.691D+00
 Coeff:     -0.155D-04 0.524D-04-0.461D-04 0.471D-04-0.148D-03-0.165D-03
 Coeff:     -0.118D-02-0.622D-03 0.799D-02 0.155D-01 0.517D-02-0.611D-01
 Coeff:     -0.189D+00-0.204D-01 0.553D+00 0.691D+00
 Gap=     0.090 Goal=   None    Shift=    0.000
 Gap=     0.134 Goal=   None    Shift=    0.000
 RMSDP=1.48D-06 MaxDP=9.80D-05 DE=-3.46D-08 OVMax= 8.20D-05

 Cycle  17  Pass 1  IDiag  1:
 RMSU=  5.52D-07    CP:  1.03D+00  2.69D-03  5.09D-01  2.33D-01  9.95D-01
                    CP:  7.14D-01  8.24D-01  1.43D+00  1.47D+00  1.18D+00
                    CP:  1.34D+00  1.17D+00  9.61D-01  1.30D+00  1.31D+00
                    CP:  1.12D+00
 E= -839.520804406863     Delta-E=       -0.000000009684 Rises=F Damp=F
 DIIS: error= 2.28D-06 at cycle  17 NSaved=  17.
 NSaved=17 IEnMin=17 EnMin= -839.520804406863     IErMin=17 ErrMin= 2.28D-06
 ErrMax= 2.28D-06  0.00D+00 EMaxC= 1.00D-01 BMatC= 3.72D-09 BMatP= 1.47D-08
 IDIUse=1 WtCom= 1.00D+00 WtEn= 0.00D+00
 Coeff-Com: -0.112D-04 0.128D-04 0.100D-05 0.146D-05 0.109D-03 0.153D-03
 Coeff-Com:  0.104D-04-0.844D-03-0.542D-03 0.436D-02 0.119D-01-0.818D-02
 Coeff-Com: -0.726D-01-0.909D-01-0.233D-01 0.385D+00 0.795D+00
 Coeff:     -0.112D-04 0.128D-04 0.100D-05 0.146D-05 0.109D-03 0.153D-03
 Coeff:      0.104D-04-0.844D-03-0.542D-03 0.436D-02 0.119D-01-0.818D-02
 Coeff:     -0.726D-01-0.909D-01-0.233D-01 0.385D+00 0.795D+00
 Gap=     0.090 Goal=   None    Shift=    0.000
 Gap=     0.134 Goal=   None    Shift=    0.000
 RMSDP=5.60D-07 MaxDP=3.06D-05 DE=-9.68D-09 OVMax= 5.40D-05

 Cycle  18  Pass 1  IDiag  1:
 RMSU=  3.42D-07    CP:  1.03D+00  2.69D-03  5.09D-01  2.33D-01  9.95D-01
                    CP:  7.14D-01  8.24D-01  1.43D+00  1.47D+00  1.18D+00
                    CP:  1.34D+00  1.16D+00  9.62D-01  1.35D+00  1.35D+00
                    CP:  1.32D+00  9.88D-01
 E= -839.520804409566     Delta-E=       -0.000000002703 Rises=F Damp=F
 DIIS: error= 1.27D-06 at cycle  18 NSaved=  18.
 NSaved=18 IEnMin=18 EnMin= -839.520804409566     IErMin=18 ErrMin= 1.27D-06
 ErrMax= 1.27D-06  0.00D+00 EMaxC= 1.00D-01 BMatC= 1.00D-09 BMatP= 3.72D-09
 IDIUse=1 WtCom= 1.00D+00 WtEn= 0.00D+00
 Coeff-Com: -0.225D-04 0.281D-04 0.935D-05-0.107D-04 0.110D-03 0.130D-03
 Coeff-Com:  0.211D-03-0.365D-03-0.151D-02 0.195D-03 0.626D-02 0.377D-02
 Coeff-Com: -0.148D-01-0.506D-01-0.934D-01 0.114D+00 0.462D+00 0.574D+00
 Coeff:     -0.225D-04 0.281D-04 0.935D-05-0.107D-04 0.110D-03 0.130D-03
 Coeff:      0.211D-03-0.365D-03-0.151D-02 0.195D-03 0.626D-02 0.377D-02
 Coeff:     -0.148D-01-0.506D-01-0.934D-01 0.114D+00 0.462D+00 0.574D+00
 Gap=     0.090 Goal=   None    Shift=    0.000
 Gap=     0.134 Goal=   None    Shift=    0.000
 RMSDP=2.87D-07 MaxDP=1.94D-05 DE=-2.70D-09 OVMax= 1.27D-05

 Cycle  19  Pass 1  IDiag  1:
 RMSU=  1.66D-07    CP:  1.03D+00  2.69D-03  5.09D-01  2.33D-01  9.95D-01
                    CP:  7.14D-01  8.24D-01  1.43D+00  1.47D+00  1.18D+00
                    CP:  1.34D+00  1.16D+00  9.58D-01  1.36D+00  1.37D+00
                    CP:  1.36D+00  1.15D+00  9.90D-01
 E= -839.520804409884     Delta-E=       -0.000000000318 Rises=F Damp=F
 DIIS: error= 4.20D-07 at cycle  19 NSaved=  19.
 NSaved=19 IEnMin=19 EnMin= -839.520804409884     IErMin=19 ErrMin= 4.20D-07
 ErrMax= 4.20D-07  0.00D+00 EMaxC= 1.00D-01 BMatC= 1.63D-10 BMatP= 1.00D-09
 IDIUse=1 WtCom= 1.00D+00 WtEn= 0.00D+00
 Coeff-Com: -0.744D-05 0.907D-05 0.550D-05-0.551D-05 0.216D-04 0.157D-04
 Coeff-Com:  0.815D-04-0.119D-03-0.596D-03-0.883D-03 0.399D-03 0.323D-02
 Coeff-Com:  0.103D-01 0.106D-02-0.274D-01-0.608D-01 0.246D-02 0.290D+00
 Coeff-Com:  0.782D+00
 Coeff:     -0.744D-05 0.907D-05 0.550D-05-0.551D-05 0.216D-04 0.157D-04
 Coeff:      0.815D-04-0.119D-03-0.596D-03-0.883D-03 0.399D-03 0.323D-02
 Coeff:      0.103D-01 0.106D-02-0.274D-01-0.608D-01 0.246D-02 0.290D+00
 Coeff:      0.782D+00
 Gap=     0.090 Goal=   None    Shift=    0.000
 Gap=     0.134 Goal=   None    Shift=    0.000
 RMSDP=1.60D-07 MaxDP=1.49D-05 DE=-3.18D-10 OVMax= 1.02D-05

 Cycle  20  Pass 1  IDiag  1:
 RMSU=  7.31D-08    CP:  1.03D+00  2.69D-03  5.09D-01  2.33D-01  9.95D-01
                    CP:  7.14D-01  8.24D-01  1.43D+00  1.47D+00  1.18D+00
                    CP:  1.34D+00  1.16D+00  9.57D-01  1.35D+00  1.37D+00
                    CP:  1.39D+00  1.18D+00  1.17D+00  1.16D+00
 E= -839.520804409939     Delta-E=       -0.000000000055 Rises=F Damp=F
 DIIS: error= 1.93D-07 at cycle  20 NSaved=  20.
 NSaved=20 IEnMin=20 EnMin= -839.520804409939     IErMin=20 ErrMin= 1.93D-07
 ErrMax= 1.93D-07  0.00D+00 EMaxC= 1.00D-01 BMatC= 2.25D-11 BMatP= 1.63D-10
 IDIUse=1 WtCom= 1.00D+00 WtEn= 0.00D+00
 Coeff-Com:  0.621D-06-0.931D-06 0.164D-05-0.152D-05-0.739D-05-0.133D-04
 Coeff-Com:  0.743D-05-0.604D-04-0.882D-04-0.395D-03-0.426D-03 0.786D-03
 Coeff-Com:  0.663D-02 0.816D-02 0.207D-02-0.509D-01-0.640D-01 0.644D-01
 Coeff-Com:  0.352D+00 0.681D+00
 Coeff:      0.621D-06-0.931D-06 0.164D-05-0.152D-05-0.739D-05-0.133D-04
 Coeff:      0.743D-05-0.604D-04-0.882D-04-0.395D-03-0.426D-03 0.786D-03
 Coeff:      0.663D-02 0.816D-02 0.207D-02-0.509D-01-0.640D-01 0.644D-01
 Coeff:      0.352D+00 0.681D+00
 Gap=     0.090 Goal=   None    Shift=    0.000
 Gap=     0.134 Goal=   None    Shift=    0.000
 RMSDP=6.06D-08 MaxDP=5.21D-06 DE=-5.50D-11 OVMax= 3.58D-06

 Cycle  21  Pass 1  IDiag  1:
 Restarting incremental Fock formation.
 E= -839.520804409953     Delta-E=       -0.000000000015 Rises=F Damp=F
 DIIS: error= 8.81D-08 at cycle  21 NSaved=  20.
 NSaved=20 IEnMin=20 EnMin= -839.520804409953     IErMin=20 ErrMin= 8.81D-08
 ErrMax= 8.81D-08  0.00D+00 EMaxC= 1.00D-01 BMatC= 7.28D-12 BMatP= 2.25D-11
 IDIUse=1 WtCom= 1.00D+00 WtEn= 0.00D+00
 Coeff-Com:  0.334D-06-0.203D-06 0.357D-07-0.304D-05-0.371D-05 0.208D-05
 Coeff-Com:  0.956D-06 0.320D-04-0.853D-04-0.243D-03-0.220D-03 0.161D-02
 Coeff-Com:  0.435D-02 0.628D-02-0.166D-01-0.317D-01-0.217D-01 0.838D-02
 Coeff-Com:  0.403D+00 0.647D+00
 Coeff:      0.334D-06-0.203D-06 0.357D-07-0.304D-05-0.371D-05 0.208D-05
 Coeff:      0.956D-06 0.320D-04-0.853D-04-0.243D-03-0.220D-03 0.161D-02
 Coeff:      0.435D-02 0.628D-02-0.166D-01-0.317D-01-0.217D-01 0.838D-02
 Coeff:      0.403D+00 0.647D+00
 Gap=     0.090 Goal=   None    Shift=    0.000
 Gap=     0.134 Goal=   None    Shift=    0.000
 RMSDP=3.83D-08 MaxDP=3.10D-06 DE=-1.46D-11 OVMax= 1.79D-06

 Cycle  22  Pass 1  IDiag  1:
 RMSU=  3.01D-08    CP:  1.00D+00
 E= -839.520804409979     Delta-E=       -0.000000000025 Rises=F Damp=F
 DIIS: error= 3.51D-08 at cycle  22 NSaved=  20.
 NSaved=20 IEnMin=20 EnMin= -839.520804409979     IErMin=20 ErrMin= 3.51D-08
 ErrMax= 3.51D-08  0.00D+00 EMaxC= 1.00D-01 BMatC= 1.13D-12 BMatP= 7.28D-12
 IDIUse=1 WtCom= 1.00D+00 WtEn= 0.00D+00
 Coeff-Com: -0.360D-06 0.203D-06-0.676D-07 0.576D-06 0.247D-05 0.384D-05
 Coeff-Com:  0.157D-04 0.112D-04-0.355D-04-0.244D-03 0.597D-04 0.133D-02
 Coeff-Com:  0.261D-02-0.287D-02-0.680D-02-0.165D-01-0.470D-01 0.108D+00
 Coeff-Com:  0.341D+00 0.620D+00
 Coeff:     -0.360D-06 0.203D-06-0.676D-07 0.576D-06 0.247D-05 0.384D-05
 Coeff:      0.157D-04 0.112D-04-0.355D-04-0.244D-03 0.597D-04 0.133D-02
 Coeff:      0.261D-02-0.287D-02-0.680D-02-0.165D-01-0.470D-01 0.108D+00
 Coeff:      0.341D+00 0.620D+00
 Gap=     0.090 Goal=   None    Shift=    0.000
 Gap=     0.134 Goal=   None    Shift=    0.000
 RMSDP=8.83D-09 MaxDP=7.83D-07 DE=-2.55D-11 OVMax= 5.81D-07

 SCF Done:  E(UB3LYP) =  -839.520804410     A.U. after   22 cycles
            NFock= 22  Conv=0.88D-08     -V/T= 2.0039
 <Sx>= 0.0000 <Sy>= 0.0000 <Sz>= 0.5000 <S**2>= 0.7597 S= 0.5049
 <L.S>=  0.00000000000    
 KE= 8.362699685429D+02 PE=-4.452392316423D+03 EE= 1.540230906277D+03
 Annihilation of the first spin contaminant:
 S**2 before annihilation     0.7597,   after     0.7501
 Leave Link  502 at Sun Jan  7 05:03:03 2024, MaxMem=  4026531840 cpu:            3303.6 elap:             451.7
 (Enter /sysapps/ubuntu-applications/gaussian/Gaussian/AVX2/g16/l601.exe)
 Copying SCF densities to generalized density rwf, IOpCl= 1 IROHF=0.

 **********************************************************************

            Population analysis using the SCF density.

 **********************************************************************

 Alpha  occ. eigenvalues --  -19.04467 -19.00209 -18.96179 -18.94867 -10.13014
 Alpha  occ. eigenvalues --  -10.11261 -10.11253 -10.09910 -10.06634 -10.06388
 Alpha  occ. eigenvalues --  -10.06271 -10.05810 -10.05756 -10.05299 -10.05195
 Alpha  occ. eigenvalues --  -10.04964 -10.04612 -10.04150  -0.95767  -0.92807
 Alpha  occ. eigenvalues --   -0.87929  -0.87514  -0.74333  -0.72822  -0.67047
 Alpha  occ. eigenvalues --   -0.63302  -0.62694  -0.61719  -0.55168  -0.52890
 Alpha  occ. eigenvalues --   -0.51425  -0.48243  -0.45507  -0.44030  -0.41252
 Alpha  occ. eigenvalues --   -0.38823  -0.37774  -0.36289  -0.35580  -0.34119
 Alpha  occ. eigenvalues --   -0.33144  -0.31659  -0.30570  -0.30133  -0.29269
 Alpha  occ. eigenvalues --   -0.28712  -0.27454  -0.26761  -0.26720  -0.25530
 Alpha  occ. eigenvalues --   -0.24792  -0.24122  -0.23500  -0.22166  -0.22131
 Alpha  occ. eigenvalues --   -0.20378  -0.15113  -0.13358  -0.12525  -0.12110
 Alpha  occ. eigenvalues --   -0.11162  -0.10338  -0.01985
 Alpha virt. eigenvalues --    0.07001   0.07296   0.08862   0.08905   0.09100
 Alpha virt. eigenvalues --    0.10978   0.11213   0.12491   0.12700   0.13352
 Alpha virt. eigenvalues --    0.14575   0.14937   0.15436   0.16222   0.16555
 Alpha virt. eigenvalues --    0.16936   0.17117   0.17168   0.18412   0.18568
 Alpha virt. eigenvalues --    0.19535   0.19720   0.19887   0.20095   0.20352
 Alpha virt. eigenvalues --    0.20986   0.21240   0.21395   0.22093   0.22479
 Alpha virt. eigenvalues --    0.22578   0.23583   0.23632   0.24038   0.24361
 Alpha virt. eigenvalues --    0.24858   0.25280   0.25683   0.25884   0.27345
 Alpha virt. eigenvalues --    0.28078   0.28333   0.28535   0.29016   0.29399
 Alpha virt. eigenvalues --    0.29687   0.29812   0.30233   0.30623   0.31620
 Alpha virt. eigenvalues --    0.31783   0.32106   0.33071   0.33277   0.33763
 Alpha virt. eigenvalues --    0.34306   0.34465   0.35531   0.35881   0.36211
 Alpha virt. eigenvalues --    0.36689   0.37095   0.37394   0.37741   0.38974
 Alpha virt. eigenvalues --    0.39339   0.39439   0.39949   0.40230   0.40231
 Alpha virt. eigenvalues --    0.40329   0.40891   0.41103   0.41556   0.42325
 Alpha virt. eigenvalues --    0.42467   0.42628   0.42674   0.43461   0.44151
 Alpha virt. eigenvalues --    0.44537   0.45028   0.45100   0.45764   0.46204
 Alpha virt. eigenvalues --    0.46488   0.46763   0.47103   0.48476   0.49642
 Alpha virt. eigenvalues --    0.49729   0.50918   0.51788   0.52416   0.53265
 Alpha virt. eigenvalues --    0.54741   0.56540   0.56652   0.57445   0.60588
 Alpha virt. eigenvalues --    0.61123   0.61526   0.62428   0.64277   0.64694
 Alpha virt. eigenvalues --    0.65156   0.66684   0.66866   0.67702   0.68403
 Alpha virt. eigenvalues --    0.68659   0.68991   0.70203   0.71045   0.71925
 Alpha virt. eigenvalues --    0.72736   0.72991   0.73336   0.74726   0.75588
 Alpha virt. eigenvalues --    0.76308   0.76390   0.77553   0.77709   0.78001
 Alpha virt. eigenvalues --    0.78509   0.79108   0.79933   0.80130   0.80917
 Alpha virt. eigenvalues --    0.81693   0.81851   0.84799   0.86079   0.87253
 Alpha virt. eigenvalues --    0.88494   0.89259   0.89579   0.90901   0.91357
 Alpha virt. eigenvalues --    0.91691   0.92181   0.93991   0.96067   0.97787
 Alpha virt. eigenvalues --    0.97920   0.98773   1.01069   1.01558   1.01733
 Alpha virt. eigenvalues --    1.02213   1.04230   1.05328   1.05798   1.06598
 Alpha virt. eigenvalues --    1.07043   1.08298   1.08923   1.10716   1.11130
 Alpha virt. eigenvalues --    1.12409   1.12533   1.12780   1.14371   1.15152
 Alpha virt. eigenvalues --    1.15846   1.17158   1.18983   1.19297   1.19405
 Alpha virt. eigenvalues --    1.21010   1.21766   1.23054   1.23060   1.23567
 Alpha virt. eigenvalues --    1.25076   1.26164   1.27039   1.30019   1.31055
 Alpha virt. eigenvalues --    1.32278   1.34245   1.34281   1.34827   1.36443
 Alpha virt. eigenvalues --    1.37192   1.38250   1.38902   1.41951   1.43358
 Alpha virt. eigenvalues --    1.44570   1.45964   1.48474   1.49286   1.51874
 Alpha virt. eigenvalues --    1.52745   1.57207   1.57468   1.58718   1.59963
 Alpha virt. eigenvalues --    1.61459   1.61484   1.62639   1.63477   1.65380
 Alpha virt. eigenvalues --    1.65564   1.65737   1.66955   1.68201   1.69170
 Alpha virt. eigenvalues --    1.71220   1.72262   1.72765   1.73299   1.75864
 Alpha virt. eigenvalues --    1.79011   1.80489   1.81579   1.82827   1.83159
 Alpha virt. eigenvalues --    1.85787   1.85888   1.87072   1.87565   1.89530
 Alpha virt. eigenvalues --    1.91261   1.91908   1.93786   1.95758   1.98990
 Alpha virt. eigenvalues --    2.00515   2.00835   2.01478   2.02499   2.03720
 Alpha virt. eigenvalues --    2.05440   2.05443   2.05929   2.06423   2.07480
 Alpha virt. eigenvalues --    2.08840   2.09478   2.10059   2.11473   2.12770
 Alpha virt. eigenvalues --    2.12884   2.14818   2.16366   2.17797   2.19631
 Alpha virt. eigenvalues --    2.20659   2.23140   2.23660   2.25321   2.28801
 Alpha virt. eigenvalues --    2.33398   2.34748   2.35463   2.37286   2.42108
 Alpha virt. eigenvalues --    2.44983   2.45086   2.48682   2.49733   2.51550
 Alpha virt. eigenvalues --    2.53497   2.55391   2.58379   2.59477   2.66155
 Alpha virt. eigenvalues --    2.68264   2.68948   2.72544   2.73275   2.74477
 Alpha virt. eigenvalues --    2.76349   2.80505   2.83195   2.83685   2.85022
 Alpha virt. eigenvalues --    2.85111   2.85970   2.86379   2.87451   2.88612
 Alpha virt. eigenvalues --    2.90050   2.90951   2.91404   2.91863   2.91908
 Alpha virt. eigenvalues --    2.93455   2.93497   2.94576   2.97984   2.98936
 Alpha virt. eigenvalues --    2.99317   2.99503   3.00532   3.06112   3.07038
 Alpha virt. eigenvalues --    3.09787   3.14616   3.19156   3.20413   3.22060
 Alpha virt. eigenvalues --    3.23430   3.23643   3.25430   3.26713   3.28261
 Alpha virt. eigenvalues --    3.28336   3.32054   3.32936   3.33264   3.34509
 Alpha virt. eigenvalues --    3.37877   3.39168   3.42175   3.43862   3.46655
 Alpha virt. eigenvalues --    3.48006   3.49387   3.52137   3.55024   3.58308
 Alpha virt. eigenvalues --    3.60298   3.63513   3.64403   3.67284   3.68156
 Alpha virt. eigenvalues --    3.71268   3.73304   3.77955   3.79562   3.81144
 Alpha virt. eigenvalues --    3.95040   3.96308   4.03101   4.04109   4.06510
 Alpha virt. eigenvalues --    4.17033   4.17517   4.23107   4.25500   4.31801
 Alpha virt. eigenvalues --    4.35574   4.41814   4.45491   4.62123   4.94434
 Alpha virt. eigenvalues --    4.95614   4.97458   5.11764   5.15254   5.20027
 Alpha virt. eigenvalues --    5.21980   5.40923   5.42363   5.62498   5.67826
 Alpha virt. eigenvalues --    5.84259   5.90228   5.95334   5.98715  23.64512
 Alpha virt. eigenvalues --   23.80426  24.00690  24.02705  24.03787  24.05801
 Alpha virt. eigenvalues --   24.08219  24.08569  24.12305  24.15957  24.19798
 Alpha virt. eigenvalues --   24.20568  24.30457  24.30701  50.06514  50.12811
 Alpha virt. eigenvalues --   50.19473  50.24895
  Beta  occ. eigenvalues --  -19.04460 -19.00196 -18.95662 -18.94272 -10.13025
  Beta  occ. eigenvalues --  -10.11266 -10.11067 -10.09788 -10.06554 -10.06312
  Beta  occ. eigenvalues --  -10.06208 -10.05773 -10.05617 -10.05283 -10.05117
  Beta  occ. eigenvalues --  -10.04978 -10.04530 -10.04128  -0.95749  -0.92683
  Beta  occ. eigenvalues --   -0.87113  -0.86491  -0.74071  -0.72682  -0.66647
  Beta  occ. eigenvalues --   -0.63077  -0.62491  -0.61532  -0.54489  -0.52725
  Beta  occ. eigenvalues --   -0.51188  -0.48156  -0.45343  -0.43825  -0.41108
  Beta  occ. eigenvalues --   -0.38705  -0.37645  -0.36061  -0.35422  -0.34033
  Beta  occ. eigenvalues --   -0.33008  -0.31028  -0.30441  -0.29948  -0.28973
  Beta  occ. eigenvalues --   -0.28296  -0.27286  -0.26576  -0.25491  -0.25449
  Beta  occ. eigenvalues --   -0.24042  -0.23340  -0.22948  -0.21952  -0.21696
  Beta  occ. eigenvalues --   -0.19423  -0.13119  -0.12666  -0.12080  -0.11368
  Beta  occ. eigenvalues --   -0.10635  -0.09645
  Beta virt. eigenvalues --    0.03719   0.06997   0.08286   0.08855   0.08897
  Beta virt. eigenvalues --    0.10187   0.10975   0.11209   0.12699   0.12728
  Beta virt. eigenvalues --    0.13352   0.14578   0.15022   0.15447   0.16570
  Beta virt. eigenvalues --    0.16823   0.16938   0.17178   0.17524   0.18426
  Beta virt. eigenvalues --    0.19115   0.19550   0.19897   0.19909   0.20108
  Beta virt. eigenvalues --    0.20988   0.21161   0.21252   0.21443   0.22121
  Beta virt. eigenvalues --    0.22488   0.22587   0.23675   0.23861   0.24296
  Beta virt. eigenvalues --    0.24387   0.24973   0.25294   0.25680   0.25885
  Beta virt. eigenvalues --    0.27329   0.28113   0.28488   0.28571   0.29063
  Beta virt. eigenvalues --    0.29696   0.29717   0.29870   0.30264   0.30733
  Beta virt. eigenvalues --    0.31625   0.31979   0.32156   0.33096   0.33267
  Beta virt. eigenvalues --    0.33861   0.34388   0.34485   0.35775   0.36249
  Beta virt. eigenvalues --    0.36345   0.36709   0.37237   0.37475   0.37824
  Beta virt. eigenvalues --    0.39085   0.39400   0.39501   0.39998   0.40311
  Beta virt. eigenvalues --    0.40403   0.40448   0.40941   0.41173   0.41586
  Beta virt. eigenvalues --    0.42389   0.42553   0.42819   0.43032   0.43545
  Beta virt. eigenvalues --    0.44264   0.44605   0.45120   0.45429   0.45825
  Beta virt. eigenvalues --    0.46271   0.46539   0.46818   0.47180   0.48565
  Beta virt. eigenvalues --    0.49669   0.49813   0.51137   0.51854   0.52573
  Beta virt. eigenvalues --    0.53385   0.54852   0.56596   0.56816   0.57539
  Beta virt. eigenvalues --    0.60771   0.61285   0.61669   0.62551   0.64402
  Beta virt. eigenvalues --    0.64780   0.65367   0.66873   0.67001   0.67797
  Beta virt. eigenvalues --    0.68734   0.68902   0.69067   0.70503   0.71112
  Beta virt. eigenvalues --    0.72233   0.72805   0.73073   0.73465   0.74822
  Beta virt. eigenvalues --    0.75720   0.76460   0.76670   0.77685   0.77764
  Beta virt. eigenvalues --    0.78473   0.78578   0.79186   0.80188   0.80198
  Beta virt. eigenvalues --    0.81010   0.81968   0.82052   0.84866   0.86453
  Beta virt. eigenvalues --    0.87316   0.88592   0.89296   0.89614   0.90967
  Beta virt. eigenvalues --    0.91417   0.91770   0.92420   0.94048   0.96173
  Beta virt. eigenvalues --    0.97858   0.97991   0.98864   1.01242   1.01679
  Beta virt. eigenvalues --    1.01821   1.02317   1.04333   1.05478   1.05931
  Beta virt. eigenvalues --    1.06706   1.07500   1.08446   1.08992   1.10982
  Beta virt. eigenvalues --    1.11250   1.12658   1.12716   1.13013   1.14484
  Beta virt. eigenvalues --    1.15385   1.15954   1.17518   1.19062   1.19422
  Beta virt. eigenvalues --    1.19544   1.21306   1.22032   1.23116   1.23218
  Beta virt. eigenvalues --    1.24531   1.25636   1.26698   1.27213   1.30126
  Beta virt. eigenvalues --    1.31252   1.32528   1.34437   1.34906   1.35016
  Beta virt. eigenvalues --    1.36512   1.37726   1.38466   1.39501   1.42119
  Beta virt. eigenvalues --    1.43565   1.44719   1.46172   1.48524   1.49521
  Beta virt. eigenvalues --    1.51919   1.52978   1.57329   1.57646   1.58863
  Beta virt. eigenvalues --    1.60080   1.61579   1.61869   1.62707   1.63598
  Beta virt. eigenvalues --    1.65724   1.65819   1.65951   1.67031   1.68338
  Beta virt. eigenvalues --    1.69305   1.71319   1.72376   1.72946   1.73492
  Beta virt. eigenvalues --    1.76027   1.79116   1.80585   1.81728   1.83025
  Beta virt. eigenvalues --    1.83557   1.85953   1.85992   1.87181   1.87668
  Beta virt. eigenvalues --    1.89611   1.91425   1.92300   1.93911   1.95957
  Beta virt. eigenvalues --    1.99226   2.00860   2.00924   2.01730   2.02564
  Beta virt. eigenvalues --    2.04017   2.05561   2.05679   2.06188   2.06611
  Beta virt. eigenvalues --    2.07607   2.09159   2.09588   2.10269   2.11698
  Beta virt. eigenvalues --    2.13015   2.13153   2.15054   2.16538   2.17941
  Beta virt. eigenvalues --    2.19696   2.20814   2.23316   2.23943   2.25373
  Beta virt. eigenvalues --    2.28896   2.33494   2.34985   2.35745   2.37589
  Beta virt. eigenvalues --    2.42403   2.45398   2.45443   2.48801   2.50098
  Beta virt. eigenvalues --    2.51624   2.53582   2.55586   2.58588   2.59512
  Beta virt. eigenvalues --    2.66212   2.68355   2.69054   2.72713   2.73345
  Beta virt. eigenvalues --    2.74997   2.76595   2.80987   2.83218   2.83704
  Beta virt. eigenvalues --    2.85169   2.85552   2.86026   2.86416   2.87701
  Beta virt. eigenvalues --    2.88643   2.90081   2.90987   2.91462   2.91930
  Beta virt. eigenvalues --    2.92514   2.93576   2.93913   2.94639   2.98404
  Beta virt. eigenvalues --    2.99484   2.99619   3.00201   3.01276   3.06847
  Beta virt. eigenvalues --    3.08364   3.10930   3.15108   3.19232   3.20657
  Beta virt. eigenvalues --    3.22265   3.23569   3.24028   3.25683   3.26873
  Beta virt. eigenvalues --    3.28307   3.28708   3.32327   3.33081   3.33312
  Beta virt. eigenvalues --    3.34687   3.38229   3.39453   3.42419   3.45249
  Beta virt. eigenvalues --    3.46710   3.49487   3.49520   3.52239   3.55155
  Beta virt. eigenvalues --    3.58368   3.60464   3.63693   3.64525   3.67423
  Beta virt. eigenvalues --    3.68259   3.71459   3.73422   3.78059   3.79696
  Beta virt. eigenvalues --    3.81299   3.95282   3.96693   4.03159   4.04369
  Beta virt. eigenvalues --    4.06602   4.17177   4.17625   4.23207   4.25623
  Beta virt. eigenvalues --    4.31913   4.35652   4.42086   4.45777   4.62425
  Beta virt. eigenvalues --    4.94713   4.95905   4.97573   5.11795   5.15384
  Beta virt. eigenvalues --    5.22217   5.24312   5.41273   5.42823   5.62523
  Beta virt. eigenvalues --    5.67921   5.84382   5.90536   5.95536   5.99052
  Beta virt. eigenvalues --   23.64578  23.80476  24.00765  24.02801  24.03863
  Beta virt. eigenvalues --   24.05907  24.08270  24.08721  24.12411  24.16025
  Beta virt. eigenvalues --   24.19848  24.20630  24.30504  24.30748  50.06523
  Beta virt. eigenvalues --   50.12843  50.20026  50.25437
          Condensed to atoms (all electrons):
               1          2          3          4          5          6
     1  O    8.187875  -0.127901   0.601568   0.134901  -0.015574  -0.071760
     2  C   -0.127901  14.050721  -2.741838  -0.690432   2.339502  -1.960582
     3  C    0.601568  -2.741838  13.905505   1.189238  -0.042275   2.260218
     4  C    0.134901  -0.690432   1.189238   8.968766   0.146396  -2.631303
     5  C   -0.015574   2.339502  -0.042275   0.146396  11.319320   1.364442
     6  C   -0.071760  -1.960582   2.260218  -2.631303   1.364442  23.067480
     7  C    0.001686  -1.472443  -0.981480   0.098290  -3.444498  -0.709362
     8  O   -0.000066  -0.028859   0.008867   0.131160   0.155247  -0.238317
     9  C   -0.011621  -1.555965  -0.052528   0.051340  -1.303647   0.507779
    10  C    0.000807  -0.555186  -0.063769  -0.211981  -0.378612   0.118701
    11  C    0.001163  -0.116426  -0.035337  -0.054346  -0.199066  -0.498167
    12  C    0.001479   0.070526   0.087691  -0.027355  -0.133110   0.087325
    13  C    0.036256  -0.997892  -0.130493  -0.212809  -0.689023  -2.564588
    14  O    0.002231  -0.035440   0.001325  -0.001354  -0.005194  -0.023465
    15  C    0.047126  -0.850941  -0.518571  -0.139480  -1.823131  -7.018598
    16  C   -0.175285  -2.100523  -1.832020  -0.568348  -1.139233  -0.313828
    17  O    0.060950  -0.074135  -0.020749   0.005232  -0.002831  -0.318251
    18  C   -0.496033   2.520890  -5.215768  -0.123281  -0.324058  -5.528206
    19  H    0.043924   0.462600  -0.612726  -0.057119   0.030472  -0.016535
    20  H   -0.037010  -0.273001   0.479220  -0.008525  -0.001282   0.070989
    21  H   -0.000192   0.062263  -0.033939   0.484113  -0.138219  -0.060369
    22  H   -0.000004   0.031937  -0.013681  -0.188695   0.306575   0.040270
    23  H    0.000028  -0.010431  -0.001083   0.000074  -0.016383  -0.036375
    24  H   -0.000019   0.002156   0.000143  -0.000341   0.001239   0.013738
    25  H    0.000009  -0.000091   0.000551  -0.000055  -0.001143  -0.004547
    26  H   -0.004152   0.054814   0.002684   0.003209   0.007718   0.077458
               7          8          9         10         11         12
     1  O    0.001686  -0.000066  -0.011621   0.000807   0.001163   0.001479
     2  C   -1.472443  -0.028859  -1.555965  -0.555186  -0.116426   0.070526
     3  C   -0.981480   0.008867  -0.052528  -0.063769  -0.035337   0.087691
     4  C    0.098290   0.131160   0.051340  -0.211981  -0.054346  -0.027355
     5  C   -3.444498   0.155247  -1.303647  -0.378612  -0.199066  -0.133110
     6  C   -0.709362  -0.238317   0.507779   0.118701  -0.498167   0.087325
     7  C   11.047100   0.674277   0.628912  -2.354033   0.106916  -0.374771
     8  O    0.674277   8.328394  -0.342413   0.252533   0.077194   0.004712
     9  C    0.628912  -0.342413  13.297840   0.939176  -2.402675   0.803735
    10  C   -2.354033   0.252533   0.939176  10.997192   0.275825  -0.012385
    11  C    0.106916   0.077194  -2.402675   0.275825   8.069695  -0.281175
    12  C   -0.374771   0.004712   0.803735  -0.012385  -0.281175  11.110921
    13  C   -1.257662  -0.034774  -1.662830   1.768823   0.437248  -0.107010
    14  O    0.017522   0.000008  -0.011588   0.004320   0.064838  -0.483085
    15  C    1.506972  -0.270242  -0.784782  -1.904385   1.260772  -4.685069
    16  C    1.651098  -0.015334   1.451156  -0.643203  -0.676781  -0.331829
    17  O   -0.000486  -0.000130  -0.181238  -0.029872   0.012501  -0.098540
    18  C    1.289707  -0.338891  -3.796694  -2.380425   0.073520   0.052266
    19  H   -0.003011   0.000009  -0.004987  -0.000745  -0.000424   0.000546
    20  H    0.014035  -0.000004   0.003830   0.001515   0.000371   0.000391
    21  H    0.008208   0.003077   0.008136  -0.002057  -0.000950   0.000148
    22  H    0.085061  -0.010562  -0.040579  -0.017628   0.002027  -0.001180
    23  H    0.024640  -0.002457   0.104267   0.399204  -0.160117   0.009748
    24  H    0.039471   0.002222  -0.039800  -0.131652   0.479833  -0.171080
    25  H   -0.022066  -0.000129   0.019628   0.011619  -0.080393   0.645436
    26  H    0.009974   0.000126   0.042369  -0.007714  -0.031083   0.030250
              13         14         15         16         17         18
     1  O    0.036256   0.002231   0.047126  -0.175285   0.060950  -0.496033
     2  C   -0.997892  -0.035440  -0.850941  -2.100523  -0.074135   2.520890
     3  C   -0.130493   0.001325  -0.518571  -1.832020  -0.020749  -5.215768
     4  C   -0.212809  -0.001354  -0.139480  -0.568348   0.005232  -0.123281
     5  C   -0.689023  -0.005194  -1.823131  -1.139233  -0.002831  -0.324058
     6  C   -2.564588  -0.023465  -7.018598  -0.313828  -0.318251  -5.528206
     7  C   -1.257662   0.017522   1.506972   1.651098  -0.000486   1.289707
     8  O   -0.034774   0.000008  -0.270242  -0.015334  -0.000130  -0.338891
     9  C   -1.662830  -0.011588  -0.784782   1.451156  -0.181238  -3.796694
    10  C    1.768823   0.004320  -1.904385  -0.643203  -0.029872  -2.380425
    11  C    0.437248   0.064838   1.260772  -0.676781   0.012501   0.073520
    12  C   -0.107010  -0.483085  -4.685069  -0.331829  -0.098540   0.052266
    13  C   13.468838   0.431151   1.259242  -2.915963  -0.041081  -0.332066
    14  O    0.431151   8.294531   0.196936  -0.203934   0.022303  -0.032829
    15  C    1.259242   0.196936  16.898240   0.862548   0.221888   1.520784
    16  C   -2.915963  -0.203934   0.862548  11.002906   0.788180   1.230983
    17  O   -0.041081   0.022303   0.221888   0.788180   8.287097  -0.283556
    18  C   -0.332066  -0.032829   1.520784   1.230983  -0.283556  17.785430
    19  H   -0.003087  -0.000435  -0.018340   0.060857  -0.008818   0.229530
    20  H    0.005103   0.000153   0.011364   0.043042   0.000787  -0.030436
    21  H   -0.000960  -0.000032  -0.007210  -0.023283  -0.000106  -0.001841
    22  H    0.001231   0.000020   0.020583   0.013622   0.000355   0.115229
    23  H    0.028731   0.000053   0.018166   0.006857   0.000039  -0.029336
    24  H    0.036995   0.000985   0.066174  -0.006266  -0.000078   0.001890
    25  H   -0.123727  -0.032910  -0.117216  -0.006090   0.000362   0.003813
    26  H   -0.258446   0.168953  -0.159229   0.202185   0.070675   0.045186
              19         20         21         22         23         24
     1  O    0.043924  -0.037010  -0.000192  -0.000004   0.000028  -0.000019
     2  C    0.462600  -0.273001   0.062263   0.031937  -0.010431   0.002156
     3  C   -0.612726   0.479220  -0.033939  -0.013681  -0.001083   0.000143
     4  C   -0.057119  -0.008525   0.484113  -0.188695   0.000074  -0.000341
     5  C    0.030472  -0.001282  -0.138219   0.306575  -0.016383   0.001239
     6  C   -0.016535   0.070989  -0.060369   0.040270  -0.036375   0.013738
     7  C   -0.003011   0.014035   0.008208   0.085061   0.024640   0.039471
     8  O    0.000009  -0.000004   0.003077  -0.010562  -0.002457   0.002222
     9  C   -0.004987   0.003830   0.008136  -0.040579   0.104267  -0.039800
    10  C   -0.000745   0.001515  -0.002057  -0.017628   0.399204  -0.131652
    11  C   -0.000424   0.000371  -0.000950   0.002027  -0.160117   0.479833
    12  C    0.000546   0.000391   0.000148  -0.001180   0.009748  -0.171080
    13  C   -0.003087   0.005103  -0.000960   0.001231   0.028731   0.036995
    14  O   -0.000435   0.000153  -0.000032   0.000020   0.000053   0.000985
    15  C   -0.018340   0.011364  -0.007210   0.020583   0.018166   0.066174
    16  C    0.060857   0.043042  -0.023283   0.013622   0.006857  -0.006266
    17  O   -0.008818   0.000787  -0.000106   0.000355   0.000039  -0.000078
    18  C    0.229530  -0.030436  -0.001841   0.115229  -0.029336   0.001890
    19  H    0.646006   0.010604   0.000082   0.000245  -0.000025   0.000004
    20  H    0.010604   0.662056  -0.022892   0.000695  -0.000007  -0.000000
    21  H    0.000082  -0.022892   0.605700  -0.015602  -0.000110  -0.000009
    22  H    0.000245   0.000695  -0.015602   0.521087  -0.000600  -0.000055
    23  H   -0.000025  -0.000007  -0.000110  -0.000600   0.533953  -0.018830
    24  H    0.000004  -0.000000  -0.000009  -0.000055  -0.018830   0.619969
    25  H   -0.000001  -0.000003   0.000006  -0.000054   0.001384  -0.026745
    26  H    0.000650  -0.000383   0.000026  -0.000073   0.000862  -0.000358
              25         26
     1  O    0.000009  -0.004152
     2  C   -0.000091   0.054814
     3  C    0.000551   0.002684
     4  C   -0.000055   0.003209
     5  C   -0.001143   0.007718
     6  C   -0.004547   0.077458
     7  C   -0.022066   0.009974
     8  O   -0.000129   0.000126
     9  C    0.019628   0.042369
    10  C    0.011619  -0.007714
    11  C   -0.080393  -0.031083
    12  C    0.645436   0.030250
    13  C   -0.123727  -0.258446
    14  O   -0.032910   0.168953
    15  C   -0.117216  -0.159229
    16  C   -0.006090   0.202185
    17  O    0.000362   0.070675
    18  C    0.003813   0.045186
    19  H   -0.000001   0.000650
    20  H   -0.000003  -0.000383
    21  H    0.000006   0.000026
    22  H   -0.000054  -0.000073
    23  H    0.001384   0.000862
    24  H   -0.026745  -0.000358
    25  H    0.593424   0.000001
    26  H    0.000001   0.363925
          Atomic-Atomic Spin Densities.
               1          2          3          4          5          6
     1  O   -0.000671  -0.001239  -0.005071   0.000802   0.000277   0.004674
     2  C   -0.001239  -0.058217   0.035998   0.000700  -0.011900   0.032495
     3  C   -0.005071   0.035998   0.075080  -0.081407  -0.015216   0.061293
     4  C    0.000802   0.000700  -0.081407   0.059820   0.046749  -0.025860
     5  C    0.000277  -0.011900  -0.015216   0.046749  -0.099759  -0.082525
     6  C    0.004674   0.032495   0.061293  -0.025860  -0.082525   0.086708
     7  C    0.000333   0.010716  -0.005589   0.003538   0.064937   0.062070
     8  O    0.000006  -0.000756  -0.001284  -0.004961  -0.000784  -0.021541
[...]
 9,-0.00008362,-0.00001483,-0.00003489,-0.00001928,-0.00000036,-0.00004
 590,-0.00004776,-0.00000774,0.00000947,-0.00006788,-0.00001080,0.00003
 361,0.00001497,0.00000277,-0.00008923,0.00013050,0.00002286,-0.0004869
 0,-0.00013769,-0.00001960,0.00016175,-0.00017079,-0.00003760,-0.000866
 87,0.00189174,0.00032586,-0.00285231,-0.00093697,-0.00012677,0.0036585
 7,0.00172780,0.00028023,0.46506645,-0.10596453,-0.08228323,-0.01246768
 ,-0.04883120,-0.02527271,-0.00361177,-0.00236179,0.00306341,0.00063232
 ,0.00001856,-0.00149132,0.00009634,0.00074828,0.00069730,-0.00003883,-
 0.00239720,-0.00011604,-0.00009668,0.00083369,-0.00045582,-0.00005256,
 -0.00014172,0.00004522,0.00001328,-0.00037237,0.00020731,0.00000366,0.
 00025874,0.00000381,0.00000114,-0.00011017,0.00028826,0.00003523,-0.00
 003873,-0.00026861,-0.00005333,0.00009573,0.00025060,0.00004806,0.0002
 9114,-0.00018275,-0.00001255,-0.00017742,-0.00022583,0.00005613,0.0003
 9963,-0.00012038,0.00008598,0.00128028,0.00014253,0.00000784,0.0034337
 5,-0.00580781,-0.00142006,0.15093092,0.11097075,-0.01306612,-0.0118810
 1,-0.00441767,-0.00831894,-0.00413673,-0.00161229,-0.00044688,0.000516
 74,-0.00039953,-0.00000786,0.00010131,-0.00203751,0.00013425,-0.000035
 32,0.00086741,-0.00039620,-0.00012535,0.00058718,0.00013922,-0.0000429
 5,-0.00021012,-0.00002477,0.00001250,-0.00002105,-0.00006115,-0.000000
 36,0.00020985,0.00004455,0.00000435,-0.00001834,-0.00001808,0.00003501
 ,0.00009448,-0.00000655,-0.00005416,0.00003767,0.00001703,0.00004785,-
 0.00003147,0.00005378,-0.00000783,-0.00012975,-0.00003799,0.00005548,-
 0.00053207,0.00007121,0.00006705,-0.00063597,0.00024985,0.00003401,0.0
 0000845,0.00057075,-0.00140149,0.00204410,0.02073317,0.01691237,0.0049
 9775,0.00222828,-0.00061667,-0.00017853,-0.02040045,-0.02102956,-0.003
 33967,-0.24013037,-0.11805447,-0.01780610,0.00415418,0.00274012,0.0004
 1752,0.00177978,0.00057515,0.00013373,-0.00011393,0.00088129,0.0001470
 2,0.00024733,0.00029080,0.00004192,-0.00008683,-0.00032543,-0.00005485
 ,0.00001881,0.00006647,0.00001324,-0.00003029,0.00001447,0.00000296,0.
 00000368,-0.00001682,-0.00000306,-0.00009353,0.00006252,0.00001227,0.0
 0003488,-0.00034493,-0.00005845,-0.00006859,0.00014978,0.00002622,-0.0
 0060720,0.00042477,0.00007155,-0.00005694,-0.00202979,-0.00033676,0.00
 012198,0.00053306,0.00008936,-0.00337400,0.00447869,0.00085462,-0.0006
 6754,0.00240693,0.00042598,0.25619354,0.00243963,0.00417691,0.00146240
 ,0.01138025,0.00381312,0.00007784,-0.11943205,-0.13337298,-0.01732748,
 -0.02844916,-0.01128675,-0.00153713,0.00235720,-0.00552070,-0.00183132
 ,0.00096106,-0.00039989,0.00000335,-0.00025294,-0.00006928,0.00006938,
 -0.00029953,0.00000598,0.00000828,0.00017160,-0.00019699,-0.00006766,-
 0.00018029,0.00002996,0.00000471,0.00007700,-0.00018947,-0.00003106,0.
 00003578,0.00019843,0.00002398,-0.00009041,-0.00014967,-0.00003852,-0.
 00003717,0.00015672,0.00002867,0.00029676,0.00017105,0.00014434,0.0000
 7715,-0.00019764,-0.00018371,-0.00003436,0.00056470,0.00010584,0.00251
 636,-0.00020708,-0.00088696,-0.00108520,0.00010426,-0.00012399,0.13020
 836,0.14196675,0.00034424,0.00149866,-0.00429066,0.00219491,0.00043288
 ,0.00268054,-0.01804133,-0.01734453,-0.02705315,-0.00490945,-0.0018763
 7,-0.00073365,0.00043795,-0.00181155,0.00473376,0.00016004,0.00000350,
 -0.00048061,-0.00005084,0.00006332,-0.00044780,-0.00005051,0.00000854,
 -0.00002110,0.00003098,-0.00006651,0.00017668,-0.00003029,0.00000265,0
 .00001442,0.00001297,-0.00003007,-0.00001767,0.00000773,0.00002367,0.0
 0005975,-0.00001496,-0.00003582,0.00007603,-0.00000573,0.00002672,-0.0
 0000455,0.00004995,0.00014297,-0.00066905,0.00002367,-0.00016055,0.000
 84326,-0.00000808,0.00009965,-0.00003413,0.00051872,-0.00090881,0.0046
 6328,-0.00016902,-0.00016488,0.00087391,0.01964273,0.01968279,0.021550
 57,-0.00019199,0.00037439,0.00006730,0.00220683,-0.00040591,-0.0000313
 9,0.00059114,-0.00160763,-0.00027424,-0.27534316,0.10476019,0.02056629
 ,-0.02000247,0.01453516,0.00273429,-0.00231915,-0.00475146,-0.00070078
 ,-0.00044959,0.00175745,0.00030924,-0.00002327,-0.00040650,-0.00006622
 ,-0.00051009,-0.00044692,-0.00008027,-0.00012057,0.00018844,0.00003415
 ,-0.00005480,-0.00011687,-0.00001879,0.00001984,0.00004988,0.00000818,
 0.00001537,-0.00013904,-0.00002357,-0.00011284,0.00012296,0.00002179,-
 0.00001299,-0.00007127,-0.00000857,0.00032712,-0.00021699,-0.00005107,
 -0.00020490,0.00033614,0.00006086,0.00006578,-0.00062122,-0.00011428,-
 0.00002349,-0.00012104,-0.00002005,0.00079300,0.00058001,0.00006260,0.
 29407342,0.00152541,-0.00160466,-0.00031167,-0.00181761,-0.00437805,-0
 .00169655,0.02900519,-0.00841460,-0.00186091,0.10455895,-0.10812218,-0
 .01429278,-0.01591899,0.01149446,0.00162830,-0.00321682,-0.00113142,-0
 .00148197,-0.00019451,0.00076386,0.00006609,0.00010247,-0.00003272,-0.
 00005139,-0.00040657,-0.00010734,0.00013411,0.00007807,0.00007327,0.00
 000074,-0.00007096,0.00011951,0.00001206,-0.00002085,-0.00012239,-0.00
 001906,0.00008807,0.00005626,0.00000372,0.00004245,-0.00001904,0.00000
 226,-0.00007721,-0.00017864,-0.00008387,0.00019912,0.00013864,0.000182
 14,0.00003892,-0.00004933,-0.00002521,-0.00062194,-0.00055580,0.000023
 13,0.00017479,0.00028621,0.00004176,-0.00054416,0.00091402,0.00059653,
 -0.11347941,0.11021626,0.00026395,-0.00029899,0.00006800,-0.00027256,-
 0.00171182,0.00538031,0.00495356,-0.00152441,0.00030246,0.02053378,-0.
 01429627,-0.03380765,-0.00246829,0.00129482,0.00323053,-0.00043969,-0.
 00146542,0.00750413,-0.00002377,0.00004504,0.00039695,0.00002069,-0.00
 004592,0.00025351,-0.00007341,0.00013456,-0.00084305,0.00001536,-0.000
 00047,0.00006389,-0.00001095,0.00001265,0.00005556,-0.00000392,-0.0000
 1985,-0.00001286,0.00001526,0.00000619,0.00002976,0.00000813,0.0000013
 4,-0.00003465,-0.00000979,-0.00008399,0.00030304,0.00002024,0.00018685
 ,-0.00090844,0.00000997,-0.00002867,0.00009086,-0.00011381,0.00002320,
 -0.00064576,0.00003044,0.00004490,0.00003832,-0.00012921,0.00058401,-0
 .00244104,-0.02235393,0.01620108,0.02565177,0.00038243,0.00024187,0.00
 002837,-0.00144509,-0.00041448,-0.00006098,-0.00361879,-0.00201590,-0.
 00022111,0.00440189,-0.02615692,-0.00448799,-0.05602846,0.00968180,0.0
 0187809,0.00397361,0.02858947,0.00487830,-0.00155399,0.00371110,0.0006
 2028,0.00074987,-0.00308134,-0.00054404,0.00125100,-0.00071884,-0.0001
 3515,-0.00018278,-0.00019868,-0.00003111,0.00006403,-0.00009636,-0.000
 01709,-0.00012548,0.00000040,0.00000105,0.00016995,0.00007601,0.000011
 40,-0.00009474,-0.00022306,-0.00003713,0.00004290,0.00033386,0.0000560
 2,0.00078888,0.00153120,0.00025533,-0.00068338,0.00003497,0.00001329,-
 0.00476935,0.00056836,0.00020109,-0.00009165,0.00016611,0.00002991,0.0
 0001765,-0.00127265,-0.00021116,0.00119634,0.00063019,0.00004135,0.055
 45028,-0.00002543,0.00024270,0.00017960,0.00045321,0.00032121,0.000143
 25,-0.00290766,0.00108949,-0.00108788,0.00297319,-0.00994854,-0.002173
 13,0.01098754,-0.32859713,-0.05018287,0.00258714,-0.01139649,-0.002551
 35,-0.00128224,-0.00301675,0.00000154,-0.00326400,0.00092024,0.0003314
 2,0.00021754,-0.00007180,-0.00003010,0.00001431,-0.00005841,-0.0000224
 1,-0.00000731,0.00003549,0.00000481,0.00003689,-0.00002063,0.00000199,
 -0.00003183,0.00003018,0.00000144,0.00009188,-0.00002225,-0.00000360,0
 .00014049,0.00000494,0.00000629,-0.00050479,-0.00040113,-0.00009463,0.
 00033059,-0.00022875,-0.00004485,0.00189411,0.00079565,-0.00069741,-0.
 00008480,0.00002607,-0.00000319,0.00018723,-0.00047861,-0.00018422,-0.
 00028704,0.00064175,0.00094373,-0.01141756,0.35010049,-0.00001732,0.00
 017675,-0.00077655,0.00008696,0.00015274,-0.00052128,-0.00037351,-0.00
 109804,0.00746205,0.00048676,-0.00185510,0.00225948,0.00209998,-0.0501
 6466,-0.04411266,0.00043460,-0.00283377,0.00287370,-0.00023468,-0.0000
 5198,-0.00295522,-0.00056830,0.00032191,-0.00074826,0.00002388,-0.0000
 1945,0.00008638,0.00000532,-0.00002006,0.00006857,-0.00000191,0.000005
 88,0.00000872,0.00000731,0.00000231,-0.00003418,-0.00000701,0.00000029
 ,0.00002383,0.00001661,-0.00000017,-0.00000699,0.00002299,0.00000395,-
 0.00003978,-0.00009285,-0.00011667,0.00016518,0.00006399,-0.00004163,0
 .00000520,0.00042851,-0.00068197,0.00463892,-0.00001295,-0.00000595,0.
 00004929,0.00003821,-0.00016827,0.00055881,-0.00011534,0.00093366,-0.0
 0470453,-0.00227306,0.05545792,0.03568204,0.00000300,0.00013064,0.0000
 2223,0.00023218,0.00000202,-0.00000181,-0.00014526,-0.00003188,-0.0000
 0421,0.00008000,0.00009902,0.00001633,-0.00019866,0.00015994,0.0000301
 8,0.00101633,0.00080368,0.00012658,-0.00077781,-0.00288173,-0.00051411
 ,-0.00000044,0.00253569,0.00042437,0.00829625,-0.02548218,-0.00441018,
 -0.05937981,0.03038648,0.00547073,0.00091588,0.02803282,0.00479617,-0.
 00440525,0.00103719,0.00030173,-0.00142169,-0.00000164,0.00000677,0.00
 034483,-0.00013858,-0.00003358,-0.00442021,-0.00170611,-0.00018783,0.0
 0125682,-0.00126968,-0.00022591,-0.00054605,-0.00014081,-0.00001901,-0
 .00011720,-0.00024840,-0.00004162,-0.00001251,-0.00000174,-0.00000007,
 0.00000499,0.00001638,0.00000277,0.00001757,0.00000267,0.00000016,-0.0
 0010400,-0.00001363,-0.00000089,0.05829465,-0.00002414,-0.00004680,-0.
 00000693,0.00013449,0.00008690,0.00000762,-0.00008341,-0.00003669,0.00
 000059,0.00001267,0.00005742,0.00000492,-0.00005104,-0.00003680,-0.000
 01621,-0.00000050,0.00010144,0.00000945,0.00170846,-0.00326327,-0.0000
 4739,0.00245609,0.00217689,0.00046672,0.00096161,-0.01570966,-0.003146
 81,0.02916919,-0.32543785,-0.05022890,-0.00153793,-0.00668671,-0.00142
 659,0.00218552,0.00177984,-0.00095183,-0.00051211,0.00024713,0.0001800
 7,0.00014090,0.00017563,0.00012595,-0.00297103,0.00033688,-0.00079248,
 0.00088014,-0.00046921,-0.00016402,-0.00028931,-0.00034742,-0.00004289
 ,-0.00020223,-0.00008641,-0.00000424,-0.00000683,0.00001537,0.00000129
 ,-0.00001315,-0.00000555,-0.00000113,-0.00002093,0.00000064,0.00000207
 ,-0.00001045,0.00003624,0.00000297,-0.03204530,0.34676236,-0.00000420,
 -0.00000862,-0.00000589,0.00002085,0.00000906,0.00003506,-0.00001307,-
 0.00000004,-0.00003458,0.00000166,0.00000406,0.00002843,-0.00000604,-0
 .00001851,0.00005832,-0.00001048,0.00000083,0.00004610,0.00026523,-0.0
 0000003,-0.00308076,0.00041867,0.00047054,-0.00063559,0.00010359,-0.00
 286479,0.00216134,0.00526205,-0.05024304,-0.04178347,-0.00025282,-0.00
 174502,0.00146893,0.00049815,-0.00093928,0.00705150,-0.00008014,0.0001
 7460,-0.00074508,0.00001438,0.00012900,-0.00054892,-0.00040564,-0.0008
 0591,0.00503466,0.00014157,-0.00014056,0.00040960,-0.00004424,-0.00004
 430,-0.00008574,-0.00003397,-0.00000399,-0.00004858,-0.00000094,0.0000
 0123,0.00000839,-0.00000228,-0.00000146,0.00000170,-0.00000388,0.00000
 182,-0.00000982,-0.00000054,0.00000295,0.00002030,-0.00583252,0.055273
 29,0.03460298,-0.00002493,-0.00015727,-0.00002638,-0.00000137,0.000146
 45,0.00002576,0.00002660,-0.00004201,-0.00000782,-0.00011310,0.0000837
 1,0.00001624,-0.00002811,-0.00021716,-0.00003628,-0.00067919,0.0003980
 0,0.00006652,-0.00010069,-0.00186313,-0.00031286,-0.00008306,0.0004004
 3,0.00007129,-0.00384070,0.00437316,0.00086889,-0.01949521,-0.01942627
 ,-0.00307298,-0.23693844,-0.12405743,-0.01900979,0.00462637,0.00327786
 ,0.00053362,0.00182707,0.00155815,0.00031640,-0.00005671,-0.00032870,-
 0.00005511,0.00005288,0.00072117,0.00011340,0.00015008,0.00025364,0.00
 003262,-0.00008520,-0.00035767,-0.00005919,0.00005745,0.00003450,0.000
 00850,-0.00000497,0.00002230,0.00000358,-0.00002064,-0.00001815,-0.000
 00292,-0.00004452,-0.00000380,-0.00000017,0.00001832,0.00002309,0.0000
 0365,0.00119453,0.00043841,0.00001209,0.25262149,-0.00000450,-0.000077
 47,-0.00001597,-0.00003404,0.00009748,0.00000464,0.00001234,-0.0001507
 2,-0.00001987,0.00003191,0.00015301,0.00001407,-0.00008524,0.00002333,
 -0.00000267,0.00033091,0.00009121,0.00015033,0.00007168,0.00041154,0.0
 0000325,-0.00010208,0.00008060,-0.00001816,0.00290396,0.00020936,-0.00
 129043,0.01107180,0.01072749,0.00114626,-0.12397555,-0.14426343,-0.017
 48387,-0.02727402,-0.01262361,-0.00223279,0.00267287,-0.00398733,-0.00
 182430,-0.00190834,-0.00139387,-0.00022257,0.00074698,-0.00045977,0.00
 006341,-0.00016815,-0.00002148,0.00014561,-0.00023741,0.00009710,-0.00
 000075,0.00006185,-0.00019953,-0.00008571,-0.00000772,0.00002082,0.000
 00800,-0.00001138,-0.00001295,-0.00000141,-0.00000633,0.00000922,0.000
 00180,0.00000067,0.00000428,0.00000214,-0.00055270,0.00064306,0.000904
 93,0.13520588,0.14998340,-0.00000032,-0.00001432,0.00001378,-0.0000050
 0,0.00000276,0.00007279,0.00000143,-0.00001930,-0.00003853,0.00000743,
 0.00001355,0.00007079,-0.00001381,-0.00000121,0.00004424,0.00005515,0.
 00014965,-0.00078491,0.00001723,0.00002396,0.00039207,-0.00001439,-0.0
 0002341,0.00018942,0.00061880,-0.00130633,0.00735302,0.00213482,0.0014
 7366,0.00354657,-0.01899663,-0.01748348,-0.03687918,-0.00468303,-0.002
 55903,0.00177626,0.00050636,-0.00181257,0.00621433,-0.00032505,-0.0002
 4027,-0.00000534,0.00011741,0.00006415,-0.00086882,-0.00003957,0.00014
 128,-0.00083917,-0.00003831,0.00000054,0.00011605,0.00001315,-0.000085
 54,0.00028394,-0.00000155,0.00000766,-0.00002412,-0.00000177,-0.000001
 33,-0.00000421,-0.00000061,0.00000177,-0.00000061,-0.00000018,0.000001
 89,-0.00000795,-0.00015664,0.00089365,-0.00446406,0.02063668,0.0200810
 9,0.02710912,-0.00002048,-0.00014369,-0.00002473,0.00002793,0.00030858
 ,0.00005338,-0.00008841,-0.00007098,-0.00001056,-0.00000703,0.00001348
 ,0.00000256,-0.00001714,-0.00002142,-0.00000394,0.00004187,-0.00002496
 ,-0.00000273,0.00021321,-0.00019498,-0.00004190,-0.00013533,0.00026535
 ,0.00004664,0.00009868,-0.00086646,-0.00015552,0.00200354,0.00017103,0
 .00007000,0.00140686,-0.00150398,-0.00027312,-0.28217683,0.10263276,0.
 02023256,-0.02097714,0.01630634,0.00306007,0.00309259,0.00046758,0.000
 00421,-0.00261171,-0.00442101,-0.00066974,-0.00032361,0.00186376,0.000
 32513,0.00062118,-0.00055015,-0.00010091,-0.00051576,-0.00049427,-0.00
 008501,-0.00000605,0.00002224,0.00000415,-0.00003588,-0.00001051,-0.00
 000163,-0.00001957,0.00000599,0.00000119,0.00000423,0.00001147,0.00000
 198,-0.00007214,-0.00015256,-0.00001828,0.00080068,0.00063753,0.000066
 07,0.29936149,0.00000437,0.00004908,0.00001484,-0.00000931,0.00001852,
 -0.00001030,-0.00003421,0.00010056,0.00000687,-0.00002365,-0.00011316,
 -0.00002135,0.00009447,0.00003667,0.00001249,-0.00005697,-0.00017128,-
 0.00006052,0.00023135,-0.00012377,0.00007687,0.00019444,0.00015087,0.0
 0002549,-0.00077914,-0.00066720,-0.00000544,-0.00114480,-0.00523804,-0
 .00187734,0.02874470,-0.00689242,-0.00146525,0.10502863,-0.10463874,-0
 .01406090,-0.01644542,0.01003013,0.00106502,0.00135866,0.00159885,0.00
 092639,-0.00267177,-0.00186375,-0.00120393,-0.00050152,0.00054195,0.00
 005180,0.00020971,0.00007381,0.00002244,-0.00027872,-0.00010241,0.0000
 8046,0.00000356,-0.00001020,-0.00000691,-0.00000412,0.00001071,0.00000
 547,0.00000849,-0.00000399,0.,-0.00001310,-0.00000206,-0.00000127,0.00
 124565,-0.00032535,-0.00018141,-0.00055169,0.00093587,0.00071133,-0.11
 413542,0.10659479,0.00000059,0.00001635,-0.00003525,-0.00000107,-0.000
 01370,0.00007710,-0.00000415,0.00000714,0.00006398,-0.00000383,-0.0000
 2163,0.00000959,0.00001581,0.00001367,-0.00004007,-0.00000814,-0.00006
 062,0.00017607,0.00003065,0.00008139,-0.00057504,0.00003456,0.00002480
 ,-0.00000665,-0.00013956,-0.00000420,-0.00058442,-0.00015518,-0.001891
 62,0.00550743,0.00488995,-0.00114046,-0.00036206,0.02064466,-0.0140353
 1,-0.03148048,-0.00253448,0.00071300,0.00497173,0.00015671,0.00093614,
 -0.00375732,-0.00036954,-0.00118542,0.00515627,-0.00007972,0.00002619,
 0.00027537,0.00002858,0.00003030,-0.00006372,-0.00004806,0.00008294,-0
 .00054213,0.00000101,-0.00000709,0.00002875,-0.00000055,0.00000553,-0.
 00002012,0.00000161,0.00000002,-0.00000451,-0.00000222,-0.00000153,0.0
 0000597,0.00022041,-0.00016624,0.00062714,-0.00013695,0.00069876,-0.00
 307536,-0.02246076,0.01578732,0.02422143,0.00063397,-0.00018272,-0.000
 04186,-0.00330800,0.00119763,0.00024074,0.00123204,-0.00072369,-0.0001
 3846,-0.00082939,0.00024127,0.00005063,0.00131860,-0.00107269,-0.00019
 912,-0.00089396,0.00123690,0.00022307,0.00086940,0.00470939,0.00079535
 ,-0.00089626,-0.00435890,-0.00073481,0.00120519,0.00062710,0.00008703,
 -0.00572316,0.00190266,0.00038659,0.00378988,-0.00664109,-0.00115662,0
 .00463476,0.01627841,0.00275857,0.01085458,-0.04127625,-0.00716682,-0.
 25795265,-0.06986023,-0.00935254,-0.00959486,0.00131432,0.00032021,-0.
 00119881,0.04897660,0.00839819,0.02931902,-0.03564725,-0.00652312,0.00
 542577,-0.00817547,-0.00144328,0.00068290,-0.00039040,-0.00007278,0.00
 008810,0.00004487,0.00000667,0.00012697,-0.00007946,-0.00001456,0.0001
 8633,-0.00012240,-0.00002291,-0.00005598,-0.00016657,-0.00002920,0.000
 14135,0.00061906,0.00010231,-0.00066518,-0.00047421,-0.00008034,0.2206
 0938,-0.00014801,-0.00050842,-0.00000100,-0.00044485,0.00046975,0.0000
 7773,0.00014871,-0.00037790,-0.00003555,-0.00010623,0.00030534,0.00004
 399,-0.00001342,-0.00029306,-0.00001145,0.00042558,0.00048166,0.000017
 57,0.00015224,0.00042947,0.00006321,-0.00031277,-0.00005425,-0.0000034
 1,-0.00065029,-0.00071162,0.00002072,-0.00039054,0.00056043,0.00009411
 ,-0.00124294,-0.00092923,-0.00042022,0.00320871,-0.00368017,-0.0011489
 2,-0.04138520,-0.03609868,-0.00556956,-0.05851961,-0.07769902,-0.00847
 821,-0.00030932,-0.00061536,-0.00005602,0.01314993,0.00039817,-0.00016
 778,-0.00591027,-0.01997192,-0.00088757,0.00039577,-0.00268822,-0.0007
 6269,-0.00011326,0.00011277,-0.00001844,-0.00002915,-0.00002504,-0.000
 00150,-0.00001455,0.00000606,-0.00000643,0.00005334,-0.00000616,-0.000
 00155,0.00006219,0.00003190,0.00002466,0.00008656,-0.00029760,-0.00002
 016,-0.00011572,0.00001058,0.00010426,0.09202311,0.14115051,-0.0000375
 9,-0.00000202,-0.00048776,-0.00004144,0.00006072,0.00004903,0.00001051
 ,-0.00002631,-0.00018013,-0.00000889,0.00004074,0.00005936,-0.00001870
 ,-0.00000096,-0.00022447,0.00008698,0.00000722,0.00035325,0.00001780,0
 .00001576,0.00005142,-0.00004415,0.00003853,-0.00000759,-0.00013124,0.
 00000778,-0.00078731,-0.00000748,0.00006990,0.00004625,-0.00023476,-0.
 00036529,0.00154850,0.00053060,-0.00128714,0.00262844,-0.00717635,-0.0
 0560246,-0.00168862,-0.00739508,-0.00833269,-0.02555274,0.00004134,-0.
 00007201,-0.00030249,0.00227369,-0.00055627,0.00052154,-0.00147665,-0.
 00055116,-0.01452139,0.00002910,-0.00067520,0.00162445,-0.00002459,-0.
 00001478,0.00022435,-0.00000611,-0.00000221,-0.00001497,-0.00000332,-0
 .00000580,0.00004381,0.00000727,0.00000034,-0.00000103,0.00000993,0.00
 002706,-0.00011196,0.00001122,-0.00002581,-0.00019012,-0.00001913,0.00
 010785,-0.00057370,0.01360705,0.01714419,0.03749388\\-0.00003717,0.000
 00687,-0.00000060,0.00002866,0.00002084,0.00000378,-0.00000114,0.00001
 264,0.00000178,0.00000688,-0.00000137,0.00000093,-0.00000946,-0.000008
 65,-0.00000192,0.00000734,0.00001344,0.00000344,0.00000328,-0.00000365
 ,-0.00000098,0.00000274,-0.00001137,-0.00000168,0.00000580,0.00001409,
 0.00000289,-0.00000148,-0.00001645,-0.00000185,-0.00000924,-0.00001412
 ,-0.00000171,-0.00000442,0.00000320,0.00000089,0.00002860,0.00002079,-
 0.00000558,0.00000791,0.00003576,-0.00001490,0.00000181,-0.00002569,-0
 .00000810,-0.00000552,-0.00000733,0.00002122,0.00001721,0.00003915,-0.
 00002372,-0.00000284,0.00000723,-0.00000036,-0.00002069,-0.00004679,-0
 .00000773,-0.00000383,-0.00000364,-0.00000038,0.00000542,-0.00000769,-
 0.00000089,-0.00000031,-0.00000256,0.00000009,-0.00000049,0.00000547,0
 .00000057,-0.00000055,-0.00000086,0.00000017,-0.00000265,0.00000097,-0
 .00000060,-0.00001587,-0.00003028,0.00003523\\\@


 The cat could very well be man's best friend
 but would never stoop to admitting it.
                               -- Doug Larson
 Job cpu time:       0 days  6 hours 42 minutes 53.5 seconds.
 Elapsed time:       0 days  1 hours  7 minutes 56.7 seconds.
 File lengths (MBytes):  RWF=    987 Int=      0 D2E=      0 Chk=     24 Scr=      1
 Normal termination of Gaussian 16 at Sun Jan  7 06:23:01 2024.
