
Running Job 1 of 1 189-an-CPCM.in
qchem 189-an-CPCM.in_2445595.0 /expanse/lustre/scratch/selhajj/temp_project/qcscratch/31251389/qchem2445595/ 0
/cm/shared/apps/spack/cpu/opt/spack/linux-centos8-zen2/gcc-10.2.0/qchem-5.4-akfmr7b3t57bfs6qan3padb2wnb2i7cl/exe/qcprog.exe_s 189-an-CPCM.in_2445595.0 /expanse/lustre/scratch/selhajj/temp_project/qcscratch/31251389/qchem2445595/
                  Welcome to Q-Chem
     A Quantum Leap Into The Future Of Chemistry


 Q-Chem 5.4, Q-Chem, Inc., Pleasanton, CA (2021)

 License issued to: University of California, San Diego (site)

 E. Epifanovsky,  A. T. B. Gilbert,  Xintian Feng,  Joonho Lee,  Yuezhi Mao,  
 N. Mardirossian,  P. Pokhilko,  A. White,  M. Wormit,  M. P. Coons,  
 A. L. Dempwolff,  Zhengting Gan,  D. Hait,  P. R. Horn,  L. D. Jacobson,  
 I. Kaliman,  J. Kussmann,  A. W. Lange,  Ka Un Lao,  D. S. Levine,  Jie Liu,  
 S. C. McKenzie,  A. F. Morrison,  K. Nanda,  F. Plasser,  D. R. Rehn,  
 M. L. Vidal,  Zhi-Qiang You,  Ying Zhu,  B. Alam,  B. Albrecht,  
 A. Aldossary,  E. Alguire,  J. H. Andersen,  D. Barton,  K. Begam,  A. Behn,  
 Y. A. Bernard,  E. J. Berquist,  H. Burton,  A. Carreras,  K. Carter-Fenk,  
 R. Chakraborty,  A. D. Chien,  K. D. Closser,  V. Cofer-Shabica,  
 S. Dasgupta,  Jia Deng,  M. de Wergifosse,  M. Diedenhofen,  Hainam Do,  
 S. Ehlert,  Po-Tung Fang,  S. Fatehi,  Qingguo Feng,  J. Gayvert,  
 Qinghui Ge,  G. Gidofalvi,  M. Goldey,  J. Gomes,  C. Gonzalez-Espinoza,  
 S. Gulania,  A. Gunina,  M. W. D. Hanson-Heine,  P. H. P. Harbach,  
 A. W. Hauser,  M. F. Herbst,  M. Hernandez Vera,  M. Hodecker,  
 Z. C. Holden,  S. Houck,  Xunkun Huang,  Kerwin Hui,  B. C. Huynh,  
 M. Ivanov,  Hyunjun Ji,  Hanjie Jiang,  B. Kaduk,  S. Kaehler,  
 K. Khistyaev,  Jaehoon Kim,  P. Klunzinger,  Z. Koczor-Benda,  
 Joong Hoon Koh,  D. Kosenkov,  L. Koulias,  T. Kowalczyk,  C. M. Krauter,  
 K. Kue,  A. Kunitsa,  T. Kus,  A. Landau,  K. V. Lawler,  D. Lefrancois,  
 S. Lehtola,  Rain Li,  Yi-Pei Li,  Jiashu Liang,  M. Liebenthal,  
 Hung-Hsuan Lin,  You-Sheng Lin,  Fenglai Liu,  Kuan-Yu Liu,  
 M. Loipersberger,  A. Luenser,  A. Manjanath,  P. Manohar,  E. Mansoor,  
 S. F. Manzer,  Shan-Ping Mao,  A. V. Marenich,  T. Markovich,  S. Mason,  
 S. A. Maurer,  P. F. McLaughlin,  M. F. S. J. Menger,  J.-M. Mewes,  
 S. A. Mewes,  P. Morgante,  J. W. Mullinax,  T. S. Nguyen-Beck,  
 K. J. Oosterbaan,  G. Paran,  Alexander C. Paul,  Suranjan K. Paul,  
 F. Pavosevic,  Zheng Pei,  S. Prager,  E. I. Proynov,  E. Ramos,  B. Rana,  
 A. E. Rask,  A. Rettig,  R. M. Richard,  F. Rob,  E. Rossomme,  T. Scheele,  
 M. Scheurer,  M. Schneider,  N. Sergueev,  S. M. Sharada,  W. Skomorowski,  
 D. W. Small,  C. J. Stein,  Yu-Chuan Su,  E. J. Sundstrom,  Zhen Tao,  
 J. Thirman,  T. Tsuchimochi,  N. M. Tubman,  S. P. Veccham,  O. Vydrov,  
 J. Wenzel,  J. Witte,  A. Yamada,  Kun Yao,  S. Yeganeh,  S. R. Yost,  
 A. Zech,  Igor Ying Zhang,  Xing Zhang,  Yu Zhang,  D. Zuev,  
 A. Aspuru-Guzik,  A. T. Bell,  N. A. Besley,  K. B. Bravaya,  B. R. Brooks,  
 D. Casanova,  Jeng-Da Chai,  S. Coriani,  C. J. Cramer,  
 A. E. DePrince, III,  R. A. DiStasio Jr.,  A. Dreuw,  B. D. Dunietz,  
 T. R. Furlani,  W. A. Goddard III,  S. Grimme,  S. Hammes-Schiffer,  
 T. Head-Gordon,  W. J. Hehre,  Chao-Ping Hsu,  T.-C. Jagau,  Yousung Jung,  
 A. Klamt,  Jing Kong,  D. S. Lambrecht,  WanZhen Liang,  N. J. Mayhall,  
 C. W. McCurdy,  J. B. Neaton,  C. Ochsenfeld,  J. A. Parkhill,  R. Peverati,  
 V. A. Rassolov,  Yihan Shao,  L. V. Slipchenko,  T. Stauch,  R. P. Steele,  
 J. E. Subotnik,  A. J. W. Thom,  A. Tkatchenko,  D. G. Truhlar,  
 T. Van Voorhis,  T. A. Wesolowski,  K. B. Whaley,  H. L. Woodcock III,  
 P. M. Zimmerman,  S. Faraji,  P. M. W. Gill,  M. Head-Gordon,  
 J. M. Herbert,  A. I. Krylov

 Contributors to earlier versions of Q-Chem not listed above: 
 R. D. Adamson,  B. Austin,  R. Baer,  J. Baker,  G. J. O. Beran,  
 K. Brandhorst,  S. T. Brown,  E. F. C. Byrd,  A. K. Chakraborty,  
 G. K. L. Chan,  Chun-Min Chang,  Yunqing Chen,  C.-L. Cheng,  
 Siu Hung Chien,  D. M. Chipman,  D. L. Crittenden,  H. Dachsel,  
 R. J. Doerksen,  A. D. Dutoi,  R. G. Edgar,  J. Fosso-Tande,  
 L. Fusti-Molnar,  D. Ghosh,  A. Ghysels,  A. Golubeva-Zadorozhnaya,  
 J. Gonthier,  M. S. Gordon,  S. R. Gwaltney,  G. Hawkins,  J. E. Herr,  
 A. Heyden,  S. Hirata,  E. G. Hohenstein,  G. Kedziora,  F. J. Keil,  
 C. Kelley,  Jihan Kim,  R. A. King,  R. Z. Khaliullin,  P. P. Korambath,  
 W. Kurlancheek,  A. Laurent,  A. M. Lee,  M. S. Lee,  S. V. Levchenko,  
 Ching Yeh Lin,  D. Liotard,  E. Livshits,  R. C. Lochan,  I. Lotan,  
 L. A. Martinez-Martinez,  P. E. Maslen,  N. Nair,  D. P. O'Neill,  
 D. Neuhauser,  E. Neuscamman,  C. M. Oana,  R. Olivares-Amaya,  R. Olson,  
 T. M. Perrine,  B. Peters,  P. A. Pieniazek,  A. Prociuk,  Y. M. Rhee,  
 J. Ritchie,  M. A. Rohrdanz,  E. Rosta,  N. J. Russ,  H. F. Schaefer III,  
 M. W. Schmidt,  N. E. Schultz,  S. Sharma,  N. Shenvi,  C. D. Sherrill,  
 A. C. Simmonett,  A. Sodt,  T. Stein,  D. Stuck,  K. S. Thanthiriwatte,  
 V. Vanovschi,  L. Vogt,  Tao Wang,  A. Warshel,  M. A. Watson,  
 C. F. Williams,  Q. Wu,  X. Xu,  Jun Yang,  W. Zhang,  Yan Zhao

 Please cite Q-Chem as follows:
 Y. Shao et al., Mol. Phys. 113, 184-215 (2015)
 DOI: 10.1080/00268976.2014.952696

 Q-Chem 5.4.0 for Intel X86 EM64T Linux

 Parts of Q-Chem use Armadillo 9.800.1 (Horizon Scraper).
 http://arma.sourceforge.net/

 Q-Chem begins on Tue Jun 11 20:20:37 2024  

 Host: 
0

     Scratch files written to /expanse/lustre/scratch/selhajj/temp_project/qcscratch/31251389/qchem2445595//
 May1621 |scratch|qcdevops|jenkins|workspace|build_RNUM    
 Processing $rem in /cm/shared/apps/spack/cpu/opt/spack/linux-centos8-zen2/gcc-10.2.0/qchem-5.4-akfmr7b3t57bfs6qan3padb2wnb2i7cl/config/preferences:
 Processing $rem in /home/selhajj/.qchemrc:
 Symmetry turned off for PCM/SM12/SMD calculation

 Checking the input file for inconsistencies... 	...done.

--------------------------------------------------------------
User input:
--------------------------------------------------------------
$molecule
-2 1
O                 -4.9048290000      1.1586620000      0.2507000000
C                 -3.6765580000      0.4980440000      0.1544930000
C                 -3.6413680000     -0.9176560000      0.0646620000
C                 -2.4172900000     -1.5517130000     -0.0377330000
C                 -1.1982630000     -0.8430180000     -0.0193800000
C                  0.0534320000     -1.5816800000     -0.1080620000
O                  0.0962970000     -2.8509690000     -0.1948960000
C                  1.2522670000     -0.7554700000     -0.0897160000
C                  2.5162200000     -1.3765690000     -0.1623720000
C                  3.6944430000     -0.6536890000     -0.1720610000
C                  3.6340270000      0.7602370000     -0.0685110000
O                  4.8146510000      1.5088400000     -0.0687460000
C                  2.4265080000      1.4039140000      0.0320880000
C                  1.1998350000      0.6836350000      0.0065110000
C                 -0.0478480000      1.4165450000      0.0970760000
O                 -0.0909320000      2.6926920000      0.1843890000
C                 -1.2430890000      0.5960460000      0.0812920000
C                 -2.5154760000      1.2290740000      0.1480940000
H                 -5.5809410000      0.5846770000     -0.1368360000
H                 -4.5685330000     -1.4871670000      0.0927560000
H                 -2.3539570000     -2.6324250000     -0.1142790000
H                  2.5260200000     -2.4594490000     -0.2337390000
H                  4.6576270000     -1.1504980000     -0.2731960000
H                  5.5297700000      0.9341780000      0.2396770000
H                  2.3757910000      2.4821300000      0.1305970000
H                 -2.5378030000      2.3116270000      0.1971920000
$end
$rem
MAX_SCF_CYCLES=200
BASIS  =  6-311++G(d,p)
GUI  =  2
JOB_TYPE  =  SP
METHOD  =  B3LYP
SOLVENT_METHOD = PCM
$end
$pcm
theory = CPCM
$end
$solvent
dielectric 37.219
opticaldielectric 1.43
$end






--------------------------------------------------------------
 ----------------------------------------------------------------
             Standard Nuclear Orientation (Angstroms)
    I     Atom           X                Y                Z
 ----------------------------------------------------------------
    1      O      -4.9048290000     1.1586620000     0.2507000000
    2      C      -3.6765580000     0.4980440000     0.1544930000
    3      C      -3.6413680000    -0.9176560000     0.0646620000
    4      C      -2.4172900000    -1.5517130000    -0.0377330000
    5      C      -1.1982630000    -0.8430180000    -0.0193800000
    6      C       0.0534320000    -1.5816800000    -0.1080620000
    7      O       0.0962970000    -2.8509690000    -0.1948960000
    8      C       1.2522670000    -0.7554700000    -0.0897160000
    9      C       2.5162200000    -1.3765690000    -0.1623720000
   10      C       3.6944430000    -0.6536890000    -0.1720610000
   11      C       3.6340270000     0.7602370000    -0.0685110000
   12      O       4.8146510000     1.5088400000    -0.0687460000
   13      C       2.4265080000     1.4039140000     0.0320880000
   14      C       1.1998350000     0.6836350000     0.0065110000
   15      C      -0.0478480000     1.4165450000     0.0970760000
   16      O      -0.0909320000     2.6926920000     0.1843890000
   17      C      -1.2430890000     0.5960460000     0.0812920000
   18      C      -2.5154760000     1.2290740000     0.1480940000
   19      H      -5.5809410000     0.5846770000    -0.1368360000
   20      H      -4.5685330000    -1.4871670000     0.0927560000
   21      H      -2.3539570000    -2.6324250000    -0.1142790000
   22      H       2.5260200000    -2.4594490000    -0.2337390000
   23      H       4.6576270000    -1.1504980000    -0.2731960000
   24      H       5.5297700000     0.9341780000     0.2396770000
   25      H       2.3757910000     2.4821300000     0.1305970000
   26      H      -2.5378030000     2.3116270000     0.1971920000
 ----------------------------------------------------------------
 Nuclear Repulsion Energy =        1195.06734411 hartrees
 There are       63 alpha and       63 beta electrons
 Requested basis set is 6-311++G(d,p)
 There are 148 shells and 452 basis functions

 Total QAlloc Memory Limit   8000 MB
 Mega-Array Size       188 MB
 MEM_STATIC part       192 MB
 Discretize the solute cavity surface with Lebedev spheres
	Using 110 Lebedev grid points for each H atom
	Using 194 Lebedev grid points for other atoms
	Atomic van der Waals radii will be scaled by 1.20
 Remove points where switching function is < 1.0e-08
 Keep 1801 surface tesserae and discard 2571 interior tesserae
 Molecular Surface Area = 256.926 Angst**2
 A cutoff of  1.0D-08 yielded   7582 shell pairs
 There are     73725 function pairs (     79056 Cartesian)
 Smallest overlap matrix eigenvalue = 8.28E-08

 Q-Chem warning in module stvman/mkSTV.C, line 323:

 Overlap eigenvalue is smaller than square root of threshold
 Use THRESH >= 12 to get rid of this warning

 Linear dependence detected in AO basis
 Tighter screening thresholds may be required for diffuse basis sets
 Use S2THRESH > 14 and THRESH = 14 in case of SCF convergence issues
 Number of orthogonalized atomic orbitals = 446
 Maximum deviation from orthogonality = 2.467E-10

 Scale SEOQF with 1.000000e-02/1.000000e-01/1.000000e-01

 Standard Electronic Orientation quadrupole field applied
 Nucleus-field energy     =     0.0000000234 hartrees
 Guess from superposition of atomic densities
 Warning:  Energy on first SCF cycle will be non-variational
 SAD guess density has 124.000000 electrons

 -----------------------------------------------------------------------
  General SCF calculation program by
  Eric Jon Sundstrom, Paul Horn, Yuezhi Mao, Dmitri Zuev, Alec White,
  David Stuck, Shaama M.S., Shane Yost, Joonho Lee, David Small,
  Daniel Levine, Susi Lehtola, Hugh Burton, Evgeny Epifanovsky,
  Bang C. Huynh
 -----------------------------------------------------------------------
 Exchange:     0.2000 Hartree-Fock + 0.0800 Slater + 0.7200 B88
 Correlation:  0.1900 VWN1RPA + 0.8100 LYP
 Using SG-1 standard quadrature grid
 using 8 threads for integral computing
 -------------------------------------------------------
 OpenMP Integral computing Module                
 Release: version 1.0, May 2013, Q-Chem Inc. Pittsburgh 
 -------------------------------------------------------
 A restricted SCF calculation will be
 performed using DIIS
 SCF converges when DIIS error is below 1.0e-05
 ---------------------------------------
  Cycle       Energy         DIIS error
 ---------------------------------------
    1    -843.6420882216      3.16e-02  
    2    -839.2670260736      4.29e-03  
    3    -838.1778234001      7.62e-03  
    4    -839.5983240283      2.14e-03  
    5    -839.6940816644      3.94e-04  
    6    -839.6972608116      1.83e-04  
    7    -839.6978135262      9.17e-05  
    8    -839.6979738997      3.65e-05  
    9    -839.6980028481      7.36e-06  Convergence criterion met
 ---------------------------------------
 SCF time:   CPU 334.25s  wall 43.00s 

************** Final PCM Free Energy Summary **************
 G_electrostatic  =      -0.30326439 hartree =    -190.30127722 kcal/mol
 G_cavitation     =       0.00000000 hartree =       0.00000000 kcal/mol
 G_dispersion     =       0.00000000 hartree =       0.00000000 kcal/mol
 G_repulsion      =       0.00000000 hartree =       0.00000000 kcal/mol
 --------------------------------------------------
 Non-electrostatic Free Energy =       0.00000000 hartree =       0.00000000 kcal/mol
 Total                         =      -0.30326439 hartree =    -190.30127722 kcal/mol
 --------------------------------------------------
 SCF Energy (H0 + V/2)                       =    -839.69800285 
 Solute Internal Energy (H0)                 =    -839.39473846 
 Total Free Energy (H0 + V/2 + non-elec)     =    -839.69800285 hartree
                                             = -526918.44956697 kcal/mol
***********************************************************

 SCF   energy in the final basis set =     -839.6980028481
 Total energy in the final basis set =     -839.6980028481
 
 --------------------------------------------------------------
 
                    Orbital Energies (a.u.)
 --------------------------------------------------------------
 
 Alpha MOs
 -- Occupied --
-19.1375 -19.1375 -19.0285 -19.0175 -10.2104 -10.2104 -10.1810 -10.1682
-10.1530 -10.1530 -10.1509 -10.1509 -10.1407 -10.1407 -10.1382 -10.1382
-10.1351 -10.1351  -1.0387  -1.0387  -0.9516  -0.9388  -0.8290  -0.8219
 -0.7495  -0.7278  -0.7274  -0.7039  -0.6398  -0.6113  -0.6033  -0.5663
 -0.5528  -0.5244  -0.5193  -0.4848  -0.4675  -0.4542  -0.4392  -0.4200
 -0.4093  -0.4037  -0.4021  -0.3911  -0.3900  -0.3792  -0.3748  -0.3642
 -0.3536  -0.3522  -0.3325  -0.3295  -0.3199  -0.3147  -0.3035  -0.2859
 -0.2345  -0.2272  -0.2168  -0.2080  -0.2041  -0.1977  -0.1032
 -- Virtual --
 -0.0267  -0.0003   0.0049   0.0050   0.0160   0.0201   0.0222   0.0268
  0.0416   0.0466   0.0477   0.0525   0.0650   0.0684   0.0689   0.0736
  0.0831   0.0840   0.0970   0.0995   0.1000   0.1040   0.1043   0.1108
  0.1116   0.1170   0.1243   0.1314   0.1333   0.1347   0.1369   0.1383
  0.1386   0.1424   0.1476   0.1477   0.1538   0.1589   0.1642   0.1718
  0.1780   0.1800   0.1824   0.1884   0.1953   0.1957   0.1969   0.2032
  0.2060   0.2097   0.2135   0.2197   0.2378   0.2386   0.2394   0.2411
  0.2506   0.2554   0.2584   0.2588   0.2624   0.2688   0.2712   0.2729
  0.2758   0.2820   0.2827   0.2906   0.2924   0.2996   0.3045   0.3101
  0.3112   0.3122   0.3171   0.3176   0.3189   0.3227   0.3268   0.3364
  0.3391   0.3454   0.3505   0.3511   0.3549   0.3572   0.3580   0.3639
  0.3700   0.3767   0.3863   0.3889   0.3924   0.4016   0.4055   0.4176
  0.4248   0.4387   0.4485   0.4663   0.4697   0.4811   0.5165   0.5301
  0.5335   0.5453   0.5619   0.5660   0.5763   0.5821   0.5854   0.5911
  0.5975   0.6084   0.6085   0.6143   0.6143   0.6263   0.6345   0.6417
  0.6456   0.6577   0.6638   0.6707   0.6741   0.6834   0.6885   0.6915
  0.6970   0.6995   0.7092   0.7227   0.7243   0.7494   0.7630   0.7681
  0.7818   0.7855   0.7984   0.7998   0.8109   0.8123   0.8242   0.8246
  0.8516   0.8904   0.8936   0.8955   0.9064   0.9146   0.9307   0.9432
  0.9475   0.9551   0.9616   0.9625   0.9731   0.9817   0.9887   1.0067
  1.0185   1.0186   1.0233   1.0385   1.0397   1.0458   1.0574   1.0779
  1.0787   1.0907   1.0930   1.0959   1.1175   1.1288   1.1447   1.1456
  1.1597   1.1762   1.1932   1.1942   1.2065   1.2109   1.2341   1.2346
  1.2456   1.2538   1.2615   1.2659   1.2762   1.2956   1.2971   1.3362
  1.3410   1.3544   1.3686   1.3789   1.4104   1.4357   1.4440   1.4667
  1.5116   1.5174   1.5319   1.5335   1.5490   1.5500   1.5526   1.5660
  1.5763   1.5866   1.6056   1.6139   1.6268   1.6436   1.6487   1.6580
  1.6709   1.7061   1.7227   1.7343   1.7406   1.7413   1.7616   1.7669
  1.7705   1.7859   1.8001   1.8134   1.8338   1.8366   1.8754   1.8842
  1.9182   1.9238   1.9383   1.9410   1.9560   1.9627   1.9687   1.9730
  1.9851   2.0010   2.0113   2.0248   2.0309   2.0361   2.0428   2.0623
  2.0813   2.0884   2.1009   2.1158   2.1229   2.1233   2.1785   2.1922
  2.2202   2.2356   2.2537   2.2764   2.3117   2.3289   2.3555   2.3765
  2.3936   2.4126   2.4137   2.4450   2.4945   2.5024   2.5642   2.5791
  2.6117   2.6127   2.6422   2.6695   2.6721   2.6913   2.6925   2.6996
  2.7266   2.7516   2.7606   2.7738   2.7827   2.7890   2.7942   2.8003
  2.8051   2.8101   2.8226   2.8359   2.8396   2.8898   2.9086   2.9154
  2.9173   2.9312   2.9362   2.9888   2.9972   2.9981   3.0277   3.0331
  3.0345   3.0647   3.1209   3.1223   3.1233   3.1374   3.1791   3.1808
  3.1902   3.2011   3.2316   3.2496   3.2931   3.3022   3.3460   3.3512
  3.3653   3.3710   3.3876   3.4295   3.4352   3.4656   3.4747   3.5421
  3.5504   3.5651   3.5745   3.6003   3.6185   3.6737   3.6768   3.7134
  3.8170   3.8612   3.8864   3.9039   3.9104   4.0852   4.1112   4.1268
  4.1312   4.2133   4.2426   4.3246   4.3656   4.5287   4.8504   4.8616
  4.8734   5.0389   5.0392   5.1314   5.1480   5.3124   5.3416   5.4387
  5.4501   5.7209   5.7391   5.8004   5.8674  23.5452  23.7058  23.8994
 23.9410  23.9445  23.9803  23.9994  24.0066  24.0278  24.0650  24.1411
 24.1447  24.2016  24.2047  49.9407  49.9459  50.1046  50.1628
 --------------------------------------------------------------
 
          Ground-State Mulliken Net Atomic Charges

     Atom                 Charge (a.u.)
  ----------------------------------------
      1 O                    -0.346627
      2 C                    -0.619794
      3 C                    -0.013862
      4 C                    -0.049276
      5 C                     0.049538
      6 C                    -0.349330
      7 O                    -0.656047
      8 C                     0.050022
      9 C                    -0.048906
     10 C                    -0.012506
     11 C                    -0.620460
     12 O                    -0.346238
     13 C                    -0.310785
     14 C                     0.562141
     15 C                    -0.450481
     16 O                    -0.705026
     17 C                     0.563346
     18 C                    -0.311152
     19 H                     0.304421
     20 H                     0.193586
     21 H                     0.151929
     22 H                     0.152161
     23 H                     0.193583
     24 H                     0.304310
     25 H                     0.157691
     26 H                     0.157762
  ----------------------------------------
  Sum of atomic charges =    -2.000000

 -----------------------------------------------------------------
                    Cartesian Multipole Moments
 -----------------------------------------------------------------
    Charge (ESU x 10^10)
                -9.6064
    Dipole Moment (Debye)
         X       0.1408      Y      -4.1822      Z      -0.2883
       Tot       4.1945
    Quadrupole Moments (Debye-Ang)
        XX    -116.1697     XY       1.3396     YY    -173.0078
        XZ       8.6018     YZ      -3.5872     ZZ    -116.2873
    Octopole Moments (Debye-Ang^2)
       XXX      10.1377    XXY     -99.5976    XYY      -6.9664
       YYY     -32.9001    XXZ      -7.5561    XYZ       9.4517
       YYZ      -0.5796    XZZ       1.5669    YZZ      -7.3933
       ZZZ      -1.5359
    Hexadecapole Moments (Debye-Ang^3)
      XXXX   -4203.1854   XXXY     -34.0465   XXYY   -1280.0034
      XYYY     -65.7369   YYYY   -2090.6882   XXXZ     321.1214
      XXYZ     -15.0459   XYYZ      32.8581   YYYZ     -76.3497
      XXZZ    -933.6473   XYZZ     -22.0470   YYZZ    -310.4815
      XZZZ      78.9784   YZZZ     -50.1491   ZZZZ    -155.4432
 -----------------------------------------------------------------
 Total job time:  50.28s(wall), 342.88s(cpu) 
 Tue Jun 11 20:21:28 2024

        *************************************************************
        *                                                           *
        *  Thank you very much for using Q-Chem.  Have a nice day.  *
        *                                                           *
        *************************************************************


