
Running Job 1 of 1 271-SM12.in
qchem 271-SM12.in_681658.0 /expanse/lustre/scratch/selhajj/temp_project/qcscratch/28446774/qchem681658/ 0
/cm/shared/apps/spack/cpu/opt/spack/linux-centos8-zen2/gcc-10.2.0/qchem-5.4-akfmr7b3t57bfs6qan3padb2wnb2i7cl/exe/qcprog.exe_s 271-SM12.in_681658.0 /expanse/lustre/scratch/selhajj/temp_project/qcscratch/28446774/qchem681658/
                  Welcome to Q-Chem
     A Quantum Leap Into The Future Of Chemistry


 Q-Chem 5.4, Q-Chem, Inc., Pleasanton, CA (2021)

 License issued to: University of California, San Diego (site)

 E. Epifanovsky,  A. T. B. Gilbert,  Xintian Feng,  Joonho Lee,  Yuezhi Mao,  
 N. Mardirossian,  P. Pokhilko,  A. White,  M. Wormit,  M. P. Coons,  
 A. L. Dempwolff,  Zhengting Gan,  D. Hait,  P. R. Horn,  L. D. Jacobson,  
 I. Kaliman,  J. Kussmann,  A. W. Lange,  Ka Un Lao,  D. S. Levine,  Jie Liu,  
 S. C. McKenzie,  A. F. Morrison,  K. Nanda,  F. Plasser,  D. R. Rehn,  
 M. L. Vidal,  Zhi-Qiang You,  Ying Zhu,  B. Alam,  B. Albrecht,  
 A. Aldossary,  E. Alguire,  J. H. Andersen,  D. Barton,  K. Begam,  A. Behn,  
 Y. A. Bernard,  E. J. Berquist,  H. Burton,  A. Carreras,  K. Carter-Fenk,  
 R. Chakraborty,  A. D. Chien,  K. D. Closser,  V. Cofer-Shabica,  
 S. Dasgupta,  Jia Deng,  M. de Wergifosse,  M. Diedenhofen,  Hainam Do,  
 S. Ehlert,  Po-Tung Fang,  S. Fatehi,  Qingguo Feng,  J. Gayvert,  
 Qinghui Ge,  G. Gidofalvi,  M. Goldey,  J. Gomes,  C. Gonzalez-Espinoza,  
 S. Gulania,  A. Gunina,  M. W. D. Hanson-Heine,  P. H. P. Harbach,  
 A. W. Hauser,  M. F. Herbst,  M. Hernandez Vera,  M. Hodecker,  
 Z. C. Holden,  S. Houck,  Xunkun Huang,  Kerwin Hui,  B. C. Huynh,  
 M. Ivanov,  Hyunjun Ji,  Hanjie Jiang,  B. Kaduk,  S. Kaehler,  
 K. Khistyaev,  Jaehoon Kim,  P. Klunzinger,  Z. Koczor-Benda,  
 Joong Hoon Koh,  D. Kosenkov,  L. Koulias,  T. Kowalczyk,  C. M. Krauter,  
 K. Kue,  A. Kunitsa,  T. Kus,  A. Landau,  K. V. Lawler,  D. Lefrancois,  
 S. Lehtola,  Rain Li,  Yi-Pei Li,  Jiashu Liang,  M. Liebenthal,  
 Hung-Hsuan Lin,  You-Sheng Lin,  Fenglai Liu,  Kuan-Yu Liu,  
 M. Loipersberger,  A. Luenser,  A. Manjanath,  P. Manohar,  E. Mansoor,  
 S. F. Manzer,  Shan-Ping Mao,  A. V. Marenich,  T. Markovich,  S. Mason,  
 S. A. Maurer,  P. F. McLaughlin,  M. F. S. J. Menger,  J.-M. Mewes,  
 S. A. Mewes,  P. Morgante,  J. W. Mullinax,  T. S. Nguyen-Beck,  
 K. J. Oosterbaan,  G. Paran,  Alexander C. Paul,  Suranjan K. Paul,  
 F. Pavosevic,  Zheng Pei,  S. Prager,  E. I. Proynov,  E. Ramos,  B. Rana,  
 A. E. Rask,  A. Rettig,  R. M. Richard,  F. Rob,  E. Rossomme,  T. Scheele,  
 M. Scheurer,  M. Schneider,  N. Sergueev,  S. M. Sharada,  W. Skomorowski,  
 D. W. Small,  C. J. Stein,  Yu-Chuan Su,  E. J. Sundstrom,  Zhen Tao,  
 J. Thirman,  T. Tsuchimochi,  N. M. Tubman,  S. P. Veccham,  O. Vydrov,  
 J. Wenzel,  J. Witte,  A. Yamada,  Kun Yao,  S. Yeganeh,  S. R. Yost,  
 A. Zech,  Igor Ying Zhang,  Xing Zhang,  Yu Zhang,  D. Zuev,  
 A. Aspuru-Guzik,  A. T. Bell,  N. A. Besley,  K. B. Bravaya,  B. R. Brooks,  
 D. Casanova,  Jeng-Da Chai,  S. Coriani,  C. J. Cramer,  
 A. E. DePrince, III,  R. A. DiStasio Jr.,  A. Dreuw,  B. D. Dunietz,  
 T. R. Furlani,  W. A. Goddard III,  S. Grimme,  S. Hammes-Schiffer,  
 T. Head-Gordon,  W. J. Hehre,  Chao-Ping Hsu,  T.-C. Jagau,  Yousung Jung,  
 A. Klamt,  Jing Kong,  D. S. Lambrecht,  WanZhen Liang,  N. J. Mayhall,  
 C. W. McCurdy,  J. B. Neaton,  C. Ochsenfeld,  J. A. Parkhill,  R. Peverati,  
 V. A. Rassolov,  Yihan Shao,  L. V. Slipchenko,  T. Stauch,  R. P. Steele,  
 J. E. Subotnik,  A. J. W. Thom,  A. Tkatchenko,  D. G. Truhlar,  
 T. Van Voorhis,  T. A. Wesolowski,  K. B. Whaley,  H. L. Woodcock III,  
 P. M. Zimmerman,  S. Faraji,  P. M. W. Gill,  M. Head-Gordon,  
 J. M. Herbert,  A. I. Krylov

 Contributors to earlier versions of Q-Chem not listed above: 
 R. D. Adamson,  B. Austin,  R. Baer,  J. Baker,  G. J. O. Beran,  
 K. Brandhorst,  S. T. Brown,  E. F. C. Byrd,  A. K. Chakraborty,  
 G. K. L. Chan,  Chun-Min Chang,  Yunqing Chen,  C.-L. Cheng,  
 Siu Hung Chien,  D. M. Chipman,  D. L. Crittenden,  H. Dachsel,  
 R. J. Doerksen,  A. D. Dutoi,  R. G. Edgar,  J. Fosso-Tande,  
 L. Fusti-Molnar,  D. Ghosh,  A. Ghysels,  A. Golubeva-Zadorozhnaya,  
 J. Gonthier,  M. S. Gordon,  S. R. Gwaltney,  G. Hawkins,  J. E. Herr,  
 A. Heyden,  S. Hirata,  E. G. Hohenstein,  G. Kedziora,  F. J. Keil,  
 C. Kelley,  Jihan Kim,  R. A. King,  R. Z. Khaliullin,  P. P. Korambath,  
 W. Kurlancheek,  A. Laurent,  A. M. Lee,  M. S. Lee,  S. V. Levchenko,  
 Ching Yeh Lin,  D. Liotard,  E. Livshits,  R. C. Lochan,  I. Lotan,  
 L. A. Martinez-Martinez,  P. E. Maslen,  N. Nair,  D. P. O'Neill,  
 D. Neuhauser,  E. Neuscamman,  C. M. Oana,  R. Olivares-Amaya,  R. Olson,  
 T. M. Perrine,  B. Peters,  P. A. Pieniazek,  A. Prociuk,  Y. M. Rhee,  
 J. Ritchie,  M. A. Rohrdanz,  E. Rosta,  N. J. Russ,  H. F. Schaefer III,  
 M. W. Schmidt,  N. E. Schultz,  S. Sharma,  N. Shenvi,  C. D. Sherrill,  
 A. C. Simmonett,  A. Sodt,  T. Stein,  D. Stuck,  K. S. Thanthiriwatte,  
 V. Vanovschi,  L. Vogt,  Tao Wang,  A. Warshel,  M. A. Watson,  
 C. F. Williams,  Q. Wu,  X. Xu,  Jun Yang,  W. Zhang,  Yan Zhao

 Please cite Q-Chem as follows:
 Y. Shao et al., Mol. Phys. 113, 184-215 (2015)
 DOI: 10.1080/00268976.2014.952696

 Q-Chem 5.4.0 for Intel X86 EM64T Linux

 Parts of Q-Chem use Armadillo 9.800.1 (Horizon Scraper).
 http://arma.sourceforge.net/

 Q-Chem begins on Sat Feb  3 13:15:21 2024  

 Host: 
0

     Scratch files written to /expanse/lustre/scratch/selhajj/temp_project/qcscratch/28446774/qchem681658//
 May1621 |scratch|qcdevops|jenkins|workspace|build_RNUM    
 Processing $rem in /cm/shared/apps/spack/cpu/opt/spack/linux-centos8-zen2/gcc-10.2.0/qchem-5.4-akfmr7b3t57bfs6qan3padb2wnb2i7cl/config/preferences:
 Processing $rem in /home/selhajj/.qchemrc:
 Symmetry turned off for PCM/SM12/SMD calculation
 Method-specific promolecule density matrix will be built for SM12 calculation

 Checking the input file for inconsistencies... 	...done.

--------------------------------------------------------------
User input:
--------------------------------------------------------------
$molecule
0 1
C                 -1.0137440000      3.9425990000      0.0255030000
C                 -2.1983990000      3.2231470000      0.1601780000
C                 -2.1746400000      1.8280860000      0.1401710000
C                  0.1964700000      3.2640240000     -0.1269520000
C                  0.2208930000      1.8624720000     -0.1457860000
C                 -0.9682250000      1.1472820000     -0.0147390000
C                  1.4587100000      4.0253620000     -0.2725610000
C                  2.7530930000      3.2724610000     -0.4480270000
C                  2.7559330000      1.8959540000     -0.3972220000
C                  1.5100090000      1.1326400000     -0.3082910000
O                  1.4880030000      5.2453920000     -0.2634370000
O                  1.5320710000     -0.0974970000     -0.3832050000
N                  3.8156330000      4.0687020000     -0.6760750000
H                 -1.0082530000      5.0254790000      0.0349740000
H                 -3.1388170000      3.7484950000      0.2801610000
H                 -3.0978830000      1.2696750000      0.2451430000
H                 -0.9292710000      0.0654220000     -0.0345270000
H                  3.6383790000      5.0587410000     -0.5648250000
H                  4.7393690000      3.6950130000     -0.4567600000
N                  3.8679450000      1.0445980000     -0.5688680000
C                  5.1904970000      1.2103520000     -0.2628820000
C                  6.0558700000     -0.0115300000     -0.4975180000
H                  3.5553050000      0.0937770000     -0.7433340000
H                  5.4930720000     -0.9032720000     -0.7767760000
H                  6.6249640000     -0.2106660000      0.4121680000
H                  6.7733840000      0.2173980000     -1.2890810000
O                  5.6771090000      2.2551330000      0.1600990000
$end

$rem
BASIS  =  6-311++G(d,p)
GUI  =  2
JOB_TYPE  =  SP
METHOD  =  B3LYP
SCF_CONVERGENCE  = 8
SOLVENT_METHOD = sm12
$end

$smx
solvent dimethylformamide
charges CM5
$end





--------------------------------------------------------------
 ----------------------------------------------------------------
             Standard Nuclear Orientation (Angstroms)
    I     Atom           X                Y                Z
 ----------------------------------------------------------------
    1      C      -1.0137440000     3.9425990000     0.0255030000
    2      C      -2.1983990000     3.2231470000     0.1601780000
    3      C      -2.1746400000     1.8280860000     0.1401710000
    4      C       0.1964700000     3.2640240000    -0.1269520000
    5      C       0.2208930000     1.8624720000    -0.1457860000
    6      C      -0.9682250000     1.1472820000    -0.0147390000
    7      C       1.4587100000     4.0253620000    -0.2725610000
    8      C       2.7530930000     3.2724610000    -0.4480270000
    9      C       2.7559330000     1.8959540000    -0.3972220000
   10      C       1.5100090000     1.1326400000    -0.3082910000
   11      O       1.4880030000     5.2453920000    -0.2634370000
   12      O       1.5320710000    -0.0974970000    -0.3832050000
   13      N       3.8156330000     4.0687020000    -0.6760750000
   14      H      -1.0082530000     5.0254790000     0.0349740000
   15      H      -3.1388170000     3.7484950000     0.2801610000
   16      H      -3.0978830000     1.2696750000     0.2451430000
   17      H      -0.9292710000     0.0654220000    -0.0345270000
   18      H       3.6383790000     5.0587410000    -0.5648250000
   19      H       4.7393690000     3.6950130000    -0.4567600000
   20      N       3.8679450000     1.0445980000    -0.5688680000
   21      C       5.1904970000     1.2103520000    -0.2628820000
   22      C       6.0558700000    -0.0115300000    -0.4975180000
   23      H       3.5553050000     0.0937770000    -0.7433340000
   24      H       5.4930720000    -0.9032720000    -0.7767760000
   25      H       6.6249640000    -0.2106660000     0.4121680000
   26      H       6.7733840000     0.2173980000    -1.2890810000
   27      O       5.6771090000     2.2551330000     0.1600990000
 ----------------------------------------------------------------
 Nuclear Repulsion Energy =        1148.57497415 hartrees
 There are       60 alpha and       60 beta electrons
 Requested basis set is 6-311++G(d,p)
 There are 152 shells and 444 basis functions

 Total QAlloc Memory Limit   8000 MB
 Mega-Array Size       188 MB
 MEM_STATIC part       192 MB
 A cutoff of  1.0D-11 yielded   8904 shell pairs
 There are     78983 function pairs (     84708 Cartesian)
 Smallest overlap matrix eigenvalue = 1.66E-07

 Q-Chem warning in module stvman/mkSTV.C, line 323:

 Overlap eigenvalue is smaller than square root of threshold
 Use THRESH >= 12 to get rid of this warning

 Linear dependence detected in AO basis
 Tighter screening thresholds may be required for diffuse basis sets
 Use S2THRESH > 14 and THRESH = 14 in case of SCF convergence issues
 Number of orthogonalized atomic orbitals = 440
 Maximum deviation from orthogonality = 2.076E-10

 Scale SEOQF with 1.000000e-02/1.000000e-02/1.000000e-01

 Standard Electronic Orientation quadrupole field applied
 Nucleus-field energy     =     0.0000000094 hartrees
 ================ Generating on-the-fly Promolecule Density  ================
Attempting to make child job directory: /expanse/lustre/scratch/selhajj/temp_project/qcscratch/28446774/qchem681658//Frg1/
Attempting to make child job directory: /expanse/lustre/scratch/selhajj/temp_project/qcscratch/28446774/qchem681658//Frg2/
Attempting to make child job directory: /expanse/lustre/scratch/selhajj/temp_project/qcscratch/28446774/qchem681658//Frg3/
Attempting to make child job directory: /expanse/lustre/scratch/selhajj/temp_project/qcscratch/28446774/qchem681658//Frg4/
Creating input file /expanse/lustre/scratch/selhajj/temp_project/qcscratch/28446774/qchem681658/Frg1.input
using default PutDataFrgm: nothing
calling putenv with: QCSCRATCH=/expanse/lustre/scratch/selhajj/temp_project/qcscratch/28446774/qchem681658/ 
Spawning Job For Fragment 0
Done Job For Fragment 0
calling putenv with: QCSCRATCH=/expanse/lustre/scratch/selhajj/temp_project/qcscratch/28446774 
calling putenv with: QCTHREADS=8 
Creating input file /expanse/lustre/scratch/selhajj/temp_project/qcscratch/28446774/qchem681658/Frg2.input
using default PutDataFrgm: nothing
calling putenv with: QCSCRATCH=/expanse/lustre/scratch/selhajj/temp_project/qcscratch/28446774/qchem681658/ 
Spawning Job For Fragment 1
Done Job For Fragment 1
calling putenv with: QCSCRATCH=/expanse/lustre/scratch/selhajj/temp_project/qcscratch/28446774 
calling putenv with: QCTHREADS=8 
Creating input file /expanse/lustre/scratch/selhajj/temp_project/qcscratch/28446774/qchem681658/Frg3.input
using default PutDataFrgm: nothing
calling putenv with: QCSCRATCH=/expanse/lustre/scratch/selhajj/temp_project/qcscratch/28446774/qchem681658/ 
Spawning Job For Fragment 2
Done Job For Fragment 2
calling putenv with: QCSCRATCH=/expanse/lustre/scratch/selhajj/temp_project/qcscratch/28446774 
calling putenv with: QCTHREADS=8 
Creating input file /expanse/lustre/scratch/selhajj/temp_project/qcscratch/28446774/qchem681658/Frg4.input
using default PutDataFrgm: nothing
calling putenv with: QCSCRATCH=/expanse/lustre/scratch/selhajj/temp_project/qcscratch/28446774/qchem681658/ 
Spawning Job For Fragment 3
Done Job For Fragment 3
calling putenv with: QCSCRATCH=/expanse/lustre/scratch/selhajj/temp_project/qcscratch/28446774 
calling putenv with: QCTHREADS=8 
 Time for running child jobs:  CPU 0.01 s  wall 3.93 s
 ============= Method Specific Promolecule Density Constructed =============
 Guess from superposition of atomic densities
 Warning:  Energy on first SCF cycle will be non-variational
 SAD guess density has 120.000000 electrons

 -----------------------------------------------------------------------
  General SCF calculation program by
  Eric Jon Sundstrom, Paul Horn, Yuezhi Mao, Dmitri Zuev, Alec White,
  David Stuck, Shaama M.S., Shane Yost, Joonho Lee, David Small,
  Daniel Levine, Susi Lehtola, Hugh Burton, Evgeny Epifanovsky,
  Bang C. Huynh
 -----------------------------------------------------------------------
 Exchange:     0.2000 Hartree-Fock + 0.0800 Slater + 0.7200 B88
 Correlation:  0.1900 VWN1RPA + 0.8100 LYP
 Using SG-1 standard quadrature grid
 using 8 threads for integral computing
 -------------------------------------------------------
 OpenMP Integral computing Module                
 Release: version 1.0, May 2013, Q-Chem Inc. Pittsburgh 
 -------------------------------------------------------
 
 SM12 calculation using CM5 charges
 Citation of the SM12 model:
 Marenich, A.V.; Cramer, C.J.; Truhlar, D.G.
 J. Chem. Theory Comput. 2013, 9, 609-612.
 iSolventCode=          91
 Solvent: dimethylformamide                                               
 
Hirshfeld: reading atomic densities from disk.
warning:  vdwdata pointer should have been initialzed before dftman

 Charges (in A.U.) from CM5PAC (Nov. 11, 2011)
 -----------------------------------------------
 Center     Atomic      CM5         Hirshfeld
 Number     Number      Charge      Charge
 -----------------------------------------------
    1          6       -0.052144   -0.000509
    2          6       -0.058334   -0.002891
    3          6       -0.058289   -0.002895
    4          6       -0.001816   -0.000242
    5          6       -0.001753   -0.000143
    6          6       -0.052064   -0.000435
    7          6        0.046729    0.008295
    8          6        0.076868    0.006465
    9          6        0.071562    0.007260
   10          6        0.045506    0.008140
   11          8       -0.068695   -0.017441
   12          8       -0.070744   -0.017677
   13          7       -0.466623   -0.017000
   14          1        0.065670    0.005305
   15          1        0.058861    0.003051
   16          1        0.058850    0.003051
   17          1        0.066084    0.005375
   18          1        0.208739    0.010372
   19          1        0.219078    0.010805
   20          7       -0.360885   -0.018604
   21          6        0.099799    0.010483
   22          6       -0.139637   -0.002463
   23          1        0.215562    0.009495
   24          1        0.058441    0.002904
   25          1        0.058332    0.003659
   26          1        0.057776    0.003525
   27          8       -0.077068   -0.018080
 -----------------------------------------------

 Dipole moment (in Debye)
 -----------------------------------------------
                 X        Y        Z     Total
 -----------------------------------------------
 CM5         -0.3870  -0.7672   0.2236   0.8879
 Hirshfeld   -0.0956  -0.0676  -0.0187   0.1186
 -----------------------------------------------

 A restricted SCF calculation will be
 performed using DIIS
 SCF converges when DIIS error is below 1.0e-08
 ---------------------------------------
  Cycle       Energy         DIIS error
 ---------------------------------------
Hirshfeld: reading atomic densities from disk.

 Charges (in A.U.) from CM5PAC (Nov. 11, 2011)
 -----------------------------------------------
 Center     Atomic      CM5         Hirshfeld
 Number     Number      Charge      Charge
 -----------------------------------------------
    1          6       -0.147141   -0.095505
    2          6       -0.156974   -0.101531
    3          6       -0.147076   -0.091682
    4          6       -0.031416   -0.029841
    5          6       -0.022275   -0.020665
    6          6       -0.154661   -0.103033
    7          6        0.405749    0.367315
    8          6        0.169795    0.099392
    9          6        0.087670    0.023368
   10          6        0.346227    0.308860
   11          8       -0.487832   -0.436578
   12          8       -0.526248   -0.473181
   13          7       -0.725189   -0.275566
   14          1        0.174026    0.113662
   15          1        0.180458    0.124648
   16          1        0.180922    0.125122
   17          1        0.172741    0.112032
   18          1        0.384648    0.186281
   19          1        0.360398    0.152125
   20          7       -0.434404   -0.092123
   21          6        0.484062    0.394746
   22          6       -0.414385   -0.277211
   23          1        0.386449    0.180381
   24          1        0.167490    0.111953
   25          1        0.163903    0.109230
   26          1        0.165838    0.111586
   27          8       -0.582638   -0.523650
 -----------------------------------------------

 Dipole moment (in Debye)
 -----------------------------------------------
                 X        Y        Z     Total
 -----------------------------------------------
 CM5         -1.7283  -2.9217  -0.7947   3.4863
 Hirshfeld   -1.4368  -2.2221  -1.0370   2.8421
 -----------------------------------------------

    1    -802.7904560272      3.21e-02  
Hirshfeld: reading atomic densities from disk.

 Charges (in A.U.) from CM5PAC (Nov. 11, 2011)
 -----------------------------------------------
 Center     Atomic      CM5         Hirshfeld
 Number     Number      Charge      Charge
 -----------------------------------------------
    1          6        0.020746    0.072382
    2          6        0.045728    0.101170
    3          6        0.041171    0.096565
    4          6       -0.077397   -0.075823
    5          6       -0.071977   -0.070367
    6          6        0.026867    0.078496
    7          6       -0.265613   -0.304047
    8          6       -0.055281   -0.125684
    9          6       -0.089202   -0.153504
   10          6       -0.242639   -0.280006
   11          8        0.199893    0.251147
   12          8        0.198435    0.251503
   13          7       -0.366938    0.082686
   14          1        0.044317   -0.016048
   15          1        0.043453   -0.012357
   16          1        0.043741   -0.012058
   17          1        0.041880   -0.018829
   18          1        0.244587    0.046220
   19          1        0.243653    0.035380
   20          7       -0.470015   -0.127734
   21          6       -0.134590   -0.223906
   22          6       -0.017122    0.120052
   23          1        0.255518    0.049451
   24          1        0.038710   -0.016827
   25          1        0.052904   -0.001769
   26          1        0.049918   -0.004333
   27          8        0.200023    0.259011
 -----------------------------------------------

 Dipole moment (in Debye)
 -----------------------------------------------
                 X        Y        Z     Total
 -----------------------------------------------
 CM5         -0.9827   0.7605   1.0310   1.6146
 Hirshfeld   -0.6913   1.4601   0.7887   1.7977
 -----------------------------------------------

    2    -798.4175769773      3.97e-03  
Hirshfeld: reading atomic densities from disk.

 Charges (in A.U.) from CM5PAC (Nov. 11, 2011)
 -----------------------------------------------
 Center     Atomic      CM5         Hirshfeld
 Number     Number      Charge      Charge
 -----------------------------------------------
    1          6       -0.056084   -0.004448
    2          6       -0.073037   -0.017595
    3          6       -0.068401   -0.013007
    4          6        0.031407    0.032981
    5          6        0.034221    0.035831
    6          6       -0.062043   -0.010414
    7          6        0.238583    0.200149
    8          6        0.155285    0.084882
    9          6        0.125058    0.060756
   10          6        0.212968    0.175601
   11          8       -0.402921   -0.351667
   12          8       -0.437361   -0.384294
   13          7       -0.571555   -0.121932
   14          1        0.092316    0.031951
   15          1        0.096022    0.040212
   16          1        0.096741    0.040941
   17          1        0.090925    0.030216
   18          1        0.296043    0.097676
   19          1        0.284653    0.076380
   20          7       -0.337811    0.004471
   21          6        0.274529    0.185213
   22          6       -0.145116   -0.007941
   23          1        0.300509    0.094441
   24          1        0.087534    0.031997
   25          1        0.091940    0.037267
   26          1        0.091974    0.037723
   27          8       -0.445789   -0.386801
 -----------------------------------------------

 Dipole moment (in Debye)
 -----------------------------------------------
                 X        Y        Z     Total
 -----------------------------------------------
 CM5         -2.0710  -2.4420  -0.5682   3.2520
 Hirshfeld   -1.7796  -1.7424  -0.8105   2.6191
 -----------------------------------------------

    3    -797.8852493782      6.75e-03  
Hirshfeld: reading atomic densities from disk.

 Charges (in A.U.) from CM5PAC (Nov. 11, 2011)
 -----------------------------------------------
 Center     Atomic      CM5         Hirshfeld
 Number     Number      Charge      Charge
 -----------------------------------------------
    1          6       -0.074559   -0.022924
    2          6       -0.073866   -0.018424
    3          6       -0.070008   -0.014614
    4          6       -0.034735   -0.033161
    5          6       -0.029103   -0.027493
    6          6       -0.076142   -0.024513
    7          6        0.186528    0.148094
    8          6        0.110347    0.039944
    9          6        0.047443   -0.016859
   10          6        0.158007    0.120641
   11          8       -0.267181   -0.215927
   12          8       -0.293912   -0.240844
   13          7       -0.602258   -0.152635
   14          1        0.116409    0.056045
   15          1        0.118640    0.062830
   16          1        0.118973    0.063174
   17          1        0.115052    0.054343
   18          1        0.318295    0.119928
   19          1        0.303396    0.095122
   20          7       -0.437728   -0.095447
   21          6        0.282899    0.193583
   22          6       -0.225247   -0.088073
   23          1        0.322141    0.116074
   24          1        0.107966    0.052429
   25          1        0.113791    0.059118
   26          1        0.113689    0.059438
   27          8       -0.348366   -0.289378
 -----------------------------------------------

 Dipole moment (in Debye)
 -----------------------------------------------
                 X        Y        Z     Total
 -----------------------------------------------
 CM5         -2.0337  -1.9319  -0.1889   2.8114
 Hirshfeld   -1.7423  -1.2323  -0.4312   2.1772
 -----------------------------------------------

    4    -798.6921351921      1.42e-03  
Hirshfeld: reading atomic densities from disk.

 Charges (in A.U.) from CM5PAC (Nov. 11, 2011)
 -----------------------------------------------
 Center     Atomic      CM5         Hirshfeld
 Number     Number      Charge      Charge
 -----------------------------------------------
    1          6       -0.068409   -0.016773
    2          6       -0.073580   -0.018137
    3          6       -0.068500   -0.013106
    4          6       -0.021034   -0.019459
    5          6       -0.014367   -0.012757
    6          6       -0.072967   -0.021338
    7          6        0.178274    0.139841
    8          6        0.108697    0.038294
    9          6        0.056515   -0.007787
   10          6        0.151923    0.114557
   11          8       -0.293404   -0.242150
   12          8       -0.324457   -0.271390
   13          7       -0.573334   -0.123710
   14          1        0.114234    0.053869
   15          1        0.116556    0.060746
   16          1        0.117028    0.061228
   17          1        0.112831    0.052121
   18          1        0.314942    0.116575
   19          1        0.302430    0.094157
   20          7       -0.406521   -0.064239
   21          6        0.252300    0.162983
   22          6       -0.217533   -0.080358
   23          1        0.319647    0.113579
   24          1        0.106621    0.051084
   25          1        0.111831    0.057158
   26          1        0.112032    0.057781
   27          8       -0.341287   -0.282299
 -----------------------------------------------

 Dipole moment (in Debye)
 -----------------------------------------------
                 X        Y        Z     Total
 -----------------------------------------------
 CM5         -1.9142  -1.7920  -0.2375   2.6328
 Hirshfeld   -1.6228  -1.0924  -0.4798   2.0142
 -----------------------------------------------

    5    -798.7358858310      3.21e-04  
Hirshfeld: reading atomic densities from disk.

 Charges (in A.U.) from CM5PAC (Nov. 11, 2011)
 -----------------------------------------------
 Center     Atomic      CM5         Hirshfeld
 Number     Number      Charge      Charge
 -----------------------------------------------
    1          6       -0.070729   -0.019093
    2          6       -0.073828   -0.018385
    3          6       -0.069733   -0.014339
    4          6       -0.020606   -0.019031
    5          6       -0.014815   -0.013205
    6          6       -0.073668   -0.022039
    7          6        0.180997    0.142563
    8          6        0.111738    0.041335
    9          6        0.059492   -0.004810
   10          6        0.155819    0.118453
   11          8       -0.287272   -0.236018
   12          8       -0.313810   -0.260742
   13          7       -0.588884   -0.139261
   14          1        0.112973    0.052608
   15          1        0.115595    0.059785
   16          1        0.116032    0.060233
   17          1        0.111526    0.050817
   18          1        0.315026    0.116659
   19          1        0.302085    0.093812
   20          7       -0.412247   -0.069965
   21          6        0.265344    0.176028
   22          6       -0.210110   -0.072936
   23          1        0.319191    0.113123
   24          1        0.104880    0.049343
   25          1        0.110154    0.055481
   26          1        0.110206    0.055955
   27          8       -0.354876   -0.295888
 -----------------------------------------------

 Dipole moment (in Debye)
 -----------------------------------------------
                 X        Y        Z     Total
 -----------------------------------------------
 CM5         -1.9875  -2.0091  -0.2519   2.8373
 Hirshfeld   -1.6961  -1.3096  -0.4942   2.1991
 -----------------------------------------------

    6    -798.7376158935      1.45e-04  
Hirshfeld: reading atomic densities from disk.

 Charges (in A.U.) from CM5PAC (Nov. 11, 2011)
 -----------------------------------------------
 Center     Atomic      CM5         Hirshfeld
 Number     Number      Charge      Charge
 -----------------------------------------------
    1          6       -0.069966   -0.018330
    2          6       -0.073224   -0.017781
    3          6       -0.068909   -0.013515
    4          6       -0.021901   -0.020326
    5          6       -0.016307   -0.014698
    6          6       -0.073248   -0.021619
    7          6        0.184334    0.145900
    8          6        0.113478    0.043074
    9          6        0.057466   -0.006836
   10          6        0.157611    0.120244
   11          8       -0.289016   -0.237762
   12          8       -0.319075   -0.266008
   13          7       -0.585164   -0.135541
   14          1        0.113000    0.052635
   15          1        0.115556    0.059746
   16          1        0.115994    0.060194
   17          1        0.111624    0.050914
   18          1        0.314545    0.116178
   19          1        0.301504    0.093231
   20          7       -0.415129   -0.072847
   21          6        0.264486    0.175170
   22          6       -0.212345   -0.075171
   23          1        0.319191    0.113123
   24          1        0.105111    0.049574
   25          1        0.110501    0.055828
   26          1        0.110551    0.056299
   27          8       -0.350185   -0.291197
 -----------------------------------------------

 Dipole moment (in Debye)
 -----------------------------------------------
                 X        Y        Z     Total
 -----------------------------------------------
 CM5         -1.9662  -1.8868  -0.2380   2.7354
 Hirshfeld   -1.6748  -1.1872  -0.4803   2.1084
 -----------------------------------------------

    7    -798.7379748064      4.51e-05  
Hirshfeld: reading atomic densities from disk.

 Charges (in A.U.) from CM5PAC (Nov. 11, 2011)
 -----------------------------------------------
 Center     Atomic      CM5         Hirshfeld
 Number     Number      Charge      Charge
 -----------------------------------------------
    1          6       -0.069944   -0.018308
    2          6       -0.073459   -0.018016
    3          6       -0.069041   -0.013647
    4          6       -0.021937   -0.020362
    5          6       -0.016027   -0.014417
    6          6       -0.073250   -0.021621
    7          6        0.183312    0.144878
    8          6        0.111955    0.041552
    9          6        0.058334   -0.005968
   10          6        0.157054    0.119688
   11          8       -0.289154   -0.237899
   12          8       -0.317400   -0.264333
   13          7       -0.585640   -0.136017
   14          1        0.113102    0.052737
   15          1        0.115661    0.059852
   16          1        0.116096    0.060297
   17          1        0.111690    0.050981
   18          1        0.314654    0.116287
   19          1        0.301641    0.093368
   20          7       -0.413000   -0.070718
   21          6        0.264571    0.175254
   22          6       -0.212776   -0.075602
   23          1        0.319073    0.113005
   24          1        0.105260    0.049723
   25          1        0.110593    0.055920
   26          1        0.110661    0.056409
   27          8       -0.351550   -0.292562
 -----------------------------------------------

 Dipole moment (in Debye)
 -----------------------------------------------
                 X        Y        Z     Total
 -----------------------------------------------
 CM5         -1.9780  -1.9358  -0.2429   2.7782
 Hirshfeld   -1.6866  -1.2362  -0.4852   2.1467
 -----------------------------------------------

    8    -798.7380582733      1.80e-05  
Hirshfeld: reading atomic densities from disk.

 Charges (in A.U.) from CM5PAC (Nov. 11, 2011)
 -----------------------------------------------
 Center     Atomic      CM5         Hirshfeld
 Number     Number      Charge      Charge
 -----------------------------------------------
    1          6       -0.070048   -0.018412
    2          6       -0.073495   -0.018053
    3          6       -0.069159   -0.013766
    4          6       -0.021600   -0.020025
    5          6       -0.015781   -0.014171
    6          6       -0.073333   -0.021704
    7          6        0.183157    0.144723
    8          6        0.112391    0.041988
    9          6        0.058149   -0.006153
   10          6        0.156954    0.119588
   11          8       -0.288901   -0.237646
   12          8       -0.317778   -0.264711
   13          7       -0.585682   -0.136059
   14          1        0.113105    0.052740
   15          1        0.115676    0.059866
   16          1        0.116113    0.060314
   17          1        0.111705    0.050995
   18          1        0.314688    0.116321
   19          1        0.301678    0.093405
   20          7       -0.413429   -0.071148
   21          6        0.264460    0.175144
   22          6       -0.212506   -0.075332
   23          1        0.319146    0.113078
   24          1        0.105230    0.049693
   25          1        0.110573    0.055900
   26          1        0.110644    0.056393
   27          8       -0.351479   -0.292491
 -----------------------------------------------

 Dipole moment (in Debye)
 -----------------------------------------------
                 X        Y        Z     Total
 -----------------------------------------------
 CM5         -1.9758  -1.9249  -0.2427   2.7691
 Hirshfeld   -1.6844  -1.2253  -0.4850   2.1387
 -----------------------------------------------

    9    -798.7380406078      4.31e-06  
Hirshfeld: reading atomic densities from disk.

 Charges (in A.U.) from CM5PAC (Nov. 11, 2011)
 -----------------------------------------------
 Center     Atomic      CM5         Hirshfeld
 Number     Number      Charge      Charge
 -----------------------------------------------
    1          6       -0.070031   -0.018395
    2          6       -0.073445   -0.018002
    3          6       -0.069082   -0.013688
    4          6       -0.021696   -0.020121
    5          6       -0.015878   -0.014268
    6          6       -0.073314   -0.021685
    7          6        0.183271    0.144837
    8          6        0.112336    0.041933
    9          6        0.058212   -0.006090
   10          6        0.156985    0.119618
   11          8       -0.289113   -0.237859
   12          8       -0.317674   -0.264607
   13          7       -0.585722   -0.136098
   14          1        0.113110    0.052745
   15          1        0.115672    0.059862
   16          1        0.116109    0.060309
   17          1        0.111706    0.050996
   18          1        0.314686    0.116319
   19          1        0.301677    0.093404
   20          7       -0.413394   -0.071112
   21          6        0.264456    0.175140
   22          6       -0.212490   -0.075316
   23          1        0.319137    0.113069
   24          1        0.105222    0.049685
   25          1        0.110565    0.055892
   26          1        0.110635    0.056384
   27          8       -0.351459   -0.292471
 -----------------------------------------------

 Dipole moment (in Debye)
 -----------------------------------------------
                 X        Y        Z     Total
 -----------------------------------------------
 CM5         -1.9772  -1.9291  -0.2424   2.7731
 Hirshfeld   -1.6858  -1.2296  -0.4847   2.1422
 -----------------------------------------------

   10    -798.7380429308      1.32e-06  
Hirshfeld: reading atomic densities from disk.

 Charges (in A.U.) from CM5PAC (Nov. 11, 2011)
 -----------------------------------------------
 Center     Atomic      CM5         Hirshfeld
 Number     Number      Charge      Charge
 -----------------------------------------------
    1          6       -0.070029   -0.018393
    2          6       -0.073468   -0.018026
    3          6       -0.069111   -0.013717
    4          6       -0.021687   -0.020112
    5          6       -0.015860   -0.014250
    6          6       -0.073316   -0.021687
    7          6        0.183239    0.144806
    8          6        0.112322    0.041919
    9          6        0.058200   -0.006102
   10          6        0.157012    0.119645
   11          8       -0.289028   -0.237774
   12          8       -0.317742   -0.264675
   13          7       -0.585683   -0.136059
   14          1        0.113110    0.052745
   15          1        0.115675    0.059865
   16          1        0.116112    0.060313
   17          1        0.111707    0.050997
   18          1        0.314678    0.116311
   19          1        0.301672    0.093399
   20          7       -0.413353   -0.071071
   21          6        0.264472    0.175156
   22          6       -0.212516   -0.075342
   23          1        0.319132    0.113064
   24          1        0.105227    0.049690
   25          1        0.110569    0.055896
   26          1        0.110639    0.056388
   27          8       -0.351495   -0.292507
 -----------------------------------------------

 Dipole moment (in Debye)
 -----------------------------------------------
                 X        Y        Z     Total
 -----------------------------------------------
 CM5         -1.9768  -1.9276  -0.2426   2.7717
 Hirshfeld   -1.6854  -1.2280  -0.4849   2.1410
 -----------------------------------------------

   11    -798.7380402965      7.13e-07  
Hirshfeld: reading atomic densities from disk.

 Charges (in A.U.) from CM5PAC (Nov. 11, 2011)
 -----------------------------------------------
 Center     Atomic      CM5         Hirshfeld
 Number     Number      Charge      Charge
 -----------------------------------------------
    1          6       -0.070029   -0.018393
    2          6       -0.073474   -0.018031
    3          6       -0.069117   -0.013723
    4          6       -0.021670   -0.020096
    5          6       -0.015844   -0.014234
    6          6       -0.073317   -0.021688
    7          6        0.183248    0.144815
    8          6        0.112331    0.041928
    9          6        0.058200   -0.006102
   10          6        0.157001    0.119635
   11          8       -0.289051   -0.237797
   12          8       -0.317731   -0.264664
   13          7       -0.585687   -0.136064
   14          1        0.113108    0.052743
   15          1        0.115675    0.059865
   16          1        0.116112    0.060312
   17          1        0.111705    0.050996
   18          1        0.314678    0.116311
   19          1        0.301671    0.093398
   20          7       -0.413360   -0.071079
   21          6        0.264469    0.175153
   22          6       -0.212523   -0.075348
   23          1        0.319132    0.113064
   24          1        0.105229    0.049691
   25          1        0.110570    0.055897
   26          1        0.110640    0.056389
   27          8       -0.351486   -0.292498
 -----------------------------------------------

 Dipole moment (in Debye)
 -----------------------------------------------
                 X        Y        Z     Total
 -----------------------------------------------
 CM5         -1.9768  -1.9278  -0.2426   2.7718
 Hirshfeld   -1.6854  -1.2282  -0.4849   2.1411
 -----------------------------------------------

   12    -798.7380410379      1.70e-07  
Hirshfeld: reading atomic densities from disk.

 Charges (in A.U.) from CM5PAC (Nov. 11, 2011)
 -----------------------------------------------
 Center     Atomic      CM5         Hirshfeld
 Number     Number      Charge      Charge
 -----------------------------------------------
    1          6       -0.070029   -0.018393
    2          6       -0.073467   -0.018024
    3          6       -0.069110   -0.013716
    4          6       -0.021678   -0.020103
    5          6       -0.015852   -0.014242
    6          6       -0.073316   -0.021687
    7          6        0.183244    0.144810
    8          6        0.112329    0.041926
    9          6        0.058203   -0.006099
   10          6        0.157003    0.119636
   11          8       -0.289047   -0.237793
   12          8       -0.317735   -0.264668
   13          7       -0.585688   -0.136064
   14          1        0.113109    0.052744
   15          1        0.115675    0.059865
   16          1        0.116111    0.060312
   17          1        0.111706    0.050996
   18          1        0.314678    0.116311
   19          1        0.301671    0.093398
   20          7       -0.413359   -0.071078
   21          6        0.264469    0.175152
   22          6       -0.212518   -0.075344
   23          1        0.319132    0.113065
   24          1        0.105228    0.049691
   25          1        0.110570    0.055896
   26          1        0.110640    0.056388
   27          8       -0.351488   -0.292500
 -----------------------------------------------

 Dipole moment (in Debye)
 -----------------------------------------------
                 X        Y        Z     Total
 -----------------------------------------------
 CM5         -1.9769  -1.9278  -0.2426   2.7719
 Hirshfeld   -1.6855  -1.2282  -0.4849   2.1412
 -----------------------------------------------

   13    -798.7380412903      7.51e-08  
Hirshfeld: reading atomic densities from disk.

 Charges (in A.U.) from CM5PAC (Nov. 11, 2011)
 -----------------------------------------------
 Center     Atomic      CM5         Hirshfeld
 Number     Number      Charge      Charge
 -----------------------------------------------
    1          6       -0.070029   -0.018393
    2          6       -0.073469   -0.018026
    3          6       -0.069112   -0.013718
    4          6       -0.021676   -0.020102
    5          6       -0.015851   -0.014241
    6          6       -0.073316   -0.021687
    7          6        0.183245    0.144811
    8          6        0.112329    0.041925
    9          6        0.058202   -0.006100
   10          6        0.157004    0.119638
   11          8       -0.289048   -0.237793
   12          8       -0.317735   -0.264668
   13          7       -0.585687   -0.136064
   14          1        0.113109    0.052744
   15          1        0.115675    0.059865
   16          1        0.116112    0.060312
   17          1        0.111706    0.050996
   18          1        0.314678    0.116311
   19          1        0.301671    0.093398
   20          7       -0.413359   -0.071077
   21          6        0.264468    0.175151
   22          6       -0.212518   -0.075343
   23          1        0.319132    0.113064
   24          1        0.105228    0.049690
   25          1        0.110569    0.055896
   26          1        0.110640    0.056388
   27          8       -0.351487   -0.292499
 -----------------------------------------------

 Dipole moment (in Debye)
 -----------------------------------------------
                 X        Y        Z     Total
 -----------------------------------------------
 CM5         -1.9769  -1.9278  -0.2426   2.7719
 Hirshfeld   -1.6855  -1.2282  -0.4849   2.1411
 -----------------------------------------------

   14    -798.7380410229      1.77e-08  
   15    -798.7380410659      7.81e-09  Convergence criterion met
 ---------------------------------------
 SCF time:   CPU 4087.13s  wall 516.00s 
(1)  E-EN(liq) elect-nuc energy of solute               -798.738041066 a.u.
(2)  G-P(liq) polarization free energy of solvation            -5.5576 kcal/mol
(3)  G-ENP(liq) elect-nuc-pol free energy of system     -798.746897733 a.u.
(4)  G-CDS(liq) cavity-dispersion-solvent structure 
     free energy                                               -8.0295 kcal/mol
(5)  G-P-CDS(liq) = G-P(liq) + G-CDS(liq) = (2) + (4)         -13.5871 kcal/mol
(6)  G-S(liq) free energy of system = (1) + (5)         -798.759693514 a.u.
 SCF   energy in the final basis set =     -798.7596935136
 Total energy in the final basis set =     -798.7596935136
 
 --------------------------------------------------------------
 
                    Orbital Energies (a.u.)
 --------------------------------------------------------------
 
 Alpha MOs
 -- Occupied --
-19.1413 -19.1255 -19.1087 -14.3665 -14.3389 -10.2951 -10.2907 -10.2784
-10.2538 -10.2358 -10.2092 -10.2087 -10.1987 -10.1975 -10.1962 -10.1959
-10.1739  -1.0777  -1.0653  -1.0565  -0.9608  -0.9381  -0.8900  -0.8210
 -0.7788  -0.7742  -0.7398  -0.6971  -0.6558  -0.6498  -0.6123  -0.5947
 -0.5673  -0.5450  -0.5394  -0.5101  -0.5033  -0.4861  -0.4740  -0.4674
 -0.4583  -0.4553  -0.4510  -0.4474  -0.4355  -0.4245  -0.4191  -0.4009
 -0.3963  -0.3832  -0.3748  -0.3693  -0.3581  -0.3203  -0.2983  -0.2861
 -0.2828  -0.2822  -0.2780  -0.2253
 -- Virtual --
 -0.1206  -0.0553  -0.0292  -0.0035   0.0053   0.0093   0.0134   0.0248
  0.0273   0.0285   0.0405   0.0421   0.0453   0.0532   0.0576   0.0631
  0.0680   0.0701   0.0758   0.0781   0.0834   0.0881   0.0932   0.0945
  0.1043   0.1076   0.1126   0.1165   0.1206   0.1218   0.1273   0.1279
  0.1332   0.1358   0.1380   0.1428   0.1468   0.1477   0.1491   0.1553
  0.1572   0.1613   0.1658   0.1674   0.1709   0.1794   0.1815   0.1855
  0.1899   0.1927   0.1953   0.1983   0.1997   0.2053   0.2089   0.2116
  0.2183   0.2246   0.2262   0.2293   0.2345   0.2404   0.2450   0.2474
  0.2488   0.2570   0.2590   0.2607   0.2628   0.2675   0.2746   0.2764
  0.2793   0.2815   0.2849   0.2877   0.2969   0.3004   0.3100   0.3155
  0.3196   0.3214   0.3260   0.3311   0.3371   0.3396   0.3446   0.3461
  0.3532   0.3560   0.3597   0.3668   0.3713   0.3789   0.3881   0.3915
  0.4020   0.4137   0.4203   0.4294   0.4336   0.4422   0.4625   0.4810
  0.4873   0.5023   0.5072   0.5180   0.5252   0.5361   0.5391   0.5448
  0.5510   0.5649   0.5857   0.5893   0.5931   0.5989   0.6069   0.6168
  0.6236   0.6242   0.6298   0.6395   0.6406   0.6484   0.6520   0.6603
  0.6667   0.6680   0.6784   0.6865   0.6984   0.7110   0.7167   0.7319
  0.7386   0.7511   0.7563   0.7602   0.7696   0.7771   0.7920   0.7979
  0.8132   0.8298   0.8342   0.8457   0.8511   0.8636   0.8718   0.8810
  0.8934   0.8988   0.9103   0.9125   0.9224   0.9267   0.9324   0.9402
  0.9462   0.9577   0.9653   0.9776   0.9924   1.0129   1.0233   1.0391
  1.0474   1.0571   1.0649   1.0693   1.0816   1.0902   1.0936   1.1080
  1.1191   1.1336   1.1493   1.1578   1.1854   1.2086   1.2204   1.2290
  1.2366   1.2465   1.2473   1.2530   1.2832   1.2918   1.2980   1.3010
  1.3465   1.3681   1.3722   1.4128   1.4351   1.4575   1.4592   1.4753
  1.4823   1.4972   1.5022   1.5061   1.5207   1.5383   1.5435   1.5608
  1.5716   1.5810   1.5946   1.6016   1.6169   1.6282   1.6363   1.6518
  1.6575   1.6799   1.6946   1.7021   1.7042   1.7180   1.7342   1.7408
  1.7547   1.7614   1.7736   1.7945   1.7979   1.8214   1.8422   1.8442
  1.8516   1.8644   1.8827   1.8891   1.8978   1.9181   1.9237   1.9438
  1.9540   1.9643   1.9756   1.9892   2.0129   2.0205   2.0372   2.0562
  2.0661   2.0947   2.1103   2.1376   2.1582   2.1750   2.2020   2.2261
  2.2395   2.2666   2.2782   2.3018   2.3336   2.3412   2.3508   2.4049
  2.4077   2.4397   2.4648   2.4786   2.4851   2.5012   2.5218   2.5395
  2.5467   2.5658   2.6128   2.6205   2.6291   2.6486   2.6618   2.6717
  2.6759   2.7116   2.7209   2.7312   2.7406   2.7534   2.7651   2.7742
  2.7757   2.7861   2.8073   2.8169   2.8318   2.8360   2.8462   2.8641
  2.8680   2.8876   2.8922   2.9051   2.9310   2.9427   2.9495   2.9531
  2.9675   2.9859   2.9976   3.0297   3.0437   3.0820   3.0859   3.1227
  3.1679   3.1787   3.2144   3.2192   3.2475   3.2957   3.3224   3.3365
  3.3418   3.3489   3.3627   3.3998   3.4051   3.4510   3.5141   3.5280
  3.5498   3.5739   3.5802   3.6209   3.6593   3.7399   3.8015   3.8071
  3.8113   3.8745   3.8796   3.9368   3.9800   4.0277   4.0296   4.0905
  4.1852   4.1982   4.2385   4.3174   4.7188   4.7907   4.8194   4.8364
  4.9436   5.0424   5.0631   5.0821   5.1202   5.2501   5.2857   5.2900
  5.7299   5.7948   5.8089  23.5519  23.7318  23.8355  23.8578  23.9107
 23.9409  23.9498  23.9820  24.0475  24.0792  24.0925  24.1702  35.6041
 35.6831  50.0000  50.0171  50.0556
 --------------------------------------------------------------
 
          Ground-State Mulliken Net Atomic Charges

     Atom                 Charge (a.u.)
  ----------------------------------------
      1 C                     0.286562
      2 C                     0.463716
      3 C                     0.370112
      4 C                     0.071927
      5 C                    -0.149841
      6 C                     0.215439
      7 C                    -1.089893
      8 C                     0.035973
      9 C                     0.213374
     10 C                    -1.397459
     11 O                    -0.262184
     12 O                    -0.272610
     13 N                    -0.408532
     14 H                     0.204204
     15 H                     0.319763
     16 H                     0.320901
     17 H                     0.197703
     18 H                     0.326117
     19 H                     0.277660
     20 N                    -0.037629
     21 C                    -0.168403
     22 C                    -0.055427
     23 H                     0.372285
     24 H                     0.228241
     25 H                     0.208095
     26 H                     0.218311
     27 O                    -0.488407
  ----------------------------------------
  Sum of atomic charges =     0.000000

 -----------------------------------------------------------------
                    Cartesian Multipole Moments
 -----------------------------------------------------------------
    Charge (ESU x 10^10)
                 0.0000
    Dipole Moment (Debye)
         X      -2.1654      Y      -1.6872      Z      -0.4376
       Tot       2.7798
    Quadrupole Moments (Debye-Ang)
        XX     -88.1442     XY     -17.3820     YY    -107.9116
        XZ      -6.4740     YZ       0.2254     ZZ    -100.7613
    Octopole Moments (Debye-Ang^2)
       XXX    -553.3836    XXY    -273.4507    XYY    -223.9662
       YYY    -725.2888    XXZ     -10.6765    XYZ      -8.4680
       YYZ      27.3214    XZZ    -176.2532    YZZ    -233.3662
       ZZZ      70.2591
    Hexadecapole Moments (Debye-Ang^3)
      XXXX   -6015.7253   XXXY   -1400.2115   XXYY   -1771.3115
      XYYY   -1010.3746   YYYY   -4922.2060   XXXZ      11.8727
      XXYZ       4.2880   XYYZ      60.9332   YYYZ     166.7346
      XXZZ   -1042.9895   XYZZ    -308.7717   YYZZ    -828.5035
      XZZZ     258.4428   YZZZ     144.7248   ZZZZ    -192.0184
 -----------------------------------------------------------------
 Total job time:  523.62s(wall), 4093.45s(cpu) 
 Sat Feb  3 13:24:05 2024

        *************************************************************
        *                                                           *
        *  Thank you very much for using Q-Chem.  Have a nice day.  *
        *                                                           *
        *************************************************************


