 Entering Gaussian System, Link 0=g16
 Input=065-rad-PCM.com
 Output=065-rad-PCM.log
 Initial command:
 /sysapps/ubuntu-applications/gaussian/Gaussian/AVX2/g16/l1.exe "/scratch/selhajj1/4332866/Gau-1902151.inp" -scrdir="/scratch/selhajj1/4332866/"
 Entering Link 1 = /sysapps/ubuntu-applications/gaussian/Gaussian/AVX2/g16/l1.exe PID=   1902157.
  
 Copyright (c) 1988,1990,1992,1993,1995,1998,2003,2009,2016,
            Gaussian, Inc.  All Rights Reserved.
  
 This is part of the Gaussian(R) 16 program.  It is based on
 the Gaussian(R) 09 system (copyright 2009, Gaussian, Inc.),
 the Gaussian(R) 03 system (copyright 2003, Gaussian, Inc.),
 the Gaussian(R) 98 system (copyright 1998, Gaussian, Inc.),
 the Gaussian(R) 94 system (copyright 1995, Gaussian, Inc.),
 the Gaussian 92(TM) system (copyright 1992, Gaussian, Inc.),
 the Gaussian 90(TM) system (copyright 1990, Gaussian, Inc.),
 the Gaussian 88(TM) system (copyright 1988, Gaussian, Inc.),
 the Gaussian 86(TM) system (copyright 1986, Carnegie Mellon
 University), and the Gaussian 82(TM) system (copyright 1983,
 Carnegie Mellon University). Gaussian is a federally registered
 trademark of Gaussian, Inc.
  
 This software contains proprietary and confidential information,
 including trade secrets, belonging to Gaussian, Inc.
  
 This software is provided under written license and may be
 used, copied, transmitted, or stored only in accord with that
 written license.
  
 The following legend is applicable only to US Government
 contracts under FAR:
  
                    RESTRICTED RIGHTS LEGEND
  
 Use, reproduction and disclosure by the US Government is
 subject to restrictions as set forth in subparagraphs (a)
 and (c) of the Commercial Computer Software - Restricted
 Rights clause in FAR 52.227-19.
  
 Gaussian, Inc.
 340 Quinnipiac St., Bldg. 40, Wallingford CT 06492
  
  
 ---------------------------------------------------------------
 Warning -- This program may not be used in any manner that
 competes with the business of Gaussian, Inc. or will provide
 assistance to any competitor of Gaussian, Inc.  The licensee
 of this program is prohibited from giving any competitor of
 Gaussian, Inc. access to this program.  By using this program,
 the user acknowledges that Gaussian, Inc. is engaged in the
 business of creating and licensing software in the field of
 computational chemistry and represents and warrants to the
 licensee that it is not a competitor of Gaussian, Inc. and that
 it will not use this program in any manner prohibited above.
 ---------------------------------------------------------------
  

 Cite this work as:
 Gaussian 16, Revision A.03,
 M. J. Frisch, G. W. Trucks, H. B. Schlegel, G. E. Scuseria, 
 M. A. Robb, J. R. Cheeseman, G. Scalmani, V. Barone, 
 G. A. Petersson, H. Nakatsuji, X. Li, M. Caricato, A. V. Marenich, 
 J. Bloino, B. G. Janesko, R. Gomperts, B. Mennucci, H. P. Hratchian, 
 J. V. Ortiz, A. F. Izmaylov, J. L. Sonnenberg, D. Williams-Young, 
 F. Ding, F. Lipparini, F. Egidi, J. Goings, B. Peng, A. Petrone, 
 T. Henderson, D. Ranasinghe, V. G. Zakrzewski, J. Gao, N. Rega, 
 G. Zheng, W. Liang, M. Hada, M. Ehara, K. Toyota, R. Fukuda, 
 J. Hasegawa, M. Ishida, T. Nakajima, Y. Honda, O. Kitao, H. Nakai, 
 T. Vreven, K. Throssell, J. A. Montgomery, Jr., J. E. Peralta, 
 F. Ogliaro, M. J. Bearpark, J. J. Heyd, E. N. Brothers, K. N. Kudin, 
 V. N. Staroverov, T. A. Keith, R. Kobayashi, J. Normand, 
 K. Raghavachari, A. P. Rendell, J. C. Burant, S. S. Iyengar, 
 J. Tomasi, M. Cossi, J. M. Millam, M. Klene, C. Adamo, R. Cammi, 
 J. W. Ochterski, R. L. Martin, K. Morokuma, O. Farkas, 
 J. B. Foresman, and D. J. Fox, Gaussian, Inc., Wallingford CT, 2016.
 
 ******************************************
 Gaussian 16:  ES64L-G16RevA.03 25-Dec-2016
                24-Jan-2024 
 ******************************************
 %chk=065-rad-PCM.chk
 %nproc=8
 Will use up to    8 processors via shared memory.
 %mem=30GB
 ----------------------------------------------------------------
 #P UB3LYP/6-311++G(d,p) SCRF=(PCM,Solvent=n,n-DiMethylFormamide)
 ----------------------------------------------------------------
 1/38=1,172=1/1;
 2/12=2,17=6,18=5,40=1/2;
 3/5=4,6=6,7=1111,11=2,25=1,30=1,70=2201,72=148,74=-5,116=2/1,2,3;
 4//1;
 5/5=2,38=5,53=148/2;
 6/7=2,8=2,9=2,10=2,28=1/1;
 99/5=1,9=1/99;
 Leave Link    1 at Wed Jan 24 22:47:47 2024, MaxMem=  4026531840 cpu:               0.8 elap:               0.1
 (Enter /sysapps/ubuntu-applications/gaussian/Gaussian/AVX2/g16/l101.exe)
 ------------------
 Radical PCM in DMF
 ------------------
 Symbolic Z-matrix:
 Charge = -1 Multiplicity = 2
 C                    -1.35337  -2.03348   1.15924 
 C                    -1.41448  -1.99791  -0.28293 
 C                    -0.77954  -1.03425  -1.02118 
 C                     0.0006    0.02075  -0.4067 
 C                     0.06322  -0.01315   1.04229 
 C                    -0.57042  -0.97531   1.78335 
 O                    -1.93555  -2.91876   1.85708 
 O                     0.58811   0.91206  -1.0852 
 C                    -0.52964  -1.04484   3.28412 
 O                     0.25967   0.02874   3.82507 
 C                     0.40413   0.11944   5.16404 
 C                    -0.16297  -0.76403   6.09425 
 C                     1.18745   1.1906    5.62743 
 C                     1.39678   1.37128   6.98694 
 C                     0.05816  -0.56708   7.45916 
 C                     0.83354   0.49308   7.91862 
 H                    -1.99571  -2.78226  -0.7606 
 H                    -0.83905  -1.02673  -2.10621 
 H                     0.64141   0.76658   1.52513 
 H                    -0.10926  -2.00616   3.60307 
 H                    -1.54736  -0.99225   3.68915 
 H                    -0.7694   -1.59565   5.76336 
 H                     1.61769   1.86313   4.8947 
 H                     2.00477   2.20444   7.32471 
 H                    -0.38729  -1.2591    8.16675 
 H                     0.99842   0.63614   8.98062 
 
 ITRead=  0  0  0  0  0  0  0  0  0  0  0  0  0  0  0  0  0  0  0  0
 ITRead=  0  0  0  0  0  0
 MicOpt= -1 -1 -1 -1 -1 -1 -1 -1 -1 -1 -1 -1 -1 -1 -1 -1 -1 -1 -1 -1
 MicOpt= -1 -1 -1 -1 -1 -1
 NAtoms=     26 NQM=       26 NQMF=       0 NMMI=      0 NMMIF=      0
                NMic=       0 NMicF=      0.
                    Isotopes and Nuclear Properties:
 (Nuclear quadrupole moments (NQMom) in fm**2, nuclear magnetic moments (NMagM)
  in nuclear magnetons)

  Atom         1           2           3           4           5           6           7           8           9          10
 IAtWgt=          12          12          12          12          12          12          16          16          12          16
 AtmWgt=  12.0000000  12.0000000  12.0000000  12.0000000  12.0000000  12.0000000  15.9949146  15.9949146  12.0000000  15.9949146
 NucSpn=           0           0           0           0           0           0           0           0           0           0
 AtZEff=  -0.0000000  -0.0000000  -0.0000000  -0.0000000  -0.0000000  -0.0000000  -0.0000000  -0.0000000  -0.0000000  -0.0000000
 NQMom=    0.0000000   0.0000000   0.0000000   0.0000000   0.0000000   0.0000000   0.0000000   0.0000000   0.0000000   0.0000000
 NMagM=    0.0000000   0.0000000   0.0000000   0.0000000   0.0000000   0.0000000   0.0000000   0.0000000   0.0000000   0.0000000
 AtZNuc=   6.0000000   6.0000000   6.0000000   6.0000000   6.0000000   6.0000000   8.0000000   8.0000000   6.0000000   8.0000000

  Atom        11          12          13          14          15          16          17          18          19          20
 IAtWgt=          12          12          12          12          12          12           1           1           1           1
 AtmWgt=  12.0000000  12.0000000  12.0000000  12.0000000  12.0000000  12.0000000   1.0078250   1.0078250   1.0078250   1.0078250
 NucSpn=           0           0           0           0           0           0           1           1           1           1
 AtZEff=  -0.0000000  -0.0000000  -0.0000000  -0.0000000  -0.0000000  -0.0000000  -0.0000000  -0.0000000  -0.0000000  -0.0000000
 NQMom=    0.0000000   0.0000000   0.0000000   0.0000000   0.0000000   0.0000000   0.0000000   0.0000000   0.0000000   0.0000000
 NMagM=    0.0000000   0.0000000   0.0000000   0.0000000   0.0000000   0.0000000   2.7928460   2.7928460   2.7928460   2.7928460
 AtZNuc=   6.0000000   6.0000000   6.0000000   6.0000000   6.0000000   6.0000000   1.0000000   1.0000000   1.0000000   1.0000000

  Atom        21          22          23          24          25          26
 IAtWgt=           1           1           1           1           1           1
 AtmWgt=   1.0078250   1.0078250   1.0078250   1.0078250   1.0078250   1.0078250
 NucSpn=           1           1           1           1           1           1
 AtZEff=  -0.0000000  -0.0000000  -0.0000000  -0.0000000  -0.0000000  -0.0000000
 NQMom=    0.0000000   0.0000000   0.0000000   0.0000000   0.0000000   0.0000000
 NMagM=    2.7928460   2.7928460   2.7928460   2.7928460   2.7928460   2.7928460
 AtZNuc=   1.0000000   1.0000000   1.0000000   1.0000000   1.0000000   1.0000000
 Leave Link  101 at Wed Jan 24 22:47:48 2024, MaxMem=  4026531840 cpu:               2.1 elap:               0.4
 (Enter /sysapps/ubuntu-applications/gaussian/Gaussian/AVX2/g16/l202.exe)
                          Input orientation:                          
 ---------------------------------------------------------------------
 Center     Atomic      Atomic             Coordinates (Angstroms)
 Number     Number       Type             X           Y           Z
 ---------------------------------------------------------------------
      1          6           0       -1.353369   -2.033476    1.159244
      2          6           0       -1.414477   -1.997914   -0.282927
      3          6           0       -0.779538   -1.034255   -1.021177
      4          6           0        0.000596    0.020752   -0.406703
      5          6           0        0.063221   -0.013146    1.042286
      6          6           0       -0.570419   -0.975312    1.783352
      7          8           0       -1.935548   -2.918764    1.857077
      8          8           0        0.588113    0.912062   -1.085200
      9          6           0       -0.529635   -1.044839    3.284120
     10          8           0        0.259670    0.028738    3.825073
     11          6           0        0.404133    0.119443    5.164036
     12          6           0       -0.162968   -0.764034    6.094247
     13          6           0        1.187448    1.190600    5.627430
     14          6           0        1.396775    1.371280    6.986944
     15          6           0        0.058161   -0.567076    7.459163
     16          6           0        0.833536    0.493084    7.918623
     17          1           0       -1.995705   -2.782258   -0.760603
     18          1           0       -0.839050   -1.026729   -2.106210
     19          1           0        0.641412    0.766583    1.525130
     20          1           0       -0.109258   -2.006155    3.603071
     21          1           0       -1.547363   -0.992250    3.689145
     22          1           0       -0.769396   -1.595650    5.763357
     23          1           0        1.617694    1.863128    4.894703
     24          1           0        2.004768    2.204438    7.324714
     25          1           0       -0.387294   -1.259098    8.166751
     26          1           0        0.998422    0.636137    8.980621
 ---------------------------------------------------------------------
                    Distance matrix (angstroms):
                    1          2          3          4          5
     1  C    0.000000
     2  C    1.443903   0.000000
     3  C    2.466163   1.369963   0.000000
     4  C    2.916379   2.468353   1.448871   0.000000
     5  C    2.470251   2.806971   2.451690   1.450738   0.000000
     6  C    1.456788   2.455129   2.812932   2.472760   1.369833
     7  O    1.268715   2.387278   3.629336   4.184986   3.619610
     8  O    4.181277   3.622426   2.379647   1.264898   2.378596
     9  C    2.484158   3.796725   4.312557   3.877990   2.538048
    10  O    3.736478   4.877064   5.069127   4.239707   2.790027
    11  C    4.874652   6.120453   6.402262   5.586208   4.137949
    12  C    5.232857   6.614914   7.147198   6.550190   5.112466
    13  C    6.067545   7.202010   7.281689   6.260026   4.872005
    14  C    7.288192   8.491503   8.640193   7.644557   6.247716
    15  C    6.620553   8.009739   8.534410   7.888010   6.440743
    16  C    7.540243   8.861380   9.211666   8.380211   6.937843
    17  H    2.158491   1.086828   2.145338   3.459383   3.893272
    18  H    3.455612   2.144453   1.086690   2.165767   3.428479
    19  H    3.457362   3.890783   3.427214   2.167692   1.084168
    20  H    2.742417   4.099347   4.772582   4.494297   3.249531
    21  H    2.742660   4.099558   4.772678   4.494254   3.249383
    22  H    4.661606   6.093890   6.807729   6.424584   5.048374
    23  H    6.161525   7.135093   7.009935   5.840741   4.558279
    24  H    8.200611   9.339550   9.375254   8.280097   6.939466
    25  H    7.116046   8.543887   9.199045   8.677130   7.246610
    26  H    8.592537   9.928425  10.295014   9.460244   8.019559
                    6          7          8          9         10
     6  C    0.000000
     7  O    2.376135   0.000000
     8  O    3.623944   5.449870   0.000000
     9  C    1.502931   2.743107   4.916277   0.000000
    10  O    2.421939   4.168904   4.999892   1.438124   0.000000
    11  C    3.684734   5.063673   6.301987   2.400325   1.349785
    12  C    4.335259   5.073314   7.410660   2.847825   2.440545
    13  C    4.749548   6.391834   6.745086   3.665605   2.336490
    14  C    6.037691   7.471572   8.125535   4.822820   3.618405
    15  C    5.725085   6.394426   8.687626   4.243200   3.688117
    16  C    6.462881   7.486713   9.016907   5.069720   4.159578
    17  H    3.430481   2.621927   4.519898   4.639803   5.832396
    18  H    3.899166   4.526560   2.614989   5.399234   6.123832
    19  H    2.137618   4.509179   2.614924   2.783280   2.445379
    20  H    2.141655   2.686389   5.566166   1.096620   2.079948
    21  H    2.141671   2.686748   5.566061   1.096623   2.079967
    22  H    4.032970   4.285973   7.418503   2.550979   2.730304
    23  H    4.746060   6.687241   6.141971   3.957432   2.520580
    24  H    6.888330   8.465716   8.625764   5.771256   4.475101
    25  H    6.392328   6.705488   9.553217   4.889402   4.574631
    26  H    7.540472   8.484715  10.077958   6.132761   5.243507
                   11         12         13         14         15
    11  C    0.000000
    12  C    1.402650   0.000000
    13  C    1.405594   2.421185   0.000000
    14  C    2.423928   2.790927   1.387350   0.000000
    15  C    2.420457   1.396670   2.778482   2.402520   0.000000
    16  C    2.812782   2.429344   2.421022   1.398747   1.391492
    17  H    7.020003   7.377067   8.168417   9.422594   8.757280
    18  H    7.464294   8.232472   8.296531   9.666168   9.618349
    19  H    3.703610   4.885350   4.160146   5.546859   6.109957
    20  H    2.686699   2.784189   3.999840   5.012564   4.119275
    21  H    2.686913   2.784447   4.000122   5.012953   4.119650
    22  H    2.162845   1.081124   3.407478   3.871968   2.149087
    23  H    2.141427   3.392881   1.083649   2.160600   3.861928
    24  H    3.402612   3.876204   2.139311   1.085309   3.389490
    25  H    3.397503   2.142588   3.863804   3.390241   1.085360
    26  H    3.896983   3.411812   3.403976   2.161913   2.155608
                   16         17         18         19         20
    16  C    0.000000
    17  H    9.698527   0.000000
    18  H   10.276412   2.496075   0.000000
    19  H    6.402224   4.977272   4.312118   0.000000
    20  H    5.075337   4.816915   5.838473   3.545338   0.000000
    21  H    5.075764   4.817198   5.838582   3.545023   1.761692
    22  H    3.402554   6.743436   7.890412   5.053028   2.295895
    23  H    3.411161   8.162031   7.962390   3.675535   4.429676
    24  H    2.157138  10.307438  10.366777   6.128731   6.004067
    25  H    2.149915   9.198079  10.285514   7.019455   4.632772
    26  H    1.084201  10.749031  11.360425   7.465174   6.093169
                   21         22         23         24         25
    21  H    0.000000
    22  H    2.296014   0.000000
    23  H    4.429914   4.291376   0.000000
    24  H    6.004483   4.957266   2.484205   0.000000
    25  H    4.633133   2.456740   4.947178   4.292676   0.000000
    26  H    6.093635   4.296143   4.310885   2.492855   2.484856
                   26
    26  H    0.000000
 Stoichiometry    C13H10O3(1-,2)
 Framework group  C1[X(C13H10O3)]
 Deg. of freedom    72
 Full point group                 C1      NOp   1
 Largest Abelian subgroup         C1      NOp   1
 Largest concise Abelian subgroup C1      NOp   1
                         Standard orientation:                         
 ---------------------------------------------------------------------
 Center     Atomic      Atomic             Coordinates (Angstroms)
 Number     Number       Type             X           Y           Z
 ---------------------------------------------------------------------
      1          6           0        2.380698    1.436273   -0.000132
      2          6           0        3.778953    1.076080   -0.000420
      3          6           0        4.201447   -0.227107   -0.000357
      4          6           0        3.273726   -1.340013    0.000001
      5          6           0        1.868303   -0.980252    0.000342
      6          6           0        1.442580    0.321748    0.000216
      7          8           0        1.973399    2.637833   -0.000145
      8          8           0        3.660273   -2.544401    0.000069
      9          6           0       -0.002420    0.734998    0.000420
     10          8           0       -0.864146   -0.416361    0.000376
     11          6           0       -2.200815   -0.228651    0.000225
     12          6           0       -2.835740    1.022067    0.000327
     13          6           0       -2.986064   -1.394446   -0.000120
     14          6           0       -4.370768   -1.308804   -0.000439
     15          6           0       -4.230774    1.089634    0.000005
     16          6           0       -5.008776   -0.064039   -0.000379
     17          1           0        4.489036    1.898867   -0.000696
     18          1           0        5.259402   -0.475354   -0.000588
     19          1           0        1.154619   -1.796386    0.000695
     20          1           0       -0.215277    1.352673   -0.880344
     21          1           0       -0.215099    1.352505    0.881348
     22          1           0       -2.254310    1.933532    0.000609
     23          1           0       -2.478682   -2.351974   -0.000223
     24          1           0       -4.959411   -2.220612   -0.000774
     25          1           0       -4.707548    2.064669    0.000074
     26          1           0       -6.091049    0.000587   -0.000644
 ---------------------------------------------------------------------
 Rotational constants (GHZ):           1.2635146           0.2419836           0.2033444
 Leave Link  202 at Wed Jan 24 22:47:48 2024, MaxMem=  4026531840 cpu:               0.3 elap:               0.1
 (Enter /sysapps/ubuntu-applications/gaussian/Gaussian/AVX2/g16/l301.exe)
 Standard basis: 6-311++G(d,p) (5D, 7F)
 Ernie: Thresh=  0.10000D-02 Tol=  0.10000D-05 Strict=F.
 There are   438 symmetry adapted cartesian basis functions of A   symmetry.
 There are   422 symmetry adapted basis functions of A   symmetry.
   422 basis functions,   666 primitive gaussians,   438 cartesian basis functions
    57 alpha electrons       56 beta electrons
       nuclear repulsion energy       964.8104833392 Hartrees.
 IExCor=  402 DFT=T Ex+Corr=B3LYP ExCW=0 ScaHFX=  0.200000
 ScaDFX=  0.800000  0.720000  1.000000  0.810000 ScalE2=  1.000000  1.000000
 IRadAn=      5 IRanWt=     -1 IRanGd=            0 ICorTp=0 IEmpDi=  4
 NAtoms=   26 NActive=   26 NUniq=   26 SFac= 1.00D+00 NAtFMM=   60 NAOKFM=F Big=F
 Integral buffers will be    131072 words long.
 Raffenetti 2 integral format.
 Two-electron integral symmetry is turned on.
 ------------------------------------------------------------------------------
 Polarizable Continuum Model (PCM)
 =================================
 Model                : PCM.
 Atomic radii         : UFF (Universal Force Field).
 Polarization charges : Total charges.
 Charge compensation  : None.
 Solution method      : On-the-fly selection.
 Cavity type          : Scaled VdW (van der Waals Surface) (Alpha=1.100).
 Cavity algorithm     : GePol (No added spheres)
                        Default sphere list used, NSphG=   26.
                        Lebedev-Laikov grids with approx.  5.0 points / Ang**2.
                        Smoothing algorithm: York/Karplus (Gamma=1.0000).
                        Polarization charges: spherical gaussians, with
                                              point-specific exponents (IZeta= 3).
                        Self-potential: point-specific (ISelfS= 7).
                        Self-field    : sphere-specific E.n sum rule (ISelfD= 2).
 Solvent              : n,n-DiMethylFormamide, Eps=  37.219000 Eps(inf)=   2.046330
 ------------------------------------------------------------------------------
 GePol: Number of generator spheres                  =      26
 GePol: Total number of spheres                      =      26
 GePol: Number of exposed spheres                    =      26 (100.00%)
 GePol: Number of points                             =    2190
 GePol: Average weight of points                     =       0.13
 GePol: Minimum weight of points                     =   0.15D-11
 GePol: Maximum weight of points                     =    0.20577
 GePol: Number of points with low weight             =     131
 GePol: Fraction of low-weight points (<1% of avg)   =       5.98%
 GePol: Cavity surface area                          =    283.694 Ang**2
 GePol: Cavity volume                                =    295.704 Ang**3
 Leave Link  301 at Wed Jan 24 22:47:48 2024, MaxMem=  4026531840 cpu:               1.0 elap:               0.2
 (Enter /sysapps/ubuntu-applications/gaussian/Gaussian/AVX2/g16/l302.exe)
 NPDir=0 NMtPBC=     1 NCelOv=     1 NCel=       1 NClECP=     1 NCelD=      1
         NCelK=      1 NCelE2=     1 NClLst=     1 CellRange=     0.0.
 One-electron integrals computed using PRISM.
 One-electron integral symmetry used in STVInt
 NBasis=   422 RedAO= T EigKep=  1.45D-06  NBF=   422
 NBsUse=   420 1.00D-06 EigRej=  7.13D-07 NBFU=   420
 Precomputing XC quadrature grid using
 IXCGrd= 4 IRadAn=           5 IRanWt=          -1 IRanGd=           0 AccXCQ= 0.00D+00.
 Generated NRdTot=       0 NPtTot=           0 NUsed=           0 NTot=          32
 NSgBfM=   436   436   436   436   436 MxSgAt=    26 MxSgA2=    26.
 Leave Link  302 at Wed Jan 24 22:47:49 2024, MaxMem=  4026531840 cpu:               3.8 elap:               0.5
 (Enter /sysapps/ubuntu-applications/gaussian/Gaussian/AVX2/g16/l303.exe)
 DipDrv:  MaxL=1.
 Leave Link  303 at Wed Jan 24 22:47:49 2024, MaxMem=  4026531840 cpu:               1.1 elap:               0.2
 (Enter /sysapps/ubuntu-applications/gaussian/Gaussian/AVX2/g16/l401.exe)
 ExpMin= 3.60D-02 ExpMax= 8.59D+03 ExpMxC= 1.30D+03 IAcc=3 IRadAn=         5 AccDes= 0.00D+00
 Harris functional with IExCor=  402 and IRadAn=       5 diagonalized for initial guess.
 HarFok:  IExCor=  402 AccDes= 0.00D+00 IRadAn=         5 IDoV= 1 UseB2=F ITyADJ=14
 ICtDFT=  3500011 ScaDFX=  1.000000  1.000000  1.000000  1.000000
 FoFCou: FMM=F IPFlag=           0 FMFlag=      100000 FMFlg1=           0
         NFxFlg=           0 DoJE=T BraDBF=F KetDBF=T FulRan=T
         wScrn=  0.000000 ICntrl=       500 IOpCl=  0 I1Cent=   200000004 NGrid=           0
         NMat0=    1 NMatS0=      1 NMatT0=    0 NMatD0=    1 NMtDS0=    0 NMtDT0=    0
 Petite list used in FoFCou.
 Harris En= -727.494156906105    
 JPrj=0 DoOrth=F DoCkMO=F.
 Initial guess <Sx>= 0.0000 <Sy>= 0.0000 <Sz>= 0.5000 <S**2>= 0.7500 S= 0.5000
 Leave Link  401 at Wed Jan 24 22:47:51 2024, MaxMem=  4026531840 cpu:              14.4 elap:               1.9
 (Enter /sysapps/ubuntu-applications/gaussian/Gaussian/AVX2/g16/l502.exe)
 Integral symmetry usage will be decided dynamically.
 UHF open shell SCF:
 Using DIIS extrapolation, IDIIS=  1040.
 NGot=  4026531840 LenX=  4026140474 LenY=  4025948189
 Requested convergence on RMS density matrix=1.00D-08 within 128 cycles.
 Requested convergence on MAX density matrix=1.00D-06.
 Requested convergence on             energy=1.00D-06.
 No special actions if energy rises.
 Fock matrices will be formed incrementally for  20 cycles.

 Cycle   1  Pass 1  IDiag  1:
 FoFJK:  IHMeth= 1 ICntrl=       0 DoSepK=F KAlg= 0 I1Cent=           0 FoldK=F
 IRaf= 840000000 NMat=       1 IRICut=       1 DoRegI=T DoRafI=F ISym2E= 0 IDoP0=0 IntGTp=1.
 FoFCou: FMM=F IPFlag=           0 FMFlag=      100000 FMFlg1=           0
         NFxFlg=           0 DoJE=F BraDBF=F KetDBF=F FulRan=T
         wScrn=  0.000000 ICntrl=         0 IOpCl=  1 I1Cent=           0 NGrid=           0
         NMat0=    1 NMatS0=      1 NMatT0=    0 NMatD0=    1 NMtDS0=    0 NMtDT0=    0
 Symmetry not used in FoFCou.
 Inv3:  Mode=1 IEnd=    14388300.
 Iteration    1 A*A^-1 deviation from unit magnitude is 2.89D-15 for    198.
 Iteration    1 A*A^-1 deviation from orthogonality  is 1.80D-15 for   1914    197.
 Iteration    1 A^-1*A deviation from unit magnitude is 3.00D-15 for    826.
 Iteration    1 A^-1*A deviation from orthogonality  is 2.18D-15 for   1316    441.
 E= -726.968104715735    
 DIIS: error= 5.06D-02 at cycle   1 NSaved=   1.
 NSaved= 1 IEnMin= 1 EnMin= -726.968104715735     IErMin= 1 ErrMin= 5.06D-02
 ErrMax= 5.06D-02  0.00D+00 EMaxC= 1.00D-01 BMatC= 1.99D+00 BMatP= 1.99D+00
 IDIUse=3 WtCom= 4.94D-01 WtEn= 5.06D-01
 Coeff-Com:  0.100D+01
 Coeff-En:   0.100D+01
 Coeff:      0.100D+01
 Gap=     0.149 Goal=   None    Shift=    0.000
 Gap=     0.157 Goal=   None    Shift=    0.000
 GapD=    0.149 DampG=1.000 DampE=0.500 DampFc=0.5000 IDamp=-1.
 Damping current iteration by 5.00D-01
 RMSDP=6.07D-02 MaxDP=1.37D+01              OVMax= 2.57D-01

 Cycle   2  Pass 1  IDiag  1:
 RMSU=  3.00D-02    CP:  1.09D+00
 E= -727.118957868277     Delta-E=       -0.150853152542 Rises=F Damp=T
 DIIS: error= 2.05D-02 at cycle   2 NSaved=   2.
 NSaved= 2 IEnMin= 2 EnMin= -727.118957868277     IErMin= 2 ErrMin= 2.05D-02
 ErrMax= 2.05D-02  0.00D+00 EMaxC= 1.00D-01 BMatC= 2.10D-01 BMatP= 1.99D+00
 IDIUse=3 WtCom= 7.95D-01 WtEn= 2.05D-01
 Coeff-Com:  0.143D+00 0.857D+00
 Coeff-En:   0.246D+00 0.754D+00
 Coeff:      0.164D+00 0.836D+00
 Gap=     0.169 Goal=   None    Shift=    0.000
 Gap=     0.246 Goal=   None    Shift=    0.000
 RMSDP=3.14D-02 MaxDP=7.64D+00 DE=-1.51D-01 OVMax= 2.35D-01

 Cycle   3  Pass 1  IDiag  1:
 RMSU=  6.32D-03    CP:  8.23D-01  6.82D-02
 E= -727.345653427671     Delta-E=       -0.226695559394 Rises=F Damp=F
 DIIS: error= 2.66D-02 at cycle   3 NSaved=   3.
 NSaved= 3 IEnMin= 3 EnMin= -727.345653427671     IErMin= 2 ErrMin= 2.05D-02
 ErrMax= 2.66D-02  0.00D+00 EMaxC= 1.00D-01 BMatC= 2.40D-01 BMatP= 2.10D-01
 IDIUse=2 WtCom= 0.00D+00 WtEn= 1.00D+00
 Coeff-En:   0.000D+00 0.000D+00 0.100D+01
 Coeff:      0.000D+00 0.000D+00 0.100D+01
 Gap=     0.137 Goal=   None    Shift=    0.000
 Gap=     0.158 Goal=   None    Shift=    0.000
 RMSDP=1.34D-02 MaxDP=2.85D+00 DE=-2.27D-01 OVMax= 2.65D-01

 Cycle   4  Pass 1  IDiag  1:
 RMSU=  6.98D-03    CP:  9.44D-01  3.84D-01  6.01D-01
 E= -727.154712326163     Delta-E=        0.190941101507 Rises=F Damp=F
 DIIS: error= 6.41D-02 at cycle   4 NSaved=   4.
 NSaved= 4 IEnMin= 3 EnMin= -727.345653427671     IErMin= 2 ErrMin= 2.05D-02
 ErrMax= 6.41D-02  0.00D+00 EMaxC= 1.00D-01 BMatC= 1.22D+00 BMatP= 2.10D-01
 IDIUse=2 WtCom= 0.00D+00 WtEn= 1.00D+00
 Coeff-En:   0.000D+00 0.000D+00 0.779D+00 0.221D+00
 Coeff:      0.000D+00 0.000D+00 0.779D+00 0.221D+00
 Gap=     0.145 Goal=   None    Shift=    0.000
 Gap=     0.129 Goal=   None    Shift=    0.000
 RMSDP=1.02D-02 MaxDP=2.34D+00 DE= 1.91D-01 OVMax= 1.06D-01

 Cycle   5  Pass 1  IDiag  1:
 RMSU=  9.31D-04    CP:  8.37D-01  1.41D-01  8.76D-01  3.87D-01
 E= -727.377944950324     Delta-E=       -0.223232624160 Rises=F Damp=F
 DIIS: error= 1.59D-02 at cycle   5 NSaved=   5.
 NSaved= 5 IEnMin= 5 EnMin= -727.377944950324     IErMin= 5 ErrMin= 1.59D-02
 ErrMax= 1.59D-02  0.00D+00 EMaxC= 1.00D-01 BMatC= 8.24D-02 BMatP= 2.10D-01
 IDIUse=3 WtCom= 8.41D-01 WtEn= 1.59D-01
 Coeff-Com: -0.200D-02 0.183D-01 0.288D+00-0.818D-01 0.777D+00
 Coeff-En:   0.000D+00 0.000D+00 0.299D+00 0.000D+00 0.701D+00
 Coeff:     -0.168D-02 0.154D-01 0.290D+00-0.688D-01 0.765D+00
 Gap=     0.145 Goal=   None    Shift=    0.000
 Gap=     0.142 Goal=   None    Shift=    0.000
 RMSDP=2.35D-03 MaxDP=4.15D-01 DE=-2.23D-01 OVMax= 4.28D-02

 Cycle   6  Pass 1  IDiag  1:
 RMSU=  4.26D-04    CP:  8.08D-01  9.84D-02  9.47D-01  2.08D-01  8.44D-01
 E= -727.394134817416     Delta-E=       -0.016189867092 Rises=F Damp=F
 DIIS: error= 1.16D-03 at cycle   6 NSaved=   6.
 NSaved= 6 IEnMin= 6 EnMin= -727.394134817416     IErMin= 6 ErrMin= 1.16D-03
 ErrMax= 1.16D-03  0.00D+00 EMaxC= 1.00D-01 BMatC= 6.91D-04 BMatP= 8.24D-02
 IDIUse=3 WtCom= 9.88D-01 WtEn= 1.16D-02
 Coeff-Com: -0.360D-02 0.103D-01 0.125D+00-0.679D-01 0.476D+00 0.460D+00
 Coeff-En:   0.000D+00 0.000D+00 0.000D+00 0.000D+00 0.000D+00 0.100D+01
 Coeff:     -0.356D-02 0.102D-01 0.124D+00-0.671D-01 0.471D+00 0.466D+00
 Gap=     0.143 Goal=   None    Shift=    0.000
 Gap=     0.139 Goal=   None    Shift=    0.000
 RMSDP=2.04D-04 MaxDP=1.81D-02 DE=-1.62D-02 OVMax= 5.09D-03

 Cycle   7  Pass 1  IDiag  1:
 RMSU=  1.10D-04    CP:  8.10D-01  9.61D-02  9.46D-01  2.09D-01  9.00D-01
                    CP:  7.16D-01
 E= -727.394295932032     Delta-E=       -0.000161114616 Rises=F Damp=F
 DIIS: error= 4.60D-04 at cycle   7 NSaved=   7.
 NSaved= 7 IEnMin= 7 EnMin= -727.394295932032     IErMin= 7 ErrMin= 4.60D-04
 ErrMax= 4.60D-04  0.00D+00 EMaxC= 1.00D-01 BMatC= 5.91D-05 BMatP= 6.91D-04
 IDIUse=3 WtCom= 9.95D-01 WtEn= 4.60D-03
 Coeff-Com: -0.783D-03 0.309D-03 0.190D-01-0.203D-01 0.106D+00 0.203D+00
 Coeff-Com:  0.692D+00
 Coeff-En:   0.000D+00 0.000D+00 0.000D+00 0.000D+00 0.000D+00 0.000D+00
 Coeff-En:   0.100D+01
 Coeff:     -0.780D-03 0.307D-03 0.189D-01-0.202D-01 0.106D+00 0.202D+00
 Coeff:      0.694D+00
 Gap=     0.143 Goal=   None    Shift=    0.000
 Gap=     0.139 Goal=   None    Shift=    0.000
 RMSDP=6.83D-05 MaxDP=8.41D-03 DE=-1.61D-04 OVMax= 1.77D-03

 Cycle   8  Pass 1  IDiag  1:
 RMSU=  4.71D-05    CP:  8.10D-01  9.47D-02  9.46D-01  2.06D-01  8.88D-01
                    CP:  7.36D-01  9.51D-01
 E= -727.394309316788     Delta-E=       -0.000013384756 Rises=F Damp=F
 DIIS: error= 1.94D-04 at cycle   8 NSaved=   8.
 NSaved= 8 IEnMin= 8 EnMin= -727.394309316788     IErMin= 8 ErrMin= 1.94D-04
 ErrMax= 1.94D-04  0.00D+00 EMaxC= 1.00D-01 BMatC= 1.90D-05 BMatP= 5.91D-05
 IDIUse=3 WtCom= 9.98D-01 WtEn= 1.94D-03
 Coeff-Com:  0.772D-03-0.344D-02-0.218D-01 0.625D-02-0.669D-01-0.567D-02
 Coeff-Com:  0.450D+00 0.641D+00
 Coeff-En:   0.000D+00 0.000D+00 0.000D+00 0.000D+00 0.000D+00 0.000D+00
 Coeff-En:   0.000D+00 0.100D+01
 Coeff:      0.770D-03-0.344D-02-0.218D-01 0.624D-02-0.668D-01-0.566D-02
 Coeff:      0.449D+00 0.641D+00
 Gap=     0.144 Goal=   None    Shift=    0.000
 Gap=     0.139 Goal=   None    Shift=    0.000
 RMSDP=6.10D-05 MaxDP=1.19D-02 DE=-1.34D-05 OVMax= 1.11D-03

 Cycle   9  Pass 1  IDiag  1:
 RMSU=  2.64D-05    CP:  8.09D-01  9.36D-02  9.47D-01  2.03D-01  8.99D-01
                    CP:  7.48D-01  1.08D+00  7.01D-01
 E= -727.394314896968     Delta-E=       -0.000005580180 Rises=F Damp=F
 DIIS: error= 1.17D-04 at cycle   9 NSaved=   9.
 NSaved= 9 IEnMin= 9 EnMin= -727.394314896968     IErMin= 9 ErrMin= 1.17D-04
 ErrMax= 1.17D-04  0.00D+00 EMaxC= 1.00D-01 BMatC= 3.71D-06 BMatP= 1.90D-05
 IDIUse=3 WtCom= 9.99D-01 WtEn= 1.17D-03
 Coeff-Com:  0.567D-03-0.176D-02-0.174D-01 0.756D-02-0.616D-01-0.555D-01
 Coeff-Com:  0.757D-01 0.381D+00 0.672D+00
 Coeff-En:   0.000D+00 0.000D+00 0.000D+00 0.000D+00 0.000D+00 0.000D+00
 Coeff-En:   0.000D+00 0.000D+00 0.100D+01
 Coeff:      0.567D-03-0.176D-02-0.174D-01 0.755D-02-0.615D-01-0.554D-01
 Coeff:      0.756D-01 0.380D+00 0.672D+00
 Gap=     0.144 Goal=   None    Shift=    0.000
 Gap=     0.139 Goal=   None    Shift=    0.000
 RMSDP=1.62D-05 MaxDP=1.88D-03 DE=-5.58D-06 OVMax= 7.54D-04

 Cycle  10  Pass 1  IDiag  1:
 RMSU=  1.16D-05    CP:  8.09D-01  9.36D-02  9.47D-01  2.03D-01  9.00D-01
                    CP:  7.61D-01  1.07D+00  8.17D-01  1.03D+00
 E= -727.394316131855     Delta-E=       -0.000001234886 Rises=F Damp=F
 DIIS: error= 3.33D-05 at cycle  10 NSaved=  10.
 NSaved=10 IEnMin=10 EnMin= -727.394316131855     IErMin=10 ErrMin= 3.33D-05
 ErrMax= 3.33D-05  0.00D+00 EMaxC= 1.00D-01 BMatC= 9.50D-07 BMatP= 3.71D-06
 IDIUse=1 WtCom= 1.00D+00 WtEn= 0.00D+00
 Coeff-Com: -0.190D-04 0.280D-03-0.350D-02 0.164D-02-0.124D-01-0.308D-01
 Coeff-Com: -0.924D-01 0.341D-01 0.408D+00 0.695D+00
 Coeff:     -0.190D-04 0.280D-03-0.350D-02 0.164D-02-0.124D-01-0.308D-01
 Coeff:     -0.924D-01 0.341D-01 0.408D+00 0.695D+00
 Gap=     0.144 Goal=   None    Shift=    0.000
 Gap=     0.139 Goal=   None    Shift=    0.000
 RMSDP=9.56D-06 MaxDP=9.46D-04 DE=-1.23D-06 OVMax= 3.65D-04

 Cycle  11  Pass 1  IDiag  1:
 RMSU=  6.28D-06    CP:  8.09D-01  9.35D-02  9.47D-01  2.03D-01  8.99D-01
                    CP:  7.52D-01  1.10D+00  8.36D-01  1.13D+00  9.56D-01
 E= -727.394316411928     Delta-E=       -0.000000280073 Rises=F Damp=F
 DIIS: error= 7.85D-06 at cycle  11 NSaved=  11.
 NSaved=11 IEnMin=11 EnMin= -727.394316411928     IErMin=11 ErrMin= 7.85D-06
 ErrMax= 7.85D-06  0.00D+00 EMaxC= 1.00D-01 BMatC= 6.02D-08 BMatP= 9.50D-07
 IDIUse=1 WtCom= 1.00D+00 WtEn= 0.00D+00
 Coeff-Com: -0.526D-04 0.263D-03-0.576D-03 0.262D-03-0.198D-02-0.112D-01
 Coeff-Com: -0.468D-01-0.952D-02 0.155D+00 0.326D+00 0.589D+00
 Coeff:     -0.526D-04 0.263D-03-0.576D-03 0.262D-03-0.198D-02-0.112D-01
 Coeff:     -0.468D-01-0.952D-02 0.155D+00 0.326D+00 0.589D+00
 Gap=     0.144 Goal=   None    Shift=    0.000
 Gap=     0.139 Goal=   None    Shift=    0.000
 RMSDP=2.33D-06 MaxDP=4.77D-04 DE=-2.80D-07 OVMax= 4.87D-05

 Cycle  12  Pass 1  IDiag  1:
 RMSU=  1.28D-06    CP:  8.09D-01  9.36D-02  9.47D-01  2.03D-01  8.99D-01
                    CP:  7.52D-01  1.10D+00  8.33D-01  1.14D+00  1.03D+00
                    CP:  1.11D+00
 E= -727.394316426111     Delta-E=       -0.000000014184 Rises=F Damp=F
 DIIS: error= 4.37D-06 at cycle  12 NSaved=  12.
 NSaved=12 IEnMin=12 EnMin= -727.394316426111     IErMin=12 ErrMin= 4.37D-06
 ErrMax= 4.37D-06  0.00D+00 EMaxC= 1.00D-01 BMatC= 1.48D-08 BMatP= 6.02D-08
 IDIUse=1 WtCom= 1.00D+00 WtEn= 0.00D+00
 Coeff-Com: -0.228D-04 0.576D-04 0.625D-03-0.250D-03 0.200D-02 0.160D-02
 Coeff-Com:  0.128D-03-0.162D-01-0.205D-01-0.133D-01 0.317D+00 0.729D+00
 Coeff:     -0.228D-04 0.576D-04 0.625D-03-0.250D-03 0.200D-02 0.160D-02
 Coeff:      0.128D-03-0.162D-01-0.205D-01-0.133D-01 0.317D+00 0.729D+00
 Gap=     0.144 Goal=   None    Shift=    0.000
 Gap=     0.139 Goal=   None    Shift=    0.000
 RMSDP=1.13D-06 MaxDP=9.56D-05 DE=-1.42D-08 OVMax= 5.15D-05

 Cycle  13  Pass 1  IDiag  1:
 RMSU=  4.95D-07    CP:  8.09D-01  9.36D-02  9.47D-01  2.03D-01  8.99D-01
                    CP:  7.51D-01  1.10D+00  8.30D-01  1.16D+00  1.04D+00
                    CP:  1.20D+00  9.66D-01
 E= -727.394316431239     Delta-E=       -0.000000005128 Rises=F Damp=F
 DIIS: error= 2.24D-06 at cycle  13 NSaved=  13.
 NSaved=13 IEnMin=13 EnMin= -727.394316431239     IErMin=13 ErrMin= 2.24D-06
 ErrMax= 2.24D-06  0.00D+00 EMaxC= 1.00D-01 BMatC= 1.81D-09 BMatP= 1.48D-08
 IDIUse=1 WtCom= 1.00D+00 WtEn= 0.00D+00
 Coeff-Com:  0.244D-05-0.171D-04 0.299D-03-0.115D-03 0.912D-03 0.167D-02
 Coeff-Com:  0.593D-02-0.574D-02-0.230D-01-0.456D-01 0.285D-01 0.236D+00
 Coeff-Com:  0.802D+00
 Coeff:      0.244D-05-0.171D-04 0.299D-03-0.115D-03 0.912D-03 0.167D-02
 Coeff:      0.593D-02-0.574D-02-0.230D-01-0.456D-01 0.285D-01 0.236D+00
 Coeff:      0.802D+00
 Gap=     0.144 Goal=   None    Shift=    0.000
 Gap=     0.139 Goal=   None    Shift=    0.000
 RMSDP=5.36D-07 MaxDP=8.68D-05 DE=-5.13D-09 OVMax= 2.50D-05

 Cycle  14  Pass 1  IDiag  1:
 RMSU=  2.56D-07    CP:  8.09D-01  9.36D-02  9.47D-01  2.03D-01  8.99D-01
                    CP:  7.51D-01  1.10D+00  8.27D-01  1.17D+00  1.05D+00
                    CP:  1.23D+00  1.01D+00  9.98D-01
 E= -727.394316432215     Delta-E=       -0.000000000976 Rises=F Damp=F
 DIIS: error= 1.20D-06 at cycle  14 NSaved=  14.
 NSaved=14 IEnMin=14 EnMin= -727.394316432215     IErMin=14 ErrMin= 1.20D-06
 ErrMax= 1.20D-06  0.00D+00 EMaxC= 1.00D-01 BMatC= 7.91D-10 BMatP= 1.81D-09
 IDIUse=1 WtCom= 1.00D+00 WtEn= 0.00D+00
 Coeff-Com:  0.988D-05-0.281D-04-0.357D-04 0.123D-04-0.136D-03 0.370D-03
 Coeff-Com:  0.367D-02 0.171D-02-0.481D-02-0.238D-01-0.919D-01-0.112D+00
 Coeff-Com:  0.488D+00 0.739D+00
 Coeff:      0.988D-05-0.281D-04-0.357D-04 0.123D-04-0.136D-03 0.370D-03
 Coeff:      0.367D-02 0.171D-02-0.481D-02-0.238D-01-0.919D-01-0.112D+00
 Coeff:      0.488D+00 0.739D+00
 Gap=     0.144 Goal=   None    Shift=    0.000
 Gap=     0.139 Goal=   None    Shift=    0.000
 RMSDP=4.08D-07 MaxDP=5.22D-05 DE=-9.76D-10 OVMax= 2.18D-05

 Cycle  15  Pass 1  IDiag  1:
 RMSU=  1.59D-07    CP:  8.09D-01  9.36D-02  9.47D-01  2.03D-01  8.99D-01
                    CP:  7.51D-01  1.10D+00  8.26D-01  1.17D+00  1.05D+00
                    CP:  1.24D+00  1.04D+00  1.16D+00  1.09D+00
 E= -727.394316432686     Delta-E=       -0.000000000471 Rises=F Damp=F
 DIIS: error= 7.31D-07 at cycle  15 NSaved=  15.
 NSaved=15 IEnMin=15 EnMin= -727.394316432686     IErMin=15 ErrMin= 7.31D-07
 ErrMax= 7.31D-07  0.00D+00 EMaxC= 1.00D-01 BMatC= 1.04D-10 BMatP= 7.91D-10
 IDIUse=1 WtCom= 1.00D+00 WtEn= 0.00D+00
 Coeff-Com:  0.133D-05-0.198D-05-0.754D-04 0.220D-04-0.207D-03-0.232D-03
 Coeff-Com: -0.114D-03 0.126D-02 0.448D-02 0.201D-02-0.296D-01-0.807D-01
 Coeff-Com: -0.448D-01 0.190D+00 0.958D+00
 Coeff:      0.133D-05-0.198D-05-0.754D-04 0.220D-04-0.207D-03-0.232D-03
 Coeff:     -0.114D-03 0.126D-02 0.448D-02 0.201D-02-0.296D-01-0.807D-01
 Coeff:     -0.448D-01 0.190D+00 0.958D+00
 Gap=     0.144 Goal=   None    Shift=    0.000
 Gap=     0.139 Goal=   None    Shift=    0.000
 RMSDP=1.73D-07 MaxDP=2.56D-05 DE=-4.71D-10 OVMax= 1.11D-05

 Cycle  16  Pass 1  IDiag  1:
 RMSU=  6.32D-08    CP:  8.09D-01  9.36D-02  9.47D-01  2.03D-01  8.99D-01
                    CP:  7.51D-01  1.11D+00  8.25D-01  1.17D+00  1.05D+00
                    CP:  1.24D+00  1.05D+00  1.25D+00  1.36D+00  1.09D+00
 E= -727.394316432769     Delta-E=       -0.000000000083 Rises=F Damp=F
 DIIS: error= 3.39D-07 at cycle  16 NSaved=  16.
 NSaved=16 IEnMin=16 EnMin= -727.394316432769     IErMin=16 ErrMin= 3.39D-07
 ErrMax= 3.39D-07  0.00D+00 EMaxC= 1.00D-01 BMatC= 4.70D-11 BMatP= 1.04D-10
 IDIUse=1 WtCom= 1.00D+00 WtEn= 0.00D+00
 Coeff-Com: -0.153D-05 0.468D-05-0.368D-04 0.114D-04-0.946D-04-0.224D-03
 Coeff-Com: -0.833D-03 0.241D-03 0.394D-02 0.613D-02 0.264D-02-0.242D-01
 Coeff-Com: -0.134D+00-0.407D-01 0.576D+00 0.612D+00
 Coeff:     -0.153D-05 0.468D-05-0.368D-04 0.114D-04-0.946D-04-0.224D-03
 Coeff:     -0.833D-03 0.241D-03 0.394D-02 0.613D-02 0.264D-02-0.242D-01
 Coeff:     -0.134D+00-0.407D-01 0.576D+00 0.612D+00
 Gap=     0.144 Goal=   None    Shift=    0.000
 Gap=     0.139 Goal=   None    Shift=    0.000
 RMSDP=7.94D-08 MaxDP=1.01D-05 DE=-8.33D-11 OVMax= 4.63D-06

 Cycle  17  Pass 1  IDiag  1:
 RMSU=  3.33D-08    CP:  8.09D-01  9.36D-02  9.47D-01  2.03D-01  8.99D-01
                    CP:  7.51D-01  1.11D+00  8.24D-01  1.17D+00  1.05D+00
                    CP:  1.24D+00  1.05D+00  1.27D+00  1.39D+00  1.28D+00
                    CP:  1.06D+00
 E= -727.394316432791     Delta-E=       -0.000000000022 Rises=F Damp=F
 DIIS: error= 1.88D-07 at cycle  17 NSaved=  17.
 NSaved=17 IEnMin=17 EnMin= -727.394316432791     IErMin=17 ErrMin= 1.88D-07
 ErrMax= 1.88D-07  0.00D+00 EMaxC= 1.00D-01 BMatC= 6.49D-12 BMatP= 4.70D-11
 IDIUse=1 WtCom= 1.00D+00 WtEn= 0.00D+00
 Coeff-Com: -0.101D-05 0.224D-05 0.448D-05 0.240D-06 0.102D-04-0.450D-04
 Coeff-Com: -0.289D-03-0.311D-03 0.558D-03 0.202D-02 0.101D-01 0.124D-01
 Coeff-Com: -0.481D-01-0.694D-01-0.494D-01 0.260D+00 0.882D+00
 Coeff:     -0.101D-05 0.224D-05 0.448D-05 0.240D-06 0.102D-04-0.450D-04
 Coeff:     -0.289D-03-0.311D-03 0.558D-03 0.202D-02 0.101D-01 0.124D-01
 Coeff:     -0.481D-01-0.694D-01-0.494D-01 0.260D+00 0.882D+00
 Gap=     0.144 Goal=   None    Shift=    0.000
 Gap=     0.139 Goal=   None    Shift=    0.000
 RMSDP=4.16D-08 MaxDP=3.62D-06 DE=-2.22D-11 OVMax= 2.62D-06

 Cycle  18  Pass 1  IDiag  1:
 RMSU=  1.67D-08    CP:  8.09D-01  9.36D-02  9.47D-01  2.03D-01  8.99D-01
                    CP:  7.51D-01  1.11D+00  8.24D-01  1.17D+00  1.05D+00
                    CP:  1.24D+00  1.06D+00  1.28D+00  1.43D+00  1.35D+00
                    CP:  1.24D+00  1.08D+00
 E= -727.394316432791     Delta-E=        0.000000000001 Rises=F Damp=F
 DIIS: error= 5.11D-08 at cycle  18 NSaved=  18.
 NSaved=18 IEnMin=17 EnMin= -727.394316432791     IErMin=18 ErrMin= 5.11D-08
 ErrMax= 5.11D-08  0.00D+00 EMaxC= 1.00D-01 BMatC= 1.24D-12 BMatP= 6.49D-12
 IDIUse=1 WtCom= 1.00D+00 WtEn= 0.00D+00
 Coeff-Com: -0.307D-06 0.649D-06 0.603D-05-0.107D-05 0.143D-04-0.272D-05
 Coeff-Com: -0.519D-04-0.184D-03-0.121D-03 0.355D-03 0.498D-02 0.872D-02
 Coeff-Com: -0.111D-01-0.296D-01-0.823D-01 0.748D-01 0.454D+00 0.580D+00
 Coeff:     -0.307D-06 0.649D-06 0.603D-05-0.107D-05 0.143D-04-0.272D-05
 Coeff:     -0.519D-04-0.184D-03-0.121D-03 0.355D-03 0.498D-02 0.872D-02
 Coeff:     -0.111D-01-0.296D-01-0.823D-01 0.748D-01 0.454D+00 0.580D+00
 Gap=     0.144 Goal=   None    Shift=    0.000
 Gap=     0.139 Goal=   None    Shift=    0.000
 RMSDP=8.69D-09 MaxDP=7.80D-07 DE= 5.68D-13 OVMax= 4.86D-07

 Error on total polarization charges =  0.02356
 SCF Done:  E(UB3LYP) =  -727.394316433     A.U. after   18 cycles
            NFock= 18  Conv=0.87D-08     -V/T= 2.0041
 <Sx>= 0.0000 <Sy>= 0.0000 <Sz>= 0.5000 <S**2>= 0.7594 S= 0.5047
 <L.S>=  0.00000000000    
 KE= 7.243988520027D+02 PE=-3.642810466277D+03 EE= 1.226206814502D+03
 Annihilation of the first spin contaminant:
 S**2 before annihilation     0.7594,   after     0.7500
 Leave Link  502 at Wed Jan 24 22:50:48 2024, MaxMem=  4026531840 cpu:            1394.5 elap:             176.7
 (Enter /sysapps/ubuntu-applications/gaussian/Gaussian/AVX2/g16/l601.exe)
 Copying SCF densities to generalized density rwf, IOpCl= 1 IROHF=0.

 **********************************************************************

            Population analysis using the SCF density.

 **********************************************************************

 Orbital symmetries:
 Alpha Orbitals:
       Occupied  (A) (A) (A) (A) (A) (A) (A) (A) (A) (A) (A) (A)
                 (A) (A) (A) (A) (A) (A) (A) (A) (A) (A) (A) (A)
                 (A) (A) (A) (A) (A) (A) (A) (A) (A) (A) (A) (A)
                 (A) (A) (A) (A) (A) (A) (A) (A) (A) (A) (A) (A)
                 (A) (A) (A) (A) (A) (A) (A) (A) (A)
       Virtual   (A) (A) (A) (A) (A) (A) (A) (A) (A) (A) (A) (A)
                 (A) (A) (A) (A) (A) (A) (A) (A) (A) (A) (A) (A)
                 (A) (A) (A) (A) (A) (A) (A) (A) (A) (A) (A) (A)
                 (A) (A) (A) (A) (A) (A) (A) (A) (A) (A) (A) (A)
                 (A) (A) (A) (A) (A) (A) (A) (A) (A) (A) (A) (A)
                 (A) (A) (A) (A) (A) (A) (A) (A) (A) (A) (A) (A)
                 (A) (A) (A) (A) (A) (A) (A) (A) (A) (A) (A) (A)
                 (A) (A) (A) (A) (A) (A) (A) (A) (A) (A) (A) (A)
                 (A) (A) (A) (A) (A) (A) (A) (A) (A) (A) (A) (A)
                 (A) (A) (A) (A) (A) (A) (A) (A) (A) (A) (A) (A)
                 (A) (A) (A) (A) (A) (A) (A) (A) (A) (A) (A) (A)
                 (A) (A) (A) (A) (A) (A) (A) (A) (A) (A) (A) (A)
                 (A) (A) (A) (A) (A) (A) (A) (A) (A) (A) (A) (A)
                 (A) (A) (A) (A) (A) (A) (A) (A) (A) (A) (A) (A)
                 (A) (A) (A) (A) (A) (A) (A) (A) (A) (A) (A) (A)
                 (A) (A) (A) (A) (A) (A) (A) (A) (A) (A) (A) (A)
                 (A) (A) (A) (A) (A) (A) (A) (A) (A) (A) (A) (A)
                 (A) (A) (A) (A) (A) (A) (A) (A) (A) (A) (A) (A)
                 (A) (A) (A) (A) (A) (A) (A) (A) (A) (A) (A) (A)
                 (A) (A) (A) (A) (A) (A) (A) (A) (A) (A) (A) (A)
                 (A) (A) (A) (A) (A) (A) (A) (A) (A) (A) (A) (A)
                 (A) (A) (A) (A) (A) (A) (A) (A) (A) (A) (A) (A)
                 (A) (A) (A) (A) (A) (A) (A) (A) (A) (A) (A) (A)
                 (A) (A) (A) (A) (A) (A) (A) (A) (A) (A) (A) (A)
                 (A) (A) (A) (A) (A) (A) (A) (A) (A) (A) (A) (A)
                 (A) (A) (A) (A) (A) (A) (A) (A) (A) (A) (A) (A)
                 (A) (A) (A) (A) (A) (A) (A) (A) (A) (A) (A) (A)
                 (A) (A) (A) (A) (A) (A) (A) (A) (A) (A) (A) (A)
                 (A) (A) (A) (A) (A) (A) (A) (A) (A) (A) (A) (A)
                 (A) (A) (A) (A) (A) (A) (A) (A) (A) (A) (A) (A)
                 (A) (A) (A)
 Beta  Orbitals:
       Occupied  (A) (A) (A) (A) (A) (A) (A) (A) (A) (A) (A) (A)
                 (A) (A) (A) (A) (A) (A) (A) (A) (A) (A) (A) (A)
                 (A) (A) (A) (A) (A) (A) (A) (A) (A) (A) (A) (A)
                 (A) (A) (A) (A) (A) (A) (A) (A) (A) (A) (A) (A)
                 (A) (A) (A) (A) (A) (A) (A) (A)
       Virtual   (A) (A) (A) (A) (A) (A) (A) (A) (A) (A) (A) (A)
                 (A) (A) (A) (A) (A) (A) (A) (A) (A) (A) (A) (A)
                 (A) (A) (A) (A) (A) (A) (A) (A) (A) (A) (A) (A)
                 (A) (A) (A) (A) (A) (A) (A) (A) (A) (A) (A) (A)
                 (A) (A) (A) (A) (A) (A) (A) (A) (A) (A) (A) (A)
                 (A) (A) (A) (A) (A) (A) (A) (A) (A) (A) (A) (A)
                 (A) (A) (A) (A) (A) (A) (A) (A) (A) (A) (A) (A)
                 (A) (A) (A) (A) (A) (A) (A) (A) (A) (A) (A) (A)
                 (A) (A) (A) (A) (A) (A) (A) (A) (A) (A) (A) (A)
                 (A) (A) (A) (A) (A) (A) (A) (A) (A) (A) (A) (A)
                 (A) (A) (A) (A) (A) (A) (A) (A) (A) (A) (A) (A)
                 (A) (A) (A) (A) (A) (A) (A) (A) (A) (A) (A) (A)
                 (A) (A) (A) (A) (A) (A) (A) (A) (A) (A) (A) (A)
                 (A) (A) (A) (A) (A) (A) (A) (A) (A) (A) (A) (A)
                 (A) (A) (A) (A) (A) (A) (A) (A) (A) (A) (A) (A)
                 (A) (A) (A) (A) (A) (A) (A) (A) (A) (A) (A) (A)
                 (A) (A) (A) (A) (A) (A) (A) (A) (A) (A) (A) (A)
                 (A) (A) (A) (A) (A) (A) (A) (A) (A) (A) (A) (A)
                 (A) (A) (A) (A) (A) (A) (A) (A) (A) (A) (A) (A)
                 (A) (A) (A) (A) (A) (A) (A) (A) (A) (A) (A) (A)
                 (A) (A) (A) (A) (A) (A) (A) (A) (A) (A) (A) (A)
                 (A) (A) (A) (A) (A) (A) (A) (A) (A) (A) (A) (A)
                 (A) (A) (A) (A) (A) (A) (A) (A) (A) (A) (A) (A)
                 (A) (A) (A) (A) (A) (A) (A) (A) (A) (A) (A) (A)
                 (A) (A) (A) (A) (A) (A) (A) (A) (A) (A) (A) (A)
                 (A) (A) (A) (A) (A) (A) (A) (A) (A) (A) (A) (A)
                 (A) (A) (A) (A) (A) (A) (A) (A) (A) (A) (A) (A)
                 (A) (A) (A) (A) (A) (A) (A) (A) (A) (A) (A) (A)
                 (A) (A) (A) (A) (A) (A) (A) (A) (A) (A) (A) (A)
                 (A) (A) (A) (A) (A) (A) (A) (A) (A) (A) (A) (A)
                 (A) (A) (A) (A)
 The electronic state is 2-A.
 Alpha  occ. eigenvalues --  -19.15841 -19.07925 -19.07832 -10.24094 -10.22874
 Alpha  occ. eigenvalues --  -10.22101 -10.22017 -10.18016 -10.17978 -10.17705
 Alpha  occ. eigenvalues --  -10.17622 -10.17425 -10.17162 -10.16454 -10.16363
 Alpha  occ. eigenvalues --  -10.16201  -1.07640  -0.99992  -0.99719  -0.85920
 Alpha  occ. eigenvalues --   -0.82808  -0.77856  -0.75429  -0.73969  -0.70311
 Alpha  occ. eigenvalues --   -0.67169  -0.61896  -0.61064  -0.58072  -0.56138
 Alpha  occ. eigenvalues --   -0.54042  -0.49600  -0.48297  -0.48091  -0.46684
 Alpha  occ. eigenvalues --   -0.46259  -0.44873  -0.43767  -0.42631  -0.41449
 Alpha  occ. eigenvalues --   -0.41000  -0.40367  -0.38719  -0.38308  -0.37195
 Alpha  occ. eigenvalues --   -0.36961  -0.36506  -0.35834  -0.33183  -0.33173
 Alpha  occ. eigenvalues --   -0.28276  -0.26349  -0.25582  -0.24510  -0.23929
 Alpha  occ. eigenvalues --   -0.23060  -0.16419
 Alpha virt. eigenvalues --   -0.02038  -0.00912  -0.00523  -0.00422   0.00500
 Alpha virt. eigenvalues --    0.01028   0.01673   0.02318   0.02539   0.03445
 Alpha virt. eigenvalues --    0.03482   0.03809   0.04138   0.05982   0.06333
 Alpha virt. eigenvalues --    0.06339   0.06938   0.07086   0.08082   0.08772
 Alpha virt. eigenvalues --    0.09079   0.09237   0.10017   0.11157   0.11200
 Alpha virt. eigenvalues --    0.11538   0.11781   0.12034   0.12277   0.12419
 Alpha virt. eigenvalues --    0.12674   0.12984   0.12998   0.13291   0.13510
 Alpha virt. eigenvalues --    0.13661   0.14440   0.14673   0.14765   0.15249
 Alpha virt. eigenvalues --    0.16015   0.16086   0.16119   0.16637   0.16820
 Alpha virt. eigenvalues --    0.17508   0.17588   0.18209   0.18860   0.19104
 Alpha virt. eigenvalues --    0.19730   0.19848   0.20255   0.20847   0.21030
 Alpha virt. eigenvalues --    0.21096   0.21970   0.22098   0.22981   0.23811
 Alpha virt. eigenvalues --    0.24885   0.25113   0.25152   0.25868   0.26226
 Alpha virt. eigenvalues --    0.26809   0.27224   0.27827   0.28538   0.28837
 Alpha virt. eigenvalues --    0.29559   0.29596   0.30042   0.30709   0.31072
 Alpha virt. eigenvalues --    0.31154   0.31519   0.31778   0.32166   0.32323
 Alpha virt. eigenvalues --    0.32981   0.33267   0.34087   0.35296   0.35533
 Alpha virt. eigenvalues --    0.36028   0.36222   0.37469   0.37680   0.38289
 Alpha virt. eigenvalues --    0.39233   0.39580   0.40093   0.40636   0.41127
 Alpha virt. eigenvalues --    0.42612   0.43460   0.45049   0.46074   0.46643
 Alpha virt. eigenvalues --    0.47918   0.51701   0.52059   0.53278   0.53628
 Alpha virt. eigenvalues --    0.54093   0.54639   0.54995   0.55631   0.56529
 Alpha virt. eigenvalues --    0.57383   0.57926   0.58159   0.58995   0.59190
 Alpha virt. eigenvalues --    0.59680   0.61264   0.61310   0.62361   0.62692
 Alpha virt. eigenvalues --    0.62866   0.64084   0.64399   0.65769   0.65979
 Alpha virt. eigenvalues --    0.66539   0.67601   0.68122   0.70458   0.70976
 Alpha virt. eigenvalues --    0.71640   0.71882   0.73203   0.73683   0.75680
 Alpha virt. eigenvalues --    0.77095   0.78531   0.79766   0.80389   0.82339
 Alpha virt. eigenvalues --    0.82964   0.83818   0.84154   0.85446   0.85718
 Alpha virt. eigenvalues --    0.86854   0.86995   0.88196   0.89345   0.89809
 Alpha virt. eigenvalues --    0.90907   0.92324   0.92485   0.92779   0.94395
 Alpha virt. eigenvalues --    0.96962   0.97298   0.98264   0.98355   1.00236
 Alpha virt. eigenvalues --    1.01005   1.01757   1.01943   1.03197   1.04044
 Alpha virt. eigenvalues --    1.05808   1.06005   1.07683   1.07955   1.10142
 Alpha virt. eigenvalues --    1.11045   1.11966   1.12894   1.13025   1.13809
 Alpha virt. eigenvalues --    1.15617   1.17757   1.22651   1.24804   1.24997
 Alpha virt. eigenvalues --    1.25782   1.26288   1.29260   1.29269   1.30554
 Alpha virt. eigenvalues --    1.32584   1.33242   1.37101   1.38247   1.42632
 Alpha virt. eigenvalues --    1.48068   1.49786   1.50981   1.51613   1.53526
 Alpha virt. eigenvalues --    1.54072   1.55051   1.55743   1.55926   1.56800
 Alpha virt. eigenvalues --    1.57887   1.59919   1.59985   1.60823   1.61491
 Alpha virt. eigenvalues --    1.61976   1.63046   1.64233   1.65850   1.66554
 Alpha virt. eigenvalues --    1.69384   1.70817   1.72023   1.73657   1.73971
 Alpha virt. eigenvalues --    1.75246   1.76181   1.77623   1.80049   1.81641
 Alpha virt. eigenvalues --    1.82022   1.82945   1.85098   1.85606   1.89943
 Alpha virt. eigenvalues --    1.90286   1.92481   1.92768   1.93442   1.94136
 Alpha virt. eigenvalues --    1.95599   1.95611   1.96499   1.97074   1.97945
 Alpha virt. eigenvalues --    1.98553   1.99860   2.02942   2.04492   2.07948
 Alpha virt. eigenvalues --    2.08198   2.09320   2.10369   2.10464   2.14905
 Alpha virt. eigenvalues --    2.17965   2.18752   2.23380   2.26440   2.26926
 Alpha virt. eigenvalues --    2.27201   2.29553   2.32235   2.33305   2.34916
 Alpha virt. eigenvalues --    2.41598   2.45171   2.46958   2.47292   2.50368
 Alpha virt. eigenvalues --    2.51583   2.53069   2.56232   2.57500   2.59614
 Alpha virt. eigenvalues --    2.63168   2.64001   2.65007   2.65999   2.66348
 Alpha virt. eigenvalues --    2.69096   2.71064   2.72875   2.73052   2.74731
 Alpha virt. eigenvalues --    2.74744   2.75255   2.75714   2.76526   2.78433
 Alpha virt. eigenvalues --    2.78448   2.79309   2.80437   2.82111   2.84456
 Alpha virt. eigenvalues --    2.85475   2.86179   2.87607   2.89510   2.89844
 Alpha virt. eigenvalues --    2.94109   2.94257   2.95301   2.96734   2.97348
 Alpha virt. eigenvalues --    3.04953   3.05677   3.07514   3.10035   3.10795
 Alpha virt. eigenvalues --    3.13191   3.17412   3.20159   3.20594   3.21876
 Alpha virt. eigenvalues --    3.24796   3.26043   3.31037   3.31861   3.33947
 Alpha virt. eigenvalues --    3.34021   3.38665   3.41045   3.45011   3.49951
 Alpha virt. eigenvalues --    3.50067   3.53747   3.55852   3.59071   3.62386
 Alpha virt. eigenvalues --    3.63250   3.71088   3.71293   3.79594   3.79897
 Alpha virt. eigenvalues --    4.00118   4.03401   4.05177   4.09252   4.14336
 Alpha virt. eigenvalues --    4.15436   4.16591   4.21093   4.25131   4.28149
 Alpha virt. eigenvalues --    4.33219   4.79096   4.84914   5.03902   5.06809
 Alpha virt. eigenvalues --    5.08652   5.23680   5.27654   5.42645   5.72116
 Alpha virt. eigenvalues --    5.80967   5.85822  23.63643  23.67713  23.85437
 Alpha virt. eigenvalues --   23.89833  23.93692  23.94529  23.96139  23.96590
 Alpha virt. eigenvalues --   24.06397  24.10330  24.13951  24.19176  24.19278
 Alpha virt. eigenvalues --   49.98394  50.02895  50.06102
  Beta  occ. eigenvalues --  -19.15843 -19.07241 -19.07117 -10.24094 -10.22884
  Beta  occ. eigenvalues --  -10.21940 -10.21890 -10.18016 -10.17978 -10.17622
  Beta  occ. eigenvalues --  -10.17603 -10.17426 -10.17162 -10.16352 -10.16232
  Beta  occ. eigenvalues --  -10.16102  -1.07641  -0.98784  -0.98459  -0.85908
  Beta  occ. eigenvalues --   -0.82245  -0.77651  -0.75418  -0.73857  -0.69940
  Beta  occ. eigenvalues --   -0.66340  -0.61801  -0.60931  -0.57856  -0.55793
  Beta  occ. eigenvalues --   -0.53964  -0.49561  -0.48145  -0.47979  -0.46406
  Beta  occ. eigenvalues --   -0.45987  -0.44817  -0.43497  -0.42597  -0.41368
  Beta  occ. eigenvalues --   -0.39835  -0.39732  -0.38057  -0.37671  -0.36895
  Beta  occ. eigenvalues --   -0.36367  -0.35603  -0.34601  -0.33159  -0.32896
  Beta  occ. eigenvalues --   -0.26329  -0.25000  -0.24714  -0.23856  -0.23299
  Beta  occ. eigenvalues --   -0.23047
  Beta virt. eigenvalues --   -0.09126  -0.01985  -0.00575  -0.00413   0.00465
  Beta virt. eigenvalues --    0.00522   0.01046   0.01682   0.02342   0.03452
  Beta virt. eigenvalues --    0.03492   0.03825   0.04165   0.04724   0.06023
  Beta virt. eigenvalues --    0.06363   0.06453   0.06962   0.07385   0.08189
  Beta virt. eigenvalues --    0.08808   0.09111   0.09343   0.10035   0.11205
  Beta virt. eigenvalues --    0.11214   0.11567   0.11919   0.12057   0.12298
  Beta virt. eigenvalues --    0.12433   0.12693   0.13022   0.13044   0.13303
  Beta virt. eigenvalues --    0.13581   0.13677   0.14455   0.14805   0.15063
  Beta virt. eigenvalues --    0.15290   0.16063   0.16110   0.16197   0.16836
  Beta virt. eigenvalues --    0.16838   0.17608   0.17631   0.18707   0.18865
  Beta virt. eigenvalues --    0.19185   0.19848   0.20114   0.20272   0.20897
  Beta virt. eigenvalues --    0.21064   0.21215   0.21991   0.22116   0.23015
  Beta virt. eigenvalues --    0.23873   0.24917   0.25160   0.25290   0.25997
  Beta virt. eigenvalues --    0.26283   0.26873   0.27287   0.27920   0.28604
  Beta virt. eigenvalues --    0.28897   0.29650   0.29897   0.30089   0.30779
  Beta virt. eigenvalues --    0.31149   0.31652   0.31763   0.31835   0.32189
  Beta virt. eigenvalues --    0.32496   0.33167   0.33364   0.34187   0.35334
  Beta virt. eigenvalues --    0.35559   0.36092   0.36278   0.37524   0.37710
  Beta virt. eigenvalues --    0.38358   0.39287   0.39700   0.40221   0.40699
  Beta virt. eigenvalues --    0.41294   0.42780   0.43723   0.45218   0.46155
  Beta virt. eigenvalues --    0.46814   0.48125   0.51750   0.52177   0.53367
  Beta virt. eigenvalues --    0.53711   0.54194   0.55023   0.55085   0.55701
  Beta virt. eigenvalues --    0.56566   0.57566   0.57942   0.58307   0.59019
  Beta virt. eigenvalues --    0.59559   0.59842   0.61433   0.61731   0.62655
  Beta virt. eigenvalues --    0.62958   0.62993   0.64271   0.64656   0.65812
  Beta virt. eigenvalues --    0.66239   0.66619   0.67626   0.68195   0.70542
  Beta virt. eigenvalues --    0.71367   0.71669   0.71967   0.73261   0.73798
  Beta virt. eigenvalues --    0.75748   0.77118   0.78620   0.79843   0.80470
  Beta virt. eigenvalues --    0.82379   0.82987   0.83941   0.84228   0.85484
  Beta virt. eigenvalues --    0.85764   0.86972   0.87090   0.88453   0.89455
  Beta virt. eigenvalues --    0.90060   0.90966   0.92352   0.92646   0.92916
  Beta virt. eigenvalues --    0.94496   0.97020   0.97505   0.98315   0.98395
  Beta virt. eigenvalues --    1.00291   1.01707   1.01781   1.02166   1.03395
  Beta virt. eigenvalues --    1.04068   1.06056   1.06415   1.07811   1.07957
  Beta virt. eigenvalues --    1.10194   1.11158   1.12862   1.13144   1.14128
  Beta virt. eigenvalues --    1.14643   1.16315   1.17904   1.23003   1.25086
  Beta virt. eigenvalues --    1.25971   1.26520   1.26609   1.29338   1.29375
  Beta virt. eigenvalues --    1.30812   1.32727   1.33378   1.37266   1.38567
  Beta virt. eigenvalues --    1.42712   1.48225   1.49956   1.51059   1.51650
  Beta virt. eigenvalues --    1.53726   1.54092   1.55120   1.55794   1.56278
  Beta virt. eigenvalues --    1.56821   1.57944   1.60061   1.60105   1.60897
  Beta virt. eigenvalues --    1.61657   1.62226   1.63172   1.64623   1.65863
  Beta virt. eigenvalues --    1.66626   1.69843   1.71004   1.72247   1.73815
  Beta virt. eigenvalues --    1.73982   1.75504   1.76297   1.77626   1.80347
  Beta virt. eigenvalues --    1.82046   1.82069   1.83378   1.85625   1.85687
  Beta virt. eigenvalues --    1.90092   1.90351   1.92608   1.92830   1.93775
  Beta virt. eigenvalues --    1.94174   1.95870   1.96102   1.96537   1.97137
  Beta virt. eigenvalues --    1.98073   1.98645   2.00061   2.02958   2.04553
  Beta virt. eigenvalues --    2.07959   2.08306   2.09435   2.10620   2.10792
  Beta virt. eigenvalues --    2.15355   2.18086   2.19243   2.23697   2.26650
  Beta virt. eigenvalues --    2.26966   2.27807   2.29672   2.32366   2.33337
  Beta virt. eigenvalues --    2.35009   2.41609   2.45227   2.46974   2.47296
  Beta virt. eigenvalues --    2.50394   2.51718   2.53181   2.56420   2.57679
  Beta virt. eigenvalues --    2.59858   2.63253   2.64521   2.65012   2.66279
  Beta virt. eigenvalues --    2.66403   2.69273   2.71079   2.72878   2.73159
  Beta virt. eigenvalues --    2.74737   2.75300   2.75552   2.75812   2.76988
  Beta virt. eigenvalues --    2.78549   2.78861   2.79465   2.80493   2.82146
  Beta virt. eigenvalues --    2.85356   2.85610   2.87017   2.88056   2.89547
  Beta virt. eigenvalues --    2.89907   2.95287   2.95616   2.95885   2.98165
  Beta virt. eigenvalues --    2.98713   3.05540   3.06147   3.07519   3.10392
  Beta virt. eigenvalues --    3.10959   3.13245   3.17489   3.20310   3.20682
  Beta virt. eigenvalues --    3.22417   3.24807   3.26286   3.31066   3.33674
  Beta virt. eigenvalues --    3.34090   3.35829   3.38671   3.41100   3.45250
  Beta virt. eigenvalues --    3.50085   3.50315   3.53914   3.55956   3.59354
  Beta virt. eigenvalues --    3.62394   3.63602   3.71138   3.71760   3.79940
  Beta virt. eigenvalues --    3.80033   4.00122   4.03506   4.05265   4.09390
  Beta virt. eigenvalues --    4.14465   4.15789   4.16673   4.21272   4.25529
  Beta virt. eigenvalues --    4.28196   4.33420   4.79634   4.84915   5.04024
  Beta virt. eigenvalues --    5.09719   5.11399   5.24269   5.28226   5.42651
  Beta virt. eigenvalues --    5.72683   5.81454   5.85935  23.63686  23.67804
  Beta virt. eigenvalues --   23.85561  23.89873  23.93833  23.94688  23.96156
  Beta virt. eigenvalues --   23.96594  24.06397  24.10330  24.14070  24.19193
  Beta virt. eigenvalues --   24.19386  49.98439  50.03575  50.06779
          Condensed to atoms (all electrons):
               1          2          3          4          5          6
     1  C   14.204781  -3.161976   1.681336  -1.215857  -1.898262  -1.247300
     2  C   -3.161976  10.494748  -1.915400   1.250747   0.565205  -1.550823
     3  C    1.681336  -1.915400   9.423141  -1.231232  -2.100963   0.355688
     4  C   -1.215857   1.250747  -1.231232   9.074457  -2.012365   0.181341
     5  C   -1.898262   0.565205  -2.100963  -2.012365  15.667604  -3.750082
     6  C   -1.247300  -1.550823   0.355688   0.181341  -3.750082  11.009723
     7  O    0.421897  -0.128829  -0.035103   0.020675  -0.077039  -0.167271
     8  O   -0.011688   0.016770  -0.192620   0.373775  -0.161628   0.050827
     9  C   -1.440966  -0.039571  -0.278590   0.283112  -0.060767   0.188290
    10  O    0.011385  -0.002181  -0.016838   0.055494  -0.047324  -0.033372
    11  C    0.139883   0.008426  -0.084557   0.000887  -0.195967  -0.236515
    12  C   -0.106359  -0.096832   0.031590  -0.024919  -0.038994   0.098856
    13  C   -0.003383   0.011424  -0.032378   0.006331  -0.079788   0.171344
    14  C    0.018381  -0.007693   0.006904   0.004871  -0.000923   0.004325
    15  C   -0.099978  -0.021988  -0.001527   0.005411  -0.019523   0.190472
    16  C    0.003876   0.000608  -0.000695  -0.007282  -0.023958   0.051173
    17  H   -0.118236   0.440686  -0.032781   0.016708   0.065098  -0.049867
    18  H    0.014932  -0.024344   0.465027  -0.089539  -0.113525   0.064990
    19  H    0.017874   0.067355  -0.133876  -0.262100   0.697297  -0.064723
    20  H   -0.020103  -0.044015   0.008637  -0.002318  -0.017169   0.041089
    21  H   -0.020644  -0.043984   0.008633  -0.002307  -0.016757   0.041195
    22  H   -0.039584  -0.011292   0.001676   0.001606   0.048255   0.003522
    23  H   -0.003955  -0.000747   0.000863   0.006516  -0.024566   0.013185
    24  H   -0.000334  -0.000074   0.000021   0.000625   0.002671  -0.003166
    25  H    0.000535   0.000163  -0.000094   0.000241  -0.001144  -0.002170
    26  H   -0.000072  -0.000016  -0.000003  -0.000155  -0.000657   0.001818
               7          8          9         10         11         12
     1  C    0.421897  -0.011688  -1.440966   0.011385   0.139883  -0.106359
     2  C   -0.128829   0.016770  -0.039571  -0.002181   0.008426  -0.096832
     3  C   -0.035103  -0.192620  -0.278590  -0.016838  -0.084557   0.031590
     4  C    0.020675   0.373775   0.283112   0.055494   0.000887  -0.024919
     5  C   -0.077039  -0.161628  -0.060767  -0.047324  -0.195967  -0.038994
     6  C   -0.167271   0.050827   0.188290  -0.033372  -0.236515   0.098856
     7  O    8.425843   0.000167   0.049725  -0.000766   0.019214  -0.012929
     8  O    0.000167   8.457330  -0.002237  -0.001578  -0.003993   0.000265
     9  C    0.049725  -0.002237   9.498614   0.091350  -0.568330   1.387638
    10  O   -0.000766  -0.001578   0.091350   8.316378   0.098513   0.262161
    11  C    0.019214  -0.003993  -0.568330   0.098513  10.608487  -1.408790
    12  C   -0.012929   0.000265   1.387638   0.262161  -1.408790  12.631424
    13  C   -0.000410  -0.000176  -2.399657  -0.604532  -0.954011  -6.406396
    14  C   -0.000429   0.000278   0.080922   0.036749  -0.063200   0.947624
    15  C   -0.001457  -0.000046  -1.342271   0.047171  -1.462606  -1.875956
    16  C   -0.000146  -0.000004   0.027246   0.017114   0.034165  -0.228738
    17  H   -0.005973   0.000760  -0.010261   0.000462   0.002629  -0.000923
    18  H    0.000177  -0.008764   0.001865  -0.000093  -0.000611   0.000670
    19  H   -0.000590  -0.014133  -0.004001  -0.010720   0.002105  -0.015108
    20  H   -0.010879  -0.000363   0.298540  -0.041569  -0.081966   0.112007
    21  H   -0.010866  -0.000363   0.298540  -0.041534  -0.082153   0.112135
    22  H   -0.001791   0.000041   0.094933  -0.007520  -0.211064   0.711842
    23  H    0.000121   0.000264  -0.027493  -0.006247  -0.080275  -0.059856
    24  H    0.000002  -0.000004  -0.001523  -0.001510   0.055012   0.048444
    25  H    0.000137  -0.000001  -0.010489  -0.002536   0.010838  -0.066325
    26  H   -0.000001   0.000000  -0.002773   0.000949   0.019631  -0.030702
              13         14         15         16         17         18
     1  C   -0.003383   0.018381  -0.099978   0.003876  -0.118236   0.014932
     2  C    0.011424  -0.007693  -0.021988   0.000608   0.440686  -0.024344
     3  C   -0.032378   0.006904  -0.001527  -0.000695  -0.032781   0.465027
     4  C    0.006331   0.004871   0.005411  -0.007282   0.016708  -0.089539
     5  C   -0.079788  -0.000923  -0.019523  -0.023958   0.065098  -0.113525
     6  C    0.171344   0.004325   0.190472   0.051173  -0.049867   0.064990
     7  O   -0.000410  -0.000429  -0.001457  -0.000146  -0.005973   0.000177
     8  O   -0.000176   0.000278  -0.000046  -0.000004   0.000760  -0.008764
     9  C   -2.399657   0.080922  -1.342271   0.027246  -0.010261   0.001865
    10  O   -0.604532   0.036749   0.047171   0.017114   0.000462  -0.000093
    11  C   -0.954011  -0.063200  -1.462606   0.034165   0.002629  -0.000611
    12  C   -6.406396   0.947624  -1.875956  -0.228738  -0.000923   0.000670
    13  C   14.773432  -0.718206   2.712599  -0.524710   0.000802  -0.000188
    14  C   -0.718206   5.837758  -0.433480   0.166733  -0.000059   0.000020
    15  C    2.712599  -0.433480   7.832252   0.520982   0.000059   0.000096
    16  C   -0.524710   0.166733   0.520982   5.942863   0.000030   0.000002
    17  H    0.000802  -0.000059   0.000059   0.000030   0.527304  -0.023231
    18  H   -0.000188   0.000020   0.000096   0.000002  -0.023231   0.530636
    19  H    0.011526  -0.004057  -0.003676   0.004052   0.004367  -0.007378
    20  H   -0.023167   0.001953   0.033767   0.002217  -0.000414   0.000347
    21  H   -0.023226   0.001939   0.033845   0.002235  -0.000415   0.000347
    22  H   -0.184847   0.027279  -0.123305   0.018236  -0.000193   0.000043
    23  H    0.528842  -0.052398   0.038878   0.007042  -0.000030   0.000048
    24  H   -0.155372   0.463666  -0.017106  -0.070223  -0.000000  -0.000001
    25  H    0.052769   0.012901   0.387587  -0.067989   0.000004  -0.000001
    26  H   -0.028072  -0.068171  -0.061495   0.514753   0.000000   0.000000
              19         20         21         22         23         24
     1  C    0.017874  -0.020103  -0.020644  -0.039584  -0.003955  -0.000334
     2  C    0.067355  -0.044015  -0.043984  -0.011292  -0.000747  -0.000074
     3  C   -0.133876   0.008637   0.008633   0.001676   0.000863   0.000021
     4  C   -0.262100  -0.002318  -0.002307   0.001606   0.006516   0.000625
     5  C    0.697297  -0.017169  -0.016757   0.048255  -0.024566   0.002671
     6  C   -0.064723   0.041089   0.041195   0.003522   0.013185  -0.003166
     7  O   -0.000590  -0.010879  -0.010866  -0.001791   0.000121   0.000002
     8  O   -0.014133  -0.000363  -0.000363   0.000041   0.000264  -0.000004
     9  C   -0.004001   0.298540   0.298540   0.094933  -0.027493  -0.001523
    10  O   -0.010720  -0.041569  -0.041534  -0.007520  -0.006247  -0.001510
    11  C    0.002105  -0.081966  -0.082153  -0.211064  -0.080275   0.055012
    12  C   -0.015108   0.112007   0.112135   0.711842  -0.059856   0.048444
    13  C    0.011526  -0.023167  -0.023226  -0.184847   0.528842  -0.155372
    14  C   -0.004057   0.001953   0.001939   0.027279  -0.052398   0.463666
    15  C   -0.003676   0.033767   0.033845  -0.123305   0.038878  -0.017106
    16  C    0.004052   0.002217   0.002235   0.018236   0.007042  -0.070223
    17  H    0.004367  -0.000414  -0.000415  -0.000193  -0.000030  -0.000000
    18  H   -0.007378   0.000347   0.000347   0.000043   0.000048  -0.000001
    19  H    0.545131  -0.001899  -0.001908   0.000083  -0.005824   0.000009
    20  H   -0.001899   0.624464  -0.108884  -0.000035   0.001007   0.000012
    21  H   -0.001908  -0.108884   0.624351  -0.000008   0.001013   0.000012
    22  H    0.000083  -0.000035  -0.000008   0.513225  -0.002790   0.000479
    23  H   -0.005824   0.001007   0.001013  -0.002790   0.502230  -0.015550
    24  H    0.000009   0.000012   0.000012   0.000479  -0.015550   0.510809
    25  H   -0.000123  -0.000133  -0.000134  -0.012119   0.001149   0.000454
    26  H    0.000054   0.000015   0.000015   0.001364   0.000475  -0.017330
              25         26
     1  C    0.000535  -0.000072
     2  C    0.000163  -0.000016
     3  C   -0.000094  -0.000003
     4  C    0.000241  -0.000155
     5  C   -0.001144  -0.000657
     6  C   -0.002170   0.001818
     7  O    0.000137  -0.000001
     8  O   -0.000001   0.000000
     9  C   -0.010489  -0.002773
    10  O   -0.002536   0.000949
    11  C    0.010838   0.019631
    12  C   -0.066325  -0.030702
    13  C    0.052769  -0.028072
    14  C    0.012901  -0.068171
    15  C    0.387587  -0.061495
    16  C   -0.067989   0.514753
    17  H    0.000004   0.000000
    18  H   -0.000001   0.000000
    19  H   -0.000123   0.000054
    20  H   -0.000133   0.000015
    21  H   -0.000134   0.000015
    22  H   -0.012119   0.001364
    23  H    0.001149   0.000475
    24  H    0.000454  -0.017330
    25  H    0.502457  -0.016809
    26  H   -0.016809   0.518917
          Atomic-Atomic Spin Densities.
               1          2          3          4          5          6
     1  C   -0.050358  -0.061201  -0.077254   0.043004  -0.092846   0.247792
     2  C   -0.061201   0.227277  -0.061646  -0.043600   0.026637   0.007386
     3  C   -0.077254  -0.061646   0.097387   0.082739   0.086100  -0.022214
     4  C    0.043004  -0.043600   0.082739  -0.008432   0.179431  -0.064081
     5  C   -0.092846   0.026637   0.086100   0.179431  -0.089418  -0.017527
     6  C    0.247792   0.007386  -0.022214  -0.064081  -0.017527  -0.015442
     7  O   -0.086438   0.017006   0.009782  -0.001586   0.001867  -0.030842
     8  O   -0.004506   0.008707  -0.018655  -0.039544  -0.044978  -0.006454
     9  C    0.116983   0.002364   0.001666  -0.024764  -0.001941   0.002284
    10  O    0.001210  -0.001738   0.000456   0.001700  -0.002655   0.001223
    11  C    0.004083  -0.005022  -0.000496   0.004471  -0.007989   0.006225
    12  C    0.002217   0.005351   0.000641  -0.004698   0.010731  -0.007845
    13  C   -0.002325  -0.000535  -0.000607   0.004125  -0.007775   0.002352
    14  C   -0.000719  -0.000260  -0.000061   0.000509  -0.001564   0.001411
    15  C    0.000283   0.001025   0.000028  -0.000412   0.002510  -0.005338
    16  C    0.000375   0.000116  -0.000000   0.000094  -0.000145  -0.000750
    17  H   -0.001942   0.000477   0.005076  -0.000058  -0.004621   0.002835
    18  H   -0.004982   0.007169  -0.004520   0.004671  -0.002051   0.001448
    19  H   -0.007056   0.002184  -0.000033   0.009576  -0.009279   0.003422
    20  H   -0.000097  -0.003463   0.000517   0.000268   0.004153  -0.007042
    21  H   -0.000121  -0.003460   0.000527   0.000279   0.004202  -0.007038
    22  H    0.000283   0.000630   0.000102  -0.000246   0.000251  -0.000963
    23  H   -0.000002   0.000029   0.000028  -0.000240   0.000876  -0.000505
    24  H   -0.000003  -0.000003  -0.000001   0.000001  -0.000021   0.000026
    25  H   -0.000065  -0.000010  -0.000002   0.000003   0.000021   0.000033
    26  H    0.000007   0.000003  -0.000000   0.000001   0.000007  -0.000029
               7          8          9         10         11         12
     1  C   -0.086438  -0.004506   0.116983   0.001210   0.004083   0.002217
     2  C    0.017006   0.008707   0.002364  -0.001738  -0.005022   0.005351
     3  C    0.009782  -0.018655   0.001666   0.000456  -0.000496   0.000641
     4  C   -0.001586  -0.039544  -0.024764   0.001700   0.004471  -0.004698
     5  C    0.001867  -0.044978  -0.001941  -0.002655  -0.007989   0.010731
     6  C   -0.030842  -0.006454   0.002284   0.001223   0.006225  -0.007845
     7  O    0.352340  -0.000178  -0.019284  -0.000234  -0.005101   0.002657
     8  O   -0.000178   0.355658  -0.000171  -0.000053  -0.000155   0.000036
     9  C   -0.019284  -0.000171  -0.092329   0.000393  -0.011459   0.008305
    10  O   -0.000234  -0.000053   0.000393  -0.001474   0.000501  -0.000083
    11  C   -0.005101  -0.000155  -0.011459   0.000501   0.027829  -0.034087
    12  C    0.002657   0.000036   0.008305  -0.000083  -0.034087   0.015476
    13  C   -0.000119  -0.000038   0.000459   0.000357   0.012887  -0.022009
    14  C   -0.000043  -0.000012  -0.000701   0.000150  -0.000557   0.004179
    15  C    0.000460   0.000004   0.011337   0.000243   0.001989   0.013449
    16  C    0.000051   0.000000   0.002191   0.000288   0.003060   0.004779
    17  H   -0.000713   0.000199   0.000142  -0.000026   0.000161  -0.000154
    18  H    0.000292  -0.000502   0.000090   0.000009  -0.000047   0.000008
    19  H    0.000360  -0.000452   0.006856  -0.000518  -0.001373   0.000363
    20  H    0.004313  -0.000180  -0.003539   0.000121   0.002951  -0.001701
    21  H    0.004315  -0.000180  -0.003547   0.000120   0.002925  -0.001773
    22  H    0.000111   0.000005   0.002285   0.000061  -0.003413   0.003644
    23  H   -0.000004   0.000015  -0.000022  -0.000015  -0.000125   0.000314
    24  H   -0.000001  -0.000000   0.000005  -0.000001   0.000041  -0.000123
    25  H   -0.000009  -0.000000  -0.000168  -0.000026   0.000108  -0.000764
    26  H    0.000001   0.000000   0.000102   0.000014   0.000012   0.000379
              13         14         15         16         17         18
     1  C   -0.002325  -0.000719   0.000283   0.000375  -0.001942  -0.004982
     2  C   -0.000535  -0.000260   0.001025   0.000116   0.000477   0.007169
     3  C   -0.000607  -0.000061   0.000028  -0.000000   0.005076  -0.004520
     4  C    0.004125   0.000509  -0.000412   0.000094  -0.000058   0.004671
     5  C   -0.007775  -0.001564   0.002510  -0.000145  -0.004621  -0.002051
     6  C    0.002352   0.001411  -0.005338  -0.000750   0.002835   0.001448
     7  O   -0.000119  -0.000043   0.000460   0.000051  -0.000713   0.000292
     8  O   -0.000038  -0.000012   0.000004   0.000000   0.000199  -0.000502
     9  C    0.000459  -0.000701   0.011337   0.002191   0.000142   0.000090
    10  O    0.000357   0.000150   0.000243   0.000288  -0.000026   0.000009
    11  C    0.012887  -0.000557   0.001989   0.003060   0.000161  -0.000047
    12  C   -0.022009   0.004179   0.013449   0.004779  -0.000154   0.000008
    13  C    0.020537  -0.003999  -0.003523   0.002446   0.000041   0.000001
    14  C   -0.003999  -0.001260   0.001804   0.001262   0.000001   0.000001
    15  C   -0.003523   0.001804  -0.016226  -0.006378  -0.000015  -0.000000
    16  C    0.002446   0.001262  -0.006378  -0.007186  -0.000002   0.000000
    17  H    0.000041   0.000001  -0.000015  -0.000002  -0.010442   0.001624
    18  H    0.000001   0.000001  -0.000000   0.000000   0.001624  -0.011549
    19  H   -0.000335  -0.000484   0.000101  -0.000009  -0.000311   0.000301
    20  H    0.000657   0.000227  -0.000487  -0.000111   0.000035   0.000002
    21  H    0.000718   0.000234  -0.000479  -0.000115   0.000035   0.000002
    22  H   -0.001908   0.000340  -0.000686  -0.000639  -0.000012  -0.000002
    23  H   -0.000705   0.000313  -0.000039   0.000005   0.000001   0.000001
    24  H   -0.000069  -0.000104   0.000024   0.000262   0.000000  -0.000000
    25  H    0.000182  -0.000223   0.000426   0.000497   0.000000   0.000000
    26  H   -0.000053   0.000053  -0.000139  -0.000363  -0.000000  -0.000000
              19         20         21         22         23         24
     1  C   -0.007056  -0.000097  -0.000121   0.000283  -0.000002  -0.000003
     2  C    0.002184  -0.003463  -0.003460   0.000630   0.000029  -0.000003
     3  C   -0.000033   0.000517   0.000527   0.000102   0.000028  -0.000001
     4  C    0.009576   0.000268   0.000279  -0.000246  -0.000240   0.000001
     5  C   -0.009279   0.004153   0.004202   0.000251   0.000876  -0.000021
     6  C    0.003422  -0.007042  -0.007038  -0.000963  -0.000505   0.000026
     7  O    0.000360   0.004313   0.004315   0.000111  -0.000004  -0.000001
     8  O   -0.000452  -0.000180  -0.000180   0.000005   0.000015  -0.000000
     9  C    0.006856  -0.003539  -0.003547   0.002285  -0.000022   0.000005
    10  O   -0.000518   0.000121   0.000120   0.000061  -0.000015  -0.000001
    11  C   -0.001373   0.002951   0.002925  -0.003413  -0.000125   0.000041
    12  C    0.000363  -0.001701  -0.001773   0.003644   0.000314  -0.000123
    13  C   -0.000335   0.000657   0.000718  -0.001908  -0.000705  -0.000069
    14  C   -0.000484   0.000227   0.000234   0.000340   0.000313  -0.000104
    15  C    0.000101  -0.000487  -0.000479  -0.000686  -0.000039   0.000024
    16  C   -0.000009  -0.000111  -0.000115  -0.000639   0.000005   0.000262
    17  H   -0.000311   0.000035   0.000035  -0.000012   0.000001   0.000000
    18  H    0.000301   0.000002   0.000002  -0.000002   0.000001  -0.000000
    19  H   -0.011219   0.000089   0.000079   0.000021   0.000101  -0.000009
    20  H    0.000089   0.022834  -0.013465  -0.000152  -0.000026   0.000007
    21  H    0.000079  -0.013465   0.022822  -0.000149  -0.000022   0.000007
    22  H    0.000021  -0.000152  -0.000149   0.000225   0.000030   0.000003
    23  H    0.000101  -0.000026  -0.000022   0.000030   0.000025  -0.000009
    24  H   -0.000009   0.000007   0.000007   0.000003  -0.000009  -0.000048
    25  H   -0.000001   0.000015   0.000015   0.000014  -0.000003  -0.000011
    26  H    0.000001  -0.000003  -0.000003  -0.000013   0.000003   0.000013
              25         26
     1  C   -0.000065   0.000007
     2  C   -0.000010   0.000003
     3  C   -0.000002  -0.000000
     4  C    0.000003   0.000001
     5  C    0.000021   0.000007
     6  C    0.000033  -0.000029
     7  O   -0.000009   0.000001
     8  O   -0.000000   0.000000
     9  C   -0.000168   0.000102
    10  O   -0.000026   0.000014
    11  C    0.000108   0.000012
    12  C   -0.000764   0.000379
    13  C    0.000182  -0.000053
    14  C   -0.000223   0.000053
    15  C    0.000426  -0.000139
    16  C    0.000497  -0.000363
    17  H    0.000000  -0.000000
    18  H    0.000000  -0.000000
    19  H   -0.000001   0.000001
    20  H    0.000015  -0.000003
    21  H    0.000015  -0.000003
    22  H    0.000014  -0.000013
    23  H   -0.000003   0.000003
    24  H   -0.000011   0.000013
    25  H   -0.000066   0.000026
    26  H    0.000026  -0.000010
 Mulliken charges and spin densities:
               1          2
     1  C   -1.126181   0.026324
     2  C    0.193633   0.125423
     3  C    0.073139   0.099561
     4  C   -0.434725   0.143210
     5  C   -0.404732   0.033976
     6  C    0.637450   0.090368
     7  O   -0.483479   0.249001
     8  O   -0.502877   0.248564
     9  C   -0.111845  -0.002465
    10  O   -0.119406   0.000023
    11  C    0.434250  -0.002580
    12  C    0.028171  -0.000708
    13  C   -0.130551   0.000760
    14  C   -0.263690   0.000498
    15  C   -0.338704  -0.000039
    16  C   -0.389583  -0.000271
    17  H    0.183470  -0.007670
    18  H    0.188473  -0.008034
    19  H    0.180264  -0.007624
    20  H    0.228859   0.005924
    21  H    0.228924   0.005928
    22  H    0.171965  -0.000179
    23  H    0.178099   0.000023
    24  H    0.199977  -0.000014
    25  H    0.210835  -0.000009
    26  H    0.168263   0.000009
 Sum of Mulliken charges =  -1.00000   1.00000
 Mulliken charges and spin densities with hydrogens summed into heavy atoms:
               1          2
     1  C   -1.126181   0.026324
     2  C    0.377103   0.117754
     3  C    0.261612   0.091527
     4  C   -0.434725   0.143210
     5  C   -0.224468   0.026352
     6  C    0.637450   0.090368
     7  O   -0.483479   0.249001
     8  O   -0.502877   0.248564
     9  C    0.345938   0.009387
    10  O   -0.119406   0.000023
    11  C    0.434250  -0.002580
    12  C    0.200136  -0.000887
    13  C    0.047547   0.000783
    14  C   -0.063713   0.000483
    15  C   -0.127869  -0.000048
    16  C   -0.221319  -0.000262
 Electronic spatial extent (au):  <R**2>=           5020.2607
 Charge=             -1.0000 electrons
 Dipole moment (field-independent basis, Debye):
    X=            -12.6703    Y=              1.5888    Z=              0.0001  Tot=             12.7696
 Quadrupole moment (field-independent basis, Debye-Ang):
   XX=           -132.7870   YY=           -128.0013   ZZ=           -100.4433
   XY=             12.4242   XZ=              0.0013   YZ=              0.0034
 Traceless Quadrupole moment (field-independent basis, Debye-Ang):
   XX=            -12.3764   YY=             -7.5908   ZZ=             19.9672
   XY=             12.4242   XZ=              0.0013   YZ=              0.0034
 Octapole moment (field-independent basis, Debye-Ang**2):
  XXX=           -157.1728  YYY=             -5.8814  ZZZ=              0.0050  XYY=           -124.9783
  XXY=             72.1911  XXZ=             -0.0241  XZZ=              7.9988  YZZ=              1.3940
  YYZ=              0.0014  XYZ=             -0.0046
 Hexadecapole moment (field-independent basis, Debye-Ang**3):
 XXXX=          -5920.4799 YYYY=          -1438.9614 ZZZZ=           -124.9094 XXXY=            336.6052
 XXXZ=              0.0512 YYYX=             94.4840 YYYZ=              0.0231 ZZZX=             -0.0003
 ZZZY=              0.0010 XXYY=          -1426.1003 XXZZ=          -1089.2551 YYZZ=           -221.2756
 XXYZ=              0.0323 YYXZ=              0.0065 ZZXY=             -5.5756
 N-N= 9.648104833392D+02 E-N=-3.642810468859D+03  KE= 7.243988520027D+02
                          Isotropic Fermi Contact Couplings
        Atom                 a.u.       MegaHertz       Gauss      10(-4) cm-1
     1  C(13)             -0.00571      -6.41758      -2.28995      -2.14067
     2  C(13)             -0.00350      -3.93010      -1.40236      -1.31094
     3  C(13)             -0.00099      -1.10744      -0.39516      -0.36940
     4  C(13)             -0.00791      -8.89498      -3.17395      -2.96705
     5  C(13)             -0.00256      -2.88061      -1.02787      -0.96087
     6  C(13)             -0.00202      -2.27577      -0.81205      -0.75912
     7  O(17)              0.02546     -15.43440      -5.50738      -5.14836
     8  O(17)              0.02722     -16.50236      -5.88845      -5.50459
     9  C(13)             -0.00355      -3.99246      -1.42461      -1.33174
    10  O(17)             -0.00072       0.43854       0.15648       0.14628
    11  C(13)             -0.00010      -0.11119      -0.03968      -0.03709
    12  C(13)             -0.00003      -0.03214      -0.01147      -0.01072
    13  C(13)             -0.00003      -0.03105      -0.01108      -0.01036
    14  C(13)              0.00002       0.01727       0.00616       0.00576
    15  C(13)              0.00002       0.01738       0.00620       0.00580
    16  C(13)             -0.00002      -0.02254      -0.00804      -0.00752
    17  H(1)              -0.00128      -5.71814      -2.04038      -1.90737
    18  H(1)              -0.00163      -7.27439      -2.59568      -2.42648
    19  H(1)              -0.00129      -5.77047      -2.05905      -1.92482
    20  H(1)               0.00168       7.52684       2.68576       2.51068
    21  H(1)               0.00168       7.53026       2.68698       2.51182
    22  H(1)               0.00000       0.00885       0.00316       0.00295
    23  H(1)               0.00000       0.01202       0.00429       0.00401
    24  H(1)              -0.00000      -0.01580      -0.00564      -0.00527
    25  H(1)              -0.00000      -0.01253      -0.00447      -0.00418
    26  H(1)               0.00000       0.01119       0.00399       0.00373
 --------------------------------------------------------
       Center         ----  Spin Dipole Couplings  ----
                      3XX-RR        3YY-RR        3ZZ-RR
 --------------------------------------------------------
     1   Atom       -0.085308     -0.064793      0.150101
     2   Atom       -0.045221     -0.046517      0.091739
     3   Atom       -0.060439     -0.059381      0.119820
     4   Atom       -0.073869     -0.050265      0.124134
     5   Atom       -0.044074     -0.045682      0.089756
     6   Atom       -0.046970     -0.045310      0.092279
     7   Atom       -0.522197     -0.530895      1.053092
     8   Atom       -0.543022     -0.552747      1.095769
     9   Atom        0.005773     -0.001616     -0.004158
    10   Atom        0.003054     -0.000898     -0.002156
    11   Atom        0.001256     -0.000690     -0.000566
    12   Atom        0.001458     -0.000525     -0.000933
    13   Atom        0.001042     -0.000233     -0.000810
    14   Atom        0.000458     -0.000339     -0.000119
    15   Atom        0.000639     -0.000432     -0.000207
    16   Atom        0.000625     -0.000138     -0.000487
    17   Atom        0.005733     -0.001084     -0.004648
    18   Atom        0.012067     -0.007607     -0.004460
    19   Atom        0.005645     -0.001218     -0.004427
    20   Atom        0.004785     -0.001738     -0.003048
    21   Atom        0.004782     -0.001737     -0.003045
    22   Atom        0.001811     -0.000816     -0.000995
    23   Atom        0.000890     -0.000248     -0.000643
    24   Atom        0.000405     -0.000153     -0.000252
    25   Atom        0.000580     -0.000258     -0.000322
    26   Atom        0.000365     -0.000162     -0.000203
 --------------------------------------------------------
                        XY            XZ            YZ
 --------------------------------------------------------
     1   Atom       -0.008297      0.000056      0.000021
     2   Atom       -0.001521      0.000031      0.000017
     3   Atom        0.000992      0.000042      0.000019
     4   Atom       -0.007745      0.000057      0.000021
     5   Atom       -0.000860      0.000038      0.000029
     6   Atom        0.001114      0.000025      0.000029
     7   Atom        0.004153      0.000334      0.000108
     8   Atom        0.003566      0.000457      0.000218
     9   Atom        0.002241     -0.000003     -0.000001
    10   Atom        0.000857      0.000001      0.000002
    11   Atom        0.000415     -0.000000     -0.000000
    12   Atom       -0.000002     -0.000000      0.000000
    13   Atom        0.000381      0.000000      0.000000
    14   Atom        0.000202      0.000000     -0.000000
    15   Atom       -0.000040     -0.000000     -0.000000
    16   Atom        0.000066      0.000000      0.000000
    17   Atom        0.007721     -0.000004     -0.000002
    18   Atom        0.000215     -0.000004      0.000000
    19   Atom        0.007376     -0.000004     -0.000003
    20   Atom        0.000245      0.002616      0.000277
    21   Atom        0.000244     -0.002619     -0.000277
    22   Atom       -0.000366     -0.000000      0.000000
    23   Atom        0.000569      0.000000      0.000000
    24   Atom        0.000202      0.000000      0.000000
    25   Atom       -0.000141     -0.000000      0.000000
    26   Atom        0.000036      0.000000      0.000000
 --------------------------------------------------------


 ---------------------------------------------------------------------------------
              Anisotropic Spin Dipole Couplings in Principal Axis System
 ---------------------------------------------------------------------------------

       Atom             a.u.   MegaHertz   Gauss  10(-4) cm-1        Axes

              Baa    -0.0882   -11.841    -4.225    -3.950  0.9427  0.3335 -0.0002
     1 C(13)  Bbb    -0.0619    -8.301    -2.962    -2.769 -0.3335  0.9427 -0.0000
              Bcc     0.1501    20.142     7.187     6.719  0.0002  0.0001  1.0000
 
              Baa    -0.0475    -6.377    -2.276    -2.127  0.5514  0.8343 -0.0002
     2 C(13)  Bbb    -0.0442    -5.933    -2.117    -1.979  0.8343 -0.5514 -0.0001
              Bcc     0.0917    12.310     4.393     4.106  0.0002  0.0001  1.0000
 
              Baa    -0.0610    -8.190    -2.922    -2.732  0.8575 -0.5145 -0.0001
     3 C(13)  Bbb    -0.0588    -7.889    -2.815    -2.631  0.5145  0.8575 -0.0002
              Bcc     0.1198    16.079     5.737     5.363  0.0002  0.0001  1.0000
 
              Baa    -0.0762   -10.223    -3.648    -3.410  0.9581  0.2863 -0.0003
     4 C(13)  Bbb    -0.0480    -6.435    -2.296    -2.146 -0.2863  0.9581 -0.0000
              Bcc     0.1241    16.658     5.944     5.556  0.0003  0.0001  1.0000
 
              Baa    -0.0461    -6.180    -2.205    -2.061  0.3981  0.9173 -0.0003
     5 C(13)  Bbb    -0.0437    -5.864    -2.093    -1.956  0.9173 -0.3981 -0.0002
              Bcc     0.0898    12.044     4.298     4.018  0.0003  0.0002  1.0000
 
              Baa    -0.0475    -6.378    -2.276    -2.127  0.8937 -0.4486 -0.0001
     6 C(13)  Bbb    -0.0448    -6.005    -2.143    -2.003  0.4486  0.8937 -0.0003
              Bcc     0.0923    12.383     4.419     4.131  0.0002  0.0002  1.0000
 
              Baa    -0.5326    38.536    13.750    12.854 -0.3720  0.9282  0.0000
     7 O(17)  Bbb    -0.5205    37.665    13.440    12.564  0.9282  0.3720 -0.0002
              Bcc     1.0531   -76.201   -27.190   -25.418  0.0002  0.0001  1.0000
 
              Baa    -0.5539    40.081    14.302    13.370 -0.3111  0.9504 -0.0000
     8 O(17)  Bbb    -0.5419    39.208    13.990    13.078  0.9504  0.3111 -0.0003
              Bcc     1.0958   -79.289   -28.292   -26.448  0.0003  0.0001  1.0000
 
              Baa    -0.0042    -0.558    -0.199    -0.186  0.0002  0.0001  1.0000
     9 C(13)  Bbb    -0.0022    -0.301    -0.107    -0.100 -0.2692  0.9631 -0.0000
              Bcc     0.0064     0.859     0.306     0.286  0.9631  0.2692 -0.0002
 
              Baa    -0.0022     0.156     0.056     0.052  0.0001 -0.0015  1.0000
    10 O(17)  Bbb    -0.0011     0.078     0.028     0.026 -0.2031  0.9792  0.0015
              Bcc     0.0032    -0.234    -0.083    -0.078  0.9792  0.2031  0.0002
 
              Baa    -0.0008    -0.104    -0.037    -0.035 -0.2001  0.9798  0.0003
    11 C(13)  Bbb    -0.0006    -0.076    -0.027    -0.025  0.0003 -0.0003  1.0000
              Bcc     0.0013     0.180     0.064     0.060  0.9798  0.2001 -0.0002
 
              Baa    -0.0009    -0.125    -0.045    -0.042  0.0000 -0.0001  1.0000
    12 C(13)  Bbb    -0.0005    -0.070    -0.025    -0.024  0.0012  1.0000  0.0001
              Bcc     0.0015     0.196     0.070     0.065  1.0000 -0.0012 -0.0000
 
              Baa    -0.0008    -0.109    -0.039    -0.036 -0.0000 -0.0001  1.0000
    13 C(13)  Bbb    -0.0003    -0.045    -0.016    -0.015 -0.2660  0.9640  0.0001
              Bcc     0.0011     0.154     0.055     0.051  0.9640  0.2660  0.0001
 
              Baa    -0.0004    -0.052    -0.019    -0.017 -0.2319  0.9727  0.0002
    14 C(13)  Bbb    -0.0001    -0.016    -0.006    -0.005  0.0000 -0.0002  1.0000
              Bcc     0.0005     0.068     0.024     0.023  0.9727  0.2319 -0.0000
 
              Baa    -0.0004    -0.058    -0.021    -0.019  0.0377  0.9993  0.0003
    15 C(13)  Bbb    -0.0002    -0.028    -0.010    -0.009  0.0001 -0.0003  1.0000
              Bcc     0.0006     0.086     0.031     0.029  0.9993 -0.0377 -0.0001
 
              Baa    -0.0005    -0.065    -0.023    -0.022 -0.0001 -0.0001  1.0000
    16 C(13)  Bbb    -0.0001    -0.019    -0.007    -0.006 -0.0853  0.9964  0.0001
              Bcc     0.0006     0.085     0.030     0.028  0.9964  0.0853  0.0001
 
              Baa    -0.0061    -3.263    -1.164    -1.088 -0.5460  0.8378  0.0000
    17 H(1)   Bbb    -0.0046    -2.480    -0.885    -0.827  0.0002  0.0001  1.0000
              Bcc     0.0108     5.743     2.049     1.916  0.8378  0.5460 -0.0003
 
              Baa    -0.0076    -4.060    -1.449    -1.354 -0.0109  0.9999 -0.0001
    18 H(1)   Bbb    -0.0045    -2.380    -0.849    -0.794  0.0003  0.0001  1.0000
              Bcc     0.0121     6.440     2.298     2.148  0.9999  0.0109 -0.0003
 
              Baa    -0.0059    -3.159    -1.127    -1.054 -0.5377  0.8432 -0.0001
    19 H(1)   Bbb    -0.0044    -2.362    -0.843    -0.788  0.0002  0.0002  1.0000
              Bcc     0.0103     5.522     1.970     1.842  0.8432  0.5377 -0.0003
 
              Baa    -0.0039    -2.059    -0.735    -0.687 -0.2861 -0.0916  0.9538
    20 H(1)   Bbb    -0.0017    -0.925    -0.330    -0.308 -0.0676  0.9949  0.0753
              Bcc     0.0056     2.984     1.065     0.995  0.9558  0.0429  0.2908
 
              Baa    -0.0039    -2.059    -0.735    -0.687  0.2865  0.0918  0.9537
    21 H(1)   Bbb    -0.0017    -0.925    -0.330    -0.308 -0.0676  0.9949 -0.0754
              Bcc     0.0056     2.983     1.065     0.995  0.9557  0.0429 -0.2912
 
              Baa    -0.0010    -0.531    -0.189    -0.177  0.0002  0.0003  1.0000
    22 H(1)   Bbb    -0.0009    -0.462    -0.165    -0.154  0.1354  0.9908 -0.0003
              Bcc     0.0019     0.993     0.354     0.331  0.9908 -0.1354 -0.0001
 
              Baa    -0.0006    -0.343    -0.122    -0.114 -0.0000  0.0000  1.0000
    23 H(1)   Bbb    -0.0005    -0.258    -0.092    -0.086 -0.3827  0.9239 -0.0000
              Bcc     0.0011     0.601     0.214     0.200  0.9239  0.3827  0.0000
 
              Baa    -0.0003    -0.135    -0.048    -0.045 -0.0001 -0.0000  1.0000
    24 H(1)   Bbb    -0.0002    -0.117    -0.042    -0.039 -0.3084  0.9513 -0.0000
              Bcc     0.0005     0.251     0.090     0.084  0.9513  0.3084  0.0001
 
              Baa    -0.0003    -0.172    -0.061    -0.057  0.0000  0.0001  1.0000
    25 H(1)   Bbb    -0.0003    -0.150    -0.054    -0.050  0.1612  0.9869 -0.0001
              Bcc     0.0006     0.322     0.115     0.107  0.9869 -0.1612 -0.0000
 
              Baa    -0.0002    -0.108    -0.039    -0.036 -0.0001 -0.0001  1.0000
    26 H(1)   Bbb    -0.0002    -0.088    -0.031    -0.029 -0.0677  0.9977  0.0001
              Bcc     0.0004     0.196     0.070     0.065  0.9977  0.0677  0.0001
 

 ---------------------------------------------------------------------------------

 No NMR shielding tensors so no spin-rotation constants.
 Leave Link  601 at Wed Jan 24 22:50:49 2024, MaxMem=  4026531840 cpu:               3.0 elap:               0.5
 (Enter /sysapps/ubuntu-applications/gaussian/Gaussian/AVX2/g16/l9999.exe)
 1\1\GINC-ACIDSCN019\SP\UB3LYP\6-311++G(d,p)\C13H10O3(1-,2)\SELHAJJ1\24
 -Jan-2024\0\\#P UB3LYP/6-311++G(d,p) SCRF=(PCM,Solvent=n,n-DiMethylFor
 mamide)\\Radical PCM in DMF\\-1,2\C,0,-1.353369,-2.033476,1.159244\C,0
 ,-1.414477,-1.997914,-0.282927\C,0,-0.779538,-1.034255,-1.021177\C,0,0
 .000596,0.020752,-0.406703\C,0,0.063221,-0.013146,1.042286\C,0,-0.5704
 19,-0.975312,1.783352\O,0,-1.935548,-2.918764,1.857077\O,0,0.588113,0.
 912062,-1.0852\C,0,-0.529635,-1.044839,3.28412\O,0,0.25967,0.028738,3.
 825073\C,0,0.404133,0.119443,5.164036\C,0,-0.162968,-0.764034,6.094247
 \C,0,1.187448,1.1906,5.62743\C,0,1.396775,1.37128,6.986944\C,0,0.05816
 1,-0.567076,7.459163\C,0,0.833536,0.493084,7.918623\H,0,-1.995705,-2.7
 82258,-0.760603\H,0,-0.83905,-1.026729,-2.10621\H,0,0.641412,0.766583,
 1.52513\H,0,-0.109258,-2.006155,3.603071\H,0,-1.547363,-0.99225,3.6891
 45\H,0,-0.769396,-1.59565,5.763357\H,0,1.617694,1.863128,4.894703\H,0,
 2.004768,2.204438,7.324714\H,0,-0.387294,-1.259098,8.166751\H,0,0.9984
 22,0.636137,8.980621\\Version=ES64L-G16RevA.03\State=2-A\HF=-727.39431
 64\S2=0.759409\S2-1=0.\S2A=0.750031\RMSD=8.686e-09\Dipole=0.5792782,0.
 3984,4.9744976\Quadrupole=9.7601408,3.6761431,-13.4362839,-7.4712317,2
 .9964392,6.6573884\PG=C01 [X(C13H10O3)]\\@


 "PERFECTION IS NOT AN ACCIDENT"
         --  EAGLE ELECTRIC MANUFACTURING CO.,INC. NY
 Job cpu time:       0 days  0 hours 23 minutes 42.4 seconds.
 Elapsed time:       0 days  0 hours  3 minutes  0.7 seconds.
 File lengths (MBytes):  RWF=    258 Int=      0 D2E=      0 Chk=     14 Scr=      1
 Normal termination of Gaussian 16 at Wed Jan 24 22:50:49 2024.
