 Entering Gaussian System, Link 0=g16
 Input=334.com
 Output=334.log
 Initial command:
 /sysapps/ubuntu-applications/gaussian/Gaussian/AVX2/g16/l1.exe "/scratch/selhajj1/4255308/Gau-2799565.inp" -scrdir="/scratch/selhajj1/4255308/"
 Entering Link 1 = /sysapps/ubuntu-applications/gaussian/Gaussian/AVX2/g16/l1.exe PID=   2799576.
  
 Copyright (c) 1988,1990,1992,1993,1995,1998,2003,2009,2016,
            Gaussian, Inc.  All Rights Reserved.
  
 This is part of the Gaussian(R) 16 program.  It is based on
 the Gaussian(R) 09 system (copyright 2009, Gaussian, Inc.),
 the Gaussian(R) 03 system (copyright 2003, Gaussian, Inc.),
 the Gaussian(R) 98 system (copyright 1998, Gaussian, Inc.),
 the Gaussian(R) 94 system (copyright 1995, Gaussian, Inc.),
 the Gaussian 92(TM) system (copyright 1992, Gaussian, Inc.),
 the Gaussian 90(TM) system (copyright 1990, Gaussian, Inc.),
 the Gaussian 88(TM) system (copyright 1988, Gaussian, Inc.),
 the Gaussian 86(TM) system (copyright 1986, Carnegie Mellon
 University), and the Gaussian 82(TM) system (copyright 1983,
 Carnegie Mellon University). Gaussian is a federally registered
 trademark of Gaussian, Inc.
  
 This software contains proprietary and confidential information,
 including trade secrets, belonging to Gaussian, Inc.
  
 This software is provided under written license and may be
 used, copied, transmitted, or stored only in accord with that
 written license.
  
 The following legend is applicable only to US Government
 contracts under FAR:
  
                    RESTRICTED RIGHTS LEGEND
  
 Use, reproduction and disclosure by the US Government is
 subject to restrictions as set forth in subparagraphs (a)
 and (c) of the Commercial Computer Software - Restricted
 Rights clause in FAR 52.227-19.
  
 Gaussian, Inc.
 340 Quinnipiac St., Bldg. 40, Wallingford CT 06492
  
  
 ---------------------------------------------------------------
 Warning -- This program may not be used in any manner that
 competes with the business of Gaussian, Inc. or will provide
 assistance to any competitor of Gaussian, Inc.  The licensee
 of this program is prohibited from giving any competitor of
 Gaussian, Inc. access to this program.  By using this program,
 the user acknowledges that Gaussian, Inc. is engaged in the
 business of creating and licensing software in the field of
 computational chemistry and represents and warrants to the
 licensee that it is not a competitor of Gaussian, Inc. and that
 it will not use this program in any manner prohibited above.
 ---------------------------------------------------------------
  

 Cite this work as:
 Gaussian 16, Revision A.03,
 M. J. Frisch, G. W. Trucks, H. B. Schlegel, G. E. Scuseria, 
 M. A. Robb, J. R. Cheeseman, G. Scalmani, V. Barone, 
 G. A. Petersson, H. Nakatsuji, X. Li, M. Caricato, A. V. Marenich, 
 J. Bloino, B. G. Janesko, R. Gomperts, B. Mennucci, H. P. Hratchian, 
 J. V. Ortiz, A. F. Izmaylov, J. L. Sonnenberg, D. Williams-Young, 
 F. Ding, F. Lipparini, F. Egidi, J. Goings, B. Peng, A. Petrone, 
 T. Henderson, D. Ranasinghe, V. G. Zakrzewski, J. Gao, N. Rega, 
 G. Zheng, W. Liang, M. Hada, M. Ehara, K. Toyota, R. Fukuda, 
 J. Hasegawa, M. Ishida, T. Nakajima, Y. Honda, O. Kitao, H. Nakai, 
 T. Vreven, K. Throssell, J. A. Montgomery, Jr., J. E. Peralta, 
 F. Ogliaro, M. J. Bearpark, J. J. Heyd, E. N. Brothers, K. N. Kudin, 
 V. N. Staroverov, T. A. Keith, R. Kobayashi, J. Normand, 
 K. Raghavachari, A. P. Rendell, J. C. Burant, S. S. Iyengar, 
 J. Tomasi, M. Cossi, J. M. Millam, M. Klene, C. Adamo, R. Cammi, 
 J. W. Ochterski, R. L. Martin, K. Morokuma, O. Farkas, 
 J. B. Foresman, and D. J. Fox, Gaussian, Inc., Wallingford CT, 2016.
 
 ******************************************
 Gaussian 16:  ES64L-G16RevA.03 25-Dec-2016
                 6-Jan-2024 
 ******************************************
 %chk=334.chk
 %nproc=8
 Will use up to    8 processors via shared memory.
 %mem=30GB
 --------------------------------------
 #P UB3LYP/6-311++G(d,p) nosym opt freq
 --------------------------------------
 1/18=20,19=15,26=3,38=1/1,3;
 2/9=110,12=2,15=1,17=6,18=5,40=1/2;
 3/5=4,6=6,7=1111,11=2,25=1,30=1,71=1,74=-5,116=2/1,2,3;
 4//1;
 5/5=2,38=5/2;
 6/7=2,8=2,9=2,10=2,28=1/1;
 7/30=1/1,2,3,16;
 1/18=20,19=15,26=3/3(2);
 2/9=110,15=1/2;
 99//99;
 2/9=110,15=1/2;
 3/5=4,6=6,7=1111,11=2,25=1,30=1,71=1,74=-5,116=2/1,2,3;
 4/5=5,16=3,69=1/1;
 5/5=2,38=5/2;
 7/30=1/1,2,3,16;
 1/18=20,19=15,26=3/3(-5);
 2/9=110,15=1/2;
 6/7=2,8=2,9=2,10=2,19=2,28=1/1;
 99/9=1/99;
 Leave Link    1 at Sat Jan  6 01:35:21 2024, MaxMem=  4026531840 cpu:               1.4 elap:               0.2
 (Enter /sysapps/ubuntu-applications/gaussian/Gaussian/AVX2/g16/l101.exe)
 --------
 Oxidized
 --------
 Symbolic Z-matrix:
 Charge =  0 Multiplicity = 1
 C                    -1.0294    0.68652  -2.84728 
 C                    -1.88958   1.15294  -1.72654 
 C                     0.43311   0.70169  -2.57457 
 C                     0.86476   0.65246  -1.29751 
 C                    -0.15315   0.34082  -0.26348 
 C                    -1.41515   1.09526  -0.46513 
 C                     0.0152   -0.61551   0.7067 
 C                    -0.99736  -0.91819   1.74426 
 C                     1.27889  -1.35935   0.91464 
 C                    -0.5659   -0.94529   3.02126 
 C                     1.75924  -1.39594   2.17384 
 C                     0.8981   -0.91825   3.29045 
 O                    -1.47943   0.46655  -3.96285 
 O                     1.34924  -0.68062   4.40193 
 C                     2.28813   1.00203  -0.92587 
 C                     2.65315   2.44947  -1.28804 
 C                     4.0804    2.78472  -0.85178 
 C                     4.4542    4.21232  -1.21714 
 C                     1.93769  -2.13269  -0.2043 
 C                     1.8248   -3.65081  -0.00272 
 C                     2.4668   -4.4116   -1.16396 
 C                     2.37168  -5.91582  -0.96531 
 C                    -2.41728  -1.28889   1.38306 
 C                    -2.71103  -2.7733    1.64422 
 C                    -4.14113  -3.13321   1.23845 
 C                    -4.44448  -4.59864   1.50617 
 C                    -2.07517   1.849     0.66738 
 C                    -2.07861   3.36825   0.4408 
 C                    -2.70514   4.10213   1.62765 
 C                    -2.7227    5.60618   1.40682 
 H                    -2.8195    1.63216  -2.00292 
 H                     1.07799   0.87507  -3.42596 
 H                    -1.20886  -1.11474   3.87493 
 H                     2.6906   -1.87029   2.45386 
 H                     2.97559   0.31394  -1.43267 
 H                     2.45199   0.88315   0.15001 
 H                     1.95018   3.1397   -0.80456 
 H                     2.56284   2.60381  -2.37015 
 H                     4.78665   2.09483  -1.32795 
 H                     4.17907   2.65361   0.23204 
 H                     4.39922   4.36754  -2.29936 
 H                     5.47702   4.43077  -0.89476 
 H                     3.78461   4.92973  -0.73245 
 H                     2.99548  -1.84891  -0.2684 
 H                     1.48652  -1.89326  -1.17195 
 H                     0.76824  -3.93503   0.08216 
 H                     2.31295  -3.94505   0.9345 
 H                     3.52118  -4.12709  -1.25745 
 H                     1.9729   -4.14116  -2.10443 
 H                     2.88679  -6.22404  -0.04993 
 H                     2.83462  -6.4395   -1.80753 
 H                     1.32781  -6.23768  -0.89741 
 H                    -2.6232   -1.09196   0.32669 
 H                    -3.11321  -0.66965   1.9626 
 H                    -2.56859  -3.00555   2.70679 
 H                    -2.00296  -3.39495   1.08162 
 H                    -4.2894   -2.92425   0.17265 
 H                    -4.853    -2.5113    1.79333 
 H                    -3.76829  -5.24893   0.94242 
 H                    -5.47054  -4.83423   1.20689 
 H                    -4.33932  -4.83303   2.57026 
 H                    -1.56005   1.66119   1.61494 
 H                    -3.10624   1.49487   0.7876 
 H                    -2.63827   3.6145   -0.46974 
 H                    -1.05038   3.72187   0.29231 
 H                    -2.14287   3.87978   2.542 
 H                    -3.73118   3.74938   1.78354 
 H                    -1.7081    5.99574   1.27714 
 H                    -3.17289   6.11051   2.26752 
 H                    -3.30681   5.86542   0.51804 
 
 ITRead=  0  0  0  0  0  0  0  0  0  0  0  0  0  0  0  0  0  0  0  0
 ITRead=  0  0  0  0  0  0  0  0  0  0  0  0  0  0  0  0  0  0  0  0
 ITRead=  0  0  0  0  0  0  0  0  0  0  0  0  0  0  0  0  0  0  0  0
 ITRead=  0  0  0  0  0  0  0  0  0  0
 MicOpt= -1 -1 -1 -1 -1 -1 -1 -1 -1 -1 -1 -1 -1 -1 -1 -1 -1 -1 -1 -1
 MicOpt= -1 -1 -1 -1 -1 -1 -1 -1 -1 -1 -1 -1 -1 -1 -1 -1 -1 -1 -1 -1
 MicOpt= -1 -1 -1 -1 -1 -1 -1 -1 -1 -1 -1 -1 -1 -1 -1 -1 -1 -1 -1 -1
 MicOpt= -1 -1 -1 -1 -1 -1 -1 -1 -1 -1
 NAtoms=     70 NQM=       70 NQMF=       0 NMMI=      0 NMMIF=      0
                NMic=       0 NMicF=      0.
                    Isotopes and Nuclear Properties:
 (Nuclear quadrupole moments (NQMom) in fm**2, nuclear magnetic moments (NMagM)
  in nuclear magnetons)

  Atom         1           2           3           4           5           6           7           8           9          10
 IAtWgt=          12          12          12          12          12          12          12          12          12          12
 AtmWgt=  12.0000000  12.0000000  12.0000000  12.0000000  12.0000000  12.0000000  12.0000000  12.0000000  12.0000000  12.0000000
 NucSpn=           0           0           0           0           0           0           0           0           0           0
 AtZEff=  -0.0000000  -0.0000000  -0.0000000  -0.0000000  -0.0000000  -0.0000000  -0.0000000  -0.0000000  -0.0000000  -0.0000000
 NQMom=    0.0000000   0.0000000   0.0000000   0.0000000   0.0000000   0.0000000   0.0000000   0.0000000   0.0000000   0.0000000
 NMagM=    0.0000000   0.0000000   0.0000000   0.0000000   0.0000000   0.0000000   0.0000000   0.0000000   0.0000000   0.0000000
 AtZNuc=   6.0000000   6.0000000   6.0000000   6.0000000   6.0000000   6.0000000   6.0000000   6.0000000   6.0000000   6.0000000

  Atom        11          12          13          14          15          16          17          18          19          20
 IAtWgt=          12          12          16          16          12          12          12          12          12          12
 AtmWgt=  12.0000000  12.0000000  15.9949146  15.9949146  12.0000000  12.0000000  12.0000000  12.0000000  12.0000000  12.0000000
 NucSpn=           0           0           0           0           0           0           0           0           0           0
 AtZEff=  -0.0000000  -0.0000000  -0.0000000  -0.0000000  -0.0000000  -0.0000000  -0.0000000  -0.0000000  -0.0000000  -0.0000000
 NQMom=    0.0000000   0.0000000   0.0000000   0.0000000   0.0000000   0.0000000   0.0000000   0.0000000   0.0000000   0.0000000
 NMagM=    0.0000000   0.0000000   0.0000000   0.0000000   0.0000000   0.0000000   0.0000000   0.0000000   0.0000000   0.0000000
 AtZNuc=   6.0000000   6.0000000   8.0000000   8.0000000   6.0000000   6.0000000   6.0000000   6.0000000   6.0000000   6.0000000

  Atom        21          22          23          24          25          26          27          28          29          30
 IAtWgt=          12          12          12          12          12          12          12          12          12          12
 AtmWgt=  12.0000000  12.0000000  12.0000000  12.0000000  12.0000000  12.0000000  12.0000000  12.0000000  12.0000000  12.0000000
 NucSpn=           0           0           0           0           0           0           0           0           0           0
 AtZEff=  -0.0000000  -0.0000000  -0.0000000  -0.0000000  -0.0000000  -0.0000000  -0.0000000  -0.0000000  -0.0000000  -0.0000000
 NQMom=    0.0000000   0.0000000   0.0000000   0.0000000   0.0000000   0.0000000   0.0000000   0.0000000   0.0000000   0.0000000
 NMagM=    0.0000000   0.0000000   0.0000000   0.0000000   0.0000000   0.0000000   0.0000000   0.0000000   0.0000000   0.0000000
 AtZNuc=   6.0000000   6.0000000   6.0000000   6.0000000   6.0000000   6.0000000   6.0000000   6.0000000   6.0000000   6.0000000

  Atom        31          32          33          34          35          36          37          38          39          40
 IAtWgt=           1           1           1           1           1           1           1           1           1           1
 AtmWgt=   1.0078250   1.0078250   1.0078250   1.0078250   1.0078250   1.0078250   1.0078250   1.0078250   1.0078250   1.0078250
 NucSpn=           1           1           1           1           1           1           1           1           1           1
 AtZEff=  -0.0000000  -0.0000000  -0.0000000  -0.0000000  -0.0000000  -0.0000000  -0.0000000  -0.0000000  -0.0000000  -0.0000000
 NQMom=    0.0000000   0.0000000   0.0000000   0.0000000   0.0000000   0.0000000   0.0000000   0.0000000   0.0000000   0.0000000
 NMagM=    2.7928460   2.7928460   2.7928460   2.7928460   2.7928460   2.7928460   2.7928460   2.7928460   2.7928460   2.7928460
 AtZNuc=   1.0000000   1.0000000   1.0000000   1.0000000   1.0000000   1.0000000   1.0000000   1.0000000   1.0000000   1.0000000

  Atom        41          42          43          44          45          46          47          48          49          50
 IAtWgt=           1           1           1           1           1           1           1           1           1           1
 AtmWgt=   1.0078250   1.0078250   1.0078250   1.0078250   1.0078250   1.0078250   1.0078250   1.0078250   1.0078250   1.0078250
 NucSpn=           1           1           1           1           1           1           1           1           1           1
 AtZEff=  -0.0000000  -0.0000000  -0.0000000  -0.0000000  -0.0000000  -0.0000000  -0.0000000  -0.0000000  -0.0000000  -0.0000000
 NQMom=    0.0000000   0.0000000   0.0000000   0.0000000   0.0000000   0.0000000   0.0000000   0.0000000   0.0000000   0.0000000
 NMagM=    2.7928460   2.7928460   2.7928460   2.7928460   2.7928460   2.7928460   2.7928460   2.7928460   2.7928460   2.7928460
 AtZNuc=   1.0000000   1.0000000   1.0000000   1.0000000   1.0000000   1.0000000   1.0000000   1.0000000   1.0000000   1.0000000

  Atom        51          52          53          54          55          56          57          58          59          60
 IAtWgt=           1           1           1           1           1           1           1           1           1           1
 AtmWgt=   1.0078250   1.0078250   1.0078250   1.0078250   1.0078250   1.0078250   1.0078250   1.0078250   1.0078250   1.0078250
 NucSpn=           1           1           1           1           1           1           1           1           1           1
 AtZEff=  -0.0000000  -0.0000000  -0.0000000  -0.0000000  -0.0000000  -0.0000000  -0.0000000  -0.0000000  -0.0000000  -0.0000000
 NQMom=    0.0000000   0.0000000   0.0000000   0.0000000   0.0000000   0.0000000   0.0000000   0.0000000   0.0000000   0.0000000
 NMagM=    2.7928460   2.7928460   2.7928460   2.7928460   2.7928460   2.7928460   2.7928460   2.7928460   2.7928460   2.7928460
 AtZNuc=   1.0000000   1.0000000   1.0000000   1.0000000   1.0000000   1.0000000   1.0000000   1.0000000   1.0000000   1.0000000

  Atom        61          62          63          64          65          66          67          68          69          70
 IAtWgt=           1           1           1           1           1           1           1           1           1           1
 AtmWgt=   1.0078250   1.0078250   1.0078250   1.0078250   1.0078250   1.0078250   1.0078250   1.0078250   1.0078250   1.0078250
 NucSpn=           1           1           1           1           1           1           1           1           1           1
 AtZEff=  -0.0000000  -0.0000000  -0.0000000  -0.0000000  -0.0000000  -0.0000000  -0.0000000  -0.0000000  -0.0000000  -0.0000000
 NQMom=    0.0000000   0.0000000   0.0000000   0.0000000   0.0000000   0.0000000   0.0000000   0.0000000   0.0000000   0.0000000
 NMagM=    2.7928460   2.7928460   2.7928460   2.7928460   2.7928460   2.7928460   2.7928460   2.7928460   2.7928460   2.7928460
 AtZNuc=   1.0000000   1.0000000   1.0000000   1.0000000   1.0000000   1.0000000   1.0000000   1.0000000   1.0000000   1.0000000
 Leave Link  101 at Sat Jan  6 01:35:22 2024, MaxMem=  4026531840 cpu:               6.3 elap:               0.9
 (Enter /sysapps/ubuntu-applications/gaussian/Gaussian/AVX2/g16/l103.exe)

 GradGradGradGradGradGradGradGradGradGradGradGradGradGradGradGradGradGrad
 Berny optimization.
 Initialization pass.
                           ----------------------------
                           !    Initial Parameters    !
                           ! (Angstroms and Degrees)  !
 --------------------------                            --------------------------
 ! Name  Definition              Value          Derivative Info.                !
 --------------------------------------------------------------------------------
 ! R1    R(1,2)                  1.4878         estimate D2E/DX2                !
 ! R2    R(1,3)                  1.4878         estimate D2E/DX2                !
 ! R3    R(1,13)                 1.2229         estimate D2E/DX2                !
 ! R4    R(2,6)                  1.3489         estimate D2E/DX2                !
 ! R5    R(2,31)                 1.082          estimate D2E/DX2                !
 ! R6    R(3,4)                  1.3489         estimate D2E/DX2                !
 ! R7    R(3,32)                 1.082          estimate D2E/DX2                !
 ! R8    R(4,5)                  1.4841         estimate D2E/DX2                !
 ! R9    R(4,15)                 1.5121         estimate D2E/DX2                !
 ! R10   R(5,6)                  1.4841         estimate D2E/DX2                !
 ! R11   R(5,7)                  1.3726         estimate D2E/DX2                !
 ! R12   R(6,27)                 1.5121         estimate D2E/DX2                !
 ! R13   R(7,8)                  1.481          estimate D2E/DX2                !
 ! R14   R(7,9)                  1.481          estimate D2E/DX2                !
 ! R15   R(8,10)                 1.3482         estimate D2E/DX2                !
 ! R16   R(8,23)                 1.5113         estimate D2E/DX2                !
 ! R17   R(9,11)                 1.3482         estimate D2E/DX2                !
 ! R18   R(9,19)                 1.5113         estimate D2E/DX2                !
 ! R19   R(10,12)                1.4888         estimate D2E/DX2                !
 ! R20   R(10,33)                1.0821         estimate D2E/DX2                !
 ! R21   R(11,12)                1.4888         estimate D2E/DX2                !
 ! R22   R(11,34)                1.0821         estimate D2E/DX2                !
 ! R23   R(12,14)                1.2229         estimate D2E/DX2                !
 ! R24   R(15,16)                1.5361         estimate D2E/DX2                !
 ! R25   R(15,35)                1.0968         estimate D2E/DX2                !
 ! R26   R(15,36)                1.0948         estimate D2E/DX2                !
 ! R27   R(16,17)                1.5296         estimate D2E/DX2                !
 ! R28   R(16,37)                1.0974         estimate D2E/DX2                !
 ! R29   R(16,38)                1.0968         estimate D2E/DX2                !
 ! R30   R(17,18)                1.5203         estimate D2E/DX2                !
 ! R31   R(17,39)                1.0961         estimate D2E/DX2                !
 ! R32   R(17,40)                1.0962         estimate D2E/DX2                !
 ! R33   R(18,41)                1.0947         estimate D2E/DX2                !
 ! R34   R(18,42)                1.0944         estimate D2E/DX2                !
 ! R35   R(18,43)                1.0945         estimate D2E/DX2                !
 ! R36   R(19,20)                1.5356         estimate D2E/DX2                !
 ! R37   R(19,44)                1.0971         estimate D2E/DX2                !
 ! R38   R(19,45)                1.0942         estimate D2E/DX2                !
 ! R39   R(20,21)                1.5295         estimate D2E/DX2                !
 ! R40   R(20,46)                1.0974         estimate D2E/DX2                !
 ! R41   R(20,47)                1.0969         estimate D2E/DX2                !
 ! R42   R(21,22)                1.5203         estimate D2E/DX2                !
 ! R43   R(21,48)                1.0961         estimate D2E/DX2                !
 ! R44   R(21,49)                1.0962         estimate D2E/DX2                !
 ! R45   R(22,50)                1.0946         estimate D2E/DX2                !
 ! R46   R(22,51)                1.0945         estimate D2E/DX2                !
 ! R47   R(22,52)                1.0945         estimate D2E/DX2                !
 ! R48   R(23,24)                1.5356         estimate D2E/DX2                !
 ! R49   R(23,53)                1.0941         estimate D2E/DX2                !
 ! R50   R(23,54)                1.0971         estimate D2E/DX2                !
 ! R51   R(24,25)                1.5295         estimate D2E/DX2                !
 ! R52   R(24,55)                1.0969         estimate D2E/DX2                !
 ! R53   R(24,56)                1.0974         estimate D2E/DX2                !
 ! R54   R(25,26)                1.5203         estimate D2E/DX2                !
 ! R55   R(25,57)                1.0962         estimate D2E/DX2                !
 ! R56   R(25,58)                1.0961         estimate D2E/DX2                !
 ! R57   R(26,59)                1.0945         estimate D2E/DX2                !
 ! R58   R(26,60)                1.0945         estimate D2E/DX2                !
 ! R59   R(26,61)                1.0947         estimate D2E/DX2                !
 ! R60   R(27,28)                1.5361         estimate D2E/DX2                !
 ! R61   R(27,62)                1.0948         estimate D2E/DX2                !
 ! R62   R(27,63)                1.0968         estimate D2E/DX2                !
 ! R63   R(28,29)                1.5296         estimate D2E/DX2                !
 ! R64   R(28,64)                1.0968         estimate D2E/DX2                !
 ! R65   R(28,65)                1.0974         estimate D2E/DX2                !
 ! R66   R(29,30)                1.5203         estimate D2E/DX2                !
 ! R67   R(29,66)                1.0962         estimate D2E/DX2                !
 ! R68   R(29,67)                1.0961         estimate D2E/DX2                !
 ! R69   R(30,68)                1.0945         estimate D2E/DX2                !
 ! R70   R(30,69)                1.0945         estimate D2E/DX2                !
 ! R71   R(30,70)                1.0947         estimate D2E/DX2                !
 ! A1    A(2,1,3)              115.2812         estimate D2E/DX2                !
 ! A2    A(2,1,13)             122.0607         estimate D2E/DX2                !
 ! A3    A(3,1,13)             122.0599         estimate D2E/DX2                !
 ! A4    A(1,2,6)              119.1879         estimate D2E/DX2                !
 ! A5    A(1,2,31)             116.3157         estimate D2E/DX2                !
 ! A6    A(6,2,31)             124.0603         estimate D2E/DX2                !
 ! A7    A(1,3,4)              119.1904         estimate D2E/DX2                !
 ! A8    A(1,3,32)             116.3125         estimate D2E/DX2                !
 ! A9    A(4,3,32)             124.0594         estimate D2E/DX2                !
 ! A10   A(3,4,5)              116.6032         estimate D2E/DX2                !
 ! A11   A(3,4,15)             121.7004         estimate D2E/DX2                !
 ! A12   A(5,4,15)             121.5309         estimate D2E/DX2                !
 ! A13   A(4,5,6)              112.4472         estimate D2E/DX2                !
 ! A14   A(4,5,7)              123.6859         estimate D2E/DX2                !
 ! A15   A(6,5,7)              123.6766         estimate D2E/DX2                !
 ! A16   A(2,6,5)              116.6078         estimate D2E/DX2                !
 ! A17   A(2,6,27)             121.7059         estimate D2E/DX2                !
 ! A18   A(5,6,27)             121.5219         estimate D2E/DX2                !
 ! A19   A(5,7,8)              123.6209         estimate D2E/DX2                !
 ! A20   A(5,7,9)              123.6281         estimate D2E/DX2                !
 ! A21   A(8,7,9)              112.4795         estimate D2E/DX2                !
 ! A22   A(7,8,10)             116.6721         estimate D2E/DX2                !
 ! A23   A(7,8,23)             121.671          estimate D2E/DX2                !
 ! A24   A(10,8,23)            121.4748         estimate D2E/DX2                !
 ! A25   A(7,9,11)             116.6646         estimate D2E/DX2                !
 ! A26   A(7,9,19)             121.6674         estimate D2E/DX2                !
 ! A27   A(11,9,19)            121.4864         estimate D2E/DX2                !
 ! A28   A(8,10,12)            119.0517         estimate D2E/DX2                !
 ! A29   A(8,10,33)            124.0734         estimate D2E/DX2                !
 ! A30   A(12,10,33)           116.3914         estimate D2E/DX2                !
 ! A31   A(9,11,12)            119.0583         estimate D2E/DX2                !
 ! A32   A(9,11,34)            124.0742         estimate D2E/DX2                !
 ! A33   A(12,11,34)           116.3861         estimate D2E/DX2                !
 ! A34   A(10,12,11)           115.2989         estimate D2E/DX2                !
 ! A35   A(10,12,14)           122.0495         estimate D2E/DX2                !
 ! A36   A(11,12,14)           122.0495         estimate D2E/DX2                !
 ! A37   A(4,15,16)            112.5566         estimate D2E/DX2                !
 ! A38   A(4,15,35)            109.3552         estimate D2E/DX2                !
 ! A39   A(4,15,36)            110.9369         estimate D2E/DX2                !
 ! A40   A(16,15,35)           109.4681         estimate D2E/DX2                !
 ! A41   A(16,15,36)           107.3656         estimate D2E/DX2                !
 ! A42   A(35,15,36)           106.9878         estimate D2E/DX2                !
 ! A43   A(15,16,17)           111.1622         estimate D2E/DX2                !
 ! A44   A(15,16,37)           109.6683         estimate D2E/DX2                !
 ! A45   A(15,16,38)           110.222          estimate D2E/DX2                !
 ! A46   A(17,16,37)           109.5234         estimate D2E/DX2                !
 ! A47   A(17,16,38)           109.1097         estimate D2E/DX2                !
 ! A48   A(37,16,38)           107.0624         estimate D2E/DX2                !
 ! A49   A(16,17,18)           111.5114         estimate D2E/DX2                !
 ! A50   A(16,17,39)           109.8374         estimate D2E/DX2                !
 ! A51   A(16,17,40)           109.8627         estimate D2E/DX2                !
 ! A52   A(18,17,39)           109.1596         estimate D2E/DX2                !
 ! A53   A(18,17,40)           109.1353         estimate D2E/DX2                !
 ! A54   A(39,17,40)           107.2321         estimate D2E/DX2                !
 ! A55   A(17,18,41)           111.0014         estimate D2E/DX2                !
 ! A56   A(17,18,42)           110.2688         estimate D2E/DX2                !
 ! A57   A(17,18,43)           111.0179         estimate D2E/DX2                !
 ! A58   A(41,18,42)           108.0498         estimate D2E/DX2                !
 ! A59   A(41,18,43)           108.3083         estimate D2E/DX2                !
 ! A60   A(42,18,43)           108.0871         estimate D2E/DX2                !
 ! A61   A(9,19,20)            112.1255         estimate D2E/DX2                !
 ! A62   A(9,19,44)            109.3416         estimate D2E/DX2                !
 ! A63   A(9,19,45)            111.2873         estimate D2E/DX2                !
 ! A64   A(20,19,44)           109.5287         estimate D2E/DX2                !
 ! A65   A(20,19,45)           107.5843         estimate D2E/DX2                !
 ! A66   A(44,19,45)           106.816          estimate D2E/DX2                !
 ! A67   A(19,20,21)           111.1752         estimate D2E/DX2                !
 ! A68   A(19,20,46)           109.6927         estimate D2E/DX2                !
 ! A69   A(19,20,47)           110.1592         estimate D2E/DX2                !
 ! A70   A(21,20,46)           109.5126         estimate D2E/DX2                !
 ! A71   A(21,20,47)           109.1756         estimate D2E/DX2                !
 ! A72   A(46,20,47)           107.0313         estimate D2E/DX2                !
 ! A73   A(20,21,22)           111.5115         estimate D2E/DX2                !
 ! A74   A(20,21,48)           109.8412         estimate D2E/DX2                !
 ! A75   A(20,21,49)           109.8491         estimate D2E/DX2                !
 ! A76   A(22,21,48)           109.1573         estimate D2E/DX2                !
 ! A77   A(22,21,49)           109.1494         estimate D2E/DX2                !
 ! A78   A(48,21,49)           107.2301         estimate D2E/DX2                !
 ! A79   A(21,22,50)           111.0035         estimate D2E/DX2                !
 ! A80   A(21,22,51)           110.2678         estimate D2E/DX2                !
 ! A81   A(21,22,52)           111.0239         estimate D2E/DX2                !
 ! A82   A(50,22,51)           108.0429         estimate D2E/DX2                !
 ! A83   A(50,22,52)           108.3084         estimate D2E/DX2                !
 ! A84   A(51,22,52)           108.0865         estimate D2E/DX2                !
 ! A85   A(8,23,24)            112.0982         estimate D2E/DX2                !
 ! A86   A(8,23,53)            111.3109         estimate D2E/DX2                !
 ! A87   A(8,23,54)            109.3464         estimate D2E/DX2                !
 ! A88   A(24,23,53)           107.5895         estimate D2E/DX2                !
 ! A89   A(24,23,54)           109.5385         estimate D2E/DX2                !
 ! A90   A(53,23,54)           106.8006         estimate D2E/DX2                !
 ! A91   A(23,24,25)           111.175          estimate D2E/DX2                !
 ! A92   A(23,24,55)           110.1559         estimate D2E/DX2                !
 ! A93   A(23,24,56)           109.6927         estimate D2E/DX2                !
 ! A94   A(25,24,55)           109.1823         estimate D2E/DX2                !
 ! A95   A(25,24,56)           109.5105         estimate D2E/DX2                !
 ! A96   A(55,24,56)           107.0302         estimate D2E/DX2                !
 ! A97   A(24,25,26)           111.5109         estimate D2E/DX2                !
 ! A98   A(24,25,57)           109.8502         estimate D2E/DX2                !
 ! A99   A(24,25,58)           109.8426         estimate D2E/DX2                !
 ! A100  A(26,25,57)           109.1466         estimate D2E/DX2                !
 ! A101  A(26,25,58)           109.1586         estimate D2E/DX2                !
 ! A102  A(57,25,58)           107.2297         estimate D2E/DX2                !
 ! A103  A(25,26,59)           111.0225         estimate D2E/DX2                !
 ! A104  A(25,26,60)           110.2675         estimate D2E/DX2                !
 ! A105  A(25,26,61)           111.0028         estimate D2E/DX2                !
 ! A106  A(59,26,60)           108.0865         estimate D2E/DX2                !
 ! A107  A(59,26,61)           108.3078         estimate D2E/DX2                !
 ! A108  A(60,26,61)           108.046          estimate D2E/DX2                !
 ! A109  A(6,27,28)            112.5524         estimate D2E/DX2                !
 ! A110  A(6,27,62)            110.9389         estimate D2E/DX2                !
 ! A111  A(6,27,63)            109.3594         estimate D2E/DX2                !
 ! A112  A(28,27,62)           107.3618         estimate D2E/DX2                !
 ! A113  A(28,27,63)           109.4757         estimate D2E/DX2                !
 ! A114  A(62,27,63)           106.9821         estimate D2E/DX2                !
 ! A115  A(27,28,29)           111.1613         estimate D2E/DX2                !
 ! A116  A(27,28,64)           110.2224         estimate D2E/DX2                !
 ! A117  A(27,28,65)           109.6674         estimate D2E/DX2                !
 ! A118  A(29,28,64)           109.1127         estimate D2E/DX2                !
 ! A119  A(29,28,65)           109.5215         estimate D2E/DX2                !
 ! A120  A(64,28,65)           107.0628         estimate D2E/DX2                !
 ! A121  A(28,29,30)           111.5112         estimate D2E/DX2                !
 ! A122  A(28,29,66)           109.864          estimate D2E/DX2                !
 ! A123  A(28,29,67)           109.8378         estimate D2E/DX2                !
 ! A124  A(30,29,66)           109.1329         estimate D2E/DX2                !
 ! A125  A(30,29,67)           109.1612         estimate D2E/DX2                !
 ! A126  A(66,29,67)           107.2314         estimate D2E/DX2                !
 ! A127  A(29,30,68)           111.0155         estimate D2E/DX2                !
 ! A128  A(29,30,69)           110.2677         estimate D2E/DX2                !
 ! A129  A(29,30,70)           111.0013         estimate D2E/DX2                !
 ! A130  A(68,30,69)           108.0874         estimate D2E/DX2                !
 ! A131  A(68,30,70)           108.3091         estimate D2E/DX2                !
 ! A132  A(69,30,70)           108.0526         estimate D2E/DX2                !
 ! D1    D(3,1,2,6)            -23.3104         estimate D2E/DX2                !
 ! D2    D(3,1,2,31)           149.4212         estimate D2E/DX2                !
 ! D3    D(13,1,2,6)           165.3905         estimate D2E/DX2                !
 ! D4    D(13,1,2,31)          -21.8779         estimate D2E/DX2                !
 ! D5    D(2,1,3,4)             23.3042         estimate D2E/DX2                !
 ! D6    D(2,1,3,32)          -149.4141         estimate D2E/DX2                !
 ! D7    D(13,1,3,4)          -165.3966         estimate D2E/DX2                !
 ! D8    D(13,1,3,32)           21.885          estimate D2E/DX2                !
 ! D9    D(1,2,6,5)            -10.6659         estimate D2E/DX2                !
 ! D10   D(1,2,6,27)           164.7402         estimate D2E/DX2                !
 ! D11   D(31,2,6,5)           177.202          estimate D2E/DX2                !
 ! D12   D(31,2,6,27)           -7.3918         estimate D2E/DX2                !
 ! D13   D(1,3,4,5)             10.6775         estimate D2E/DX2                !
 ! D14   D(1,3,4,15)          -164.7134         estimate D2E/DX2                !
 ! D15   D(32,3,4,5)          -177.2048         estimate D2E/DX2                !
 ! D16   D(32,3,4,15)            7.4042         estimate D2E/DX2                !
 ! D17   D(3,4,5,6)            -44.4141         estimate D2E/DX2                !
 ! D18   D(3,4,5,7)            130.728          estimate D2E/DX2                !
 ! D19   D(15,4,5,6)           130.9852         estimate D2E/DX2                !
 ! D20   D(15,4,5,7)           -53.8726         estimate D2E/DX2                !
 ! D21   D(3,4,15,16)           60.8156         estimate D2E/DX2                !
 ! D22   D(3,4,15,35)          -61.0831         estimate D2E/DX2                !
 ! D23   D(3,4,15,36)         -178.8556         estimate D2E/DX2                !
 ! D24   D(5,4,15,16)         -114.349          estimate D2E/DX2                !
 ! D25   D(5,4,15,35)          123.7524         estimate D2E/DX2                !
 ! D26   D(5,4,15,36)            5.9799         estimate D2E/DX2                !
 ! D27   D(4,5,6,2)             44.4092         estimate D2E/DX2                !
 ! D28   D(4,5,6,27)          -131.006          estimate D2E/DX2                !
 ! D29   D(7,5,6,2)           -130.7335         estimate D2E/DX2                !
 ! D30   D(7,5,6,27)            53.8513         estimate D2E/DX2                !
 ! D31   D(4,5,7,8)            179.5148         estimate D2E/DX2                !
 ! D32   D(4,5,7,9)              5.9537         estimate D2E/DX2                !
 ! D33   D(6,5,7,8)             -5.8819         estimate D2E/DX2                !
 ! D34   D(6,5,7,9)           -179.443          estimate D2E/DX2                !
 ! D35   D(2,6,27,28)          -60.8606         estimate D2E/DX2                !
 ! D36   D(2,6,27,62)          178.817          estimate D2E/DX2                !
 ! D37   D(2,6,27,63)           61.0478         estimate D2E/DX2                !
 ! D38   D(5,6,27,28)          114.3205         estimate D2E/DX2                !
 ! D39   D(5,6,27,62)           -6.0019         estimate D2E/DX2                !
 ! D40   D(5,6,27,63)         -123.7711         estimate D2E/DX2                !
 ! D41   D(5,7,8,10)          -129.5869         estimate D2E/DX2                !
 ! D42   D(5,7,8,23)            55.2486         estimate D2E/DX2                !
 ! D43   D(9,7,8,10)            44.6132         estimate D2E/DX2                !
 ! D44   D(9,7,8,23)          -130.5513         estimate D2E/DX2                !
 ! D45   D(5,7,9,11)           129.5908         estimate D2E/DX2                !
 ! D46   D(5,7,9,19)           -55.2381         estimate D2E/DX2                !
 ! D47   D(8,7,9,11)           -44.6088         estimate D2E/DX2                !
 ! D48   D(8,7,9,19)           130.5623         estimate D2E/DX2                !
 ! D49   D(7,8,10,12)          -10.7993         estimate D2E/DX2                !
 ! D50   D(7,8,10,33)          177.4774         estimate D2E/DX2                !
 ! D51   D(23,8,10,12)         164.3754         estimate D2E/DX2                !
 ! D52   D(23,8,10,33)          -7.348          estimate D2E/DX2                !
 ! D53   D(7,8,23,24)          108.4824         estimate D2E/DX2                !
 ! D54   D(7,8,23,53)          -12.0804         estimate D2E/DX2                !
 ! D55   D(7,8,23,54)         -129.8418         estimate D2E/DX2                !
 ! D56   D(10,8,23,24)         -66.4506         estimate D2E/DX2                !
 ! D57   D(10,8,23,53)         172.9866         estimate D2E/DX2                !
 ! D58   D(10,8,23,54)          55.2252         estimate D2E/DX2                !
 ! D59   D(7,9,11,12)           10.7956         estimate D2E/DX2                !
 ! D60   D(7,9,11,34)         -177.465          estimate D2E/DX2                !
 ! D61   D(19,9,11,12)        -164.385          estimate D2E/DX2                !
 ! D62   D(19,9,11,34)           7.3545         estimate D2E/DX2                !
 ! D63   D(7,9,19,20)         -108.832          estimate D2E/DX2                !
 ! D64   D(7,9,19,44)          129.4897         estimate D2E/DX2                !
 ! D65   D(7,9,19,45)           11.7265         estimate D2E/DX2                !
 ! D66   D(11,9,19,20)          66.1071         estimate D2E/DX2                !
 ! D67   D(11,9,19,44)         -55.5713         estimate D2E/DX2                !
 ! D68   D(11,9,19,45)        -173.3344         estimate D2E/DX2                !
 ! D69   D(8,10,12,11)         -23.2136         estimate D2E/DX2                !
 ! D70   D(8,10,12,14)         165.5163         estimate D2E/DX2                !
 ! D71   D(33,10,12,11)        149.1369         estimate D2E/DX2                !
 ! D72   D(33,10,12,14)        -22.1332         estimate D2E/DX2                !
 ! D73   D(9,11,12,10)          23.216          estimate D2E/DX2                !
 ! D74   D(9,11,12,14)        -165.5139         estimate D2E/DX2                !
 ! D75   D(34,11,12,10)       -149.1498         estimate D2E/DX2                !
 ! D76   D(34,11,12,14)         22.1203         estimate D2E/DX2                !
 ! D77   D(4,15,16,17)         177.8838         estimate D2E/DX2                !
 ! D78   D(4,15,16,37)          56.6234         estimate D2E/DX2                !
 ! D79   D(4,15,16,38)         -61.0043         estimate D2E/DX2                !
 ! D80   D(35,15,16,17)        -60.2815         estimate D2E/DX2                !
 ! D81   D(35,15,16,37)        178.4581         estimate D2E/DX2                !
 ! D82   D(35,15,16,38)         60.8305         estimate D2E/DX2                !
 ! D83   D(36,15,16,17)         55.5184         estimate D2E/DX2                !
 ! D84   D(36,15,16,37)        -65.742          estimate D2E/DX2                !
 ! D85   D(36,15,16,38)        176.6304         estimate D2E/DX2                !
 ! D86   D(15,16,17,18)        179.5152         estimate D2E/DX2                !
 ! D87   D(15,16,17,39)         58.3693         estimate D2E/DX2                !
 ! D88   D(15,16,17,40)        -59.3525         estimate D2E/DX2                !
 ! D89   D(37,16,17,18)        -59.1396         estimate D2E/DX2                !
 ! D90   D(37,16,17,39)        179.7145         estimate D2E/DX2                !
 ! D91   D(37,16,17,40)         61.9927         estimate D2E/DX2                !
 ! D92   D(38,16,17,18)         57.7529         estimate D2E/DX2                !
 ! D93   D(38,16,17,39)        -63.3929         estimate D2E/DX2                !
 ! D94   D(38,16,17,40)        178.8853         estimate D2E/DX2                !
 ! D95   D(16,17,18,41)        -60.3882         estimate D2E/DX2                !
 ! D96   D(16,17,18,42)        179.9045         estimate D2E/DX2                !
 ! D97   D(16,17,18,43)         60.1401         estimate D2E/DX2                !
 ! D98   D(39,17,18,41)         61.1517         estimate D2E/DX2                !
 ! D99   D(39,17,18,42)        -58.5555         estimate D2E/DX2                !
 ! D100  D(39,17,18,43)       -178.3199         estimate D2E/DX2                !
 ! D101  D(40,17,18,41)        178.0565         estimate D2E/DX2                !
 ! D102  D(40,17,18,42)         58.3493         estimate D2E/DX2                !
 ! D103  D(40,17,18,43)        -61.4151         estimate D2E/DX2                !
 ! D104  D(9,19,20,21)         178.5597         estimate D2E/DX2                !
 ! D105  D(9,19,20,46)          57.288          estimate D2E/DX2                !
 ! D106  D(9,19,20,47)         -60.279          estimate D2E/DX2                !
 ! D107  D(44,19,20,21)        -59.8692         estimate D2E/DX2                !
 ! D108  D(44,19,20,46)        178.8592         estimate D2E/DX2                !
 ! D109  D(44,19,20,47)         61.2921         estimate D2E/DX2                !
 ! D110  D(45,19,20,21)         55.8784         estimate D2E/DX2                !
 ! D111  D(45,19,20,46)        -65.3932         estimate D2E/DX2                !
 ! D112  D(45,19,20,47)        177.0398         estimate D2E/DX2                !
 ! D113  D(19,20,21,22)        179.4281         estimate D2E/DX2                !
 ! D114  D(19,20,21,48)         58.2825         estimate D2E/DX2                !
 ! D115  D(19,20,21,49)        -59.4311         estimate D2E/DX2                !
 ! D116  D(46,20,21,22)        -59.1949         estimate D2E/DX2                !
 ! D117  D(46,20,21,48)        179.6596         estimate D2E/DX2                !
 ! D118  D(46,20,21,49)         61.946          estimate D2E/DX2                !
 ! D119  D(47,20,21,22)         57.6919         estimate D2E/DX2                !
 ! D120  D(47,20,21,48)        -63.4537         estimate D2E/DX2                !
 ! D121  D(47,20,21,49)        178.8328         estimate D2E/DX2                !
 ! D122  D(20,21,22,50)        -60.42           estimate D2E/DX2                !
 ! D123  D(20,21,22,51)        179.8808         estimate D2E/DX2                !
 ! D124  D(20,21,22,52)         60.1139         estimate D2E/DX2                !
 ! D125  D(48,21,22,50)         61.1231         estimate D2E/DX2                !
 ! D126  D(48,21,22,51)        -58.5761         estimate D2E/DX2                !
 ! D127  D(48,21,22,52)       -178.343          estimate D2E/DX2                !
 ! D128  D(49,21,22,50)        178.0323         estimate D2E/DX2                !
 ! D129  D(49,21,22,51)         58.3331         estimate D2E/DX2                !
 ! D130  D(49,21,22,52)        -61.4338         estimate D2E/DX2                !
 ! D131  D(8,23,24,25)        -178.5519         estimate D2E/DX2                !
 ! D132  D(8,23,24,55)          60.2807         estimate D2E/DX2                !
 ! D133  D(8,23,24,56)         -57.283          estimate D2E/DX2                !
 ! D134  D(53,23,24,25)        -55.855          estimate D2E/DX2                !
 ! D135  D(53,23,24,55)       -177.0223         estimate D2E/DX2                !
 ! D136  D(53,23,24,56)         65.414          estimate D2E/DX2                !
 ! D137  D(54,23,24,25)         59.8823         estimate D2E/DX2                !
 ! D138  D(54,23,24,55)        -61.285          estimate D2E/DX2                !
 ! D139  D(54,23,24,56)       -178.8487         estimate D2E/DX2                !
 ! D140  D(23,24,25,26)       -179.4586         estimate D2E/DX2                !
 ! D141  D(23,24,25,57)         59.4036         estimate D2E/DX2                !
 ! D142  D(23,24,25,58)        -58.3109         estimate D2E/DX2                !
 ! D143  D(55,24,25,26)        -57.7223         estimate D2E/DX2                !
 ! D144  D(55,24,25,57)       -178.86           estimate D2E/DX2                !
 ! D145  D(55,24,25,58)         63.4254         estimate D2E/DX2                !
 ! D146  D(56,24,25,26)         59.1658         estimate D2E/DX2                !
 ! D147  D(56,24,25,57)        -61.972          estimate D2E/DX2                !
 ! D148  D(56,24,25,58)       -179.6865         estimate D2E/DX2                !
 ! D149  D(24,25,26,59)        -60.112          estimate D2E/DX2                !
 ! D150  D(24,25,26,60)       -179.8778         estimate D2E/DX2                !
 ! D151  D(24,25,26,61)         60.4198         estimate D2E/DX2                !
 ! D152  D(57,25,26,59)         61.4348         estimate D2E/DX2                !
 ! D153  D(57,25,26,60)        -58.331          estimate D2E/DX2                !
 ! D154  D(57,25,26,61)       -178.0334         estimate D2E/DX2                !
 ! D155  D(58,25,26,59)        178.3426         estimate D2E/DX2                !
 ! D156  D(58,25,26,60)         58.5768         estimate D2E/DX2                !
 ! D157  D(58,25,26,61)        -61.1256         estimate D2E/DX2                !
 ! D158  D(6,27,28,29)        -177.8528         estimate D2E/DX2                !
 ! D159  D(6,27,28,64)          61.0319         estimate D2E/DX2                !
 ! D160  D(6,27,28,65)         -56.596          estimate D2E/DX2                !
 ! D161  D(62,27,28,29)        -55.4903         estimate D2E/DX2                !
 ! D162  D(62,27,28,64)       -176.6056         estimate D2E/DX2                !
 ! D163  D(62,27,28,65)         65.7665         estimate D2E/DX2                !
 ! D164  D(63,27,28,29)         60.3047         estimate D2E/DX2                !
 ! D165  D(63,27,28,64)        -60.8106         estimate D2E/DX2                !
 ! D166  D(63,27,28,65)       -178.4385         estimate D2E/DX2                !
 ! D167  D(27,28,29,30)       -179.5458         estimate D2E/DX2                !
 ! D168  D(27,28,29,66)         59.3242         estimate D2E/DX2                !
 ! D169  D(27,28,29,67)        -58.3978         estimate D2E/DX2                !
 ! D170  D(64,28,29,30)        -57.7817         estimate D2E/DX2                !
 ! D171  D(64,28,29,66)       -178.9117         estimate D2E/DX2                !
 ! D172  D(64,28,29,67)         63.3663         estimate D2E/DX2                !
 ! D173  D(65,28,29,30)         59.112          estimate D2E/DX2                !
 ! D174  D(65,28,29,66)        -62.0181         estimate D2E/DX2                !
 ! D175  D(65,28,29,67)       -179.7401         estimate D2E/DX2                !
 ! D176  D(28,29,30,68)        -60.1426         estimate D2E/DX2                !
 ! D177  D(28,29,30,69)       -179.9052         estimate D2E/DX2                !
 ! D178  D(28,29,30,70)         60.3851         estimate D2E/DX2                !
 ! D179  D(66,29,30,68)         61.4125         estimate D2E/DX2                !
 ! D180  D(66,29,30,69)        -58.35           estimate D2E/DX2                !
 ! D181  D(66,29,30,70)       -178.0598         estimate D2E/DX2                !
 ! D182  D(67,29,30,68)        178.3161         estimate D2E/DX2                !
 ! D183  D(67,29,30,69)         58.5535         estimate D2E/DX2                !
 ! D184  D(67,29,30,70)        -61.1563         estimate D2E/DX2                !
 --------------------------------------------------------------------------------
 Trust Radius=3.00D-01 FncErr=1.00D-07 GrdErr=1.00D-06 EigMax=2.50D+02 EigMin=1.00D-04
 Number of steps in this run=    397 maximum allowed number of steps=    420.
 GradGradGradGradGradGradGradGradGradGradGradGradGradGradGradGradGradGrad

 Leave Link  103 at Sat Jan  6 01:35:23 2024, MaxMem=  4026531840 cpu:               1.6 elap:               0.3
 (Enter /sysapps/ubuntu-applications/gaussian/Gaussian/AVX2/g16/l202.exe)
 Symmetry turned off by external request.
 Stoichiometry    C28H40O2
 Framework group  C1[X(C28H40O2)]
 Deg. of freedom   204
 Full point group                 C1      NOp   1
                          Input orientation:                          
 ---------------------------------------------------------------------
 Center     Atomic      Atomic             Coordinates (Angstroms)
 Number     Number       Type             X           Y           Z
 ---------------------------------------------------------------------
      1          6           0       -1.029400    0.686520   -2.847280
      2          6           0       -1.889580    1.152940   -1.726540
      3          6           0        0.433110    0.701690   -2.574570
      4          6           0        0.864760    0.652460   -1.297510
      5          6           0       -0.153150    0.340820   -0.263480
      6          6           0       -1.415150    1.095260   -0.465130
      7          6           0        0.015200   -0.615510    0.706700
      8          6           0       -0.997360   -0.918190    1.744260
      9          6           0        1.278890   -1.359350    0.914640
     10          6           0       -0.565900   -0.945290    3.021260
     11          6           0        1.759240   -1.395940    2.173840
     12          6           0        0.898100   -0.918250    3.290450
     13          8           0       -1.479430    0.466550   -3.962850
     14          8           0        1.349240   -0.680620    4.401930
     15          6           0        2.288130    1.002030   -0.925870
     16          6           0        2.653150    2.449470   -1.288040
     17          6           0        4.080400    2.784720   -0.851780
     18          6           0        4.454200    4.212320   -1.217140
     19          6           0        1.937690   -2.132690   -0.204300
     20          6           0        1.824800   -3.650810   -0.002720
     21          6           0        2.466800   -4.411600   -1.163960
     22          6           0        2.371680   -5.915820   -0.965310
     23          6           0       -2.417280   -1.288890    1.383060
     24          6           0       -2.711030   -2.773300    1.644220
     25          6           0       -4.141130   -3.133210    1.238450
     26          6           0       -4.444480   -4.598640    1.506170
     27          6           0       -2.075170    1.849000    0.667380
     28          6           0       -2.078610    3.368250    0.440800
     29          6           0       -2.705140    4.102130    1.627650
     30          6           0       -2.722700    5.606180    1.406820
     31          1           0       -2.819500    1.632160   -2.002920
     32          1           0        1.077990    0.875070   -3.425960
     33          1           0       -1.208860   -1.114740    3.874930
     34          1           0        2.690600   -1.870290    2.453860
     35          1           0        2.975590    0.313940   -1.432670
     36          1           0        2.451990    0.883150    0.150010
     37          1           0        1.950180    3.139700   -0.804560
     38          1           0        2.562840    2.603810   -2.370150
     39          1           0        4.786650    2.094830   -1.327950
     40          1           0        4.179070    2.653610    0.232040
     41          1           0        4.399220    4.367540   -2.299360
     42          1           0        5.477020    4.430770   -0.894760
     43          1           0        3.784610    4.929730   -0.732450
     44          1           0        2.995480   -1.848910   -0.268400
     45          1           0        1.486520   -1.893260   -1.171950
     46          1           0        0.768240   -3.935030    0.082160
     47          1           0        2.312950   -3.945050    0.934500
     48          1           0        3.521180   -4.127090   -1.257450
     49          1           0        1.972900   -4.141160   -2.104430
     50          1           0        2.886790   -6.224040   -0.049930
     51          1           0        2.834620   -6.439500   -1.807530
     52          1           0        1.327810   -6.237680   -0.897410
     53          1           0       -2.623200   -1.091960    0.326690
     54          1           0       -3.113210   -0.669650    1.962600
     55          1           0       -2.568590   -3.005550    2.706790
     56          1           0       -2.002960   -3.394950    1.081620
     57          1           0       -4.289400   -2.924250    0.172650
     58          1           0       -4.853000   -2.511300    1.793330
     59          1           0       -3.768290   -5.248930    0.942420
     60          1           0       -5.470540   -4.834230    1.206890
     61          1           0       -4.339320   -4.833030    2.570260
     62          1           0       -1.560050    1.661190    1.614940
     63          1           0       -3.106240    1.494870    0.787600
     64          1           0       -2.638270    3.614500   -0.469740
     65          1           0       -1.050380    3.721870    0.292310
     66          1           0       -2.142870    3.879780    2.542000
     67          1           0       -3.731180    3.749380    1.783540
     68          1           0       -1.708100    5.995740    1.277140
     69          1           0       -3.172890    6.110510    2.267520
     70          1           0       -3.306810    5.865420    0.518040
 ---------------------------------------------------------------------
 Rotational constants (GHZ):           0.1349177           0.1111399           0.0879975
 Leave Link  202 at Sat Jan  6 01:35:23 2024, MaxMem=  4026531840 cpu:               0.4 elap:               0.1
 (Enter /sysapps/ubuntu-applications/gaussian/Gaussian/AVX2/g16/l301.exe)
 Standard basis: 6-311++G(d,p) (5D, 7F)
 Ernie: Thresh=  0.10000D-02 Tol=  0.10000D-05 Strict=F.
   940 basis functions,  1440 primitive gaussians,   970 cartesian basis functions
   112 alpha electrons      112 beta electrons
       nuclear repulsion energy      2982.6616145561 Hartrees.
 IExCor=  402 DFT=T Ex+Corr=B3LYP ExCW=0 ScaHFX=  0.200000
 ScaDFX=  0.800000  0.720000  1.000000  0.810000 ScalE2=  1.000000  1.000000
 IRadAn=      5 IRanWt=     -1 IRanGd=            0 ICorTp=0 IEmpDi=  4
 NAtoms=   70 NActive=   70 NUniq=   70 SFac= 1.00D+00 NAtFMM=   60 NAOKFM=T Big=T
 Integral buffers will be    131072 words long.
 Raffenetti 2 integral format.
 Two-electron integral symmetry is turned off.
 Leave Link  301 at Sat Jan  6 01:35:24 2024, MaxMem=  4026531840 cpu:               1.2 elap:               0.3
 (Enter /sysapps/ubuntu-applications/gaussian/Gaussian/AVX2/g16/l302.exe)
 NPDir=0 NMtPBC=     1 NCelOv=     1 NCel=       1 NClECP=     1 NCelD=      1
         NCelK=      1 NCelE2=     1 NClLst=     1 CellRange=     0.0.
 One-electron integrals computed using PRISM.
 NBasis=   940 RedAO= T EigKep=  1.07D-06  NBF=   940
 NBsUse=   930 1.00D-06 EigRej=  8.74D-07 NBFU=   930
 Precomputing XC quadrature grid using
 IXCGrd= 4 IRadAn=           5 IRanWt=          -1 IRanGd=           0 AccXCQ= 0.00D+00.
 Generated NRdTot=       0 NPtTot=           0 NUsed=           0 NTot=          32
 NSgBfM=   960   960   960   960   960 MxSgAt=    70 MxSgA2=    70.
 Leave Link  302 at Sat Jan  6 01:35:26 2024, MaxMem=  4026531840 cpu:              17.0 elap:               2.3
 (Enter /sysapps/ubuntu-applications/gaussian/Gaussian/AVX2/g16/l303.exe)
 DipDrv:  MaxL=1.
 Leave Link  303 at Sat Jan  6 01:35:27 2024, MaxMem=  4026531840 cpu:               2.1 elap:               0.4
 (Enter /sysapps/ubuntu-applications/gaussian/Gaussian/AVX2/g16/l401.exe)
 ExpMin= 3.60D-02 ExpMax= 8.59D+03 ExpMxC= 1.30D+03 IAcc=3 IRadAn=         5 AccDes= 0.00D+00
 Harris functional with IExCor=  402 and IRadAn=       5 diagonalized for initial guess.
 HarFok:  IExCor=  402 AccDes= 0.00D+00 IRadAn=         5 IDoV= 1 UseB2=F ITyADJ=14
 ICtDFT=  3500011 ScaDFX=  1.000000  1.000000  1.000000  1.000000
 FoFCou: FMM=F IPFlag=           0 FMFlag=      100000 FMFlg1=        2001
         NFxFlg=           0 DoJE=T BraDBF=F KetDBF=T FulRan=T
         wScrn=  0.000000 ICntrl=       500 IOpCl=  0 I1Cent=   200000004 NGrid=           0
         NMat0=    1 NMatS0=      1 NMatT0=    0 NMatD0=    1 NMtDS0=    0 NMtDT0=    0
 Symmetry not used in FoFCou.
 Harris En= -1242.01397393482    
 JPrj=0 DoOrth=F DoCkMO=F.
 Initial guess <Sx>= 0.0000 <Sy>= 0.0000 <Sz>= 0.0000 <S**2>=-0.0000 S=-0.0000
 Leave Link  401 at Sat Jan  6 01:35:37 2024, MaxMem=  4026531840 cpu:              83.9 elap:              10.7
 (Enter /sysapps/ubuntu-applications/gaussian/Gaussian/AVX2/g16/l502.exe)
 Two-electron integral symmetry not used.
 UHF open shell SCF:
 Using DIIS extrapolation, IDIIS=  1040.
 NGot=  4026531840 LenX=  4024635088 LenY=  4023693218
 Requested convergence on RMS density matrix=1.00D-08 within 128 cycles.
 Requested convergence on MAX density matrix=1.00D-06.
 Requested convergence on             energy=1.00D-06.
 No special actions if energy rises.
 Fock matrices will be formed incrementally for  20 cycles.

 Cycle   1  Pass 1  IDiag  1:
 FoFJK:  IHMeth= 1 ICntrl=       0 DoSepK=F KAlg= 0 I1Cent=           0 FoldK=F
 IRaf= 870000000 NMat=       1 IRICut=       1 DoRegI=T DoRafI=F ISym2E= 0 IDoP0=0 IntGTp=1.
 FoFCou: FMM=T IPFlag=           0 FMFlag=      100000 FMFlg1=        2001
         NFxFlg=           0 DoJE=F BraDBF=F KetDBF=F FulRan=T
         wScrn=  0.000000 ICntrl=         0 IOpCl=  1 I1Cent=           0 NGrid=           0
         NMat0=    1 NMatS0=      1 NMatT0=    0 NMatD0=    1 NMtDS0=    0 NMtDT0=    0
 Symmetry not used in FoFCou.
 FMM levels:  10  Number of levels for PrismC:   9
 E= -1240.77774227399    
 DIIS: error= 3.62D-02 at cycle   1 NSaved=   1.
 NSaved= 1 IEnMin= 1 EnMin= -1240.77774227399     IErMin= 1 ErrMin= 3.62D-02
 ErrMax= 3.62D-02  0.00D+00 EMaxC= 1.00D-01 BMatC= 4.32D+00 BMatP= 4.32D+00
 IDIUse=3 WtCom= 6.38D-01 WtEn= 3.62D-01
 Coeff-Com:  0.100D+01
 Coeff-En:   0.100D+01
 Coeff:      0.100D+01
 Gap=     0.134 Goal=   None    Shift=    0.000
 Gap=     0.134 Goal=   None    Shift=    0.000
 GapD=    0.134 DampG=1.000 DampE=0.500 DampFc=0.5000 IDamp=-1.
 Damping current iteration by 5.00D-01
 RMSDP=1.21D-02 MaxDP=8.56D-01              OVMax= 2.38D-01

 Cycle   2  Pass 1  IDiag  1:
 RMSU=  5.83D-03    CP:  9.54D-01
 E= -1241.15500037457     Delta-E=       -0.377258100581 Rises=F Damp=T
 DIIS: error= 1.97D-02 at cycle   2 NSaved=   2.
 NSaved= 2 IEnMin= 2 EnMin= -1241.15500037457     IErMin= 2 ErrMin= 1.97D-02
 ErrMax= 1.97D-02  0.00D+00 EMaxC= 1.00D-01 BMatC= 4.24D-01 BMatP= 4.32D+00
 IDIUse=3 WtCom= 8.03D-01 WtEn= 1.97D-01
 Coeff-Com:  0.131D+00 0.869D+00
 Coeff-En:   0.230D+00 0.770D+00
 Coeff:      0.151D+00 0.849D+00
 Gap=     0.190 Goal=   None    Shift=    0.000
 Gap=     0.190 Goal=   None    Shift=    0.000
 RMSDP=5.81D-03 MaxDP=6.18D-01 DE=-3.77D-01 OVMax= 2.21D-01

 Cycle   3  Pass 1  IDiag  1:
 RMSU=  4.07D-03    CP:  8.62D-01  5.14D-01
 E= -1241.64228610326     Delta-E=       -0.487285728688 Rises=F Damp=F
 DIIS: error= 2.95D-02 at cycle   3 NSaved=   3.
 NSaved= 3 IEnMin= 3 EnMin= -1241.64228610326     IErMin= 2 ErrMin= 1.97D-02
 ErrMax= 2.95D-02  0.00D+00 EMaxC= 1.00D-01 BMatC= 6.76D-01 BMatP= 4.24D-01
 IDIUse=2 WtCom= 0.00D+00 WtEn= 1.00D+00
 Coeff-En:   0.000D+00 0.000D+00 0.100D+01
 Coeff:      0.000D+00 0.000D+00 0.100D+01
 Gap=     0.166 Goal=   None    Shift=    0.000
 Gap=     0.166 Goal=   None    Shift=    0.000
 RMSDP=1.70D-02 MaxDP=1.99D+00 DE=-4.87D-01 OVMax= 9.14D-01

 Cycle   4  Pass 1  IDiag  1:
 RMSU=  1.15D-02    CP:  1.19D+00  8.17D-01 -4.98D-01
 E= -1238.41723426913     Delta-E=        3.225051834131 Rises=F Damp=F
 DIIS: error= 1.02D-01 at cycle   4 NSaved=   4.
 NSaved= 4 IEnMin= 3 EnMin= -1241.64228610326     IErMin= 2 ErrMin= 1.97D-02
 ErrMax= 1.02D-01  0.00D+00 EMaxC= 1.00D-01 BMatC= 1.07D+01 BMatP= 4.24D-01
 IDIUse=2 WtCom= 0.00D+00 WtEn= 1.00D+00
 Coeff-En:   0.000D+00 0.000D+00 0.924D+00 0.761D-01
 Coeff:      0.000D+00 0.000D+00 0.924D+00 0.761D-01
 Gap=    -0.060 Goal=   None    Shift=    0.000
 Gap=    -0.060 Goal=   None    Shift=    0.000
 RMSDP=8.14D-03 MaxDP=1.13D+00 DE= 3.23D+00 OVMax= 9.92D-01

 Cycle   5  Pass 1  IDiag  1:
 RMSU=  3.35D-03    CP:  1.05D+00  8.04D-01 -1.89D-01  5.07D-01
 E= -1241.39359712449     Delta-E=       -2.976362855363 Rises=F Damp=F
 DIIS: error= 4.73D-02 at cycle   5 NSaved=   5.
 NSaved= 5 IEnMin= 3 EnMin= -1241.64228610326     IErMin= 2 ErrMin= 1.97D-02
 ErrMax= 4.73D-02  0.00D+00 EMaxC= 1.00D-01 BMatC= 1.81D+00 BMatP= 4.24D-01
 IDIUse=2 WtCom= 0.00D+00 WtEn= 1.00D+00
 Coeff-En:   0.000D+00 0.000D+00 0.670D+00 0.000D+00 0.330D+00
 Coeff:      0.000D+00 0.000D+00 0.670D+00 0.000D+00 0.330D+00
 Gap=     0.157 Goal=   None    Shift=    0.000
 Gap=     0.157 Goal=   None    Shift=    0.000
 RMSDP=5.53D-03 MaxDP=7.50D-01 DE=-2.98D+00 OVMax= 1.81D-01

 Cycle   6  Pass 1  IDiag  1:
 RMSU=  1.65D-03    CP:  9.43D-01  5.93D-01  3.06D-01  2.70D-01  5.05D-01
 E= -1241.75840289151     Delta-E=       -0.364805767018 Rises=F Damp=F
 DIIS: error= 8.44D-03 at cycle   6 NSaved=   6.
 NSaved= 6 IEnMin= 6 EnMin= -1241.75840289151     IErMin= 6 ErrMin= 8.44D-03
 ErrMax= 8.44D-03  0.00D+00 EMaxC= 1.00D-01 BMatC= 1.43D-01 BMatP= 4.24D-01
 IDIUse=3 WtCom= 9.16D-01 WtEn= 8.44D-02
 Coeff-Com:  0.112D-01 0.395D-01 0.424D+00-0.622D-02 0.196D+00 0.335D+00
 Coeff-En:   0.000D+00 0.000D+00 0.209D+00 0.000D+00 0.000D+00 0.791D+00
 Coeff:      0.103D-01 0.362D-01 0.406D+00-0.569D-02 0.180D+00 0.374D+00
 Gap=     0.150 Goal=   None    Shift=    0.000
 Gap=     0.150 Goal=   None    Shift=    0.000
 RMSDP=1.97D-03 MaxDP=2.60D-01 DE=-3.65D-01 OVMax= 7.74D-02

 Cycle   7  Pass 1  IDiag  1:
 RMSU=  5.92D-04    CP:  9.08D-01  5.57D-01  5.00D-01  1.93D-01  4.17D-01
                    CP:  5.00D-01
 E= -1241.78916068372     Delta-E=       -0.030757792215 Rises=F Damp=F
 DIIS: error= 2.80D-03 at cycle   7 NSaved=   7.
 NSaved= 7 IEnMin= 7 EnMin= -1241.78916068372     IErMin= 7 ErrMin= 2.80D-03
 ErrMax= 2.80D-03  0.00D+00 EMaxC= 1.00D-01 BMatC= 7.61D-03 BMatP= 1.43D-01
 IDIUse=3 WtCom= 9.72D-01 WtEn= 2.80D-02
 Coeff-Com: -0.131D-02-0.160D-02 0.904D-01-0.147D-02 0.178D-01 0.230D+00
 Coeff-Com:  0.666D+00
 Coeff-En:   0.000D+00 0.000D+00 0.000D+00 0.000D+00 0.000D+00 0.222D-02
 Coeff-En:   0.998D+00
 Coeff:     -0.127D-02-0.155D-02 0.879D-01-0.143D-02 0.173D-01 0.223D+00
 Coeff:      0.676D+00
 Gap=     0.131 Goal=   None    Shift=    0.000
 Gap=     0.131 Goal=   None    Shift=    0.000
 RMSDP=3.15D-04 MaxDP=2.02D-02 DE=-3.08D-02 OVMax= 1.11D-02

 Cycle   8  Pass 1  IDiag  1:
 RMSU=  2.79D-04    CP:  9.06D-01  5.54D-01  5.15D-01  1.91D-01  4.41D-01
                    CP:  4.91D-01  8.68D-01
 E= -1241.79034905135     Delta-E=       -0.001188367628 Rises=F Damp=F
 DIIS: error= 6.15D-04 at cycle   8 NSaved=   8.
 NSaved= 8 IEnMin= 8 EnMin= -1241.79034905135     IErMin= 8 ErrMin= 6.15D-04
 ErrMax= 6.15D-04  0.00D+00 EMaxC= 1.00D-01 BMatC= 1.23D-03 BMatP= 7.61D-03
 IDIUse=3 WtCom= 9.94D-01 WtEn= 6.15D-03
 Coeff-Com: -0.163D-02 0.781D-03 0.191D-01 0.403D-04-0.896D-02 0.103D+00
 Coeff-Com:  0.412D+00 0.475D+00
 Coeff-En:   0.000D+00 0.000D+00 0.000D+00 0.000D+00 0.000D+00 0.000D+00
 Coeff-En:   0.148D+00 0.852D+00
 Coeff:     -0.162D-02 0.776D-03 0.190D-01 0.400D-04-0.891D-02 0.102D+00
 Coeff:      0.411D+00 0.478D+00
 Gap=     0.131 Goal=   None    Shift=    0.000
 Gap=     0.131 Goal=   None    Shift=    0.000
 RMSDP=2.69D-04 MaxDP=1.92D-02 DE=-1.19D-03 OVMax= 8.27D-03

 Cycle   9  Pass 1  IDiag  1:
 RMSU=  9.11D-05    CP:  9.08D-01  5.55D-01  5.04D-01  1.97D-01  4.32D-01
                    CP:  5.76D-01  9.05D-01  3.63D-01
 E= -1241.79061740455     Delta-E=       -0.000268353198 Rises=F Damp=F
 DIIS: error= 2.45D-04 at cycle   9 NSaved=   9.
 NSaved= 9 IEnMin= 9 EnMin= -1241.79061740455     IErMin= 9 ErrMin= 2.45D-04
 ErrMax= 2.45D-04  0.00D+00 EMaxC= 1.00D-01 BMatC= 1.51D-04 BMatP= 1.23D-03
 IDIUse=3 WtCom= 9.98D-01 WtEn= 2.45D-03
 Coeff-Com: -0.919D-03 0.104D-02 0.689D-02 0.134D-03-0.770D-02 0.525D-01
 Coeff-Com:  0.208D+00 0.310D+00 0.430D+00
 Coeff-En:   0.000D+00 0.000D+00 0.000D+00 0.000D+00 0.000D+00 0.000D+00
 Coeff-En:   0.000D+00 0.674D-01 0.933D+00
 Coeff:     -0.917D-03 0.104D-02 0.687D-02 0.133D-03-0.769D-02 0.524D-01
 Coeff:      0.208D+00 0.309D+00 0.431D+00
 Gap=     0.131 Goal=   None    Shift=    0.000
 Gap=     0.131 Goal=   None    Shift=    0.000
 RMSDP=7.50D-05 MaxDP=6.59D-03 DE=-2.68D-04 OVMax= 3.30D-03

 Cycle  10  Pass 1  IDiag  1:
 RMSU=  2.71D-05    CP:  9.08D-01  5.55D-01  5.04D-01  1.98D-01  4.38D-01
                    CP:  5.56D-01  9.01D-01  5.18D-01  6.01D-01
 E= -1241.79065086638     Delta-E=       -0.000033461827 Rises=F Damp=F
 DIIS: error= 6.52D-05 at cycle  10 NSaved=  10.
 NSaved=10 IEnMin=10 EnMin= -1241.79065086638     IErMin=10 ErrMin= 6.52D-05
 ErrMax= 6.52D-05  0.00D+00 EMaxC= 1.00D-01 BMatC= 1.07D-05 BMatP= 1.51D-04
 IDIUse=1 WtCom= 1.00D+00 WtEn= 0.00D+00
 Coeff-Com: -0.139D-03 0.357D-03 0.944D-03 0.253D-04-0.246D-02 0.967D-02
 Coeff-Com:  0.204D-01 0.648D-01 0.213D+00 0.693D+00
 Coeff:     -0.139D-03 0.357D-03 0.944D-03 0.253D-04-0.246D-02 0.967D-02
 Coeff:      0.204D-01 0.648D-01 0.213D+00 0.693D+00
 Gap=     0.131 Goal=   None    Shift=    0.000
 Gap=     0.131 Goal=   None    Shift=    0.000
 RMSDP=2.95D-05 MaxDP=4.46D-03 DE=-3.35D-05 OVMax= 1.12D-03

 Cycle  11  Pass 1  IDiag  1:
 RMSU=  1.07D-05    CP:  9.08D-01  5.55D-01  5.05D-01  1.96D-01  4.34D-01
                    CP:  5.61D-01  8.91D-01  5.03D-01  6.05D-01  7.26D-01
 E= -1241.79065379181     Delta-E=       -0.000002925430 Rises=F Damp=F
 DIIS: error= 7.29D-06 at cycle  11 NSaved=  11.
 NSaved=11 IEnMin=11 EnMin= -1241.79065379181     IErMin=11 ErrMin= 7.29D-06
 ErrMax= 7.29D-06  0.00D+00 EMaxC= 1.00D-01 BMatC= 3.50D-07 BMatP= 1.07D-05
 IDIUse=1 WtCom= 1.00D+00 WtEn= 0.00D+00
 Coeff-Com: -0.190D-04 0.670D-04 0.721D-04 0.119D-04-0.657D-03 0.145D-02
 Coeff-Com: -0.596D-03 0.148D-01 0.676D-01 0.291D+00 0.627D+00
 Coeff:     -0.190D-04 0.670D-04 0.721D-04 0.119D-04-0.657D-03 0.145D-02
 Coeff:     -0.596D-03 0.148D-01 0.676D-01 0.291D+00 0.627D+00
 Gap=     0.131 Goal=   None    Shift=    0.000
 Gap=     0.131 Goal=   None    Shift=    0.000
 RMSDP=5.80D-06 MaxDP=6.25D-04 DE=-2.93D-06 OVMax= 1.23D-04

 Cycle  12  Pass 1  IDiag  1:
 RMSU=  2.48D-06    CP:  9.08D-01  5.55D-01  5.05D-01  1.96D-01  4.35D-01
                    CP:  5.61D-01  8.92D-01  5.07D-01  6.13D-01  7.91D-01
                    CP:  8.58D-01
 E= -1241.79065387372     Delta-E=       -0.000000081915 Rises=F Damp=F
 DIIS: error= 3.47D-06 at cycle  12 NSaved=  12.
 NSaved=12 IEnMin=12 EnMin= -1241.79065387372     IErMin=12 ErrMin= 3.47D-06
 ErrMax= 3.47D-06  0.00D+00 EMaxC= 1.00D-01 BMatC= 6.51D-08 BMatP= 3.50D-07
 IDIUse=1 WtCom= 1.00D+00 WtEn= 0.00D+00
 Coeff-Com:  0.236D-05-0.277D-04-0.127D-03-0.202D-07-0.797D-05-0.511D-03
 Coeff-Com: -0.223D-02 0.487D-03 0.792D-02 0.561D-01 0.315D+00 0.623D+00
 Coeff:      0.236D-05-0.277D-04-0.127D-03-0.202D-07-0.797D-05-0.511D-03
 Coeff:     -0.223D-02 0.487D-03 0.792D-02 0.561D-01 0.315D+00 0.623D+00
 Gap=     0.131 Goal=   None    Shift=    0.000
 Gap=     0.131 Goal=   None    Shift=    0.000
 RMSDP=1.53D-06 MaxDP=1.34D-04 DE=-8.19D-08 OVMax= 4.42D-05

 Cycle  13  Pass 1  IDiag  1:
 RMSU=  1.02D-06    CP:  9.08D-01  5.55D-01  5.05D-01  1.96D-01  4.35D-01
                    CP:  5.61D-01  8.93D-01  5.07D-01  6.15D-01  7.87D-01
                    CP:  8.79D-01  7.93D-01
 E= -1241.79065388936     Delta-E=       -0.000000015642 Rises=F Damp=F
 DIIS: error= 1.29D-06 at cycle  13 NSaved=  13.
 NSaved=13 IEnMin=13 EnMin= -1241.79065388936     IErMin=13 ErrMin= 1.29D-06
 ErrMax= 1.29D-06  0.00D+00 EMaxC= 1.00D-01 BMatC= 5.07D-09 BMatP= 6.51D-08
 IDIUse=1 WtCom= 1.00D+00 WtEn= 0.00D+00
 Coeff-Com:  0.164D-05-0.115D-04-0.745D-04 0.255D-05 0.301D-04-0.375D-03
 Coeff-Com: -0.109D-02-0.373D-03 0.998D-03 0.128D-01 0.123D+00 0.314D+00
 Coeff-Com:  0.551D+00
 Coeff:      0.164D-05-0.115D-04-0.745D-04 0.255D-05 0.301D-04-0.375D-03
 Coeff:     -0.109D-02-0.373D-03 0.998D-03 0.128D-01 0.123D+00 0.314D+00
 Coeff:      0.551D+00
 Gap=     0.131 Goal=   None    Shift=    0.000
 Gap=     0.131 Goal=   None    Shift=    0.000
 RMSDP=4.15D-07 MaxDP=3.06D-05 DE=-1.56D-08 OVMax= 1.67D-05

 Cycle  14  Pass 1  IDiag  1:
 RMSU=  3.11D-07    CP:  9.08D-01  5.55D-01  5.05D-01  1.96D-01  4.35D-01
                    CP:  5.61D-01  8.92D-01  5.07D-01  6.14D-01  7.88D-01
                    CP:  8.88D-01  7.86D-01  9.38D-01
 E= -1241.79065389030     Delta-E=       -0.000000000932 Rises=F Damp=F
 DIIS: error= 8.19D-07 at cycle  14 NSaved=  14.
 NSaved=14 IEnMin=14 EnMin= -1241.79065389030     IErMin=14 ErrMin= 8.19D-07
 ErrMax= 8.19D-07  0.00D+00 EMaxC= 1.00D-01 BMatC= 1.44D-09 BMatP= 5.07D-09
 IDIUse=1 WtCom= 1.00D+00 WtEn= 0.00D+00
 Coeff-Com:  0.104D-06-0.121D-06-0.404D-04 0.161D-06 0.228D-04-0.185D-03
 Coeff-Com: -0.424D-03-0.415D-03-0.815D-03-0.156D-02 0.319D-01 0.110D+00
 Coeff-Com:  0.370D+00 0.492D+00
 Coeff:      0.104D-06-0.121D-06-0.404D-04 0.161D-06 0.228D-04-0.185D-03
 Coeff:     -0.424D-03-0.415D-03-0.815D-03-0.156D-02 0.319D-01 0.110D+00
 Coeff:      0.370D+00 0.492D+00
 Gap=     0.131 Goal=   None    Shift=    0.000
 Gap=     0.131 Goal=   None    Shift=    0.000
 RMSDP=2.60D-07 MaxDP=2.50D-05 DE=-9.32D-10 OVMax= 5.43D-06

 Cycle  15  Pass 1  IDiag  1:
 RMSU=  1.32D-07    CP:  9.08D-01  5.55D-01  5.05D-01  1.96D-01  4.35D-01
                    CP:  5.61D-01  8.93D-01  5.07D-01  6.13D-01  7.86D-01
                    CP:  8.97D-01  8.02D-01  9.24D-01  8.34D-01
 E= -1241.79065389072     Delta-E=       -0.000000000427 Rises=F Damp=F
 DIIS: error= 1.40D-07 at cycle  15 NSaved=  15.
 NSaved=15 IEnMin=15 EnMin= -1241.79065389072     IErMin=15 ErrMin= 1.40D-07
 ErrMax= 1.40D-07  0.00D+00 EMaxC= 1.00D-01 BMatC= 8.41D-11 BMatP= 1.44D-09
 IDIUse=1 WtCom= 1.00D+00 WtEn= 0.00D+00
 Coeff-Com: -0.467D-06 0.175D-05-0.778D-05-0.160D-07 0.471D-05-0.289D-04
 Coeff-Com: -0.412D-04-0.950D-04-0.393D-03-0.236D-02-0.296D-02 0.461D-02
 Coeff-Com:  0.940D-01 0.242D+00 0.665D+00
 Coeff:     -0.467D-06 0.175D-05-0.778D-05-0.160D-07 0.471D-05-0.289D-04
 Coeff:     -0.412D-04-0.950D-04-0.393D-03-0.236D-02-0.296D-02 0.461D-02
 Coeff:      0.940D-01 0.242D+00 0.665D+00
 Gap=     0.131 Goal=   None    Shift=    0.000
 Gap=     0.131 Goal=   None    Shift=    0.000
 RMSDP=9.19D-08 MaxDP=9.71D-06 DE=-4.27D-10 OVMax= 3.10D-06

 Cycle  16  Pass 1  IDiag  1:
 RMSU=  3.21D-08    CP:  9.08D-01  5.55D-01  5.05D-01  1.96D-01  4.35D-01
                    CP:  5.61D-01  8.92D-01  5.07D-01  6.13D-01  7.86D-01
                    CP:  8.97D-01  8.05D-01  9.61D-01  8.88D-01  7.80D-01
 E= -1241.79065389065     Delta-E=        0.000000000073 Rises=F Damp=F
 DIIS: error= 3.38D-08 at cycle  16 NSaved=  16.
 NSaved=16 IEnMin=15 EnMin= -1241.79065389072     IErMin=16 ErrMin= 3.38D-08
 ErrMax= 3.38D-08  0.00D+00 EMaxC= 1.00D-01 BMatC= 9.09D-12 BMatP= 8.41D-11
 IDIUse=1 WtCom= 1.00D+00 WtEn= 0.00D+00
 Coeff-Com: -0.207D-06 0.891D-06-0.203D-07-0.518D-08 0.263D-06 0.410D-06
 Coeff-Com:  0.613D-05-0.213D-04-0.143D-03-0.104D-02-0.430D-02-0.800D-02
 Coeff-Com:  0.106D-01 0.684D-01 0.316D+00 0.618D+00
 Coeff:     -0.207D-06 0.891D-06-0.203D-07-0.518D-08 0.263D-06 0.410D-06
 Coeff:      0.613D-05-0.213D-04-0.143D-03-0.104D-02-0.430D-02-0.800D-02
 Coeff:      0.106D-01 0.684D-01 0.316D+00 0.618D+00
 Gap=     0.131 Goal=   None    Shift=    0.000
 Gap=     0.131 Goal=   None    Shift=    0.000
 RMSDP=2.38D-08 MaxDP=1.92D-06 DE= 7.28D-11 OVMax= 5.35D-07

 Cycle  17  Pass 1  IDiag  1:
 RMSU=  1.20D-08    CP:  9.08D-01  5.55D-01  5.05D-01  1.96D-01  4.35D-01
                    CP:  5.61D-01  8.92D-01  5.07D-01  6.13D-01  7.86D-01
                    CP:  8.97D-01  8.06D-01  9.66D-01  9.03D-01  8.32D-01
                    CP:  8.76D-01
 E= -1241.79065389064     Delta-E=        0.000000000007 Rises=F Damp=F
 DIIS: error= 2.33D-08 at cycle  17 NSaved=  17.
 NSaved=17 IEnMin=15 EnMin= -1241.79065389072     IErMin=17 ErrMin= 2.33D-08
 ErrMax= 2.33D-08  0.00D+00 EMaxC= 1.00D-01 BMatC= 1.40D-12 BMatP= 9.09D-12
 IDIUse=1 WtCom= 1.00D+00 WtEn= 0.00D+00
 Coeff-Com: -0.697D-07 0.319D-06 0.685D-06 0.584D-08-0.728D-07 0.178D-05
 Coeff-Com:  0.439D-05-0.703D-05-0.593D-04-0.421D-03-0.209D-02-0.464D-02
 Coeff-Com: -0.391D-03 0.212D-01 0.131D+00 0.363D+00 0.492D+00
 Coeff:     -0.697D-07 0.319D-06 0.685D-06 0.584D-08-0.728D-07 0.178D-05
 Coeff:      0.439D-05-0.703D-05-0.593D-04-0.421D-03-0.209D-02-0.464D-02
 Coeff:     -0.391D-03 0.212D-01 0.131D+00 0.363D+00 0.492D+00
 Gap=     0.131 Goal=   None    Shift=    0.000
 Gap=     0.131 Goal=   None    Shift=    0.000
 RMSDP=6.54D-09 MaxDP=5.61D-07 DE= 7.28D-12 OVMax= 2.17D-07

 SCF Done:  E(UB3LYP) =  -1241.79065389     A.U. after   17 cycles
            NFock= 17  Conv=0.65D-08     -V/T= 2.0045
 <Sx>= 0.0000 <Sy>= 0.0000 <Sz>= 0.0000 <S**2>=-0.0000 S=-0.0000
 <L.S>=  0.00000000000    
 KE= 1.236166614164D+03 PE=-8.847302996951D+03 EE= 3.386684114340D+03
 Annihilation of the first spin contaminant:
 S**2 before annihilation    -0.0000,   after    -0.0000
 Leave Link  502 at Sat Jan  6 02:09:45 2024, MaxMem=  4026531840 cpu:           16247.3 elap:            2047.1
 (Enter /sysapps/ubuntu-applications/gaussian/Gaussian/AVX2/g16/l601.exe)
 Copying SCF densities to generalized density rwf, IOpCl= 1 IROHF=0.

 **********************************************************************

            Population analysis using the SCF density.

 **********************************************************************

 Alpha  occ. eigenvalues --  -19.10925 -19.10921 -10.25992 -10.25990 -10.21963
 Alpha  occ. eigenvalues --  -10.21885 -10.21335 -10.21332 -10.21296 -10.21294
 Alpha  occ. eigenvalues --  -10.18829 -10.18827 -10.18809 -10.18807 -10.18346
 Alpha  occ. eigenvalues --  -10.18345 -10.18333 -10.18331 -10.18072 -10.18071
 Alpha  occ. eigenvalues --  -10.18033 -10.18032 -10.17483 -10.17482 -10.17458
 Alpha  occ. eigenvalues --  -10.17457 -10.16498 -10.16498 -10.16476 -10.16475
 Alpha  occ. eigenvalues --   -1.03938  -1.03930  -0.90035  -0.86693  -0.83629
 Alpha  occ. eigenvalues --   -0.82849  -0.81296  -0.81026  -0.78994  -0.78502
 Alpha  occ. eigenvalues --   -0.77039  -0.74855  -0.74730  -0.72473  -0.72425
 Alpha  occ. eigenvalues --   -0.68948  -0.66348  -0.66219  -0.65209  -0.64258
 Alpha  occ. eigenvalues --   -0.60194  -0.59591  -0.59531  -0.59484  -0.59261
 Alpha  occ. eigenvalues --   -0.58430  -0.57642  -0.56985  -0.54099  -0.51601
 Alpha  occ. eigenvalues --   -0.49825  -0.49365  -0.49032  -0.48219  -0.47897
 Alpha  occ. eigenvalues --   -0.46911  -0.46492  -0.45799  -0.45299  -0.45143
 Alpha  occ. eigenvalues --   -0.45009  -0.44492  -0.44425  -0.43900  -0.43805
 Alpha  occ. eigenvalues --   -0.43352  -0.42376  -0.42216  -0.42157  -0.42009
 Alpha  occ. eigenvalues --   -0.41852  -0.40291  -0.40206  -0.40098  -0.39588
 Alpha  occ. eigenvalues --   -0.38927  -0.38506  -0.38392  -0.37820  -0.37050
 Alpha  occ. eigenvalues --   -0.36858  -0.36588  -0.36376  -0.35946  -0.35220
 Alpha  occ. eigenvalues --   -0.35123  -0.34819  -0.34700  -0.34649  -0.34385
 Alpha  occ. eigenvalues --   -0.34228  -0.34180  -0.34172  -0.33706  -0.33147
 Alpha  occ. eigenvalues --   -0.32590  -0.29246  -0.26591  -0.26276  -0.25019
 Alpha  occ. eigenvalues --   -0.24997  -0.24359
 Alpha virt. eigenvalues --   -0.11214  -0.07049  -0.02999  -0.01744  -0.01343
 Alpha virt. eigenvalues --   -0.01033  -0.00725  -0.00446  -0.00376  -0.00231
 Alpha virt. eigenvalues --    0.00051   0.00806   0.01026   0.01090   0.01190
 Alpha virt. eigenvalues --    0.01306   0.01630   0.01918   0.02663   0.03260
 Alpha virt. eigenvalues --    0.03312   0.03351   0.03956   0.04063   0.04149
 Alpha virt. eigenvalues --    0.04482   0.04542   0.04608   0.04915   0.05025
 Alpha virt. eigenvalues --    0.05336   0.05524   0.05875   0.05988   0.06221
 Alpha virt. eigenvalues --    0.06338   0.06408   0.06679   0.07315   0.07438
 Alpha virt. eigenvalues --    0.07521   0.07651   0.07795   0.08024   0.08513
 Alpha virt. eigenvalues --    0.08573   0.08618   0.08990   0.09064   0.09330
 Alpha virt. eigenvalues --    0.09745   0.10081   0.10461   0.10540   0.10685
 Alpha virt. eigenvalues --    0.10857   0.10971   0.11212   0.11335   0.11521
 Alpha virt. eigenvalues --    0.11769   0.11986   0.12095   0.12156   0.12167
 Alpha virt. eigenvalues --    0.12276   0.12778   0.12869   0.13111   0.13168
 Alpha virt. eigenvalues --    0.13232   0.13344   0.13747   0.13816   0.14046
 Alpha virt. eigenvalues --    0.14181   0.14275   0.14343   0.14504   0.14658
 Alpha virt. eigenvalues --    0.14670   0.14908   0.15165   0.15203   0.15289
 Alpha virt. eigenvalues --    0.15290   0.15420   0.15864   0.15926   0.15928
 Alpha virt. eigenvalues --    0.16034   0.16247   0.16491   0.16747   0.16822
 Alpha virt. eigenvalues --    0.17130   0.17294   0.17516   0.17565   0.17598
 Alpha virt. eigenvalues --    0.17881   0.17894   0.17978   0.18135   0.18140
 Alpha virt. eigenvalues --    0.18518   0.18641   0.18792   0.18943   0.19054
 Alpha virt. eigenvalues --    0.19130   0.19217   0.19280   0.19352   0.19667
 Alpha virt. eigenvalues --    0.20288   0.20300   0.20396   0.20413   0.20655
 Alpha virt. eigenvalues --    0.20790   0.21137   0.21427   0.21857   0.22002
 Alpha virt. eigenvalues --    0.22049   0.22234   0.22363   0.22454   0.22653
 Alpha virt. eigenvalues --    0.22699   0.22908   0.22946   0.23299   0.23865
 Alpha virt. eigenvalues --    0.23983   0.24023   0.24230   0.24411   0.24473
 Alpha virt. eigenvalues --    0.25097   0.25283   0.25453   0.25722   0.25728
 Alpha virt. eigenvalues --    0.25972   0.26155   0.26564   0.26572   0.26860
 Alpha virt. eigenvalues --    0.26911   0.27110   0.27230   0.27326   0.28017
 Alpha virt. eigenvalues --    0.28180   0.28334   0.28408   0.28662   0.28807
 Alpha virt. eigenvalues --    0.28947   0.29204   0.29458   0.29747   0.29754
 Alpha virt. eigenvalues --    0.30222   0.30613   0.30787   0.31013   0.31063
 Alpha virt. eigenvalues --    0.31322   0.31730   0.31870   0.32143   0.32314
 Alpha virt. eigenvalues --    0.32443   0.32865   0.33057   0.33434   0.33762
 Alpha virt. eigenvalues --    0.33901   0.34001   0.34235   0.34265   0.34701
 Alpha virt. eigenvalues --    0.34746   0.34891   0.35048   0.35378   0.35416
 Alpha virt. eigenvalues --    0.35441   0.36202   0.36228   0.36814   0.37028
 Alpha virt. eigenvalues --    0.37046   0.37480   0.37549   0.37875   0.38208
[...]
 00193646,-0.00627688,0.00006543,0.01867566,0.05279659,-0.00002858,-0.0
 0001492,-0.00002203,-0.00000554,0.00001889,-0.00000201,0.00002279,0.00
 001565,-0.00000403,-0.00003527,-0.00002221,0.00000008,0.00001393,0.000
 01668,0.00001768,0.00000976,-0.00006706,-0.00003403,0.00000761,0.00001
 857,0.00001953,-0.00000503,-0.00001117,0.00002353,0.00001465,-0.000006
 78,0.00000848,-0.00001363,-0.00000931,-0.00001739,0.00000807,0.0000011
 5,-0.00002850,0.00000612,0.00003012,0.00007651,0.00001851,0.00000422,0
 .00001962,-0.00001220,-0.00002989,-0.00006301,-0.00001683,-0.00000232,
 0.00000943,0.00004722,-0.00001710,-0.00004658,-0.00000413,0.00000280,0
 .00002391,0.00001324,-0.00002226,-0.00003912,-0.00000183,-0.00000261,0
 .00000420,0.00000126,-0.00000220,-0.00000456,0.00000064,-0.00000106,0.
 00000064,-0.00000055,-0.00000067,0.00000033,-0.00000016,-0.00000009,0.
 00000598,-0.00000461,0.00000049,-0.00000136,-0.00000143,-0.00000053,0.
 00000133,0.00000010,-0.00000022,0.00000016,0.00013182,-0.00009908,-0.0
 0002867,-0.00079356,0.00013460,0.00003457,0.00212521,0.00007177,-0.000
 38486,-0.04472588,-0.00277260,-0.05578162,0.00000098,0.00000218,-0.000
 00126,0.00000036,-0.00000027,-0.00000516,0.00000299,0.00001076,-0.0000
 0389,0.00000040,-0.00000103,-0.00000077,0.00000055,0.00001576,0.000003
 60,-0.00000130,0.00000464,-0.00000270,-0.00000610,-0.00002769,0.000053
 31,0.00000406,-0.00000584,-0.00002321,-0.00001408,0.00001241,0.0000054
 0,-0.00000584,0.00001045,-0.00001160,0.00001429,0.00000080,-0.00002589
 ,-0.00002793,0.00001609,0.00000995,0.00002033,0.00000227,0.00005344,0.
 00000159,-0.00000164,0.00000053,-0.00000072,-0.00000345,-0.00000561,0.
 00000052,0.00000033,0.00000100,-0.00000021,0.00000286,-0.00000117,0.00
 000042,-0.00000025,0.00000039,-0.00000049,-0.00000007,-0.00000160,-0.0
 0000005,0.00000063,-0.00000104,-0.00000023,0.00000072,0.00000065,0.000
 00064,0.,0.00000016,-0.00000481,-0.00000208,-0.00000455,0.00000361,0.0
 0000092,-0.00000195,0.00000017,0.00000263,-0.00000048,0.00000117,-0.00
 000186,-0.00000131,-0.00000078,0.00000013,-0.00000044,0.00000131,-0.00
 000033,-0.00000114,0.00000015,-0.00000054,-0.00000060,0.00000087,0.000
 00062,0.00000032,-0.00000053,0.00000046,-0.00000034,0.00000590,0.00004
 075,-0.00002004,0.00005340,0.00004728,-0.00002894,-0.00012034,-0.00000
 963,-0.00002505,0.00010795,-0.00024109,0.00013677,0.00054165,-0.000302
 60,0.00019025,0.00029022,0.00042999,0.00094884,0.04904950,0.00271316,0
 .05507836,-0.00005993,0.00004373,0.00003068,0.00002877,-0.00001222,-0.
 00008659,0.00002260,0.00000174,0.00001154,-0.00001483,-0.00001219,-0.0
 0000152,0.00001573,0.00000657,-0.00000683,-0.00008639,-0.00013515,0.00
 009597,-0.00000161,0.00000944,0.00000362,-0.00000340,-0.00000088,0.000
 00666,0.00000588,-0.00000842,0.00000024,-0.00001330,0.00000341,-0.0000
 0266,0.00000605,0.00000222,-0.00001058,0.00001432,0.00000686,0.0000427
 0,0.00001018,-0.00000866,-0.00001476,-0.00001043,-0.00000898,-0.000039
 18,-0.00001836,0.00000632,0.00000808,0.00005301,-0.00002219,-0.0000485
 1,-0.00000333,0.00000976,0.00001676,0.00001474,-0.00002223,-0.00003489
 ,0.00000154,0.00000087,0.00000110,-0.00000049,-0.00000281,-0.00000026,
 0.00000172,-0.00000038,-0.00000095,-0.00000071,-0.00000039,0.00000111,
 -0.00000207,-0.00000221,-0.00000227,-0.00000154,-0.00000196,0.00000199
 ,-0.00000082,-0.00000030,0.00000055,0.00000058,-0.00000095,0.00000073,
 0.00057892,-0.00055654,-0.00020606,-0.00038814,-0.00165963,0.00023504,
 0.00487557,-0.00650816,-0.00890323,-0.10699522,0.06808380,0.08664124,-
 0.00001014,-0.00001588,-0.00000261,0.00000136,-0.00000056,-0.00000331,
 0.00000222,0.00000152,0.00000031,-0.00000050,-0.00000071,0.00000023,0.
 00000100,0.00001358,0.00000439,0.00000145,0.00000026,-0.00000218,-0.00
 001418,-0.00001505,0.00003312,-0.00000067,-0.00000136,-0.00000754,-0.0
 0001212,0.00000739,0.00000610,0.,0.00000240,-0.00000737,0.00000653,0.0
 0000222,-0.00000671,-0.00002172,0.00001035,0.00000879,0.00001370,0.000
 01152,0.00003119,0.00000037,-0.00000108,0.00000068,-0.00000113,-0.0000
 0204,-0.00000278,-0.00000001,0.00000017,0.00000009,0.00000006,0.000001
 50,-0.00000085,-0.00000040,-0.00000018,0.00000032,-0.00000029,0.000000
 03,-0.00000079,0.00000017,0.00000029,-0.00000106,-0.00000036,0.0000013
 0,0.00000097,0.00000032,-0.00000014,-0.00000023,0.00000178,-0.00000212
 ,-0.00000386,0.00000036,-0.00000229,0.00000439,-0.00000066,0.00000113,
 -0.00000103,-0.00000030,0.00000089,0.00000010,0.00000016,-0.00000005,-
 0.00000186,0.00000028,-0.00000064,0.00000125,-0.00000048,0.00000033,0.
 00000017,0.00000116,0.00000052,0.00000034,-0.00000076,0.00000082,-0.00
 000096,0.00000381,0.00000837,0.00000367,0.00001773,0.00012006,-0.00003
 059,-0.00014788,0.00002911,0.00014654,0.00043463,-0.00029542,-0.000075
 14,0.00018992,0.00070337,0.00001601,0.00057235,0.00054364,-0.00035604,
 -0.01474990,0.01711006,0.02282109,0.11286415,-0.00027238,0.00024988,0.
 00031596,0.00023585,-0.00016858,-0.00036754,0.00008939,-0.00004821,0.0
 0005385,0.00003545,-0.00002082,-0.00000513,-0.00006223,-0.00003216,-0.
 00014399,-0.00039854,-0.00034031,0.00038263,-0.00001372,-0.00005487,-0
 .00003748,0.00000719,0.00001878,-0.00004751,-0.00005238,0.00003934,-0.
 00000475,0.00006630,-0.00001168,0.00002550,0.00000785,-0.00000195,0.00
 003969,-0.00009417,-0.00003513,-0.00013295,0.00003056,-0.00007400,-0.0
 0021591,0.00005822,0.00003613,0.00013476,-0.00001937,0.00004606,-0.000
 01411,0.00002591,-0.00000708,0.00002827,-0.00001988,0.00000070,-0.0000
 1109,0.00001794,-0.00000984,-0.00000403,0.00000330,0.00000619,0.000002
 75,-0.00000002,0.00000653,-0.00000278,-0.00000660,0.00000174,0.0000031
 5,0.00000236,0.00000076,-0.00000371,-0.00000927,-0.00001461,-0.0000490
 0,0.00001232,0.00001314,0.00002143,0.00001483,-0.00000291,-0.00001046,
 -0.00000652,0.00000303,0.00000080,0.00111582,-0.00082196,-0.00152021,-
 0.00349618,-0.00537547,0.00210488,0.01612389,-0.01668704,-0.02229417,0
 .06723327,-0.12202273,-0.09664279,-0.00002097,-0.00006275,0.00002368,0
 .00001807,0.00000187,-0.00000430,-0.00000122,-0.00001072,0.00000533,0.
 00000296,-0.00000734,0.00000579,0.00000982,0.00000078,-0.00000631,0.00
 000414,-0.00000095,0.00000630,-0.00000837,-0.00001615,-0.00000897,-0.0
 0000137,-0.00000497,-0.00000570,0.00000756,0.00000521,0.00000092,0.000
 00229,0.00000114,0.00000102,-0.00000087,0.00000095,-0.00000598,0.00000
 434,0.00001163,0.00000104,-0.00000458,-0.00000044,0.00000960,0.0000079
 1,-0.00000563,0.00000247,-0.00000720,0.00000396,0.00000374,0.00000427,
 0.00000397,-0.00000070,0.00000117,-0.00000255,0.00000186,0.00000337,-0
 .00000104,-0.00000012,-0.00000084,-0.00000021,0.00000180,-0.00000045,-
 0.00000066,0.00000312,0.00000130,-0.00000471,-0.00000327,-0.00000031,0
 .00000136,0.00000071,0.00002551,0.00001940,0.00002843,0.00000075,0.000
 00101,0.00000500,-0.00000067,-0.00001663,0.00000360,-0.00000418,0.0000
 0246,-0.00000110,0.00000387,0.00000072,0.00000381,-0.00000426,0.000001
 34,0.00000513,0.00000080,0.00000158,0.00000067,-0.00000619,-0.00000599
 ,-0.00000251,0.00000330,-0.00000275,0.00000252,0.00007852,0.00007479,0
 .00004499,-0.00005776,0.00002536,-0.00005850,-0.00020316,0.00017112,-0
 .00008929,-0.00002886,0.00019335,0.00031723,0.00062062,0.00097344,0.00
 050865,-0.00034152,0.00126461,-0.00016560,-0.00062268,0.00072732,0.002
 18814,-0.07286853,0.13460196,-0.00003269,0.00002950,0.00006674,0.00003
 356,-0.00003213,-0.00001047,0.00001104,-0.00001386,0.00000525,0.000007
 47,0.00000026,-0.00000023,-0.00001679,-0.00000797,-0.00003148,-0.00004
 473,0.00004745,0.00004505,-0.00000505,-0.00001520,-0.00001451,0.000006
 37,0.00000477,-0.00000701,-0.00001632,0.00001754,0.00000336,0.00002076
 ,-0.00001492,0.00000289,0.00000326,-0.00000284,0.00000535,-0.00004152,
 -0.00000038,-0.00003613,0.00000205,-0.00001780,-0.00005098,0.00002456,
 -0.00000020,0.00004060,0.00000440,0.00000954,-0.00000091,-0.00001147,0
 .00000929,0.00000873,-0.00000640,-0.00000793,-0.00000369,0.00000265,0.
 00000539,0.00000165,-0.00000095,-0.00000133,0.00000111,0.00000257,0.00
 000500,-0.00000263,-0.00000460,0.00000046,0.00000302,0.00000204,0.0000
 0035,-0.00000263,-0.00000426,-0.00001338,-0.00001215,0.00000358,0.0000
 1089,0.00000663,0.00000858,-0.00000293,-0.00000215,-0.00000398,0.00000
 216,-0.00000056,0.00030291,0.00015601,0.00027118,-0.00033583,0.0000626
 5,0.00064319,-0.00190904,0.00236447,0.00138037,0.08640429,-0.09759209,
 -0.17155816,0.00001286,0.00000539,0.00000829,0.00000340,0.00000390,0.0
 0000045,0.00000076,0.00000398,-0.00000055,0.00000210,-0.00000254,0.000
 00152,0.00000309,-0.00000477,-0.00000507,0.00000018,-0.00000276,0.0000
 0322,-0.00000037,-0.00000078,-0.00002117,-0.00000519,0.00000172,0.0000
 1436,0.00000770,-0.00000081,-0.00000350,0.00000333,-0.00000138,0.00000
 452,-0.00000761,-0.00000159,0.00000702,0.00001172,-0.00000172,0.000001
 29,-0.00000628,-0.00000236,-0.00001047,0.00000302,-0.00000142,0.000000
 35,-0.00000121,0.00000227,0.00000193,0.00000140,0.00000135,-0.00000012
 ,0.00000015,-0.00000139,0.00000100,0.00000158,-0.00000039,-0.00000026,
 -0.00000006,-0.00000002,0.00000069,-0.00000046,-0.00000026,0.00000189,
 0.00000098,-0.00000328,-0.00000224,-0.00000066,0.00000068,0.00000065,0
 .00000809,0.00000596,0.00001164,0.00000371,0.00000488,-0.00000238,-0.0
 0000054,-0.00000642,0.00000146,-0.00000100,-0.00000130,-0.00000124,0.0
 0000102,0.00000056,0.00000074,-0.00000125,0.00000094,0.00000174,0.0000
 0108,0.00000024,0.00000009,-0.00000426,-0.00000407,-0.00000119,0.00000
 179,-0.00000099,0.00000121,-0.00003937,-0.00009151,0.00000382,-0.00001
 839,0.00000256,-0.00001752,-0.00002578,0.00022519,0.00049617,0.0001223
 1,0.00004161,-0.00008230,-0.00031586,-0.00032385,0.00061896,-0.0003318
 4,-0.00037012,-0.00004624,-0.00289628,0.00438520,0.00446142,-0.0954411
 3,0.10698234,0.18350192,-0.00000007,0.00000708,0.00001057,0.00002081,-
 0.00003230,0.00000588,-0.00000326,-0.00000933,0.00000804,0.00001186,0.
 00000815,-0.00000946,-0.00001128,-0.00000441,-0.00000812,-0.00002879,0
 .00007495,-0.00003652,-0.00000598,-0.00001120,-0.00000650,0.00000252,0
 .00000470,-0.00001002,-0.00000708,0.00000565,-0.00000632,0.00000973,-0
 .00000218,0.00001105,0.00000093,0.00000108,0.00001441,-0.00002281,-0.0
 0001917,-0.00004753,-0.00000732,-0.00000598,-0.00000965,0.00001705,0.0
 0002012,0.00003940,0.00000544,0.00000217,0.00000619,-0.00000139,0.0000
 0257,-0.00001853,-0.00000122,-0.00000086,-0.00000090,0.00000718,0.0000
 0010,-0.00001453,0.00000125,0.00000136,-0.00000243,-0.00000093,0.00000
 105,0.00000224,-0.00000050,0.00000079,-0.00000055,0.00000040,0.0000003
 6,-0.00000020,-0.00000365,-0.00000097,0.00000076,0.00000399,0.00000302
 ,0.00000006,0.00000285,-0.00000098,0.00000059,-0.00000093,0.00000033,-
 0.00000039,-0.00002401,0.00005809,0.00017484,0.00000159,0.00050770,-0.
 00022055,0.00162050,-0.00458865,0.01045099,-0.05708777,0.01972310,-0.0
 4421839,0.00000628,0.00000344,-0.00000209,-0.00000169,0.00000284,0.000
 00274,-0.00000055,-0.00000004,-0.00000048,0.00000036,-0.00000143,0.000
 00040,-0.00000011,-0.00000251,-0.00000091,0.00000214,-0.00000761,0.000
 00103,-0.00000714,0.00000745,-0.00002445,-0.00000813,0.00000741,0.0000
 3124,0.00000327,-0.00000245,-0.00000115,0.00000887,-0.00001141,0.00000
 717,-0.00001335,0.00000100,0.00003002,0.00001057,-0.00000646,0.0000024
 1,-0.00000987,0.00001029,-0.00002438,-0.00000026,0.00000033,-0.0000000
 5,-0.00000013,0.00000188,0.00000314,0.00000007,0.00000008,-0.00000039,
 0.00000002,-0.00000152,0.00000071,-0.00000007,0.00000003,-0.00000023,0
 .00000031,-0.00000002,0.00000098,0.00000002,-0.00000037,0.00000069,0.0
 0000018,-0.00000046,-0.00000046,-0.00000035,0.00000006,-0.00000004,0.0
 0000494,0.00000107,0.00000213,0.00000271,0.00000294,-0.00000041,-0.000
 00078,-0.00000204,0.00000018,-0.00000102,-0.00000055,0.00000026,0.0000
 0062,0.00000017,-0.00000093,-0.00000057,0.00000037,0.00000134,0.000000
 04,0.00000033,0.00000043,-0.00000122,-0.00000139,-0.00000032,0.0000003
 9,0.,0.00000006,-0.00004101,0.00000785,-0.00001972,-0.00003740,-0.0000
 3432,0.00000537,0.00021557,0.00017349,-0.00007997,-0.00001423,0.000033
 20,-0.00014237,0.00024680,-0.00249558,0.00012889,0.00035699,0.00052385
 ,0.00054823,-0.00522830,0.01269571,-0.02951243,0.00281895,-0.00724575,
 0.01450081,0.05718798,-0.00000446,-0.00000957,0.00001583,0.00006171,-0
 .00001601,-0.00003946,-0.00000453,0.00000804,-0.00001490,-0.00001706,-
 0.00000854,0.00001919,0.00000467,0.00001379,0.00001150,-0.00000580,-0.
 00000110,-0.00013798,-0.00000241,0.00002093,0.00002364,-0.00000486,-0.
 00001901,0.00002545,0.00001457,-0.00000179,0.00000408,0.00000112,-0.00
 002361,-0.00001674,0.00000971,0.00000177,-0.00002547,-0.00003756,0.000
 02161,0.00003096,-0.00000935,0.00000864,-0.00003763,0.00001172,-0.0000
 1584,-0.00002514,-0.00000485,-0.00000570,-0.00000366,0.00000773,-0.000
 00703,0.00000764,0.00000211,0.00000528,0.00000009,-0.00000008,-0.00000
 630,0.00000067,-0.00000262,-0.00000473,0.00000509,0.00000225,0.0000000
 9,-0.00000480,-0.00000097,-0.00000086,0.00000228,0.00000035,-0.0000004
 1,-0.00000090,-0.00000388,0.00000698,0.00002436,-0.00000072,0.00000691
 ,-0.00000954,0.00000124,-0.00000207,0.00000578,-0.00000144,0.00000114,
 -0.00000100,-0.00017176,0.00001953,-0.00016738,0.00012248,0.00156611,0
 .00186509,0.00657423,-0.01409262,0.02944322,0.01941753,-0.08628180,0.0
 9006695,-0.00001656,-0.00001265,-0.00000280,0.00000045,-0.00000238,-0.
 00000345,0.00000169,0.00002258,-0.00001083,0.00000200,-0.00000193,-0.0
 0000241,0.00000134,0.00000365,0.00000020,-0.00000392,0.00000413,-0.000
 00094,0.00000102,-0.00000710,0.00001494,0.00000750,-0.00000182,-0.0000
 1846,-0.00000276,0.00000100,0.00000159,-0.00000532,0.00000212,-0.00000
 393,0.00000518,0.00000320,-0.00000731,-0.00000618,0.00000351,-0.000000
 75,0.00000388,0.00000112,0.00000828,0.00000164,-0.00000107,-0.00000040
 ,0.00000048,-0.00000180,-0.00000382,0.00000059,0.00000020,0.00000152,-
 0.00000049,0.00000188,-0.00000073,0.00000076,-0.00000021,-0.00000007,-
 0.00000020,0.00000008,-0.00000138,-0.00000037,0.00000049,-0.00000036,0
 .00000029,-0.00000066,-0.00000026,0.00000015,0.00000018,0.00000063,-0.
 00000544,0.00000409,-0.00000511,0.00001113,0.00001161,-0.00001305,-0.0
 0000027,0.00000193,0.00000077,0.00000181,-0.00000710,-0.00000239,-0.00
 000095,0.00000066,-0.00000090,0.00000258,0.00000063,-0.00000254,0.0000
 0127,-0.00000144,-0.00000087,-0.00000135,-0.00000141,0.00000024,0.0000
 0001,0.00000028,0.00000005,0.00001393,0.00029330,-0.00017255,0.0000019
 4,-0.00001021,0.00004658,0.00009651,-0.00017062,-0.00108489,0.00003854
 ,-0.00005602,-0.00009040,-0.00227137,-0.00598931,-0.00035097,-0.000060
 93,0.00142082,-0.00035448,0.00020390,0.00004513,-0.00213846,-0.0045752
 8,0.00736123,-0.01584782,-0.01940625,0.09589810,0.00004952,-0.00005403
 ,-0.00012353,-0.00006660,0.00004781,0.00009982,-0.00000815,0.00000537,
 0.00000142,0.00000430,0.00001081,-0.00001648,0.00000334,-0.00000142,0.
 00002245,0.00004122,0.00003337,-0.00008620,0.00000170,-0.00000517,-0.0
 0000036,-0.00000881,0.00001034,-0.00001418,0.00000131,-0.00000903,-0.0
 0001139,-0.00000420,0.00002453,0.00001186,-0.00000659,0.00000290,0.000
 02113,0.00002876,-0.00002663,-0.00003152,0.00001031,0.00001373,0.00010
 039,-0.00001135,0.00002697,0.00001920,0.00000325,-0.00000637,0.0000072
 1,0.00000369,-0.00000353,-0.00003037,0.00000582,0.00000538,0.00000508,
 -0.00000021,-0.00000013,-0.00001370,0.00000361,0.00000530,-0.00000444,
 -0.00000436,-0.00000368,0.00000628,0.00000428,0.00000064,-0.00000446,-
 0.00000187,0.00000024,0.00000248,0.00000681,0.00000325,-0.00000373,0.0
 0000025,-0.00000963,-0.00000035,-0.00000531,0.00000268,-0.00000332,0.0
 0000290,-0.00000204,0.00000066,-0.00000344,-0.00002155,0.00037853,0.00
 009521,-0.00059029,0.00090308,0.00046387,0.00037901,-0.00070074,-0.044
 00764,0.09099832,-0.25468630,0.00000623,0.00001348,-0.00000742,-0.0000
 0530,0.00000050,0.00000338,-0.00000249,-0.00001600,0.00000440,-0.00000
 247,0.00000181,-0.00000023,-0.00000374,0.00000159,0.00000402,0.0000029
 8,-0.00000409,-0.00000164,-0.00000331,0.00000751,0.00000124,-0.0000015
 1,0.00000327,0.00001619,-0.00000518,-0.00000141,0.00000136,0.00000512,
 -0.00000865,0.00000285,-0.00000292,0.00000062,0.00001989,-0.00000023,-
 0.00000549,0.00000044,-0.00000257,0.00000849,-0.00001104,-0.00000362,0
 .00000190,-0.00000042,0.00000106,-0.00000032,0.00000245,-0.00000152,-0
 .00000131,-0.00000109,0.00000017,-0.00000074,0.00000015,-0.00000180,0.
 00000056,-0.00000002,0.00000044,-0.00000020,0.00000104,0.00000069,-0.0
 0000036,-0.00000074,-0.00000106,0.00000311,0.00000188,0.00000037,-0.00
 000064,-0.00000104,-0.00000087,-0.00000550,-0.00000442,-0.00000639,-0.
 00000539,0.00000603,0.00000070,0.00000197,-0.00000117,-0.00000053,0.00
 000332,0.00000267,-0.00000023,-0.00000091,0.00000033,-0.00000115,-0.00
 000041,0.00000103,-0.00000194,0.00000092,0.00000088,0.00000373,0.00000
 337,0.00000033,-0.00000089,0.00000024,-0.00000066,-0.00001988,-0.00019
 060,-0.00009771,0.00000318,0.00000684,-0.00001873,-0.00027027,0.000448
 57,0.00046958,0.00001395,0.00000955,-0.00005012,0.00056811,-0.00024335
 ,0.00146564,0.00054672,0.00037257,0.00032223,-0.00096983,0.00118935,-0
 .00456384,-0.00487346,0.00858842,-0.01970350,0.04842811,-0.10101971,0.
 27628723\\0.00000117,0.00000233,-0.00000156,-0.00000119,-0.00000397,0.
 00000397,-0.00000281,-0.00000124,0.00000024,0.00000295,0.00000390,-0.0
 0000096,0.00000258,0.00000154,0.00000360,-0.00000384,0.00000577,-0.000
 00218,0.00000096,0.00000091,-0.00000419,0.00000511,-0.00000345,0.00000
 471,-0.00000416,0.00000079,0.00000175,-0.00000076,0.00000095,-0.000003
 59,-0.00000395,-0.00000156,0.00000180,0.00000164,-0.00000003,0.0000019
 8,-0.00000090,-0.00000048,-0.00000155,-0.00000016,-0.00000070,-0.00000
 051,-0.00000202,-0.00000458,0.00000227,-0.00000061,-0.00000257,0.00000
 006,0.00000035,0.00000022,0.00000048,0.00000182,0.00000100,-0.00000009
 ,0.00000327,0.00000007,-0.00000270,0.00000196,0.00000176,0.00000058,-0
 .00000135,-0.00000090,-0.00000039,0.00000019,-0.00000117,-0.00000058,-
 0.00000179,0.00000007,-0.00000040,0.00000026,0.00000287,0.00000094,-0.
 00000019,-0.00000021,-0.00000057,-0.00000156,-0.00000064,0.00000026,0.
 00000541,-0.00000406,0.00000020,0.00000159,-0.00000331,0.,0.00000042,0
 .00000102,0.00000087,0.00000003,0.00000185,0.00000097,-0.00000094,0.00
 000012,0.00000043,0.00000092,-0.00000055,-0.00000121,-0.00000060,0.000
 00064,0.00000004,0.00000125,-0.00000022,0.00000014,-0.00000145,0.00000
 003,-0.00000032,0.00000169,0.00000045,-0.00000057,0.00000008,0.0000005
 6,-0.00000016,-0.00000029,0.00000094,-0.00000032,-0.00000013,-0.000000
 48,-0.00000024,-0.00000020,-0.00000062,-0.00000048,0.00000052,-0.00000
 041,0.,0.00000026,-0.00000014,0.00000022,0.00000023,-0.00000049,-0.000
 00015,-0.00000064,-0.00000025,-0.00000182,-0.00000104,-0.00000016,0.00
 000042,-0.00000091,-0.00000063,0.00000072,-0.00000126,-0.00000091,0.00
 000041,-0.00000037,-0.00000006,-0.00000012,-0.00000018,0.00000003,0.00
 000008,-0.00000057,-0.00000010,-0.00000029,-0.00000098,-0.00000027,-0.
 00000024,-0.00000073,0.00000002,0.00000007,-0.00000028,0.00000007,-0.0
 0000051,-0.00000038,-0.00000024,-0.00000016,0.00000010,-0.00000010,-0.
 00000019,0.00000059,-0.00000035,-0.00000063,-0.00000017,0.00000059,0.0
 0000041,-0.00000004,0.00000050,0.00000016,-0.00000024,0.00000045,0.000
 00010,-0.00000027,0.00000009,-0.00000023,-0.00000052,0.00000042,-0.000
 00004,-0.00000277,0.00000200,0.00000096,0.00000056,0.00000113,-0.00000
 252,0.00000045,0.00000081,-0.00000009,0.00000071,0.00000042,0.00000058
 ,0.00000052,-0.00000009,-0.00000037,0.00000068,0.00000021,-0.00000019,
 0.00000058,-0.00000017,0.00000014,0.00000102,0.00000053,0.00000023,0.0
 0000042,0.00000004,0.00000033\\\@


 Cherishing children is the mark of a civilized society.
 -- Joan Ganz Cooney
 Job cpu time:       7 days  5 hours 39 minutes 33.1 seconds.
 Elapsed time:       0 days 21 hours 44 minutes 50.3 seconds.
 File lengths (MBytes):  RWF=  14948 Int=      0 D2E=      0 Chk=    106 Scr=      1
 Normal termination of Gaussian 16 at Sun Jan  7 06:46:06 2024.
