
Running Job 1 of 1 025-COSMO.in
qchem 025-COSMO.in_3786282.0 /expanse/lustre/scratch/selhajj/temp_project/qcscratch/28914156/qchem3786282/ 0
/cm/shared/apps/spack/cpu/opt/spack/linux-centos8-zen2/gcc-10.2.0/qchem-5.4-akfmr7b3t57bfs6qan3padb2wnb2i7cl/exe/qcprog.exe_s 025-COSMO.in_3786282.0 /expanse/lustre/scratch/selhajj/temp_project/qcscratch/28914156/qchem3786282/
                  Welcome to Q-Chem
     A Quantum Leap Into The Future Of Chemistry


 Q-Chem 5.4, Q-Chem, Inc., Pleasanton, CA (2021)

 License issued to: University of California, San Diego (site)

 E. Epifanovsky,  A. T. B. Gilbert,  Xintian Feng,  Joonho Lee,  Yuezhi Mao,  
 N. Mardirossian,  P. Pokhilko,  A. White,  M. Wormit,  M. P. Coons,  
 A. L. Dempwolff,  Zhengting Gan,  D. Hait,  P. R. Horn,  L. D. Jacobson,  
 I. Kaliman,  J. Kussmann,  A. W. Lange,  Ka Un Lao,  D. S. Levine,  Jie Liu,  
 S. C. McKenzie,  A. F. Morrison,  K. Nanda,  F. Plasser,  D. R. Rehn,  
 M. L. Vidal,  Zhi-Qiang You,  Ying Zhu,  B. Alam,  B. Albrecht,  
 A. Aldossary,  E. Alguire,  J. H. Andersen,  D. Barton,  K. Begam,  A. Behn,  
 Y. A. Bernard,  E. J. Berquist,  H. Burton,  A. Carreras,  K. Carter-Fenk,  
 R. Chakraborty,  A. D. Chien,  K. D. Closser,  V. Cofer-Shabica,  
 S. Dasgupta,  Jia Deng,  M. de Wergifosse,  M. Diedenhofen,  Hainam Do,  
 S. Ehlert,  Po-Tung Fang,  S. Fatehi,  Qingguo Feng,  J. Gayvert,  
 Qinghui Ge,  G. Gidofalvi,  M. Goldey,  J. Gomes,  C. Gonzalez-Espinoza,  
 S. Gulania,  A. Gunina,  M. W. D. Hanson-Heine,  P. H. P. Harbach,  
 A. W. Hauser,  M. F. Herbst,  M. Hernandez Vera,  M. Hodecker,  
 Z. C. Holden,  S. Houck,  Xunkun Huang,  Kerwin Hui,  B. C. Huynh,  
 M. Ivanov,  Hyunjun Ji,  Hanjie Jiang,  B. Kaduk,  S. Kaehler,  
 K. Khistyaev,  Jaehoon Kim,  P. Klunzinger,  Z. Koczor-Benda,  
 Joong Hoon Koh,  D. Kosenkov,  L. Koulias,  T. Kowalczyk,  C. M. Krauter,  
 K. Kue,  A. Kunitsa,  T. Kus,  A. Landau,  K. V. Lawler,  D. Lefrancois,  
 S. Lehtola,  Rain Li,  Yi-Pei Li,  Jiashu Liang,  M. Liebenthal,  
 Hung-Hsuan Lin,  You-Sheng Lin,  Fenglai Liu,  Kuan-Yu Liu,  
 M. Loipersberger,  A. Luenser,  A. Manjanath,  P. Manohar,  E. Mansoor,  
 S. F. Manzer,  Shan-Ping Mao,  A. V. Marenich,  T. Markovich,  S. Mason,  
 S. A. Maurer,  P. F. McLaughlin,  M. F. S. J. Menger,  J.-M. Mewes,  
 S. A. Mewes,  P. Morgante,  J. W. Mullinax,  T. S. Nguyen-Beck,  
 K. J. Oosterbaan,  G. Paran,  Alexander C. Paul,  Suranjan K. Paul,  
 F. Pavosevic,  Zheng Pei,  S. Prager,  E. I. Proynov,  E. Ramos,  B. Rana,  
 A. E. Rask,  A. Rettig,  R. M. Richard,  F. Rob,  E. Rossomme,  T. Scheele,  
 M. Scheurer,  M. Schneider,  N. Sergueev,  S. M. Sharada,  W. Skomorowski,  
 D. W. Small,  C. J. Stein,  Yu-Chuan Su,  E. J. Sundstrom,  Zhen Tao,  
 J. Thirman,  T. Tsuchimochi,  N. M. Tubman,  S. P. Veccham,  O. Vydrov,  
 J. Wenzel,  J. Witte,  A. Yamada,  Kun Yao,  S. Yeganeh,  S. R. Yost,  
 A. Zech,  Igor Ying Zhang,  Xing Zhang,  Yu Zhang,  D. Zuev,  
 A. Aspuru-Guzik,  A. T. Bell,  N. A. Besley,  K. B. Bravaya,  B. R. Brooks,  
 D. Casanova,  Jeng-Da Chai,  S. Coriani,  C. J. Cramer,  
 A. E. DePrince, III,  R. A. DiStasio Jr.,  A. Dreuw,  B. D. Dunietz,  
 T. R. Furlani,  W. A. Goddard III,  S. Grimme,  S. Hammes-Schiffer,  
 T. Head-Gordon,  W. J. Hehre,  Chao-Ping Hsu,  T.-C. Jagau,  Yousung Jung,  
 A. Klamt,  Jing Kong,  D. S. Lambrecht,  WanZhen Liang,  N. J. Mayhall,  
 C. W. McCurdy,  J. B. Neaton,  C. Ochsenfeld,  J. A. Parkhill,  R. Peverati,  
 V. A. Rassolov,  Yihan Shao,  L. V. Slipchenko,  T. Stauch,  R. P. Steele,  
 J. E. Subotnik,  A. J. W. Thom,  A. Tkatchenko,  D. G. Truhlar,  
 T. Van Voorhis,  T. A. Wesolowski,  K. B. Whaley,  H. L. Woodcock III,  
 P. M. Zimmerman,  S. Faraji,  P. M. W. Gill,  M. Head-Gordon,  
 J. M. Herbert,  A. I. Krylov

 Contributors to earlier versions of Q-Chem not listed above: 
 R. D. Adamson,  B. Austin,  R. Baer,  J. Baker,  G. J. O. Beran,  
 K. Brandhorst,  S. T. Brown,  E. F. C. Byrd,  A. K. Chakraborty,  
 G. K. L. Chan,  Chun-Min Chang,  Yunqing Chen,  C.-L. Cheng,  
 Siu Hung Chien,  D. M. Chipman,  D. L. Crittenden,  H. Dachsel,  
 R. J. Doerksen,  A. D. Dutoi,  R. G. Edgar,  J. Fosso-Tande,  
 L. Fusti-Molnar,  D. Ghosh,  A. Ghysels,  A. Golubeva-Zadorozhnaya,  
 J. Gonthier,  M. S. Gordon,  S. R. Gwaltney,  G. Hawkins,  J. E. Herr,  
 A. Heyden,  S. Hirata,  E. G. Hohenstein,  G. Kedziora,  F. J. Keil,  
 C. Kelley,  Jihan Kim,  R. A. King,  R. Z. Khaliullin,  P. P. Korambath,  
 W. Kurlancheek,  A. Laurent,  A. M. Lee,  M. S. Lee,  S. V. Levchenko,  
 Ching Yeh Lin,  D. Liotard,  E. Livshits,  R. C. Lochan,  I. Lotan,  
 L. A. Martinez-Martinez,  P. E. Maslen,  N. Nair,  D. P. O'Neill,  
 D. Neuhauser,  E. Neuscamman,  C. M. Oana,  R. Olivares-Amaya,  R. Olson,  
 T. M. Perrine,  B. Peters,  P. A. Pieniazek,  A. Prociuk,  Y. M. Rhee,  
 J. Ritchie,  M. A. Rohrdanz,  E. Rosta,  N. J. Russ,  H. F. Schaefer III,  
 M. W. Schmidt,  N. E. Schultz,  S. Sharma,  N. Shenvi,  C. D. Sherrill,  
 A. C. Simmonett,  A. Sodt,  T. Stein,  D. Stuck,  K. S. Thanthiriwatte,  
 V. Vanovschi,  L. Vogt,  Tao Wang,  A. Warshel,  M. A. Watson,  
 C. F. Williams,  Q. Wu,  X. Xu,  Jun Yang,  W. Zhang,  Yan Zhao

 Please cite Q-Chem as follows:
 Y. Shao et al., Mol. Phys. 113, 184-215 (2015)
 DOI: 10.1080/00268976.2014.952696

 Q-Chem 5.4.0 for Intel X86 EM64T Linux

 Parts of Q-Chem use Armadillo 9.800.1 (Horizon Scraper).
 http://arma.sourceforge.net/

 Q-Chem begins on Sat Feb 24 14:27:43 2024  

 Host: 
0

     Scratch files written to /expanse/lustre/scratch/selhajj/temp_project/qcscratch/28914156/qchem3786282//
 May1621 |scratch|qcdevops|jenkins|workspace|build_RNUM    
 Processing $rem in /cm/shared/apps/spack/cpu/opt/spack/linux-centos8-zen2/gcc-10.2.0/qchem-5.4-akfmr7b3t57bfs6qan3padb2wnb2i7cl/config/preferences:
 Processing $rem in /home/selhajj/.qchemrc:

 Checking the input file for inconsistencies... 
 Q-Chem warning in module libgen/CheckREMs.C, line 172:

 Found a $solvent section, which is only used for PCM and Kirkwood-Onsager solvation models

	...done.

--------------------------------------------------------------
User input:
--------------------------------------------------------------
$molecule
0 1
C                 -1.5146050000     -0.0482520000      1.5555800000
C                 -2.4347820000      1.1514310000      1.1947260000
C                 -2.2224530000      1.8253920000      0.0136650000
C                 -1.1742120000      1.4525550000     -0.8878540000
C                 -0.2540760000      0.2528330000     -0.5270310000
C                 -0.4663740000     -0.4210990000      0.6540560000
O                 -0.9379100000      2.0232700000     -1.9473410000
O                 -1.7508520000     -0.6189280000      2.6151020000
Br                 0.5670070000     -1.9251400000      1.2555940000
Br                -3.2557740000      3.3295000000     -0.5878020000
N                  0.6365650000      0.0753030000     -1.5037400000
N                 -3.3254750000      1.3289470000      2.1713920000
C                 -4.4729220000      2.2275640000      2.3412150000
C                 -5.7463710000      1.6327000000      1.7121460000
C                 -6.9631180000      2.5338650000      1.9673790000
C                 -7.1612600000      2.8069150000      3.4644240000
C                 -5.8887030000      3.3858070000      4.0975320000
C                 -4.6678860000      2.4900110000      3.8423430000
C                  1.7839150000     -0.8234100000     -1.6737110000
C                  3.0575710000     -0.2284930000     -1.0451080000
C                  1.9784480000     -1.0861610000     -3.1748410000
C                  3.1991480000     -1.9820710000     -3.4301890000
C                  4.2742030000     -1.1297670000     -1.3005040000
C                  4.4719120000     -1.4031200000     -2.7975500000
H                  0.5091930000      0.7836680000     -2.2286740000
H                 -3.1981990000      0.6205170000      2.8962790000
H                 -4.2438380000      3.1709570000      1.8487320000
H                 -5.9211510000      0.6395570000      2.1450770000
H                 -5.5898580000      1.4928860000      0.6393460000
H                 -7.8585970000      2.0712380000      1.5414760000
H                 -6.8246740000      3.4854370000      1.4387190000
H                 -7.4246180000      1.8700690000      3.9721070000
H                 -8.0019640000      3.4909220000      3.6166650000
H                 -6.0247740000      3.5212950000      5.1747280000
H                 -5.6973080000      4.3829070000      3.6813430000
H                 -4.8060610000      1.5302130000      4.3589370000
H                 -3.7630330000      2.9464590000      4.2548220000
H                  1.5549110000     -1.7666900000     -1.1809790000
H                  2.9013550000     -0.0884660000      0.0277070000
H                  3.2322860000      0.7645590000     -1.4782750000
H                  2.1165300000     -0.1264730000     -3.6916640000
H                  1.0734570000     -1.5426410000     -3.5869790000
H                  3.3349130000     -2.1177830000     -4.5073950000
H                  3.0078170000     -2.9790780000     -3.0137470000
H                  4.1358610000     -2.0812280000     -0.7716190000
H                  5.1698240000     -0.6671010000     -0.8749430000
H                  5.3125390000     -2.0871990000     -2.9498940000
H                  4.7351740000     -0.4663870000     -3.3054910000
$end
$rem
MAX_SCF_CYCLES=200
SCF_Guess=core
BASIS  =  6-311++G(d,p)
GUI  =  2
JOB_TYPE  =  SP
METHOD  =  B3LYP
THRESH = 14
SCF_CONVERGENCE = 8
SOLVENT_METHOD = COSMO
$end
$solvent
dielectric 37.219
opticaldielectric 1.43
$end





--------------------------------------------------------------
 ----------------------------------------------------------------
             Standard Nuclear Orientation (Angstroms)
    I     Atom           X                Y                Z
 ----------------------------------------------------------------
    1      C      -0.3050578852    -1.4112666922    -0.0081677481
    2      C      -1.4185263033    -0.3318601312     0.0978991135
    3      C      -1.0629800956     0.9977257083     0.0986125609
    4      C       0.3050409742     1.4111724523     0.0084279034
    5      C       1.4185039828     0.3317685930    -0.0977031956
    6      C       1.0629610685    -0.9978215988    -0.0983671636
    7      O       0.6757139760     2.5802116620     0.0124030170
    8      O      -0.6757155324    -2.5803125857    -0.0120687634
    9      Br      2.3019036270    -2.4607662449    -0.2275100518
   10      Br     -2.3019288607     2.4606524284     0.2278684541
   11      N       2.6052623440     0.9343072932    -0.1829702427
   12      N      -2.6053048104    -0.9343706164     0.1831066034
   13      C      -3.9876311927    -0.4433281330     0.2153251418
   14      C      -4.5418022455    -0.2404741800    -1.2069997363
   15      C      -6.0154654288     0.1893464434    -1.1711311205
   16      C      -6.8757802466    -0.8040692149    -0.3787019245
   17      C      -6.3172877035    -1.0199002274     1.0343961114
   18      C      -4.8425256540    -1.4466854755     1.0044412073
   19      C       3.9876066077     0.4433274453    -0.2153792700
   20      C       4.5421076046     0.2408591669     1.2068734556
   21      C       4.8422738371     1.4465246442    -1.0049435550
   22      C       6.3170490957     1.0198007495    -1.0351176103
   23      C       6.0157851257    -0.1888939993     1.1707882320
   24      C       6.8758702626     0.8043614696     0.3779108340
   25      H       2.4893734239     1.9479493639    -0.1316534360
   26      H      -2.4894494646    -1.9480101735     0.1316693126
   27      H      -3.9988368473     0.5116422847     0.7377380736
   28      H      -4.4420782979    -1.1827449908    -1.7606161839
   29      H      -3.9365437718     0.5050366180    -1.7293214223
   30      H      -6.3931736012     0.2917170013    -2.1929709081
   31      H      -6.0904423941     1.1832108573    -0.7120566285
   32      H      -6.9013910000    -1.7648471812    -0.9088242513
   33      H      -7.9100608499    -0.4502912171    -0.3245643622
   34      H      -6.9056654983    -1.7727641761     1.5675292871
   35      H      -6.4115319078    -0.0893182290     1.6081459818
   36      H      -4.7592047737    -2.4361837831     0.5342023080
   37      H      -4.4493106242    -1.5429105840     2.0209869872
   38      H       3.9987339438    -0.5117732885    -0.7375512580
   39      H       3.9369989411    -0.5045497887     1.7295129277
   40      H       4.4424600978     1.1832627794     1.7602784262
   41      H       4.7590115423     2.4361402211    -0.5349413108
   42      H       4.4488256253     1.5424709069    -2.0214243718
   43      H       6.9052722992     1.7725526849    -1.5685786071
   44      H       6.4112085739     0.0890739132    -1.6086470324
   45      H       6.0907120476    -1.1828724716     0.7119542319
   46      H       6.3937272517    -0.2909808459     2.1925695164
   47      H       7.9101576626     0.4506244312     0.3236318569
   48      H       6.9015496967     1.7652777758     0.9077788106
 ----------------------------------------------------------------
 Molecular Point Group                 C1    NOp =  1
 Largest Abelian Subgroup              C1    NOp =  1
 Nuclear Repulsion Energy =        3122.33022033 hartrees
 There are      116 alpha and      116 beta electrons
 Requested basis set is 6-311++G(d,p)
 There are 290 shells and 748 basis functions

 Total QAlloc Memory Limit   8000 MB
 Mega-Array Size       188 MB
 MEM_STATIC part       192 MB
 A cutoff of  1.0D-14 yielded  28588 shell pairs
 There are    193098 function pairs (    206137 Cartesian)
 Smallest overlap matrix eigenvalue = 1.53E-07
 Linear dependence detected in AO basis
 Tighter screening thresholds may be required for diffuse basis sets
 Use S2THRESH > 14 and THRESH = 14 in case of SCF convergence issues
 Number of orthogonalized atomic orbitals = 744
 Maximum deviation from orthogonality = 6.807E-11

 Scale SEOQF with 1.000000e-02/1.000000e-01/1.000000e-01

 Standard Electronic Orientation quadrupole field applied
 Nucleus-field energy     =     0.0000000486 hartrees
 Guess MOs from core Hamiltonian diagonalization

 -----------------------------------------------------------------------
  General SCF calculation program by
  Eric Jon Sundstrom, Paul Horn, Yuezhi Mao, Dmitri Zuev, Alec White,
  David Stuck, Shaama M.S., Shane Yost, Joonho Lee, David Small,
  Daniel Levine, Susi Lehtola, Hugh Burton, Evgeny Epifanovsky,
  Bang C. Huynh
 -----------------------------------------------------------------------
 Exchange:     0.2000 Hartree-Fock + 0.0800 Slater + 0.7200 B88
 Correlation:  0.1900 VWN1RPA + 0.8100 LYP
 Using SG-1 standard quadrature grid
 using 8 threads for integral computing
 -------------------------------------------------------
 OpenMP Integral computing Module                
 Release: version 1.0, May 2013, Q-Chem Inc. Pittsburgh 
 -------------------------------------------------------
 A restricted SCF calculation will be
 performed using DIIS
 SCF converges when DIIS error is below 1.0e-08
 ---------------------------------------
  Cycle       Energy         DIIS error
 ---------------------------------------
    1   -4839.6963679734      2.81e-01  
    2   -3631.7722870773      1.16e-01  
    3   -4310.9575164616      1.09e-01  
    4   -5638.4243221532      7.68e-02  
    5   -5946.0663193406      2.96e-02  
    6   -5674.0876758921      6.37e-02  
    7   -5839.7588949136      5.24e-02  
    8   -5908.6985045157      4.82e-02  
    9   -5946.0119025034      4.32e-02  
   10   -5976.4181688463      3.79e-02  
   11   -6027.3951520119      3.22e-02  
   12   -6030.6455752395      2.75e-02  
   13   -6047.9489994871      2.10e-02  
   14   -5974.8370724992      3.10e-02  
   15   -6106.7815947930      4.56e-03  
   16   -6070.9702303107      1.75e-02  
   17   -6108.2334506258      3.17e-03  
   18   -6108.2808282758      2.92e-03  
   19   -6108.8531436635      6.07e-04  
   20   -6108.8631812214      5.42e-04  
   21   -6108.8821631647      1.54e-04  
   22   -6108.8833369692      8.83e-05  
   23   -6108.8837849584      3.25e-05  
   24   -6108.8838410550      1.73e-05  
   25   -6108.8838600810      2.97e-06  
   26   -6108.8838605684      1.31e-06  
   27   -6108.8838606639      4.61e-07  
   28   -6108.8838606726      2.48e-07  
   29   -6108.8838606762      8.48e-08  
   30   -6108.8838606766      3.16e-08  
   31   -6108.8838606767      8.24e-09  Convergence criterion met
 ---------------------------------------
 SCF time:   CPU 6540.36s  wall 832.00s 
 SCF   energy in the final basis set =    -6108.8838606767
 Total energy in the final basis set =    -6108.8838606767
 Exchange:     0.2000 Hartree-Fock + 0.0800 Slater + 0.7200 B88
 Correlation:  0.1900 VWN1RPA + 0.8100 LYP
 Using SG-1 standard quadrature grid
 in get_qchem_info
 IBasis=      401111
 IBasis=      401111
 USING 1082 GRID
 MICHARGE=           0
 Set epsilon to    37.2190017700195     
==== cosmo data ====
outfile: 025-COSMO.out.cosmo.0
phsran:    0.00000D+00
ampran:    0.10000D-04
volume:   2898.5178376
area:   1318.1299675
routf:      0.8500000
rsolv [a.u]:      2.4566438
disex:     10.0000000
disex2:   4249.6096727
fepsi:      0.9602322
eps :    37.2190018
lcavity:     1
nppa:  1082
nspa:    92
nsph:    32
maxnps:  2976
natoms:    48
Atom   Radius [a.u.] nuc. charge
    1      3.7794520    6
    2      3.7794520    6
    3      3.7794520    6
    4      3.7794520    6
    5      3.7794520    6
    6      3.7794520    6
    7      3.2503287    8
    8      3.2503287    8
    9      4.0818081   35
   10      4.0818081   35
   11      3.4581986    7
   12      3.4581986    7
   13      3.7794520    6
   14      3.7794520    6
   15      3.7794520    6
   16      3.7794520    6
   17      3.7794520    6
   18      3.7794520    6
   19      3.7794520    6
   20      3.7794520    6
   21      3.7794520    6
   22      3.7794520    6
   23      3.7794520    6
   24      3.7794520    6
   25      2.4566438    1
   26      2.4566438    1
   27      2.4566438    1
   28      2.4566438    1
   29      2.4566438    1
   30      2.4566438    1
   31      2.4566438    1
   32      2.4566438    1
   33      2.4566438    1
   34      2.4566438    1
   35      2.4566438    1
   36      2.4566438    1
   37      2.4566438    1
   38      2.4566438    1
   39      2.4566438    1
   40      2.4566438    1
   41      2.4566438    1
   42      2.4566438    1
   43      2.4566438    1
   44      2.4566438    1
   45      2.4566438    1
   46      2.4566438    1
   47      2.4566438    1
   48      2.4566438    1
=== end cosmo data ===
 number of segments:         1560
 f_epsilon=  0.960232245562971     
Ediel:   -0.0143397
 A restricted SCF calculation will be
 performed using Roothaan-Hall, DIIS
 SCF converges when DIIS error is below 1.0e-08
 ---------------------------------------
  Cycle       Energy         DIIS error
 ---------------------------------------
 number of segments:         1560
 f_epsilon=  0.960232245562971     
Ediel:   -0.0223119
    1   -6108.8982004207      1.12e-04  Roothaan Step
 ---------------------------------------
  Cycle       Energy         DIIS error
 ---------------------------------------
 number of segments:         1560
 f_epsilon=  0.960232245562971     
Ediel:   -0.0160437
    1   -6108.8989759115      1.80e-04  
 number of segments:         1560
 f_epsilon=  0.960232245562971     
Ediel:   -0.0202281
    2   -6108.8906863378      4.27e-04  
 number of segments:         1560
 f_epsilon=  0.960232245562971     
Ediel:   -0.0204474
    3   -6108.9008802904      1.69e-05  
 number of segments:         1560
 f_epsilon=  0.960232245562971     
Ediel:   -0.0204574
    4   -6108.9008972017      6.75e-06  
 number of segments:         1560
 f_epsilon=  0.960232245562971     
Ediel:   -0.0204679
    5   -6108.9008998309      2.88e-06  
 number of segments:         1560
 f_epsilon=  0.960232245562971     
Ediel:   -0.0204668
    6   -6108.9009002311      1.91e-06  
 number of segments:         1560
 f_epsilon=  0.960232245562971     
Ediel:   -0.0204659
    7   -6108.9009004360      5.10e-07  
 number of segments:         1560
 f_epsilon=  0.960232245562971     
Ediel:   -0.0204652
    8   -6108.9009004506      1.98e-07  
 number of segments:         1560
 f_epsilon=  0.960232245562971     
Ediel:   -0.0204651
    9   -6108.9009004530      4.27e-08  
 number of segments:         1560
 f_epsilon=  0.960232245562971     
Ediel:   -0.0204651
   10   -6108.9009004531      1.22e-08  
   11   -6108.9009004531      3.69e-09  Convergence criterion met
 ---------------------------------------
 SCF time:   CPU 2112.46s  wall 269.00s 
before final oc correction, ETot:     -6108.9009004531
 number of outlayer segments:          580
SCF energy after oc correction:     -6108.9008300285
 SCF   energy in the final basis set =    -6108.9008300285
 Total energy in the final basis set =    -6108.9009004531
 
 --------------------------------------------------------------
 
                    Orbital Energies (a.u.)
 --------------------------------------------------------------
 
 Alpha MOs
 -- Occupied --
********-482.8376 -62.4905 -62.4905 -56.3110 -56.3110 -56.3071 -56.3071
-56.3069 -56.3069 -19.1297 -19.1297 -14.3673 -14.3673 -10.2883 -10.2883
-10.2700 -10.2700 -10.2328 -10.2328 -10.2188 -10.2188 -10.1707 -10.1707
-10.1687 -10.1687 -10.1647 -10.1647 -10.1642 -10.1642 -10.1614 -10.1614
 -8.6993  -8.6993  -6.5310  -6.5310  -6.5178  -6.5178  -6.5174  -6.5174
 -2.6418  -2.6418  -2.6382  -2.6382  -2.6378  -2.6378  -2.6274  -2.6274
 -2.6273  -2.6273  -1.0736  -1.0709  -0.9749  -0.9747  -0.8659  -0.8422
 -0.8319  -0.8256  -0.7880  -0.7665  -0.7475  -0.7468  -0.7454  -0.7196
 -0.6884  -0.6457  -0.6296  -0.6277  -0.6167  -0.6115  -0.5796  -0.5762
 -0.5630  -0.5466  -0.5370  -0.5365  -0.4981  -0.4847  -0.4724  -0.4677
 -0.4666  -0.4578  -0.4493  -0.4493  -0.4432  -0.4408  -0.4385  -0.4291
 -0.4284  -0.4137  -0.4053  -0.4046  -0.3972  -0.3872  -0.3840  -0.3837
 -0.3700  -0.3625  -0.3558  -0.3494  -0.3475  -0.3452  -0.3268  -0.3253
 -0.3246  -0.3210  -0.3192  -0.3177  -0.3046  -0.3021  -0.3015  -0.2991
 -0.2917  -0.2836  -0.2487  -0.2230
 -- Virtual --
 -0.1134  -0.0259  -0.0220  -0.0048  -0.0032  -0.0008   0.0043   0.0065
  0.0086   0.0126   0.0131   0.0160   0.0227   0.0293   0.0352   0.0353
  0.0389   0.0405   0.0432   0.0450   0.0459   0.0490   0.0508   0.0567
  0.0646   0.0655   0.0702   0.0708   0.0735   0.0777   0.0791   0.0838
  0.0842   0.0842   0.0878   0.0971   0.0976   0.0989   0.0996   0.1038
  0.1039   0.1080   0.1090   0.1107   0.1166   0.1196   0.1232   0.1242
  0.1260   0.1266   0.1297   0.1299   0.1318   0.1351   0.1356   0.1381
  0.1383   0.1433   0.1453   0.1459   0.1485   0.1490   0.1499   0.1505
  0.1540   0.1550   0.1553   0.1580   0.1613   0.1618   0.1623   0.1641
  0.1649   0.1664   0.1672   0.1703   0.1736   0.1741   0.1782   0.1792
  0.1799   0.1851   0.1859   0.1862   0.1889   0.1952   0.1958   0.1983
  0.1997   0.2019   0.2056   0.2068   0.2121   0.2182   0.2194   0.2211
  0.2265   0.2266   0.2291   0.2293   0.2346   0.2372   0.2417   0.2435
  0.2438   0.2457   0.2485   0.2512   0.2529   0.2550   0.2555   0.2589
  0.2607   0.2608   0.2660   0.2700   0.2724   0.2745   0.2777   0.2798
  0.2853   0.2876   0.2899   0.2912   0.2988   0.3002   0.3022   0.3048
  0.3070   0.3110   0.3125   0.3133   0.3143   0.3176   0.3247   0.3276
  0.3313   0.3334   0.3334   0.3373   0.3409   0.3479   0.3496   0.3508
  0.3538   0.3551   0.3588   0.3607   0.3622   0.3652   0.3677   0.3694
  0.3743   0.3790   0.3871   0.3882   0.3933   0.3980   0.3999   0.4105
  0.4239   0.4252   0.4276   0.4334   0.4463   0.4478   0.4565   0.4585
  0.4651   0.4695   0.4718   0.4724   0.4835   0.4891   0.5004   0.5026
  0.5031   0.5095   0.5142   0.5249   0.5322   0.5325   0.5353   0.5409
  0.5537   0.5611   0.5688   0.5691   0.5739   0.5785   0.5846   0.5955
  0.5967   0.6029   0.6065   0.6101   0.6108   0.6114   0.6201   0.6243
  0.6278   0.6294   0.6348   0.6373   0.6403   0.6421   0.6535   0.6541
  0.6587   0.6630   0.6760   0.6780   0.6806   0.6943   0.6946   0.6963
  0.7059   0.7152   0.7183   0.7207   0.7250   0.7252   0.7284   0.7309
  0.7366   0.7377   0.7433   0.7465   0.7502   0.7543   0.7553   0.7638
  0.7723   0.7742   0.7759   0.7787   0.7788   0.7836   0.7854   0.7864
  0.7884   0.7940   0.8000   0.8024   0.8135   0.8161   0.8180   0.8257
  0.8337   0.8402   0.8421   0.8482   0.8520   0.8681   0.8712   0.8739
  0.8876   0.8888   0.9006   0.9006   0.9032   0.9160   0.9166   0.9182
  0.9289   0.9334   0.9522   0.9565   0.9633   0.9679   0.9796   0.9854
  0.9996   1.0051   1.0081   1.0204   1.0361   1.0432   1.0488   1.0525
  1.0713   1.0827   1.0965   1.1060   1.1279   1.1323   1.1382   1.1480
  1.1514   1.1543   1.1660   1.1723   1.1845   1.1944   1.1996   1.2192
  1.2242   1.2289   1.2388   1.2415   1.2424   1.2458   1.2544   1.2564
  1.2584   1.2592   1.2667   1.2712   1.2898   1.3097   1.3205   1.3409
  1.3531   1.3536   1.4066   1.4301   1.4371   1.4613   1.4680   1.4698
  1.4788   1.4838   1.5166   1.5299   1.5354   1.5434   1.5466   1.5612
  1.5648   1.5785   1.5812   1.5852   1.5861   1.5929   1.5936   1.5968
  1.6018   1.6037   1.6137   1.6147   1.6173   1.6265   1.6307   1.6338
  1.6425   1.6438   1.6450   1.6500   1.6504   1.6602   1.6617   1.6631
  1.6695   1.6735   1.6785   1.6933   1.6942   1.7085   1.7157   1.7235
  1.7298   1.7335   1.7369   1.7480   1.7510   1.7693   1.7729   1.7884
  1.8060   1.8095   1.8109   1.8114   1.8121   1.8136   1.8172   1.8250
  1.8276   1.8317   1.8338   1.8366   1.8371   1.8430   1.8482   1.8606
  1.8644   1.8684   1.8915   1.8992   1.9140   1.9282   1.9409   1.9570
  1.9571   1.9759   1.9964   1.9965   2.0292   2.0390   2.0478   2.0563
  2.0800   2.0816   2.0836   2.0879   2.0996   2.1032   2.1089   2.1102
  2.1427   2.1527   2.1611   2.1662   2.1894   2.1945   2.2152   2.2214
  2.2273   2.2333   2.2504   2.2520   2.2588   2.2657   2.2709   2.2766
  2.2920   2.2922   2.3005   2.3024   2.3258   2.3298   2.3375   2.3428
  2.3483   2.3552   2.3594   2.3699   2.3715   2.3752   2.3960   2.3961
  2.4090   2.4103   2.4246   2.4321   2.4554   2.4760   2.4940   2.4960
  2.5026   2.5206   2.5221   2.5457   2.5466   2.5559   2.5563   2.5689
  2.5772   2.6037   2.6050   2.6249   2.6605   2.6623   2.6833   2.6879
  2.6881   2.6926   2.6972   2.7029   2.7054   2.7123   2.7210   2.7285
  2.7655   2.7716   2.7786   2.7791   2.7862   2.8039   2.8091   2.8168
  2.8222   2.8252   2.8271   2.8362   2.8437   2.8464   2.8528   2.8586
  2.8644   2.8755   2.9008   2.9018   2.9163   2.9239   2.9345   2.9358
  2.9457   2.9474   2.9495   2.9548   2.9567   2.9696   2.9891   3.0196
  3.0257   3.0330   3.0346   3.0446   3.0613   3.0661   3.0700   3.0757
  3.1084   3.1097   3.1255   3.1301   3.1538   3.1666   3.1808   3.2247
  3.2586   3.2658   3.3194   3.3216   3.3290   3.3436   3.3660   3.3714
  3.3850   3.3878   3.4566   3.4605   3.5204   3.5218   3.5995   3.6449
  3.7073   3.7514   3.7636   3.7798   3.7809   3.8078   3.8156   3.8326
  3.8379   3.8380   3.8401   3.8526   3.9007   3.9026   3.9457   3.9582
  3.9858   4.0605   4.0616   4.0678   4.0934   4.1020   4.1043   4.1118
  4.1190   4.1206   4.1369   4.1440   4.1631   4.1682   4.1881   4.2823
  4.2867   4.2934   4.2971   4.3014   4.3041   4.3717   4.3730   4.4518
  4.4735   4.6801   4.8120   4.8183   5.0088   5.0568   5.0680   5.0995
  5.3073   5.3136   5.7369   5.7994   6.8487   6.8529   7.5986   7.6090
  7.7256   7.7315   7.8097   7.8165  23.6009  23.6943  23.8151  23.8162
 23.8575  23.8889  23.8930  23.9427  23.9428  23.9474  23.9480  23.9487
 23.9495  23.9545  23.9559  23.9591  24.0601  24.0914  35.6288  35.6559
 48.0887  48.0947  50.0106  50.0390 289.7953 289.8054 289.9243 289.9285
290.0306 290.04041020.92291020.9310
 --------------------------------------------------------------
 
          Ground-State Mulliken Net Atomic Charges

     Atom                 Charge (a.u.)
  ----------------------------------------
      1 C                    -0.097415
      2 C                     0.292830
      3 C                    -0.391614
      4 C                    -0.097928
      5 C                     0.292788
      6 C                    -0.391342
      7 O                    -0.308430
      8 O                    -0.308509
      9 Br                   -0.080902
     10 Br                   -0.080759
     11 N                     0.289729
     12 N                     0.289674
     13 C                    -0.377024
     14 C                    -0.015076
     15 C                    -0.374772
     16 C                    -0.402466
     17 C                    -0.439057
     18 C                    -0.247521
     19 C                    -0.377317
     20 C                    -0.014827
     21 C                    -0.247182
     22 C                    -0.439131
     23 C                    -0.374789
     24 C                    -0.402536
     25 H                     0.346829
     26 H                     0.346823
     27 H                     0.106786
     28 H                     0.184658
     29 H                     0.155106
     30 H                     0.185749
     31 H                     0.150797
     32 H                     0.137559
     33 H                     0.183792
     34 H                     0.198855
     35 H                     0.152866
     36 H                     0.150724
     37 H                     0.198240
     38 H                     0.106799
     39 H                     0.154988
     40 H                     0.184629
     41 H                     0.150657
     42 H                     0.198060
     43 H                     0.198816
     44 H                     0.152891
     45 H                     0.150902
     46 H                     0.185728
     47 H                     0.183753
     48 H                     0.137569
  ----------------------------------------
  Sum of atomic charges =     0.000000

 -----------------------------------------------------------------
                    Cartesian Multipole Moments
 -----------------------------------------------------------------
    Charge (ESU x 10^10)
                -0.0000
    Dipole Moment (Debye)
         X      -0.0005      Y       0.0001      Z       0.0000
       Tot       0.0005
    Quadrupole Moments (Debye-Ang)
        XX    -121.7697     XY      10.3266     YY    -192.9119
        XZ      -1.1472     YZ      -1.1061     ZZ    -169.6979
    Octopole Moments (Debye-Ang^2)
       XXX      -0.0072    XXY       0.0046    XYY      -0.0081
       YYY       0.0093    XXZ      -0.0018    XYZ       0.0022
       YYZ       0.0055    XZZ      -0.0034    YZZ      -0.0028
       ZZZ       0.0138
    Hexadecapole Moments (Debye-Ang^3)
      XXXX  -15341.6875   XXXY    -169.6534   XXYY   -3114.4486
      XYYY    -342.0018   YYYY   -2877.4719   XXXZ     -74.0676
      XXYZ      -1.1599   XYYZ     -26.1031   YYYZ      35.5571
      XXZZ   -2856.5839   XYZZ     -94.8467   YYZZ    -577.2270
      XZZZ     -25.0773   YZZZ      28.4207   ZZZZ    -718.1713
 -----------------------------------------------------------------
 Total job time:  1105.21s(wall), 8666.99s(cpu) 
 Sat Feb 24 14:46:08 2024

        *************************************************************
        *                                                           *
        *  Thank you very much for using Q-Chem.  Have a nice day.  *
        *                                                           *
        *************************************************************


