 Entering Gaussian System, Link 0=g16
 Input=230-an-PCM.com
 Output=230-an-PCM.log
 Initial command:
 /sysapps/ubuntu-applications/gaussian/Gaussian/AVX2/g16/l1.exe "/scratch/selhajj1/4304535/Gau-2986299.inp" -scrdir="/scratch/selhajj1/4304535/"
 Entering Link 1 = /sysapps/ubuntu-applications/gaussian/Gaussian/AVX2/g16/l1.exe PID=   2986305.
  
 Copyright (c) 1988,1990,1992,1993,1995,1998,2003,2009,2016,
            Gaussian, Inc.  All Rights Reserved.
  
 This is part of the Gaussian(R) 16 program.  It is based on
 the Gaussian(R) 09 system (copyright 2009, Gaussian, Inc.),
 the Gaussian(R) 03 system (copyright 2003, Gaussian, Inc.),
 the Gaussian(R) 98 system (copyright 1998, Gaussian, Inc.),
 the Gaussian(R) 94 system (copyright 1995, Gaussian, Inc.),
 the Gaussian 92(TM) system (copyright 1992, Gaussian, Inc.),
 the Gaussian 90(TM) system (copyright 1990, Gaussian, Inc.),
 the Gaussian 88(TM) system (copyright 1988, Gaussian, Inc.),
 the Gaussian 86(TM) system (copyright 1986, Carnegie Mellon
 University), and the Gaussian 82(TM) system (copyright 1983,
 Carnegie Mellon University). Gaussian is a federally registered
 trademark of Gaussian, Inc.
  
 This software contains proprietary and confidential information,
 including trade secrets, belonging to Gaussian, Inc.
  
 This software is provided under written license and may be
 used, copied, transmitted, or stored only in accord with that
 written license.
  
 The following legend is applicable only to US Government
 contracts under FAR:
  
                    RESTRICTED RIGHTS LEGEND
  
 Use, reproduction and disclosure by the US Government is
 subject to restrictions as set forth in subparagraphs (a)
 and (c) of the Commercial Computer Software - Restricted
 Rights clause in FAR 52.227-19.
  
 Gaussian, Inc.
 340 Quinnipiac St., Bldg. 40, Wallingford CT 06492
  
  
 ---------------------------------------------------------------
 Warning -- This program may not be used in any manner that
 competes with the business of Gaussian, Inc. or will provide
 assistance to any competitor of Gaussian, Inc.  The licensee
 of this program is prohibited from giving any competitor of
 Gaussian, Inc. access to this program.  By using this program,
 the user acknowledges that Gaussian, Inc. is engaged in the
 business of creating and licensing software in the field of
 computational chemistry and represents and warrants to the
 licensee that it is not a competitor of Gaussian, Inc. and that
 it will not use this program in any manner prohibited above.
 ---------------------------------------------------------------
  

 Cite this work as:
 Gaussian 16, Revision A.03,
 M. J. Frisch, G. W. Trucks, H. B. Schlegel, G. E. Scuseria, 
 M. A. Robb, J. R. Cheeseman, G. Scalmani, V. Barone, 
 G. A. Petersson, H. Nakatsuji, X. Li, M. Caricato, A. V. Marenich, 
 J. Bloino, B. G. Janesko, R. Gomperts, B. Mennucci, H. P. Hratchian, 
 J. V. Ortiz, A. F. Izmaylov, J. L. Sonnenberg, D. Williams-Young, 
 F. Ding, F. Lipparini, F. Egidi, J. Goings, B. Peng, A. Petrone, 
 T. Henderson, D. Ranasinghe, V. G. Zakrzewski, J. Gao, N. Rega, 
 G. Zheng, W. Liang, M. Hada, M. Ehara, K. Toyota, R. Fukuda, 
 J. Hasegawa, M. Ishida, T. Nakajima, Y. Honda, O. Kitao, H. Nakai, 
 T. Vreven, K. Throssell, J. A. Montgomery, Jr., J. E. Peralta, 
 F. Ogliaro, M. J. Bearpark, J. J. Heyd, E. N. Brothers, K. N. Kudin, 
 V. N. Staroverov, T. A. Keith, R. Kobayashi, J. Normand, 
 K. Raghavachari, A. P. Rendell, J. C. Burant, S. S. Iyengar, 
 J. Tomasi, M. Cossi, J. M. Millam, M. Klene, C. Adamo, R. Cammi, 
 J. W. Ochterski, R. L. Martin, K. Morokuma, O. Farkas, 
 J. B. Foresman, and D. J. Fox, Gaussian, Inc., Wallingford CT, 2016.
 
 ******************************************
 Gaussian 16:  ES64L-G16RevA.03 25-Dec-2016
                21-Jan-2024 
 ******************************************
 %chk=230-an-PCM.chk
 %nproc=8
 Will use up to    8 processors via shared memory.
 %mem=30GB
 ----------------------------------------------------------------
 #P UB3LYP/6-311++G(d,p) SCRF=(PCM,Solvent=n,n-DiMethylFormamide)
 ----------------------------------------------------------------
 1/38=1,172=1/1;
 2/12=2,17=6,18=5,40=1/2;
 3/5=4,6=6,7=1111,11=2,25=1,30=1,70=2201,72=148,74=-5,116=2/1,2,3;
 4//1;
 5/5=2,38=5,53=148/2;
 6/7=2,8=2,9=2,10=2,28=1/1;
 99/5=1,9=1/99;
 Leave Link    1 at Sun Jan 21 08:40:58 2024, MaxMem=  4026531840 cpu:               0.3 elap:               0.1
 (Enter /sysapps/ubuntu-applications/gaussian/Gaussian/AVX2/g16/l101.exe)
 -------
 Reduced
 -------
 Symbolic Z-matrix:
 Charge = -2 Multiplicity = 1
 C                     5.7661   -5.218     1.11624 
 C                     6.53286  -5.26664  -0.03586 
 C                     6.28696  -4.33635  -1.0777 
 C                     4.73768  -4.26839   1.29216 
 C                     4.48875  -3.32194   0.23502 
 C                     5.28817  -3.39286  -0.93345 
 C                     3.97694  -4.27118   2.54547 
 C                     2.97182  -3.25873   2.58422 
 C                     2.67705  -2.35044   1.54983 
 C                     3.44295  -2.33286   0.33444 
 O                     4.22479  -5.09413   3.48691 
 O                     3.18911  -1.46517  -0.5922 
 H                     5.92821  -5.91279   1.93443 
 H                     7.31804  -6.01274  -0.14203 
 H                     5.07733  -2.66806  -1.71347 
 Cl                    2.07499  -3.12426   4.13382 
 H                     6.88441  -4.36566  -1.98739 
 N                     1.6842   -1.33824   1.62926 
 C                     0.27674  -1.75978   1.65592 
 C                    -0.65479  -0.54784   1.73081 
 C                    -2.14031  -0.92319   1.75669 
 H                     1.84513  -0.80128   0.77145 
 H                     0.11558  -2.39872   2.52589 
 H                     0.018    -2.35842   0.76221 
 H                    -0.4592    0.10805   0.8721 
 H                    -0.39811   0.03177   2.62467 
 H                    -2.4261   -1.48801   0.86232 
 H                    -2.78764  -0.03829   1.80296 
 H                    -2.377    -1.54684   2.62634 
 
 ITRead=  0  0  0  0  0  0  0  0  0  0  0  0  0  0  0  0  0  0  0  0
 ITRead=  0  0  0  0  0  0  0  0  0
 MicOpt= -1 -1 -1 -1 -1 -1 -1 -1 -1 -1 -1 -1 -1 -1 -1 -1 -1 -1 -1 -1
 MicOpt= -1 -1 -1 -1 -1 -1 -1 -1 -1
 NAtoms=     29 NQM=       29 NQMF=       0 NMMI=      0 NMMIF=      0
                NMic=       0 NMicF=      0.
                    Isotopes and Nuclear Properties:
 (Nuclear quadrupole moments (NQMom) in fm**2, nuclear magnetic moments (NMagM)
  in nuclear magnetons)

  Atom         1           2           3           4           5           6           7           8           9          10
 IAtWgt=          12          12          12          12          12          12          12          12          12          12
 AtmWgt=  12.0000000  12.0000000  12.0000000  12.0000000  12.0000000  12.0000000  12.0000000  12.0000000  12.0000000  12.0000000
 NucSpn=           0           0           0           0           0           0           0           0           0           0
 AtZEff=  -0.0000000  -0.0000000  -0.0000000  -0.0000000  -0.0000000  -0.0000000  -0.0000000  -0.0000000  -0.0000000  -0.0000000
 NQMom=    0.0000000   0.0000000   0.0000000   0.0000000   0.0000000   0.0000000   0.0000000   0.0000000   0.0000000   0.0000000
 NMagM=    0.0000000   0.0000000   0.0000000   0.0000000   0.0000000   0.0000000   0.0000000   0.0000000   0.0000000   0.0000000
 AtZNuc=   6.0000000   6.0000000   6.0000000   6.0000000   6.0000000   6.0000000   6.0000000   6.0000000   6.0000000   6.0000000

  Atom        11          12          13          14          15          16          17          18          19          20
 IAtWgt=          16          16           1           1           1          35           1          14          12          12
 AtmWgt=  15.9949146  15.9949146   1.0078250   1.0078250   1.0078250  34.9688527   1.0078250  14.0030740  12.0000000  12.0000000
 NucSpn=           0           0           1           1           1           3           1           2           0           0
 AtZEff=  -0.0000000  -0.0000000  -0.0000000  -0.0000000  -0.0000000  -0.0000000  -0.0000000  -0.0000000  -0.0000000  -0.0000000
 NQMom=    0.0000000   0.0000000   0.0000000   0.0000000   0.0000000  -8.1650000   0.0000000   2.0440000   0.0000000   0.0000000
 NMagM=    0.0000000   0.0000000   2.7928460   2.7928460   2.7928460   0.8218740   2.7928460   0.4037610   0.0000000   0.0000000
 AtZNuc=   8.0000000   8.0000000   1.0000000   1.0000000   1.0000000  17.0000000   1.0000000   7.0000000   6.0000000   6.0000000

  Atom        21          22          23          24          25          26          27          28          29
 IAtWgt=          12           1           1           1           1           1           1           1           1
 AtmWgt=  12.0000000   1.0078250   1.0078250   1.0078250   1.0078250   1.0078250   1.0078250   1.0078250   1.0078250
 NucSpn=           0           1           1           1           1           1           1           1           1
 AtZEff=  -0.0000000  -0.0000000  -0.0000000  -0.0000000  -0.0000000  -0.0000000  -0.0000000  -0.0000000  -0.0000000
 NQMom=    0.0000000   0.0000000   0.0000000   0.0000000   0.0000000   0.0000000   0.0000000   0.0000000   0.0000000
 NMagM=    0.0000000   2.7928460   2.7928460   2.7928460   2.7928460   2.7928460   2.7928460   2.7928460   2.7928460
 AtZNuc=   6.0000000   1.0000000   1.0000000   1.0000000   1.0000000   1.0000000   1.0000000   1.0000000   1.0000000
 Leave Link  101 at Sun Jan 21 08:40:58 2024, MaxMem=  4026531840 cpu:               0.8 elap:               0.2
 (Enter /sysapps/ubuntu-applications/gaussian/Gaussian/AVX2/g16/l202.exe)
                          Input orientation:                          
 ---------------------------------------------------------------------
 Center     Atomic      Atomic             Coordinates (Angstroms)
 Number     Number       Type             X           Y           Z
 ---------------------------------------------------------------------
      1          6           0        5.766103   -5.217998    1.116242
      2          6           0        6.532858   -5.266644   -0.035856
      3          6           0        6.286956   -4.336345   -1.077704
      4          6           0        4.737684   -4.268389    1.292159
      5          6           0        4.488747   -3.321939    0.235018
      6          6           0        5.288172   -3.392861   -0.933454
      7          6           0        3.976936   -4.271179    2.545470
      8          6           0        2.971824   -3.258734    2.584216
      9          6           0        2.677053   -2.350440    1.549828
     10          6           0        3.442953   -2.332863    0.334439
     11          8           0        4.224790   -5.094134    3.486911
     12          8           0        3.189105   -1.465170   -0.592197
     13          1           0        5.928213   -5.912791    1.934426
     14          1           0        7.318044   -6.012737   -0.142028
     15          1           0        5.077328   -2.668057   -1.713466
     16         17           0        2.074986   -3.124260    4.133818
     17          1           0        6.884408   -4.365660   -1.987391
     18          7           0        1.684195   -1.338241    1.629258
     19          6           0        0.276739   -1.759780    1.655920
     20          6           0       -0.654790   -0.547839    1.730813
     21          6           0       -2.140308   -0.923185    1.756694
     22          1           0        1.845128   -0.801278    0.771445
     23          1           0        0.115582   -2.398720    2.525885
     24          1           0        0.018002   -2.358420    0.762210
     25          1           0       -0.459195    0.108053    0.872099
     26          1           0       -0.398111    0.031774    2.624669
     27          1           0       -2.426102   -1.488011    0.862323
     28          1           0       -2.787638   -0.038292    1.802963
     29          1           0       -2.377001   -1.546837    2.626340
 ---------------------------------------------------------------------
                    Distance matrix (angstroms):
                    1          2          3          4          5
     1  C    0.000000
     2  C    1.384778   0.000000
     3  C    2.421157   1.418228   0.000000
     4  C    1.410798   2.445974   2.832157   0.000000
     5  C    2.450150   2.834368   2.446592   1.440585   0.000000
     6  C    2.785821   2.421980   1.381499   2.454168   1.417546
     7  C    2.477958   3.766554   4.297421   1.466129   2.549744
     8  C    3.715058   4.855661   5.055789   2.409788   2.797102
     9  C    4.237112   5.087816   4.886629   2.826857   2.440240
    10  C    3.785795   4.276880   3.754523   2.517899   1.442859
    11  O    2.830382   4.215071   5.065815   2.400386   3.712837
    12  O    4.862448   5.093270   4.251593   3.715768   2.412663
    13  H    1.085561   2.159887   3.418597   2.129301   3.416513
    14  H    2.150203   1.088322   2.179202   3.428979   3.922688
    15  H    3.870899   3.418420   2.156520   3.422017   2.137891
    16  Cl   5.207096   6.469050   6.809538   4.058820   4.589767
    17  H    3.407290   2.178038   1.088733   3.920884   3.430400
    18  N    5.654880   6.458675   6.123862   4.245374   3.707354
    19  C    6.510272   7.368801   7.087602   5.130835   4.711721
    20  C    7.963413   8.777843   8.392162   6.566101   6.032330
    21  C    9.020362   9.864212   9.523773   7.662438   7.212066
    22  H    5.916109   6.524266   5.970418   4.545204   3.691911
    23  H    6.470225   7.481239   7.404465   5.136299   5.022447
    24  H    6.429867   7.178999   6.826218   5.119006   4.603679
    25  H    8.196387   8.865695   8.310533   6.807147   6.054160
    26  H    8.236079   9.120853   8.802167   6.829596   6.390556
    27  H    9.004971   9.764618   9.369850   7.696434   7.181361
    28  H   10.023344  10.843826  10.446040   8.647839   8.135513
    29  H    9.059137  10.015480   9.826772   7.733410   7.483843
                    6          7          8          9         10
     6  C    0.000000
     7  C    3.820169   0.000000
     8  C    4.213960   1.427164   0.000000
     9  C    3.751170   2.523933   1.407781   0.000000
    10  C    2.477091   2.988455   2.478043   1.436691   0.000000
    11  O    4.854352   1.274754   2.398640   3.698059   4.263094
    12  O    2.870284   4.282443   3.654269   2.373641   1.294598
    13  H    3.870973   2.622164   4.025727   4.838213   4.642452
    14  H    3.407416   4.628031   5.822935   6.149276   5.365149
    15  H    1.085456   4.681816   4.822045   4.063408   2.641487
    16  Cl   6.006160   2.730510   1.795458   2.763745   4.114963
    17  H    2.145947   5.386014   6.118267   5.854474   4.622420
    18  N    4.876229   3.833827   2.501645   1.420079   2.399804
    19  C    5.872501   4.559592   3.220571   2.474195   3.478455
    20  C    7.107128   5.998317   4.607557   3.792533   4.682699
    21  C    8.277591   7.017970   5.680975   5.028600   5.931509
    22  H    4.634386   4.442070   3.254946   1.922988   2.256052
    23  H    6.301669   4.291450   2.983479   2.741560   3.984742
    24  H    5.632054   4.744662   3.585434   2.773258   3.451656
    25  H    6.967686   6.454231   5.102792   4.042222   4.633995
    26  H    7.531413   6.136995   4.710153   4.035698   5.058699
    27  H    8.146367   7.181776   5.936159   5.220981   5.953003
    28  H    9.162959   8.014244   6.644773   5.939104   6.800138
    29  H    8.650712   6.913834   5.616253   5.229543   6.304166
                   11         12         13         14         15
    11  O    0.000000
    12  O    5.557081   0.000000
    13  H    2.445825   5.802402   0.000000
    14  H    4.856053   6.158827   2.500656   0.000000
    15  H    5.801430   2.503910   4.955746   4.321702   0.000000
    16  Cl   2.986729   5.131185   5.240285   7.356345   6.588847
    17  H    6.129619   4.900477   4.323028   2.511228   2.494480
    18  N    4.900228   2.686211   6.247505   7.531841   4.945257
    19  C    5.482477   3.690894   7.018848   8.420228   5.934929
    20  C    6.896592   4.584038   8.494710   9.845747   7.015380
    21  C    7.804162   5.849246   9.488350  10.907296   8.196393
    22  H    5.609381   2.026462   6.644673   7.612263   4.484057
    23  H    5.007436   4.476661   6.818005   8.488483   6.531735
    24  H    5.710096   3.562051   6.995587   8.213543   5.641066
    25  H    7.472597   4.234299   8.841837   9.948767   6.711559
    26  H    6.956264   5.045512   8.708425  10.184781   7.489255
    27  H    8.007930   5.800578   9.514340  10.790285   8.020515
    28  H    8.807461   6.595015  10.511569  11.899655   9.007698
    29  H    7.543709   6.430178   9.408341  11.027331   8.698165
                   16         17         18         19         20
    16  Cl   0.000000
    17  H    7.882944   0.000000
    18  N    3.100871   7.020515   0.000000
    19  C    3.351936   7.982833   1.469469   0.000000
    20  C    4.456911   9.232568   2.471012   1.530410   0.000000
    21  C    5.316404  10.359262   3.849069   2.559719   1.532422
    22  H    4.093242   6.760942   1.024730   2.039820   2.689648
    23  H    2.636498   8.369917   2.095018   1.091355   2.156704
    24  H    4.023113   7.663997   2.137460   1.106360   2.160797
    25  H    5.244877   9.061970   2.694286   2.155174   1.098108
    26  H    4.284191   9.676963   2.683986   2.145591   1.095817
    27  H    5.799981  10.153193   4.183917   2.830018   2.185348
    28  H    6.212986  11.253505   4.660186   3.517890   2.194057
    29  H    4.957917  10.724084   4.187003   2.833619   2.183112
                   21         22         23         24         25
    21  C    0.000000
    22  H    4.107223   0.000000
    23  H    2.803194   2.936190   0.000000
    24  H    2.776184   2.400659   1.766832   0.000000
    25  H    2.161504   2.479298   3.057660   2.514614   0.000000
    26  H    2.168082   3.026638   2.486150   3.058583   1.755292
    27  H    1.095722   4.327039   3.171275   2.596397   2.533030
    28  H    1.097366   4.807151   3.810895   3.786526   2.511886
    29  H    1.096015   4.671495   2.636051   3.141606   3.081234
                   26         27         28         29
    26  H    0.000000
    27  H    3.086804   0.000000
    28  H    2.527835   1.765559   0.000000
    29  H    2.531407   1.765680   1.766998   0.000000
 Stoichiometry    C13H12ClNO2(2-)
 Framework group  C1[X(C13H12ClNO2)]
 Deg. of freedom    81
 Full point group                 C1      NOp   1
 Largest Abelian subgroup         C1      NOp   1
 Largest concise Abelian subgroup C1      NOp   1
                         Standard orientation:                         
 ---------------------------------------------------------------------
 Center     Atomic      Atomic             Coordinates (Angstroms)
 Number     Number       Type             X           Y           Z
 ---------------------------------------------------------------------
      1          6           0        3.485490    0.731255    0.387536
      2          6           0        4.451808   -0.259178    0.441210
      3          6           0        4.078572   -1.610719    0.228128
      4          6           0        2.129388    0.441537    0.127917
      5          6           0        1.750020   -0.930924   -0.090520
      6          6           0        2.758521   -1.925306   -0.030791
      7          6           0        1.166239    1.545617    0.074216
      8          6           0       -0.164206    1.105811   -0.196489
      9          6           0       -0.570882   -0.230768   -0.369747
     10          6           0        0.380314   -1.307169   -0.343872
     11          8           0        1.517256    2.759865    0.239704
     12          8           0       -0.000054   -2.527987   -0.546129
     13          1           0        3.735773    1.776002    0.543434
     14          1           0        5.489740   -0.003452    0.645525
     15          1           0        2.443321   -2.950408   -0.198209
     16         17           0       -1.380989    2.411486   -0.392246
     17          1           0        4.830606   -2.396989    0.267650
     18          7           0       -1.901034   -0.633595   -0.661378
     19          6           0       -2.913939   -0.464966    0.389776
     20          6           0       -4.282248   -0.957974   -0.086491
     21          6           0       -5.382657   -0.812631    0.970058
     22          1           0       -1.793675   -1.635109   -0.849837
     23          1           0       -2.977806    0.592316    0.652701
     24          1           0       -2.634582   -1.011204    1.310437
     25          1           0       -4.199643   -2.011619   -0.384567
     26          1           0       -4.554674   -0.403293   -0.991438
     27          1           0       -5.141692   -1.375124    1.878983
     28          1           0       -6.351629   -1.179199    0.608210
     29          1           0       -5.517822    0.235450    1.260755
 ---------------------------------------------------------------------
 Rotational constants (GHZ):           0.7299423           0.2673585           0.2034446
 Leave Link  202 at Sun Jan 21 08:40:59 2024, MaxMem=  4026531840 cpu:               0.3 elap:               0.1
 (Enter /sysapps/ubuntu-applications/gaussian/Gaussian/AVX2/g16/l301.exe)
 Standard basis: 6-311++G(d,p) (5D, 7F)
 Ernie: Thresh=  0.10000D-02 Tol=  0.10000D-05 Strict=F.
 There are   483 symmetry adapted cartesian basis functions of A   symmetry.
 There are   466 symmetry adapted basis functions of A   symmetry.
   466 basis functions,   737 primitive gaussians,   483 cartesian basis functions
    66 alpha electrons       66 beta electrons
       nuclear repulsion energy      1256.2854097300 Hartrees.
 IExCor=  402 DFT=T Ex+Corr=B3LYP ExCW=0 ScaHFX=  0.200000
 ScaDFX=  0.800000  0.720000  1.000000  0.810000 ScalE2=  1.000000  1.000000
 IRadAn=      5 IRanWt=     -1 IRanGd=            0 ICorTp=0 IEmpDi=  4
 NAtoms=   29 NActive=   29 NUniq=   29 SFac= 1.00D+00 NAtFMM=   60 NAOKFM=F Big=F
 Integral buffers will be    131072 words long.
 Raffenetti 2 integral format.
 Two-electron integral symmetry is turned on.
 ------------------------------------------------------------------------------
 Polarizable Continuum Model (PCM)
 =================================
 Model                : PCM.
 Atomic radii         : UFF (Universal Force Field).
 Polarization charges : Total charges.
 Charge compensation  : None.
 Solution method      : On-the-fly selection.
 Cavity type          : Scaled VdW (van der Waals Surface) (Alpha=1.100).
 Cavity algorithm     : GePol (No added spheres)
                        Default sphere list used, NSphG=   29.
                        Lebedev-Laikov grids with approx.  5.0 points / Ang**2.
                        Smoothing algorithm: York/Karplus (Gamma=1.0000).
                        Polarization charges: spherical gaussians, with
                                              point-specific exponents (IZeta= 3).
                        Self-potential: point-specific (ISelfS= 7).
                        Self-field    : sphere-specific E.n sum rule (ISelfD= 2).
 Solvent              : n,n-DiMethylFormamide, Eps=  37.219000 Eps(inf)=   2.046330
 ------------------------------------------------------------------------------
 GePol: Number of generator spheres                  =      29
 GePol: Total number of spheres                      =      29
 GePol: Number of exposed spheres                    =      29 (100.00%)
 GePol: Number of points                             =    2330
 GePol: Average weight of points                     =       0.13
 GePol: Minimum weight of points                     =   0.25D-11
 GePol: Maximum weight of points                     =    0.21616
 GePol: Number of points with low weight             =     147
 GePol: Fraction of low-weight points (<1% of avg)   =       6.31%
 GePol: Cavity surface area                          =    308.758 Ang**2
 GePol: Cavity volume                                =    329.502 Ang**3
 Leave Link  301 at Sun Jan 21 08:40:59 2024, MaxMem=  4026531840 cpu:               0.6 elap:               0.2
 (Enter /sysapps/ubuntu-applications/gaussian/Gaussian/AVX2/g16/l302.exe)
 NPDir=0 NMtPBC=     1 NCelOv=     1 NCel=       1 NClECP=     1 NCelD=      1
         NCelK=      1 NCelE2=     1 NClLst=     1 CellRange=     0.0.
 One-electron integrals computed using PRISM.
 One-electron integral symmetry used in STVInt
 NBasis=   466 RedAO= T EigKep=  1.30D-06  NBF=   466
 NBsUse=   462 1.00D-06 EigRej=  9.25D-07 NBFU=   462
 Precomputing XC quadrature grid using
 IXCGrd= 4 IRadAn=           5 IRanWt=          -1 IRanGd=           0 AccXCQ= 0.00D+00.
 Generated NRdTot=       0 NPtTot=           0 NUsed=           0 NTot=          32
 NSgBfM=   481   481   481   481   481 MxSgAt=    29 MxSgA2=    29.
 Leave Link  302 at Sun Jan 21 08:41:00 2024, MaxMem=  4026531840 cpu:               5.8 elap:               1.1
 (Enter /sysapps/ubuntu-applications/gaussian/Gaussian/AVX2/g16/l303.exe)
 DipDrv:  MaxL=1.
 Leave Link  303 at Sun Jan 21 08:41:00 2024, MaxMem=  4026531840 cpu:               0.8 elap:               0.2
 (Enter /sysapps/ubuntu-applications/gaussian/Gaussian/AVX2/g16/l401.exe)
 ExpMin= 3.60D-02 ExpMax= 1.06D+05 ExpMxC= 3.62D+03 IAcc=3 IRadAn=         5 AccDes= 0.00D+00
 Harris functional with IExCor=  402 and IRadAn=       5 diagonalized for initial guess.
 HarFok:  IExCor=  402 AccDes= 0.00D+00 IRadAn=         5 IDoV= 1 UseB2=F ITyADJ=14
 ICtDFT=  3500011 ScaDFX=  1.000000  1.000000  1.000000  1.000000
 FoFCou: FMM=F IPFlag=           0 FMFlag=      100000 FMFlg1=           0
         NFxFlg=           0 DoJE=T BraDBF=F KetDBF=T FulRan=T
         wScrn=  0.000000 ICntrl=       500 IOpCl=  0 I1Cent=   200000004 NGrid=           0
         NMat0=    1 NMatS0=      1 NMatT0=    0 NMatD0=    1 NMtDS0=    0 NMtDT0=    0
 Petite list used in FoFCou.
 Harris En= -1168.63687796771    
 JPrj=0 DoOrth=F DoCkMO=F.
 Initial guess <Sx>= 0.0000 <Sy>= 0.0000 <Sz>= 0.0000 <S**2>=-0.0000 S=-0.0000
 Leave Link  401 at Sun Jan 21 08:41:02 2024, MaxMem=  4026531840 cpu:              14.4 elap:               1.9
 (Enter /sysapps/ubuntu-applications/gaussian/Gaussian/AVX2/g16/l502.exe)
 Integral symmetry usage will be decided dynamically.
 UHF open shell SCF:
 Using DIIS extrapolation, IDIIS=  1040.
 NGot=  4026531840 LenX=  4026056794 LenY=  4025823022
 Requested convergence on RMS density matrix=1.00D-08 within 128 cycles.
 Requested convergence on MAX density matrix=1.00D-06.
 Requested convergence on             energy=1.00D-06.
 No special actions if energy rises.
 Fock matrices will be formed incrementally for  20 cycles.

 Cycle   1  Pass 1  IDiag  1:
 FoFJK:  IHMeth= 1 ICntrl=       0 DoSepK=F KAlg= 0 I1Cent=           0 FoldK=F
 IRaf= 840000000 NMat=       1 IRICut=       1 DoRegI=T DoRafI=F ISym2E= 0 IDoP0=0 IntGTp=1.
 FoFCou: FMM=F IPFlag=           0 FMFlag=      100000 FMFlg1=           0
         NFxFlg=           0 DoJE=F BraDBF=F KetDBF=F FulRan=T
         wScrn=  0.000000 ICntrl=         0 IOpCl=  1 I1Cent=           0 NGrid=           0
         NMat0=    1 NMatS0=      1 NMatT0=    0 NMatD0=    1 NMtDS0=    0 NMtDT0=    0
 Symmetry not used in FoFCou.
 Inv3:  Mode=1 IEnd=    16286700.
 Iteration    1 A*A^-1 deviation from unit magnitude is 3.33D-15 for    241.
 Iteration    1 A*A^-1 deviation from orthogonality  is 2.44D-15 for   2015    112.
 Iteration    1 A^-1*A deviation from unit magnitude is 3.33D-15 for      1.
 Iteration    1 A^-1*A deviation from orthogonality  is 1.22D-15 for   1428   1269.
 E= -1167.86617191995    
 DIIS: error= 2.99D-02 at cycle   1 NSaved=   1.
 NSaved= 1 IEnMin= 1 EnMin= -1167.86617191995     IErMin= 1 ErrMin= 2.99D-02
 ErrMax= 2.99D-02  0.00D+00 EMaxC= 1.00D-01 BMatC= 2.75D+00 BMatP= 2.75D+00
 IDIUse=3 WtCom= 7.01D-01 WtEn= 2.99D-01
 Coeff-Com:  0.100D+01
 Coeff-En:   0.100D+01
 Coeff:      0.100D+01
 Gap=     0.124 Goal=   None    Shift=    0.000
 Gap=     0.124 Goal=   None    Shift=    0.000
 GapD=    0.124 DampG=1.000 DampE=0.500 DampFc=0.5000 IDamp=-1.
 Damping current iteration by 5.00D-01
 RMSDP=1.99D+00 MaxDP=1.59D+02              OVMax= 9.83D-01

 Cycle   2  Pass 1  IDiag  1:
 RMSU=  9.32D-01    CP:  3.00D+00
 E= -1167.80333599263     Delta-E=        0.062835927325 Rises=F Damp=T
 DIIS: error= 1.56D-02 at cycle   2 NSaved=   2.
 NSaved= 2 IEnMin= 1 EnMin= -1167.86617191995     IErMin= 2 ErrMin= 1.56D-02
 ErrMax= 1.56D-02  0.00D+00 EMaxC= 1.00D-01 BMatC= 7.01D-01 BMatP= 2.75D+00
 IDIUse=3 WtCom= 8.44D-01 WtEn= 1.56D-01
 Coeff-Com:  0.282D+00 0.718D+00
 Coeff-En:   0.540D+00 0.460D+00
 Coeff:      0.322D+00 0.678D+00
 Gap=     0.013 Goal=   None    Shift=    0.000
 Gap=     0.013 Goal=   None    Shift=    0.000
 RMSDP=1.00D+00 MaxDP=8.10D+01 DE= 6.28D-02 OVMax= 8.64D-01

 Cycle   3  Pass 1  IDiag  1:
 RMSU=  1.02D-02    CP:  8.89D-01 -3.29D-03
 E= -1168.33345684837     Delta-E=       -0.530120855746 Rises=F Damp=F
 DIIS: error= 2.17D-02 at cycle   3 NSaved=   3.
 NSaved= 3 IEnMin= 3 EnMin= -1168.33345684837     IErMin= 2 ErrMin= 1.56D-02
 ErrMax= 2.17D-02  0.00D+00 EMaxC= 1.00D-01 BMatC= 6.88D-01 BMatP= 7.01D-01
 IDIUse=3 WtCom= 7.83D-01 WtEn= 2.17D-01
 Coeff-Com:  0.807D-01 0.491D+00 0.428D+00
 Coeff-En:   0.000D+00 0.000D+00 0.100D+01
 Coeff:      0.632D-01 0.385D+00 0.552D+00
 Gap=     0.112 Goal=   None    Shift=    0.000
 Gap=     0.112 Goal=   None    Shift=    0.000
 RMSDP=1.03D-02 MaxDP=9.49D-01 DE=-5.30D-01 OVMax= 1.47D-01

 Cycle   4  Pass 1  IDiag  1:
 RMSU=  9.98D-03    CP:  8.67D-01 -1.80D-03  9.09D-01
 E= -1168.45235977758     Delta-E=       -0.118902929200 Rises=F Damp=F
 DIIS: error= 7.20D-03 at cycle   4 NSaved=   4.
 NSaved= 4 IEnMin= 4 EnMin= -1168.45235977758     IErMin= 4 ErrMin= 7.20D-03
 ErrMax= 7.20D-03  0.00D+00 EMaxC= 1.00D-01 BMatC= 1.22D-01 BMatP= 6.88D-01
 IDIUse=3 WtCom= 9.28D-01 WtEn= 7.20D-02
 Coeff-Com: -0.269D-01 0.105D+00 0.319D+00 0.603D+00
 Coeff-En:   0.000D+00 0.000D+00 0.169D+00 0.831D+00
 Coeff:     -0.249D-01 0.973D-01 0.308D+00 0.619D+00
 Gap=     0.105 Goal=   None    Shift=    0.000
 Gap=     0.105 Goal=   None    Shift=    0.000
 RMSDP=5.10D-03 MaxDP=5.33D-01 DE=-1.19D-01 OVMax= 6.09D-02

 Cycle   5  Pass 1  IDiag  1:
 RMSU=  2.60D-03    CP:  8.16D-01 -2.67D-03  9.61D-01  8.77D-01
 E= -1168.47787712584     Delta-E=       -0.025517348262 Rises=F Damp=F
 DIIS: error= 2.49D-03 at cycle   5 NSaved=   5.
 NSaved= 5 IEnMin= 5 EnMin= -1168.47787712584     IErMin= 5 ErrMin= 2.49D-03
 ErrMax= 2.49D-03  0.00D+00 EMaxC= 1.00D-01 BMatC= 9.45D-03 BMatP= 1.22D-01
 IDIUse=3 WtCom= 9.75D-01 WtEn= 2.49D-02
 Coeff-Com: -0.190D-01 0.387D-01 0.129D+00 0.337D+00 0.514D+00
 Coeff-En:   0.000D+00 0.000D+00 0.000D+00 0.000D+00 0.100D+01
 Coeff:     -0.185D-01 0.377D-01 0.126D+00 0.329D+00 0.526D+00
 Gap=     0.104 Goal=   None    Shift=    0.000
 Gap=     0.104 Goal=   None    Shift=    0.000
 RMSDP=1.34D-03 MaxDP=1.59D-01 DE=-2.55D-02 OVMax= 2.58D-02

 Cycle   6  Pass 1  IDiag  1:
 RMSU=  1.18D-03    CP:  8.18D-01 -2.74D-03  9.41D-01  9.34D-01  9.67D-01
 E= -1168.47968038383     Delta-E=       -0.001803257996 Rises=F Damp=F
 DIIS: error= 9.40D-04 at cycle   6 NSaved=   6.
 NSaved= 6 IEnMin= 6 EnMin= -1168.47968038383     IErMin= 6 ErrMin= 9.40D-04
 ErrMax= 9.40D-04  0.00D+00 EMaxC= 1.00D-01 BMatC= 1.52D-03 BMatP= 9.45D-03
 IDIUse=3 WtCom= 9.91D-01 WtEn= 9.40D-03
 Coeff-Com: -0.564D-02 0.545D-02 0.152D-01 0.885D-01 0.336D+00 0.561D+00
 Coeff-En:   0.000D+00 0.000D+00 0.000D+00 0.000D+00 0.125D+00 0.875D+00
 Coeff:     -0.558D-02 0.540D-02 0.150D-01 0.876D-01 0.334D+00 0.564D+00
 Gap=     0.104 Goal=   None    Shift=    0.000
 Gap=     0.104 Goal=   None    Shift=    0.000
 RMSDP=4.75D-04 MaxDP=4.55D-02 DE=-1.80D-03 OVMax= 1.23D-02

 Cycle   7  Pass 1  IDiag  1:
 RMSU=  3.14D-04    CP:  8.17D-01 -2.68D-03  9.41D-01  9.60D-01  1.02D+00
                    CP:  8.31D-01
 E= -1168.47998868090     Delta-E=       -0.000308297066 Rises=F Damp=F
 DIIS: error= 3.23D-04 at cycle   7 NSaved=   7.
 NSaved= 7 IEnMin= 7 EnMin= -1168.47998868090     IErMin= 7 ErrMin= 3.23D-04
 ErrMax= 3.23D-04  0.00D+00 EMaxC= 1.00D-01 BMatC= 2.22D-04 BMatP= 1.52D-03
 IDIUse=3 WtCom= 9.97D-01 WtEn= 3.23D-03
 Coeff-Com: -0.850D-03-0.125D-02-0.379D-02 0.179D-01 0.148D+00 0.350D+00
 Coeff-Com:  0.490D+00
 Coeff-En:   0.000D+00 0.000D+00 0.000D+00 0.000D+00 0.000D+00 0.805D-01
 Coeff-En:   0.920D+00
 Coeff:     -0.847D-03-0.125D-02-0.378D-02 0.178D-01 0.147D+00 0.349D+00
 Coeff:      0.491D+00
 Gap=     0.104 Goal=   None    Shift=    0.000
 Gap=     0.104 Goal=   None    Shift=    0.000
 RMSDP=2.40D-04 MaxDP=2.33D-02 DE=-3.08D-04 OVMax= 3.48D-03

 Cycle   8  Pass 1  IDiag  1:
 RMSU=  1.36D-04    CP:  8.18D-01 -2.65D-03  9.40D-01  9.60D-01  1.05D+00
                    CP:  9.76D-01  8.99D-01
 E= -1168.48003362778     Delta-E=       -0.000044946882 Rises=F Damp=F
 DIIS: error= 6.49D-05 at cycle   8 NSaved=   8.
 NSaved= 8 IEnMin= 8 EnMin= -1168.48003362778     IErMin= 8 ErrMin= 6.49D-05
 ErrMax= 6.49D-05  0.00D+00 EMaxC= 1.00D-01 BMatC= 1.72D-05 BMatP= 2.22D-04
 IDIUse=1 WtCom= 1.00D+00 WtEn= 0.00D+00
 Coeff-Com:  0.536D-03-0.992D-03-0.184D-02-0.421D-04 0.351D-01 0.108D+00
 Coeff-Com:  0.251D+00 0.608D+00
 Coeff:      0.536D-03-0.992D-03-0.184D-02-0.421D-04 0.351D-01 0.108D+00
 Coeff:      0.251D+00 0.608D+00
 Gap=     0.104 Goal=   None    Shift=    0.000
 Gap=     0.104 Goal=   None    Shift=    0.000
 RMSDP=5.60D-05 MaxDP=4.00D-03 DE=-4.49D-05 OVMax= 7.30D-04

 Cycle   9  Pass 1  IDiag  1:
 RMSU=  2.98D-05    CP:  8.18D-01 -2.67D-03  9.38D-01  9.56D-01  1.05D+00
                    CP:  9.70D-01  9.32D-01  9.45D-01
 E= -1168.48003723945     Delta-E=       -0.000003611668 Rises=F Damp=F
 DIIS: error= 3.31D-05 at cycle   9 NSaved=   9.
 NSaved= 9 IEnMin= 9 EnMin= -1168.48003723945     IErMin= 9 ErrMin= 3.31D-05
 ErrMax= 3.31D-05  0.00D+00 EMaxC= 1.00D-01 BMatC= 2.08D-06 BMatP= 1.72D-05
 IDIUse=1 WtCom= 1.00D+00 WtEn= 0.00D+00
 Coeff-Com:  0.410D-03-0.649D-03-0.454D-03-0.713D-03 0.108D-01 0.385D-01
 Coeff-Com:  0.107D+00 0.333D+00 0.512D+00
 Coeff:      0.410D-03-0.649D-03-0.454D-03-0.713D-03 0.108D-01 0.385D-01
 Coeff:      0.107D+00 0.333D+00 0.512D+00
 Gap=     0.104 Goal=   None    Shift=    0.000
 Gap=     0.104 Goal=   None    Shift=    0.000
 RMSDP=2.40D-05 MaxDP=1.95D-03 DE=-3.61D-06 OVMax= 2.15D-04

 Cycle  10  Pass 1  IDiag  1:
 RMSU=  9.32D-06    CP:  8.18D-01 -2.66D-03  9.38D-01  9.56D-01  1.05D+00
                    CP:  9.82D-01  9.40D-01  1.03D+00  9.76D-01
 E= -1168.48003765980     Delta-E=       -0.000000420351 Rises=F Damp=F
 DIIS: error= 1.19D-05 at cycle  10 NSaved=  10.
 NSaved=10 IEnMin=10 EnMin= -1168.48003765980     IErMin=10 ErrMin= 1.19D-05
 ErrMax= 1.19D-05  0.00D+00 EMaxC= 1.00D-01 BMatC= 2.83D-07 BMatP= 2.08D-06
 IDIUse=1 WtCom= 1.00D+00 WtEn= 0.00D+00
 Coeff-Com:  0.142D-03-0.214D-03 0.269D-03-0.875D-04 0.234D-03 0.264D-02
 Coeff-Com:  0.102D-01 0.546D-01 0.274D+00 0.658D+00
 Coeff:      0.142D-03-0.214D-03 0.269D-03-0.875D-04 0.234D-03 0.264D-02
 Coeff:      0.102D-01 0.546D-01 0.274D+00 0.658D+00
 Gap=     0.104 Goal=   None    Shift=    0.000
 Gap=     0.104 Goal=   None    Shift=    0.000
 RMSDP=1.11D-05 MaxDP=7.24D-04 DE=-4.20D-07 OVMax= 1.95D-04

 Cycle  11  Pass 1  IDiag  1:
 RMSU=  4.46D-06    CP:  8.18D-01 -2.66D-03  9.38D-01  9.55D-01  1.05D+00
                    CP:  9.88D-01  9.54D-01  1.04D+00  1.04D+00  1.16D+00
 E= -1168.48003773991     Delta-E=       -0.000000080112 Rises=F Damp=F
 DIIS: error= 3.44D-06 at cycle  11 NSaved=  11.
 NSaved=11 IEnMin=11 EnMin= -1168.48003773991     IErMin=11 ErrMin= 3.44D-06
 ErrMax= 3.44D-06  0.00D+00 EMaxC= 1.00D-01 BMatC= 3.18D-08 BMatP= 2.83D-07
 IDIUse=1 WtCom= 1.00D+00 WtEn= 0.00D+00
 Coeff-Com:  0.305D-04-0.648D-04 0.222D-03 0.110D-03-0.104D-02-0.258D-02
 Coeff-Com: -0.712D-02-0.137D-01 0.785D-01 0.337D+00 0.609D+00
 Coeff:      0.305D-04-0.648D-04 0.222D-03 0.110D-03-0.104D-02-0.258D-02
 Coeff:     -0.712D-02-0.137D-01 0.785D-01 0.337D+00 0.609D+00
 Gap=     0.104 Goal=   None    Shift=    0.000
 Gap=     0.104 Goal=   None    Shift=    0.000
 RMSDP=4.31D-06 MaxDP=3.92D-04 DE=-8.01D-08 OVMax= 2.99D-05

 Cycle  12  Pass 1  IDiag  1:
 RMSU=  9.18D-07    CP:  8.18D-01 -2.66D-03  9.38D-01  9.55D-01  1.05D+00
                    CP:  9.89D-01  9.55D-01  1.06D+00  1.06D+00  1.28D+00
                    CP:  1.01D+00
 E= -1168.48003774710     Delta-E=       -0.000000007191 Rises=F Damp=F
 DIIS: error= 1.63D-06 at cycle  12 NSaved=  12.
 NSaved=12 IEnMin=12 EnMin= -1168.48003774710     IErMin=12 ErrMin= 1.63D-06
 ErrMax= 1.63D-06  0.00D+00 EMaxC= 1.00D-01 BMatC= 3.33D-09 BMatP= 3.18D-08
 IDIUse=1 WtCom= 1.00D+00 WtEn= 0.00D+00
 Coeff-Com:  0.198D-08-0.707D-05 0.784D-04 0.838D-04-0.447D-03-0.107D-02
 Coeff-Com: -0.392D-02-0.133D-01 0.111D-02 0.773D-01 0.296D+00 0.644D+00
 Coeff:      0.198D-08-0.707D-05 0.784D-04 0.838D-04-0.447D-03-0.107D-02
 Coeff:     -0.392D-02-0.133D-01 0.111D-02 0.773D-01 0.296D+00 0.644D+00
 Gap=     0.104 Goal=   None    Shift=    0.000
 Gap=     0.104 Goal=   None    Shift=    0.000
 RMSDP=1.34D-06 MaxDP=9.40D-05 DE=-7.19D-09 OVMax= 3.27D-05

 Cycle  13  Pass 1  IDiag  1:
 RMSU=  3.49D-07    CP:  8.18D-01 -2.66D-03  9.38D-01  9.55D-01  1.05D+00
                    CP:  9.90D-01  9.56D-01  1.06D+00  1.08D+00  1.31D+00
                    CP:  1.10D+00  1.09D+00
 E= -1168.48003774798     Delta-E=       -0.000000000876 Rises=F Damp=F
 DIIS: error= 5.80D-07 at cycle  13 NSaved=  13.
 NSaved=13 IEnMin=13 EnMin= -1168.48003774798     IErMin=13 ErrMin= 5.80D-07
 ErrMax= 5.80D-07  0.00D+00 EMaxC= 1.00D-01 BMatC= 8.18D-10 BMatP= 3.33D-09
 IDIUse=1 WtCom= 1.00D+00 WtEn= 0.00D+00
 Coeff-Com: -0.340D-05 0.213D-05 0.212D-04 0.290D-04-0.233D-03-0.496D-03
 Coeff-Com: -0.193D-02-0.758D-02-0.959D-02 0.936D-02 0.104D+00 0.406D+00
 Coeff-Com:  0.500D+00
 Coeff:     -0.340D-05 0.213D-05 0.212D-04 0.290D-04-0.233D-03-0.496D-03
 Coeff:     -0.193D-02-0.758D-02-0.959D-02 0.936D-02 0.104D+00 0.406D+00
 Coeff:      0.500D+00
 Gap=     0.104 Goal=   None    Shift=    0.000
 Gap=     0.104 Goal=   None    Shift=    0.000
 RMSDP=6.75D-07 MaxDP=7.80D-05 DE=-8.76D-10 OVMax= 5.87D-06

 Cycle  14  Pass 1  IDiag  1:
 RMSU=  2.14D-07    CP:  8.18D-01 -2.66D-03  9.38D-01  9.55D-01  1.05D+00
                    CP:  9.90D-01  9.56D-01  1.06D+00  1.08D+00  1.33D+00
                    CP:  1.09D+00  1.17D+00  9.17D-01
 E= -1168.48003774821     Delta-E=       -0.000000000232 Rises=F Damp=F
 DIIS: error= 2.07D-07 at cycle  14 NSaved=  14.
 NSaved=14 IEnMin=14 EnMin= -1168.48003774821     IErMin=14 ErrMin= 2.07D-07
 ErrMax= 2.07D-07  0.00D+00 EMaxC= 1.00D-01 BMatC= 6.68D-11 BMatP= 8.18D-10
 IDIUse=1 WtCom= 1.00D+00 WtEn= 0.00D+00
 Coeff-Com: -0.975D-06 0.169D-05-0.383D-05-0.192D-05-0.309D-04 0.126D-04
 Coeff-Com: -0.110D-03-0.883D-03-0.387D-02-0.723D-02-0.107D-01 0.902D-01
 Coeff-Com:  0.254D+00 0.678D+00
 Coeff:     -0.975D-06 0.169D-05-0.383D-05-0.192D-05-0.309D-04 0.126D-04
 Coeff:     -0.110D-03-0.883D-03-0.387D-02-0.723D-02-0.107D-01 0.902D-01
 Coeff:      0.254D+00 0.678D+00
 Gap=     0.104 Goal=   None    Shift=    0.000
 Gap=     0.104 Goal=   None    Shift=    0.000
 RMSDP=1.67D-07 MaxDP=1.76D-05 DE=-2.32D-10 OVMax= 4.47D-06

 Cycle  15  Pass 1  IDiag  1:
 RMSU=  5.54D-08    CP:  8.18D-01 -2.66D-03  9.38D-01  9.55D-01  1.05D+00
                    CP:  9.90D-01  9.56D-01  1.06D+00  1.08D+00  1.33D+00
                    CP:  1.11D+00  1.21D+00  1.03D+00  1.08D+00
 E= -1168.48003774822     Delta-E=       -0.000000000008 Rises=F Damp=F
 DIIS: error= 5.07D-08 at cycle  15 NSaved=  15.
 NSaved=15 IEnMin=15 EnMin= -1168.48003774822     IErMin=15 ErrMin= 5.07D-08
 ErrMax= 5.07D-08  0.00D+00 EMaxC= 1.00D-01 BMatC= 7.90D-12 BMatP= 6.68D-11
 IDIUse=1 WtCom= 1.00D+00 WtEn= 0.00D+00
 Coeff-Com: -0.301D-06 0.914D-06-0.304D-05-0.307D-05-0.556D-05 0.295D-04
 Coeff-Com:  0.501D-04 0.856D-04-0.985D-03-0.353D-02-0.140D-01 0.139D-01
 Coeff-Com:  0.760D-01 0.327D+00 0.602D+00
 Coeff:     -0.301D-06 0.914D-06-0.304D-05-0.307D-05-0.556D-05 0.295D-04
 Coeff:      0.501D-04 0.856D-04-0.985D-03-0.353D-02-0.140D-01 0.139D-01
 Coeff:      0.760D-01 0.327D+00 0.602D+00
 Gap=     0.104 Goal=   None    Shift=    0.000
 Gap=     0.104 Goal=   None    Shift=    0.000
 RMSDP=5.92D-08 MaxDP=5.91D-06 DE=-8.19D-12 OVMax= 7.49D-07

 Cycle  16  Pass 1  IDiag  1:
 RMSU=  1.86D-08    CP:  8.18D-01 -2.66D-03  9.38D-01  9.55D-01  1.05D+00
                    CP:  9.90D-01  9.56D-01  1.06D+00  1.08D+00  1.33D+00
                    CP:  1.11D+00  1.22D+00  1.07D+00  1.16D+00  9.79D-01
 E= -1168.48003774824     Delta-E=       -0.000000000016 Rises=F Damp=F
 DIIS: error= 1.85D-08 at cycle  16 NSaved=  16.
 NSaved=16 IEnMin=16 EnMin= -1168.48003774824     IErMin=16 ErrMin= 1.85D-08
 ErrMax= 1.85D-08  0.00D+00 EMaxC= 1.00D-01 BMatC= 1.41D-12 BMatP= 7.90D-12
 IDIUse=1 WtCom= 1.00D+00 WtEn= 0.00D+00
 Coeff-Com: -0.470D-07 0.313D-06-0.107D-05-0.131D-05 0.763D-06 0.137D-04
 Coeff-Com:  0.377D-04 0.182D-03 0.158D-03-0.482D-03-0.601D-02-0.718D-02
 Coeff-Com: -0.633D-02 0.569D-01 0.320D+00 0.643D+00
 Coeff:     -0.470D-07 0.313D-06-0.107D-05-0.131D-05 0.763D-06 0.137D-04
 Coeff:      0.377D-04 0.182D-03 0.158D-03-0.482D-03-0.601D-02-0.718D-02
 Coeff:     -0.633D-02 0.569D-01 0.320D+00 0.643D+00
 Gap=     0.104 Goal=   None    Shift=    0.000
 Gap=     0.104 Goal=   None    Shift=    0.000
 RMSDP=2.54D-08 MaxDP=2.77D-06 DE=-1.64D-11 OVMax= 4.50D-07

 Cycle  17  Pass 1  IDiag  1:
 RMSU=  7.56D-09    CP:  8.18D-01 -2.66D-03  9.38D-01  9.55D-01  1.05D+00
                    CP:  9.90D-01  9.56D-01  1.06D+00  1.08D+00  1.33D+00
                    CP:  1.11D+00  1.23D+00  1.08D+00  1.18D+00  1.05D+00
                    CP:  9.34D-01
 E= -1168.48003774825     Delta-E=       -0.000000000010 Rises=F Damp=F
 DIIS: error= 5.76D-09 at cycle  17 NSaved=  17.
 NSaved=17 IEnMin=17 EnMin= -1168.48003774825     IErMin=17 ErrMin= 5.76D-09
 ErrMax= 5.76D-09  0.00D+00 EMaxC= 1.00D-01 BMatC= 1.39D-13 BMatP= 1.41D-12
 IDIUse=1 WtCom= 1.00D+00 WtEn= 0.00D+00
 Coeff-Com: -0.751D-08 0.757D-07-0.337D-06-0.409D-06 0.503D-06 0.454D-05
 Coeff-Com:  0.139D-04 0.844D-04 0.176D-03 0.948D-04-0.175D-02-0.501D-02
 Coeff-Com: -0.116D-01-0.438D-02 0.972D-01 0.305D+00 0.620D+00
 Coeff:     -0.751D-08 0.757D-07-0.337D-06-0.409D-06 0.503D-06 0.454D-05
 Coeff:      0.139D-04 0.844D-04 0.176D-03 0.948D-04-0.175D-02-0.501D-02
 Coeff:     -0.116D-01-0.438D-02 0.972D-01 0.305D+00 0.620D+00
 Gap=     0.104 Goal=   None    Shift=    0.000
 Gap=     0.104 Goal=   None    Shift=    0.000
 RMSDP=9.09D-09 MaxDP=1.11D-06 DE=-1.00D-11 OVMax= 1.00D-07

 Cycle  18  Pass 1  IDiag  1:
 RMSU=  1.84D-09    CP:  8.18D-01 -2.66D-03  9.38D-01  9.55D-01  1.05D+00
                    CP:  9.90D-01  9.56D-01  1.06D+00  1.08D+00  1.33D+00
                    CP:  1.11D+00  1.23D+00  1.08D+00  1.19D+00  1.07D+00
                    CP:  1.00D+00  9.34D-01
 E= -1168.48003774824     Delta-E=        0.000000000004 Rises=F Damp=F
 DIIS: error= 2.15D-09 at cycle  18 NSaved=  18.
 NSaved=18 IEnMin=17 EnMin= -1168.48003774825     IErMin=18 ErrMin= 2.15D-09
 ErrMax= 2.15D-09  0.00D+00 EMaxC= 1.00D-01 BMatC= 1.79D-14 BMatP= 1.39D-13
 IDIUse=1 WtCom= 1.00D+00 WtEn= 0.00D+00
 Coeff-Com: -0.100D-08-0.649D-09-0.361D-07-0.198D-07-0.589D-07 0.670D-06
 Coeff-Com:  0.162D-05 0.184D-04 0.793D-04 0.127D-03-0.726D-04-0.164D-02
 Coeff-Com: -0.545D-02-0.100D-01 0.969D-02 0.725D-01 0.320D+00 0.615D+00
 Coeff:     -0.100D-08-0.649D-09-0.361D-07-0.198D-07-0.589D-07 0.670D-06
 Coeff:      0.162D-05 0.184D-04 0.793D-04 0.127D-03-0.726D-04-0.164D-02
 Coeff:     -0.545D-02-0.100D-01 0.969D-02 0.725D-01 0.320D+00 0.615D+00
 Gap=     0.104 Goal=   None    Shift=    0.000
 Gap=     0.104 Goal=   None    Shift=    0.000
 RMSDP=2.13D-09 MaxDP=2.54D-07 DE= 3.64D-12 OVMax= 3.95D-08

 Error on total polarization charges =  0.03076
 SCF Done:  E(UB3LYP) =  -1168.48003775     A.U. after   18 cycles
            NFock= 18  Conv=0.21D-08     -V/T= 2.0036
 <Sx>= 0.0000 <Sy>= 0.0000 <Sz>= 0.0000 <S**2>=-0.0000 S=-0.0000
 <L.S>=  0.00000000000    
 KE= 1.164325760492D+03 PE=-5.295983674181D+03 EE= 1.706892466211D+03
 Annihilation of the first spin contaminant:
 S**2 before annihilation    -0.0000,   after     0.0000
 Leave Link  502 at Sun Jan 21 08:44:09 2024, MaxMem=  4026531840 cpu:            1486.9 elap:             187.3
 (Enter /sysapps/ubuntu-applications/gaussian/Gaussian/AVX2/g16/l601.exe)
 Copying SCF densities to generalized density rwf, IOpCl= 1 IROHF=0.

 **********************************************************************

            Population analysis using the SCF density.

 **********************************************************************

 Orbital symmetries:
 Alpha Orbitals:
       Occupied  (A) (A) (A) (A) (A) (A) (A) (A) (A) (A) (A) (A)
                 (A) (A) (A) (A) (A) (A) (A) (A) (A) (A) (A) (A)
                 (A) (A) (A) (A) (A) (A) (A) (A) (A) (A) (A) (A)
                 (A) (A) (A) (A) (A) (A) (A) (A) (A) (A) (A) (A)
                 (A) (A) (A) (A) (A) (A) (A) (A) (A) (A) (A) (A)
                 (A) (A) (A) (A) (A) (A)
       Virtual   (A) (A) (A) (A) (A) (A) (A) (A) (A) (A) (A) (A)
                 (A) (A) (A) (A) (A) (A) (A) (A) (A) (A) (A) (A)
                 (A) (A) (A) (A) (A) (A) (A) (A) (A) (A) (A) (A)
                 (A) (A) (A) (A) (A) (A) (A) (A) (A) (A) (A) (A)
                 (A) (A) (A) (A) (A) (A) (A) (A) (A) (A) (A) (A)
                 (A) (A) (A) (A) (A) (A) (A) (A) (A) (A) (A) (A)
                 (A) (A) (A) (A) (A) (A) (A) (A) (A) (A) (A) (A)
                 (A) (A) (A) (A) (A) (A) (A) (A) (A) (A) (A) (A)
                 (A) (A) (A) (A) (A) (A) (A) (A) (A) (A) (A) (A)
                 (A) (A) (A) (A) (A) (A) (A) (A) (A) (A) (A) (A)
                 (A) (A) (A) (A) (A) (A) (A) (A) (A) (A) (A) (A)
                 (A) (A) (A) (A) (A) (A) (A) (A) (A) (A) (A) (A)
                 (A) (A) (A) (A) (A) (A) (A) (A) (A) (A) (A) (A)
                 (A) (A) (A) (A) (A) (A) (A) (A) (A) (A) (A) (A)
                 (A) (A) (A) (A) (A) (A) (A) (A) (A) (A) (A) (A)
                 (A) (A) (A) (A) (A) (A) (A) (A) (A) (A) (A) (A)
                 (A) (A) (A) (A) (A) (A) (A) (A) (A) (A) (A) (A)
                 (A) (A) (A) (A) (A) (A) (A) (A) (A) (A) (A) (A)
                 (A) (A) (A) (A) (A) (A) (A) (A) (A) (A) (A) (A)
                 (A) (A) (A) (A) (A) (A) (A) (A) (A) (A) (A) (A)
                 (A) (A) (A) (A) (A) (A) (A) (A) (A) (A) (A) (A)
                 (A) (A) (A) (A) (A) (A) (A) (A) (A) (A) (A) (A)
                 (A) (A) (A) (A) (A) (A) (A) (A) (A) (A) (A) (A)
                 (A) (A) (A) (A) (A) (A) (A) (A) (A) (A) (A) (A)
                 (A) (A) (A) (A) (A) (A) (A) (A) (A) (A) (A) (A)
                 (A) (A) (A) (A) (A) (A) (A) (A) (A) (A) (A) (A)
                 (A) (A) (A) (A) (A) (A) (A) (A) (A) (A) (A) (A)
                 (A) (A) (A) (A) (A) (A) (A) (A) (A) (A) (A) (A)
                 (A) (A) (A) (A) (A) (A) (A) (A) (A) (A) (A) (A)
                 (A) (A) (A) (A) (A) (A) (A) (A) (A) (A) (A) (A)
                 (A) (A) (A) (A) (A) (A) (A) (A) (A) (A) (A) (A)
                 (A) (A) (A) (A) (A) (A) (A) (A) (A) (A) (A) (A)
                 (A) (A) (A) (A) (A) (A) (A) (A) (A) (A) (A) (A)
 Beta  Orbitals:
       Occupied  (A) (A) (A) (A) (A) (A) (A) (A) (A) (A) (A) (A)
                 (A) (A) (A) (A) (A) (A) (A) (A) (A) (A) (A) (A)
                 (A) (A) (A) (A) (A) (A) (A) (A) (A) (A) (A) (A)
                 (A) (A) (A) (A) (A) (A) (A) (A) (A) (A) (A) (A)
                 (A) (A) (A) (A) (A) (A) (A) (A) (A) (A) (A) (A)
                 (A) (A) (A) (A) (A) (A)
       Virtual   (A) (A) (A) (A) (A) (A) (A) (A) (A) (A) (A) (A)
                 (A) (A) (A) (A) (A) (A) (A) (A) (A) (A) (A) (A)
                 (A) (A) (A) (A) (A) (A) (A) (A) (A) (A) (A) (A)
                 (A) (A) (A) (A) (A) (A) (A) (A) (A) (A) (A) (A)
                 (A) (A) (A) (A) (A) (A) (A) (A) (A) (A) (A) (A)
                 (A) (A) (A) (A) (A) (A) (A) (A) (A) (A) (A) (A)
                 (A) (A) (A) (A) (A) (A) (A) (A) (A) (A) (A) (A)
                 (A) (A) (A) (A) (A) (A) (A) (A) (A) (A) (A) (A)
                 (A) (A) (A) (A) (A) (A) (A) (A) (A) (A) (A) (A)
                 (A) (A) (A) (A) (A) (A) (A) (A) (A) (A) (A) (A)
                 (A) (A) (A) (A) (A) (A) (A) (A) (A) (A) (A) (A)
                 (A) (A) (A) (A) (A) (A) (A) (A) (A) (A) (A) (A)
                 (A) (A) (A) (A) (A) (A) (A) (A) (A) (A) (A) (A)
                 (A) (A) (A) (A) (A) (A) (A) (A) (A) (A) (A) (A)
                 (A) (A) (A) (A) (A) (A) (A) (A) (A) (A) (A) (A)
                 (A) (A) (A) (A) (A) (A) (A) (A) (A) (A) (A) (A)
                 (A) (A) (A) (A) (A) (A) (A) (A) (A) (A) (A) (A)
                 (A) (A) (A) (A) (A) (A) (A) (A) (A) (A) (A) (A)
                 (A) (A) (A) (A) (A) (A) (A) (A) (A) (A) (A) (A)
                 (A) (A) (A) (A) (A) (A) (A) (A) (A) (A) (A) (A)
                 (A) (A) (A) (A) (A) (A) (A) (A) (A) (A) (A) (A)
                 (A) (A) (A) (A) (A) (A) (A) (A) (A) (A) (A) (A)
                 (A) (A) (A) (A) (A) (A) (A) (A) (A) (A) (A) (A)
                 (A) (A) (A) (A) (A) (A) (A) (A) (A) (A) (A) (A)
                 (A) (A) (A) (A) (A) (A) (A) (A) (A) (A) (A) (A)
                 (A) (A) (A) (A) (A) (A) (A) (A) (A) (A) (A) (A)
                 (A) (A) (A) (A) (A) (A) (A) (A) (A) (A) (A) (A)
                 (A) (A) (A) (A) (A) (A) (A) (A) (A) (A) (A) (A)
                 (A) (A) (A) (A) (A) (A) (A) (A) (A) (A) (A) (A)
                 (A) (A) (A) (A) (A) (A) (A) (A) (A) (A) (A) (A)
                 (A) (A) (A) (A) (A) (A) (A) (A) (A) (A) (A) (A)
                 (A) (A) (A) (A) (A) (A) (A) (A) (A) (A) (A) (A)
                 (A) (A) (A) (A) (A) (A) (A) (A) (A) (A) (A) (A)
 The electronic state is 1-A.
 Alpha  occ. eigenvalues -- -101.52223 -19.02173 -19.01997 -14.28174 -10.18168
 Alpha  occ. eigenvalues --  -10.17774 -10.17622 -10.16868 -10.16215 -10.15709
 Alpha  occ. eigenvalues --  -10.15359 -10.15032 -10.14812 -10.14662 -10.14563
 Alpha  occ. eigenvalues --  -10.13913 -10.13855  -9.43684  -7.20062  -7.19230
 Alpha  occ. eigenvalues --   -7.19167  -0.94714  -0.94111  -0.88734  -0.82869
 Alpha  occ. eigenvalues --   -0.82249  -0.76995  -0.74994  -0.72335  -0.69473
 Alpha  occ. eigenvalues --   -0.65880  -0.63048  -0.58284  -0.58186  -0.56527
 Alpha  occ. eigenvalues --   -0.53053  -0.49459  -0.47451  -0.45988  -0.44385
 Alpha  occ. eigenvalues --   -0.43751  -0.42465  -0.40847  -0.40143  -0.39153
 Alpha  occ. eigenvalues --   -0.38638  -0.38416  -0.37368  -0.36856  -0.35423
 Alpha  occ. eigenvalues --   -0.35090  -0.34167  -0.33479  -0.32802  -0.32618
 Alpha  occ. eigenvalues --   -0.31618  -0.30792  -0.29973  -0.28283  -0.25185
 Alpha  occ. eigenvalues --   -0.22979  -0.22474  -0.20714  -0.20043  -0.19103
 Alpha  occ. eigenvalues --   -0.11086
 Alpha virt. eigenvalues --   -0.00646  -0.00120   0.00492   0.01173   0.01481
 Alpha virt. eigenvalues --    0.01691   0.02192   0.02487   0.03758   0.04384
 Alpha virt. eigenvalues --    0.04696   0.04929   0.05432   0.05826   0.06233
 Alpha virt. eigenvalues --    0.06851   0.06945   0.07400   0.07948   0.08314
 Alpha virt. eigenvalues --    0.09027   0.09628   0.09829   0.09914   0.10370
 Alpha virt. eigenvalues --    0.10747   0.11094   0.11672   0.11937   0.12593
 Alpha virt. eigenvalues --    0.12748   0.12930   0.13191   0.13347   0.13849
 Alpha virt. eigenvalues --    0.13981   0.14256   0.14581   0.14911   0.15134
 Alpha virt. eigenvalues --    0.15585   0.15985   0.16212   0.16621   0.16830
 Alpha virt. eigenvalues --    0.16974   0.17729   0.18117   0.18385   0.18703
 Alpha virt. eigenvalues --    0.18773   0.19319   0.19759   0.20248   0.20347
 Alpha virt. eigenvalues --    0.21042   0.21411   0.21856   0.22128   0.22954
 Alpha virt. eigenvalues --    0.23176   0.23293   0.24449   0.25148   0.25357
 Alpha virt. eigenvalues --    0.25588   0.25949   0.26294   0.26659   0.27031
 Alpha virt. eigenvalues --    0.27366   0.27589   0.28267   0.28338   0.28654
 Alpha virt. eigenvalues --    0.28871   0.29153   0.29839   0.30492   0.30924
 Alpha virt. eigenvalues --    0.31261   0.31301   0.32075   0.32156   0.32641
 Alpha virt. eigenvalues --    0.32885   0.33353   0.34116   0.34353   0.34934
 Alpha virt. eigenvalues --    0.34992   0.35892   0.36027   0.36544   0.36987
 Alpha virt. eigenvalues --    0.37615   0.38231   0.38662   0.40157   0.41105
 Alpha virt. eigenvalues --    0.42010   0.42480   0.43615   0.44950   0.45858
 Alpha virt. eigenvalues --    0.45985   0.47473   0.48143   0.49251   0.49979
 Alpha virt. eigenvalues --    0.50112   0.52201   0.52988   0.54768   0.55751
 Alpha virt. eigenvalues --    0.55835   0.56315   0.56695   0.57074   0.58526
 Alpha virt. eigenvalues --    0.59163   0.60392   0.61242   0.61841   0.63091
 Alpha virt. eigenvalues --    0.63604   0.64553   0.65774   0.66340   0.66408
 Alpha virt. eigenvalues --    0.66893   0.67094   0.67587   0.68034   0.68402
 Alpha virt. eigenvalues --    0.69084   0.70053   0.70525   0.71444   0.71595
 Alpha virt. eigenvalues --    0.72782   0.73764   0.74845   0.75359   0.75896
 Alpha virt. eigenvalues --    0.76055   0.76736   0.77774   0.78119   0.78398
 Alpha virt. eigenvalues --    0.79120   0.79355   0.81777   0.82930   0.85430
 Alpha virt. eigenvalues --    0.86757   0.87590   0.88401   0.89745   0.90214
 Alpha virt. eigenvalues --    0.91011   0.92887   0.93631   0.93807   0.94650
 Alpha virt. eigenvalues --    0.95273   0.96137   0.96431   0.96689   0.97039
 Alpha virt. eigenvalues --    0.98171   0.98587   0.99970   1.00915   1.02074
 Alpha virt. eigenvalues --    1.03079   1.03654   1.04062   1.05645   1.06749
 Alpha virt. eigenvalues --    1.06949   1.09905   1.11315   1.11818   1.12458
 Alpha virt. eigenvalues --    1.13700   1.14973   1.15831   1.17236   1.19017
 Alpha virt. eigenvalues --    1.20400   1.22164   1.23578   1.25423   1.26623
 Alpha virt. eigenvalues --    1.26909   1.27611   1.29309   1.29789   1.32680
 Alpha virt. eigenvalues --    1.33075   1.34246   1.35496   1.36389   1.39577
 Alpha virt. eigenvalues --    1.40755   1.42598   1.43887   1.47226   1.48380
 Alpha virt. eigenvalues --    1.51732   1.52436   1.52990   1.54299   1.54791
 Alpha virt. eigenvalues --    1.56036   1.57493   1.58044   1.58705   1.59275
 Alpha virt. eigenvalues --    1.60213   1.62455   1.63710   1.63929   1.66269
 Alpha virt. eigenvalues --    1.67322   1.68079   1.69574   1.70222   1.70975
 Alpha virt. eigenvalues --    1.72131   1.73750   1.74834   1.75603   1.76790
 Alpha virt. eigenvalues --    1.77040   1.78074   1.79221   1.80239   1.81363
 Alpha virt. eigenvalues --    1.82696   1.83966   1.85545   1.88096   1.88770
 Alpha virt. eigenvalues --    1.89199   1.91264   1.91535   1.92123   1.94035
 Alpha virt. eigenvalues --    1.95490   1.97056   1.98148   1.99251   1.99909
 Alpha virt. eigenvalues --    2.01063   2.01812   2.04556   2.05228   2.07196
 Alpha virt. eigenvalues --    2.10084   2.10447   2.11933   2.13945   2.16914
 Alpha virt. eigenvalues --    2.19302   2.19787   2.19937   2.21439   2.24796
 Alpha virt. eigenvalues --    2.27499   2.28953   2.32202   2.33213   2.33314
 Alpha virt. eigenvalues --    2.35234   2.36427   2.37901   2.39963   2.41020
 Alpha virt. eigenvalues --    2.45984   2.47079   2.47783   2.49785   2.50608
 Alpha virt. eigenvalues --    2.51060   2.53110   2.54740   2.55791   2.56957
 Alpha virt. eigenvalues --    2.59508   2.60570   2.62921   2.63931   2.65651
 Alpha virt. eigenvalues --    2.66920   2.68462   2.69436   2.70576   2.72103
 Alpha virt. eigenvalues --    2.72912   2.74464   2.75081   2.76080   2.78215
 Alpha virt. eigenvalues --    2.78712   2.80278   2.80576   2.80800   2.82572
 Alpha virt. eigenvalues --    2.84113   2.85590   2.87012   2.87534   2.90097
 Alpha virt. eigenvalues --    2.91369   2.92186   2.93180   2.94526   2.94602
 Alpha virt. eigenvalues --    2.96962   2.98913   3.00132   3.00892   3.03143
 Alpha virt. eigenvalues --    3.05268   3.10862   3.11188   3.14367   3.17066
 Alpha virt. eigenvalues --    3.19214   3.20955   3.24667   3.25540   3.29523
 Alpha virt. eigenvalues --    3.32478   3.35653   3.35936   3.36567   3.38505
 Alpha virt. eigenvalues --    3.40499   3.45560   3.52208   3.53602   3.55729
 Alpha virt. eigenvalues --    3.57360   3.59116   3.61798   3.65601   3.76430
 Alpha virt. eigenvalues --    3.78644   3.80879   3.83247   3.83821   3.86506
 Alpha virt. eigenvalues --    3.90492   4.05851   4.06505   4.11640   4.15635
 Alpha virt. eigenvalues --    4.21884   4.23994   4.33257   4.34875   4.39736
 Alpha virt. eigenvalues --    4.81842   4.85990   4.86439   5.00839   5.14290
 Alpha virt. eigenvalues --    5.16223   5.31620   5.37029   5.78779   5.86029
 Alpha virt. eigenvalues --    9.83414  23.56160  23.78697  23.87843  23.91364
 Alpha virt. eigenvalues --   23.94509  23.97236  23.98342  23.98558  24.00489
 Alpha virt. eigenvalues --   24.03331  24.07924  24.13878  24.20493  25.96298
 Alpha virt. eigenvalues --   26.32990  26.69785  35.65112  50.09281  50.14360
 Alpha virt. eigenvalues --  215.83405
  Beta  occ. eigenvalues -- -101.52223 -19.02173 -19.01997 -14.28174 -10.18168
  Beta  occ. eigenvalues --  -10.17774 -10.17622 -10.16868 -10.16215 -10.15709
  Beta  occ. eigenvalues --  -10.15359 -10.15032 -10.14812 -10.14662 -10.14563
  Beta  occ. eigenvalues --  -10.13913 -10.13855  -9.43684  -7.20062  -7.19230
  Beta  occ. eigenvalues --   -7.19167  -0.94714  -0.94111  -0.88734  -0.82869
  Beta  occ. eigenvalues --   -0.82249  -0.76995  -0.74994  -0.72335  -0.69473
  Beta  occ. eigenvalues --   -0.65880  -0.63048  -0.58284  -0.58186  -0.56527
  Beta  occ. eigenvalues --   -0.53053  -0.49459  -0.47451  -0.45988  -0.44385
  Beta  occ. eigenvalues --   -0.43751  -0.42465  -0.40847  -0.40143  -0.39153
  Beta  occ. eigenvalues --   -0.38638  -0.38416  -0.37368  -0.36856  -0.35423
  Beta  occ. eigenvalues --   -0.35090  -0.34167  -0.33479  -0.32802  -0.32618
  Beta  occ. eigenvalues --   -0.31618  -0.30792  -0.29973  -0.28283  -0.25185
  Beta  occ. eigenvalues --   -0.22979  -0.22474  -0.20714  -0.20043  -0.19103
  Beta  occ. eigenvalues --   -0.11086
  Beta virt. eigenvalues --   -0.00646  -0.00120   0.00492   0.01173   0.01481
  Beta virt. eigenvalues --    0.01691   0.02192   0.02487   0.03758   0.04384
  Beta virt. eigenvalues --    0.04696   0.04929   0.05432   0.05826   0.06233
  Beta virt. eigenvalues --    0.06851   0.06945   0.07400   0.07948   0.08314
  Beta virt. eigenvalues --    0.09027   0.09628   0.09829   0.09914   0.10370
  Beta virt. eigenvalues --    0.10747   0.11094   0.11672   0.11937   0.12593
  Beta virt. eigenvalues --    0.12748   0.12930   0.13191   0.13347   0.13849
  Beta virt. eigenvalues --    0.13981   0.14256   0.14581   0.14911   0.15134
  Beta virt. eigenvalues --    0.15585   0.15985   0.16212   0.16621   0.16830
  Beta virt. eigenvalues --    0.16974   0.17729   0.18117   0.18385   0.18703
  Beta virt. eigenvalues --    0.18773   0.19319   0.19759   0.20248   0.20347
  Beta virt. eigenvalues --    0.21042   0.21411   0.21856   0.22128   0.22954
  Beta virt. eigenvalues --    0.23176   0.23293   0.24449   0.25148   0.25357
  Beta virt. eigenvalues --    0.25588   0.25949   0.26294   0.26659   0.27031
  Beta virt. eigenvalues --    0.27366   0.27589   0.28267   0.28338   0.28654
  Beta virt. eigenvalues --    0.28871   0.29153   0.29839   0.30492   0.30924
  Beta virt. eigenvalues --    0.31261   0.31301   0.32075   0.32156   0.32641
  Beta virt. eigenvalues --    0.32885   0.33353   0.34116   0.34353   0.34934
  Beta virt. eigenvalues --    0.34992   0.35892   0.36027   0.36544   0.36987
  Beta virt. eigenvalues --    0.37615   0.38231   0.38662   0.40157   0.41105
  Beta virt. eigenvalues --    0.42010   0.42480   0.43615   0.44950   0.45858
  Beta virt. eigenvalues --    0.45985   0.47473   0.48143   0.49251   0.49979
  Beta virt. eigenvalues --    0.50112   0.52201   0.52988   0.54768   0.55751
  Beta virt. eigenvalues --    0.55835   0.56315   0.56695   0.57074   0.58526
  Beta virt. eigenvalues --    0.59163   0.60392   0.61242   0.61841   0.63091
  Beta virt. eigenvalues --    0.63604   0.64553   0.65774   0.66340   0.66408
  Beta virt. eigenvalues --    0.66893   0.67094   0.67587   0.68034   0.68402
  Beta virt. eigenvalues --    0.69084   0.70053   0.70525   0.71444   0.71595
  Beta virt. eigenvalues --    0.72782   0.73764   0.74845   0.75359   0.75896
  Beta virt. eigenvalues --    0.76055   0.76736   0.77774   0.78119   0.78398
  Beta virt. eigenvalues --    0.79120   0.79355   0.81777   0.82930   0.85430
  Beta virt. eigenvalues --    0.86757   0.87590   0.88401   0.89745   0.90214
  Beta virt. eigenvalues --    0.91011   0.92887   0.93631   0.93807   0.94650
  Beta virt. eigenvalues --    0.95273   0.96137   0.96431   0.96689   0.97039
  Beta virt. eigenvalues --    0.98171   0.98587   0.99970   1.00915   1.02074
  Beta virt. eigenvalues --    1.03079   1.03654   1.04062   1.05645   1.06749
  Beta virt. eigenvalues --    1.06949   1.09905   1.11315   1.11818   1.12458
  Beta virt. eigenvalues --    1.13700   1.14973   1.15831   1.17236   1.19017
  Beta virt. eigenvalues --    1.20400   1.22164   1.23578   1.25423   1.26623
  Beta virt. eigenvalues --    1.26909   1.27611   1.29309   1.29789   1.32680
  Beta virt. eigenvalues --    1.33075   1.34246   1.35496   1.36389   1.39577
  Beta virt. eigenvalues --    1.40755   1.42598   1.43887   1.47226   1.48380
  Beta virt. eigenvalues --    1.51732   1.52436   1.52990   1.54299   1.54791
  Beta virt. eigenvalues --    1.56036   1.57493   1.58044   1.58705   1.59275
  Beta virt. eigenvalues --    1.60213   1.62455   1.63710   1.63929   1.66269
  Beta virt. eigenvalues --    1.67322   1.68079   1.69574   1.70222   1.70975
  Beta virt. eigenvalues --    1.72131   1.73750   1.74834   1.75603   1.76790
  Beta virt. eigenvalues --    1.77040   1.78074   1.79221   1.80239   1.81363
  Beta virt. eigenvalues --    1.82696   1.83966   1.85545   1.88096   1.88770
  Beta virt. eigenvalues --    1.89199   1.91264   1.91535   1.92123   1.94035
  Beta virt. eigenvalues --    1.95490   1.97056   1.98148   1.99251   1.99909
  Beta virt. eigenvalues --    2.01063   2.01812   2.04556   2.05228   2.07196
  Beta virt. eigenvalues --    2.10084   2.10447   2.11933   2.13945   2.16914
  Beta virt. eigenvalues --    2.19302   2.19787   2.19937   2.21439   2.24796
  Beta virt. eigenvalues --    2.27499   2.28953   2.32202   2.33213   2.33314
  Beta virt. eigenvalues --    2.35234   2.36427   2.37901   2.39963   2.41020
  Beta virt. eigenvalues --    2.45984   2.47079   2.47783   2.49785   2.50608
  Beta virt. eigenvalues --    2.51060   2.53110   2.54740   2.55791   2.56957
  Beta virt. eigenvalues --    2.59508   2.60570   2.62921   2.63931   2.65651
  Beta virt. eigenvalues --    2.66920   2.68462   2.69436   2.70576   2.72103
  Beta virt. eigenvalues --    2.72912   2.74464   2.75081   2.76080   2.78215
  Beta virt. eigenvalues --    2.78712   2.80278   2.80576   2.80800   2.82572
  Beta virt. eigenvalues --    2.84113   2.85590   2.87012   2.87534   2.90097
  Beta virt. eigenvalues --    2.91369   2.92186   2.93180   2.94526   2.94602
  Beta virt. eigenvalues --    2.96962   2.98913   3.00132   3.00892   3.03143
  Beta virt. eigenvalues --    3.05268   3.10862   3.11188   3.14367   3.17066
  Beta virt. eigenvalues --    3.19214   3.20955   3.24667   3.25540   3.29523
  Beta virt. eigenvalues --    3.32478   3.35653   3.35936   3.36567   3.38505
  Beta virt. eigenvalues --    3.40499   3.45560   3.52208   3.53602   3.55729
  Beta virt. eigenvalues --    3.57360   3.59116   3.61798   3.65601   3.76430
  Beta virt. eigenvalues --    3.78644   3.80879   3.83247   3.83821   3.86506
  Beta virt. eigenvalues --    3.90492   4.05851   4.06505   4.11640   4.15635
  Beta virt. eigenvalues --    4.21884   4.23994   4.33257   4.34875   4.39736
  Beta virt. eigenvalues --    4.81842   4.85990   4.86439   5.00839   5.14290
  Beta virt. eigenvalues --    5.16223   5.31620   5.37029   5.78779   5.86029
  Beta virt. eigenvalues --    9.83414  23.56160  23.78697  23.87843  23.91364
  Beta virt. eigenvalues --   23.94509  23.97236  23.98342  23.98558  24.00489
  Beta virt. eigenvalues --   24.03331  24.07924  24.13878  24.20493  25.96298
  Beta virt. eigenvalues --   26.32990  26.69785  35.65112  50.09281  50.14360
  Beta virt. eigenvalues --  215.83405
          Condensed to atoms (all electrons):
               1          2          3          4          5          6
     1  C    9.072959   0.286198  -0.942180  -1.616594  -2.190980   2.091912
     2  C    0.286198   7.186303  -0.374001  -0.436303   0.698716  -0.872138
     3  C   -0.942180  -0.374001   7.758593   1.050478   0.169951  -0.399555
     4  C   -1.616594  -0.436303   1.050478  28.594922  -2.470936  -5.547644
     5  C   -2.190980   0.698716   0.169951  -2.470936  24.848143  -1.224352
     6  C    2.091912  -0.872138  -0.399555  -5.547644  -1.224352  12.352595
     7  C   -1.121336  -0.568754   0.525549  -3.380243   1.106527   0.437790
     8  C    1.001487  -0.549735   0.389709  -0.473381  -5.616327  -1.707135
     9  C   -0.450845   0.394152  -0.983918  -6.354894  -7.668018   0.951808
    10  C   -0.629847   0.386024  -1.101408  -2.192833  -1.233803  -0.361329
    11  O    0.229852   0.054336  -0.010739  -0.570040  -0.161087  -0.006934
    12  O   -0.016454  -0.006505   0.032858  -0.227250  -0.356971   0.252482
    13  H    0.371271  -0.097605   0.002706  -0.237365   0.039841   0.078290
    14  H   -0.044256   0.486447  -0.083971   0.038308   0.002866  -0.045364
    15  H    0.039124   0.003687  -0.126301   0.071761  -0.033687   0.337636
    16  Cl  -0.117437  -0.071191   0.053395  -0.828692   0.505694  -0.060922
    17  H   -0.017379  -0.058727   0.472821  -0.002473   0.005033  -0.093322
    18  N    0.007390  -0.005577   0.012456   0.259733  -0.078122  -0.112163
    19  C   -0.014382   0.008673  -0.017926   0.192111  -0.611778   0.010662
    20  C    0.001558  -0.004632   0.007138  -0.057538   0.316518  -0.024490
    21  C   -0.000437   0.000249  -0.000317   0.019713  -0.015490  -0.001056
    22  H   -0.002758   0.007060  -0.015743   0.104803  -0.227183  -0.041604
    23  H   -0.002795  -0.004882   0.005398  -0.130957   0.119690  -0.015187
    24  H   -0.001096   0.002008  -0.002163   0.003159  -0.074902   0.017052
    25  H    0.000188  -0.000355   0.000456  -0.006747   0.012795   0.000199
    26  H    0.000082   0.000189  -0.000434  -0.000396  -0.014530   0.001565
    27  H    0.000037   0.000035  -0.000012   0.000193   0.000144   0.000532
    28  H   -0.000005  -0.000010   0.000004  -0.000040   0.000508  -0.000207
    29  H    0.000115   0.000008  -0.000024   0.001617  -0.001794  -0.000033
               7          8          9         10         11         12
     1  C   -1.121336   1.001487  -0.450845  -0.629847   0.229852  -0.016454
     2  C   -0.568754  -0.549735   0.394152   0.386024   0.054336  -0.006505
     3  C    0.525549   0.389709  -0.983918  -1.101408  -0.010739   0.032858
     4  C   -3.380243  -0.473381  -6.354894  -2.192833  -0.570040  -0.227250
     5  C    1.106527  -5.616327  -7.668018  -1.233803  -0.161087  -0.356971
     6  C    0.437790  -1.707135   0.951808  -0.361329  -0.006934   0.252482
     7  C   11.214153  -0.698311  -2.171592  -0.105481   0.793406   0.011996
     8  C   -0.698311  24.351335  -5.865702  -2.923527  -0.417783  -0.247172
     9  C   -2.171592  -5.865702  28.221038   0.945294  -0.042771  -0.598847
    10  C   -0.105481  -2.923527   0.945294  13.377749  -0.026217   1.135016
    11  O    0.793406  -0.417783  -0.042771  -0.026217   8.653051  -0.000182
    12  O    0.011996  -0.247172  -0.598847   1.135016  -0.000182   8.698593
    13  H    0.061936   0.044617   0.040249   0.014289   0.002454   0.000471
    14  H   -0.010301  -0.014564   0.000411  -0.008486   0.002270  -0.000294
    15  H    0.001115   0.028036  -0.005461   0.007589   0.000394  -0.000514
    16  Cl   0.628673  -2.804196   0.572816   0.162983   0.122348  -0.008881
    17  H   -0.008596   0.001803   0.002924   0.017152  -0.000260   0.001806
    18  N    0.037208   0.445101  -0.693774  -0.278660  -0.002165  -0.034979
    19  C   -0.091869   0.505794   0.612550  -0.591996  -0.000401  -0.007854
    20  C    0.056703  -0.386094  -0.534054   0.338327   0.001690   0.015095
    21  C    0.010843   0.086856  -0.118139  -0.001333  -0.000104   0.001559
    22  H   -0.009853   0.192126   0.033953  -0.078026  -0.000341   0.028043
    23  H    0.035139  -0.357939   0.022360   0.069840   0.002015  -0.003042
    24  H   -0.015969   0.061482   0.136244  -0.014547  -0.000645   0.005946
    25  H   -0.003751  -0.015917   0.009751   0.006541   0.000025  -0.004198
    26  H   -0.003925   0.010217   0.034355  -0.017055   0.000055   0.001907
    27  H    0.000844  -0.002882   0.002083   0.000048   0.000013   0.000211
    28  H    0.000351  -0.001214   0.000894  -0.000645   0.000004   0.000042
    29  H   -0.002058   0.010558  -0.002409  -0.003615  -0.000028  -0.000141
              13         14         15         16         17         18
     1  C    0.371271  -0.044256   0.039124  -0.117437  -0.017379   0.007390
     2  C   -0.097605   0.486447   0.003687  -0.071191  -0.058727  -0.005577
     3  C    0.002706  -0.083971  -0.126301   0.053395   0.472821   0.012456
     4  C   -0.237365   0.038308   0.071761  -0.828692  -0.002473   0.259733
     5  C    0.039841   0.002866  -0.033687   0.505694   0.005033  -0.078122
     6  C    0.078290  -0.045364   0.337636  -0.060922  -0.093322  -0.112163
     7  C    0.061936  -0.010301   0.001115   0.628673  -0.008596   0.037208
     8  C    0.044617  -0.014564   0.028036  -2.804196   0.001803   0.445101
     9  C    0.040249   0.000411  -0.005461   0.572816   0.002924  -0.693774
    10  C    0.014289  -0.008486   0.007589   0.162983   0.017152  -0.278660
    11  O    0.002454   0.002270   0.000394   0.122348  -0.000260  -0.002165
    12  O    0.000471  -0.000294  -0.000514  -0.008881   0.001806  -0.034979
    13  H    0.545545  -0.018819   0.001349   0.000452   0.000074  -0.001076
    14  H   -0.018819   0.558020   0.000262  -0.002447  -0.014319   0.000098
    15  H    0.001349   0.000262   0.540836  -0.000618  -0.017014   0.000564
    16  Cl   0.000452  -0.002447  -0.000618  18.699240   0.000672  -0.025655
    17  H    0.000074  -0.014319  -0.017014   0.000672   0.553941   0.000265
    18  N   -0.001076   0.000098   0.000564  -0.025655   0.000265   7.093631
    19  C    0.000042   0.000089  -0.001331  -0.587891   0.000060   0.220833
    20  C   -0.000021  -0.000076   0.000617   0.343172   0.000063  -0.072342
    21  C   -0.000028   0.000007   0.000063  -0.049141  -0.000006   0.012582
    22  H   -0.000116   0.000096   0.000805  -0.035999  -0.000133   0.331080
    23  H    0.000036  -0.000152  -0.000120   0.319340   0.000072  -0.020838
    24  H    0.000087   0.000052  -0.000129  -0.048605  -0.000080  -0.137182
    25  H    0.000009  -0.000006  -0.000009   0.008706   0.000009  -0.001990
    26  H    0.000025   0.000000  -0.000042  -0.007090  -0.000005   0.014778
    27  H   -0.000001   0.000000  -0.000010  -0.000279  -0.000000  -0.004272
    28  H    0.000000  -0.000000   0.000005   0.001481   0.000000  -0.002535
    29  H    0.000001   0.000001   0.000008  -0.006111  -0.000000  -0.000776
              19         20         21         22         23         24
     1  C   -0.014382   0.001558  -0.000437  -0.002758  -0.002795  -0.001096
     2  C    0.008673  -0.004632   0.000249   0.007060  -0.004882   0.002008
     3  C   -0.017926   0.007138  -0.000317  -0.015743   0.005398  -0.002163
     4  C    0.192111  -0.057538   0.019713   0.104803  -0.130957   0.003159
     5  C   -0.611778   0.316518  -0.015490  -0.227183   0.119690  -0.074902
     6  C    0.010662  -0.024490  -0.001056  -0.041604  -0.015187   0.017052
     7  C   -0.091869   0.056703   0.010843  -0.009853   0.035139  -0.015969
     8  C    0.505794  -0.386094   0.086856   0.192126  -0.357939   0.061482
     9  C    0.612550  -0.534054  -0.118139   0.033953   0.022360   0.136244
    10  C   -0.591996   0.338327  -0.001333  -0.078026   0.069840  -0.014547
    11  O   -0.000401   0.001690  -0.000104  -0.000341   0.002015  -0.000645
    12  O   -0.007854   0.015095   0.001559   0.028043  -0.003042   0.005946
    13  H    0.000042  -0.000021  -0.000028  -0.000116   0.000036   0.000087
    14  H    0.000089  -0.000076   0.000007   0.000096  -0.000152   0.000052
    15  H   -0.001331   0.000617   0.000063   0.000805  -0.000120  -0.000129
    16  Cl  -0.587891   0.343172  -0.049141  -0.035999   0.319340  -0.048605
    17  H    0.000060   0.000063  -0.000006  -0.000133   0.000072  -0.000080
    18  N    0.220833  -0.072342   0.012582   0.331080  -0.020838  -0.137182
    19  C    7.550507  -1.343141   0.267140  -0.056554   0.015405   0.535952
    20  C   -1.343141   6.752524  -0.135556  -0.026091   0.276263  -0.224305
    21  C    0.267140  -0.135556   5.501507   0.001797  -0.074897   0.007075
    22  H   -0.056554  -0.026091   0.001797   0.516164  -0.003658   0.009837
    23  H    0.015405   0.276263  -0.074897  -0.003658   0.780342  -0.119102
    24  H    0.535952  -0.224305   0.007075   0.009837  -0.119102   0.711987
    25  H   -0.086373   0.460300  -0.053596  -0.004759   0.020143  -0.023050
    26  H    0.002762   0.345009  -0.047294   0.010143  -0.026996   0.027483
    27  H   -0.028951  -0.017937   0.405888   0.001896   0.002914   0.008011
    28  H    0.006242  -0.038416   0.394421   0.000639   0.000299  -0.004429
    29  H   -0.012101  -0.042512   0.415859   0.000122  -0.004688   0.000872
              25         26         27         28         29
     1  C    0.000188   0.000082   0.000037  -0.000005   0.000115
     2  C   -0.000355   0.000189   0.000035  -0.000010   0.000008
     3  C    0.000456  -0.000434  -0.000012   0.000004  -0.000024
     4  C   -0.006747  -0.000396   0.000193  -0.000040   0.001617
     5  C    0.012795  -0.014530   0.000144   0.000508  -0.001794
     6  C    0.000199   0.001565   0.000532  -0.000207  -0.000033
     7  C   -0.003751  -0.003925   0.000844   0.000351  -0.002058
     8  C   -0.015917   0.010217  -0.002882  -0.001214   0.010558
     9  C    0.009751   0.034355   0.002083   0.000894  -0.002409
    10  C    0.006541  -0.017055   0.000048  -0.000645  -0.003615
    11  O    0.000025   0.000055   0.000013   0.000004  -0.000028
    12  O   -0.004198   0.001907   0.000211   0.000042  -0.000141
    13  H    0.000009   0.000025  -0.000001   0.000000   0.000001
    14  H   -0.000006   0.000000   0.000000  -0.000000   0.000001
    15  H   -0.000009  -0.000042  -0.000010   0.000005   0.000008
    16  Cl   0.008706  -0.007090  -0.000279   0.001481  -0.006111
    17  H    0.000009  -0.000005  -0.000000   0.000000  -0.000000
    18  N   -0.001990   0.014778  -0.004272  -0.002535  -0.000776
    19  C   -0.086373   0.002762  -0.028951   0.006242  -0.012101
    20  C    0.460300   0.345009  -0.017937  -0.038416  -0.042512
    21  C   -0.053596  -0.047294   0.405888   0.394421   0.415859
    22  H   -0.004759   0.010143   0.001896   0.000639   0.000122
    23  H    0.020143  -0.026996   0.002914   0.000299  -0.004688
    24  H   -0.023050   0.027483   0.008011  -0.004429   0.000872
    25  H    0.629557  -0.064602  -0.015159  -0.004877   0.012033
    26  H   -0.064602   0.615372   0.011205  -0.006471  -0.012100
    27  H   -0.015159   0.011205   0.583050  -0.025930  -0.055375
    28  H   -0.004877  -0.006471  -0.025930   0.560080  -0.025629
    29  H    0.012033  -0.012100  -0.055375  -0.025629   0.586998
          Atomic-Atomic Spin Densities.
               1          2          3          4          5          6
     1  C    0.000000   0.000000  -0.000000  -0.000000   0.000000   0.000000
     2  C    0.000000  -0.000000  -0.000000  -0.000000  -0.000000   0.000000
     3  C   -0.000000  -0.000000   0.000000   0.000000   0.000000  -0.000000
     4  C   -0.000000  -0.000000   0.000000  -0.000000   0.000000   0.000000
     5  C    0.000000  -0.000000   0.000000   0.000000   0.000000  -0.000000
     6  C    0.000000   0.000000  -0.000000   0.000000  -0.000000  -0.000000
     7  C   -0.000000   0.000000   0.000000   0.000000   0.000000  -0.000000
     8  C   -0.000000   0.000000   0.000000   0.000000   0.000000  -0.000000
     9  C    0.000000   0.000000  -0.000000  -0.000000  -0.000000   0.000000
    10  C    0.000000   0.000000  -0.000000  -0.000000  -0.000000   0.000000
    11  O    0.000000   0.000000  -0.000000   0.000000   0.000000   0.000000
    12  O    0.000000   0.000000  -0.000000   0.000000  -0.000000  -0.000000
    13  H   -0.000000   0.000000  -0.000000   0.000000   0.000000  -0.000000
    14  H    0.000000  -0.000000  -0.000000  -0.000000  -0.000000   0.000000
    15  H    0.000000   0.000000  -0.000000  -0.000000  -0.000000   0.000000
    16  Cl  -0.000000  -0.000000   0.000000   0.000000   0.000000  -0.000000
    17  H   -0.000000  -0.000000   0.000000   0.000000   0.000000  -0.000000
    18  N   -0.000000  -0.000000   0.000000  -0.000000   0.000000   0.000000
    19  C    0.000000  -0.000000  -0.000000   0.000000  -0.000000  -0.000000
    20  C   -0.000000  -0.000000   0.000000  -0.000000   0.000000   0.000000
    21  C    0.000000  -0.000000  -0.000000   0.000000   0.000000   0.000000
    22  H    0.000000  -0.000000  -0.000000  -0.000000  -0.000000   0.000000
    23  H   -0.000000   0.000000   0.000000  -0.000000   0.000000  -0.000000
    24  H    0.000000   0.000000  -0.000000   0.000000  -0.000000  -0.000000
    25  H   -0.000000   0.000000   0.000000  -0.000000   0.000000  -0.000000
    26  H    0.000000   0.000000  -0.000000   0.000000  -0.000000  -0.000000
    27  H    0.000000  -0.000000  -0.000000   0.000000  -0.000000  -0.000000
    28  H   -0.000000  -0.000000   0.000000  -0.000000   0.000000   0.000000
    29  H    0.000000   0.000000  -0.000000   0.000000  -0.000000   0.000000
               7          8          9         10         11         12
     1  C   -0.000000  -0.000000   0.000000   0.000000   0.000000   0.000000
     2  C    0.000000   0.000000   0.000000   0.000000   0.000000   0.000000
     3  C    0.000000   0.000000  -0.000000  -0.000000  -0.000000  -0.000000
     4  C    0.000000   0.000000  -0.000000  -0.000000   0.000000   0.000000
     5  C    0.000000   0.000000  -0.000000  -0.000000   0.000000  -0.000000
     6  C   -0.000000  -0.000000   0.000000   0.000000   0.000000  -0.000000
     7  C   -0.000000  -0.000000  -0.000000   0.000000  -0.000000  -0.000000
     8  C   -0.000000  -0.000000   0.000000  -0.000000  -0.000000   0.000000
     9  C   -0.000000   0.000000   0.000000  -0.000000   0.000000   0.000000
    10  C    0.000000  -0.000000  -0.000000   0.000000   0.000000   0.000000
    11  O   -0.000000  -0.000000   0.000000   0.000000   0.000000   0.000000
    12  O   -0.000000   0.000000   0.000000   0.000000   0.000000  -0.000000
    13  H   -0.000000  -0.000000  -0.000000   0.000000  -0.000000  -0.000000
    14  H    0.000000   0.000000   0.000000   0.000000   0.000000   0.000000
    15  H   -0.000000  -0.000000   0.000000   0.000000  -0.000000  -0.000000
    16  Cl   0.000000  -0.000000  -0.000000   0.000000  -0.000000  -0.000000
    17  H   -0.000000   0.000000  -0.000000  -0.000000  -0.000000  -0.000000
    18  N    0.000000  -0.000000  -0.000000   0.000000  -0.000000   0.000000
    19  C   -0.000000   0.000000   0.000000  -0.000000   0.000000  -0.000000
[...]
    18  N    0.000000  -0.000000  -0.000000   0.000000  -0.000000
    19  C    0.000000   0.000000  -0.000000  -0.000000   0.000000
    20  C   -0.000000  -0.000000   0.000000   0.000000  -0.000000
    21  C    0.000000  -0.000000  -0.000000   0.000000  -0.000000
    22  H    0.000000   0.000000   0.000000  -0.000000   0.000000
    23  H   -0.000000   0.000000   0.000000  -0.000000  -0.000000
    24  H    0.000000  -0.000000  -0.000000  -0.000000  -0.000000
    25  H    0.000000   0.000000  -0.000000  -0.000000   0.000000
    26  H    0.000000  -0.000000   0.000000  -0.000000   0.000000
    27  H   -0.000000   0.000000   0.000000   0.000000   0.000000
    28  H   -0.000000  -0.000000   0.000000   0.000000  -0.000000
    29  H    0.000000   0.000000   0.000000  -0.000000   0.000000
 Mulliken charges and spin densities:
               1          2
     1  C    0.066608  -0.000000
     2  C   -0.463669  -0.000000
     3  C   -0.422819   0.000000
     4  C    0.197531  -0.000000
     5  C    0.153535  -0.000000
     6  C   -0.019089  -0.000000
     7  C   -0.730194  -0.000000
     8  C    0.952759   0.000000
     9  C   -0.490456  -0.000000
    10  C   -0.892046   0.000000
    11  O   -0.622219   0.000000
    12  O   -0.672744  -0.000000
    13  H    0.151286   0.000000
    14  H    0.154129  -0.000000
    15  H    0.151385  -0.000000
    16  Cl   0.236182  -0.000000
    17  H    0.155620   0.000000
    18  N    0.036387   0.000000
    19  C   -0.476274  -0.000000
    20  C   -0.007771   0.000000
    21  C   -0.628165   0.000000
    22  H    0.264254  -0.000000
    23  H    0.096000   0.000000
    24  H    0.138957  -0.000000
    25  H    0.124677   0.000000
    26  H    0.125792   0.000000
    27  H    0.133705   0.000000
    28  H    0.145438   0.000000
    29  H    0.141202  -0.000000
 Sum of Mulliken charges =  -2.00000  -0.00000
 Mulliken charges and spin densities with hydrogens summed into heavy atoms:
               1          2
     1  C    0.217895  -0.000000
     2  C   -0.309541  -0.000000
     3  C   -0.267200   0.000000
     4  C    0.197531  -0.000000
     5  C    0.153535  -0.000000
     6  C    0.132297  -0.000000
     7  C   -0.730194  -0.000000
     8  C    0.952759   0.000000
     9  C   -0.490456  -0.000000
    10  C   -0.892046   0.000000
    11  O   -0.622219   0.000000
    12  O   -0.672744  -0.000000
    16  Cl   0.236182  -0.000000
    18  N    0.300642   0.000000
    19  C   -0.241317  -0.000000
    20  C    0.242699   0.000000
    21  C   -0.207820   0.000000
 Electronic spatial extent (au):  <R**2>=           5309.6893
 Charge=             -2.0000 electrons
 Dipole moment (field-independent basis, Debye):
    X=             -7.0815    Y=             -3.3950    Z=              2.4363  Tot=              8.2225
 Quadrupole moment (field-independent basis, Debye-Ang):
   XX=           -139.9047   YY=           -171.3931   ZZ=           -122.9297
   XY=             -6.6029   XZ=             -4.7497   YZ=             -5.2550
 Traceless Quadrupole moment (field-independent basis, Debye-Ang):
   XX=              4.8378   YY=            -26.6506   ZZ=             21.8128
   XY=             -6.6029   XZ=             -4.7497   YZ=             -5.2550
 Octapole moment (field-independent basis, Debye-Ang**2):
  XXX=            -78.8628  YYY=            -33.5875  ZZZ=              0.7197  XYY=            -46.6297
  XXY=            -17.8832  XXZ=              4.4938  XZZ=            -15.2166  YZZ=              6.5204
  YYZ=              7.1388  XYZ=             -3.7717
 Hexadecapole moment (field-independent basis, Debye-Ang**3):
 XXXX=          -5671.5917 YYYY=          -2291.1451 ZZZZ=           -315.4425 XXXY=             -2.6329
 XXXZ=             29.1013 YYYX=           -109.6880 YYYZ=            -48.0229 ZZZX=            -19.8086
 ZZZY=             -7.7120 XXYY=          -1277.3090 XXZZ=          -1045.7025 YYZZ=           -382.9301
 XXYZ=              2.1624 YYXZ=            -11.8958 ZZXY=              9.9032
 N-N= 1.256285409730D+03 E-N=-5.295983674197D+03  KE= 1.164325760492D+03
                          Isotropic Fermi Contact Couplings
        Atom                 a.u.       MegaHertz       Gauss      10(-4) cm-1
     1  C(13)             -0.00000      -0.00000      -0.00000      -0.00000
     2  C(13)             -0.00000      -0.00000      -0.00000      -0.00000
     3  C(13)             -0.00000      -0.00000      -0.00000      -0.00000
     4  C(13)             -0.00000      -0.00000      -0.00000      -0.00000
     5  C(13)             -0.00000      -0.00000      -0.00000      -0.00000
     6  C(13)             -0.00000      -0.00000      -0.00000      -0.00000
     7  C(13)             -0.00000      -0.00000      -0.00000      -0.00000
     8  C(13)             -0.00000      -0.00000      -0.00000      -0.00000
     9  C(13)              0.00000       0.00000       0.00000       0.00000
    10  C(13)              0.00000       0.00000       0.00000       0.00000
    11  O(17)             -0.00000       0.00000       0.00000       0.00000
    12  O(17)             -0.00000       0.00000       0.00000       0.00000
    13  H(1)               0.00000       0.00000       0.00000       0.00000
    14  H(1)               0.00000       0.00000       0.00000       0.00000
    15  H(1)              -0.00000      -0.00000      -0.00000      -0.00000
    16  Cl(35)            -0.00000      -0.00000      -0.00000      -0.00000
    17  H(1)              -0.00000      -0.00000      -0.00000      -0.00000
    18  N(14)             -0.00000      -0.00000      -0.00000      -0.00000
    19  C(13)             -0.00000      -0.00000      -0.00000      -0.00000
    20  C(13)             -0.00000      -0.00000      -0.00000      -0.00000
    21  C(13)             -0.00000      -0.00000      -0.00000      -0.00000
    22  H(1)              -0.00000      -0.00000      -0.00000      -0.00000
    23  H(1)              -0.00000      -0.00000      -0.00000      -0.00000
    24  H(1)              -0.00000      -0.00000      -0.00000      -0.00000
    25  H(1)               0.00000       0.00000       0.00000       0.00000
    26  H(1)               0.00000       0.00000       0.00000       0.00000
    27  H(1)               0.00000       0.00000       0.00000       0.00000
    28  H(1)               0.00000       0.00000       0.00000       0.00000
    29  H(1)               0.00000       0.00000       0.00000       0.00000
 --------------------------------------------------------
       Center         ----  Spin Dipole Couplings  ----
                      3XX-RR        3YY-RR        3ZZ-RR
 --------------------------------------------------------
     1   Atom       -0.000000      0.000000      0.000000
     2   Atom       -0.000000      0.000000     -0.000000
     3   Atom        0.000000     -0.000000     -0.000000
     4   Atom        0.000000     -0.000000     -0.000000
     5   Atom       -0.000000      0.000000      0.000000
     6   Atom       -0.000000      0.000000     -0.000000
     7   Atom        0.000000     -0.000000     -0.000000
     8   Atom        0.000000      0.000000     -0.000000
     9   Atom        0.000000      0.000000     -0.000000
    10   Atom        0.000000     -0.000000     -0.000000
    11   Atom       -0.000000      0.000000     -0.000000
    12   Atom        0.000000     -0.000000     -0.000000
    13   Atom       -0.000000     -0.000000      0.000000
    14   Atom       -0.000000     -0.000000      0.000000
    15   Atom       -0.000000      0.000000      0.000000
    16   Atom        0.000000     -0.000000      0.000000
    17   Atom       -0.000000      0.000000     -0.000000
    18   Atom        0.000000      0.000000     -0.000000
    19   Atom        0.000000     -0.000000      0.000000
    20   Atom        0.000000     -0.000000     -0.000000
    21   Atom       -0.000000      0.000000     -0.000000
    22   Atom        0.000000     -0.000000     -0.000000
    23   Atom       -0.000000     -0.000000      0.000000
    24   Atom        0.000000      0.000000     -0.000000
    25   Atom       -0.000000      0.000000     -0.000000
    26   Atom       -0.000000     -0.000000      0.000000
    27   Atom       -0.000000      0.000000     -0.000000
    28   Atom       -0.000000      0.000000     -0.000000
    29   Atom        0.000000     -0.000000      0.000000
 --------------------------------------------------------
                        XY            XZ            YZ
 --------------------------------------------------------
     1   Atom       -0.000000      0.000000      0.000000
     2   Atom        0.000000      0.000000     -0.000000
     3   Atom        0.000000      0.000000     -0.000000
     4   Atom        0.000000      0.000000     -0.000000
     5   Atom       -0.000000     -0.000000     -0.000000
     6   Atom       -0.000000      0.000000     -0.000000
     7   Atom        0.000000     -0.000000      0.000000
     8   Atom       -0.000000      0.000000     -0.000000
     9   Atom       -0.000000     -0.000000      0.000000
    10   Atom       -0.000000      0.000000      0.000000
    11   Atom       -0.000000      0.000000     -0.000000
    12   Atom        0.000000      0.000000     -0.000000
    13   Atom        0.000000     -0.000000      0.000000
    14   Atom       -0.000000     -0.000000     -0.000000
    15   Atom       -0.000000     -0.000000     -0.000000
    16   Atom        0.000000      0.000000     -0.000000
    17   Atom       -0.000000      0.000000      0.000000
    18   Atom       -0.000000      0.000000      0.000000
    19   Atom       -0.000000      0.000000      0.000000
    20   Atom        0.000000      0.000000     -0.000000
    21   Atom        0.000000      0.000000     -0.000000
    22   Atom        0.000000      0.000000      0.000000
    23   Atom       -0.000000      0.000000     -0.000000
    24   Atom        0.000000     -0.000000      0.000000
    25   Atom       -0.000000     -0.000000      0.000000
    26   Atom        0.000000     -0.000000     -0.000000
    27   Atom        0.000000     -0.000000      0.000000
    28   Atom       -0.000000     -0.000000     -0.000000
    29   Atom       -0.000000      0.000000      0.000000
 --------------------------------------------------------


 ---------------------------------------------------------------------------------
              Anisotropic Spin Dipole Couplings in Principal Axis System
 ---------------------------------------------------------------------------------

       Atom             a.u.   MegaHertz   Gauss  10(-4) cm-1        Axes

              Baa    -0.0000    -0.000    -0.000    -0.000  0.9971  0.0763 -0.0041
     1 C(13)  Bbb     0.0000     0.000     0.000     0.000  0.0307 -0.3516  0.9357
              Bcc     0.0000     0.000     0.000     0.000 -0.0699  0.9331  0.3529
 
              Baa    -0.0000    -0.000    -0.000    -0.000  0.7511 -0.5599 -0.3497
     2 C(13)  Bbb    -0.0000    -0.000    -0.000    -0.000  0.3181 -0.1573  0.9349
              Bcc     0.0000     0.000     0.000     0.000  0.5785  0.8135 -0.0599
 
              Baa    -0.0000    -0.000    -0.000    -0.000 -0.0831  0.9864  0.1419
     3 C(13)  Bbb    -0.0000    -0.000    -0.000    -0.000 -0.0437 -0.1459  0.9883
              Bcc     0.0000     0.000     0.000     0.000  0.9956  0.0759  0.0553
 
              Baa    -0.0000    -0.000    -0.000    -0.000 -0.3487  0.2611  0.9001
     4 C(13)  Bbb    -0.0000    -0.000    -0.000    -0.000 -0.0982  0.9449 -0.3122
              Bcc     0.0000     0.000     0.000     0.000  0.9321  0.1972  0.3038
 
              Baa    -0.0000    -0.000    -0.000    -0.000  0.9478  0.0755  0.3096
     5 C(13)  Bbb     0.0000     0.000     0.000     0.000 -0.3184  0.2694  0.9089
              Bcc     0.0000     0.000     0.000     0.000  0.0148  0.9601 -0.2794
 
              Baa    -0.0000    -0.000    -0.000    -0.000  0.7174 -0.0076 -0.6966
     6 C(13)  Bbb    -0.0000    -0.000    -0.000    -0.000  0.6895  0.1506  0.7084
              Bcc     0.0000     0.000     0.000     0.000 -0.0995  0.9886 -0.1132
 
              Baa    -0.0000    -0.000    -0.000    -0.000  0.1526 -0.6874  0.7101
     7 C(13)  Bbb    -0.0000    -0.000    -0.000    -0.000  0.0767  0.7246  0.6849
              Bcc     0.0000     0.000     0.000     0.000  0.9853  0.0501 -0.1633
 
              Baa    -0.0000    -0.000    -0.000    -0.000 -0.2594  0.2082  0.9430
     8 C(13)  Bbb    -0.0000    -0.000    -0.000    -0.000  0.5915  0.8061 -0.0153
              Bcc     0.0000     0.000     0.000     0.000  0.7634 -0.5539  0.3323
 
              Baa    -0.0000    -0.000    -0.000    -0.000  0.0703 -0.4411  0.8947
     9 C(13)  Bbb     0.0000     0.000     0.000     0.000  0.4780  0.8022  0.3579
              Bcc     0.0000     0.000     0.000     0.000  0.8756 -0.4025 -0.2672
 
              Baa    -0.0000    -0.000    -0.000    -0.000 -0.4639 -0.4270  0.7762
    10 C(13)  Bbb    -0.0000    -0.000    -0.000    -0.000 -0.2339  0.9041  0.3576
              Bcc     0.0000     0.000     0.000     0.000  0.8545  0.0156  0.5193
 
              Baa    -0.0000     0.000     0.000     0.000  0.7984  0.6020  0.0134
    11 O(17)  Bbb    -0.0000     0.000     0.000     0.000 -0.2509  0.3124  0.9162
              Bcc     0.0000    -0.000    -0.000    -0.000 -0.5474  0.7349 -0.4004
 
              Baa    -0.0000     0.000     0.000     0.000 -0.2106  0.7326  0.6473
    12 O(17)  Bbb    -0.0000     0.000     0.000     0.000 -0.0803 -0.6729  0.7354
              Bcc     0.0000    -0.000    -0.000    -0.000  0.9743  0.1029  0.2005
 
              Baa    -0.0000    -0.000    -0.000    -0.000 -0.6553  0.6979 -0.2890
    13 H(1)   Bbb     0.0000     0.000     0.000     0.000  0.7477  0.5447 -0.3798
              Bcc     0.0000     0.000     0.000     0.000  0.1076  0.4650  0.8788
 
              Baa    -0.0000    -0.000    -0.000    -0.000  0.8646  0.4864  0.1260
    14 H(1)   Bbb     0.0000     0.000     0.000     0.000 -0.5019  0.8243  0.2620
              Bcc     0.0000     0.000     0.000     0.000  0.0236 -0.2898  0.9568
 
              Baa    -0.0000    -0.000    -0.000    -0.000  0.7667  0.6136  0.1890
    15 H(1)   Bbb     0.0000     0.000     0.000     0.000 -0.0983 -0.1786  0.9790
              Bcc     0.0000     0.000     0.000     0.000 -0.6344  0.7692  0.0766
 
              Baa    -0.0000    -0.000    -0.000    -0.000 -0.5552  0.8108  0.1852
    16 Cl(35) Bbb     0.0000     0.000     0.000     0.000 -0.1176 -0.2970  0.9476
              Bcc     0.0000     0.000     0.000     0.000  0.8234  0.5043  0.2602
 
              Baa    -0.0000    -0.000    -0.000    -0.000  0.9052  0.0899 -0.4154
    17 H(1)   Bbb    -0.0000    -0.000    -0.000    -0.000  0.4125  0.0494  0.9096
              Bcc     0.0000     0.000     0.000     0.000 -0.1023  0.9947 -0.0077
 
              Baa    -0.0000    -0.000    -0.000    -0.000 -0.1261 -0.4946  0.8599
    18 N(14)  Bbb     0.0000     0.000     0.000     0.000  0.4232  0.7572  0.4976
              Bcc     0.0000     0.000     0.000     0.000  0.8972 -0.4267 -0.1139
 
              Baa    -0.0000    -0.000    -0.000    -0.000  0.3141  0.6749 -0.6677
    19 C(13)  Bbb     0.0000     0.000     0.000     0.000  0.7447 -0.6114 -0.2677
              Bcc     0.0000     0.000     0.000     0.000  0.5889  0.4132  0.6946
 
              Baa    -0.0000    -0.000    -0.000    -0.000 -0.5794  0.7715  0.2630
    20 C(13)  Bbb    -0.0000    -0.000    -0.000    -0.000  0.0676 -0.2761  0.9588
              Bcc     0.0000     0.000     0.000     0.000  0.8123  0.5733  0.1078
 
              Baa    -0.0000    -0.000    -0.000    -0.000 -0.6680  0.2392  0.7047
    21 C(13)  Bbb     0.0000     0.000     0.000     0.000  0.0342  0.9558 -0.2920
              Bcc     0.0000     0.000     0.000     0.000  0.7434  0.1710  0.6466
 
              Baa    -0.0000    -0.000    -0.000    -0.000 -0.2313  0.9590 -0.1639
    22 H(1)   Bbb    -0.0000    -0.000    -0.000    -0.000 -0.2003  0.1179  0.9726
              Bcc     0.0000     0.000     0.000     0.000  0.9520  0.2578  0.1648
 
              Baa    -0.0000    -0.000    -0.000    -0.000  0.9432  0.2214 -0.2478
    23 H(1)   Bbb    -0.0000    -0.000    -0.000    -0.000 -0.0722  0.8644  0.4977
              Bcc     0.0000     0.000     0.000     0.000  0.3244 -0.4515  0.8312
 
              Baa    -0.0000    -0.000    -0.000    -0.000  0.4819 -0.4425  0.7563
    24 H(1)   Bbb     0.0000     0.000     0.000     0.000 -0.3420  0.6997  0.6273
              Bcc     0.0000     0.000     0.000     0.000  0.8067  0.5610 -0.1859
 
              Baa    -0.0000    -0.000    -0.000    -0.000  0.5924 -0.2530  0.7648
    25 H(1)   Bbb    -0.0000    -0.000    -0.000    -0.000  0.8034  0.2560 -0.5376
              Bcc     0.0000     0.000     0.000     0.000 -0.0598  0.9330  0.3550
 
              Baa    -0.0000    -0.000    -0.000    -0.000 -0.1749  0.7692  0.6147
    26 H(1)   Bbb    -0.0000    -0.000    -0.000    -0.000  0.9333 -0.0694  0.3524
              Bcc     0.0000     0.000     0.000     0.000 -0.3137 -0.6353  0.7057
 
              Baa    -0.0000    -0.000    -0.000    -0.000  0.3265 -0.2472  0.9123
    27 H(1)   Bbb    -0.0000    -0.000    -0.000    -0.000  0.8332 -0.3803 -0.4013
              Bcc     0.0000     0.000     0.000     0.000  0.4462  0.8912  0.0818
 
              Baa    -0.0000    -0.000    -0.000    -0.000  0.7422  0.2406  0.6255
    28 H(1)   Bbb     0.0000     0.000     0.000     0.000  0.6465 -0.5031 -0.5736
              Bcc     0.0000     0.000     0.000     0.000  0.1766  0.8301 -0.5290
 
              Baa    -0.0000    -0.000    -0.000    -0.000  0.2802  0.9015 -0.3299
    29 H(1)   Bbb     0.0000     0.000     0.000     0.000  0.7577 -0.4186 -0.5006
              Bcc     0.0000     0.000     0.000     0.000  0.5893  0.1097  0.8004
 

 ---------------------------------------------------------------------------------

 No NMR shielding tensors so no spin-rotation constants.
 Leave Link  601 at Sun Jan 21 08:44:11 2024, MaxMem=  4026531840 cpu:               6.8 elap:               1.2
 (Enter /sysapps/ubuntu-applications/gaussian/Gaussian/AVX2/g16/l9999.exe)
 1\1\GINC-ACIDSCN027\SP\UB3LYP\6-311++G(d,p)\C13H12Cl1N1O2(2-)\SELHAJJ1
 \21-Jan-2024\0\\#P UB3LYP/6-311++G(d,p) SCRF=(PCM,Solvent=n,n-DiMethyl
 Formamide)\\Reduced\\-2,1\C,0,5.766103,-5.217998,1.116242\C,0,6.532858
 ,-5.266644,-0.035856\C,0,6.286956,-4.336345,-1.077704\C,0,4.737684,-4.
 268389,1.292159\C,0,4.488747,-3.321939,0.235018\C,0,5.288172,-3.392861
 ,-0.933454\C,0,3.976936,-4.271179,2.54547\C,0,2.971824,-3.258734,2.584
 216\C,0,2.677053,-2.35044,1.549828\C,0,3.442953,-2.332863,0.334439\O,0
 ,4.22479,-5.094134,3.486911\O,0,3.189105,-1.46517,-0.592197\H,0,5.9282
 13,-5.912791,1.934426\H,0,7.318044,-6.012737,-0.142028\H,0,5.077328,-2
 .668057,-1.713466\Cl,0,2.074986,-3.12426,4.133818\H,0,6.884408,-4.3656
 6,-1.987391\N,0,1.684195,-1.338241,1.629258\C,0,0.276739,-1.75978,1.65
 592\C,0,-0.65479,-0.547839,1.730813\C,0,-2.140308,-0.923185,1.756694\H
 ,0,1.845128,-0.801278,0.771445\H,0,0.115582,-2.39872,2.525885\H,0,0.01
 8002,-2.35842,0.76221\H,0,-0.459195,0.108053,0.872099\H,0,-0.398111,0.
 031774,2.624669\H,0,-2.426102,-1.488011,0.862323\H,0,-2.787638,-0.0382
 92,1.802963\H,0,-2.377001,-1.546837,2.62634\\Version=ES64L-G16RevA.03\
 State=1-A\HF=-1168.4800377\S2=0.\S2-1=0.\S2A=0.\RMSD=2.128e-09\Dipole=
 -2.9137174,1.1247387,-0.8427883\Quadrupole=10.0418214,-0.5453192,-9.49
 65021,7.9628654,0.5528859,15.0574873\PG=C01 [X(C13H12Cl1N1O2)]\\@


 DEFINE YOUR TERMS, YOU WILL PERMIT ME AGAIN TO SAY, 
 OR WE SHALL NEVER UNDERSTAND ONE ANOTHER.

                                    -- VOLTAIRE
 Job cpu time:       0 days  0 hours 25 minutes 17.6 seconds.
 Elapsed time:       0 days  0 hours  3 minutes 12.5 seconds.
 File lengths (MBytes):  RWF=    303 Int=      0 D2E=      0 Chk=     17 Scr=      1
 Normal termination of Gaussian 16 at Sun Jan 21 08:44:11 2024.
