
Running Job 1 of 1 131-rad-SM12.in
qchem 131-rad-SM12.in_2696207.0 /expanse/lustre/scratch/selhajj/temp_project/qcscratch/28445566/qchem2696207/ 0
/cm/shared/apps/spack/cpu/opt/spack/linux-centos8-zen2/gcc-10.2.0/qchem-5.4-akfmr7b3t57bfs6qan3padb2wnb2i7cl/exe/qcprog.exe_s 131-rad-SM12.in_2696207.0 /expanse/lustre/scratch/selhajj/temp_project/qcscratch/28445566/qchem2696207/
                  Welcome to Q-Chem
     A Quantum Leap Into The Future Of Chemistry


 Q-Chem 5.4, Q-Chem, Inc., Pleasanton, CA (2021)

 License issued to: University of California, San Diego (site)

 E. Epifanovsky,  A. T. B. Gilbert,  Xintian Feng,  Joonho Lee,  Yuezhi Mao,  
 N. Mardirossian,  P. Pokhilko,  A. White,  M. Wormit,  M. P. Coons,  
 A. L. Dempwolff,  Zhengting Gan,  D. Hait,  P. R. Horn,  L. D. Jacobson,  
 I. Kaliman,  J. Kussmann,  A. W. Lange,  Ka Un Lao,  D. S. Levine,  Jie Liu,  
 S. C. McKenzie,  A. F. Morrison,  K. Nanda,  F. Plasser,  D. R. Rehn,  
 M. L. Vidal,  Zhi-Qiang You,  Ying Zhu,  B. Alam,  B. Albrecht,  
 A. Aldossary,  E. Alguire,  J. H. Andersen,  D. Barton,  K. Begam,  A. Behn,  
 Y. A. Bernard,  E. J. Berquist,  H. Burton,  A. Carreras,  K. Carter-Fenk,  
 R. Chakraborty,  A. D. Chien,  K. D. Closser,  V. Cofer-Shabica,  
 S. Dasgupta,  Jia Deng,  M. de Wergifosse,  M. Diedenhofen,  Hainam Do,  
 S. Ehlert,  Po-Tung Fang,  S. Fatehi,  Qingguo Feng,  J. Gayvert,  
 Qinghui Ge,  G. Gidofalvi,  M. Goldey,  J. Gomes,  C. Gonzalez-Espinoza,  
 S. Gulania,  A. Gunina,  M. W. D. Hanson-Heine,  P. H. P. Harbach,  
 A. W. Hauser,  M. F. Herbst,  M. Hernandez Vera,  M. Hodecker,  
 Z. C. Holden,  S. Houck,  Xunkun Huang,  Kerwin Hui,  B. C. Huynh,  
 M. Ivanov,  Hyunjun Ji,  Hanjie Jiang,  B. Kaduk,  S. Kaehler,  
 K. Khistyaev,  Jaehoon Kim,  P. Klunzinger,  Z. Koczor-Benda,  
 Joong Hoon Koh,  D. Kosenkov,  L. Koulias,  T. Kowalczyk,  C. M. Krauter,  
 K. Kue,  A. Kunitsa,  T. Kus,  A. Landau,  K. V. Lawler,  D. Lefrancois,  
 S. Lehtola,  Rain Li,  Yi-Pei Li,  Jiashu Liang,  M. Liebenthal,  
 Hung-Hsuan Lin,  You-Sheng Lin,  Fenglai Liu,  Kuan-Yu Liu,  
 M. Loipersberger,  A. Luenser,  A. Manjanath,  P. Manohar,  E. Mansoor,  
 S. F. Manzer,  Shan-Ping Mao,  A. V. Marenich,  T. Markovich,  S. Mason,  
 S. A. Maurer,  P. F. McLaughlin,  M. F. S. J. Menger,  J.-M. Mewes,  
 S. A. Mewes,  P. Morgante,  J. W. Mullinax,  T. S. Nguyen-Beck,  
 K. J. Oosterbaan,  G. Paran,  Alexander C. Paul,  Suranjan K. Paul,  
 F. Pavosevic,  Zheng Pei,  S. Prager,  E. I. Proynov,  E. Ramos,  B. Rana,  
 A. E. Rask,  A. Rettig,  R. M. Richard,  F. Rob,  E. Rossomme,  T. Scheele,  
 M. Scheurer,  M. Schneider,  N. Sergueev,  S. M. Sharada,  W. Skomorowski,  
 D. W. Small,  C. J. Stein,  Yu-Chuan Su,  E. J. Sundstrom,  Zhen Tao,  
 J. Thirman,  T. Tsuchimochi,  N. M. Tubman,  S. P. Veccham,  O. Vydrov,  
 J. Wenzel,  J. Witte,  A. Yamada,  Kun Yao,  S. Yeganeh,  S. R. Yost,  
 A. Zech,  Igor Ying Zhang,  Xing Zhang,  Yu Zhang,  D. Zuev,  
 A. Aspuru-Guzik,  A. T. Bell,  N. A. Besley,  K. B. Bravaya,  B. R. Brooks,  
 D. Casanova,  Jeng-Da Chai,  S. Coriani,  C. J. Cramer,  
 A. E. DePrince, III,  R. A. DiStasio Jr.,  A. Dreuw,  B. D. Dunietz,  
 T. R. Furlani,  W. A. Goddard III,  S. Grimme,  S. Hammes-Schiffer,  
 T. Head-Gordon,  W. J. Hehre,  Chao-Ping Hsu,  T.-C. Jagau,  Yousung Jung,  
 A. Klamt,  Jing Kong,  D. S. Lambrecht,  WanZhen Liang,  N. J. Mayhall,  
 C. W. McCurdy,  J. B. Neaton,  C. Ochsenfeld,  J. A. Parkhill,  R. Peverati,  
 V. A. Rassolov,  Yihan Shao,  L. V. Slipchenko,  T. Stauch,  R. P. Steele,  
 J. E. Subotnik,  A. J. W. Thom,  A. Tkatchenko,  D. G. Truhlar,  
 T. Van Voorhis,  T. A. Wesolowski,  K. B. Whaley,  H. L. Woodcock III,  
 P. M. Zimmerman,  S. Faraji,  P. M. W. Gill,  M. Head-Gordon,  
 J. M. Herbert,  A. I. Krylov

 Contributors to earlier versions of Q-Chem not listed above: 
 R. D. Adamson,  B. Austin,  R. Baer,  J. Baker,  G. J. O. Beran,  
 K. Brandhorst,  S. T. Brown,  E. F. C. Byrd,  A. K. Chakraborty,  
 G. K. L. Chan,  Chun-Min Chang,  Yunqing Chen,  C.-L. Cheng,  
 Siu Hung Chien,  D. M. Chipman,  D. L. Crittenden,  H. Dachsel,  
 R. J. Doerksen,  A. D. Dutoi,  R. G. Edgar,  J. Fosso-Tande,  
 L. Fusti-Molnar,  D. Ghosh,  A. Ghysels,  A. Golubeva-Zadorozhnaya,  
 J. Gonthier,  M. S. Gordon,  S. R. Gwaltney,  G. Hawkins,  J. E. Herr,  
 A. Heyden,  S. Hirata,  E. G. Hohenstein,  G. Kedziora,  F. J. Keil,  
 C. Kelley,  Jihan Kim,  R. A. King,  R. Z. Khaliullin,  P. P. Korambath,  
 W. Kurlancheek,  A. Laurent,  A. M. Lee,  M. S. Lee,  S. V. Levchenko,  
 Ching Yeh Lin,  D. Liotard,  E. Livshits,  R. C. Lochan,  I. Lotan,  
 L. A. Martinez-Martinez,  P. E. Maslen,  N. Nair,  D. P. O'Neill,  
 D. Neuhauser,  E. Neuscamman,  C. M. Oana,  R. Olivares-Amaya,  R. Olson,  
 T. M. Perrine,  B. Peters,  P. A. Pieniazek,  A. Prociuk,  Y. M. Rhee,  
 J. Ritchie,  M. A. Rohrdanz,  E. Rosta,  N. J. Russ,  H. F. Schaefer III,  
 M. W. Schmidt,  N. E. Schultz,  S. Sharma,  N. Shenvi,  C. D. Sherrill,  
 A. C. Simmonett,  A. Sodt,  T. Stein,  D. Stuck,  K. S. Thanthiriwatte,  
 V. Vanovschi,  L. Vogt,  Tao Wang,  A. Warshel,  M. A. Watson,  
 C. F. Williams,  Q. Wu,  X. Xu,  Jun Yang,  W. Zhang,  Yan Zhao

 Please cite Q-Chem as follows:
 Y. Shao et al., Mol. Phys. 113, 184-215 (2015)
 DOI: 10.1080/00268976.2014.952696

 Q-Chem 5.4.0 for Intel X86 EM64T Linux

 Parts of Q-Chem use Armadillo 9.800.1 (Horizon Scraper).
 http://arma.sourceforge.net/

 Q-Chem begins on Sat Feb  3 11:23:26 2024  

 Host: 
0

     Scratch files written to /expanse/lustre/scratch/selhajj/temp_project/qcscratch/28445566/qchem2696207//
 May1621 |scratch|qcdevops|jenkins|workspace|build_RNUM    
 Processing $rem in /cm/shared/apps/spack/cpu/opt/spack/linux-centos8-zen2/gcc-10.2.0/qchem-5.4-akfmr7b3t57bfs6qan3padb2wnb2i7cl/config/preferences:
 Processing $rem in /home/selhajj/.qchemrc:
 Symmetry turned off for PCM/SM12/SMD calculation
 Method-specific promolecule density matrix will be built for SM12 calculation

 Checking the input file for inconsistencies... 	...done.

--------------------------------------------------------------
User input:
--------------------------------------------------------------
$molecule
-1 2
C                 -4.8362490000      1.1305840000     -1.5752710000
C                 -3.6031500000      0.6158390000     -0.8712580000
C                 -3.7295190000     -0.2290730000      0.2546280000
C                 -2.6363450000     -0.7324670000      0.9411860000
C                 -2.9041510000     -1.6271070000      2.1310560000
C                 -1.3161810000     -0.3891320000      0.5009260000
C                 -0.1186620000     -0.8843530000      1.1780640000
O                 -0.1676550000     -1.6393950000      2.1847650000
C                  1.1818140000     -0.4640730000      0.6352640000
C                  2.3341500000     -0.9456810000      1.2942790000
C                  3.6031650000     -0.6155610000      0.8714270000
C                  4.8362620000     -1.1298920000      1.5757840000
C                  3.7295260000      0.2291980000     -0.2545340000
C                  2.6363230000      0.7322750000     -0.9413250000
C                  2.9041330000      1.6267610000     -2.1313150000
C                  1.3162100000      0.3887700000     -0.5011770000
C                  0.1186650000      0.8837910000     -1.1784730000
O                  0.1676970000      1.6384980000     -2.1854110000
C                 -1.1817940000      0.4637770000     -0.6354610000
C                 -2.3341380000      0.9456950000     -1.2942680000
H                 -5.4544880000      0.3085910000     -1.9565770000
H                 -5.4694130000      1.7186570000     -0.8995830000
H                 -4.5678900000      1.7677400000     -2.4214820000
H                 -4.7260430000     -0.4975010000      0.5993550000
H                 -2.4509310000     -2.6120160000      2.0039950000
H                 -2.4643720000     -1.2236400000      3.0450360000
H                 -3.9849370000     -1.7414260000      2.2694420000
H                  2.1745220000     -1.5896950000      2.1516230000
H                  5.4701810000     -1.7171180000      0.9000740000
H                  4.5678620000     -1.7677270000      2.4214640000
H                  5.4537220000     -0.3076990000      1.9579260000
H                  4.7260330000      0.4977990000     -0.5991780000
H                  3.9849110000      1.7414600000     -2.2694170000
H                  2.4504530000      2.6115050000     -2.0046440000
H                  2.4647860000      1.2228800000     -3.0453280000
H                 -2.1744980000      1.5897370000     -2.1515900000
$end

$rem
BASIS  =  6-311++G(d,p)
GUI  =  2
JOB_TYPE  =  SP
METHOD  =  B3LYP
SCF_CONVERGENCE  = 8
SOLVENT_METHOD = sm12
$end

$smx
solvent dimethylformamide
charges CM5
$end





--------------------------------------------------------------
 ----------------------------------------------------------------
             Standard Nuclear Orientation (Angstroms)
    I     Atom           X                Y                Z
 ----------------------------------------------------------------
    1      C      -4.8362490000     1.1305840000    -1.5752710000
    2      C      -3.6031500000     0.6158390000    -0.8712580000
    3      C      -3.7295190000    -0.2290730000     0.2546280000
    4      C      -2.6363450000    -0.7324670000     0.9411860000
    5      C      -2.9041510000    -1.6271070000     2.1310560000
    6      C      -1.3161810000    -0.3891320000     0.5009260000
    7      C      -0.1186620000    -0.8843530000     1.1780640000
    8      O      -0.1676550000    -1.6393950000     2.1847650000
    9      C       1.1818140000    -0.4640730000     0.6352640000
   10      C       2.3341500000    -0.9456810000     1.2942790000
   11      C       3.6031650000    -0.6155610000     0.8714270000
   12      C       4.8362620000    -1.1298920000     1.5757840000
   13      C       3.7295260000     0.2291980000    -0.2545340000
   14      C       2.6363230000     0.7322750000    -0.9413250000
   15      C       2.9041330000     1.6267610000    -2.1313150000
   16      C       1.3162100000     0.3887700000    -0.5011770000
   17      C       0.1186650000     0.8837910000    -1.1784730000
   18      O       0.1676970000     1.6384980000    -2.1854110000
   19      C      -1.1817940000     0.4637770000    -0.6354610000
   20      C      -2.3341380000     0.9456950000    -1.2942680000
   21      H      -5.4544880000     0.3085910000    -1.9565770000
   22      H      -5.4694130000     1.7186570000    -0.8995830000
   23      H      -4.5678900000     1.7677400000    -2.4214820000
   24      H      -4.7260430000    -0.4975010000     0.5993550000
   25      H      -2.4509310000    -2.6120160000     2.0039950000
   26      H      -2.4643720000    -1.2236400000     3.0450360000
   27      H      -3.9849370000    -1.7414260000     2.2694420000
   28      H       2.1745220000    -1.5896950000     2.1516230000
   29      H       5.4701810000    -1.7171180000     0.9000740000
   30      H       4.5678620000    -1.7677270000     2.4214640000
   31      H       5.4537220000    -0.3076990000     1.9579260000
   32      H       4.7260330000     0.4977990000    -0.5991780000
   33      H       3.9849110000     1.7414600000    -2.2694170000
   34      H       2.4504530000     2.6115050000    -2.0046440000
   35      H       2.4647860000     1.2228800000    -3.0453280000
   36      H      -2.1744980000     1.5897370000    -2.1515900000
 ----------------------------------------------------------------
 Nuclear Repulsion Energy =        1457.17590739 hartrees
 There are       71 alpha and       70 beta electrons
 Requested basis set is 6-311++G(d,p)
 There are 200 shells and 552 basis functions

 Total QAlloc Memory Limit   8000 MB
 Mega-Array Size       188 MB
 MEM_STATIC part       192 MB
 A cutoff of  1.0D-11 yielded  14679 shell pairs
 There are    116306 function pairs (    124197 Cartesian)
 Smallest overlap matrix eigenvalue = 1.91E-08

 Q-Chem warning in module stvman/mkSTV.C, line 323:

 Overlap eigenvalue is smaller than square root of threshold
 Use THRESH >= 12 to get rid of this warning

 Linear dependence detected in AO basis
 Tighter screening thresholds may be required for diffuse basis sets
 Use S2THRESH > 14 and THRESH = 14 in case of SCF convergence issues
 Number of orthogonalized atomic orbitals = 541
 Maximum deviation from orthogonality = 8.672E-11

 Scale SEOQF with 1.000000e-02/1.000000e-01/1.000000e-01

 Standard Electronic Orientation quadrupole field applied
 Nucleus-field energy     =    -0.0000000154 hartrees
 ================ Generating on-the-fly Promolecule Density  ================
Attempting to make child job directory: /expanse/lustre/scratch/selhajj/temp_project/qcscratch/28445566/qchem2696207//Frg1/
Attempting to make child job directory: /expanse/lustre/scratch/selhajj/temp_project/qcscratch/28445566/qchem2696207//Frg2/
Attempting to make child job directory: /expanse/lustre/scratch/selhajj/temp_project/qcscratch/28445566/qchem2696207//Frg3/
Creating input file /expanse/lustre/scratch/selhajj/temp_project/qcscratch/28445566/qchem2696207/Frg1.input
using default PutDataFrgm: nothing
calling putenv with: QCSCRATCH=/expanse/lustre/scratch/selhajj/temp_project/qcscratch/28445566/qchem2696207/ 
Spawning Job For Fragment 0
Done Job For Fragment 0
calling putenv with: QCSCRATCH=/expanse/lustre/scratch/selhajj/temp_project/qcscratch/28445566 
calling putenv with: QCTHREADS=8 
Creating input file /expanse/lustre/scratch/selhajj/temp_project/qcscratch/28445566/qchem2696207/Frg2.input
using default PutDataFrgm: nothing
calling putenv with: QCSCRATCH=/expanse/lustre/scratch/selhajj/temp_project/qcscratch/28445566/qchem2696207/ 
Spawning Job For Fragment 1
Done Job For Fragment 1
calling putenv with: QCSCRATCH=/expanse/lustre/scratch/selhajj/temp_project/qcscratch/28445566 
calling putenv with: QCTHREADS=8 
Creating input file /expanse/lustre/scratch/selhajj/temp_project/qcscratch/28445566/qchem2696207/Frg3.input
using default PutDataFrgm: nothing
calling putenv with: QCSCRATCH=/expanse/lustre/scratch/selhajj/temp_project/qcscratch/28445566/qchem2696207/ 
Spawning Job For Fragment 2
Done Job For Fragment 2
calling putenv with: QCSCRATCH=/expanse/lustre/scratch/selhajj/temp_project/qcscratch/28445566 
calling putenv with: QCTHREADS=8 
 Time for running child jobs:  CPU 0.01 s  wall 34.34 s
 ============= Method Specific Promolecule Density Constructed =============
 Guess from superposition of atomic densities
 Warning:  Energy on first SCF cycle will be non-variational
 SAD guess density has 140.000000 electrons

 -----------------------------------------------------------------------
  General SCF calculation program by
  Eric Jon Sundstrom, Paul Horn, Yuezhi Mao, Dmitri Zuev, Alec White,
  David Stuck, Shaama M.S., Shane Yost, Joonho Lee, David Small,
  Daniel Levine, Susi Lehtola, Hugh Burton, Evgeny Epifanovsky,
  Bang C. Huynh
 -----------------------------------------------------------------------
 Exchange:     0.2000 Hartree-Fock + 0.0800 Slater + 0.7200 B88
 Correlation:  0.1900 VWN1RPA + 0.8100 LYP
 Using SG-1 standard quadrature grid
 using 8 threads for integral computing
 -------------------------------------------------------
 OpenMP Integral computing Module                
 Release: version 1.0, May 2013, Q-Chem Inc. Pittsburgh 
 -------------------------------------------------------
 
 SM12 calculation using CM5 charges
 Citation of the SM12 model:
 Marenich, A.V.; Cramer, C.J.; Truhlar, D.G.
 J. Chem. Theory Comput. 2013, 9, 609-612.
 iSolventCode=          91
 Solvent: dimethylformamide                                               
 
Hirshfeld: reading atomic densities from disk.
warning:  vdwdata pointer should have been initialzed before dftman
 Inaccurate integrated density:
   Number of electrons =   141
   Numerical integral  =   139.999715593951
   Relative error      =    -0.7094215646 %

 Charges (in A.U.) from CM5PAC (Nov. 11, 2011)
 -----------------------------------------------
 Center     Atomic      CM5         Hirshfeld
 Number     Number      Charge      Charge
 -----------------------------------------------
    1          6       -0.149046   -0.006050
    2          6       -0.021247   -0.004333
    3          6       -0.052693   -0.001360
    4          6       -0.015593   -0.002235
    5          6       -0.146320   -0.003804
    6          6        0.001088    0.000571
    7          6        0.037199    0.006881
    8          8       -0.071831   -0.019744
    9          6       -0.001462    0.000161
   10          6       -0.048932    0.000411
   11          6       -0.021248   -0.004334
   12          6       -0.149048   -0.006051
   13          6       -0.052694   -0.001361
   14          6       -0.015592   -0.002235
   15          6       -0.146319   -0.003803
   16          6        0.001088    0.000571
   17          6        0.037200    0.006881
   18          8       -0.071834   -0.019745
   19          6       -0.001462    0.000161
   20          6       -0.048931    0.000411
   21          1        0.054151    0.002994
   22          1        0.054074    0.002917
   23          1        0.054620    0.002517
   24          1        0.060609    0.003293
   25          1        0.060843    0.004893
   26          1        0.060803    0.004843
   27          1        0.054757    0.002416
   28          1        0.069125    0.005773
   29          1        0.054074    0.002917
   30          1        0.054620    0.002517
   31          1        0.054150    0.002994
   32          1        0.060609    0.003293
   33          1        0.054757    0.002416
   34          1        0.060847    0.004893
   35          1        0.060800    0.004842
   36          1        0.069125    0.005773
 -----------------------------------------------

 Dipole moment (in Debye)
 -----------------------------------------------
                 X        Y        Z     Total
 -----------------------------------------------
 CM5         -0.0001   0.0003   0.0002   0.0004
 Hirshfeld   -0.0000   0.0001   0.0000   0.0001
 -----------------------------------------------

 A unrestricted SCF calculation will be
 performed using DIIS
 SCF converges when DIIS error is below 1.0e-08
 ---------------------------------------
  Cycle       Energy         DIIS error
 ---------------------------------------
Hirshfeld: reading atomic densities from disk.

 Charges (in A.U.) from CM5PAC (Nov. 11, 2011)
 -----------------------------------------------
 Center     Atomic      CM5         Hirshfeld
 Number     Number      Charge      Charge
 -----------------------------------------------
    1          6       -0.404584   -0.261587
    2          6       -0.043744   -0.026830
    3          6       -0.201564   -0.150231
    4          6       -0.008367    0.004991
    5          6       -0.421502   -0.278986
    6          6       -0.067685   -0.068202
    7          6        0.256214    0.225896
    8          8       -0.613001   -0.560914
    9          6       -0.072132   -0.070509
   10          6       -0.206579   -0.157235
   11          6       -0.043744   -0.026831
   12          6       -0.404585   -0.261587
   13          6       -0.201564   -0.150231
   14          6       -0.008369    0.004989
   15          6       -0.421500   -0.278984
   16          6       -0.067692   -0.068209
   17          6        0.256227    0.225908
   18          8       -0.612985   -0.560897
   19          6       -0.072134   -0.070511
   20          6       -0.206582   -0.157239
   21          1        0.161200    0.110043
   22          1        0.161160    0.110003
   23          1        0.158676    0.106573
   24          1        0.175300    0.117984
   25          1        0.151798    0.095849
   26          1        0.151746    0.095785
   27          1        0.159189    0.106848
   28          1        0.163792    0.100440
   29          1        0.161157    0.110000
   30          1        0.158674    0.106570
   31          1        0.161200    0.110044
   32          1        0.175301    0.117986
   33          1        0.159189    0.106847
   34          1        0.151793    0.095840
   35          1        0.151751    0.095793
   36          1        0.163792    0.100440
 -----------------------------------------------

 Dipole moment (in Debye)
 -----------------------------------------------
                 X        Y        Z     Total
 -----------------------------------------------
 CM5         -0.0003   0.0028   0.0016   0.0032
 Hirshfeld   -0.0003   0.0026   0.0014   0.0029
 -----------------------------------------------

    1    -850.8130620466      1.40e-02  
Hirshfeld: reading atomic densities from disk.

 Charges (in A.U.) from CM5PAC (Nov. 11, 2011)
 -----------------------------------------------
 Center     Atomic      CM5         Hirshfeld
 Number     Number      Charge      Charge
 -----------------------------------------------
    1          6       -0.022400    0.120597
    2          6        0.000282    0.017196
    3          6       -0.032482    0.018851
    4          6       -0.014617   -0.001259
    5          6       -0.031757    0.110759
    6          6       -0.091773   -0.092290
    7          6       -0.252900   -0.283218
    8          8        0.124787    0.176874
    9          6       -0.091092   -0.089469
   10          6       -0.030919    0.018424
   11          6        0.000284    0.017197
   12          6       -0.022404    0.120593
   13          6       -0.032480    0.018852
   14          6       -0.014612   -0.001255
   15          6       -0.031758    0.110758
   16          6       -0.091755   -0.092272
   17          6       -0.252900   -0.283219
   18          8        0.124771    0.176860
   19          6       -0.091105   -0.089482
   20          6       -0.030915    0.018428
   21          1        0.000527   -0.050630
   22          1        0.000477   -0.050680
   23          1        0.011341   -0.040761
   24          1       -0.009195   -0.066511
   25          1       -0.004777   -0.060727
   26          1       -0.004805   -0.060765
   27          1       -0.024696   -0.077036
   28          1       -0.026879   -0.090231
   29          1        0.000481   -0.050677
   30          1        0.011342   -0.040761
   31          1        0.000525   -0.050631
   32          1       -0.009195   -0.066511
   33          1       -0.024693   -0.077035
   34          1       -0.004774   -0.060728
   35          1       -0.004806   -0.060763
   36          1       -0.026878   -0.090230
 -----------------------------------------------

 Dipole moment (in Debye)
 -----------------------------------------------
                 X        Y        Z     Total
 -----------------------------------------------
 CM5          0.0003   0.0004   0.0004   0.0006
 Hirshfeld    0.0003   0.0001   0.0002   0.0003
 -----------------------------------------------

    2    -845.8621661528      1.74e-03  
Hirshfeld: reading atomic densities from disk.

 Charges (in A.U.) from CM5PAC (Nov. 11, 2011)
 -----------------------------------------------
 Center     Atomic      CM5         Hirshfeld
 Number     Number      Charge      Charge
 -----------------------------------------------
    1          6       -0.194761   -0.051764
    2          6       -0.047877   -0.030964
    3          6       -0.115329   -0.063996
    4          6       -0.022269   -0.008911
    5          6       -0.203393   -0.060877
    6          6        0.010799    0.010282
    7          6        0.169544    0.139225
    8          8       -0.558307   -0.506220
    9          6        0.015951    0.017574
   10          6       -0.095877   -0.046534
   11          6       -0.047878   -0.030965
   12          6       -0.194763   -0.051766
   13          6       -0.115330   -0.063997
   14          6       -0.022269   -0.008911
   15          6       -0.203393   -0.060877
   16          6        0.010794    0.010277
   17          6        0.169551    0.139231
   18          8       -0.558283   -0.506195
   19          6        0.015955    0.017578
   20          6       -0.095874   -0.046531
   21          1        0.069720    0.018563
   22          1        0.069656    0.018499
   23          1        0.075575    0.023473
   24          1        0.064850    0.007534
   25          1        0.068777    0.012828
   26          1        0.068731    0.012771
   27          1        0.057560    0.005219
   28          1        0.066089    0.002737
   29          1        0.069657    0.018499
   30          1        0.075576    0.023472
   31          1        0.069720    0.018563
   32          1        0.064851    0.007535
   33          1        0.057561    0.005220
   34          1        0.068780    0.012826
   35          1        0.068729    0.012772
   36          1        0.066088    0.002736
 -----------------------------------------------

 Dipole moment (in Debye)
 -----------------------------------------------
                 X        Y        Z     Total
 -----------------------------------------------
 CM5         -0.0002   0.0022   0.0011   0.0025
 Hirshfeld   -0.0002   0.0020   0.0009   0.0022
 -----------------------------------------------

    3    -845.5464232218      2.48e-03  
Hirshfeld: reading atomic densities from disk.

 Charges (in A.U.) from CM5PAC (Nov. 11, 2011)
 -----------------------------------------------
 Center     Atomic      CM5         Hirshfeld
 Number     Number      Charge      Charge
 -----------------------------------------------
    1          6       -0.230903   -0.087907
    2          6       -0.028957   -0.012043
    3          6       -0.122415   -0.071082
    4          6       -0.013180    0.000178
    5          6       -0.243637   -0.101121
    6          6       -0.062919   -0.063436
    7          6        0.090367    0.060049
    8          8       -0.373793   -0.321706
    9          6       -0.066792   -0.065169
   10          6       -0.124194   -0.074851
   11          6       -0.028957   -0.012043
   12          6       -0.230905   -0.087908
   13          6       -0.122414   -0.071081
   14          6       -0.013178    0.000180
   15          6       -0.243636   -0.101120
   16          6       -0.062918   -0.063434
   17          6        0.090376    0.060057
   18          8       -0.373787   -0.321699
   19          6       -0.066798   -0.065175
   20          6       -0.124195   -0.074852
   21          1        0.086417    0.035260
   22          1        0.086355    0.035198
   23          1        0.090309    0.038206
   24          1        0.085771    0.028455
   25          1        0.083530    0.027580
   26          1        0.083481    0.027521
   27          1        0.074247    0.021906
   28          1        0.085871    0.022519
   29          1        0.086355    0.035197
   30          1        0.090308    0.038205
   31          1        0.086417    0.035261
   32          1        0.085771    0.028456
   33          1        0.074248    0.021906
   34          1        0.083530    0.027577
   35          1        0.083481    0.027524
   36          1        0.085871    0.022519
 -----------------------------------------------

 Dipole moment (in Debye)
 -----------------------------------------------
                 X        Y        Z     Total
 -----------------------------------------------
 CM5         -0.0001   0.0019   0.0011   0.0022
 Hirshfeld   -0.0001   0.0016   0.0009   0.0019
 -----------------------------------------------

    4    -846.2555341986      6.93e-04  
Hirshfeld: reading atomic densities from disk.

 Charges (in A.U.) from CM5PAC (Nov. 11, 2011)
 -----------------------------------------------
 Center     Atomic      CM5         Hirshfeld
 Number     Number      Charge      Charge
 -----------------------------------------------
    1          6       -0.222774   -0.079778
    2          6       -0.034199   -0.017285
    3          6       -0.128631   -0.077298
    4          6       -0.015681   -0.002324
    5          6       -0.233193   -0.090677
    6          6       -0.045631   -0.046148
    7          6        0.078889    0.048571
    8          8       -0.388993   -0.336906
    9          6       -0.042452   -0.040829
   10          6       -0.118033   -0.068690
   11          6       -0.034199   -0.017285
   12          6       -0.222776   -0.079779
   13          6       -0.128631   -0.077298
   14          6       -0.015681   -0.002323
   15          6       -0.233193   -0.090677
   16          6       -0.045631   -0.046148
   17          6        0.078896    0.048577
   18          8       -0.388980   -0.336892
   19          6       -0.042454   -0.040831
   20          6       -0.118031   -0.068688
   21          1        0.083359    0.032202
   22          1        0.083299    0.032142
   23          1        0.087516    0.035413
   24          1        0.083249    0.025933
   25          1        0.080323    0.024373
   26          1        0.080275    0.024315
   27          1        0.070919    0.018578
   28          1        0.081295    0.017943
   29          1        0.083299    0.032141
   30          1        0.087516    0.035412
   31          1        0.083359    0.032203
   32          1        0.083250    0.025934
   33          1        0.070920    0.018579
   34          1        0.080324    0.024370
   35          1        0.080274    0.024317
   36          1        0.081295    0.017943
 -----------------------------------------------

 Dipole moment (in Debye)
 -----------------------------------------------
                 X        Y        Z     Total
 -----------------------------------------------
 CM5         -0.0001   0.0019   0.0011   0.0022
 Hirshfeld   -0.0001   0.0017   0.0009   0.0019
 -----------------------------------------------

    5    -846.3080365869      1.02e-04  
Hirshfeld: reading atomic densities from disk.

 Charges (in A.U.) from CM5PAC (Nov. 11, 2011)
 -----------------------------------------------
 Center     Atomic      CM5         Hirshfeld
 Number     Number      Charge      Charge
 -----------------------------------------------
    1          6       -0.222174   -0.079177
    2          6       -0.031459   -0.014546
    3          6       -0.121619   -0.070286
    4          6       -0.015466   -0.002108
    5          6       -0.233632   -0.091116
    6          6       -0.051446   -0.051963
    7          6        0.089235    0.058916
    8          8       -0.388678   -0.336592
    9          6       -0.052621   -0.050998
   10          6       -0.119639   -0.070296
   11          6       -0.031459   -0.014546
   12          6       -0.222176   -0.079179
   13          6       -0.121619   -0.070286
   14          6       -0.015464   -0.002107
   15          6       -0.233631   -0.091116
   16          6       -0.051445   -0.051962
   17          6        0.089243    0.058924
   18          8       -0.388672   -0.336583
   19          6       -0.052625   -0.051002
   20          6       -0.119640   -0.070297
   21          1        0.082922    0.031765
   22          1        0.082860    0.031703
   23          1        0.087027    0.034925
   24          1        0.082195    0.024880
   25          1        0.080050    0.024100
   26          1        0.080002    0.024041
   27          1        0.070718    0.018377
   28          1        0.081266    0.017914
   29          1        0.082860    0.031702
   30          1        0.087027    0.034924
   31          1        0.082921    0.031765
   32          1        0.082196    0.024880
   33          1        0.070719    0.018378
   34          1        0.080051    0.024098
   35          1        0.080001    0.024044
   36          1        0.081266    0.017914
 -----------------------------------------------

 Dipole moment (in Debye)
 -----------------------------------------------
                 X        Y        Z     Total
 -----------------------------------------------
 CM5         -0.0001   0.0019   0.0011   0.0022
 Hirshfeld   -0.0001   0.0016   0.0009   0.0019
 -----------------------------------------------

    6    -846.3106674011      3.87e-05  
Hirshfeld: reading atomic densities from disk.

 Charges (in A.U.) from CM5PAC (Nov. 11, 2011)
 -----------------------------------------------
 Center     Atomic      CM5         Hirshfeld
 Number     Number      Charge      Charge
 -----------------------------------------------
    1          6       -0.223313   -0.080317
    2          6       -0.033228   -0.016314
    3          6       -0.124854   -0.073521
    4          6       -0.015293   -0.001935
    5          6       -0.234595   -0.092079
    6          6       -0.049924   -0.050441
    7          6        0.087581    0.057262
    8          8       -0.387713   -0.335626
    9          6       -0.049481   -0.047858
   10          6       -0.118690   -0.069347
   11          6       -0.033228   -0.016314
   12          6       -0.223315   -0.080318
   13          6       -0.124853   -0.073521
   14          6       -0.015291   -0.001934
   15          6       -0.234595   -0.092079
   16          6       -0.049923   -0.050440
   17          6        0.087588    0.057269
   18          8       -0.387701   -0.335612
   19          6       -0.049484   -0.047861
   20          6       -0.118689   -0.069347
   21          1        0.083181    0.032024
   22          1        0.083119    0.031962
   23          1        0.087415    0.035313
   24          1        0.082455    0.025139
   25          1        0.080327    0.024377
   26          1        0.080278    0.024318
   27          1        0.070917    0.018577
   28          1        0.081353    0.018001
   29          1        0.083119    0.031961
   30          1        0.087415    0.035312
   31          1        0.083180    0.032024
   32          1        0.082456    0.025140
   33          1        0.070918    0.018577
   34          1        0.080328    0.024374
   35          1        0.080277    0.024320
   36          1        0.081353    0.018001
 -----------------------------------------------

 Dipole moment (in Debye)
 -----------------------------------------------
                 X        Y        Z     Total
 -----------------------------------------------
 CM5         -0.0001   0.0019   0.0011   0.0022
 Hirshfeld   -0.0001   0.0017   0.0009   0.0019
 -----------------------------------------------

    7    -846.3106071914      1.31e-05  
Hirshfeld: reading atomic densities from disk.

 Charges (in A.U.) from CM5PAC (Nov. 11, 2011)
 -----------------------------------------------
 Center     Atomic      CM5         Hirshfeld
 Number     Number      Charge      Charge
 -----------------------------------------------
    1          6       -0.222930   -0.079934
    2          6       -0.031814   -0.014900
    3          6       -0.123447   -0.072114
    4          6       -0.015319   -0.001961
    5          6       -0.234239   -0.091723
    6          6       -0.050252   -0.050769
    7          6        0.086526    0.056208
    8          8       -0.387925   -0.335838
    9          6       -0.050339   -0.048716
   10          6       -0.119494   -0.070151
   11          6       -0.031814   -0.014901
   12          6       -0.222932   -0.079935
   13          6       -0.123446   -0.072114
   14          6       -0.015318   -0.001960
   15          6       -0.234238   -0.091722
   16          6       -0.050251   -0.050768
   17          6        0.086534    0.056215
   18          8       -0.387919   -0.335830
   19          6       -0.050343   -0.048720
   20          6       -0.119494   -0.070151
   21          1        0.083113    0.031956
   22          1        0.083051    0.031895
   23          1        0.087252    0.035150
   24          1        0.082420    0.025104
   25          1        0.080281    0.024331
   26          1        0.080232    0.024272
   27          1        0.070941    0.018601
   28          1        0.081481    0.018129
   29          1        0.083051    0.031894
   30          1        0.087252    0.035149
   31          1        0.083113    0.031957
   32          1        0.082420    0.025105
   33          1        0.070942    0.018601
   34          1        0.080282    0.024329
   35          1        0.080232    0.024274
   36          1        0.081481    0.018129
 -----------------------------------------------

 Dipole moment (in Debye)
 -----------------------------------------------
                 X        Y        Z     Total
 -----------------------------------------------
 CM5         -0.0001   0.0019   0.0011   0.0022
 Hirshfeld   -0.0001   0.0016   0.0009   0.0019
 -----------------------------------------------

    8    -846.3108729114      6.23e-06  
Hirshfeld: reading atomic densities from disk.

 Charges (in A.U.) from CM5PAC (Nov. 11, 2011)
 -----------------------------------------------
 Center     Atomic      CM5         Hirshfeld
 Number     Number      Charge      Charge
 -----------------------------------------------
    1          6       -0.222965   -0.079968
    2          6       -0.032751   -0.015837
    3          6       -0.124035   -0.072702
    4          6       -0.015574   -0.002216
    5          6       -0.234160   -0.091644
    6          6       -0.050053   -0.050570
    7          6        0.087322    0.057003
    8          8       -0.387703   -0.335616
    9          6       -0.050029   -0.048406
   10          6       -0.119338   -0.069995
   11          6       -0.032750   -0.015837
   12          6       -0.222967   -0.079970
   13          6       -0.124035   -0.072702
   14          6       -0.015573   -0.002215
   15          6       -0.234159   -0.091644
   16          6       -0.050053   -0.050569
   17          6        0.087329    0.057010
   18          8       -0.387692   -0.335603
   19          6       -0.050033   -0.048410
   20          6       -0.119338   -0.069995
   21          1        0.083131    0.031974
   22          1        0.083069    0.031912
   23          1        0.087292    0.035189
   24          1        0.082475    0.025159
   25          1        0.080259    0.024309
   26          1        0.080210    0.024250
   27          1        0.070926    0.018586
   28          1        0.081461    0.018109
   29          1        0.083069    0.031912
   30          1        0.087292    0.035188
   31          1        0.083131    0.031975
   32          1        0.082476    0.025160
   33          1        0.070927    0.018586
   34          1        0.080260    0.024307
   35          1        0.080210    0.024252
   36          1        0.081461    0.018109
 -----------------------------------------------

 Dipole moment (in Debye)
 -----------------------------------------------
                 X        Y        Z     Total
 -----------------------------------------------
 CM5         -0.0001   0.0019   0.0011   0.0022
 Hirshfeld   -0.0001   0.0017   0.0009   0.0019
 -----------------------------------------------

    9    -846.3107451106      4.21e-06  
Hirshfeld: reading atomic densities from disk.

 Charges (in A.U.) from CM5PAC (Nov. 11, 2011)
 -----------------------------------------------
 Center     Atomic      CM5         Hirshfeld
 Number     Number      Charge      Charge
 -----------------------------------------------
    1          6       -0.223082   -0.080085
    2          6       -0.032479   -0.015566
    3          6       -0.123973   -0.072640
    4          6       -0.015426   -0.002069
    5          6       -0.234385   -0.091869
    6          6       -0.050136   -0.050653
    7          6        0.087221    0.056903
    8          8       -0.387730   -0.335644
    9          6       -0.050001   -0.048378
   10          6       -0.119182   -0.069839
   11          6       -0.032479   -0.015566
   12          6       -0.223084   -0.080087
   13          6       -0.123972   -0.072639
   14          6       -0.015425   -0.002068
   15          6       -0.234385   -0.091869
   16          6       -0.050135   -0.050652
   17          6        0.087229    0.056910
   18          8       -0.387723   -0.335635
   19          6       -0.050005   -0.048382
   20          6       -0.119182   -0.069839
   21          1        0.083114    0.031957
   22          1        0.083052    0.031895
   23          1        0.087288    0.035186
   24          1        0.082408    0.025092
   25          1        0.080275    0.024325
   26          1        0.080226    0.024266
   27          1        0.070948    0.018608
   28          1        0.081400    0.018049
   29          1        0.083052    0.031894
   30          1        0.087288    0.035185
   31          1        0.083114    0.031957
   32          1        0.082409    0.025093
   33          1        0.070949    0.018608
   34          1        0.080276    0.024322
   35          1        0.080225    0.024268
   36          1        0.081400    0.018048
 -----------------------------------------------

 Dipole moment (in Debye)
 -----------------------------------------------
                 X        Y        Z     Total
 -----------------------------------------------
 CM5         -0.0001   0.0019   0.0011   0.0022
 Hirshfeld   -0.0001   0.0016   0.0009   0.0019
 -----------------------------------------------

   10    -846.3108228095      1.10e-06  
Hirshfeld: reading atomic densities from disk.

 Charges (in A.U.) from CM5PAC (Nov. 11, 2011)
 -----------------------------------------------
 Center     Atomic      CM5         Hirshfeld
 Number     Number      Charge      Charge
 -----------------------------------------------
    1          6       -0.223041   -0.080044
    2          6       -0.032562   -0.015648
    3          6       -0.123979   -0.072646
    4          6       -0.015436   -0.002078
    5          6       -0.234307   -0.091792
    6          6       -0.050073   -0.050590
    7          6        0.087229    0.056910
    8          8       -0.387676   -0.335590
    9          6       -0.050021   -0.048398
   10          6       -0.119290   -0.069947
   11          6       -0.032562   -0.015648
   12          6       -0.223043   -0.080045
   13          6       -0.123979   -0.072646
   14          6       -0.015435   -0.002077
   15          6       -0.234307   -0.091791
   16          6       -0.050072   -0.050589
   17          6        0.087236    0.056917
   18          8       -0.387666   -0.335577
   19          6       -0.050024   -0.048402
   20          6       -0.119289   -0.069947
   21          1        0.083113    0.031956
   22          1        0.083051    0.031894
   23          1        0.087287    0.035185
   24          1        0.082413    0.025097
   25          1        0.080264    0.024314
   26          1        0.080215    0.024255
   27          1        0.070932    0.018591
   28          1        0.081418    0.018066
   29          1        0.083051    0.031893
   30          1        0.087287    0.035184
   31          1        0.083113    0.031956
   32          1        0.082414    0.025098
   33          1        0.070933    0.018591
   34          1        0.080265    0.024311
   35          1        0.080214    0.024257
   36          1        0.081418    0.018066
 -----------------------------------------------

 Dipole moment (in Debye)
 -----------------------------------------------
                 X        Y        Z     Total
 -----------------------------------------------
 CM5         -0.0001   0.0019   0.0011   0.0022
 Hirshfeld   -0.0001   0.0017   0.0009   0.0019
 -----------------------------------------------

   11    -846.3108305905      4.87e-07  
Hirshfeld: reading atomic densities from disk.

 Charges (in A.U.) from CM5PAC (Nov. 11, 2011)
 -----------------------------------------------
 Center     Atomic      CM5         Hirshfeld
 Number     Number      Charge      Charge
 -----------------------------------------------
    1          6       -0.223038   -0.080042
    2          6       -0.032557   -0.015643
    3          6       -0.123979   -0.072646
    4          6       -0.015484   -0.002126
    5          6       -0.234306   -0.091790
    6          6       -0.050117   -0.050634
    7          6        0.087229    0.056910
    8          8       -0.387672   -0.335585
    9          6       -0.050010   -0.048387
   10          6       -0.119228   -0.069885
   11          6       -0.032557   -0.015643
   12          6       -0.223040   -0.080043
   13          6       -0.123979   -0.072646
   14          6       -0.015483   -0.002125
   15          6       -0.234306   -0.091790
   16          6       -0.050116   -0.050633
   17          6        0.087237    0.056918
   18          8       -0.387665   -0.335576
   19          6       -0.050014   -0.048391
   20          6       -0.119228   -0.069885
   21          1        0.083112    0.031955
   22          1        0.083051    0.031894
   23          1        0.087286    0.035184
   24          1        0.082418    0.025102
   25          1        0.080266    0.024316
   26          1        0.080218    0.024257
   27          1        0.070936    0.018596
   28          1        0.081416    0.018064
   29          1        0.083050    0.031893
   30          1        0.087286    0.035183
   31          1        0.083112    0.031956
   32          1        0.082418    0.025103
   33          1        0.070937    0.018596
   34          1        0.080267    0.024314
   35          1        0.080217    0.024259
   36          1        0.081416    0.018064
 -----------------------------------------------

 Dipole moment (in Debye)
 -----------------------------------------------
                 X        Y        Z     Total
 -----------------------------------------------
 CM5         -0.0001   0.0019   0.0011   0.0022
 Hirshfeld   -0.0001   0.0016   0.0009   0.0019
 -----------------------------------------------

   12    -846.3108300143      1.57e-07  
Hirshfeld: reading atomic densities from disk.

 Charges (in A.U.) from CM5PAC (Nov. 11, 2011)
 -----------------------------------------------
 Center     Atomic      CM5         Hirshfeld
 Number     Number      Charge      Charge
 -----------------------------------------------
    1          6       -0.223042   -0.080046
    2          6       -0.032560   -0.015646
    3          6       -0.123984   -0.072651
    4          6       -0.015455   -0.002097
    5          6       -0.234310   -0.091794
    6          6       -0.050099   -0.050616
    7          6        0.087230    0.056912
    8          8       -0.387675   -0.335589
    9          6       -0.050016   -0.048393
   10          6       -0.119252   -0.069909
   11          6       -0.032560   -0.015646
   12          6       -0.223044   -0.080047
   13          6       -0.123984   -0.072651
   14          6       -0.015454   -0.002096
   15          6       -0.234309   -0.091794
   16          6       -0.050098   -0.050615
   17          6        0.087238    0.056919
   18          8       -0.387665   -0.335577
   19          6       -0.050020   -0.048397
   20          6       -0.119251   -0.069909
   21          1        0.083113    0.031957
   22          1        0.083052    0.031895
   23          1        0.087286    0.035184
   24          1        0.082416    0.025100
   25          1        0.080265    0.024316
   26          1        0.080217    0.024257
   27          1        0.070935    0.018594
   28          1        0.081415    0.018063
   29          1        0.083052    0.031894
   30          1        0.087286    0.035183
   31          1        0.083113    0.031957
   32          1        0.082417    0.025101
   33          1        0.070936    0.018595
   34          1        0.080267    0.024313
   35          1        0.080216    0.024259
   36          1        0.081415    0.018063
 -----------------------------------------------

 Dipole moment (in Debye)
 -----------------------------------------------
                 X        Y        Z     Total
 -----------------------------------------------
 CM5         -0.0001   0.0019   0.0011   0.0022
 Hirshfeld   -0.0001   0.0017   0.0009   0.0019
 -----------------------------------------------

   13    -846.3108285947      1.08e-07  
Hirshfeld: reading atomic densities from disk.

 Charges (in A.U.) from CM5PAC (Nov. 11, 2011)
 -----------------------------------------------
 Center     Atomic      CM5         Hirshfeld
 Number     Number      Charge      Charge
 -----------------------------------------------
    1          6       -0.223042   -0.080045
    2          6       -0.032557   -0.015643
    3          6       -0.123981   -0.072648
    4          6       -0.015464   -0.002106
    5          6       -0.234311   -0.091795
    6          6       -0.050100   -0.050617
    7          6        0.087230    0.056912
    8          8       -0.387675   -0.335588
    9          6       -0.050011   -0.048388
   10          6       -0.119253   -0.069910
   11          6       -0.032556   -0.015643
   12          6       -0.223044   -0.080046
   13          6       -0.123981   -0.072648
   14          6       -0.015463   -0.002105
   15          6       -0.234311   -0.091795
   16          6       -0.050099   -0.050616
   17          6        0.087238    0.056919
   18          8       -0.387668   -0.335579
   19          6       -0.050014   -0.048392
   20          6       -0.119252   -0.069910
   21          1        0.083113    0.031956
   22          1        0.083051    0.031894
   23          1        0.087286    0.035184
   24          1        0.082416    0.025100
   25          1        0.080266    0.024316
   26          1        0.080217    0.024257
   27          1        0.070936    0.018595
   28          1        0.081416    0.018064
   29          1        0.083051    0.031894
   30          1        0.087286    0.035183
   31          1        0.083113    0.031957
   32          1        0.082417    0.025101
   33          1        0.070937    0.018596
   34          1        0.080267    0.024313
   35          1        0.080216    0.024259
   36          1        0.081416    0.018064
 -----------------------------------------------

 Dipole moment (in Debye)
 -----------------------------------------------
                 X        Y        Z     Total
 -----------------------------------------------
 CM5         -0.0001   0.0019   0.0011   0.0022
 Hirshfeld   -0.0001   0.0017   0.0009   0.0019
 -----------------------------------------------

   14    -846.3108293981      2.70e-08  
Hirshfeld: reading atomic densities from disk.

 Charges (in A.U.) from CM5PAC (Nov. 11, 2011)
 -----------------------------------------------
 Center     Atomic      CM5         Hirshfeld
 Number     Number      Charge      Charge
 -----------------------------------------------
    1          6       -0.223042   -0.080045
    2          6       -0.032559   -0.015645
    3          6       -0.123983   -0.072650
    4          6       -0.015460   -0.002102
    5          6       -0.234310   -0.091794
    6          6       -0.050101   -0.050618
    7          6        0.087229    0.056911
    8          8       -0.387677   -0.335590
    9          6       -0.050013   -0.048390
   10          6       -0.119250   -0.069907
   11          6       -0.032558   -0.015645
   12          6       -0.223044   -0.080047
   13          6       -0.123983   -0.072650
   14          6       -0.015459   -0.002101
   15          6       -0.234309   -0.091793
   16          6       -0.050100   -0.050617
   17          6        0.087237    0.056918
   18          8       -0.387667   -0.335578
   19          6       -0.050017   -0.048394
   20          6       -0.119249   -0.069907
   21          1        0.083113    0.031956
   22          1        0.083051    0.031895
   23          1        0.087287    0.035184
   24          1        0.082416    0.025100
   25          1        0.080265    0.024316
   26          1        0.080217    0.024257
   27          1        0.070935    0.018595
   28          1        0.081416    0.018064
   29          1        0.083051    0.031894
   30          1        0.087287    0.035183
   31          1        0.083113    0.031957
   32          1        0.082417    0.025101
   33          1        0.070936    0.018595
   34          1        0.080267    0.024313
   35          1        0.080216    0.024259
   36          1        0.081416    0.018064
 -----------------------------------------------

 Dipole moment (in Debye)
 -----------------------------------------------
                 X        Y        Z     Total
 -----------------------------------------------
 CM5         -0.0001   0.0019   0.0011   0.0022
 Hirshfeld   -0.0001   0.0017   0.0009   0.0019
 -----------------------------------------------

   15    -846.3108293987      1.70e-08  
   16    -846.3108293714      8.20e-09  Convergence criterion met
 ---------------------------------------
 SCF time:   CPU 9966.47s  wall 1269.00s 
<S^2> =          0.760070804
(1)  E-EN(liq) elect-nuc energy of solute               -846.310829371 a.u.
(2)  G-P(liq) polarization free energy of solvation           -47.0645 kcal/mol
(3)  G-ENP(liq) elect-nuc-pol free energy of system     -846.385831454 a.u.
(4)  G-CDS(liq) cavity-dispersion-solvent structure 
     free energy                                               -8.3989 kcal/mol
(5)  G-P-CDS(liq) = G-P(liq) + G-CDS(liq) = (2) + (4)         -55.4635 kcal/mol
(6)  G-S(liq) free energy of system = (1) + (5)         -846.399216007 a.u.
 SCF   energy in the final basis set =     -846.3992160074
 Total energy in the final basis set =     -846.3992160074
 
 --------------------------------------------------------------
 
                    Orbital Energies (a.u.)
 --------------------------------------------------------------
 
 Alpha MOs
 -- Occupied --
-19.0704 -19.0704 -10.2231 -10.2231 -10.1892 -10.1892 -10.1832 -10.1832
-10.1762 -10.1761 -10.1741 -10.1741 -10.1707 -10.1706 -10.1700 -10.1700
-10.1658 -10.1658 -10.1619 -10.1619  -0.9995  -0.9974  -0.8652  -0.8599
 -0.7992  -0.7837  -0.7819  -0.7569  -0.7058  -0.6976  -0.6910  -0.6860
 -0.6453  -0.6271  -0.5945  -0.5675  -0.5432  -0.5361  -0.5056  -0.4823
 -0.4660  -0.4623  -0.4408  -0.4364  -0.4253  -0.4175  -0.4157  -0.4155
 -0.4148  -0.4134  -0.4050  -0.4039  -0.3948  -0.3945  -0.3911  -0.3730
 -0.3726  -0.3675  -0.3644  -0.3452  -0.3441  -0.3434  -0.3332  -0.3279
 -0.2618  -0.2521  -0.2499  -0.2436  -0.2385  -0.2301  -0.1390
 -- Virtual --
 -0.0505  -0.0291  -0.0276  -0.0246  -0.0169  -0.0104  -0.0095  -0.0090
  0.0039   0.0041   0.0064   0.0083   0.0118   0.0184   0.0220   0.0230
  0.0272   0.0430   0.0434   0.0436   0.0485   0.0510   0.0553   0.0589
  0.0608   0.0612   0.0680   0.0736   0.0793   0.0801   0.0832   0.0843
  0.0863   0.0877   0.0933   0.0946   0.0989   0.1018   0.1024   0.1067
  0.1076   0.1104   0.1109   0.1159   0.1178   0.1198   0.1228   0.1328
  0.1333   0.1365   0.1373   0.1423   0.1438   0.1491   0.1537   0.1570
  0.1603   0.1605   0.1639   0.1640   0.1660   0.1661   0.1728   0.1843
  0.1854   0.1908   0.1908   0.1959   0.1994   0.2016   0.2062   0.2075
  0.2216   0.2264   0.2265   0.2315   0.2325   0.2326   0.2373   0.2395
  0.2401   0.2454   0.2511   0.2514   0.2517   0.2534   0.2550   0.2676
  0.2684   0.2730   0.2840   0.2864   0.2875   0.2939   0.3003   0.3016
  0.3075   0.3079   0.3120   0.3135   0.3224   0.3228   0.3260   0.3265
  0.3290   0.3350   0.3451   0.3493   0.3526   0.3563   0.3676   0.3682
  0.3717   0.3762   0.3894   0.3981   0.4034   0.4113   0.4211   0.4215
  0.4482   0.4497   0.4506   0.4540   0.4594   0.4616   0.4704   0.4870
  0.4982   0.5054   0.5101   0.5167   0.5405   0.5517   0.5540   0.5550
  0.5572   0.5584   0.5676   0.5776   0.5781   0.5804   0.5950   0.6112
  0.6131   0.6180   0.6187   0.6283   0.6334   0.6340   0.6367   0.6491
  0.6495   0.6504   0.6516   0.6649   0.6683   0.6696   0.6747   0.6762
  0.6801   0.6821   0.6875   0.6880   0.6953   0.6965   0.7000   0.7008
  0.7150   0.7203   0.7205   0.7363   0.7402   0.7514   0.7525   0.7569
  0.7684   0.7694   0.7742   0.7895   0.8009   0.8119   0.8178   0.8202
  0.8222   0.8603   0.8831   0.9114   0.9170   0.9176   0.9283   0.9296
  0.9311   0.9385   0.9440   0.9476   0.9504   0.9563   0.9649   0.9679
  0.9735   0.9819   0.9895   0.9921   1.0031   1.0070   1.0136   1.0145
  1.0227   1.0263   1.0360   1.0613   1.0619   1.0883   1.0951   1.1148
  1.1188   1.1303   1.1305   1.1414   1.1537   1.1587   1.1760   1.1970
  1.2075   1.2259   1.2400   1.2627   1.2735   1.3063   1.3327   1.3401
  1.3473   1.3491   1.3658   1.3800   1.3803   1.3851   1.3888   1.4064
  1.4096   1.4343   1.4625   1.4654   1.4686   1.4696   1.4744   1.4752
  1.4832   1.4898   1.4985   1.5121   1.5159   1.5291   1.5309   1.5360
  1.5539   1.5561   1.5671   1.5712   1.5853   1.5876   1.6058   1.6071
  1.6092   1.6117   1.6121   1.6156   1.6313   1.6346   1.6622   1.6677
  1.6741   1.6835   1.7130   1.7172   1.7220   1.7312   1.7528   1.7644
  1.7747   1.7821   1.7944   1.7956   1.8062   1.8063   1.8100   1.8168
  1.8310   1.8346   1.8626   1.8858   1.8887   1.9081   1.9094   1.9160
  1.9262   1.9330   1.9363   1.9559   1.9730   1.9906   2.0028   2.0041
  2.0205   2.0225   2.0296   2.0402   2.0462   2.0580   2.0753   2.0899
  2.0946   2.1134   2.1422   2.1507   2.1847   2.1919   2.2000   2.2020
  2.2074   2.2382   2.2399   2.2786   2.2849   2.2869   2.2880   2.3005
  2.3072   2.3087   2.3127   2.3329   2.3527   2.4015   2.4130   2.4143
  2.4342   2.4472   2.4792   2.4807   2.4925   2.5061   2.5217   2.5447
  2.5485   2.5605   2.5631   2.5669   2.5688   2.5721   2.5806   2.5910
  2.6007   2.6017   2.6039   2.6339   2.6342   2.6659   2.6669   2.6934
  2.7004   2.7086   2.7201   2.7342   2.7372   2.7519   2.7560   2.7688
  2.7779   2.8018   2.8094   2.8374   2.8392   2.8418   2.8509   2.8639
  2.8666   2.8848   2.8940   2.8957   2.9094   2.9241   2.9465   2.9484
  2.9509   2.9556   2.9869   3.0117   3.0126   3.0204   3.0529   3.1043
  3.1176   3.1189   3.1283   3.1299   3.1716   3.1755   3.2062   3.2101
  3.2348   3.2552   3.2791   3.2890   3.3249   3.3287   3.3396   3.3606
  3.3933   3.4093   3.4542   3.4767   3.4967   3.5393   3.5482   3.5957
  3.6541   3.6895   3.7002   3.7109   3.7290   3.7834   3.7840   3.7861
  3.7863   3.8151   3.8450   3.8492   3.8505   3.9001   3.9217   3.9657
  4.1467   4.1527   4.2769   4.2818   4.3389   4.3481   4.3706   4.3734
  4.5734   4.8175   4.8549   4.8781   5.0907   5.1073   5.3345   5.3511
  5.7905   5.8740  23.5385  23.6601  23.8960  23.9077  23.9090  23.9287
 23.9386  23.9552  23.9606  23.9774  23.9875  23.9908  24.0145  24.0365
 24.1155  24.1182  24.1789  24.1813  50.0790  50.1293
 
 Beta MOs
 -- Occupied --
-19.0645 -19.0645 -10.2216 -10.2216 -10.1892 -10.1892 -10.1826 -10.1826
-10.1756 -10.1756 -10.1730 -10.1730 -10.1702 -10.1702 -10.1700 -10.1700
-10.1658 -10.1658 -10.1619 -10.1619  -0.9894  -0.9870  -0.8629  -0.8588
 -0.7956  -0.7824  -0.7807  -0.7551  -0.7048  -0.6935  -0.6904  -0.6854
 -0.6405  -0.6250  -0.5926  -0.5668  -0.5408  -0.5342  -0.5043  -0.4805
 -0.4642  -0.4615  -0.4389  -0.4311  -0.4240  -0.4159  -0.4144  -0.4138
 -0.4135  -0.4118  -0.4036  -0.4004  -0.3945  -0.3897  -0.3867  -0.3721
 -0.3666  -0.3631  -0.3529  -0.3439  -0.3430  -0.3389  -0.3317  -0.3162
 -0.2466  -0.2440  -0.2405  -0.2370  -0.2332  -0.2248
 -- Virtual --
 -0.0806  -0.0414  -0.0276  -0.0247  -0.0198  -0.0169  -0.0104  -0.0090
 -0.0076   0.0039   0.0049   0.0063   0.0094   0.0119   0.0184   0.0225
  0.0230   0.0280   0.0430   0.0434   0.0471   0.0503   0.0509   0.0552
  0.0591   0.0632   0.0679   0.0698   0.0757   0.0795   0.0833   0.0838
  0.0843   0.0863   0.0907   0.0932   0.0949   0.0991   0.1020   0.1024
  0.1068   0.1078   0.1105   0.1125   0.1159   0.1180   0.1199   0.1229
  0.1329   0.1351   0.1373   0.1387   0.1425   0.1440   0.1491   0.1545
  0.1571   0.1605   0.1611   0.1640   0.1641   0.1670   0.1676   0.1730
  0.1851   0.1860   0.1909   0.1924   0.1970   0.1994   0.2026   0.2062
  0.2078   0.2225   0.2271   0.2272   0.2324   0.2331   0.2335   0.2400
  0.2403   0.2404   0.2460   0.2520   0.2522   0.2543   0.2554   0.2562
  0.2687   0.2697   0.2733   0.2852   0.2875   0.2880   0.2945   0.3010
  0.3023   0.3086   0.3088   0.3124   0.3143   0.3239   0.3258   0.3269
  0.3296   0.3299   0.3350   0.3457   0.3507   0.3529   0.3567   0.3682
  0.3690   0.3723   0.3768   0.3903   0.3999   0.4048   0.4121   0.4223
  0.4228   0.4492   0.4500   0.4523   0.4544   0.4595   0.4620   0.4707
  0.4883   0.4987   0.5067   0.5108   0.5181   0.5412   0.5526   0.5546
  0.5576   0.5586   0.5590   0.5684   0.5787   0.5812   0.5821   0.5955
  0.6120   0.6140   0.6186   0.6193   0.6290   0.6340   0.6349   0.6371
  0.6500   0.6501   0.6522   0.6526   0.6664   0.6693   0.6722   0.6752
  0.6769   0.6817   0.6847   0.6882   0.6885   0.6960   0.6968   0.7025
  0.7037   0.7152   0.7207   0.7234   0.7369   0.7409   0.7517   0.7561
  0.7573   0.7692   0.7697   0.7744   0.7898   0.8010   0.8143   0.8181
  0.8207   0.8224   0.8632   0.8841   0.9129   0.9180   0.9186   0.9295
  0.9320   0.9322   0.9393   0.9460   0.9480   0.9510   0.9574   0.9660
  0.9683   0.9746   0.9829   0.9909   0.9940   1.0056   1.0092   1.0146
  1.0149   1.0238   1.0268   1.0403   1.0625   1.0637   1.0890   1.0995
  1.1152   1.1278   1.1321   1.1344   1.1422   1.1543   1.1691   1.1764
  1.1992   1.2088   1.2288   1.2504   1.2697   1.2762   1.3091   1.3346
  1.3434   1.3485   1.3503   1.3671   1.3809   1.3813   1.3858   1.3897
  1.4085   1.4110   1.4350   1.4628   1.4657   1.4700   1.4701   1.4757
  1.4760   1.4838   1.4923   1.4990   1.5128   1.5194   1.5321   1.5322
  1.5366   1.5551   1.5569   1.5680   1.5720   1.5859   1.5890   1.6063
  1.6076   1.6112   1.6123   1.6129   1.6160   1.6326   1.6353   1.6630
  1.6687   1.6746   1.6842   1.7174   1.7185   1.7228   1.7319   1.7537
  1.7654   1.7754   1.7850   1.7963   1.7967   1.8068   1.8073   1.8115
  1.8180   1.8318   1.8355   1.8643   1.8890   1.8922   1.9091   1.9102
  1.9176   1.9297   1.9352   1.9384   1.9568   1.9750   1.9915   2.0056
  2.0057   2.0220   2.0237   2.0310   2.0420   2.0474   2.0595   2.0763
  2.0917   2.0963   2.1154   2.1429   2.1517   2.1856   2.1934   2.2008
  2.2051   2.2082   2.2387   2.2408   2.2788   2.2855   2.2876   2.2901
  2.3030   2.3085   2.3093   2.3135   2.3345   2.3566   2.4026   2.4137
  2.4174   2.4346   2.4495   2.4794   2.4811   2.4927   2.5063   2.5220
  2.5451   2.5489   2.5607   2.5634   2.5680   2.5698   2.5731   2.5811
  2.5913   2.6021   2.6034   2.6042   2.6348   2.6352   2.6673   2.6708
  2.6964   2.7008   2.7091   2.7210   2.7347   2.7412   2.7524   2.7563
  2.7706   2.7784   2.8081   2.8099   2.8377   2.8420   2.8502   2.8518
  2.8642   2.8669   2.8881   2.8973   2.9033   2.9164   2.9247   2.9529
  2.9530   2.9565   2.9628   2.9968   3.0130   3.0189   3.0209   3.0577
  3.1050   3.1204   3.1224   3.1317   3.1324   3.1729   3.1802   3.2086
  3.2107   3.2366   3.2563   3.2796   3.2909   3.3263   3.3303   3.3549
  3.3758   3.3939   3.4105   3.4551   3.4781   3.4984   3.5412   3.5502
  3.5983   3.6558   3.6909   3.7010   3.7116   3.7296   3.7835   3.7841
  3.7863   3.7865   3.8162   3.8451   3.8507   3.8539   3.9007   3.9225
  3.9685   4.1478   4.1538   4.2783   4.2840   4.3410   4.3494   4.3719
  4.3740   4.5762   4.8217   4.8562   4.8793   5.1151   5.1316   5.3393
  5.3559   5.7955   5.8790  23.5391  23.6607  23.8967  23.9080  23.9097
 23.9299  23.9394  23.9565  23.9608  23.9777  23.9877  23.9910  24.0152
 24.0374  24.1157  24.1184  24.1792  24.1816  50.0850  50.1352
 --------------------------------------------------------------
 
          Ground-State Mulliken Net Atomic Charges

     Atom                 Charge (a.u.)    Spin (a.u.)
  --------------------------------------------------------
      1 C                     1.418761      -0.004181
      2 C                     0.826647       0.041342
      3 C                     0.493682       0.046741
      4 C                    -0.356969       0.013336
      5 C                     0.291333       0.004245
      6 C                    -0.855198       0.027555
      7 C                    -1.809567       0.064358
      8 O                    -0.264987       0.219710
      9 C                    -1.261025       0.067845
     10 C                    -0.549422       0.018918
     11 C                     0.826695       0.041319
     12 C                     1.418611      -0.004178
     13 C                     0.493792       0.046746
     14 C                    -0.356906       0.013330
     15 C                     0.291395       0.004246
     16 C                    -0.855149       0.027540
     17 C                    -1.809501       0.064349
     18 O                    -0.264962       0.219697
     19 C                    -1.261080       0.067877
     20 C                    -0.549396       0.018898
     21 H                     0.252352       0.002976
     22 H                     0.252558       0.002969
     23 H                     0.281207       0.000182
     24 H                     0.212823      -0.003255
     25 H                     0.134748      -0.000150
     26 H                     0.134816      -0.000157
     27 H                     0.254237      -0.000480
     28 H                     0.043882      -0.001931
     29 H                     0.252547       0.002966
     30 H                     0.281207       0.000182
     31 H                     0.252355       0.002977
     32 H                     0.212820      -0.003256
     33 H                     0.254242      -0.000480
     34 H                     0.134750      -0.000150
     35 H                     0.134808      -0.000157
     36 H                     0.043891      -0.001930
  --------------------------------------------------------
  Sum of atomic charges =    -1.000000
  Sum of spin   charges =     1.000000

 -----------------------------------------------------------------
                    Cartesian Multipole Moments
 -----------------------------------------------------------------
    Charge (ESU x 10^10)
                -4.8032
    Dipole Moment (Debye)
         X      -0.0000      Y       0.0020      Z       0.0012
       Tot       0.0024
    Quadrupole Moments (Debye-Ang)
        XX    -124.2139     XY      -2.0299     YY    -135.2968
        XZ       2.7110     YZ      12.4925     ZZ    -142.5500
    Octopole Moments (Debye-Ang^2)
       XXX      -0.0025    XXY       0.0141    XYY      -0.0037
       YYY       0.0429    XXZ       0.0085    XYZ       0.0014
       YYZ      -0.0067    XZZ       0.0023    YZZ       0.0077
       ZZZ       0.0401
    Hexadecapole Moments (Debye-Ang^3)
      XXXX   -6049.5453   XXXY      54.1883   XXYY   -1212.5263
      XYYY      70.0039   YYYY   -1022.6612   XXXZ    -110.8452
      XXYZ     154.6366   XYYZ     -34.9366   YYYZ     585.9431
      XXZZ   -1303.0677   XYZZ       5.8509   YYZZ    -493.8602
      XZZZ    -122.9286   YZZZ     618.6513   ZZZZ   -1732.7533
 -----------------------------------------------------------------
 Total job time:  1307.98s(wall), 9973.75s(cpu) 
 Sat Feb  3 11:45:14 2024

        *************************************************************
        *                                                           *
        *  Thank you very much for using Q-Chem.  Have a nice day.  *
        *                                                           *
        *************************************************************


