 Entering Gaussian System, Link 0=g16
 Input=025-rad.com
 Output=025-rad.log
 Initial command:
 /sysapps/ubuntu-applications/gaussian/Gaussian/AVX2/g16/l1.exe "/scratch/selhajj1/4406363/Gau-2850720.inp" -scrdir="/scratch/selhajj1/4406363/"
 Entering Link 1 = /sysapps/ubuntu-applications/gaussian/Gaussian/AVX2/g16/l1.exe PID=   2850889.
  
 Copyright (c) 1988,1990,1992,1993,1995,1998,2003,2009,2016,
            Gaussian, Inc.  All Rights Reserved.
  
 This is part of the Gaussian(R) 16 program.  It is based on
 the Gaussian(R) 09 system (copyright 2009, Gaussian, Inc.),
 the Gaussian(R) 03 system (copyright 2003, Gaussian, Inc.),
 the Gaussian(R) 98 system (copyright 1998, Gaussian, Inc.),
 the Gaussian(R) 94 system (copyright 1995, Gaussian, Inc.),
 the Gaussian 92(TM) system (copyright 1992, Gaussian, Inc.),
 the Gaussian 90(TM) system (copyright 1990, Gaussian, Inc.),
 the Gaussian 88(TM) system (copyright 1988, Gaussian, Inc.),
 the Gaussian 86(TM) system (copyright 1986, Carnegie Mellon
 University), and the Gaussian 82(TM) system (copyright 1983,
 Carnegie Mellon University). Gaussian is a federally registered
 trademark of Gaussian, Inc.
  
 This software contains proprietary and confidential information,
 including trade secrets, belonging to Gaussian, Inc.
  
 This software is provided under written license and may be
 used, copied, transmitted, or stored only in accord with that
 written license.
  
 The following legend is applicable only to US Government
 contracts under FAR:
  
                    RESTRICTED RIGHTS LEGEND
  
 Use, reproduction and disclosure by the US Government is
 subject to restrictions as set forth in subparagraphs (a)
 and (c) of the Commercial Computer Software - Restricted
 Rights clause in FAR 52.227-19.
  
 Gaussian, Inc.
 340 Quinnipiac St., Bldg. 40, Wallingford CT 06492
  
  
 ---------------------------------------------------------------
 Warning -- This program may not be used in any manner that
 competes with the business of Gaussian, Inc. or will provide
 assistance to any competitor of Gaussian, Inc.  The licensee
 of this program is prohibited from giving any competitor of
 Gaussian, Inc. access to this program.  By using this program,
 the user acknowledges that Gaussian, Inc. is engaged in the
 business of creating and licensing software in the field of
 computational chemistry and represents and warrants to the
 licensee that it is not a competitor of Gaussian, Inc. and that
 it will not use this program in any manner prohibited above.
 ---------------------------------------------------------------
  

 Cite this work as:
 Gaussian 16, Revision A.03,
 M. J. Frisch, G. W. Trucks, H. B. Schlegel, G. E. Scuseria, 
 M. A. Robb, J. R. Cheeseman, G. Scalmani, V. Barone, 
 G. A. Petersson, H. Nakatsuji, X. Li, M. Caricato, A. V. Marenich, 
 J. Bloino, B. G. Janesko, R. Gomperts, B. Mennucci, H. P. Hratchian, 
 J. V. Ortiz, A. F. Izmaylov, J. L. Sonnenberg, D. Williams-Young, 
 F. Ding, F. Lipparini, F. Egidi, J. Goings, B. Peng, A. Petrone, 
 T. Henderson, D. Ranasinghe, V. G. Zakrzewski, J. Gao, N. Rega, 
 G. Zheng, W. Liang, M. Hada, M. Ehara, K. Toyota, R. Fukuda, 
 J. Hasegawa, M. Ishida, T. Nakajima, Y. Honda, O. Kitao, H. Nakai, 
 T. Vreven, K. Throssell, J. A. Montgomery, Jr., J. E. Peralta, 
 F. Ogliaro, M. J. Bearpark, J. J. Heyd, E. N. Brothers, K. N. Kudin, 
 V. N. Staroverov, T. A. Keith, R. Kobayashi, J. Normand, 
 K. Raghavachari, A. P. Rendell, J. C. Burant, S. S. Iyengar, 
 J. Tomasi, M. Cossi, J. M. Millam, M. Klene, C. Adamo, R. Cammi, 
 J. W. Ochterski, R. L. Martin, K. Morokuma, O. Farkas, 
 J. B. Foresman, and D. J. Fox, Gaussian, Inc., Wallingford CT, 2016.
 
 ******************************************
 Gaussian 16:  ES64L-G16RevA.03 25-Dec-2016
                10-Feb-2024 
 ******************************************
 %chk=025-rad.chk
 %nproc=8
 Will use up to    8 processors via shared memory.
 %mem=30GB
 ----------------------------------------------------------------------
 #P UB3LYP/6-311++G(d,p) nosym opt freq SCRF=(PCM,Solvent=n,n-DiMethylF
 ormamide)
 ----------------------------------------------------------------------
 1/18=20,19=15,26=3,38=1/1,3;
 2/9=110,12=2,15=1,17=6,18=5,40=1/2;
 3/5=4,6=6,7=1111,11=2,25=1,30=1,70=2201,71=1,72=148,74=-5,116=2/1,2,3;
 4//1;
 5/5=2,38=5,53=148/2;
 6/7=2,8=2,9=2,10=2,28=1/1;
 7/30=1/1,2,3,16;
 1/18=20,19=15,26=3/3(2);
 2/9=110,15=1/2;
 99//99;
 2/9=110,15=1/2;
 3/5=4,6=6,7=1111,11=2,25=1,30=1,70=2205,71=1,72=148,74=-5,116=2/1,2,3;
 4/5=5,16=3,69=1/1;
 5/5=2,38=5,53=148/2;
 7/30=1/1,2,3,16;
 1/18=20,19=15,26=3/3(-5);
 2/9=110,15=1/2;
 6/7=2,8=2,9=2,10=2,19=2,28=1/1;
 99/9=1/99;
 Leave Link    1 at Sat Feb 10 10:01:40 2024, MaxMem=  4026531840 cpu:               0.8 elap:               0.2
 (Enter /sysapps/ubuntu-applications/gaussian/Gaussian/AVX2/g16/l101.exe)
 -------
 Radical
 -------
 Symbolic Z-matrix:
 Charge = -1 Multiplicity = 2
 C                    -1.92293  -0.29359   1.22302 
 C                    -2.75414   0.7635    0.60228 
 C                    -2.16941   1.67719  -0.24855 
 C                    -0.76641   1.69767  -0.55607 
 C                     0.06483   0.64059   0.0647 
 C                    -0.51991  -0.27311   0.9155 
 O                    -0.21514   2.52921  -1.32417 
 O                    -2.4742   -1.12515   1.99109 
 Br                    0.5317   -1.57482   1.88892 
 Br                   -3.22108   2.97884  -1.22198 
 N                     1.41633   0.74276  -0.2719 
 N                    -4.10568   0.66142   0.93886 
 C                    -4.84963   1.7761    1.54216 
 C                    -6.31738   1.35778   1.7036 
 C                    -7.16302   2.46993   2.34166 
 C                    -6.57307   2.94034   3.67927 
 C                    -5.1038    3.3575    3.52215 
 C                    -4.26524   2.23493   2.89362 
 C                     2.16064  -0.37189  -0.87478 
 C                     3.62813   0.04707  -1.03685 
 C                     1.5761   -0.83175  -2.22582 
 C                     2.41504  -1.95425  -2.85398 
 C                     4.47415  -1.06502  -1.67454 
 C                     3.88406  -1.53645  -3.01172 
 H                     1.48523   1.57646  -0.85876 
 H                    -4.17465  -0.17237   1.52559 
 H                    -4.81417   2.62045   0.85068 
 H                    -6.36364   0.4576    2.33293 
 H                    -6.71859   1.07874   0.72463 
 H                    -8.19394   2.12447   2.48169 
 H                    -7.21249   3.32321   1.6523 
 H                    -6.63806   2.12199   4.40901 
 H                    -7.16565   3.76914   4.08463 
 H                    -4.68445   3.64362   4.49349 
 H                    -5.04918   4.25054   2.88543 
 H                    -4.22796   1.3735    3.57325 
 H                    -3.23212   2.5633    2.74762 
 H                     2.12579  -1.21589  -0.18283 
 H                     4.02949   0.32684  -0.05815 
 H                     3.67377   0.94692  -1.6667 
 H                     1.53821   0.0293   -2.9059 
 H                     0.54319  -1.16056  -2.07935 
 H                     1.99557  -2.24111  -3.82504 
 H                     2.36104  -2.84697  -2.21675 
 H                     4.52422  -1.9179   -0.98472 
 H                     5.50485  -0.71913  -1.81504 
 H                     4.47693  -2.36517  -3.4168 
 H                     3.94845  -0.71847  -3.74193 
 
 ITRead=  0  0  0  0  0  0  0  0  0  0  0  0  0  0  0  0  0  0  0  0
 ITRead=  0  0  0  0  0  0  0  0  0  0  0  0  0  0  0  0  0  0  0  0
 ITRead=  0  0  0  0  0  0  0  0
 MicOpt= -1 -1 -1 -1 -1 -1 -1 -1 -1 -1 -1 -1 -1 -1 -1 -1 -1 -1 -1 -1
 MicOpt= -1 -1 -1 -1 -1 -1 -1 -1 -1 -1 -1 -1 -1 -1 -1 -1 -1 -1 -1 -1
 MicOpt= -1 -1 -1 -1 -1 -1 -1 -1
 NAtoms=     48 NQM=       48 NQMF=       0 NMMI=      0 NMMIF=      0
                NMic=       0 NMicF=      0.
                    Isotopes and Nuclear Properties:
 (Nuclear quadrupole moments (NQMom) in fm**2, nuclear magnetic moments (NMagM)
  in nuclear magnetons)

  Atom         1           2           3           4           5           6           7           8           9          10
 IAtWgt=          12          12          12          12          12          12          16          16          79          79
 AtmWgt=  12.0000000  12.0000000  12.0000000  12.0000000  12.0000000  12.0000000  15.9949146  15.9949146  78.9183361  78.9183361
 NucSpn=           0           0           0           0           0           0           0           0           3           3
 AtZEff=  -0.0000000  -0.0000000  -0.0000000  -0.0000000  -0.0000000  -0.0000000  -0.0000000  -0.0000000  -0.0000000  -0.0000000
 NQMom=    0.0000000   0.0000000   0.0000000   0.0000000   0.0000000   0.0000000   0.0000000   0.0000000  31.3000000  31.3000000
 NMagM=    0.0000000   0.0000000   0.0000000   0.0000000   0.0000000   0.0000000   0.0000000   0.0000000   2.1063990   2.1063990
 AtZNuc=   6.0000000   6.0000000   6.0000000   6.0000000   6.0000000   6.0000000   8.0000000   8.0000000  35.0000000  35.0000000

  Atom        11          12          13          14          15          16          17          18          19          20
 IAtWgt=          14          14          12          12          12          12          12          12          12          12
 AtmWgt=  14.0030740  14.0030740  12.0000000  12.0000000  12.0000000  12.0000000  12.0000000  12.0000000  12.0000000  12.0000000
 NucSpn=           2           2           0           0           0           0           0           0           0           0
 AtZEff=  -0.0000000  -0.0000000  -0.0000000  -0.0000000  -0.0000000  -0.0000000  -0.0000000  -0.0000000  -0.0000000  -0.0000000
 NQMom=    2.0440000   2.0440000   0.0000000   0.0000000   0.0000000   0.0000000   0.0000000   0.0000000   0.0000000   0.0000000
 NMagM=    0.4037610   0.4037610   0.0000000   0.0000000   0.0000000   0.0000000   0.0000000   0.0000000   0.0000000   0.0000000
 AtZNuc=   7.0000000   7.0000000   6.0000000   6.0000000   6.0000000   6.0000000   6.0000000   6.0000000   6.0000000   6.0000000

  Atom        21          22          23          24          25          26          27          28          29          30
 IAtWgt=          12          12          12          12           1           1           1           1           1           1
 AtmWgt=  12.0000000  12.0000000  12.0000000  12.0000000   1.0078250   1.0078250   1.0078250   1.0078250   1.0078250   1.0078250
 NucSpn=           0           0           0           0           1           1           1           1           1           1
 AtZEff=  -0.0000000  -0.0000000  -0.0000000  -0.0000000  -0.0000000  -0.0000000  -0.0000000  -0.0000000  -0.0000000  -0.0000000
 NQMom=    0.0000000   0.0000000   0.0000000   0.0000000   0.0000000   0.0000000   0.0000000   0.0000000   0.0000000   0.0000000
 NMagM=    0.0000000   0.0000000   0.0000000   0.0000000   2.7928460   2.7928460   2.7928460   2.7928460   2.7928460   2.7928460
 AtZNuc=   6.0000000   6.0000000   6.0000000   6.0000000   1.0000000   1.0000000   1.0000000   1.0000000   1.0000000   1.0000000

  Atom        31          32          33          34          35          36          37          38          39          40
 IAtWgt=           1           1           1           1           1           1           1           1           1           1
 AtmWgt=   1.0078250   1.0078250   1.0078250   1.0078250   1.0078250   1.0078250   1.0078250   1.0078250   1.0078250   1.0078250
 NucSpn=           1           1           1           1           1           1           1           1           1           1
 AtZEff=  -0.0000000  -0.0000000  -0.0000000  -0.0000000  -0.0000000  -0.0000000  -0.0000000  -0.0000000  -0.0000000  -0.0000000
 NQMom=    0.0000000   0.0000000   0.0000000   0.0000000   0.0000000   0.0000000   0.0000000   0.0000000   0.0000000   0.0000000
 NMagM=    2.7928460   2.7928460   2.7928460   2.7928460   2.7928460   2.7928460   2.7928460   2.7928460   2.7928460   2.7928460
 AtZNuc=   1.0000000   1.0000000   1.0000000   1.0000000   1.0000000   1.0000000   1.0000000   1.0000000   1.0000000   1.0000000

  Atom        41          42          43          44          45          46          47          48
 IAtWgt=           1           1           1           1           1           1           1           1
 AtmWgt=   1.0078250   1.0078250   1.0078250   1.0078250   1.0078250   1.0078250   1.0078250   1.0078250
 NucSpn=           1           1           1           1           1           1           1           1
 AtZEff=  -0.0000000  -0.0000000  -0.0000000  -0.0000000  -0.0000000  -0.0000000  -0.0000000  -0.0000000
 NQMom=    0.0000000   0.0000000   0.0000000   0.0000000   0.0000000   0.0000000   0.0000000   0.0000000
 NMagM=    2.7928460   2.7928460   2.7928460   2.7928460   2.7928460   2.7928460   2.7928460   2.7928460
 AtZNuc=   1.0000000   1.0000000   1.0000000   1.0000000   1.0000000   1.0000000   1.0000000   1.0000000
 Leave Link  101 at Sat Feb 10 10:01:41 2024, MaxMem=  4026531840 cpu:               3.7 elap:               0.7
 (Enter /sysapps/ubuntu-applications/gaussian/Gaussian/AVX2/g16/l103.exe)

 GradGradGradGradGradGradGradGradGradGradGradGradGradGradGradGradGradGrad
 Berny optimization.
 Initialization pass.
                           ----------------------------
                           !    Initial Parameters    !
                           ! (Angstroms and Degrees)  !
 --------------------------                            --------------------------
 ! Name  Definition              Value          Derivative Info.                !
 --------------------------------------------------------------------------------
 ! R1    R(1,2)                  1.4811         estimate D2E/DX2                !
 ! R2    R(1,6)                  1.4365         estimate D2E/DX2                !
 ! R3    R(1,8)                  1.2591         estimate D2E/DX2                !
 ! R4    R(2,3)                  1.3786         estimate D2E/DX2                !
 ! R5    R(2,12)                 1.3966         estimate D2E/DX2                !
 ! R6    R(3,4)                  1.4365         estimate D2E/DX2                !
 ! R7    R(3,10)                 1.9359         estimate D2E/DX2                !
 ! R8    R(4,5)                  1.4811         estimate D2E/DX2                !
 ! R9    R(4,7)                  1.2591         estimate D2E/DX2                !
 ! R10   R(5,6)                  1.3786         estimate D2E/DX2                !
 ! R11   R(5,11)                 1.3965         estimate D2E/DX2                !
 ! R12   R(6,9)                  1.9359         estimate D2E/DX2                !
 ! R13   R(11,19)                1.4697         estimate D2E/DX2                !
 ! R14   R(11,25)                1.0219         estimate D2E/DX2                !
 ! R15   R(12,13)                1.4697         estimate D2E/DX2                !
 ! R16   R(12,26)                1.0219         estimate D2E/DX2                !
 ! R17   R(13,14)                1.5347         estimate D2E/DX2                !
 ! R18   R(13,18)                1.5422         estimate D2E/DX2                !
 ! R19   R(13,27)                1.0919         estimate D2E/DX2                !
 ! R20   R(14,15)                1.5359         estimate D2E/DX2                !
 ! R21   R(14,28)                1.0993         estimate D2E/DX2                !
 ! R22   R(14,29)                1.0942         estimate D2E/DX2                !
 ! R23   R(15,16)                1.5357         estimate D2E/DX2                !
 ! R24   R(15,30)                1.0962         estimate D2E/DX2                !
 ! R25   R(15,31)                1.0981         estimate D2E/DX2                !
 ! R26   R(16,17)                1.5354         estimate D2E/DX2                !
 ! R27   R(16,32)                1.0984         estimate D2E/DX2                !
 ! R28   R(16,33)                1.0965         estimate D2E/DX2                !
 ! R29   R(17,18)                1.5357         estimate D2E/DX2                !
 ! R30   R(17,34)                1.096          estimate D2E/DX2                !
 ! R31   R(17,35)                1.0981         estimate D2E/DX2                !
 ! R32   R(18,36)                1.0979         estimate D2E/DX2                !
 ! R33   R(18,37)                1.0938         estimate D2E/DX2                !
 ! R34   R(19,20)                1.5347         estimate D2E/DX2                !
 ! R35   R(19,21)                1.5422         estimate D2E/DX2                !
 ! R36   R(19,38)                1.0919         estimate D2E/DX2                !
 ! R37   R(20,23)                1.5359         estimate D2E/DX2                !
 ! R38   R(20,39)                1.0942         estimate D2E/DX2                !
 ! R39   R(20,40)                1.0993         estimate D2E/DX2                !
 ! R40   R(21,22)                1.5357         estimate D2E/DX2                !
 ! R41   R(21,41)                1.0979         estimate D2E/DX2                !
 ! R42   R(21,42)                1.0938         estimate D2E/DX2                !
 ! R43   R(22,24)                1.5354         estimate D2E/DX2                !
 ! R44   R(22,43)                1.096          estimate D2E/DX2                !
 ! R45   R(22,44)                1.0981         estimate D2E/DX2                !
 ! R46   R(23,24)                1.5357         estimate D2E/DX2                !
 ! R47   R(23,45)                1.0981         estimate D2E/DX2                !
 ! R48   R(23,46)                1.0962         estimate D2E/DX2                !
 ! R49   R(24,47)                1.0965         estimate D2E/DX2                !
 ! R50   R(24,48)                1.0984         estimate D2E/DX2                !
 ! A1    A(2,1,6)              116.6309         estimate D2E/DX2                !
 ! A2    A(2,1,8)              118.7719         estimate D2E/DX2                !
 ! A3    A(6,1,8)              124.5856         estimate D2E/DX2                !
 ! A4    A(1,2,3)              119.5801         estimate D2E/DX2                !
 ! A5    A(1,2,12)             112.9511         estimate D2E/DX2                !
 ! A6    A(3,2,12)             127.4192         estimate D2E/DX2                !
 ! A7    A(2,3,4)              123.768          estimate D2E/DX2                !
 ! A8    A(2,3,10)             121.7031         estimate D2E/DX2                !
 ! A9    A(4,3,10)             114.4153         estimate D2E/DX2                !
 ! A10   A(3,4,5)              116.631          estimate D2E/DX2                !
 ! A11   A(3,4,7)              124.5862         estimate D2E/DX2                !
 ! A12   A(5,4,7)              118.7712         estimate D2E/DX2                !
 ! A13   A(4,5,6)              119.5792         estimate D2E/DX2                !
 ! A14   A(4,5,11)             112.9478         estimate D2E/DX2                !
 ! A15   A(6,5,11)             127.4233         estimate D2E/DX2                !
 ! A16   A(1,6,5)              123.7681         estimate D2E/DX2                !
 ! A17   A(1,6,9)              114.414          estimate D2E/DX2                !
 ! A18   A(5,6,9)              121.7044         estimate D2E/DX2                !
 ! A19   A(5,11,19)            122.2428         estimate D2E/DX2                !
 ! A20   A(5,11,25)            105.269          estimate D2E/DX2                !
 ! A21   A(19,11,25)           110.4295         estimate D2E/DX2                !
 ! A22   A(2,12,13)            122.2341         estimate D2E/DX2                !
 ! A23   A(2,12,26)            105.2679         estimate D2E/DX2                !
 ! A24   A(13,12,26)           110.4256         estimate D2E/DX2                !
 ! A25   A(12,13,14)           108.6967         estimate D2E/DX2                !
 ! A26   A(12,13,18)           113.1761         estimate D2E/DX2                !
 ! A27   A(12,13,27)           108.0639         estimate D2E/DX2                !
 ! A28   A(14,13,18)           110.5674         estimate D2E/DX2                !
 ! A29   A(14,13,27)           107.9655         estimate D2E/DX2                !
 ! A30   A(18,13,27)           108.2143         estimate D2E/DX2                !
 ! A31   A(13,14,15)           111.8933         estimate D2E/DX2                !
 ! A32   A(13,14,28)           108.8844         estimate D2E/DX2                !
 ! A33   A(13,14,29)           109.0312         estimate D2E/DX2                !
 ! A34   A(15,14,28)           109.3858         estimate D2E/DX2                !
 ! A35   A(15,14,29)           110.7597         estimate D2E/DX2                !
 ! A36   A(28,14,29)           106.735          estimate D2E/DX2                !
 ! A37   A(14,15,16)           111.8463         estimate D2E/DX2                !
 ! A38   A(14,15,30)           110.0382         estimate D2E/DX2                !
 ! A39   A(14,15,31)           109.0667         estimate D2E/DX2                !
 ! A40   A(16,15,30)           110.2752         estimate D2E/DX2                !
 ! A41   A(16,15,31)           109.031          estimate D2E/DX2                !
 ! A42   A(30,15,31)           106.4217         estimate D2E/DX2                !
 ! A43   A(15,16,17)           111.2044         estimate D2E/DX2                !
 ! A44   A(15,16,32)           109.1302         estimate D2E/DX2                !
 ! A45   A(15,16,33)           110.2371         estimate D2E/DX2                !
 ! A46   A(17,16,32)           109.089          estimate D2E/DX2                !
 ! A47   A(17,16,33)           110.4634         estimate D2E/DX2                !
 ! A48   A(32,16,33)           106.5916         estimate D2E/DX2                !
 ! A49   A(16,17,18)           111.4567         estimate D2E/DX2                !
 ! A50   A(16,17,34)           110.266          estimate D2E/DX2                !
 ! A51   A(16,17,35)           109.14           estimate D2E/DX2                !
 ! A52   A(18,17,34)           110.1591         estimate D2E/DX2                !
 ! A53   A(18,17,35)           109.2677         estimate D2E/DX2                !
 ! A54   A(34,17,35)           106.4118         estimate D2E/DX2                !
 ! A55   A(13,18,17)           111.6674         estimate D2E/DX2                !
 ! A56   A(13,18,36)           108.7774         estimate D2E/DX2                !
 ! A57   A(13,18,37)           109.2836         estimate D2E/DX2                !
 ! A58   A(17,18,36)           109.7995         estimate D2E/DX2                !
 ! A59   A(17,18,37)           110.5433         estimate D2E/DX2                !
 ! A60   A(36,18,37)           106.6246         estimate D2E/DX2                !
 ! A61   A(11,19,20)           108.6956         estimate D2E/DX2                !
 ! A62   A(11,19,21)           113.1762         estimate D2E/DX2                !
 ! A63   A(11,19,38)           108.0658         estimate D2E/DX2                !
 ! A64   A(20,19,21)           110.5672         estimate D2E/DX2                !
 ! A65   A(20,19,38)           107.9657         estimate D2E/DX2                !
 ! A66   A(21,19,38)           108.2135         estimate D2E/DX2                !
 ! A67   A(19,20,23)           111.8931         estimate D2E/DX2                !
 ! A68   A(19,20,39)           109.0317         estimate D2E/DX2                !
 ! A69   A(19,20,40)           108.8847         estimate D2E/DX2                !
 ! A70   A(23,20,39)           110.7593         estimate D2E/DX2                !
 ! A71   A(23,20,40)           109.3856         estimate D2E/DX2                !
 ! A72   A(39,20,40)           106.7349         estimate D2E/DX2                !
 ! A73   A(19,21,22)           111.6674         estimate D2E/DX2                !
 ! A74   A(19,21,41)           108.7769         estimate D2E/DX2                !
 ! A75   A(19,21,42)           109.2834         estimate D2E/DX2                !
 ! A76   A(22,21,41)           109.7997         estimate D2E/DX2                !
 ! A77   A(22,21,42)           110.5433         estimate D2E/DX2                !
 ! A78   A(41,21,42)           106.6252         estimate D2E/DX2                !
 ! A79   A(21,22,24)           111.4568         estimate D2E/DX2                !
 ! A80   A(21,22,43)           110.1591         estimate D2E/DX2                !
 ! A81   A(21,22,44)           109.2676         estimate D2E/DX2                !
 ! A82   A(24,22,43)           110.2659         estimate D2E/DX2                !
 ! A83   A(24,22,44)           109.1403         estimate D2E/DX2                !
 ! A84   A(43,22,44)           106.4117         estimate D2E/DX2                !
 ! A85   A(20,23,24)           111.8461         estimate D2E/DX2                !
 ! A86   A(20,23,45)           109.0668         estimate D2E/DX2                !
 ! A87   A(20,23,46)           110.038          estimate D2E/DX2                !
 ! A88   A(24,23,45)           109.031          estimate D2E/DX2                !
 ! A89   A(24,23,46)           110.2753         estimate D2E/DX2                !
 ! A90   A(45,23,46)           106.4218         estimate D2E/DX2                !
 ! A91   A(22,24,23)           111.2044         estimate D2E/DX2                !
 ! A92   A(22,24,47)           110.4635         estimate D2E/DX2                !
 ! A93   A(22,24,48)           109.0891         estimate D2E/DX2                !
 ! A94   A(23,24,47)           110.237          estimate D2E/DX2                !
 ! A95   A(23,24,48)           109.1301         estimate D2E/DX2                !
 ! A96   A(47,24,48)           106.5917         estimate D2E/DX2                !
 ! D1    D(6,1,2,3)              1.6192         estimate D2E/DX2                !
 ! D2    D(6,1,2,12)           179.2446         estimate D2E/DX2                !
 ! D3    D(8,1,2,3)           -179.5614         estimate D2E/DX2                !
 ! D4    D(8,1,2,12)            -1.9361         estimate D2E/DX2                !
 ! D5    D(2,1,6,5)             -1.6925         estimate D2E/DX2                !
 ! D6    D(2,1,6,9)            174.4827         estimate D2E/DX2                !
 ! D7    D(8,1,6,5)            179.5645         estimate D2E/DX2                !
 ! D8    D(8,1,6,9)             -4.2602         estimate D2E/DX2                !
 ! D9    D(1,2,3,4)             -1.741          estimate D2E/DX2                !
 ! D10   D(1,2,3,10)           174.1644         estimate D2E/DX2                !
 ! D11   D(12,2,3,4)          -178.9875         estimate D2E/DX2                !
 ! D12   D(12,2,3,10)           -3.0821         estimate D2E/DX2                !
 ! D13   D(1,2,12,13)          124.8749         estimate D2E/DX2                !
 ! D14   D(1,2,12,26)           -1.9805         estimate D2E/DX2                !
 ! D15   D(3,2,12,13)          -57.7256         estimate D2E/DX2                !
 ! D16   D(3,2,12,26)          175.419          estimate D2E/DX2                !
 ! D17   D(2,3,4,5)              1.6923         estimate D2E/DX2                !
 ! D18   D(2,3,4,7)           -179.5653         estimate D2E/DX2                !
 ! D19   D(10,3,4,5)          -174.4824         estimate D2E/DX2                !
 ! D20   D(10,3,4,7)             4.2601         estimate D2E/DX2                !
 ! D21   D(3,4,5,6)             -1.6162         estimate D2E/DX2                !
 ! D22   D(3,4,5,11)          -179.2431         estimate D2E/DX2                !
 ! D23   D(7,4,5,6)            179.5649         estimate D2E/DX2                !
 ! D24   D(7,4,5,11)             1.938          estimate D2E/DX2                !
 ! D25   D(4,5,6,1)              1.7382         estimate D2E/DX2                !
 ! D26   D(4,5,6,9)           -174.1677         estimate D2E/DX2                !
 ! D27   D(11,5,6,1)           178.9863         estimate D2E/DX2                !
 ! D28   D(11,5,6,9)             3.0804         estimate D2E/DX2                !
 ! D29   D(4,5,11,19)         -124.8969         estimate D2E/DX2                !
 ! D30   D(4,5,11,25)            1.9722         estimate D2E/DX2                !
 ! D31   D(6,5,11,19)           57.7019         estimate D2E/DX2                !
 ! D32   D(6,5,11,25)         -175.429          estimate D2E/DX2                !
 ! D33   D(5,11,19,20)        -176.6358         estimate D2E/DX2                !
 ! D34   D(5,11,19,21)          60.1135         estimate D2E/DX2                !
 ! D35   D(5,11,19,38)         -59.7062         estimate D2E/DX2                !
 ! D36   D(25,11,19,20)         58.8078         estimate D2E/DX2                !
 ! D37   D(25,11,19,21)        -64.4428         estimate D2E/DX2                !
 ! D38   D(25,11,19,38)        175.7374         estimate D2E/DX2                !
 ! D39   D(2,12,13,14)         176.6102         estimate D2E/DX2                !
 ! D40   D(2,12,13,18)         -60.1382         estimate D2E/DX2                !
 ! D41   D(2,12,13,27)          59.6811         estimate D2E/DX2                !
 ! D42   D(26,12,13,14)        -58.8467         estimate D2E/DX2                !
 ! D43   D(26,12,13,18)         64.405          estimate D2E/DX2                !
 ! D44   D(26,12,13,27)       -175.7757         estimate D2E/DX2                !
 ! D45   D(12,13,14,15)        179.5172         estimate D2E/DX2                !
 ! D46   D(12,13,14,28)         58.4836         estimate D2E/DX2                !
 ! D47   D(12,13,14,29)        -57.6149         estimate D2E/DX2                !
 ! D48   D(18,13,14,15)         54.7145         estimate D2E/DX2                !
 ! D49   D(18,13,14,28)        -66.3192         estimate D2E/DX2                !
 ! D50   D(18,13,14,29)        177.5823         estimate D2E/DX2                !
 ! D51   D(27,13,14,15)        -63.4909         estimate D2E/DX2                !
 ! D52   D(27,13,14,28)        175.4755         estimate D2E/DX2                !
 ! D53   D(27,13,14,29)         59.377          estimate D2E/DX2                !
 ! D54   D(12,13,18,17)       -177.4818         estimate D2E/DX2                !
 ! D55   D(12,13,18,36)        -56.1464         estimate D2E/DX2                !
 ! D56   D(12,13,18,37)         59.8999         estimate D2E/DX2                !
 ! D57   D(14,13,18,17)        -55.2683         estimate D2E/DX2                !
 ! D58   D(14,13,18,36)         66.0671         estimate D2E/DX2                !
 ! D59   D(14,13,18,37)       -177.8866         estimate D2E/DX2                !
 ! D60   D(27,13,18,17)         62.7851         estimate D2E/DX2                !
 ! D61   D(27,13,18,36)       -175.8796         estimate D2E/DX2                !
 ! D62   D(27,13,18,37)        -59.8333         estimate D2E/DX2                !
 ! D63   D(13,14,15,16)        -54.6725         estimate D2E/DX2                !
 ! D64   D(13,14,15,30)       -177.6028         estimate D2E/DX2                !
 ! D65   D(13,14,15,31)         66.0091         estimate D2E/DX2                !
 ! D66   D(28,14,15,16)         66.0703         estimate D2E/DX2                !
 ! D67   D(28,14,15,30)        -56.86           estimate D2E/DX2                !
 ! D68   D(28,14,15,31)       -173.248          estimate D2E/DX2                !
 ! D69   D(29,14,15,16)       -176.5536         estimate D2E/DX2                !
 ! D70   D(29,14,15,30)         60.5161         estimate D2E/DX2                !
 ! D71   D(29,14,15,31)        -55.872          estimate D2E/DX2                !
 ! D72   D(14,15,16,17)         54.1151         estimate D2E/DX2                !
 ! D73   D(14,15,16,32)        -66.2736         estimate D2E/DX2                !
 ! D74   D(14,15,16,33)        176.9825         estimate D2E/DX2                !
 ! D75   D(30,15,16,17)        176.9107         estimate D2E/DX2                !
 ! D76   D(30,15,16,32)         56.5221         estimate D2E/DX2                !
 ! D77   D(30,15,16,33)        -60.2218         estimate D2E/DX2                !
 ! D78   D(31,15,16,17)        -66.5873         estimate D2E/DX2                !
 ! D79   D(31,15,16,32)        173.024          estimate D2E/DX2                !
 ! D80   D(31,15,16,33)         56.2802         estimate D2E/DX2                !
 ! D81   D(15,16,17,18)        -54.576          estimate D2E/DX2                !
 ! D82   D(15,16,17,34)       -177.2495         estimate D2E/DX2                !
 ! D83   D(15,16,17,35)         66.2019         estimate D2E/DX2                !
 ! D84   D(32,16,17,18)         65.8371         estimate D2E/DX2                !
 ! D85   D(32,16,17,34)        -56.8365         estimate D2E/DX2                !
 ! D86   D(32,16,17,35)       -173.3851         estimate D2E/DX2                !
 ! D87   D(33,16,17,18)       -177.3132         estimate D2E/DX2                !
 ! D88   D(33,16,17,34)         60.0132         estimate D2E/DX2                !
 ! D89   D(33,16,17,35)        -56.5354         estimate D2E/DX2                !
 ! D90   D(16,17,18,13)         55.5866         estimate D2E/DX2                !
 ! D91   D(16,17,18,36)        -65.1543         estimate D2E/DX2                !
 ! D92   D(16,17,18,37)        177.4819         estimate D2E/DX2                !
 ! D93   D(34,17,18,13)        178.3215         estimate D2E/DX2                !
 ! D94   D(34,17,18,36)         57.5806         estimate D2E/DX2                !
 ! D95   D(34,17,18,37)        -59.7832         estimate D2E/DX2                !
 ! D96   D(35,17,18,13)        -65.1164         estimate D2E/DX2                !
 ! D97   D(35,17,18,36)        174.1427         estimate D2E/DX2                !
 ! D98   D(35,17,18,37)         56.7789         estimate D2E/DX2                !
 ! D99   D(11,19,20,23)       -179.5169         estimate D2E/DX2                !
 ! D100  D(11,19,20,39)         57.6156         estimate D2E/DX2                !
 ! D101  D(11,19,20,40)        -58.4833         estimate D2E/DX2                !
 ! D102  D(21,19,20,23)        -54.7149         estimate D2E/DX2                !
 ! D103  D(21,19,20,39)       -177.5824         estimate D2E/DX2                !
 ! D104  D(21,19,20,40)         66.3187         estimate D2E/DX2                !
 ! D105  D(38,19,20,23)         63.4895         estimate D2E/DX2                !
 ! D106  D(38,19,20,39)        -59.378          estimate D2E/DX2                !
 ! D107  D(38,19,20,40)       -175.4769         estimate D2E/DX2                !
 ! D108  D(11,19,21,22)        177.4803         estimate D2E/DX2                !
 ! D109  D(11,19,21,41)         56.145          estimate D2E/DX2                !
 ! D110  D(11,19,21,42)        -59.9016         estimate D2E/DX2                !
 ! D111  D(20,19,21,22)         55.2683         estimate D2E/DX2                !
 ! D112  D(20,19,21,41)        -66.0669         estimate D2E/DX2                !
 ! D113  D(20,19,21,42)        177.8865         estimate D2E/DX2                !
 ! D114  D(38,19,21,22)        -62.7846         estimate D2E/DX2                !
 ! D115  D(38,19,21,41)        175.8801         estimate D2E/DX2                !
 ! D116  D(38,19,21,42)         59.8336         estimate D2E/DX2                !
 ! D117  D(19,20,23,24)         54.6731         estimate D2E/DX2                !
 ! D118  D(19,20,23,45)        -66.0085         estimate D2E/DX2                !
 ! D119  D(19,20,23,46)        177.6033         estimate D2E/DX2                !
 ! D120  D(39,20,23,24)        176.5544         estimate D2E/DX2                !
 ! D121  D(39,20,23,45)         55.8728         estimate D2E/DX2                !
 ! D122  D(39,20,23,46)        -60.5153         estimate D2E/DX2                !
 ! D123  D(40,20,23,24)        -66.0699         estimate D2E/DX2                !
 ! D124  D(40,20,23,45)        173.2485         estimate D2E/DX2                !
 ! D125  D(40,20,23,46)         56.8603         estimate D2E/DX2                !
 ! D126  D(19,21,22,24)        -55.5865         estimate D2E/DX2                !
 ! D127  D(19,21,22,43)       -178.3212         estimate D2E/DX2                !
 ! D128  D(19,21,22,44)         65.1169         estimate D2E/DX2                !
 ! D129  D(41,21,22,24)         65.1539         estimate D2E/DX2                !
 ! D130  D(41,21,22,43)        -57.5809         estimate D2E/DX2                !
 ! D131  D(41,21,22,44)       -174.1427         estimate D2E/DX2                !
 ! D132  D(42,21,22,24)       -177.4814         estimate D2E/DX2                !
 ! D133  D(42,21,22,43)         59.7838         estimate D2E/DX2                !
 ! D134  D(42,21,22,44)        -56.778          estimate D2E/DX2                !
 ! D135  D(21,22,24,23)         54.5759         estimate D2E/DX2                !
 ! D136  D(21,22,24,47)        177.313          estimate D2E/DX2                !
 ! D137  D(21,22,24,48)        -65.837          estimate D2E/DX2                !
 ! D138  D(43,22,24,23)        177.2494         estimate D2E/DX2                !
 ! D139  D(43,22,24,47)        -60.0135         estimate D2E/DX2                !
 ! D140  D(43,22,24,48)         56.8364         estimate D2E/DX2                !
 ! D141  D(44,22,24,23)        -66.202          estimate D2E/DX2                !
 ! D142  D(44,22,24,47)         56.5351         estimate D2E/DX2                !
 ! D143  D(44,22,24,48)        173.3851         estimate D2E/DX2                !
 ! D144  D(20,23,24,22)        -54.1154         estimate D2E/DX2                !
 ! D145  D(20,23,24,47)       -176.9828         estimate D2E/DX2                !
 ! D146  D(20,23,24,48)         66.2734         estimate D2E/DX2                !
 ! D147  D(45,23,24,22)         66.5871         estimate D2E/DX2                !
 ! D148  D(45,23,24,47)        -56.2804         estimate D2E/DX2                !
 ! D149  D(45,23,24,48)       -173.0242         estimate D2E/DX2                !
 ! D150  D(46,23,24,22)       -176.9108         estimate D2E/DX2                !
 ! D151  D(46,23,24,47)         60.2217         estimate D2E/DX2                !
 ! D152  D(46,23,24,48)        -56.5221         estimate D2E/DX2                !
 --------------------------------------------------------------------------------
 Trust Radius=3.00D-01 FncErr=1.00D-07 GrdErr=1.00D-06 EigMax=2.50D+02 EigMin=1.00D-04
 Number of steps in this run=    288 maximum allowed number of steps=    288.
 GradGradGradGradGradGradGradGradGradGradGradGradGradGradGradGradGradGrad

 Leave Link  103 at Sat Feb 10 10:01:41 2024, MaxMem=  4026531840 cpu:               0.3 elap:               0.1
 (Enter /sysapps/ubuntu-applications/gaussian/Gaussian/AVX2/g16/l202.exe)
                          Input orientation:                          
 ---------------------------------------------------------------------
 Center     Atomic      Atomic             Coordinates (Angstroms)
 Number     Number       Type             X           Y           Z
 ---------------------------------------------------------------------
      1          6           0       -1.922932   -0.293588    1.223020
      2          6           0       -2.754137    0.763499    0.602282
      3          6           0       -2.169411    1.677185   -0.248545
      4          6           0       -0.766406    1.697672   -0.556068
      5          6           0        0.064828    0.640591    0.064703
      6          6           0       -0.519912   -0.273106    0.915504
      7          8           0       -0.215144    2.529211   -1.324169
      8          8           0       -2.474196   -1.125153    1.991091
      9         35           0        0.531703   -1.574817    1.888924
     10         35           0       -3.221080    2.978837   -1.221977
     11          7           0        1.416333    0.742755   -0.271898
     12          7           0       -4.105681    0.661420    0.938859
     13          6           0       -4.849632    1.776099    1.542164
     14          6           0       -6.317375    1.357777    1.703598
     15          6           0       -7.163019    2.469927    2.341661
     16          6           0       -6.573067    2.940340    3.679267
     17          6           0       -5.103803    3.357500    3.522152
     18          6           0       -4.265243    2.234927    2.893616
     19          6           0        2.160639   -0.371894   -0.874779
     20          6           0        3.628129    0.047069   -1.036854
     21          6           0        1.576102   -0.831752   -2.225821
     22          6           0        2.415044   -1.954251   -2.853976
     23          6           0        4.474145   -1.065016   -1.674537
     24          6           0        3.884057   -1.536451   -3.011724
     25          1           0        1.485226    1.576463   -0.858755
     26          1           0       -4.174646   -0.172368    1.525593
     27          1           0       -4.814165    2.620445    0.850676
     28          1           0       -6.363637    0.457596    2.332932
     29          1           0       -6.718593    1.078744    0.724628
     30          1           0       -8.193937    2.124469    2.481689
     31          1           0       -7.212487    3.323209    1.652295
     32          1           0       -6.638063    2.121988    4.409014
     33          1           0       -7.165645    3.769135    4.084632
     34          1           0       -4.684452    3.643619    4.493487
     35          1           0       -5.049183    4.250535    2.885428
     36          1           0       -4.227963    1.373495    3.573246
     37          1           0       -3.232121    2.563300    2.747620
     38          1           0        2.125785   -1.215890   -0.182833
     39          1           0        4.029491    0.326841   -0.058152
     40          1           0        3.673773    0.946924   -1.666700
     41          1           0        1.538211    0.029296   -2.905904
     42          1           0        0.543186   -1.160560   -2.079353
     43          1           0        1.995567   -2.241105   -3.825040
     44          1           0        2.361036   -2.846966   -2.216752
     45          1           0        4.524221   -1.917896   -0.984718
     46          1           0        5.504853   -0.719126   -1.815035
     47          1           0        4.476934   -2.365173   -3.416797
     48          1           0        3.948449   -0.718465   -3.741934
 ---------------------------------------------------------------------
                    Distance matrix (angstroms):
                    1          2          3          4          5
     1  C    0.000000
     2  C    1.481098   0.000000
     3  C    2.471882   1.378635   0.000000
     4  C    2.909952   2.483048   1.436459   0.000000
     5  C    2.483058   2.872396   2.482836   1.481124   0.000000
     6  C    1.436472   2.482825   2.807043   2.471892   1.378632
     7  O    4.168082   3.643547   2.387902   1.259097   2.360982
     8  O    1.259097   2.360967   3.600272   4.168082   3.643551
     9  Br   2.847843   4.233192   4.737120   4.286287   2.907540
    10  Br   4.286253   2.907521   1.935943   2.847849   4.233218
    11  N    3.802562   4.261155   3.705572   2.399368   1.396533
    12  N    2.399413   1.396558   2.488142   3.802549   4.261189
    13  C    3.598754   2.509947   3.224904   4.591455   5.255872
    14  C    4.719014   3.776603   4.595486   6.002906   6.628186
    15  C    6.028838   5.037418   5.680997   7.064692   7.795690
    16  C    6.173750   5.365697   6.034522   7.293805   7.900352
    17  C    5.360447   4.558005   5.064807   6.180608   6.786037
    18  C    3.830235   3.114282   3.817953   4.942755   5.412409
    19  C    4.591562   5.256030   4.831172   3.598927   2.510015
    20  C    6.003112   6.628224   6.073729   4.718854   3.776614
    21  C    4.942405   5.412390   4.922728   3.830588   3.114200
    22  C    6.180432   6.786186   6.402564   5.360835   4.558005
    23  C    7.064951   7.795860   7.327343   6.028830   5.037472
    24  C    7.293757   7.900407   7.389661   6.173865   5.365671
    25  H    4.409809   4.557163   3.706599   2.275117   1.935500
    26  H    2.275184   1.935509   3.254133   4.409814   4.557219
    27  H    4.121827   2.784540   3.015419   4.383468   5.323734
    28  H    4.638539   4.014625   5.073751   6.419743   6.819348
    29  H    5.012989   3.978852   4.690443   6.119786   6.829515
    30  H    6.837891   5.914037   6.629416   8.036065   8.732177
    31  H    6.422218   5.247049   5.635176   7.005084   7.916830
    32  H    6.182073   5.605496   6.469896   7.701197   8.123812
    33  H    7.223613   6.373540   6.936500   8.171739   8.844623
    34  H    5.815801   5.211783   5.716569   6.681003   7.154577
    35  H    5.760738   4.758089   4.973631   6.058315   6.865952
    36  H    3.689972   3.372074   4.351546   5.398028   5.592412
    37  H    3.492877   2.840815   3.300236   4.212294   4.665268
    38  H    4.383968   5.324286   5.179084   4.122247   2.784841
    39  H    6.120267   6.829674   6.347130   5.012756   3.978955
    40  H    6.419693   6.819087   6.057000   4.638137   4.014484
    41  H    5.397386   5.592019   4.850109   3.690050   3.371801
    42  H    4.211775   4.665352   4.331609   3.493554   2.840765
    43  H    6.680596   7.154615   6.744728   5.816239   5.211720
    44  H    6.058395   6.866397   6.698263   5.761293   4.758220
    45  H    7.005588   7.917256   7.633562   6.422368   5.247221
    46  H    8.036346   8.732269   8.190881   6.837734   5.914061
    47  H    8.171759   8.844771   8.399546   7.223787   6.373550
    48  H    7.700935   8.123613   7.441177   6.182016   5.605357
                    6          7          8          9         10
     6  C    0.000000
     7  O    3.600278   0.000000
     8  O    2.387906   5.426660   0.000000
     9  Br   1.935947   5.265434   3.041063   0.000000
    10  Br   4.737116   3.041095   5.265394   6.670596   0.000000
    11  N    2.488160   2.638260   4.873029   3.289812   5.235295
    12  N    3.705621   4.873009   2.638329   5.235333   3.289704
    13  C    4.830985   5.501047   3.776439   6.348830   3.426257
    14  C    6.073833   6.912080   4.584498   7.452806   4.557836
    15  C    7.327279   7.855876   5.918831   8.704807   5.338295
    16  C    7.389540   8.101024   6.014891   8.606377   5.937970
    17  C    6.402185   6.933389   5.417856   7.665123   5.118085
    18  C    4.922465   5.854880   3.913124   6.207596   4.310659
    19  C    3.224938   3.776600   5.501119   3.426151   6.349082
    20  C    4.595700   4.584139   6.912375   4.558349   7.452597
    21  C    3.817497   3.913772   5.854344   4.309761   6.208160
    22  C    5.064503   5.418453   6.933018   5.117230   7.665812
    23  C    5.681201   5.918670   7.856201   5.338633   8.704829
    24  C    6.034410   6.015056   8.100908   5.937685   8.606625
    25  H    3.254148   2.003895   5.576502   4.288299   4.924216
    26  H    3.706675   5.576498   2.004000   4.924286   4.288184
    27  H    5.178557   5.088150   4.561305   6.874335   2.638609
    28  H    6.057405   7.447815   4.213039   7.202330   5.373053
    29  H    6.347250   6.971103   4.947322   7.807930   4.430826
    30  H    8.190968   8.849266   6.596678   9.495940   6.259105
    31  H    7.633276   7.645429   6.508003   9.166195   4.930655
    32  H    7.441294   8.619113   5.807587   8.451199   6.642140
    33  H    8.399336   8.893931   7.095538   9.624351   6.659149
    34  H    6.744338   7.420360   5.821375   7.824583   5.937164
    35  H    6.697628   6.637138   6.027306   8.128594   4.672253
    36  H    4.850209   6.436076   3.438336   5.846700   5.156074
    37  H    4.331042   5.067818   3.840765   5.659306   3.991302
    38  H    3.015775   4.561620   5.088615   2.638580   6.874920
    39  H    4.690950   4.946732   6.971774   4.431922   7.807583
    40  H    5.073780   4.212438   7.447849   5.373476   7.201767
    41  H    4.350917   3.438854   6.435272   5.155251   5.846901
    42  H    3.299533   3.841846   5.066987   3.989858   5.660336
    43  H    5.716066   5.822157   7.419670   5.936011   7.825416
    44  H    4.973494   6.027992   6.637021   4.671338   8.129550
    45  H    5.635553   6.507962   7.646026   4.931097   9.166459
    46  H    6.629673   6.596287   8.849671   6.259692   9.495712
    47  H    6.936429   7.095751   8.893881   6.658843   9.624713
    48  H    6.469646   5.807624   8.618778   6.641841   8.451176
                   11         12         13         14         15
    11  N    0.000000
    12  N    5.653776   0.000000
    13  C    6.604615   1.469677   0.000000
    14  C    8.005690   2.441583   1.534706   0.000000
    15  C    9.133405   3.819145   2.544082   1.535941   0.000000
    16  C    9.179956   4.334894   2.982096   2.544239   1.535748
    17  C    7.983976   3.865035   2.546720   2.962902   2.534110
    18  C    6.672883   2.514450   1.542224   2.529186   2.959220
    19  C    1.469660   6.604831   7.720064   9.028649  10.264114
    20  C    2.441552   8.005791   9.028472  10.399090  11.564319
    21  C    2.514441   6.672887   7.892316   9.085227  10.398808
    22  C    3.865022   7.984184   9.274539  10.392120  11.760412
    23  C    3.819116   9.133665  10.264108  11.564542  12.808171
    24  C    4.334869   9.180068  10.391737  11.605173  12.913082
    25  H    1.021869   5.943649   6.777514   8.215477   9.264615
    26  H    5.943692   1.021869   2.062136   2.638999   4.071617
    27  H    6.603408   2.085067   1.091940   2.140431   2.786181
    28  H    8.209409   2.661456   2.157771   1.099330   2.165309
    29  H    8.202620   2.654687   2.155849   1.094174   2.178922
    30  H   10.092010   4.608110   3.491195   2.171342   1.096239
    31  H    9.209658   4.152873   2.826440   2.160273   1.098072
    32  H    9.417352   4.537421   3.396609   2.829511   2.161155
    33  H   10.089037   5.377468   3.974953   3.493355   2.173913
    34  H    8.267012   4.675881   3.496459   3.959166   3.485857
    35  H    8.004756   4.190593   2.822590   3.372400   2.816833
    36  H    6.858647   2.731666   2.161910   2.803832   3.366529
    37  H    5.834381   2.766202   2.165445   3.473048   3.952908
    38  H    2.085077   6.604063   7.783576   9.026036  10.307289
    39  H    2.654669   8.202865   9.137844  10.546290  11.645780
    40  H    2.661427   8.209163   9.145096  10.552286  11.654293
    41  H    2.731642   6.858229   7.977541   9.204488  10.450121
    42  H    2.766204   5.834482   7.128944   8.229218   9.597468
    43  H    4.675869   8.267080   9.581313  10.612389  12.004238
    44  H    4.190587   8.005316   9.353925  10.409795  11.821849
    45  H    4.152848   9.210224  10.387485  11.640330  12.919341
    46  H    4.608076  10.092185  11.167466  12.508372  13.708507
    47  H    5.377442  10.089266  11.345760  12.513829  13.857364
    48  H    4.537392   9.417161  10.561760  11.804734  13.062951
                   16         17         18         19         20
    16  C    0.000000
    17  C    1.535397   0.000000
    18  C    2.537894   1.535712   0.000000
    19  C   10.391720   9.274346   7.892292   0.000000
    20  C   11.605051  10.391830   9.085188   1.534707   0.000000
    21  C   10.747451   9.757569   8.350717   1.542228   2.529186
    22  C   12.141928  11.198338   9.757575   2.546723   2.962902
    23  C   12.913055  11.760158  10.398776   2.544080   1.535941
    24  C   13.197063  12.141825  10.747438   2.982096   2.544238
    25  H    9.348256   8.110471   6.897953   2.062167   2.638712
    26  H    4.481036   4.160475   2.770336   6.777716   8.215691
    27  H    3.346191   2.786382   2.150243   7.783263   9.025373
    28  H    2.832048   3.377998   2.806516   9.145531  10.552695
    29  H    3.495227   3.953026   3.472779   9.138009  10.546176
    30  H    2.174180   3.485951   3.951774  11.167585  12.508276
    31  H    2.159644   2.818526   3.378089  10.387270  11.639741
    32  H    1.098388   2.160317   2.817705  10.561963  11.804976
    33  H    1.096527   2.176470   3.490651  11.345636  12.513551
    34  H    2.173574   1.095998   2.172495   9.581122  10.612203
    35  H    2.160790   1.098140   2.162708   9.353477  10.409091
    36  H    2.822367   2.169328   1.097885   7.977816   9.204923
    37  H    3.488846   2.175741   1.093839   7.128745   8.229015
    38  H   10.385571   9.322540   7.887833   1.091940   2.140433
    39  H   11.541790  10.267450   9.008681   2.155857   1.094176
    40  H   11.728205  10.477638   9.245724   2.157775   1.099331
    41  H   10.845805   9.824113   8.495841   2.161906   2.803823
    42  H   10.030959   9.147579   7.705890   2.165444   3.473046
    43  H   12.513332  11.650179  10.216308   3.496461   3.959164
    44  H   12.168572  11.276269   9.790254   2.822593   3.372406
    45  H   12.980948  11.867625  10.466236   2.826434   2.160275
    46  H   13.764272  12.555797  11.240667   3.491192   2.171339
    47  H   14.163513  13.141100  11.722111   3.974951   3.493352
    48  H   13.385192  12.301370  10.964387   3.396609   2.829506
                   21         22         23         24         25
    21  C    0.000000
    22  C    1.535710   0.000000
    23  C    2.959219   2.534110   0.000000
    24  C    2.537893   1.535396   1.535749   0.000000
    25  H    2.770673   4.160698   4.071431   4.481060   0.000000
    26  H    6.897753   8.110471   9.264947   9.348297   6.385740
    27  H    7.887839   9.322755  10.306892  10.385422   6.610172
    28  H    9.245761  10.477894  11.654856  11.728461   8.546542
    29  H    9.008724  10.267852  11.645990  11.541913   8.370034
    30  H   11.240710  12.556104  13.708659  13.764369  10.254027
    31  H   10.466269  11.867915  12.919044  12.980857   9.219908
    32  H   10.964402  12.301443  13.063221  13.385311   9.697155
    33  H   11.722121  13.141196  13.857191  14.163454  10.202081
    34  H   10.216290  11.650073  12.003985  12.513220   8.425233
    35  H    9.790246  11.276294  11.821258  12.168335   7.991750
    36  H    8.495850   9.824084  10.450466  10.845943   7.233558
    37  H    7.705875   9.147492   9.597223  10.030852   6.019398
    38  H    2.150236   2.786369   2.786169   3.346178   2.943539
    39  H    3.472786   3.953031   2.178918   3.495225   2.945472
    40  H    2.806515   3.377993   2.165308   2.832042   2.416368
    41  H    1.097885   2.169330   3.366525   2.822367   2.566584
    42  H    1.093839   2.175739   3.952903   3.488843   3.141432
    43  H    2.172494   1.095998   3.485857   2.173572   4.861391
    44  H    2.162705   1.098140   2.816837   2.160792   4.709344
    45  H    3.378084   2.818524   1.098072   2.159644   4.632699
    46  H    3.951774   3.485951   1.096238   2.174181   4.726690
    47  H    3.490649   2.176468   2.173910   1.096525   5.570493
    48  H    2.817705   2.160316   2.161153   1.098387   4.432480
                   26         27         28         29         30
    26  H    0.000000
    27  H    2.943519   0.000000
    28  H    2.416678   3.045630   0.000000
    29  H    2.945928   2.453482   1.760244   0.000000
    30  H    4.726974   3.785374   2.480039   2.521397   0.000000
    31  H    4.632881   2.624580   3.065216   2.478330   1.757304
    32  H    4.432450   4.029495   2.675000   3.830084   2.476960
    33  H    5.570476   4.160219   3.831183   4.327550   2.516294
    34  H    4.861075   3.785998   4.199810   4.992055   4.321068
    35  H    4.709144   2.617755   4.052089   4.185241   3.817413
    36  H    2.566207   3.051377   2.634075   3.795358   4.181436
    37  H    3.140953   2.470734   3.796360   4.295566   4.988277
    38  H    6.610831   7.996781   9.011100   9.182149  11.169348
    39  H    8.370503   9.181331  10.665434  10.802750  12.613265
    40  H    8.546416   9.010158  10.816011  10.664760  12.626887
    41  H    7.232950   7.821677   9.490419   9.080579  11.319479
    42  H    6.019144   7.182080   8.354094   8.100014  10.389025
    43  H    8.424991   9.584855  10.727530  10.375811  12.753786
    44  H    7.992106   9.528127  10.379772  10.320009  12.577677
    45  H    9.220565  10.543750  11.627348  11.760212  13.787974
    46  H   10.254338  11.168746  12.627405  12.613281  14.635734
    47  H   10.202228  11.375071  12.591481  12.423840  14.679918
    48  H    9.696893  10.441446  12.026065  11.703244  13.937478
                   31         32         33         34         35
    31  H    0.000000
    32  H    3.061437   0.000000
    33  H    2.473319   1.759733   0.000000
    34  H    3.816542   2.477719   2.517784   0.000000
    35  H    2.657148   3.062118   2.479768   1.757051   0.000000
    36  H    4.049546   2.658445   3.824994   2.491724   3.069993
    37  H    4.197679   3.815158   4.325997   2.514837   2.483439
    38  H   10.543929  10.441816  11.375078   9.584473   9.527654
    39  H   11.759503  11.703625  12.423491  10.375511  10.319029
    40  H   11.626397  12.026181  12.591095  10.727534  10.379098
    41  H   10.402007  11.168654  11.773321  10.321621   9.734071
    42  H    9.704630  10.219803  11.032800   9.675255   9.230579
    43  H   12.072740  12.703377  13.513464  12.184027  11.696165
    44  H   12.028837  12.230088  13.199920  11.695893  11.459411
    45  H   13.121484  13.038773  13.953265  12.072317  12.028202
    46  H   13.787443  13.937759  14.679648  12.753546  12.576946
    47  H   13.953349  14.315065  15.147634  13.513296  13.199717
    48  H   13.038379  13.659442  14.314914  12.703421  12.229892
                   36         37         38         39         40
    36  H    0.000000
    37  H    1.757554   0.000000
    38  H    7.821966   7.181712   0.000000
    39  H    9.081194   8.099698   2.453500   0.000000
    40  H    9.490860   8.354057   3.045635   1.760246   0.000000
    41  H    8.776960   7.819180   3.051368   3.795352   2.634064
    42  H    7.819026   7.170756   2.470722   4.295572   3.796360
    43  H   10.321448   9.675272   3.785987   4.992058   4.199802
    44  H    9.734027   9.230351   2.617743   4.185254   4.052090
    45  H   10.402356   9.704242   2.624562   2.478331   3.065217
    46  H   11.319909  10.388785   3.785361   2.521384   2.480036
    47  H   11.773426  11.032652   4.160201   4.327544   3.831174
    48  H   11.168790  10.219828   4.029483   3.830076   2.674989
                   41         42         43         44         45
    41  H    0.000000
    42  H    1.757560   0.000000
    43  H    2.491728   2.514838   0.000000
    44  H    3.069993   2.483430   1.757050   0.000000
    45  H    4.049539   4.197669   3.816541   2.657150   0.000000
    46  H    4.181433   4.988273   4.321068   3.817416   1.757303
    47  H    3.824995   4.325994   2.517784   2.479770   2.473318
    48  H    2.658447   3.815159   2.477718   3.062120   3.061436
                   46         47         48
    46  H    0.000000
    47  H    2.516293   0.000000
    48  H    2.476961   1.759732   0.000000
 Symmetry turned off by external request.
 Stoichiometry    C18H24Br2N2O2(1-,2)
 Framework group  C1[X(C18H24Br2N2O2)]
 Deg. of freedom   138
 Full point group                 C1      NOp   1
 Rotational constants (GHZ):           0.2834908           0.0863884           0.0715136
 Leave Link  202 at Sat Feb 10 10:01:41 2024, MaxMem=  4026531840 cpu:               0.7 elap:               0.1
 (Enter /sysapps/ubuntu-applications/gaussian/Gaussian/AVX2/g16/l301.exe)
 Standard basis: 6-311++G(d,p) (5D, 7F)
 Ernie: Thresh=  0.10000D-02 Tol=  0.10000D-05 Strict=F.
   748 basis functions,  1196 primitive gaussians,   776 cartesian basis functions
   117 alpha electrons      116 beta electrons
       nuclear repulsion energy      3149.5964802808 Hartrees.
 IExCor=  402 DFT=T Ex+Corr=B3LYP ExCW=0 ScaHFX=  0.200000
 ScaDFX=  0.800000  0.720000  1.000000  0.810000 ScalE2=  1.000000  1.000000
 IRadAn=      5 IRanWt=     -1 IRanGd=            0 ICorTp=0 IEmpDi=  4
 NAtoms=   48 NActive=   48 NUniq=   48 SFac= 1.00D+00 NAtFMM=   60 NAOKFM=F Big=F
 Integral buffers will be    131072 words long.
 Raffenetti 2 integral format.
 Two-electron integral symmetry is turned off.
 ------------------------------------------------------------------------------
 Polarizable Continuum Model (PCM)
 =================================
 Model                : PCM.
 Atomic radii         : UFF (Universal Force Field).
 Polarization charges : Total charges.
 Charge compensation  : None.
 Solution method      : On-the-fly selection.
 Cavity type          : Scaled VdW (van der Waals Surface) (Alpha=1.100).
 Cavity algorithm     : GePol (No added spheres)
                        Default sphere list used, NSphG=   48.
                        Lebedev-Laikov grids with approx.  5.0 points / Ang**2.
                        Smoothing algorithm: York/Karplus (Gamma=1.0000).
                        Polarization charges: spherical gaussians, with
                                              point-specific exponents (IZeta= 3).
                        Self-potential: point-specific (ISelfS= 7).
                        Self-field    : sphere-specific E.n sum rule (ISelfD= 2).
 1st derivatives      : Analytical E(r).r(x)/FMM algorithm (CHGder, D1EAlg=3).
                        Cavity 1st derivative terms included.
 Solvent              : n,n-DiMethylFormamide, Eps=  37.219000 Eps(inf)=   2.046330
 ------------------------------------------------------------------------------
 GePol: Number of generator spheres                  =      48
 GePol: Total number of spheres                      =      48
 GePol: Number of exposed spheres                    =      48 (100.00%)
 GePol: Number of points                             =    3422
 GePol: Average weight of points                     =       0.13
 GePol: Minimum weight of points                     =   0.76D-11
 GePol: Maximum weight of points                     =    0.20577
 GePol: Number of points with low weight             =     212
 GePol: Fraction of low-weight points (<1% of avg)   =       6.20%
 GePol: Cavity surface area                          =    451.312 Ang**2
 GePol: Cavity volume                                =    506.081 Ang**3
 Leave Link  301 at Sat Feb 10 10:01:41 2024, MaxMem=  4026531840 cpu:               0.9 elap:               0.2
 (Enter /sysapps/ubuntu-applications/gaussian/Gaussian/AVX2/g16/l302.exe)
 NPDir=0 NMtPBC=     1 NCelOv=     1 NCel=       1 NClECP=     1 NCelD=      1
         NCelK=      1 NCelE2=     1 NClLst=     1 CellRange=     0.0.
 One-electron integrals computed using PRISM.
 NBasis=   748 RedAO= T EigKep=  1.11D-06  NBF=   748
 NBsUse=   746 1.00D-06 EigRej=  4.95D-07 NBFU=   746
 Precomputing XC quadrature grid using
 IXCGrd= 4 IRadAn=           5 IRanWt=          -1 IRanGd=           0 AccXCQ= 0.00D+00.
 Generated NRdTot=       0 NPtTot=           0 NUsed=           0 NTot=          32
 NSgBfM=   745   745   745   745   745 MxSgAt=    48 MxSgA2=    48.
 Leave Link  302 at Sat Feb 10 10:01:43 2024, MaxMem=  4026531840 cpu:              14.1 elap:               2.2
 (Enter /sysapps/ubuntu-applications/gaussian/Gaussian/AVX2/g16/l303.exe)
 DipDrv:  MaxL=1.
 Leave Link  303 at Sat Feb 10 10:01:44 2024, MaxMem=  4026531840 cpu:               1.8 elap:               0.4
 (Enter /sysapps/ubuntu-applications/gaussian/Gaussian/AVX2/g16/l401.exe)
 ExpMin= 3.50D-02 ExpMax= 4.40D+05 ExpMxC= 1.51D+04 IAcc=3 IRadAn=         5 AccDes= 0.00D+00
 Harris functional with IExCor=  402 and IRadAn=       5 diagonalized for initial guess.
 HarFok:  IExCor=  402 AccDes= 0.00D+00 IRadAn=         5 IDoV= 1 UseB2=F ITyADJ=14
 ICtDFT=  3500011 ScaDFX=  1.000000  1.000000  1.000000  1.000000
 FoFCou: FMM=F IPFlag=           0 FMFlag=      100000 FMFlg1=           0
         NFxFlg=           0 DoJE=T BraDBF=F KetDBF=T FulRan=T
         wScrn=  0.000000 ICntrl=       500 IOpCl=  0 I1Cent=   200000004 NGrid=           0
         NMat0=    1 NMatS0=      1 NMatT0=    0 NMatD0=    1 NMtDS0=    0 NMtDT0=    0
 Symmetry not used in FoFCou.
 Harris En= -6109.27486226709    
 JPrj=0 DoOrth=F DoCkMO=F.
 Initial guess <Sx>= 0.0000 <Sy>= 0.0000 <Sz>= 0.5000 <S**2>= 0.7500 S= 0.5000
 Leave Link  401 at Sat Feb 10 10:01:53 2024, MaxMem=  4026531840 cpu:              70.7 elap:               9.0
 (Enter /sysapps/ubuntu-applications/gaussian/Gaussian/AVX2/g16/l502.exe)
 Two-electron integral symmetry not used.
 UHF open shell SCF:
 Using DIIS extrapolation, IDIIS=  1040.
 NGot=  4026531840 LenX=  4025315740 LenY=  4024712788
 Requested convergence on RMS density matrix=1.00D-08 within 128 cycles.
 Requested convergence on MAX density matrix=1.00D-06.
 Requested convergence on             energy=1.00D-06.
 No special actions if energy rises.
 Fock matrices will be formed incrementally for  20 cycles.

 Cycle   1  Pass 1  IDiag  1:
 FoFJK:  IHMeth= 1 ICntrl=       0 DoSepK=F KAlg= 0 I1Cent=           0 FoldK=F
 IRaf= 760000000 NMat=       1 IRICut=       1 DoRegI=T DoRafI=F ISym2E= 0 IDoP0=0 IntGTp=1.
 FoFCou: FMM=F IPFlag=           0 FMFlag=      100000 FMFlg1=           0
         NFxFlg=           0 DoJE=F BraDBF=F KetDBF=F FulRan=T
         wScrn=  0.000000 ICntrl=         0 IOpCl=  1 I1Cent=           0 NGrid=           0
         NMat0=    1 NMatS0=      1 NMatT0=    0 NMatD0=    1 NMtDS0=    0 NMtDT0=    0
 Symmetry not used in FoFCou.
 Inv3:  Mode=1 IEnd=    35130252.
 Iteration    1 A*A^-1 deviation from unit magnitude is 3.11D-15 for    371.
 Iteration    1 A*A^-1 deviation from orthogonality  is 1.61D-15 for   2286   1089.
 Iteration    1 A^-1*A deviation from unit magnitude is 3.11D-15 for     49.
 Iteration    1 A^-1*A deviation from orthogonality  is 2.44D-15 for   2153    452.
 E= -6108.29309915889    
 DIIS: error= 9.56D-02 at cycle   1 NSaved=   1.
 NSaved= 1 IEnMin= 1 EnMin= -6108.29309915889     IErMin= 1 ErrMin= 9.56D-02
 ErrMax= 9.56D-02  0.00D+00 EMaxC= 1.00D-01 BMatC= 1.25D+01 BMatP= 1.25D+01
 IDIUse=3 WtCom= 4.40D-02 WtEn= 9.56D-01
 Coeff-Com:  0.100D+01
 Coeff-En:   0.100D+01
 Coeff:      0.100D+01
 Gap=     0.096 Goal=   None    Shift=    0.000
 Gap=     0.134 Goal=   None    Shift=    0.000
 GapD=    0.096 DampG=0.500 DampE=0.500 DampFc=0.2500 IDamp=-1.
 Damping current iteration by 2.50D-01
 RMSDP=3.08D-02 MaxDP=4.00D+00              OVMax= 2.47D-01

 Cycle   2  Pass 1  IDiag  1:
 RMSU=  7.67D-03    CP:  1.01D+00
 E= -6108.55478447222     Delta-E=       -0.261685313326 Rises=F Damp=T
 DIIS: error= 6.77D-02 at cycle   2 NSaved=   2.
 NSaved= 2 IEnMin= 2 EnMin= -6108.55478447222     IErMin= 2 ErrMin= 6.77D-02
 ErrMax= 6.77D-02  0.00D+00 EMaxC= 1.00D-01 BMatC= 5.16D+00 BMatP= 1.25D+01
 IDIUse=3 WtCom= 3.23D-01 WtEn= 6.77D-01
 Coeff-Com: -0.132D+01 0.232D+01
 Coeff-En:   0.000D+00 0.100D+01
 Coeff:     -0.427D+00 0.143D+01
 Gap=     0.148 Goal=   None    Shift=    0.000
 Gap=     0.164 Goal=   None    Shift=    0.000
 RMSDP=1.87D-02 MaxDP=3.81D+00 DE=-2.62D-01 OVMax= 1.73D-01

 Cycle   3  Pass 1  IDiag  1:
 RMSU=  7.59D-03    CP:  7.07D-01  7.36D-01
 E= -6108.98735640444     Delta-E=       -0.432571932221 Rises=F Damp=F
 DIIS: error= 1.01D-02 at cycle   3 NSaved=   3.
 NSaved= 3 IEnMin= 3 EnMin= -6108.98735640444     IErMin= 3 ErrMin= 1.01D-02
 ErrMax= 1.01D-02  0.00D+00 EMaxC= 1.00D-01 BMatC= 2.91D-01 BMatP= 5.16D+00
 IDIUse=3 WtCom= 8.99D-01 WtEn= 1.01D-01
 Coeff-Com: -0.724D-01 0.244D+00 0.828D+00
 Coeff-En:   0.000D+00 0.000D+00 0.100D+01
 Coeff:     -0.651D-01 0.220D+00 0.846D+00
 Gap=     0.152 Goal=   None    Shift=    0.000
 Gap=     0.122 Goal=   None    Shift=    0.000
 RMSDP=5.08D-03 MaxDP=6.73D-01 DE=-4.33D-01 OVMax= 1.35D-01

 Cycle   4  Pass 1  IDiag  1:
 RMSU=  3.67D-03    CP:  7.68D-01  7.55D-01  8.67D-01
 E= -6108.94670589498     Delta-E=        0.040650509464 Rises=F Damp=F
 DIIS: error= 1.92D-02 at cycle   4 NSaved=   4.
 NSaved= 4 IEnMin= 3 EnMin= -6108.98735640444     IErMin= 3 ErrMin= 1.01D-02
 ErrMax= 1.92D-02  0.00D+00 EMaxC= 1.00D-01 BMatC= 4.32D-01 BMatP= 2.91D-01
 IDIUse=2 WtCom= 0.00D+00 WtEn= 1.00D+00
 Coeff-En:   0.000D+00 0.000D+00 0.633D+00 0.367D+00
 Coeff:      0.000D+00 0.000D+00 0.633D+00 0.367D+00
 Gap=     0.154 Goal=   None    Shift=    0.000
 Gap=     0.109 Goal=   None    Shift=    0.000
 RMSDP=4.23D-03 MaxDP=6.29D-01 DE= 4.07D-02 OVMax= 6.81D-02

 Cycle   5  Pass 1  IDiag  1:
 RMSU=  6.37D-04    CP:  7.08D-01  6.07D-01  9.17D-01  3.96D-01
 E= -6109.02787854935     Delta-E=       -0.081172654369 Rises=F Damp=F
 DIIS: error= 3.14D-03 at cycle   5 NSaved=   5.
 NSaved= 5 IEnMin= 5 EnMin= -6109.02787854935     IErMin= 5 ErrMin= 3.14D-03
 ErrMax= 3.14D-03  0.00D+00 EMaxC= 1.00D-01 BMatC= 2.13D-02 BMatP= 2.91D-01
 IDIUse=3 WtCom= 9.69D-01 WtEn= 3.14D-02
 Coeff-Com: -0.640D-01 0.940D-01 0.199D+00 0.999D-01 0.671D+00
 Coeff-En:   0.000D+00 0.000D+00 0.000D+00 0.000D+00 0.100D+01
 Coeff:     -0.620D-01 0.910D-01 0.193D+00 0.967D-01 0.682D+00
 Gap=     0.141 Goal=   None    Shift=    0.000
 Gap=     0.110 Goal=   None    Shift=    0.000
 RMSDP=3.89D-04 MaxDP=3.14D-02 DE=-8.12D-02 OVMax= 6.79D-03

 Cycle   6  Pass 1  IDiag  1:
 RMSU=  1.74D-04    CP:  7.08D-01  6.50D-01  9.27D-01  3.84D-01  8.53D-01
 E= -6109.03073518943     Delta-E=       -0.002856640082 Rises=F Damp=F
 DIIS: error= 3.43D-04 at cycle   6 NSaved=   6.
 NSaved= 6 IEnMin= 6 EnMin= -6109.03073518943     IErMin= 6 ErrMin= 3.43D-04
 ErrMax= 3.43D-04  0.00D+00 EMaxC= 1.00D-01 BMatC= 3.10D-04 BMatP= 2.13D-02
 IDIUse=3 WtCom= 9.97D-01 WtEn= 3.43D-03
 Coeff-Com: -0.344D-01 0.488D-01 0.716D-01 0.308D-01 0.335D+00 0.548D+00
 Coeff-En:   0.000D+00 0.000D+00 0.000D+00 0.000D+00 0.000D+00 0.100D+01
 Coeff:     -0.343D-01 0.486D-01 0.714D-01 0.307D-01 0.334D+00 0.550D+00
 Gap=     0.142 Goal=   None    Shift=    0.000
 Gap=     0.111 Goal=   None    Shift=    0.000
 RMSDP=1.16D-04 MaxDP=1.56D-02 DE=-2.86D-03 OVMax= 5.80D-03

 Cycle   7  Pass 1  IDiag  1:
 RMSU=  7.20D-05    CP:  7.06D-01  6.45D-01  9.29D-01  3.75D-01  8.74D-01
                    CP:  9.19D-01
 E= -6109.03079163866     Delta-E=       -0.000056449229 Rises=F Damp=F
 DIIS: error= 1.82D-04 at cycle   7 NSaved=   7.
 NSaved= 7 IEnMin= 7 EnMin= -6109.03079163866     IErMin= 7 ErrMin= 1.82D-04
 ErrMax= 1.82D-04  0.00D+00 EMaxC= 1.00D-01 BMatC= 6.46D-05 BMatP= 3.10D-04
 IDIUse=3 WtCom= 9.98D-01 WtEn= 1.82D-03
 Coeff-Com: -0.797D-02 0.105D-01-0.259D-02-0.535D-02 0.550D-01 0.327D+00
 Coeff-Com:  0.623D+00
 Coeff-En:   0.000D+00 0.000D+00 0.000D+00 0.000D+00 0.000D+00 0.113D+00
 Coeff-En:   0.887D+00
 Coeff:     -0.795D-02 0.105D-01-0.258D-02-0.534D-02 0.549D-01 0.327D+00
 Coeff:      0.624D+00
 Gap=     0.142 Goal=   None    Shift=    0.000
 Gap=     0.111 Goal=   None    Shift=    0.000
 RMSDP=6.97D-05 MaxDP=9.05D-03 DE=-5.64D-05 OVMax= 1.69D-03

 Cycle   8  Pass 1  IDiag  1:
 RMSU=  2.92D-05    CP:  7.05D-01  6.43D-01  9.28D-01  3.80D-01  9.08D-01
                    CP:  1.05D+00  6.06D-01
 E= -6109.03080850597     Delta-E=       -0.000016867312 Rises=F Damp=F
 DIIS: error= 6.83D-05 at cycle   8 NSaved=   8.
 NSaved= 8 IEnMin= 8 EnMin= -6109.03080850597     IErMin= 8 ErrMin= 6.83D-05
 ErrMax= 6.83D-05  0.00D+00 EMaxC= 1.00D-01 BMatC= 8.35D-06 BMatP= 6.46D-05
 IDIUse=1 WtCom= 1.00D+00 WtEn= 0.00D+00
 Coeff-Com:  0.170D-02-0.281D-02-0.120D-01-0.775D-02-0.251D-01 0.815D-01
 Coeff-Com:  0.298D+00 0.667D+00
 Coeff:      0.170D-02-0.281D-02-0.120D-01-0.775D-02-0.251D-01 0.815D-01
 Coeff:      0.298D+00 0.667D+00
 Gap=     0.142 Goal=   None    Shift=    0.000
 Gap=     0.111 Goal=   None    Shift=    0.000
 RMSDP=2.20D-05 MaxDP=2.01D-03 DE=-1.69D-05 OVMax= 1.60D-03

 Cycle   9  Pass 1  IDiag  1:
 RMSU=  1.21D-05    CP:  7.05D-01  6.41D-01  9.29D-01  3.80D-01  9.12D-01
                    CP:  1.07D+00  7.25D-01  1.21D+00
 E= -6109.03081157382     Delta-E=       -0.000003067849 Rises=F Damp=F
 DIIS: error= 4.93D-05 at cycle   9 NSaved=   9.
 NSaved= 9 IEnMin= 9 EnMin= -6109.03081157382     IErMin= 9 ErrMin= 4.93D-05
 ErrMax= 4.93D-05  0.00D+00 EMaxC= 1.00D-01 BMatC= 2.22D-06 BMatP= 8.35D-06
 IDIUse=1 WtCom= 1.00D+00 WtEn= 0.00D+00
 Coeff-Com:  0.340D-02-0.466D-02-0.265D-02-0.143D-02-0.237D-01-0.694D-01
 Coeff-Com: -0.112D+00 0.257D+00 0.954D+00
 Coeff:      0.340D-02-0.466D-02-0.265D-02-0.143D-02-0.237D-01-0.694D-01
 Coeff:     -0.112D+00 0.257D+00 0.954D+00
 Gap=     0.142 Goal=   None    Shift=    0.000
 Gap=     0.111 Goal=   None    Shift=    0.000
 RMSDP=1.61D-05 MaxDP=1.94D-03 DE=-3.07D-06 OVMax= 7.12D-04

 Cycle  10  Pass 1  IDiag  1:
 RMSU=  8.04D-06    CP:  7.05D-01  6.41D-01  9.29D-01  3.79D-01  9.16D-01
                    CP:  1.08D+00  6.93D-01  1.47D+00  1.06D+00
 E= -6109.03081262162     Delta-E=       -0.000001047800 Rises=F Damp=F
 DIIS: error= 1.51D-05 at cycle  10 NSaved=  10.
 NSaved=10 IEnMin=10 EnMin= -6109.03081262162     IErMin=10 ErrMin= 1.51D-05
 ErrMax= 1.51D-05  0.00D+00 EMaxC= 1.00D-01 BMatC= 2.59D-07 BMatP= 2.22D-06
 IDIUse=1 WtCom= 1.00D+00 WtEn= 0.00D+00
 Coeff-Com:  0.116D-02-0.152D-02 0.574D-03 0.248D-03-0.559D-02-0.359D-01
 Coeff-Com: -0.811D-01 0.300D-02 0.371D+00 0.749D+00
 Coeff:      0.116D-02-0.152D-02 0.574D-03 0.248D-03-0.559D-02-0.359D-01
 Coeff:     -0.811D-01 0.300D-02 0.371D+00 0.749D+00
 Gap=     0.142 Goal=   None    Shift=    0.000
 Gap=     0.111 Goal=   None    Shift=    0.000
 RMSDP=4.50D-06 MaxDP=4.65D-04 DE=-1.05D-06 OVMax= 2.18D-04

 Cycle  11  Pass 1  IDiag  1:
 RMSU=  3.24D-06    CP:  7.05D-01  6.41D-01  9.29D-01  3.79D-01  9.16D-01
                    CP:  1.08D+00  6.91D-01  1.51D+00  1.20D+00  9.86D-01
 E= -6109.03081271273     Delta-E=       -0.000000091115 Rises=F Damp=F
 DIIS: error= 2.70D-06 at cycle  11 NSaved=  11.
 NSaved=11 IEnMin=11 EnMin= -6109.03081271273     IErMin=11 ErrMin= 2.70D-06
 ErrMax= 2.70D-06  0.00D+00 EMaxC= 1.00D-01 BMatC= 2.88D-08 BMatP= 2.59D-07
 IDIUse=1 WtCom= 1.00D+00 WtEn= 0.00D+00
 Coeff-Com:  0.659D-04-0.637D-04 0.533D-03 0.255D-03 0.558D-03-0.538D-02
 Coeff-Com: -0.171D-01-0.297D-01 0.288D-01 0.298D+00 0.724D+00
 Coeff:      0.659D-04-0.637D-04 0.533D-03 0.255D-03 0.558D-03-0.538D-02
 Coeff:     -0.171D-01-0.297D-01 0.288D-01 0.298D+00 0.724D+00
 Gap=     0.142 Goal=   None    Shift=    0.000
 Gap=     0.111 Goal=   None    Shift=    0.000
 RMSDP=2.62D-06 MaxDP=4.44D-04 DE=-9.11D-08 OVMax= 5.58D-05

 Cycle  12  Pass 1  IDiag  1:
 RMSU=  1.05D-06    CP:  7.05D-01  6.41D-01  9.29D-01  3.79D-01  9.16D-01
                    CP:  1.08D+00  6.89D-01  1.51D+00  1.19D+00  1.07D+00
                    CP:  9.72D-01
 E= -6109.03081272200     Delta-E=       -0.000000009270 Rises=F Damp=F
 DIIS: error= 1.08D-06 at cycle  12 NSaved=  12.
 NSaved=12 IEnMin=12 EnMin= -6109.03081272200     IErMin=12 ErrMin= 1.08D-06
 ErrMax= 1.08D-06  0.00D+00 EMaxC= 1.00D-01 BMatC= 5.47D-09 BMatP= 2.88D-08
 IDIUse=1 WtCom= 1.00D+00 WtEn= 0.00D+00
 Coeff-Com: -0.985D-04 0.137D-03 0.143D-03 0.655D-04 0.817D-03 0.238D-02
 Coeff-Com:  0.378D-02-0.118D-01-0.350D-01 0.310D-01 0.326D+00 0.683D+00
 Coeff:     -0.985D-04 0.137D-03 0.143D-03 0.655D-04 0.817D-03 0.238D-02
 Coeff:      0.378D-02-0.118D-01-0.350D-01 0.310D-01 0.326D+00 0.683D+00
 Gap=     0.142 Goal=   None    Shift=    0.000
 Gap=     0.111 Goal=   None    Shift=    0.000
 RMSDP=8.50D-07 MaxDP=9.05D-05 DE=-9.27D-09 OVMax= 1.38D-05

 Cycle  13  Pass 1  IDiag  1:
 RMSU=  3.34D-07    CP:  7.05D-01  6.41D-01  9.29D-01  3.79D-01  9.16D-01
                    CP:  1.08D+00  6.88D-01  1.51D+00  1.18D+00  1.08D+00
                    CP:  1.06D+00  9.20D-01
 E= -6109.03081272372     Delta-E=       -0.000000001713 Rises=F Damp=F
 DIIS: error= 6.05D-07 at cycle  13 NSaved=  13.
 NSaved=13 IEnMin=13 EnMin= -6109.03081272372     IErMin=13 ErrMin= 6.05D-07
 ErrMax= 6.05D-07  0.00D+00 EMaxC= 1.00D-01 BMatC= 8.96D-10 BMatP= 5.47D-09
 IDIUse=1 WtCom= 1.00D+00 WtEn= 0.00D+00
 Coeff-Com: -0.588D-04 0.765D-04-0.444D-04-0.314D-04 0.298D-03 0.197D-02
 Coeff-Com:  0.435D-02 0.162D-02-0.192D-01-0.500D-01-0.979D-02 0.269D+00
 Coeff-Com:  0.801D+00
 Coeff:     -0.588D-04 0.765D-04-0.444D-04-0.314D-04 0.298D-03 0.197D-02
 Coeff:      0.435D-02 0.162D-02-0.192D-01-0.500D-01-0.979D-02 0.269D+00
 Coeff:      0.801D+00
 Gap=     0.142 Goal=   None    Shift=    0.000
 Gap=     0.111 Goal=   None    Shift=    0.000
 RMSDP=2.58D-07 MaxDP=3.42D-05 DE=-1.71D-09 OVMax= 1.60D-05

 Cycle  14  Pass 1  IDiag  1:
 RMSU=  1.37D-07    CP:  7.05D-01  6.41D-01  9.29D-01  3.79D-01  9.16D-01
                    CP:  1.08D+00  6.88D-01  1.50D+00  1.18D+00  1.08D+00
                    CP:  1.07D+00  9.78D-01  1.17D+00
 E= -6109.03081272421     Delta-E=       -0.000000000491 Rises=F Damp=F
 DIIS: error= 3.50D-07 at cycle  14 NSaved=  14.
 NSaved=14 IEnMin=14 EnMin= -6109.03081272421     IErMin=14 ErrMin= 3.50D-07
 ErrMax= 3.50D-07  0.00D+00 EMaxC= 1.00D-01 BMatC= 1.46D-10 BMatP= 8.96D-10
 IDIUse=1 WtCom= 1.00D+00 WtEn= 0.00D+00
 Coeff-Com: -0.282D-05 0.249D-05-0.300D-04-0.203D-04-0.212D-04 0.323D-03
 Coeff-Com:  0.560D-03 0.272D-02-0.112D-02-0.194D-01-0.607D-01-0.412D-01
 Coeff-Com:  0.262D+00 0.857D+00
 Coeff:     -0.282D-05 0.249D-05-0.300D-04-0.203D-04-0.212D-04 0.323D-03
 Coeff:      0.560D-03 0.272D-02-0.112D-02-0.194D-01-0.607D-01-0.412D-01
 Coeff:      0.262D+00 0.857D+00
 Gap=     0.142 Goal=   None    Shift=    0.000
 Gap=     0.111 Goal=   None    Shift=    0.000
 RMSDP=1.68D-07 MaxDP=2.11D-05 DE=-4.91D-10 OVMax= 7.52D-06

 Cycle  15  Pass 1  IDiag  1:
 RMSU=  8.36D-08    CP:  7.05D-01  6.41D-01  9.29D-01  3.79D-01  9.16D-01
                    CP:  1.08D+00  6.87D-01  1.51D+00  1.18D+00  1.08D+00
                    CP:  1.08D+00  9.91D-01  1.24D+00  1.16D+00
 E= -6109.03081272426     Delta-E=       -0.000000000054 Rises=F Damp=F
 DIIS: error= 1.29D-07 at cycle  15 NSaved=  15.
 NSaved=15 IEnMin=15 EnMin= -6109.03081272426     IErMin=15 ErrMin= 1.29D-07
 ErrMax= 1.29D-07  0.00D+00 EMaxC= 1.00D-01 BMatC= 4.25D-11 BMatP= 1.46D-10
 IDIUse=1 WtCom= 1.00D+00 WtEn= 0.00D+00
 Coeff-Com:  0.546D-05-0.771D-05-0.915D-05-0.687D-05-0.433D-04-0.439D-04
 Coeff-Com: -0.295D-03 0.129D-02 0.155D-02-0.358D-02-0.316D-01-0.597D-01
 Coeff-Com:  0.370D-01 0.458D+00 0.597D+00
 Coeff:      0.546D-05-0.771D-05-0.915D-05-0.687D-05-0.433D-04-0.439D-04
 Coeff:     -0.295D-03 0.129D-02 0.155D-02-0.358D-02-0.316D-01-0.597D-01
 Coeff:      0.370D-01 0.458D+00 0.597D+00
 Gap=     0.142 Goal=   None    Shift=    0.000
 Gap=     0.111 Goal=   None    Shift=    0.000
 RMSDP=5.45D-08 MaxDP=8.24D-06 DE=-5.37D-11 OVMax= 3.82D-06

 Cycle  16  Pass 1  IDiag  1:
 RMSU=  3.17D-08    CP:  7.05D-01  6.41D-01  9.29D-01  3.79D-01  9.16D-01
                    CP:  1.08D+00  6.87D-01  1.51D+00  1.18D+00  1.08D+00
                    CP:  1.07D+00  9.91D-01  1.27D+00  1.32D+00  9.63D-01
 E= -6109.03081272416     Delta-E=        0.000000000097 Rises=F Damp=F
 DIIS: error= 9.37D-08 at cycle  16 NSaved=  16.
 NSaved=16 IEnMin=15 EnMin= -6109.03081272426     IErMin=16 ErrMin= 9.37D-08
 ErrMax= 9.37D-08  0.00D+00 EMaxC= 1.00D-01 BMatC= 1.43D-11 BMatP= 4.25D-11
 IDIUse=1 WtCom= 1.00D+00 WtEn= 0.00D+00
 Coeff-Com:  0.356D-05-0.471D-05 0.107D-05 0.401D-07-0.182D-04-0.820D-04
 Coeff-Com: -0.331D-03 0.202D-03 0.108D-02 0.234D-02-0.475D-02-0.275D-01
 Coeff-Com: -0.398D-01 0.644D-01 0.393D+00 0.612D+00
 Coeff:      0.356D-05-0.471D-05 0.107D-05 0.401D-07-0.182D-04-0.820D-04
 Coeff:     -0.331D-03 0.202D-03 0.108D-02 0.234D-02-0.475D-02-0.275D-01
 Coeff:     -0.398D-01 0.644D-01 0.393D+00 0.612D+00
 Gap=     0.142 Goal=   None    Shift=    0.000
 Gap=     0.111 Goal=   None    Shift=    0.000
 RMSDP=2.80D-08 MaxDP=4.64D-06 DE= 9.73D-11 OVMax= 2.52D-06

 Cycle  17  Pass 1  IDiag  1:
 RMSU=  1.56D-08    CP:  7.05D-01  6.41D-01  9.29D-01  3.79D-01  9.16D-01
                    CP:  1.08D+00  6.87D-01  1.51D+00  1.18D+00  1.08D+00
                    CP:  1.07D+00  9.90D-01  1.29D+00  1.36D+00  1.08D+00
                    CP:  7.42D-01
 E= -6109.03081272430     Delta-E=       -0.000000000139 Rises=F Damp=F
 DIIS: error= 3.71D-08 at cycle  17 NSaved=  17.
 NSaved=17 IEnMin=17 EnMin= -6109.03081272430     IErMin=17 ErrMin= 3.71D-08
[...]
 370,-0.00001371,0.00002837,-0.00003161,0.00001375,-0.00000964,-0.00002
 768,0.00000736,0.00000482,0.00002546,-0.00001212,-0.00001611,-0.000207
 72,0.00003312,-0.00002322,0.00013331,-0.00002636,-0.00000432,0.0000201
 8,-0.00003411,0.00001547,0.00005262,0.00004217,-0.00003928,-0.00000158
 ,0.00003210,-0.00004163,0.00001273,-0.00001286,0.00000805,0.00035185,0
 .00029316,-0.00029489,0.00005148,-0.00000108,0.00000479,-0.00001235,0.
 00001415,-0.00000253,-0.00000108,-0.00000434,-0.00000190,0.00000083,0.
 00000177,0.00000013,-0.00000016,-0.00000097,0.00000064,-0.00000183,0.0
 0000068,-0.00000161,0.00000443,-0.00000465,0.00000056,-0.00135602,0.00
 023960,0.00066772,0.00268341,-0.02062545,0.01431217,0.00009053,0.00006
 292,-0.00015633,0.00043774,0.00067107,-0.00012131,0.01559381,-0.190375
 96,0.12076537,-0.00140273,0.00847101,-0.00804077,-0.00033567,0.0001847
 4,0.00004424,-0.00000469,-0.00000042,-0.00000216,-0.00000026,-0.000001
 30,-0.00000016,0.00000011,0.00000072,-0.00000034,-0.00000015,0.0000002
 1,0.00000030,0.00000116,-0.00000053,-0.00000055,-0.00000011,-0.0000001
 9,-0.00000004,0.00000002,0.00000047,-0.00000029,0.00000050,-0.00000030
 ,-0.00000042,0.00000061,-0.00000131,-0.00000119,0.00000010,-0.00000008
 ,0.00000006,0.00000018,0.00000087,-0.00000048,0.00000025,0.00000058,0.
 00000069,0.00057688,0.00058722,-0.00029143,-0.00059518,0.00070651,-0.0
 0024178,0.00347798,-0.00266679,-0.00240545,-0.00010776,-0.00008853,-0.
 00001618,0.00008440,0.00001748,0.00009007,0.00026902,0.00009387,0.0000
 1330,0.00032391,-0.00002650,0.00010143,-0.01928682,0.21048204,0.000009
 99,0.00000597,-0.00001051,0.00000725,-0.00000030,0.00000224,0.00000449
 ,0.00000136,-0.00000494,-0.00003085,-0.00000319,0.00001417,-0.00000708
 ,0.00009487,-0.00006486,0.00000166,0.00001399,-0.00000303,0.00000313,0
 .00000232,0.00000026,-0.00000530,-0.00000887,0.00000631,0.00001427,-0.
 00000825,0.00000451,-0.00000428,0.00000309,-0.00000185,-0.00024445,-0.
 00018361,0.00006892,-0.00000869,-0.00000031,0.00000042,0.00000211,-0.0
 0000255,0.00000079,0.00000016,0.00000073,0.00000014,0.00000009,-0.0000
 0024,-0.00000007,0.00000002,0.00000022,-0.00000018,0.00000028,-0.00000
 010,0.00000029,-0.00000090,0.00000095,-0.00000029,-0.00033579,-0.00009
 751,0.00049751,0.00161382,-0.01189080,0.00865888,-0.00008900,-0.000222
 12,-0.00002024,0.00120499,0.00077722,0.00110390,-0.01375869,0.12088869
 ,-0.14682321,-0.00261559,0.02179611,-0.02179206,0.00001437,0.00009955,
 -0.00003681,0.00000022,0.00000052,0.,0.00000017,0.00000007,0.,0.,-0.00
 000022,0.00000018,0.00000012,0.00000002,-0.00000001,-0.00000027,0.0000
 0013,0.00000007,-0.00000002,-0.00000004,0.00000007,0.,-0.00000015,0.00
 000013,-0.00000010,0.00000007,0.00000007,-0.00000009,0.00000028,0.0000
 0024,0.00000001,-0.00000007,0.00000004,-0.00000007,-0.00000024,0.00000
 014,-0.00000028,0.00000005,0.,-0.00021528,0.00009209,0.00000193,-0.000
 53673,0.00045636,0.00092901,0.00217285,-0.00228295,-0.00015484,0.00010
 300,0.00001322,-0.00007453,-0.00008101,0.00007025,0.00004678,0.0001836
 8,-0.00035080,0.00020317,-0.00057960,-0.00053074,0.00049420,0.01517587
 ,-0.13003742,0.16422846,0.00020203,0.00006425,-0.00007666,0.00007802,-
 0.00004484,0.00003165,0.00010120,0.00000444,-0.00003964,-0.00022976,-0
 .00003143,0.00014965,0.00052210,0.00047948,-0.00020583,-0.00026695,0.0
 0000151,0.00001345,-0.00002453,0.00014195,-0.00008267,-0.00014516,-0.0
 0010349,0.00009812,-0.00000028,-0.00005327,0.00007044,-0.00005744,0.00
 005377,-0.00003090,-0.00222337,-0.00035256,0.00043400,-0.00014503,0.00
 000775,-0.00001517,0.00003416,-0.00004084,0.00000629,0.00000279,0.0000
 1184,0.00000615,-0.00000224,-0.00000567,0.,0.00000030,0.00000250,-0.00
 000148,0.00000533,-0.00000268,0.00000497,-0.00001316,0.00001206,-0.000
 00044,0.00138167,0.00368225,0.00129713,-0.01779569,-0.00672126,0.00324
 103,0.00064988,-0.00001042,0.00020061,0.00068056,-0.00058156,-0.003348
 79,-0.25986080,-0.08533720,0.03707537,-0.01094435,-0.00425005,0.002072
 01,0.00006145,-0.00011927,0.00005177,0.00001465,0.00000008,0.00000669,
 0.00000034,0.00000428,-0.00000002,-0.00000028,-0.00000134,0.00000033,0
 .00000036,-0.00000081,-0.00000089,-0.00000322,0.00000155,0.00000159,0.
 00000012,0.00000116,-0.00000027,0.00000019,-0.00000079,0.00000033,-0.0
 0000163,0.00000096,0.00000138,-0.00000184,0.00000341,0.00000335,-0.000
 00074,0.00000108,-0.00000080,0.00000007,-0.00000129,0.00000071,-0.0000
 0037,-0.00000215,-0.00000149,0.00020275,-0.00000478,-0.00000480,0.0007
 7106,-0.00002474,0.00031806,0.00058716,0.00001124,-0.00065863,-0.00003
 342,0.00006951,-0.00007485,-0.00012411,-0.00004881,0.00000473,-0.00095
 266,-0.00033370,0.00013429,0.00010439,-0.00004863,0.00014604,0.0029999
 5,0.00034668,0.00023618,0.28348053,-0.00008805,-0.00002565,0.00003313,
 -0.00004351,0.00002127,-0.00001717,-0.00005057,-0.00000438,0.00002752,
 0.00017175,0.00004263,-0.00010185,-0.00007552,-0.00040805,0.00004454,0
 .00012367,-0.00005066,0.00003763,-0.00000298,-0.00007537,0.00004855,0.
 00007070,0.00005251,-0.00004661,-0.00001832,0.00004227,-0.00004195,0.0
 0003765,-0.00003431,0.00001940,0.00185577,0.00045605,-0.00050818,0.000
 07554,-0.00000108,0.00000836,-0.00001706,0.00001991,-0.00000366,-0.000
 00166,-0.00000602,-0.00000315,0.00000137,0.00000275,-0.00000004,-0.000
 00019,-0.00000124,0.00000071,-0.00000263,0.00000122,-0.00000242,0.0000
 0639,-0.00000603,0.00000009,0.00076884,-0.00361372,-0.00184119,0.02470
 929,0.00852059,-0.00419996,0.00008199,-0.00025439,-0.00010589,-0.00024
 692,0.00000543,-0.00298092,-0.08706027,-0.08204504,0.01598424,-0.00932
 263,-0.00469445,0.00282986,-0.00006215,0.00007037,-0.00002895,-0.00000
 656,-0.00000122,-0.00000382,-0.00000026,-0.00000204,0.,0.00000017,0.00
 000067,-0.00000026,0.00000007,0.00000038,0.00000067,0.00000155,-0.0000
 0069,-0.00000076,-0.00000012,-0.00000053,0.00000013,-0.00000008,0.0000
 0034,-0.00000015,0.00000072,-0.00000037,-0.00000059,0.00000095,-0.0000
 0163,-0.00000152,0.00000039,-0.00000055,0.00000028,-0.00000009,0.00000
 062,-0.00000035,0.00000013,0.00000110,0.00000094,0.00003448,0.00017501
 ,-0.00016828,-0.00081483,0.00087710,0.00037390,-0.00054403,0.00116711,
 0.00055056,-0.00002165,0.00003367,0.00007166,-0.00002397,0.00009397,0.
 00013267,-0.00102597,0.00003110,-0.00006159,0.00045823,0.00023819,-0.0
 0003912,-0.02250823,-0.00944978,0.00383819,0.09293534,0.08823392,-0.00
 009061,-0.00003486,0.00003212,-0.00004080,0.00002219,-0.00001328,-0.00
 004754,-0.00000567,0.00002254,0.00014853,0.00001311,-0.00008660,-0.000
 19225,-0.00034161,0.00010938,0.00012124,-0.00000106,0.00000358,0.00002
 044,-0.00006694,0.00004037,0.00007246,0.00005170,-0.00004593,0.0000038
 5,0.00002842,-0.00004149,0.00003497,-0.00003102,0.00001735,0.00154897,
 0.00010865,-0.00008101,0.00007294,-0.00000284,0.00000773,-0.00001691,0
 .00002003,-0.00000334,-0.00000152,-0.00000589,-0.00000313,0.00000114,0
 .00000276,0.00000010,-0.00000020,-0.00000120,0.00000072,-0.00000256,0.
 00000125,-0.00000234,0.00000635,-0.00000594,0.00000034,0.00018881,-0.0
 0251937,-0.00060408,0.01256499,0.00578781,-0.00297668,0.00030922,-0.00
 020314,-0.00027965,-0.00096692,-0.00162927,-0.00539999,0.03824480,0.01
 612215,-0.05373515,-0.02834256,-0.01112415,0.00460375,-0.00000920,0.00
 003959,-0.00003611,-0.00000664,-0.00000038,-0.00000322,-0.00000012,-0.
 00000201,0.00000005,0.00000014,0.00000073,-0.00000024,-0.00000006,0.00
 000037,0.00000065,0.00000159,-0.00000076,-0.00000077,-0.00000009,-0.00
 000055,0.00000007,-0.00000007,0.00000040,-0.00000019,0.00000076,-0.000
 00042,-0.00000061,0.00000092,-0.00000167,-0.00000159,0.00000036,-0.000
 00049,0.00000032,0.00000003,0.00000063,-0.00000050,0.00000018,0.000001
 07,0.00000078,-0.00043946,-0.00027820,0.00011916,-0.00025748,0.0005572
 8,0.00010497,-0.00052446,-0.00013521,0.00056965,-0.00000327,0.00008128
 ,0.00005231,0.00000712,0.00014750,0.00015536,-0.00177423,-0.00060856,0
 .00006307,0.00004272,-0.00021632,0.00010491,0.01894699,0.00735374,-0.0
 0369157,-0.04083477,-0.01398853,0.05853562,0.00011169,0.00003884,-0.00
 004672,0.00003634,-0.00002054,0.00000996,0.00004386,-0.00000911,-0.000
 00808,-0.00002365,-0.00002113,0.00003275,0.00034938,0.00004380,-0.0000
 4451,-0.00010289,0.00001868,0.00002599,-0.00000941,0.00006440,-0.00002
 966,-0.00006935,-0.00005205,0.00004973,-0.00000649,-0.00001160,0.00001
 743,-0.00001769,0.00001916,-0.00001093,-0.00007914,0.00028549,0.000280
 57,-0.00006824,0.00000503,-0.00000617,0.00001671,-0.00001985,0.0000026
 3,0.00000129,0.00000575,0.00000279,-0.00000101,-0.00000268,-0.00000002
 ,0.00000015,0.00000129,-0.00000079,0.00000260,-0.00000125,0.00000236,-
 0.00000644,0.00000578,-0.00000019,-0.00026190,-0.00061588,-0.00085048,
 -0.00076008,-0.00065393,-0.00240778,-0.00522383,-0.00432198,0.00036231
 ,-0.01777056,0.02421102,0.01091809,0.00798770,-0.01116733,-0.00508947,
 -0.12679071,0.10620101,0.05118853,-0.00005363,-0.00003815,-0.00002442,
 0.00000724,-0.00000034,0.00000275,0.00000004,0.00000205,0.00000003,-0.
 00000011,-0.00000071,0.00000023,0.00000028,-0.00000037,-0.00000036,-0.
 00000163,0.00000072,0.00000076,0.00000010,0.00000050,-0.00000010,0.000
 00007,-0.00000045,0.00000023,-0.00000080,0.00000048,0.00000068,-0.0000
 0084,0.00000168,0.00000158,-0.00000033,0.00000045,-0.00000032,0.,-0.00
 000073,0.00000037,-0.00000027,-0.00000101,-0.00000072,0.00005787,0.000
 04098,0.00006112,0.00046170,-0.00046323,-0.00054657,-0.00012393,0.0000
 9804,0.00006096,0.00024803,-0.00010144,-0.00027333,-0.00124668,0.00140
 402,0.00117686,0.00095241,0.00016948,-0.00072680,0.00142946,-0.0002426
 1,0.00018182,0.00041813,0.00022744,0.00066135,0.00060705,0.00016211,0.
 00077175,0.13998171,-0.00005164,-0.00001611,0.00002325,-0.00001969,0.0
 0000989,-0.00000840,-0.00002226,0.00000281,0.00000653,0.00004325,-0.00
 001014,-0.00002289,-0.00013580,-0.00005938,0.00005445,0.00006935,0.000
 01031,-0.00001748,0.00001252,-0.00002826,0.00001628,0.00003677,0.00002
 519,-0.00002434,0.00000610,0.00001179,-0.00002061,0.00001188,-0.000011
 54,0.00000660,0.00038041,0.00005530,0.00003344,0.00003723,-0.00000237,
 0.00000393,-0.00000882,0.00001038,-0.00000195,-0.00000081,-0.00000308,
 -0.00000151,0.00000052,0.00000148,0.,-0.00000015,-0.00000066,0.0000004
 1,-0.00000124,0.00000070,-0.00000123,0.00000304,-0.00000349,0.00000023
 ,-0.00053398,-0.00009325,0.00006514,-0.00202516,0.00072874,-0.00229326
 ,-0.00182233,-0.00005508,0.00023978,-0.00767365,0.00879542,0.00505189,
 0.00578516,-0.00822871,-0.00239712,0.10713185,-0.18895731,-0.06723054,
 -0.00004721,0.00002860,-0.00001884,-0.00000399,0.00000011,-0.00000169,
 -0.00000014,-0.00000105,0.,0.00000006,0.00000039,-0.00000016,-0.000000
 01,0.00000023,0.00000033,0.00000096,-0.00000037,-0.00000042,-0.0000000
 4,-0.00000030,0.00000007,-0.00000002,0.00000025,-0.00000015,0.00000048
 ,-0.00000027,-0.00000035,0.00000044,-0.00000084,-0.00000072,0.00000013
 ,-0.00000023,0.00000014,-0.00000007,0.00000040,-0.00000019,0.00000030,
 0.00000065,0.00000027,0.00003005,-0.00000240,0.00001979,0.00071836,-0.
 00044719,-0.00060358,-0.00022131,0.00037350,0.00023420,-0.00018923,0.0
 0022573,-0.00002060,-0.00037828,0.00034010,0.00008637,0.00083389,0.000
 37316,0.00002351,0.00066424,0.00087443,-0.00018372,-0.00022994,0.00093
 851,-0.00015281,-0.00026569,-0.00008607,0.00025611,-0.11520720,0.20328
 061,-0.00008757,-0.00002909,0.00002993,-0.00003019,0.00001981,-0.00000
 877,-0.00004049,0.00000250,0.00000951,0.00006536,-0.00000369,-0.000047
 97,-0.00020859,-0.00007409,0.00008514,0.00011141,0.00000013,-0.0000238
 9,0.00001610,-0.00005077,0.00003398,0.00006020,0.00004234,-0.00003940,
 0.00000892,0.00002244,-0.00002998,0.00001991,-0.00001923,0.00001142,0.
 00051545,0.00003837,0.00002947,0.00005861,-0.00000393,0.00000579,-0.00
 001369,0.00001612,-0.00000299,-0.00000122,-0.00000484,-0.00000242,0.00
 000094,0.00000220,0.00000002,-0.00000025,-0.00000110,0.00000064,-0.000
 00217,0.00000105,-0.00000190,0.00000510,-0.00000479,0.00000028,-0.0008
 4182,0.00015706,0.00028342,-0.00368214,-0.00057414,-0.00442280,0.00054
 904,0.00054316,0.00059859,0.00245104,-0.00243887,-0.00221085,0.0166270
 8,-0.02198747,-0.01115789,0.05033961,-0.06546721,-0.07919017,-0.000071
 76,0.00004523,-0.00003050,-0.00000622,-0.00000009,-0.00000307,-0.00000
 016,-0.00000172,0.,0.00000009,0.00000059,-0.00000026,0.,0.00000034,0.0
 0000050,0.00000138,-0.00000059,-0.00000061,-0.00000009,-0.00000042,0.0
 0000007,-0.00000005,0.00000037,-0.00000018,0.00000068,-0.00000035,-0.0
 0000053,0.00000070,-0.00000132,-0.00000117,0.00000023,-0.00000036,0.00
 000021,-0.00000008,0.00000055,-0.00000030,0.00000019,0.00000104,0.0000
 0056,0.00004641,0.00001185,-0.00001358,0.00102398,-0.00126966,-0.00079
 938,0.00000192,-0.00021057,0.00019309,0.00015660,-0.00033172,-0.000004
 75,0.00007756,-0.00027612,0.00014751,0.00003051,0.00035254,0.00030428,
 -0.00013568,-0.00022739,0.00003358,0.00061373,0.00067144,0.00102490,-0
 .00019162,0.00033607,0.00111362,-0.05493350,0.07497956,0.08593403,-0.0
 0000759,-0.00000213,0.00000359,-0.00000428,0.00000035,0.00000064,0.000
 00033,0.00000226,0.00000063,0.00000137,-0.00000487,-0.00000546,0.00000
 618,-0.00000016,0.00000610,0.00000828,-0.00001421,-0.00000198,0.000005
 51,-0.00000121,-0.00000263,0.00000636,0.00000598,-0.00000437,0.0000047
 8,0.00000717,-0.00000096,0.00000204,-0.00000186,0.00000083,0.00009183,
 0.00006554,0.00004239,0.00000674,0.00000008,0.00000027,-0.00000145,0.0
 0000131,-0.00000048,-0.00000021,-0.00000056,-0.00000012,0.00000016,0.0
 0000027,-0.00000003,-0.00000007,-0.00000016,0.00000012,-0.00000028,0.0
 0000010,-0.00000040,0.00000057,-0.00000054,0.00000035,-0.00025406,-0.0
 0006301,-0.00000886,0.00018849,0.00012201,0.00086363,0.00178629,-0.000
 81166,0.00004754,-0.00262151,-0.02495184,0.02174449,-0.00123036,0.0102
 6742,-0.01033470,-0.04701371,0.00067672,0.00216705,-0.00001873,0.00001
 907,0.00000574,-0.00000027,-0.00000027,-0.00000012,-0.00000004,-0.0000
 0010,-0.00000004,0.00000002,0.00000014,-0.00000016,0.00000003,-0.00000
 002,0.00000008,0.00000019,-0.00000008,-0.00000007,-0.00000004,0.000000
 02,0.,0.00000003,0.00000007,-0.00000006,0.00000007,-0.00000002,-0.0000
 0005,0.00000007,-0.00000012,-0.00000013,0.00000002,0.00000005,0.000000
 02,-0.00000004,0.00000002,-0.00000019,0.00000011,-0.00000001,-0.000000
 02,-0.00003492,0.00001974,-0.00009759,-0.00011207,-0.00003097,0.000114
 44,0.00022312,-0.00024345,0.00017761,-0.00013185,0.00059692,-0.0002302
 8,0.00017790,0.00008485,-0.00046017,0.00143853,0.00048952,-0.00045414,
 -0.00576616,-0.00204923,0.00134706,-0.00015271,-0.00132051,-0.00289600
 ,0.00033889,0.00044117,0.00044049,-0.00009422,0.01307169,-0.01253544,0
 .05315667,0.00005394,0.00001648,-0.00002028,0.00001423,-0.00001269,0.0
 0000752,0.00002811,-0.00000317,-0.00000617,-0.00003176,-0.00000584,0.0
 0002394,0.00017657,0.00004219,-0.00003377,-0.00006652,-0.00001377,0.00
 001850,-0.00000353,0.00003842,-0.00002319,-0.00003534,-0.00002118,0.00
 002216,-0.00001136,-0.00000614,0.00002135,-0.00001123,0.00001180,-0.00
 000716,-0.00021044,0.00008894,0.00014139,-0.00003346,0.00000361,-0.000
 00385,0.00000816,-0.00000986,0.00000130,0.00000054,0.00000277,0.000001
 62,-0.00000050,-0.00000147,0.00000005,0.00000009,0.00000056,-0.0000003
 0,0.00000130,-0.00000079,0.00000124,-0.00000318,0.00000240,0.00000014,
 0.00005308,-0.00000578,-0.00029903,-0.00013049,0.00102871,-0.00004763,
 0.00074149,0.00062587,-0.00047962,-0.00102225,-0.00972628,0.00726021,0
 .00016634,0.00784627,-0.00827820,0.00016872,-0.18238054,0.12186629,0.0
 0000907,-0.00003979,0.00000341,0.00000406,-0.00000093,0.00000163,-0.00
 000018,0.00000123,-0.00000004,-0.00000002,-0.00000014,-0.00000010,0.00
 000003,-0.00000031,-0.00000025,-0.00000079,0.00000034,0.00000040,0.000
 00001,0.00000047,-0.00000015,0.00000007,-0.00000009,-0.00000004,-0.000
 00045,0.00000025,0.00000037,-0.00000041,0.00000072,0.00000071,-0.00000
 022,0.00000044,-0.00000027,0.00000010,-0.00000007,0.00000002,-0.000000
 07,-0.00000056,-0.00000027,0.00002954,-0.00012179,0.00000616,-0.000123
 14,0.00015555,0.00020643,-0.00024478,0.00009051,0.00021936,-0.00022180
 ,0.00064932,0.00015348,-0.00011315,0.00016460,-0.00015936,0.00001976,0
 .00018010,-0.00040848,-0.00266122,0.00044343,0.00010372,-0.00066903,0.
 00045125,-0.00238303,0.00055019,0.00067508,0.00060928,-0.00005462,-0.0
 1808057,0.01573479,0.00362454,0.19791045,-0.00002541,-0.00000760,0.000
 00753,-0.00000485,0.00000779,-0.00000675,-0.00001807,-0.00000102,0.000
 00698,0.00003017,0.00001161,-0.00002013,-0.00008249,-0.00004314,0.0000
 1034,0.00003216,0.00001238,-0.00000680,-0.00000225,-0.00002598,0.00002
 172,0.00001670,0.00000795,-0.00000894,-0.00000099,0.00000048,-0.000002
 70,0.00000700,-0.00000724,0.00000443,0.00022012,-0.00004470,-0.0000719
 6,0.00001531,-0.00000244,0.00000292,-0.00000360,0.00000474,-0.00000061
 ,-0.00000030,-0.00000121,-0.00000096,0.00000020,0.00000078,-0.00000009
 ,-0.00000001,-0.00000023,0.00000004,-0.00000069,0.00000053,-0.00000054
 ,0.00000151,-0.00000101,-0.00000019,-0.00010798,-0.00015999,-0.0000201
 4,0.00016428,0.00135197,0.00109077,-0.00029610,0.00023127,-0.00008302,
 0.00026722,0.00301594,-0.00278952,-0.00131664,0.02122375,-0.02169734,0
 .00261474,0.12093684,-0.15829185,0.00000540,0.00001009,-0.00001681,-0.
 00000223,0.00000045,-0.00000122,0.00000008,-0.00000057,0.00000005,0.00
 000004,-0.00000004,0.00000014,0.00000004,0.00000017,0.00000015,0.00000
 033,-0.00000015,-0.00000019,0.,-0.00000029,0.00000013,-0.00000006,-0.0
 0000004,0.00000009,0.00000023,-0.00000015,-0.00000018,0.00000022,-0.00
 000029,-0.00000032,0.00000016,-0.00000034,0.00000018,-0.00000013,-0.00
 000006,0.00000016,-0.00000002,0.00000042,0.00000003,-0.00009104,0.0000
 0998,0.00009942,-0.00015302,-0.00028962,0.00037406,0.00038068,-0.00079
 641,0.00006122,0.00030144,-0.00028651,-0.00006789,0.00006557,-0.000197
 42,0.00010469,0.00035815,-0.00026712,0.00072415,0.00064218,0.00018459,
 0.00100318,-0.00224009,-0.00233191,-0.00460875,-0.00003660,-0.00019220
 ,0.00134894,-0.00081270,-0.00809973,0.00815284,0.00007137,-0.13425432,
 0.17468273\\0.00000689,-0.00000753,-0.00001433,-0.00000332,0.00000504,
 0.00000086,0.00000647,0.00000357,0.00000011,-0.00001352,-0.00000498,-0
 .00000791,0.00000479,-0.00000142,0.00000626,-0.00000339,0.00000185,0.0
 0000500,0.00000365,0.00000626,0.00000355,-0.00000284,0.00000104,0.0000
 0545,0.00000261,0.00000183,-0.00000006,0.00000105,-0.00000088,-0.00000
 401,0.00000069,-0.00000410,0.00000164,0.00000079,0.00000217,0.00000129
 ,-0.00000090,-0.00000139,-0.00000371,0.00000138,-0.00000041,-0.0000037
 1,-0.00000298,-0.00000023,-0.00000348,-0.00000219,0.00000002,-0.000004
 46,-0.00000172,0.00000006,-0.00000328,-0.00000297,0.00000196,-0.000001
 79,-0.00000099,0.00000262,0.00000428,-0.00000101,0.00000021,0.00000415
 ,0.00000279,-0.00000195,0.00000150,0.00000169,-0.00000021,0.00000321,0
 .00000301,0.00000016,0.00000342,0.00000220,-0.00000003,0.00000441,0.00
 000059,0.00000157,0.00000033,-0.00000127,-0.00000291,-0.00000181,-0.00
 000240,-0.00000135,-0.00000144,-0.00000212,-0.00000011,-0.00000302,-0.
 00000081,-0.00000113,-0.00000338,-0.00000114,-0.00000017,-0.00000459,-
 0.00000124,-0.00000068,-0.00000441,-0.00000300,-0.00000012,-0.00000323
 ,-0.00000273,-0.00000081,-0.00000448,-0.00000338,0.00000008,-0.0000032
 1,-0.00000195,-0.00000025,-0.00000311,-0.00000208,-0.00000026,-0.00000
 166,-0.00000147,0.00000033,-0.00000122,0.00000108,-0.00000068,0.000004
 16,0.00000087,0.00000113,0.00000343,0.00000190,-0.00000008,0.00000304,
 0.00000215,0.00000014,0.00000182,0.00000137,-0.00000032,0.00000132,0.0
 0000338,-0.00000007,0.00000322,0.00000198,0.00000022,0.00000311,0.0000
 0126,0.00000070,0.00000441,0.00000111,0.00000018,0.00000461,0.00000272
 ,0.00000082,0.00000449,0.00000298,0.00000010,0.00000322\\\@


 FRICTION IS A DRAG,
 AND ENTROPY AIN'T WHAT IT USED TO BE.
 Job cpu time:       2 days  1 hours 13 minutes 49.7 seconds.
 Elapsed time:       0 days  6 hours 42 minutes 50.6 seconds.
 File lengths (MBytes):  RWF=   5280 Int=      0 D2E=      0 Chk=     87 Scr=      1
 Normal termination of Gaussian 16 at Sun Feb 11 00:54:08 2024.
