 Entering Gaussian System, Link 0=g16
 Input=155-an-PCM.com
 Output=155-an-PCM.log
 Initial command:
 /sysapps/ubuntu-applications/gaussian/Gaussian/AVX2/g16/l1.exe "/scratch/selhajj1/4286655/Gau-78911.inp" -scrdir="/scratch/selhajj1/4286655/"
 Entering Link 1 = /sysapps/ubuntu-applications/gaussian/Gaussian/AVX2/g16/l1.exe PID=     78913.
  
 Copyright (c) 1988,1990,1992,1993,1995,1998,2003,2009,2016,
            Gaussian, Inc.  All Rights Reserved.
  
 This is part of the Gaussian(R) 16 program.  It is based on
 the Gaussian(R) 09 system (copyright 2009, Gaussian, Inc.),
 the Gaussian(R) 03 system (copyright 2003, Gaussian, Inc.),
 the Gaussian(R) 98 system (copyright 1998, Gaussian, Inc.),
 the Gaussian(R) 94 system (copyright 1995, Gaussian, Inc.),
 the Gaussian 92(TM) system (copyright 1992, Gaussian, Inc.),
 the Gaussian 90(TM) system (copyright 1990, Gaussian, Inc.),
 the Gaussian 88(TM) system (copyright 1988, Gaussian, Inc.),
 the Gaussian 86(TM) system (copyright 1986, Carnegie Mellon
 University), and the Gaussian 82(TM) system (copyright 1983,
 Carnegie Mellon University). Gaussian is a federally registered
 trademark of Gaussian, Inc.
  
 This software contains proprietary and confidential information,
 including trade secrets, belonging to Gaussian, Inc.
  
 This software is provided under written license and may be
 used, copied, transmitted, or stored only in accord with that
 written license.
  
 The following legend is applicable only to US Government
 contracts under FAR:
  
                    RESTRICTED RIGHTS LEGEND
  
 Use, reproduction and disclosure by the US Government is
 subject to restrictions as set forth in subparagraphs (a)
 and (c) of the Commercial Computer Software - Restricted
 Rights clause in FAR 52.227-19.
  
 Gaussian, Inc.
 340 Quinnipiac St., Bldg. 40, Wallingford CT 06492
  
  
 ---------------------------------------------------------------
 Warning -- This program may not be used in any manner that
 competes with the business of Gaussian, Inc. or will provide
 assistance to any competitor of Gaussian, Inc.  The licensee
 of this program is prohibited from giving any competitor of
 Gaussian, Inc. access to this program.  By using this program,
 the user acknowledges that Gaussian, Inc. is engaged in the
 business of creating and licensing software in the field of
 computational chemistry and represents and warrants to the
 licensee that it is not a competitor of Gaussian, Inc. and that
 it will not use this program in any manner prohibited above.
 ---------------------------------------------------------------
  

 Cite this work as:
 Gaussian 16, Revision A.03,
 M. J. Frisch, G. W. Trucks, H. B. Schlegel, G. E. Scuseria, 
 M. A. Robb, J. R. Cheeseman, G. Scalmani, V. Barone, 
 G. A. Petersson, H. Nakatsuji, X. Li, M. Caricato, A. V. Marenich, 
 J. Bloino, B. G. Janesko, R. Gomperts, B. Mennucci, H. P. Hratchian, 
 J. V. Ortiz, A. F. Izmaylov, J. L. Sonnenberg, D. Williams-Young, 
 F. Ding, F. Lipparini, F. Egidi, J. Goings, B. Peng, A. Petrone, 
 T. Henderson, D. Ranasinghe, V. G. Zakrzewski, J. Gao, N. Rega, 
 G. Zheng, W. Liang, M. Hada, M. Ehara, K. Toyota, R. Fukuda, 
 J. Hasegawa, M. Ishida, T. Nakajima, Y. Honda, O. Kitao, H. Nakai, 
 T. Vreven, K. Throssell, J. A. Montgomery, Jr., J. E. Peralta, 
 F. Ogliaro, M. J. Bearpark, J. J. Heyd, E. N. Brothers, K. N. Kudin, 
 V. N. Staroverov, T. A. Keith, R. Kobayashi, J. Normand, 
 K. Raghavachari, A. P. Rendell, J. C. Burant, S. S. Iyengar, 
 J. Tomasi, M. Cossi, J. M. Millam, M. Klene, C. Adamo, R. Cammi, 
 J. W. Ochterski, R. L. Martin, K. Morokuma, O. Farkas, 
 J. B. Foresman, and D. J. Fox, Gaussian, Inc., Wallingford CT, 2016.
 
 ******************************************
 Gaussian 16:  ES64L-G16RevA.03 25-Dec-2016
                14-Jan-2024 
 ******************************************
 %chk=155-an-PCM.chk
 %nproc=8
 Will use up to    8 processors via shared memory.
 %mem=30GB
 ----------------------------------------------------------------
 #P UB3LYP/6-311++G(d,p) SCRF=(PCM,Solvent=n,n-DiMethylFormamide)
 ----------------------------------------------------------------
 1/38=1,172=1/1;
 2/12=2,17=6,18=5,40=1/2;
 3/5=4,6=6,7=1111,11=2,25=1,30=1,70=2201,72=148,74=-5,116=2/1,2,3;
 4//1;
 5/5=2,38=5,53=148/2;
 6/7=2,8=2,9=2,10=2,28=1/1;
 99/5=1,9=1/99;
 Leave Link    1 at Sun Jan 14 01:24:42 2024, MaxMem=  4026531840 cpu:               0.8 elap:               0.2
 (Enter /sysapps/ubuntu-applications/gaussian/Gaussian/AVX2/g16/l101.exe)
 -------
 Reduced
 -------
 Symbolic Z-matrix:
 Charge = -2 Multiplicity = 1
 C                    -2.23473   3.23777   4.0998 
 C                    -3.45826   2.68628   4.37565 
 C                    -3.89268   1.5323    3.67153 
 C                    -3.08487   0.96944   2.69281 
 C                    -1.7971    1.51723   2.35572 
 C                    -1.3745    2.68693   3.11016 
 C                    -0.11087   3.35098   2.9045 
 C                    -0.93306   0.94691   1.33137 
 C                     0.73732   2.81443   1.86717 
 C                     0.34581   1.63734   1.13255 
 C                     2.01891   3.40542   1.56181 
 C                     2.86351   2.81671   0.62821 
 C                     2.47168   1.64479  -0.0617 
 C                     1.23683   1.08345   0.17909 
 O                     0.2234    4.37893   3.634 
 O                    -1.21362  -0.08093   0.63933 
 N                     2.38715   4.60818   2.18752 
 O                    -3.49738  -0.14511   2.00097 
 C                    -4.74892  -0.70863   2.30058 
 H                    -1.87062   4.11609   4.61967 
 H                    -4.1061    3.11961   5.1354 
 H                    -4.86313   1.11019   3.89754 
 H                     3.81784   3.29413   0.40916 
 H                     3.14678   1.19961  -0.79089 
 H                     0.89866   0.19362  -0.33918 
 H                     1.7363    4.79236   2.97422 
 H                     3.37241   4.65944   2.40929 
 H                    -4.8432   -1.59141   1.66318 
 H                    -5.58413  -0.0246    2.0838 
 H                    -4.83276  -1.02461   3.35199 
 
 ITRead=  0  0  0  0  0  0  0  0  0  0  0  0  0  0  0  0  0  0  0  0
 ITRead=  0  0  0  0  0  0  0  0  0  0
 MicOpt= -1 -1 -1 -1 -1 -1 -1 -1 -1 -1 -1 -1 -1 -1 -1 -1 -1 -1 -1 -1
 MicOpt= -1 -1 -1 -1 -1 -1 -1 -1 -1 -1
 NAtoms=     30 NQM=       30 NQMF=       0 NMMI=      0 NMMIF=      0
                NMic=       0 NMicF=      0.
                    Isotopes and Nuclear Properties:
 (Nuclear quadrupole moments (NQMom) in fm**2, nuclear magnetic moments (NMagM)
  in nuclear magnetons)

  Atom         1           2           3           4           5           6           7           8           9          10
 IAtWgt=          12          12          12          12          12          12          12          12          12          12
 AtmWgt=  12.0000000  12.0000000  12.0000000  12.0000000  12.0000000  12.0000000  12.0000000  12.0000000  12.0000000  12.0000000
 NucSpn=           0           0           0           0           0           0           0           0           0           0
 AtZEff=  -0.0000000  -0.0000000  -0.0000000  -0.0000000  -0.0000000  -0.0000000  -0.0000000  -0.0000000  -0.0000000  -0.0000000
 NQMom=    0.0000000   0.0000000   0.0000000   0.0000000   0.0000000   0.0000000   0.0000000   0.0000000   0.0000000   0.0000000
 NMagM=    0.0000000   0.0000000   0.0000000   0.0000000   0.0000000   0.0000000   0.0000000   0.0000000   0.0000000   0.0000000
 AtZNuc=   6.0000000   6.0000000   6.0000000   6.0000000   6.0000000   6.0000000   6.0000000   6.0000000   6.0000000   6.0000000

  Atom        11          12          13          14          15          16          17          18          19          20
 IAtWgt=          12          12          12          12          16          16          14          16          12           1
 AtmWgt=  12.0000000  12.0000000  12.0000000  12.0000000  15.9949146  15.9949146  14.0030740  15.9949146  12.0000000   1.0078250
 NucSpn=           0           0           0           0           0           0           2           0           0           1
 AtZEff=  -0.0000000  -0.0000000  -0.0000000  -0.0000000  -0.0000000  -0.0000000  -0.0000000  -0.0000000  -0.0000000  -0.0000000
 NQMom=    0.0000000   0.0000000   0.0000000   0.0000000   0.0000000   0.0000000   2.0440000   0.0000000   0.0000000   0.0000000
 NMagM=    0.0000000   0.0000000   0.0000000   0.0000000   0.0000000   0.0000000   0.4037610   0.0000000   0.0000000   2.7928460
 AtZNuc=   6.0000000   6.0000000   6.0000000   6.0000000   8.0000000   8.0000000   7.0000000   8.0000000   6.0000000   1.0000000

  Atom        21          22          23          24          25          26          27          28          29          30
 IAtWgt=           1           1           1           1           1           1           1           1           1           1
 AtmWgt=   1.0078250   1.0078250   1.0078250   1.0078250   1.0078250   1.0078250   1.0078250   1.0078250   1.0078250   1.0078250
 NucSpn=           1           1           1           1           1           1           1           1           1           1
 AtZEff=  -0.0000000  -0.0000000  -0.0000000  -0.0000000  -0.0000000  -0.0000000  -0.0000000  -0.0000000  -0.0000000  -0.0000000
 NQMom=    0.0000000   0.0000000   0.0000000   0.0000000   0.0000000   0.0000000   0.0000000   0.0000000   0.0000000   0.0000000
 NMagM=    2.7928460   2.7928460   2.7928460   2.7928460   2.7928460   2.7928460   2.7928460   2.7928460   2.7928460   2.7928460
 AtZNuc=   1.0000000   1.0000000   1.0000000   1.0000000   1.0000000   1.0000000   1.0000000   1.0000000   1.0000000   1.0000000
 Leave Link  101 at Sun Jan 14 01:24:42 2024, MaxMem=  4026531840 cpu:               1.7 elap:               0.2
 (Enter /sysapps/ubuntu-applications/gaussian/Gaussian/AVX2/g16/l202.exe)
                          Input orientation:                          
 ---------------------------------------------------------------------
 Center     Atomic      Atomic             Coordinates (Angstroms)
 Number     Number       Type             X           Y           Z
 ---------------------------------------------------------------------
      1          6           0       -2.234727    3.237773    4.099805
      2          6           0       -3.458255    2.686276    4.375649
      3          6           0       -3.892680    1.532297    3.671534
      4          6           0       -3.084865    0.969440    2.692806
      5          6           0       -1.797095    1.517230    2.355723
      6          6           0       -1.374500    2.686928    3.110159
      7          6           0       -0.110866    3.350977    2.904502
      8          6           0       -0.933059    0.946913    1.331370
      9          6           0        0.737322    2.814431    1.867169
     10          6           0        0.345813    1.637337    1.132549
     11          6           0        2.018912    3.405415    1.561806
     12          6           0        2.863510    2.816713    0.628208
     13          6           0        2.471678    1.644785   -0.061695
     14          6           0        1.236826    1.083451    0.179086
     15          8           0        0.223402    4.378929    3.633998
     16          8           0       -1.213618   -0.080932    0.639326
     17          7           0        2.387150    4.608178    2.187522
     18          8           0       -3.497375   -0.145114    2.000970
     19          6           0       -4.748922   -0.708628    2.300577
     20          1           0       -1.870617    4.116088    4.619670
     21          1           0       -4.106103    3.119609    5.135401
     22          1           0       -4.863134    1.110188    3.897536
     23          1           0        3.817839    3.294132    0.409159
     24          1           0        3.146785    1.199608   -0.790894
     25          1           0        0.898657    0.193623   -0.339180
     26          1           0        1.736299    4.792357    2.974219
     27          1           0        3.372412    4.659439    2.409289
     28          1           0       -4.843198   -1.591409    1.663179
     29          1           0       -5.584134   -0.024595    2.083803
     30          1           0       -4.832759   -1.024609    3.351992
 ---------------------------------------------------------------------
                    Distance matrix (angstroms):
                    1          2          3          4          5
     1  C    0.000000
     2  C    1.370131   0.000000
     3  C    2.416790   1.419919   0.000000
     4  C    2.801377   2.432880   1.388266   0.000000
     5  C    2.488697   2.864650   2.474482   1.439462   0.000000
     6  C    1.422259   2.437930   2.826578   2.459532   1.454632
     7  C    2.439744   3.716331   4.265918   3.815915   2.550913
     8  C    3.821860   4.320837   3.818167   2.546426   1.456406
     9  C    3.741251   4.889965   5.131912   4.323746   2.888717
    10  C    4.245608   5.107730   4.941892   3.827537   2.470351
    11  C    4.956106   6.199535   6.550301   5.767294   4.330988
    12  C    6.182338   7.350173   7.520483   6.561871   5.137529
    13  C    6.481199   7.479227   7.379343   6.238472   4.907403
    14  C    5.662581   6.497998   6.221775   5.000880   3.759068
    15  O    2.749838   4.119432   5.004683   4.843045   3.729037
    16  O    4.902181   5.162940   4.355935   2.970122   2.416730
    17  N    5.186192   6.530725   7.148398   6.590802   5.204821
    18  O    4.176519   3.695592   2.400158   1.375148   2.404202
    19  C    5.013230   4.182956   2.763045   2.395588   3.697400
    20  H    1.083639   2.150466   3.415213   3.884404   3.447452
    21  H    2.142071   1.088443   2.169796   3.410634   3.952941
    22  H    3.387633   2.164793   1.082143   2.152539   3.455932
    23  H    7.089259   8.309276   8.555656   7.633254   6.202739
    24  H    7.552068   8.516449   8.341344   7.143011   5.868904
    25  H    6.228124   6.886626   6.390210   5.065894   4.035036
    26  H    4.410524   5.777800   6.542144   6.159343   4.857352
    27  H    6.026524   7.376853   8.009609   7.442641   6.049806
    28  H    6.005187   5.251109   3.833342   3.272585   4.407039
    29  H    5.091742   4.137722   2.793890   2.757777   4.097905
    30  H    5.047464   4.087518   2.742923   2.732378   4.082738
                    6          7          8          9         10
     6  C    0.000000
     7  C    1.442230   0.000000
     8  C    2.527175   2.988356   0.000000
     9  C    2.453788   1.443386   2.562202   0.000000
    10  C    2.823484   2.506977   1.466877   1.441699   0.000000
    11  C    3.798535   2.518283   3.848567   1.443947   2.471765
    12  C    4.913009   3.783367   4.290050   2.460834   2.825612
    13  C    5.093113   4.287068   3.744314   2.845449   2.438355
    14  C    4.240442   3.792867   2.460651   2.468890   1.417669
    15  O    2.385491   1.304065   4.291647   2.415254   3.713295
    16  O    3.713751   4.257356   1.270474   3.700931   2.372244
    17  N    4.323479   2.886988   5.016138   2.458066   3.755785
    18  O    3.709092   4.950502   2.866462   5.168120   4.324509
    19  C    4.855095   6.193277   4.270947   6.534421   5.729238
    20  H    2.137113   2.573698   4.662146   4.008980   4.818380
    21  H    3.427896   4.581742   5.409202   5.850918   6.167618
    22  H    3.908534   5.347084   4.696526   6.196123   5.920825
    23  H    5.884257   4.654534   5.378749   3.441728   3.914489
    24  H    6.154052   5.375559   4.605756   3.934268   3.425884
    25  H    4.825117   4.637833   2.591017   3.429670   2.134463
    26  H    3.758774   2.344025   4.961035   2.477036   3.908881
    27  H    5.187985   3.753736   5.786349   3.262154   4.463571
    28  H    5.694715   6.954353   4.673581   7.113033   6.134509
    29  H    5.111436   6.482646   4.810663   6.933095   6.231466
    30  H    5.078735   6.453082   4.814299   6.925946   6.231331
                   11         12         13         14         15
    11  C    0.000000
    12  C    1.389792   0.000000
    13  C    2.437329   1.415243   0.000000
    14  C    2.813377   2.419093   1.377654   0.000000
    15  O    2.909564   4.294818   5.117464   4.880945   0.000000
    16  O    4.843019   5.001944   4.129278   2.751778   5.560885
    17  N    1.404905   2.422339   3.721266   4.216724   2.612787
    18  O    6.574842   7.149668   6.564139   5.219319   6.080948
    19  C    7.954540   8.554178   7.953361   6.598595   7.237766
    20  H    4.998402   6.327093   6.846754   6.210626   2.329281
    21  H    7.097047   8.305543   8.511881   7.566894   4.752337
    22  H    7.621434   8.561645   8.352291   7.144025   6.052022
    23  H    2.139420   1.089337   2.180412   3.406123   4.949379
    24  H    3.416560   2.170052   1.088891   2.145296   6.183358
    25  H    3.896707   3.417175   2.158070   1.083860   5.810241
    26  H    1.999597   3.267651   4.434497   4.670998   1.701496
    27  H    2.030460   2.612828   4.000653   4.724640   3.390407
    28  H    8.489233   8.938459   8.182637   6.806181   8.074621
    29  H    8.357258   9.030752   8.502123   7.168069   7.451282
    30  H    8.353160   9.022600   8.493157   7.165969   7.405573
                   16         17         18         19         20
    16  O    0.000000
    17  N    6.111480   0.000000
    18  O    2.659650   7.566784   0.000000
    19  C    3.956277   8.899704   1.404878   0.000000
    20  H    5.821491   4.928091   5.259446   6.077888   0.000000
    21  H    6.230941   7.284790   4.566577   4.806750   2.501269
    22  H    5.035242   8.229623   2.652931   2.423100   4.302566
    23  H    6.062969   2.633660   8.238606   9.643078   7.124784
    24  H    4.764287   4.589810   7.331278   8.691418   7.934380
    25  H    2.344048   5.299824   4.991607   6.299010   6.902522
    26  H    6.156515   1.037507   7.260660   8.530693   4.021777
    27  H    6.829023   1.011212   8.393118   9.735709   5.715800
    28  H    4.062471   9.538750   2.004273   1.092916   7.081850
    29  H    4.603379   9.220342   2.091877   1.101123   6.112781
    30  H    4.620310   9.231000   2.093328   1.101066   6.066965
                   21         22         23         24         25
    21  H    0.000000
    22  H    2.478544   0.000000
    23  H    9.228038   9.607168   0.000000
    24  H    9.560950   9.281604   2.505488   0.000000
    25  H    7.973710   7.210277   4.323747   2.504023   0.000000
    26  H    6.449996   7.613370   3.627261   5.391975   5.729626
    27  H    8.107463   9.090450   2.462314   4.718316   5.798022
    28  H    5.898587   3.505906  10.022706   8.812042   6.337561
    29  H    4.624159   2.257698  10.110167   9.273160   6.924236
    30  H    4.569805   2.203610  10.106663   9.261953   6.925169
                   26         27         28         29         30
    26  H    0.000000
    27  H    1.735995   0.000000
    28  H    9.260728  10.350170   0.000000
    29  H    8.808212  10.112657   1.783484   0.000000
    30  H    8.782501  10.026062   1.781421   1.781262   0.000000
 Stoichiometry    C15H11NO3(2-)
 Framework group  C1[X(C15H11NO3)]
 Deg. of freedom    84
 Full point group                 C1      NOp   1
 Largest Abelian subgroup         C1      NOp   1
 Largest concise Abelian subgroup C1      NOp   1
                         Standard orientation:                         
 ---------------------------------------------------------------------
 Center     Atomic      Atomic             Coordinates (Angstroms)
 Number     Number       Type             X           Y           Z
 ---------------------------------------------------------------------
      1          6           0        1.305911    2.395236   -0.010593
      2          6           0        2.674267    2.325859   -0.003661
      3          6           0        3.321799    1.062185   -0.004255
      4          6           0        2.569835   -0.104771    0.002524
      5          6           0        1.130493   -0.087197    0.008572
      6          6           0        0.499835    1.223460   -0.011503
      7          6           0       -0.929282    1.417380   -0.018463
      8          6           0        0.319873   -1.297118    0.018732
      9          6           0       -1.741254    0.224908    0.027107
     10          6           0       -1.131028   -1.081230    0.015944
     11          6           0       -3.183398    0.296038    0.038989
     12          6           0       -3.948032   -0.863191   -0.016179
     13          6           0       -3.328711   -2.135132   -0.055167
     14          6           0       -1.954955   -2.234167   -0.024875
     15          8           0       -1.434261    2.618747   -0.066396
     16          8           0        0.785560   -2.479166    0.017980
     17          7           0       -3.808301    1.549368    0.150434
     18          8           0        3.186072   -1.334106    0.007105
     19          6           0        4.589718   -1.392760    0.002467
     20          1           0        0.779172    3.342238   -0.013231
     21          1           0        3.277966    3.231537   -0.002198
     22          1           0        4.403197    1.023149    0.005176
     23          1           0       -5.033712   -0.777526    0.008667
     24          1           0       -3.945191   -3.031762   -0.096273
     25          1           0       -1.446874   -3.191425   -0.041071
     26          1           0       -3.103438    2.293417   -0.010752
     27          1           0       -4.658761    1.622921   -0.391652
     28          1           0        4.847663   -2.454284   -0.030661
     29          1           0        5.035103   -0.948220    0.906065
     30          1           0        5.033593   -0.896426   -0.874444
 ---------------------------------------------------------------------
 Rotational constants (GHZ):           0.7185502           0.2919735           0.2079963
 Leave Link  202 at Sun Jan 14 01:24:43 2024, MaxMem=  4026531840 cpu:               0.4 elap:               0.1
 (Enter /sysapps/ubuntu-applications/gaussian/Gaussian/AVX2/g16/l301.exe)
 Standard basis: 6-311++G(d,p) (5D, 7F)
 Ernie: Thresh=  0.10000D-02 Tol=  0.10000D-05 Strict=F.
 There are   514 symmetry adapted cartesian basis functions of A   symmetry.
 There are   495 symmetry adapted basis functions of A   symmetry.
   495 basis functions,   783 primitive gaussians,   514 cartesian basis functions
    67 alpha electrons       67 beta electrons
       nuclear repulsion energy      1349.6349907638 Hartrees.
 IExCor=  402 DFT=T Ex+Corr=B3LYP ExCW=0 ScaHFX=  0.200000
 ScaDFX=  0.800000  0.720000  1.000000  0.810000 ScalE2=  1.000000  1.000000
 IRadAn=      5 IRanWt=     -1 IRanGd=            0 ICorTp=0 IEmpDi=  4
 NAtoms=   30 NActive=   30 NUniq=   30 SFac= 1.00D+00 NAtFMM=   60 NAOKFM=F Big=F
 Integral buffers will be    131072 words long.
 Raffenetti 2 integral format.
 Two-electron integral symmetry is turned on.
 ------------------------------------------------------------------------------
 Polarizable Continuum Model (PCM)
 =================================
 Model                : PCM.
 Atomic radii         : UFF (Universal Force Field).
 Polarization charges : Total charges.
 Charge compensation  : None.
 Solution method      : On-the-fly selection.
 Cavity type          : Scaled VdW (van der Waals Surface) (Alpha=1.100).
 Cavity algorithm     : GePol (No added spheres)
                        Default sphere list used, NSphG=   30.
                        Lebedev-Laikov grids with approx.  5.0 points / Ang**2.
                        Smoothing algorithm: York/Karplus (Gamma=1.0000).
                        Polarization charges: spherical gaussians, with
                                              point-specific exponents (IZeta= 3).
                        Self-potential: point-specific (ISelfS= 7).
                        Self-field    : sphere-specific E.n sum rule (ISelfD= 2).
 Solvent              : n,n-DiMethylFormamide, Eps=  37.219000 Eps(inf)=   2.046330
 ------------------------------------------------------------------------------
 GePol: Number of generator spheres                  =      30
 GePol: Total number of spheres                      =      30
 GePol: Number of exposed spheres                    =      30 (100.00%)
 GePol: Number of points                             =    2337
 GePol: Average weight of points                     =       0.13
 GePol: Minimum weight of points                     =   0.18D-09
 GePol: Maximum weight of points                     =    0.20577
 GePol: Number of points with low weight             =     129
 GePol: Fraction of low-weight points (<1% of avg)   =       5.52%
 GePol: Cavity surface area                          =    298.886 Ang**2
 GePol: Cavity volume                                =    329.886 Ang**3
 Leave Link  301 at Sun Jan 14 01:24:43 2024, MaxMem=  4026531840 cpu:               1.0 elap:               0.2
 (Enter /sysapps/ubuntu-applications/gaussian/Gaussian/AVX2/g16/l302.exe)
 NPDir=0 NMtPBC=     1 NCelOv=     1 NCel=       1 NClECP=     1 NCelD=      1
         NCelK=      1 NCelE2=     1 NClLst=     1 CellRange=     0.0.
 One-electron integrals computed using PRISM.
 One-electron integral symmetry used in STVInt
 NBasis=   495 RedAO= T EigKep=  1.19D-06  NBF=   495
 NBsUse=   487 1.00D-06 EigRej=  9.48D-07 NBFU=   487
 Precomputing XC quadrature grid using
 IXCGrd= 4 IRadAn=           5 IRanWt=          -1 IRanGd=           0 AccXCQ= 0.00D+00.
 Generated NRdTot=       0 NPtTot=           0 NUsed=           0 NTot=          32
 NSgBfM=   513   513   513   513   513 MxSgAt=    30 MxSgA2=    30.
 Leave Link  302 at Sun Jan 14 01:24:47 2024, MaxMem=  4026531840 cpu:              24.2 elap:               4.1
 (Enter /sysapps/ubuntu-applications/gaussian/Gaussian/AVX2/g16/l303.exe)
 DipDrv:  MaxL=1.
 Leave Link  303 at Sun Jan 14 01:24:47 2024, MaxMem=  4026531840 cpu:               1.5 elap:               0.3
 (Enter /sysapps/ubuntu-applications/gaussian/Gaussian/AVX2/g16/l401.exe)
 ExpMin= 3.60D-02 ExpMax= 8.59D+03 ExpMxC= 1.30D+03 IAcc=3 IRadAn=         5 AccDes= 0.00D+00
 Harris functional with IExCor=  402 and IRadAn=       5 diagonalized for initial guess.
 HarFok:  IExCor=  402 AccDes= 0.00D+00 IRadAn=         5 IDoV= 1 UseB2=F ITyADJ=14
 ICtDFT=  3500011 ScaDFX=  1.000000  1.000000  1.000000  1.000000
 FoFCou: FMM=F IPFlag=           0 FMFlag=      100000 FMFlg1=           0
         NFxFlg=           0 DoJE=T BraDBF=F KetDBF=T FulRan=T
         wScrn=  0.000000 ICntrl=       500 IOpCl=  0 I1Cent=   200000004 NGrid=           0
         NMat0=    1 NMatS0=      1 NMatT0=    0 NMatD0=    1 NMtDS0=    0 NMtDT0=    0
 Petite list used in FoFCou.
 Harris En= -859.338522527743    
 JPrj=0 DoOrth=F DoCkMO=F.
 Initial guess <Sx>= 0.0000 <Sy>= 0.0000 <Sz>= 0.0000 <S**2>=-0.0000 S=-0.0000
 Leave Link  401 at Sun Jan 14 01:24:50 2024, MaxMem=  4026531840 cpu:              16.9 elap:               2.5
 (Enter /sysapps/ubuntu-applications/gaussian/Gaussian/AVX2/g16/l502.exe)
 Integral symmetry usage will be decided dynamically.
 UHF open shell SCF:
 Using DIIS extrapolation, IDIIS=  1040.
 NGot=  4026531840 LenX=  4025994486 LenY=  4025729776
 Requested convergence on RMS density matrix=1.00D-08 within 128 cycles.
 Requested convergence on MAX density matrix=1.00D-06.
 Requested convergence on             energy=1.00D-06.
 No special actions if energy rises.
 Fock matrices will be formed incrementally for  20 cycles.

 Cycle   1  Pass 1  IDiag  1:
 FoFJK:  IHMeth= 1 ICntrl=       0 DoSepK=F KAlg= 0 I1Cent=           0 FoldK=F
 IRaf= 840000000 NMat=       1 IRICut=       1 DoRegI=T DoRafI=F ISym2E= 0 IDoP0=0 IntGTp=1.
 FoFCou: FMM=F IPFlag=           0 FMFlag=      100000 FMFlg1=           0
         NFxFlg=           0 DoJE=F BraDBF=F KetDBF=F FulRan=T
         wScrn=  0.000000 ICntrl=         0 IOpCl=  1 I1Cent=           0 NGrid=           0
         NMat0=    1 NMatS0=      1 NMatT0=    0 NMatD0=    1 NMtDS0=    0 NMtDT0=    0
 Symmetry not used in FoFCou.
 Inv3:  Mode=1 IEnd=    16384707.
 Iteration    1 A*A^-1 deviation from unit magnitude is 2.89D-15 for    242.
 Iteration    1 A*A^-1 deviation from orthogonality  is 2.74D-15 for   1110    626.
 Iteration    1 A^-1*A deviation from unit magnitude is 2.89D-15 for    546.
 Iteration    1 A^-1*A deviation from orthogonality  is 2.91D-14 for   1138   1110.
 E= -858.520378403760    
 DIIS: error= 3.32D-02 at cycle   1 NSaved=   1.
 NSaved= 1 IEnMin= 1 EnMin= -858.520378403760     IErMin= 1 ErrMin= 3.32D-02
 ErrMax= 3.32D-02  0.00D+00 EMaxC= 1.00D-01 BMatC= 2.70D+00 BMatP= 2.70D+00
 IDIUse=3 WtCom= 6.68D-01 WtEn= 3.32D-01
 Coeff-Com:  0.100D+01
 Coeff-En:   0.100D+01
 Coeff:      0.100D+01
 Gap=     0.069 Goal=   None    Shift=    0.000
 Gap=     0.069 Goal=   None    Shift=    0.000
 GapD=    0.069 DampG=0.500 DampE=0.500 DampFc=0.2500 IDamp=-1.
 Damping current iteration by 2.50D-01
 RMSDP=3.92D-01 MaxDP=2.57D+01              OVMax= 9.96D-01

 Cycle   2  Pass 1  IDiag  1:
 RMSU=  9.39D-02    CP:  1.49D+00
 E= -858.693749903929     Delta-E=       -0.173371500169 Rises=F Damp=T
 DIIS: error= 1.46D-02 at cycle   2 NSaved=   2.
 NSaved= 2 IEnMin= 2 EnMin= -858.693749903929     IErMin= 2 ErrMin= 1.46D-02
 ErrMax= 1.46D-02  0.00D+00 EMaxC= 1.00D-01 BMatC= 5.43D-01 BMatP= 2.70D+00
 IDIUse=3 WtCom= 8.54D-01 WtEn= 1.46D-01
 Coeff-Com: -0.528D+00 0.153D+01
 Coeff-En:   0.000D+00 0.100D+01
 Coeff:     -0.451D+00 0.145D+01
 Gap=     0.013 Goal=   None    Shift=    0.000
 Gap=     0.013 Goal=   None    Shift=    0.000
 RMSDP=1.01D-01 MaxDP=6.55D+00 DE=-1.73D-01 OVMax= 8.70D-01

 Cycle   3  Pass 1  IDiag  1:
 RMSU=  6.73D-03    CP:  8.74D-01 -1.92D-03
 E= -858.983794670271     Delta-E=       -0.290044766342 Rises=F Damp=F
 DIIS: error= 2.43D-02 at cycle   3 NSaved=   3.
 NSaved= 3 IEnMin= 3 EnMin= -858.983794670271     IErMin= 2 ErrMin= 1.46D-02
 ErrMax= 2.43D-02  0.00D+00 EMaxC= 1.00D-01 BMatC= 6.17D-01 BMatP= 5.43D-01
 IDIUse=2 WtCom= 0.00D+00 WtEn= 1.00D+00
 Coeff-En:   0.000D+00 0.000D+00 0.100D+01
 Coeff:      0.000D+00 0.000D+00 0.100D+01
 Gap=     0.075 Goal=   None    Shift=    0.000
 Gap=     0.075 Goal=   None    Shift=    0.000
 RMSDP=3.20D-02 MaxDP=2.14D+00 DE=-2.90D-01 OVMax= 4.19D-01

 Cycle   4  Pass 1  IDiag  1:
 RMSU=  3.10D-02    CP:  9.79D-01  5.15D-02  1.03D+00
 E= -858.370792089880     Delta-E=        0.613002580391 Rises=F Damp=F
 DIIS: error= 5.92D-02 at cycle   4 NSaved=   4.
 NSaved= 4 IEnMin= 3 EnMin= -858.983794670271     IErMin= 2 ErrMin= 1.46D-02
 ErrMax= 5.92D-02  0.00D+00 EMaxC= 1.00D-01 BMatC= 3.48D+00 BMatP= 5.43D-01
 IDIUse=2 WtCom= 0.00D+00 WtEn= 1.00D+00
 Coeff-En:   0.000D+00 0.000D+00 0.802D+00 0.198D+00
 Coeff:      0.000D+00 0.000D+00 0.802D+00 0.198D+00
 Gap=     0.068 Goal=   None    Shift=    0.000
 Gap=     0.068 Goal=   None    Shift=    0.000
 RMSDP=2.76D-02 MaxDP=1.88D+00 DE= 6.13D-01 OVMax= 2.42D-01

 Cycle   5  Pass 1  IDiag  1:
 RMSU=  4.46D-03    CP:  7.55D-01  1.23D-02  1.10D+00  2.39D-01
 E= -859.059368314578     Delta-E=       -0.688576224698 Rises=F Damp=F
 DIIS: error= 1.51D-02 at cycle   5 NSaved=   5.
 NSaved= 5 IEnMin= 5 EnMin= -859.059368314578     IErMin= 2 ErrMin= 1.46D-02
 ErrMax= 1.51D-02  0.00D+00 EMaxC= 1.00D-01 BMatC= 2.65D-01 BMatP= 5.43D-01
 IDIUse=3 WtCom= 8.49D-01 WtEn= 1.51D-01
 Coeff-Com: -0.553D-01 0.119D+00 0.353D+00-0.422D-01 0.626D+00
 Coeff-En:   0.000D+00 0.000D+00 0.334D+00 0.000D+00 0.666D+00
 Coeff:     -0.469D-01 0.101D+00 0.350D+00-0.358D-01 0.632D+00
 Gap=     0.090 Goal=   None    Shift=    0.000
 Gap=     0.090 Goal=   None    Shift=    0.000
 RMSDP=4.17D-03 MaxDP=2.14D-01 DE=-6.89D-01 OVMax= 7.58D-02

 Cycle   6  Pass 1  IDiag  1:
 RMSU=  1.14D-03    CP:  7.51D-01  5.84D-03  1.07D+00  1.16D-01  7.59D-01
 E= -859.111205567867     Delta-E=       -0.051837253289 Rises=F Damp=F
 DIIS: error= 2.65D-03 at cycle   6 NSaved=   6.
 NSaved= 6 IEnMin= 6 EnMin= -859.111205567867     IErMin= 6 ErrMin= 2.65D-03
 ErrMax= 2.65D-03  0.00D+00 EMaxC= 1.00D-01 BMatC= 7.74D-03 BMatP= 2.65D-01
 IDIUse=3 WtCom= 9.74D-01 WtEn= 2.65D-02
 Coeff-Com: -0.294D-01 0.555D-01 0.191D+00-0.467D-01 0.444D+00 0.386D+00
 Coeff-En:   0.000D+00 0.000D+00 0.000D+00 0.000D+00 0.000D+00 0.100D+01
 Coeff:     -0.286D-01 0.540D-01 0.186D+00-0.455D-01 0.432D+00 0.402D+00
 Gap=     0.086 Goal=   None    Shift=    0.000
 Gap=     0.086 Goal=   None    Shift=    0.000
 RMSDP=8.22D-04 MaxDP=7.11D-02 DE=-5.18D-02 OVMax= 2.80D-02

 Cycle   7  Pass 1  IDiag  1:
 RMSU=  3.34D-04    CP:  7.42D-01  5.80D-03  1.09D+00  1.17D-01  8.32D-01
                    CP:  6.58D-01
 E= -859.112909766842     Delta-E=       -0.001704198975 Rises=F Damp=F
 DIIS: error= 6.54D-04 at cycle   7 NSaved=   7.
 NSaved= 7 IEnMin= 7 EnMin= -859.112909766842     IErMin= 7 ErrMin= 6.54D-04
 ErrMax= 6.54D-04  0.00D+00 EMaxC= 1.00D-01 BMatC= 3.84D-04 BMatP= 7.74D-03
 IDIUse=3 WtCom= 9.93D-01 WtEn= 6.54D-03
 Coeff-Com: -0.408D-02 0.601D-02 0.487D-01-0.162D-01 0.128D+00 0.198D+00
 Coeff-Com:  0.640D+00
 Coeff-En:   0.000D+00 0.000D+00 0.000D+00 0.000D+00 0.000D+00 0.000D+00
 Coeff-En:   0.100D+01
 Coeff:     -0.405D-02 0.597D-02 0.484D-01-0.161D-01 0.127D+00 0.197D+00
 Coeff:      0.642D+00
 Gap=     0.087 Goal=   None    Shift=    0.000
 Gap=     0.087 Goal=   None    Shift=    0.000
 RMSDP=2.71D-04 MaxDP=1.66D-02 DE=-1.70D-03 OVMax= 7.24D-03

 Cycle   8  Pass 1  IDiag  1:
 RMSU=  1.42D-04    CP:  7.39D-01  5.63D-03  1.09D+00  1.16D-01  8.33D-01
                    CP:  7.70D-01  1.07D+00
 E= -859.112965242137     Delta-E=       -0.000055475295 Rises=F Damp=F
 DIIS: error= 3.21D-04 at cycle   8 NSaved=   8.
 NSaved= 8 IEnMin= 8 EnMin= -859.112965242137     IErMin= 8 ErrMin= 3.21D-04
 ErrMax= 3.21D-04  0.00D+00 EMaxC= 1.00D-01 BMatC= 1.14D-04 BMatP= 3.84D-04
 IDIUse=3 WtCom= 9.97D-01 WtEn= 3.21D-03
 Coeff-Com:  0.175D-02-0.310D-02 0.317D-02-0.116D-02 0.390D-02 0.516D-01
 Coeff-Com:  0.410D+00 0.534D+00
 Coeff-En:   0.000D+00 0.000D+00 0.000D+00 0.000D+00 0.000D+00 0.000D+00
 Coeff-En:   0.257D+00 0.743D+00
 Coeff:      0.174D-02-0.309D-02 0.316D-02-0.116D-02 0.389D-02 0.515D-01
 Coeff:      0.410D+00 0.534D+00
 Gap=     0.087 Goal=   None    Shift=    0.000
 Gap=     0.087 Goal=   None    Shift=    0.000
 RMSDP=8.42D-05 MaxDP=7.90D-03 DE=-5.55D-05 OVMax= 3.37D-03

 Cycle   9  Pass 1  IDiag  1:
 RMSU=  4.50D-05    CP:  7.39D-01  5.60D-03  1.09D+00  1.15D-01  8.34D-01
                    CP:  7.51D-01  1.14D+00  6.77D-01
 E= -859.112993163797     Delta-E=       -0.000027921660 Rises=F Damp=F
 DIIS: error= 7.87D-05 at cycle   9 NSaved=   9.
 NSaved= 9 IEnMin= 9 EnMin= -859.112993163797     IErMin= 9 ErrMin= 7.87D-05
 ErrMax= 7.87D-05  0.00D+00 EMaxC= 1.00D-01 BMatC= 9.17D-06 BMatP= 1.14D-04
 IDIUse=1 WtCom= 1.00D+00 WtEn= 0.00D+00
 Coeff-Com:  0.135D-02-0.204D-02-0.197D-03-0.388D-04-0.349D-02 0.242D-01
 Coeff-Com:  0.223D+00 0.329D+00 0.428D+00
 Coeff:      0.135D-02-0.204D-02-0.197D-03-0.388D-04-0.349D-02 0.242D-01
 Coeff:      0.223D+00 0.329D+00 0.428D+00
 Gap=     0.087 Goal=   None    Shift=    0.000
 Gap=     0.087 Goal=   None    Shift=    0.000
 RMSDP=1.81D-05 MaxDP=1.58D-03 DE=-2.79D-05 OVMax= 7.93D-04

 Cycle  10  Pass 1  IDiag  1:
 RMSU=  1.36D-05    CP:  7.39D-01  5.60D-03  1.09D+00  1.15D-01  8.33D-01
                    CP:  7.50D-01  1.14D+00  7.20D-01  9.58D-01
 E= -859.112995435842     Delta-E=       -0.000002272045 Rises=F Damp=F
 DIIS: error= 1.57D-05 at cycle  10 NSaved=  10.
 NSaved=10 IEnMin=10 EnMin= -859.112995435842     IErMin=10 ErrMin= 1.57D-05
 ErrMax= 1.57D-05  0.00D+00 EMaxC= 1.00D-01 BMatC= 3.25D-07 BMatP= 9.17D-06
 IDIUse=1 WtCom= 1.00D+00 WtEn= 0.00D+00
 Coeff-Com:  0.484D-03-0.618D-03-0.390D-03-0.501D-05-0.114D-02 0.507D-02
 Coeff-Com:  0.339D-01 0.500D-01 0.146D+00 0.767D+00
 Coeff:      0.484D-03-0.618D-03-0.390D-03-0.501D-05-0.114D-02 0.507D-02
 Coeff:      0.339D-01 0.500D-01 0.146D+00 0.767D+00
 Gap=     0.087 Goal=   None    Shift=    0.000
 Gap=     0.087 Goal=   None    Shift=    0.000
 RMSDP=8.17D-06 MaxDP=3.98D-04 DE=-2.27D-06 OVMax= 2.01D-04

 Cycle  11  Pass 1  IDiag  1:
 RMSU=  4.36D-06    CP:  7.39D-01  5.59D-03  1.09D+00  1.14D-01  8.33D-01
                    CP:  7.51D-01  1.15D+00  7.30D-01  9.78D-01  8.99D-01
 E= -859.112995510880     Delta-E=       -0.000000075039 Rises=F Damp=F
 DIIS: error= 5.85D-06 at cycle  11 NSaved=  11.
 NSaved=11 IEnMin=11 EnMin= -859.112995510880     IErMin=11 ErrMin= 5.85D-06
 ErrMax= 5.85D-06  0.00D+00 EMaxC= 1.00D-01 BMatC= 6.81D-08 BMatP= 3.25D-07
 IDIUse=1 WtCom= 1.00D+00 WtEn= 0.00D+00
 Coeff-Com:  0.184D-03-0.205D-03-0.133D-03-0.272D-04-0.249D-03 0.150D-02
 Coeff-Com:  0.576D-02 0.612D-02 0.514D-01 0.440D+00 0.496D+00
 Coeff:      0.184D-03-0.205D-03-0.133D-03-0.272D-04-0.249D-03 0.150D-02
 Coeff:      0.576D-02 0.612D-02 0.514D-01 0.440D+00 0.496D+00
 Gap=     0.087 Goal=   None    Shift=    0.000
 Gap=     0.087 Goal=   None    Shift=    0.000
 RMSDP=1.74D-06 MaxDP=6.00D-05 DE=-7.50D-08 OVMax= 3.85D-05

 Cycle  12  Pass 1  IDiag  1:
 RMSU=  1.02D-06    CP:  7.39D-01  5.59D-03  1.09D+00  1.14D-01  8.33D-01
                    CP:  7.51D-01  1.15D+00  7.29D-01  9.83D-01  9.44D-01
                    CP:  1.07D+00
 E= -859.112995526963     Delta-E=       -0.000000016083 Rises=F Damp=F
 DIIS: error= 2.03D-06 at cycle  12 NSaved=  12.
 NSaved=12 IEnMin=12 EnMin= -859.112995526963     IErMin=12 ErrMin= 2.03D-06
 ErrMax= 2.03D-06  0.00D+00 EMaxC= 1.00D-01 BMatC= 6.65D-09 BMatP= 6.81D-08
 IDIUse=1 WtCom= 1.00D+00 WtEn= 0.00D+00
 Coeff-Com:  0.222D-04-0.251D-04 0.165D-04-0.150D-04 0.768D-04-0.207D-03
 Coeff-Com: -0.180D-02-0.508D-02-0.104D-02 0.829D-01 0.240D+00 0.685D+00
 Coeff:      0.222D-04-0.251D-04 0.165D-04-0.150D-04 0.768D-04-0.207D-03
 Coeff:     -0.180D-02-0.508D-02-0.104D-02 0.829D-01 0.240D+00 0.685D+00
 Gap=     0.087 Goal=   None    Shift=    0.000
 Gap=     0.087 Goal=   None    Shift=    0.000
 RMSDP=9.95D-07 MaxDP=4.52D-05 DE=-1.61D-08 OVMax= 2.63D-05

 Cycle  13  Pass 1  IDiag  1:
 RMSU=  5.08D-07    CP:  7.39D-01  5.59D-03  1.09D+00  1.14D-01  8.33D-01
                    CP:  7.51D-01  1.15D+00  7.31D-01  9.90D-01  9.45D-01
                    CP:  1.14D+00  8.23D-01
 E= -859.112995528377     Delta-E=       -0.000000001414 Rises=F Damp=F
 DIIS: error= 1.00D-06 at cycle  13 NSaved=  13.
 NSaved=13 IEnMin=13 EnMin= -859.112995528377     IErMin=13 ErrMin= 1.00D-06
 ErrMax= 1.00D-06  0.00D+00 EMaxC= 1.00D-01 BMatC= 1.31D-09 BMatP= 6.65D-09
 IDIUse=1 WtCom= 1.00D+00 WtEn= 0.00D+00
 Coeff-Com: -0.344D-05 0.196D-05 0.187D-04-0.521D-05 0.555D-04-0.324D-03
 Coeff-Com: -0.154D-02-0.366D-02-0.549D-02 0.961D-02 0.900D-01 0.404D+00
 Coeff-Com:  0.508D+00
 Coeff:     -0.344D-05 0.196D-05 0.187D-04-0.521D-05 0.555D-04-0.324D-03
 Coeff:     -0.154D-02-0.366D-02-0.549D-02 0.961D-02 0.900D-01 0.404D+00
 Coeff:      0.508D+00
 Gap=     0.087 Goal=   None    Shift=    0.000
 Gap=     0.087 Goal=   None    Shift=    0.000
 RMSDP=2.62D-07 MaxDP=1.05D-05 DE=-1.41D-09 OVMax= 6.27D-06

 Cycle  14  Pass 1  IDiag  1:
 RMSU=  1.38D-07    CP:  7.39D-01  5.59D-03  1.09D+00  1.14D-01  8.33D-01
                    CP:  7.51D-01  1.15D+00  7.31D-01  9.90D-01  9.49D-01
                    CP:  1.15D+00  8.85D-01  9.05D-01
 E= -859.112995528728     Delta-E=       -0.000000000351 Rises=F Damp=F
 DIIS: error= 1.97D-07 at cycle  14 NSaved=  14.
 NSaved=14 IEnMin=14 EnMin= -859.112995528728     IErMin=14 ErrMin= 1.97D-07
 ErrMax= 1.97D-07  0.00D+00 EMaxC= 1.00D-01 BMatC= 8.80D-11 BMatP= 1.31D-09
 IDIUse=1 WtCom= 1.00D+00 WtEn= 0.00D+00
 Coeff-Com: -0.418D-05 0.433D-05 0.503D-05 0.207D-07 0.615D-05-0.129D-03
 Coeff-Com: -0.280D-03-0.743D-03-0.188D-02-0.346D-02 0.651D-02 0.885D-01
 Coeff-Com:  0.220D+00 0.692D+00
 Coeff:     -0.418D-05 0.433D-05 0.503D-05 0.207D-07 0.615D-05-0.129D-03
 Coeff:     -0.280D-03-0.743D-03-0.188D-02-0.346D-02 0.651D-02 0.885D-01
 Coeff:      0.220D+00 0.692D+00
 Gap=     0.087 Goal=   None    Shift=    0.000
 Gap=     0.087 Goal=   None    Shift=    0.000
 RMSDP=1.25D-07 MaxDP=5.05D-06 DE=-3.51D-10 OVMax= 3.83D-06

 Cycle  15  Pass 1  IDiag  1:
 RMSU=  6.64D-08    CP:  7.39D-01  5.59D-03  1.09D+00  1.14D-01  8.33D-01
                    CP:  7.51D-01  1.15D+00  7.31D-01  9.89D-01  9.49D-01
                    CP:  1.16D+00  8.97D-01  9.28D-01  8.47D-01
 E= -859.112995528747     Delta-E=       -0.000000000019 Rises=F Damp=F
 DIIS: error= 8.14D-08 at cycle  15 NSaved=  15.
 NSaved=15 IEnMin=15 EnMin= -859.112995528747     IErMin=15 ErrMin= 8.14D-08
 ErrMax= 8.14D-08  0.00D+00 EMaxC= 1.00D-01 BMatC= 1.37D-11 BMatP= 8.80D-11
 IDIUse=1 WtCom= 1.00D+00 WtEn= 0.00D+00
 Coeff-Com: -0.231D-05 0.289D-05-0.339D-06 0.534D-06-0.355D-05-0.504D-04
 Coeff-Com: -0.449D-04-0.938D-04-0.574D-03-0.227D-02-0.497D-02 0.110D-01
 Coeff-Com:  0.542D-01 0.346D+00 0.597D+00
 Coeff:     -0.231D-05 0.289D-05-0.339D-06 0.534D-06-0.355D-05-0.504D-04
 Coeff:     -0.449D-04-0.938D-04-0.574D-03-0.227D-02-0.497D-02 0.110D-01
 Coeff:      0.542D-01 0.346D+00 0.597D+00
 Gap=     0.087 Goal=   None    Shift=    0.000
 Gap=     0.087 Goal=   None    Shift=    0.000
 RMSDP=2.49D-08 MaxDP=1.31D-06 DE=-1.91D-11 OVMax= 6.63D-07

 Cycle  16  Pass 1  IDiag  1:
 RMSU=  1.32D-08    CP:  7.39D-01  5.59D-03  1.09D+00  1.14D-01  8.33D-01
                    CP:  7.51D-01  1.15D+00  7.31D-01  9.89D-01  9.49D-01
                    CP:  1.16D+00  8.99D-01  9.40D-01  9.15D-01  1.06D+00
 E= -859.112995528745     Delta-E=        0.000000000002 Rises=F Damp=F
 DIIS: error= 3.28D-08 at cycle  16 NSaved=  16.
 NSaved=16 IEnMin=15 EnMin= -859.112995528747     IErMin=16 ErrMin= 3.28D-08
 ErrMax= 3.28D-08  0.00D+00 EMaxC= 1.00D-01 BMatC= 1.95D-12 BMatP= 1.37D-11
 IDIUse=1 WtCom= 1.00D+00 WtEn= 0.00D+00
 Coeff-Com: -0.465D-06 0.777D-06-0.122D-05 0.479D-06-0.325D-05-0.708D-05
 Coeff-Com:  0.108D-04 0.818D-04 0.363D-04-0.223D-03-0.398D-02-0.105D-01
 Coeff-Com: -0.192D-01 0.527D-01 0.276D+00 0.705D+00
 Coeff:     -0.465D-06 0.777D-06-0.122D-05 0.479D-06-0.325D-05-0.708D-05
 Coeff:      0.108D-04 0.818D-04 0.363D-04-0.223D-03-0.398D-02-0.105D-01
 Coeff:     -0.192D-01 0.527D-01 0.276D+00 0.705D+00
 Gap=     0.087 Goal=   None    Shift=    0.000
 Gap=     0.087 Goal=   None    Shift=    0.000
 RMSDP=2.25D-08 MaxDP=1.26D-06 DE= 1.59D-12 OVMax= 7.10D-07

 Cycle  17  Pass 1  IDiag  1:
 RMSU=  1.18D-08    CP:  7.39D-01  5.59D-03  1.09D+00  1.14D-01  8.33D-01
                    CP:  7.51D-01  1.15D+00  7.31D-01  9.89D-01  9.49D-01
                    CP:  1.16D+00  8.99D-01  9.48D-01  9.16D-01  1.12D+00
                    CP:  1.21D+00
 E= -859.112995528750     Delta-E=       -0.000000000005 Rises=F Damp=F
 DIIS: error= 1.13D-08 at cycle  17 NSaved=  17.
 NSaved=17 IEnMin=17 EnMin= -859.112995528750     IErMin=17 ErrMin= 1.13D-08
 ErrMax= 1.13D-08  0.00D+00 EMaxC= 1.00D-01 BMatC= 2.77D-13 BMatP= 1.95D-12
 IDIUse=1 WtCom= 1.00D+00 WtEn= 0.00D+00
 Coeff-Com: -0.225D-07 0.117D-06-0.500D-06 0.175D-06-0.112D-05-0.641D-06
 Coeff-Com:  0.106D-04 0.493D-04 0.649D-04 0.149D-03-0.151D-02-0.543D-02
 Coeff-Com: -0.142D-01-0.665D-03 0.764D-01 0.367D+00 0.578D+00
 Coeff:     -0.225D-07 0.117D-06-0.500D-06 0.175D-06-0.112D-05-0.641D-06
 Coeff:      0.106D-04 0.493D-04 0.649D-04 0.149D-03-0.151D-02-0.543D-02
 Coeff:     -0.142D-01-0.665D-03 0.764D-01 0.367D+00 0.578D+00
 Gap=     0.087 Goal=   None    Shift=    0.000
 Gap=     0.087 Goal=   None    Shift=    0.000
 RMSDP=4.71D-09 MaxDP=4.77D-07 DE=-4.77D-12 OVMax= 1.21D-07

 Error on total polarization charges =  0.03041
 SCF Done:  E(UB3LYP) =  -859.112995529     A.U. after   17 cycles
            NFock= 17  Conv=0.47D-08     -V/T= 2.0042
 <Sx>= 0.0000 <Sy>= 0.0000 <Sz>= 0.0000 <S**2>=-0.0000 S=-0.0000
 <L.S>=  0.00000000000    
 KE= 8.555476248802D+02 PE=-4.743958379901D+03 EE= 1.679662768729D+03
 Annihilation of the first spin contaminant:
 S**2 before annihilation    -0.0000,   after     0.0000
 Leave Link  502 at Sun Jan 14 01:29:16 2024, MaxMem=  4026531840 cpu:            1938.0 elap:             266.6
 (Enter /sysapps/ubuntu-applications/gaussian/Gaussian/AVX2/g16/l601.exe)
 Copying SCF densities to generalized density rwf, IOpCl= 1 IROHF=0.

 **********************************************************************

            Population analysis using the SCF density.

 **********************************************************************

 Orbital symmetries:
 Alpha Orbitals:
       Occupied  (A) (A) (A) (A) (A) (A) (A) (A) (A) (A) (A) (A)
                 (A) (A) (A) (A) (A) (A) (A) (A) (A) (A) (A) (A)
                 (A) (A) (A) (A) (A) (A) (A) (A) (A) (A) (A) (A)
                 (A) (A) (A) (A) (A) (A) (A) (A) (A) (A) (A) (A)
                 (A) (A) (A) (A) (A) (A) (A) (A) (A) (A) (A) (A)
                 (A) (A) (A) (A) (A) (A) (A)
       Virtual   (A) (A) (A) (A) (A) (A) (A) (A) (A) (A) (A) (A)
                 (A) (A) (A) (A) (A) (A) (A) (A) (A) (A) (A) (A)
                 (A) (A) (A) (A) (A) (A) (A) (A) (A) (A) (A) (A)
                 (A) (A) (A) (A) (A) (A) (A) (A) (A) (A) (A) (A)
                 (A) (A) (A) (A) (A) (A) (A) (A) (A) (A) (A) (A)
                 (A) (A) (A) (A) (A) (A) (A) (A) (A) (A) (A) (A)
                 (A) (A) (A) (A) (A) (A) (A) (A) (A) (A) (A) (A)
                 (A) (A) (A) (A) (A) (A) (A) (A) (A) (A) (A) (A)
                 (A) (A) (A) (A) (A) (A) (A) (A) (A) (A) (A) (A)
                 (A) (A) (A) (A) (A) (A) (A) (A) (A) (A) (A) (A)
                 (A) (A) (A) (A) (A) (A) (A) (A) (A) (A) (A) (A)
                 (A) (A) (A) (A) (A) (A) (A) (A) (A) (A) (A) (A)
                 (A) (A) (A) (A) (A) (A) (A) (A) (A) (A) (A) (A)
                 (A) (A) (A) (A) (A) (A) (A) (A) (A) (A) (A) (A)
                 (A) (A) (A) (A) (A) (A) (A) (A) (A) (A) (A) (A)
                 (A) (A) (A) (A) (A) (A) (A) (A) (A) (A) (A) (A)
                 (A) (A) (A) (A) (A) (A) (A) (A) (A) (A) (A) (A)
                 (A) (A) (A) (A) (A) (A) (A) (A) (A) (A) (A) (A)
                 (A) (A) (A) (A) (A) (A) (A) (A) (A) (A) (A) (A)
                 (A) (A) (A) (A) (A) (A) (A) (A) (A) (A) (A) (A)
                 (A) (A) (A) (A) (A) (A) (A) (A) (A) (A) (A) (A)
                 (A) (A) (A) (A) (A) (A) (A) (A) (A) (A) (A) (A)
                 (A) (A) (A) (A) (A) (A) (A) (A) (A) (A) (A) (A)
                 (A) (A) (A) (A) (A) (A) (A) (A) (A) (A) (A) (A)
                 (A) (A) (A) (A) (A) (A) (A) (A) (A) (A) (A) (A)
                 (A) (A) (A) (A) (A) (A) (A) (A) (A) (A) (A) (A)
                 (A) (A) (A) (A) (A) (A) (A) (A) (A) (A) (A) (A)
                 (A) (A) (A) (A) (A) (A) (A) (A) (A) (A) (A) (A)
                 (A) (A) (A) (A) (A) (A) (A) (A) (A) (A) (A) (A)
                 (A) (A) (A) (A) (A) (A) (A) (A) (A) (A) (A) (A)
                 (A) (A) (A) (A) (A) (A) (A) (A) (A) (A) (A) (A)
                 (A) (A) (A) (A) (A) (A) (A) (A) (A) (A) (A) (A)
                 (A) (A) (A) (A) (A) (A) (A) (A) (A) (A) (A) (A)
                 (A) (A) (A) (A) (A) (A) (A) (A) (A) (A) (A) (A)
                 (A) (A) (A) (A) (A) (A) (A) (A) (A) (A) (A) (A)
 Beta  Orbitals:
       Occupied  (A) (A) (A) (A) (A) (A) (A) (A) (A) (A) (A) (A)
                 (A) (A) (A) (A) (A) (A) (A) (A) (A) (A) (A) (A)
                 (A) (A) (A) (A) (A) (A) (A) (A) (A) (A) (A) (A)
                 (A) (A) (A) (A) (A) (A) (A) (A) (A) (A) (A) (A)
                 (A) (A) (A) (A) (A) (A) (A) (A) (A) (A) (A) (A)
                 (A) (A) (A) (A) (A) (A) (A)
       Virtual   (A) (A) (A) (A) (A) (A) (A) (A) (A) (A) (A) (A)
                 (A) (A) (A) (A) (A) (A) (A) (A) (A) (A) (A) (A)
                 (A) (A) (A) (A) (A) (A) (A) (A) (A) (A) (A) (A)
                 (A) (A) (A) (A) (A) (A) (A) (A) (A) (A) (A) (A)
                 (A) (A) (A) (A) (A) (A) (A) (A) (A) (A) (A) (A)
                 (A) (A) (A) (A) (A) (A) (A) (A) (A) (A) (A) (A)
                 (A) (A) (A) (A) (A) (A) (A) (A) (A) (A) (A) (A)
                 (A) (A) (A) (A) (A) (A) (A) (A) (A) (A) (A) (A)
                 (A) (A) (A) (A) (A) (A) (A) (A) (A) (A) (A) (A)
                 (A) (A) (A) (A) (A) (A) (A) (A) (A) (A) (A) (A)
                 (A) (A) (A) (A) (A) (A) (A) (A) (A) (A) (A) (A)
                 (A) (A) (A) (A) (A) (A) (A) (A) (A) (A) (A) (A)
                 (A) (A) (A) (A) (A) (A) (A) (A) (A) (A) (A) (A)
                 (A) (A) (A) (A) (A) (A) (A) (A) (A) (A) (A) (A)
                 (A) (A) (A) (A) (A) (A) (A) (A) (A) (A) (A) (A)
                 (A) (A) (A) (A) (A) (A) (A) (A) (A) (A) (A) (A)
                 (A) (A) (A) (A) (A) (A) (A) (A) (A) (A) (A) (A)
                 (A) (A) (A) (A) (A) (A) (A) (A) (A) (A) (A) (A)
                 (A) (A) (A) (A) (A) (A) (A) (A) (A) (A) (A) (A)
                 (A) (A) (A) (A) (A) (A) (A) (A) (A) (A) (A) (A)
                 (A) (A) (A) (A) (A) (A) (A) (A) (A) (A) (A) (A)
                 (A) (A) (A) (A) (A) (A) (A) (A) (A) (A) (A) (A)
                 (A) (A) (A) (A) (A) (A) (A) (A) (A) (A) (A) (A)
                 (A) (A) (A) (A) (A) (A) (A) (A) (A) (A) (A) (A)
                 (A) (A) (A) (A) (A) (A) (A) (A) (A) (A) (A) (A)
                 (A) (A) (A) (A) (A) (A) (A) (A) (A) (A) (A) (A)
                 (A) (A) (A) (A) (A) (A) (A) (A) (A) (A) (A) (A)
                 (A) (A) (A) (A) (A) (A) (A) (A) (A) (A) (A) (A)
                 (A) (A) (A) (A) (A) (A) (A) (A) (A) (A) (A) (A)
                 (A) (A) (A) (A) (A) (A) (A) (A) (A) (A) (A) (A)
                 (A) (A) (A) (A) (A) (A) (A) (A) (A) (A) (A) (A)
                 (A) (A) (A) (A) (A) (A) (A) (A) (A) (A) (A) (A)
                 (A) (A) (A) (A) (A) (A) (A) (A) (A) (A) (A) (A)
                 (A) (A) (A) (A) (A) (A) (A) (A) (A) (A) (A) (A)
                 (A) (A) (A) (A) (A) (A) (A) (A) (A) (A) (A) (A)
 The electronic state is 1-A.
 Alpha  occ. eigenvalues --  -19.13276 -19.02051 -19.01250 -14.27619 -10.21275
 Alpha  occ. eigenvalues --  -10.20778 -10.18537 -10.17586 -10.17198 -10.14591
 Alpha  occ. eigenvalues --  -10.14380 -10.14037 -10.13940 -10.13785 -10.13490
 Alpha  occ. eigenvalues --  -10.13449 -10.13314 -10.13084 -10.13010  -1.05001
 Alpha  occ. eigenvalues --   -0.94143  -0.93795  -0.87910  -0.82109  -0.80291
 Alpha  occ. eigenvalues --   -0.74797  -0.73408  -0.70578  -0.69679  -0.67562
 Alpha  occ. eigenvalues --   -0.63121  -0.59902  -0.59274  -0.55108  -0.52971
 Alpha  occ. eigenvalues --   -0.51745  -0.49781  -0.47720  -0.45738  -0.45405
 Alpha  occ. eigenvalues --   -0.45212  -0.43743  -0.43335  -0.41781  -0.41038
 Alpha  occ. eigenvalues --   -0.39579  -0.38176  -0.37529  -0.36787  -0.35859
 Alpha  occ. eigenvalues --   -0.35388  -0.34994  -0.33136  -0.32678  -0.32126
 Alpha  occ. eigenvalues --   -0.31954  -0.31115  -0.30600  -0.29113  -0.27654
 Alpha  occ. eigenvalues --   -0.22351  -0.21468  -0.20477  -0.20240  -0.18816
 Alpha  occ. eigenvalues --   -0.18305  -0.10003
 Alpha virt. eigenvalues --   -0.01295  -0.00026   0.00450   0.00578   0.01209
 Alpha virt. eigenvalues --    0.02041   0.02281   0.03205   0.03764   0.03917
 Alpha virt. eigenvalues --    0.04215   0.04334   0.05284   0.05798   0.06447
 Alpha virt. eigenvalues --    0.06719   0.07127   0.07707   0.08029   0.08449
 Alpha virt. eigenvalues --    0.09137   0.09211   0.09920   0.10355   0.10839
 Alpha virt. eigenvalues --    0.11194   0.11609   0.11946   0.12147   0.12335
 Alpha virt. eigenvalues --    0.12819   0.12967   0.13322   0.13629   0.14018
 Alpha virt. eigenvalues --    0.14349   0.14465   0.15063   0.15227   0.15285
 Alpha virt. eigenvalues --    0.15581   0.16735   0.17247   0.17383   0.17537
 Alpha virt. eigenvalues --    0.17654   0.17760   0.18581   0.18689   0.19097
 Alpha virt. eigenvalues --    0.19276   0.19564   0.20098   0.20905   0.20974
 Alpha virt. eigenvalues --    0.21284   0.21864   0.22123   0.22704   0.23233
 Alpha virt. eigenvalues --    0.24153   0.24679   0.25033   0.25297   0.25440
 Alpha virt. eigenvalues --    0.25835   0.26002   0.26985   0.27056   0.27356
 Alpha virt. eigenvalues --    0.27572   0.27810   0.27999   0.28771   0.28980
 Alpha virt. eigenvalues --    0.29479   0.29673   0.30304   0.30567   0.30663
 Alpha virt. eigenvalues --    0.31134   0.31561   0.31759   0.32520   0.33052
 Alpha virt. eigenvalues --    0.33288   0.33690   0.33988   0.34301   0.34456
 Alpha virt. eigenvalues --    0.34957   0.35182   0.35669   0.36514   0.36819
 Alpha virt. eigenvalues --    0.37074   0.37494   0.38490   0.38738   0.40034
 Alpha virt. eigenvalues --    0.40175   0.40634   0.42016   0.42621   0.43835
 Alpha virt. eigenvalues --    0.44938   0.46139   0.46646   0.47789   0.48314
 Alpha virt. eigenvalues --    0.49304   0.50998   0.52841   0.53988   0.55438
 Alpha virt. eigenvalues --    0.55760   0.55835   0.56906   0.57233   0.58078
 Alpha virt. eigenvalues --    0.58268   0.59749   0.59825   0.60156   0.60434
 Alpha virt. eigenvalues --    0.61623   0.62250   0.63101   0.63855   0.64124
 Alpha virt. eigenvalues --    0.64629   0.65013   0.65297   0.65834   0.66842
 Alpha virt. eigenvalues --    0.67764   0.68077   0.68671   0.69025   0.69304
 Alpha virt. eigenvalues --    0.69826   0.70299   0.71482   0.71812   0.73173
 Alpha virt. eigenvalues --    0.73409   0.74283   0.76558   0.77335   0.77638
 Alpha virt. eigenvalues --    0.79131   0.79884   0.80125   0.80498   0.81920
 Alpha virt. eigenvalues --    0.82228   0.82729   0.83924   0.84825   0.86047
 Alpha virt. eigenvalues --    0.87518   0.87592   0.89174   0.89562   0.90680
 Alpha virt. eigenvalues --    0.91118   0.92161   0.92785   0.93787   0.94125
 Alpha virt. eigenvalues --    0.95072   0.96196   0.97210   0.97571   0.98380
 Alpha virt. eigenvalues --    0.99042   1.00297   1.01066   1.01693   1.03049
 Alpha virt. eigenvalues --    1.03432   1.04550   1.05010   1.05269   1.06411
 Alpha virt. eigenvalues --    1.07257   1.07985   1.09303   1.09475   1.11187
 Alpha virt. eigenvalues --    1.12409   1.13255   1.13959   1.15540   1.15953
 Alpha virt. eigenvalues --    1.16878   1.17609   1.18437   1.21085   1.21449
 Alpha virt. eigenvalues --    1.24309   1.26809   1.27246   1.28079   1.29460
 Alpha virt. eigenvalues --    1.30225   1.31682   1.32342   1.33158   1.34315
 Alpha virt. eigenvalues --    1.36621   1.38421   1.42167   1.43691   1.45320
 Alpha virt. eigenvalues --    1.45407   1.48930   1.49633   1.51009   1.51608
 Alpha virt. eigenvalues --    1.52419   1.53113   1.53611   1.54598   1.55788
 Alpha virt. eigenvalues --    1.56209   1.57547   1.58839   1.59592   1.59733
 Alpha virt. eigenvalues --    1.59892   1.60748   1.62325   1.63005   1.64761
 Alpha virt. eigenvalues --    1.66421   1.66891   1.69858   1.70109   1.71328
 Alpha virt. eigenvalues --    1.72923   1.73826   1.74897   1.75710   1.76255
 Alpha virt. eigenvalues --    1.76620   1.77003   1.78329   1.78619   1.81460
 Alpha virt. eigenvalues --    1.82523   1.84114   1.84634   1.88678   1.90359
 Alpha virt. eigenvalues --    1.91917   1.92676   1.93164   1.93831   1.94876
 Alpha virt. eigenvalues --    1.95186   1.96166   1.96459   1.97742   1.99499
 Alpha virt. eigenvalues --    2.00336   2.00741   2.01774   2.02217   2.02851
 Alpha virt. eigenvalues --    2.03974   2.05041   2.07575   2.07838   2.08444
 Alpha virt. eigenvalues --    2.11745   2.12317   2.13551   2.14549   2.16735
 Alpha virt. eigenvalues --    2.17761   2.20410   2.22370   2.22912   2.24685
 Alpha virt. eigenvalues --    2.26983   2.28958   2.33483   2.34847   2.35232
 Alpha virt. eigenvalues --    2.37849   2.40466   2.40854   2.43878   2.46619
 Alpha virt. eigenvalues --    2.46927   2.48311   2.48827   2.50931   2.53051
 Alpha virt. eigenvalues --    2.54373   2.56228   2.57941   2.60247   2.62065
 Alpha virt. eigenvalues --    2.63149   2.66420   2.67876   2.69714   2.71283
 Alpha virt. eigenvalues --    2.72279   2.74125   2.74879   2.75080   2.76254
 Alpha virt. eigenvalues --    2.77438   2.77719   2.78506   2.79888   2.81043
 Alpha virt. eigenvalues --    2.81556   2.81933   2.83215   2.83742   2.83984
 Alpha virt. eigenvalues --    2.86064   2.86671   2.88118   2.88557   2.90962
 Alpha virt. eigenvalues --    2.91749   2.93134   2.93756   2.94215   2.96917
 Alpha virt. eigenvalues --    3.00434   3.00826   3.02878   3.06248   3.07677
 Alpha virt. eigenvalues --    3.09226   3.10105   3.11650   3.13184   3.15031
 Alpha virt. eigenvalues --    3.16983   3.19407   3.20378   3.24070   3.25626
 Alpha virt. eigenvalues --    3.26069   3.26746   3.27273   3.31325   3.34581
 Alpha virt. eigenvalues --    3.35783   3.38366   3.39303   3.40999   3.44280
 Alpha virt. eigenvalues --    3.45218   3.47177   3.50782   3.53352   3.53598
 Alpha virt. eigenvalues --    3.55413   3.58888   3.61116   3.61384   3.68983
 Alpha virt. eigenvalues --    3.69569   3.77205   3.80638   3.84918   3.87584
 Alpha virt. eigenvalues --    3.91367   3.99358   4.07927   4.08651   4.10004
 Alpha virt. eigenvalues --    4.15796   4.16296   4.19003   4.27587   4.33777
 Alpha virt. eigenvalues --    4.36589   4.54864   4.82286   4.85939   4.86347
 Alpha virt. eigenvalues --    4.88666   5.03330   5.05847   5.14291   5.15909
 Alpha virt. eigenvalues --    5.32283   5.39967   5.50751   5.80142   5.84152
 Alpha virt. eigenvalues --    5.88566  23.56854  23.73310  23.90521  23.92093
 Alpha virt. eigenvalues --   23.94436  23.94597  23.96611  23.98474  24.00721
 Alpha virt. eigenvalues --   24.01791  24.05632  24.11728  24.12136  24.21463
 Alpha virt. eigenvalues --   24.22275  35.68934  50.00672  50.11240  50.16994
  Beta  occ. eigenvalues --  -19.13276 -19.02051 -19.01250 -14.27619 -10.21275
  Beta  occ. eigenvalues --  -10.20778 -10.18537 -10.17586 -10.17198 -10.14591
  Beta  occ. eigenvalues --  -10.14380 -10.14037 -10.13940 -10.13785 -10.13490
  Beta  occ. eigenvalues --  -10.13449 -10.13314 -10.13084 -10.13010  -1.05001
  Beta  occ. eigenvalues --   -0.94143  -0.93795  -0.87910  -0.82109  -0.80291
  Beta  occ. eigenvalues --   -0.74797  -0.73408  -0.70578  -0.69679  -0.67562
  Beta  occ. eigenvalues --   -0.63121  -0.59902  -0.59274  -0.55108  -0.52971
  Beta  occ. eigenvalues --   -0.51745  -0.49781  -0.47720  -0.45738  -0.45405
  Beta  occ. eigenvalues --   -0.45212  -0.43743  -0.43335  -0.41781  -0.41038
  Beta  occ. eigenvalues --   -0.39579  -0.38176  -0.37529  -0.36787  -0.35859
  Beta  occ. eigenvalues --   -0.35388  -0.34994  -0.33136  -0.32678  -0.32126
  Beta  occ. eigenvalues --   -0.31954  -0.31115  -0.30600  -0.29113  -0.27654
  Beta  occ. eigenvalues --   -0.22351  -0.21468  -0.20477  -0.20240  -0.18816
  Beta  occ. eigenvalues --   -0.18305  -0.10003
  Beta virt. eigenvalues --   -0.01295  -0.00026   0.00450   0.00578   0.01209
  Beta virt. eigenvalues --    0.02041   0.02281   0.03205   0.03764   0.03917
  Beta virt. eigenvalues --    0.04215   0.04334   0.05284   0.05798   0.06447
  Beta virt. eigenvalues --    0.06719   0.07127   0.07707   0.08029   0.08449
  Beta virt. eigenvalues --    0.09137   0.09211   0.09920   0.10355   0.10839
  Beta virt. eigenvalues --    0.11194   0.11609   0.11946   0.12147   0.12335
  Beta virt. eigenvalues --    0.12819   0.12967   0.13322   0.13629   0.14018
  Beta virt. eigenvalues --    0.14349   0.14465   0.15063   0.15227   0.15285
  Beta virt. eigenvalues --    0.15581   0.16735   0.17247   0.17383   0.17537
  Beta virt. eigenvalues --    0.17654   0.17760   0.18581   0.18689   0.19097
  Beta virt. eigenvalues --    0.19276   0.19564   0.20098   0.20905   0.20974
  Beta virt. eigenvalues --    0.21284   0.21864   0.22123   0.22704   0.23233
  Beta virt. eigenvalues --    0.24153   0.24679   0.25033   0.25297   0.25440
  Beta virt. eigenvalues --    0.25835   0.26002   0.26985   0.27056   0.27356
  Beta virt. eigenvalues --    0.27572   0.27810   0.27999   0.28771   0.28980
  Beta virt. eigenvalues --    0.29479   0.29673   0.30304   0.30567   0.30663
  Beta virt. eigenvalues --    0.31134   0.31561   0.31759   0.32520   0.33052
  Beta virt. eigenvalues --    0.33288   0.33690   0.33988   0.34301   0.34456
  Beta virt. eigenvalues --    0.34957   0.35182   0.35669   0.36514   0.36819
  Beta virt. eigenvalues --    0.37074   0.37494   0.38490   0.38738   0.40034
  Beta virt. eigenvalues --    0.40175   0.40634   0.42016   0.42621   0.43835
  Beta virt. eigenvalues --    0.44938   0.46139   0.46646   0.47789   0.48314
  Beta virt. eigenvalues --    0.49304   0.50998   0.52841   0.53988   0.55438
  Beta virt. eigenvalues --    0.55760   0.55835   0.56906   0.57233   0.58078
  Beta virt. eigenvalues --    0.58268   0.59749   0.59825   0.60156   0.60434
  Beta virt. eigenvalues --    0.61623   0.62250   0.63101   0.63855   0.64124
  Beta virt. eigenvalues --    0.64629   0.65013   0.65297   0.65834   0.66842
  Beta virt. eigenvalues --    0.67764   0.68077   0.68671   0.69025   0.69304
  Beta virt. eigenvalues --    0.69826   0.70299   0.71482   0.71812   0.73173
  Beta virt. eigenvalues --    0.73409   0.74283   0.76558   0.77335   0.77638
  Beta virt. eigenvalues --    0.79131   0.79884   0.80125   0.80498   0.81920
  Beta virt. eigenvalues --    0.82228   0.82729   0.83924   0.84825   0.86047
  Beta virt. eigenvalues --    0.87518   0.87592   0.89174   0.89562   0.90680
  Beta virt. eigenvalues --    0.91118   0.92161   0.92785   0.93787   0.94125
  Beta virt. eigenvalues --    0.95072   0.96196   0.97210   0.97571   0.98380
  Beta virt. eigenvalues --    0.99042   1.00297   1.01066   1.01693   1.03049
  Beta virt. eigenvalues --    1.03432   1.04550   1.05010   1.05269   1.06411
  Beta virt. eigenvalues --    1.07257   1.07985   1.09303   1.09475   1.11187
  Beta virt. eigenvalues --    1.12409   1.13255   1.13959   1.15540   1.15953
  Beta virt. eigenvalues --    1.16878   1.17609   1.18437   1.21085   1.21449
  Beta virt. eigenvalues --    1.24309   1.26809   1.27246   1.28079   1.29460
  Beta virt. eigenvalues --    1.30225   1.31682   1.32342   1.33158   1.34315
  Beta virt. eigenvalues --    1.36621   1.38421   1.42167   1.43691   1.45320
  Beta virt. eigenvalues --    1.45407   1.48930   1.49633   1.51009   1.51608
  Beta virt. eigenvalues --    1.52419   1.53113   1.53611   1.54598   1.55788
  Beta virt. eigenvalues --    1.56209   1.57547   1.58839   1.59592   1.59733
  Beta virt. eigenvalues --    1.59892   1.60748   1.62325   1.63005   1.64761
  Beta virt. eigenvalues --    1.66421   1.66891   1.69858   1.70109   1.71328
  Beta virt. eigenvalues --    1.72923   1.73826   1.74897   1.75710   1.76255
  Beta virt. eigenvalues --    1.76620   1.77003   1.78329   1.78619   1.81460
  Beta virt. eigenvalues --    1.82523   1.84114   1.84634   1.88678   1.90359
  Beta virt. eigenvalues --    1.91917   1.92676   1.93164   1.93831   1.94876
  Beta virt. eigenvalues --    1.95186   1.96166   1.96459   1.97742   1.99499
  Beta virt. eigenvalues --    2.00336   2.00741   2.01774   2.02217   2.02851
  Beta virt. eigenvalues --    2.03974   2.05041   2.07575   2.07838   2.08444
  Beta virt. eigenvalues --    2.11745   2.12317   2.13551   2.14549   2.16735
  Beta virt. eigenvalues --    2.17761   2.20410   2.22370   2.22912   2.24685
  Beta virt. eigenvalues --    2.26983   2.28958   2.33483   2.34847   2.35232
  Beta virt. eigenvalues --    2.37849   2.40466   2.40854   2.43878   2.46619
  Beta virt. eigenvalues --    2.46927   2.48311   2.48827   2.50931   2.53051
  Beta virt. eigenvalues --    2.54373   2.56228   2.57941   2.60247   2.62065
  Beta virt. eigenvalues --    2.63149   2.66420   2.67876   2.69714   2.71283
  Beta virt. eigenvalues --    2.72279   2.74125   2.74879   2.75080   2.76254
  Beta virt. eigenvalues --    2.77438   2.77719   2.78506   2.79888   2.81043
  Beta virt. eigenvalues --    2.81556   2.81933   2.83215   2.83742   2.83984
  Beta virt. eigenvalues --    2.86064   2.86671   2.88118   2.88557   2.90962
  Beta virt. eigenvalues --    2.91749   2.93134   2.93756   2.94215   2.96917
  Beta virt. eigenvalues --    3.00434   3.00826   3.02878   3.06248   3.07677
  Beta virt. eigenvalues --    3.09226   3.10105   3.11650   3.13184   3.15031
  Beta virt. eigenvalues --    3.16983   3.19407   3.20378   3.24070   3.25626
  Beta virt. eigenvalues --    3.26069   3.26746   3.27273   3.31325   3.34581
  Beta virt. eigenvalues --    3.35783   3.38366   3.39303   3.40999   3.44280
  Beta virt. eigenvalues --    3.45218   3.47177   3.50782   3.53352   3.53598
  Beta virt. eigenvalues --    3.55413   3.58888   3.61116   3.61384   3.68983
  Beta virt. eigenvalues --    3.69569   3.77205   3.80638   3.84918   3.87584
  Beta virt. eigenvalues --    3.91367   3.99358   4.07927   4.08651   4.10004
  Beta virt. eigenvalues --    4.15796   4.16296   4.19003   4.27587   4.33777
  Beta virt. eigenvalues --    4.36589   4.54864   4.82286   4.85939   4.86347
  Beta virt. eigenvalues --    4.88666   5.03330   5.05847   5.14291   5.15909
  Beta virt. eigenvalues --    5.32283   5.39967   5.50751   5.80142   5.84152
  Beta virt. eigenvalues --    5.88566  23.56854  23.73310  23.90521  23.92093
  Beta virt. eigenvalues --   23.94436  23.94597  23.96611  23.98474  24.00721
  Beta virt. eigenvalues --   24.01791  24.05632  24.11728  24.12136  24.21463
  Beta virt. eigenvalues --   24.22275  35.68934  50.00672  50.11240  50.16994
          Condensed to atoms (all electrons):
               1          2          3          4          5          6
     1  C    9.617351  -0.174177  -2.101457   0.957466   0.257352  -1.662916
     2  C   -0.174177   9.233811   1.590390  -2.696504  -1.263082  -1.342960
     3  C   -2.101457   1.590390  13.620501  -2.665700  -1.422438  -0.174692
     4  C    0.957466  -2.696504  -2.665700  13.565909   2.554486  -2.114489
     5  C    0.257352  -1.263082  -1.422438   2.554486  14.805128   2.741803
     6  C   -1.662916  -1.342960  -0.174692  -2.114489   2.741803  13.404512
     7  C   -1.577694   0.729828  -0.606825  -0.655454   0.022130   0.168400
     8  C    0.313450  -0.215797  -1.294335  -1.465977  -0.288754   0.650524
     9  C    0.097396   0.509341  -1.068534  -1.630905  -4.783320  -2.157316
    10  C   -0.447327  -0.135451   0.538727  -0.053373  -2.418375  -0.746876
    11  C    0.697732   0.063493  -0.408891  -0.415243  -2.663370  -1.525643
    12  C    0.173607   0.002167  -0.090242  -0.148249  -1.230673  -0.009853
    13  C   -0.176960   0.026535   0.100849   0.178776   0.236009  -0.293809
    14  C   -0.114464  -0.016966   0.227096   0.277766  -0.370754  -0.469354
    15  O    0.051154   0.135192  -0.006114  -0.032849  -0.041868  -0.722897
    16  O    0.013994  -0.017370  -0.012747   0.069655  -0.349903  -0.063978
    17  N    0.003255   0.003681  -0.001198   0.000916  -0.027670  -0.027515
    18  O    0.010593   0.137369   0.261764  -0.131374  -0.313197  -0.016727
    19  C    0.008443  -0.268504  -0.738299   0.528163   0.323692   0.002195
    20  H    0.479554  -0.172489  -0.061526   0.046785   0.011559   0.000584
    21  H   -0.090350   0.445307  -0.048453   0.009886  -0.009231  -0.031117
    22  H   -0.013182  -0.068317   0.545293  -0.084615   0.015834   0.020513
    23  H   -0.001061  -0.000528   0.000189   0.000777  -0.003283   0.006037
    24  H   -0.000860   0.000464   0.000750   0.001720   0.010671  -0.003522
    25  H    0.000799   0.000180  -0.000775  -0.000347   0.019250  -0.005909
    26  H   -0.052117  -0.007996   0.009488   0.004344   0.067268   0.092182
    27  H    0.000192  -0.000738  -0.000897  -0.000301  -0.003277   0.001209
    28  H   -0.003345  -0.021056  -0.048541   0.073977   0.034101   0.014283
    29  H    0.002009   0.036769   0.049454  -0.094580  -0.009720  -0.003176
    30  H   -0.001493   0.016290   0.056891  -0.066553  -0.009669  -0.006326
               7          8          9         10         11         12
     1  C   -1.577694   0.313450   0.097396  -0.447327   0.697732   0.173607
     2  C    0.729828  -0.215797   0.509341  -0.135451   0.063493   0.002167
     3  C   -0.606825  -1.294335  -1.068534   0.538727  -0.408891  -0.090242
     4  C   -0.655454  -1.465977  -1.630905  -0.053373  -0.415243  -0.148249
     5  C    0.022130  -0.288754  -4.783320  -2.418375  -2.663370  -1.230673
     6  C    0.168400   0.650524  -2.157316  -0.746876  -1.525643  -0.009853
     7  C   10.059608   0.981583   0.991539   0.180000  -2.544121  -1.841376
     8  C    0.981583  10.352147   1.600848  -1.263557  -0.781963  -1.145734
     9  C    0.991539   1.600848  12.876324   0.840546   1.415129  -2.765348
    10  C    0.180000  -1.263557   0.840546  11.092584  -0.423629   0.271366
    11  C   -2.544121  -0.781963   1.415129  -0.423629  11.857165   0.790622
    12  C   -1.841376  -1.145734  -2.765348   0.271366   0.790622  12.828903
    13  C   -0.100483   0.233415   0.300940  -1.885400  -0.552171   0.322935
    14  C   -0.431845  -1.992707  -0.453615   0.495411   0.964198  -0.764907
    15  O    0.907994   0.006684   0.073084   0.069197  -0.322686  -0.149047
    16  O   -0.031916   0.751699  -0.023812  -0.496502  -0.020450  -0.024940
    17  N   -0.047886   0.020841   0.096332   0.009405   0.112226  -0.281924
    18  O    0.019189  -0.030782  -0.010460  -0.012117  -0.002904  -0.001691
    19  C    0.003574  -0.058746   0.000891  -0.063736   0.000376   0.000693
    20  H    0.032657   0.017117  -0.032945  -0.009738   0.025237   0.008694
    21  H    0.017576  -0.008074   0.010104  -0.000755   0.002484   0.000239
    22  H   -0.018362  -0.010768  -0.016317  -0.000878  -0.003555  -0.000507
    23  H    0.007742  -0.018555  -0.053873   0.027527  -0.235555   0.630766
    24  H   -0.004261   0.024331   0.019214  -0.042732   0.016713  -0.100229
    25  H    0.007105   0.078843   0.015617  -0.072798   0.024592  -0.023366
    26  H    0.163821   0.007815  -0.024171   0.028223  -0.210185  -0.131147
    27  H    0.015600  -0.005256   0.014754   0.001340  -0.016244  -0.056486
    28  H    0.000604  -0.005868  -0.000512  -0.009225  -0.000255  -0.000081
    29  H    0.001670   0.004586   0.001576   0.003425   0.000375   0.000139
    30  H   -0.000076  -0.001591   0.000300   0.003267   0.000103   0.000003
              13         14         15         16         17         18
     1  C   -0.176960  -0.114464   0.051154   0.013994   0.003255   0.010593
     2  C    0.026535  -0.016966   0.135192  -0.017370   0.003681   0.137369
     3  C    0.100849   0.227096  -0.006114  -0.012747  -0.001198   0.261764
     4  C    0.178776   0.277766  -0.032849   0.069655   0.000916  -0.131374
     5  C    0.236009  -0.370754  -0.041868  -0.349903  -0.027670  -0.313197
     6  C   -0.293809  -0.469354  -0.722897  -0.063978  -0.027515  -0.016727
     7  C   -0.100483  -0.431845   0.907994  -0.031916  -0.047886   0.019189
     8  C    0.233415  -1.992707   0.006684   0.751699   0.020841  -0.030782
     9  C    0.300940  -0.453615   0.073084  -0.023812   0.096332  -0.010460
    10  C   -1.885400   0.495411   0.069197  -0.496502   0.009405  -0.012117
    11  C   -0.552171   0.964198  -0.322686  -0.020450   0.112226  -0.002904
    12  C    0.322935  -0.764907  -0.149047  -0.024940  -0.281924  -0.001691
    13  C    8.320217  -0.738114  -0.015358   0.138323   0.007895   0.000393
    14  C   -0.738114   9.330793  -0.003479   0.070532  -0.006032   0.021318
    15  O   -0.015358  -0.003479   8.722692  -0.000227  -0.098323   0.000068
    16  O    0.138323   0.070532  -0.000227   8.665734   0.000231  -0.033522
    17  N    0.007895  -0.006032  -0.098323   0.000231   7.055286  -0.000020
    18  O    0.000393   0.021318   0.000068  -0.033522  -0.000020   8.356738
    19  C   -0.001272  -0.009990  -0.000129   0.001055   0.000074   0.087549
    20  H   -0.004168  -0.002029  -0.012056   0.000628   0.001454   0.000298
    21  H    0.000492   0.000656   0.002631  -0.000554   0.000103  -0.000696
    22  H   -0.000027   0.000196   0.000012   0.001432  -0.000018  -0.037795
    23  H   -0.027949  -0.016389   0.002157  -0.000242  -0.011762  -0.000009
    24  H    0.508752  -0.126168  -0.000239   0.003597  -0.002291   0.000027
    25  H   -0.072857   0.348321   0.000026   0.001910   0.001109   0.000156
    26  H   -0.002923  -0.008754   0.070321  -0.000051   0.325319   0.000016
    27  H   -0.002941   0.013328   0.003410  -0.000028   0.344160  -0.000009
    28  H   -0.000230  -0.001139   0.000008  -0.001020   0.000001  -0.098825
    29  H    0.000228   0.000412  -0.000016  -0.000418   0.000001  -0.025981
    30  H    0.000135   0.000936  -0.000017  -0.000597   0.000001  -0.027193
              19         20         21         22         23         24
     1  C    0.008443   0.479554  -0.090350  -0.013182  -0.001061  -0.000860
     2  C   -0.268504  -0.172489   0.445307  -0.068317  -0.000528   0.000464
     3  C   -0.738299  -0.061526  -0.048453   0.545293   0.000189   0.000750
     4  C    0.528163   0.046785   0.009886  -0.084615   0.000777   0.001720
     5  C    0.323692   0.011559  -0.009231   0.015834  -0.003283   0.010671
     6  C    0.002195   0.000584  -0.031117   0.020513   0.006037  -0.003522
     7  C    0.003574   0.032657   0.017576  -0.018362   0.007742  -0.004261
     8  C   -0.058746   0.017117  -0.008074  -0.010768  -0.018555   0.024331
     9  C    0.000891  -0.032945   0.010104  -0.016317  -0.053873   0.019214
    10  C   -0.063736  -0.009738  -0.000755  -0.000878   0.027527  -0.042732
    11  C    0.000376   0.025237   0.002484  -0.003555  -0.235555   0.016713
    12  C    0.000693   0.008694   0.000239  -0.000507   0.630766  -0.100229
    13  C   -0.001272  -0.004168   0.000492  -0.000027  -0.027949   0.508752
    14  C   -0.009990  -0.002029   0.000656   0.000196  -0.016389  -0.126168
    15  O   -0.000129  -0.012056   0.002631   0.000012   0.002157  -0.000239
    16  O    0.001055   0.000628  -0.000554   0.001432  -0.000242   0.003597
    17  N    0.000074   0.001454   0.000103  -0.000018  -0.011762  -0.002291
    18  O    0.087549   0.000298  -0.000696  -0.037795  -0.000009   0.000027
    19  C    5.257760  -0.000496   0.002958   0.000816  -0.000005  -0.000031
    20  H   -0.000496   0.551250  -0.018027   0.001061  -0.000107  -0.000071
    21  H    0.002958  -0.018027   0.562034  -0.012815  -0.000004   0.000009
    22  H    0.000816   0.001061  -0.012815   0.543428  -0.000003  -0.000003
    23  H   -0.000005  -0.000107  -0.000004  -0.000003   0.573265  -0.017970
    24  H   -0.000031  -0.000071   0.000009  -0.000003  -0.017970   0.573895
    25  H    0.000012  -0.000084  -0.000004  -0.000146  -0.000418  -0.016349
    26  H   -0.000052  -0.001812  -0.000175   0.000041   0.004037  -0.000084
    27  H    0.000000   0.000311  -0.000003  -0.000005  -0.001806   0.000206
    28  H    0.414163  -0.000135   0.000070   0.006255  -0.000001  -0.000000
    29  H    0.392428  -0.000069   0.000984  -0.012772   0.000001   0.000001
    30  H    0.392363   0.000060   0.000667  -0.011861   0.000000   0.000000
              25         26         27         28         29         30
     1  C    0.000799  -0.052117   0.000192  -0.003345   0.002009  -0.001493
     2  C    0.000180  -0.007996  -0.000738  -0.021056   0.036769   0.016290
     3  C   -0.000775   0.009488  -0.000897  -0.048541   0.049454   0.056891
     4  C   -0.000347   0.004344  -0.000301   0.073977  -0.094580  -0.066553
     5  C    0.019250   0.067268  -0.003277   0.034101  -0.009720  -0.009669
     6  C   -0.005909   0.092182   0.001209   0.014283  -0.003176  -0.006326
     7  C    0.007105   0.163821   0.015600   0.000604   0.001670  -0.000076
     8  C    0.078843   0.007815  -0.005256  -0.005868   0.004586  -0.001591
     9  C    0.015617  -0.024171   0.014754  -0.000512   0.001576   0.000300
    10  C   -0.072798   0.028223   0.001340  -0.009225   0.003425   0.003267
    11  C    0.024592  -0.210185  -0.016244  -0.000255   0.000375   0.000103
    12  C   -0.023366  -0.131147  -0.056486  -0.000081   0.000139   0.000003
    13  C   -0.072857  -0.002923  -0.002941  -0.000230   0.000228   0.000135
    14  C    0.348321  -0.008754   0.013328  -0.001139   0.000412   0.000936
    15  O    0.000026   0.070321   0.003410   0.000008  -0.000016  -0.000017
    16  O    0.001910  -0.000051  -0.000028  -0.001020  -0.000418  -0.000597
    17  N    0.001109   0.325319   0.344160   0.000001   0.000001   0.000001
    18  O    0.000156   0.000016  -0.000009  -0.098825  -0.025981  -0.027193
    19  C    0.000012  -0.000052   0.000000   0.414163   0.392428   0.392363
    20  H   -0.000084  -0.001812   0.000311  -0.000135  -0.000069   0.000060
    21  H   -0.000004  -0.000175  -0.000003   0.000070   0.000984   0.000667
    22  H   -0.000146   0.000041  -0.000005   0.006255  -0.012772  -0.011861
    23  H   -0.000418   0.004037  -0.001806  -0.000001   0.000001   0.000000
    24  H   -0.016349  -0.000084   0.000206  -0.000000   0.000001   0.000000
    25  H    0.555774   0.000491  -0.000066  -0.000022   0.000028   0.000053
    26  H    0.000491   0.387616  -0.031378   0.000001   0.000002   0.000003
    27  H   -0.000066  -0.031378   0.481013  -0.000001   0.000000   0.000000
    28  H   -0.000022   0.000001  -0.000001   0.528988  -0.034621  -0.031926
    29  H    0.000028   0.000002   0.000000  -0.034621   0.603198  -0.064707
    30  H    0.000053   0.000003   0.000000  -0.031926  -0.064707   0.608173
          Atomic-Atomic Spin Densities.
               1          2          3          4          5          6
     1  C   -0.000000   0.000000   0.000000  -0.000000  -0.000000   0.000000
     2  C    0.000000  -0.000000  -0.000000   0.000000   0.000000   0.000000
     3  C    0.000000  -0.000000  -0.000000   0.000000   0.000000  -0.000000
     4  C   -0.000000   0.000000   0.000000  -0.000000  -0.000000   0.000000
     5  C   -0.000000   0.000000   0.000000  -0.000000   0.000000   0.000000
     6  C    0.000000   0.000000  -0.000000   0.000000   0.000000  -0.000000
     7  C    0.000000   0.000000  -0.000000  -0.000000  -0.000000  -0.000000
     8  C    0.000000   0.000000  -0.000000  -0.000000  -0.000000   0.000000
     9  C    0.000000   0.000000  -0.000000  -0.000000  -0.000000  -0.000000
    10  C    0.000000  -0.000000  -0.000000   0.000000  -0.000000  -0.000000
    11  C   -0.000000  -0.000000  -0.000000  -0.000000  -0.000000  -0.000000
    12  C   -0.000000  -0.000000  -0.000000   0.000000  -0.000000  -0.000000
    13  C    0.000000  -0.000000  -0.000000  -0.000000  -0.000000   0.000000
    14  C   -0.000000  -0.000000   0.000000   0.000000  -0.000000  -0.000000
    15  O   -0.000000  -0.000000  -0.000000   0.000000   0.000000   0.000000
    16  O    0.000000   0.000000   0.000000   0.000000  -0.000000  -0.000000
    17  N   -0.000000   0.000000  -0.000000  -0.000000  -0.000000  -0.000000
    18  O    0.000000  -0.000000  -0.000000   0.000000   0.000000   0.000000
    19  C   -0.000000   0.000000   0.000000  -0.000000  -0.000000   0.000000
    20  H   -0.000000   0.000000   0.000000  -0.000000  -0.000000   0.000000
    21  H    0.000000   0.000000  -0.000000   0.000000  -0.000000  -0.000000
    22  H    0.000000  -0.000000   0.000000   0.000000   0.000000  -0.000000
    23  H   -0.000000  -0.000000   0.000000   0.000000   0.000000   0.000000
    24  H    0.000000  -0.000000  -0.000000  -0.000000   0.000000   0.000000
    25  H   -0.000000   0.000000  -0.000000  -0.000000  -0.000000   0.000000
    26  H    0.000000   0.000000   0.000000   0.000000   0.000000   0.000000
    27  H   -0.000000  -0.000000  -0.000000  -0.000000  -0.000000  -0.000000
    28  H   -0.000000   0.000000   0.000000  -0.000000  -0.000000   0.000000
    29  H    0.000000  -0.000000  -0.000000   0.000000   0.000000  -0.000000
    30  H    0.000000  -0.000000  -0.000000   0.000000   0.000000  -0.000000
               7          8          9         10         11         12
     1  C    0.000000   0.000000   0.000000   0.000000  -0.000000  -0.000000
     2  C    0.000000   0.000000   0.000000  -0.000000  -0.000000  -0.000000
     3  C   -0.000000  -0.000000  -0.000000  -0.000000  -0.000000  -0.000000
[...]
    28  H   -0.000000   0.000000  -0.000000  -0.000000   0.000000   0.000000
    29  H    0.000000  -0.000000   0.000000   0.000000  -0.000000  -0.000000
    30  H    0.000000  -0.000000   0.000000   0.000000  -0.000000  -0.000000
 Mulliken charges and spin densities:
               1          2
     1  C   -0.266942  -0.000000
     2  C   -0.528879   0.000000
     3  C   -0.249728  -0.000000
     4  C   -0.014113  -0.000000
     5  C    0.109299  -0.000000
     6  C    0.276835   0.000000
     7  C   -0.450319   0.000000
     8  C   -0.455420   0.000000
     9  C    0.157195   0.000000
    10  C    0.521452   0.000000
    11  C    0.156420  -0.000000
    12  C   -0.264335   0.000000
    13  C   -0.501232  -0.000000
    14  C   -0.224253  -0.000000
    15  O   -0.639325   0.000000
    16  O   -0.640517  -0.000000
    17  N   -0.477650   0.000000
    18  O   -0.152179   0.000000
    19  C   -0.275946  -0.000000
    20  H    0.138502  -0.000000
    21  H    0.164057   0.000000
    22  H    0.157065  -0.000000
    23  H    0.137022   0.000000
    24  H    0.154459  -0.000000
    25  H    0.138875   0.000000
    26  H    0.309855  -0.000000
    27  H    0.243914   0.000000
    28  H    0.184350   0.000000
    29  H    0.148773   0.000000
    30  H    0.142764  -0.000000
 Sum of Mulliken charges =  -2.00000  -0.00000
 Mulliken charges and spin densities with hydrogens summed into heavy atoms:
               1          2
     1  C   -0.128440  -0.000000
     2  C   -0.364822   0.000000
     3  C   -0.092663  -0.000000
     4  C   -0.014113  -0.000000
     5  C    0.109299  -0.000000
     6  C    0.276835   0.000000
     7  C   -0.450319   0.000000
     8  C   -0.455420   0.000000
     9  C    0.157195   0.000000
    10  C    0.521452   0.000000
    11  C    0.156420  -0.000000
    12  C   -0.127313   0.000000
    13  C   -0.346772  -0.000000
    14  C   -0.085378  -0.000000
    15  O   -0.639325   0.000000
    16  O   -0.640517  -0.000000
    17  N    0.076119  -0.000000
    18  O   -0.152179   0.000000
    19  C    0.199941  -0.000000
 Electronic spatial extent (au):  <R**2>=           5084.4211
 Charge=             -2.0000 electrons
 Dipole moment (field-independent basis, Debye):
    X=              4.8583    Y=              0.4594    Z=             -1.1249  Tot=              5.0079
 Quadrupole moment (field-independent basis, Debye-Ang):
   XX=           -134.2270   YY=           -168.1565   ZZ=           -125.0405
   XY=              8.5307   XZ=              5.4260   YZ=             -1.5048
 Traceless Quadrupole moment (field-independent basis, Debye-Ang):
   XX=              8.2476   YY=            -25.6818   ZZ=             17.4342
   XY=              8.5307   XZ=              5.4260   YZ=             -1.5048
 Octapole moment (field-independent basis, Debye-Ang**2):
  XXX=            101.9951  YYY=             -6.9625  ZZZ=             -1.1701  XYY=             20.9918
  XXY=            -15.9524  XXZ=            -25.7091  XZZ=             13.3442  YZZ=             -3.9820
  YYZ=             -3.5651  XYZ=              9.8903
 Hexadecapole moment (field-independent basis, Debye-Ang**3):
 XXXX=          -4686.7374 YYYY=          -2428.3134 ZZZZ=           -168.0209 XXXY=           -163.2028
 XXXZ=            120.7295 YYYX=             51.8062 YYYZ=             -1.2696 ZZZX=              6.3865
 ZZZY=             -3.6300 XXYY=          -1240.2488 XXZZ=           -935.2171 YYZZ=           -419.1917
 XXYZ=            -45.3091 YYXZ=             18.0901 ZZXY=            -40.0852
 N-N= 1.349634990764D+03 E-N=-4.743958378438D+03  KE= 8.555476248802D+02
                          Isotropic Fermi Contact Couplings
        Atom                 a.u.       MegaHertz       Gauss      10(-4) cm-1
     1  C(13)             -0.00000      -0.00000      -0.00000      -0.00000
     2  C(13)             -0.00000      -0.00000      -0.00000      -0.00000
     3  C(13)              0.00000       0.00000       0.00000       0.00000
     4  C(13)              0.00000       0.00000       0.00000       0.00000
     5  C(13)             -0.00000      -0.00000      -0.00000      -0.00000
     6  C(13)             -0.00000      -0.00000      -0.00000      -0.00000
     7  C(13)             -0.00000      -0.00000      -0.00000      -0.00000
     8  C(13)             -0.00000      -0.00000      -0.00000      -0.00000
     9  C(13)             -0.00000      -0.00000      -0.00000      -0.00000
    10  C(13)             -0.00000      -0.00000      -0.00000      -0.00000
    11  C(13)             -0.00000      -0.00000      -0.00000      -0.00000
    12  C(13)              0.00000       0.00000       0.00000       0.00000
    13  C(13)              0.00000       0.00000       0.00000       0.00000
    14  C(13)             -0.00000      -0.00000      -0.00000      -0.00000
    15  O(17)             -0.00000       0.00000       0.00000       0.00000
    16  O(17)             -0.00000       0.00000       0.00000       0.00000
    17  N(14)              0.00000       0.00000       0.00000       0.00000
    18  O(17)             -0.00000       0.00000       0.00000       0.00000
    19  C(13)             -0.00000      -0.00000      -0.00000      -0.00000
    20  H(1)               0.00000       0.00000       0.00000       0.00000
    21  H(1)              -0.00000      -0.00000      -0.00000      -0.00000
    22  H(1)               0.00000       0.00000       0.00000       0.00000
    23  H(1)              -0.00000      -0.00000      -0.00000      -0.00000
    24  H(1)              -0.00000      -0.00000      -0.00000      -0.00000
    25  H(1)              -0.00000      -0.00000      -0.00000      -0.00000
    26  H(1)              -0.00000      -0.00000      -0.00000      -0.00000
    27  H(1)               0.00000       0.00000       0.00000       0.00000
    28  H(1)              -0.00000      -0.00000      -0.00000      -0.00000
    29  H(1)               0.00000       0.00000       0.00000       0.00000
    30  H(1)              -0.00000      -0.00000      -0.00000      -0.00000
 --------------------------------------------------------
       Center         ----  Spin Dipole Couplings  ----
                      3XX-RR        3YY-RR        3ZZ-RR
 --------------------------------------------------------
     1   Atom        0.000000     -0.000000     -0.000000
     2   Atom        0.000000     -0.000000     -0.000000
     3   Atom        0.000000     -0.000000      0.000000
     4   Atom       -0.000000      0.000000      0.000000
     5   Atom       -0.000000      0.000000     -0.000000
     6   Atom       -0.000000      0.000000      0.000000
     7   Atom       -0.000000      0.000000      0.000000
     8   Atom        0.000000     -0.000000      0.000000
     9   Atom       -0.000000      0.000000     -0.000000
    10   Atom       -0.000000      0.000000     -0.000000
    11   Atom        0.000000     -0.000000     -0.000000
    12   Atom       -0.000000     -0.000000      0.000000
    13   Atom        0.000000     -0.000000      0.000000
    14   Atom        0.000000     -0.000000      0.000000
    15   Atom       -0.000000      0.000000     -0.000000
    16   Atom        0.000000     -0.000000     -0.000000
    17   Atom       -0.000000      0.000000     -0.000000
    18   Atom        0.000000     -0.000000      0.000000
    19   Atom        0.000000     -0.000000      0.000000
    20   Atom        0.000000     -0.000000     -0.000000
    21   Atom        0.000000     -0.000000     -0.000000
    22   Atom       -0.000000      0.000000      0.000000
    23   Atom       -0.000000     -0.000000      0.000000
    24   Atom       -0.000000      0.000000     -0.000000
    25   Atom       -0.000000      0.000000     -0.000000
    26   Atom       -0.000000     -0.000000      0.000000
    27   Atom        0.000000     -0.000000     -0.000000
    28   Atom        0.000000      0.000000     -0.000000
    29   Atom       -0.000000      0.000000      0.000000
    30   Atom       -0.000000      0.000000     -0.000000
 --------------------------------------------------------
                        XY            XZ            YZ
 --------------------------------------------------------
     1   Atom       -0.000000      0.000000      0.000000
     2   Atom       -0.000000     -0.000000      0.000000
     3   Atom        0.000000      0.000000      0.000000
     4   Atom       -0.000000     -0.000000     -0.000000
     5   Atom        0.000000     -0.000000     -0.000000
     6   Atom       -0.000000      0.000000      0.000000
     7   Atom       -0.000000     -0.000000     -0.000000
     8   Atom       -0.000000      0.000000      0.000000
     9   Atom       -0.000000     -0.000000      0.000000
    10   Atom       -0.000000     -0.000000      0.000000
    11   Atom        0.000000     -0.000000      0.000000
    12   Atom       -0.000000     -0.000000      0.000000
    13   Atom       -0.000000      0.000000     -0.000000
    14   Atom       -0.000000      0.000000      0.000000
    15   Atom        0.000000      0.000000      0.000000
    16   Atom        0.000000      0.000000     -0.000000
    17   Atom       -0.000000      0.000000      0.000000
    18   Atom       -0.000000      0.000000      0.000000
    19   Atom        0.000000      0.000000     -0.000000
    20   Atom        0.000000      0.000000      0.000000
    21   Atom        0.000000     -0.000000     -0.000000
    22   Atom       -0.000000      0.000000     -0.000000
    23   Atom       -0.000000      0.000000      0.000000
    24   Atom        0.000000      0.000000      0.000000
    25   Atom        0.000000     -0.000000      0.000000
    26   Atom        0.000000     -0.000000      0.000000
    27   Atom        0.000000      0.000000     -0.000000
    28   Atom        0.000000     -0.000000      0.000000
    29   Atom        0.000000     -0.000000      0.000000
    30   Atom        0.000000      0.000000     -0.000000
 --------------------------------------------------------


 ---------------------------------------------------------------------------------
              Anisotropic Spin Dipole Couplings in Principal Axis System
 ---------------------------------------------------------------------------------

       Atom             a.u.   MegaHertz   Gauss  10(-4) cm-1        Axes

              Baa    -0.0000    -0.000    -0.000    -0.000  0.3830  0.7743 -0.5038
     1 C(13)  Bbb    -0.0000    -0.000    -0.000    -0.000 -0.1263  0.5842  0.8018
              Bcc     0.0000     0.000     0.000     0.000  0.9151 -0.2434  0.3215
 
              Baa    -0.0000    -0.000    -0.000    -0.000  0.5156  0.8384 -0.1770
     2 C(13)  Bbb    -0.0000    -0.000    -0.000    -0.000  0.2183  0.0712  0.9733
              Bcc     0.0000     0.000     0.000     0.000  0.8285 -0.5405 -0.1463
 
              Baa    -0.0000    -0.000    -0.000    -0.000 -0.3192  0.9266 -0.1986
     3 C(13)  Bbb     0.0000     0.000     0.000     0.000 -0.1610  0.1535  0.9749
              Bcc     0.0000     0.000     0.000     0.000  0.9339  0.3432  0.1002
 
              Baa    -0.0000    -0.000    -0.000    -0.000  0.7480  0.5850  0.3134
     4 C(13)  Bbb     0.0000     0.000     0.000     0.000 -0.3645 -0.0325  0.9306
              Bcc     0.0000     0.000     0.000     0.000 -0.5546  0.8104 -0.1889
 
              Baa    -0.0000    -0.000    -0.000    -0.000  0.8086 -0.3662 -0.4605
     5 C(13)  Bbb    -0.0000    -0.000    -0.000    -0.000  0.4826 -0.0349  0.8752
              Bcc     0.0000     0.000     0.000     0.000  0.3366  0.9299 -0.1485
 
              Baa    -0.0000    -0.000    -0.000    -0.000  0.9367  0.2993 -0.1815
     6 C(13)  Bbb     0.0000     0.000     0.000     0.000 -0.3486  0.7505 -0.5614
              Bcc     0.0000     0.000     0.000     0.000 -0.0318  0.5892  0.8074
 
              Baa    -0.0000    -0.000    -0.000    -0.000  0.7689  0.5742  0.2813
     7 C(13)  Bbb     0.0000     0.000     0.000     0.000 -0.4846  0.2365  0.8421
              Bcc     0.0000     0.000     0.000     0.000 -0.4170  0.7839 -0.4601
 
              Baa    -0.0000    -0.000    -0.000    -0.000  0.6475  0.6511 -0.3959
     8 C(13)  Bbb     0.0000     0.000     0.000     0.000 -0.2885  0.6903  0.6635
              Bcc     0.0000     0.000     0.000     0.000  0.7053 -0.3154  0.6348
 
              Baa    -0.0000    -0.000    -0.000    -0.000 -0.0169 -0.4396  0.8981
     9 C(13)  Bbb    -0.0000    -0.000    -0.000    -0.000  0.9665  0.2228  0.1272
              Bcc     0.0000     0.000     0.000     0.000 -0.2560  0.8702  0.4211
 
              Baa    -0.0000    -0.000    -0.000    -0.000  0.8218  0.4596 -0.3368
    10 C(13)  Bbb    -0.0000    -0.000    -0.000    -0.000  0.4465 -0.1523  0.8817
              Bcc     0.0000     0.000     0.000     0.000 -0.3540  0.8750  0.3304
 
              Baa    -0.0000    -0.000    -0.000    -0.000 -0.3231  0.6828 -0.6553
    11 C(13)  Bbb     0.0000     0.000     0.000     0.000 -0.5106  0.4572  0.7281
              Bcc     0.0000     0.000     0.000     0.000  0.7968  0.5698  0.2009
 
              Baa    -0.0000    -0.000    -0.000    -0.000  0.2420  0.9637 -0.1128
    12 C(13)  Bbb     0.0000     0.000     0.000     0.000  0.9693 -0.2350  0.0718
              Bcc     0.0000     0.000     0.000     0.000 -0.0427  0.1267  0.9910
 
              Baa    -0.0000    -0.000    -0.000    -0.000  0.6665  0.6921 -0.2771
    13 C(13)  Bbb    -0.0000    -0.000    -0.000    -0.000 -0.2762  0.5745  0.7705
              Bcc     0.0000     0.000     0.000     0.000  0.6924 -0.4371  0.5740
 
              Baa    -0.0000    -0.000    -0.000    -0.000  0.2991  0.9476 -0.1122
    14 C(13)  Bbb     0.0000     0.000     0.000     0.000 -0.5074  0.2576  0.8223
              Bcc     0.0000     0.000     0.000     0.000  0.8081 -0.1890  0.5579
 
              Baa    -0.0000     0.000     0.000     0.000  0.7739 -0.0891 -0.6270
    15 O(17)  Bbb    -0.0000     0.000     0.000     0.000 -0.4058  0.6903 -0.5990
              Bcc     0.0000    -0.000    -0.000    -0.000  0.4862  0.7180  0.4981
 
              Baa    -0.0000     0.000     0.000     0.000 -0.1486  0.9841  0.0972
    16 O(17)  Bbb    -0.0000     0.000     0.000     0.000 -0.2168 -0.1283  0.9677
              Bcc     0.0000    -0.000    -0.000    -0.000  0.9648  0.1227  0.2324
 
              Baa    -0.0000    -0.000    -0.000    -0.000 -0.5750 -0.4582  0.6778
    17 N(14)  Bbb     0.0000     0.000     0.000     0.000 -0.6234  0.7819 -0.0002
              Bcc     0.0000     0.000     0.000     0.000  0.5298  0.4227  0.7353
 
              Baa    -0.0000     0.000     0.000     0.000  0.4235  0.8857 -0.1900
    18 O(17)  Bbb     0.0000    -0.000    -0.000    -0.000 -0.2848  0.3293  0.9003
              Bcc     0.0000    -0.000    -0.000    -0.000  0.8599 -0.3272  0.3917
 
              Baa    -0.0000    -0.000    -0.000    -0.000 -0.3284  0.9333  0.1450
    19 C(13)  Bbb     0.0000     0.000     0.000     0.000 -0.0600 -0.1738  0.9829
              Bcc     0.0000     0.000     0.000     0.000  0.9426  0.3141  0.1130
 
              Baa    -0.0000    -0.000    -0.000    -0.000  0.0133  0.8945 -0.4469
    20 H(1)   Bbb    -0.0000    -0.000    -0.000    -0.000 -0.1726  0.4423  0.8801
              Bcc     0.0000     0.000     0.000     0.000  0.9849  0.0654  0.1602
 
              Baa    -0.0000    -0.000    -0.000    -0.000 -0.3603  0.9322 -0.0341
    21 H(1)   Bbb    -0.0000    -0.000    -0.000    -0.000  0.2100  0.1167  0.9707
              Bcc     0.0000     0.000     0.000     0.000  0.9089  0.3426 -0.2378
 
              Baa    -0.0000    -0.000    -0.000    -0.000  0.9740  0.2238 -0.0360
    22 H(1)   Bbb     0.0000     0.000     0.000     0.000 -0.1844  0.8745  0.4486
              Bcc     0.0000     0.000     0.000     0.000  0.1319 -0.4302  0.8930
 
              Baa    -0.0000    -0.000    -0.000    -0.000  0.7801  0.5204 -0.3472
    23 H(1)   Bbb     0.0000     0.000     0.000     0.000 -0.3874  0.8376  0.3852
              Bcc     0.0000     0.000     0.000     0.000  0.4912 -0.1660  0.8551
 
              Baa    -0.0000    -0.000    -0.000    -0.000  0.2418 -0.1884  0.9519
    24 H(1)   Bbb    -0.0000    -0.000    -0.000    -0.000  0.8819 -0.3664 -0.2966
              Bcc     0.0000     0.000     0.000     0.000  0.4046  0.9112  0.0776
 
              Baa    -0.0000    -0.000    -0.000    -0.000  0.3637 -0.1121  0.9248
    25 H(1)   Bbb     0.0000     0.000     0.000     0.000  0.9315  0.0412 -0.3614
              Bcc     0.0000     0.000     0.000     0.000  0.0024  0.9928  0.1194
 
              Baa    -0.0000    -0.000    -0.000    -0.000 -0.6233  0.7676 -0.1497
    26 H(1)   Bbb     0.0000     0.000     0.000     0.000  0.2249  0.3592  0.9057
              Bcc     0.0000     0.000     0.000     0.000  0.7490  0.5309 -0.3965
 
              Baa    -0.0000    -0.000    -0.000    -0.000 -0.2338  0.4035  0.8846
    27 H(1)   Bbb     0.0000     0.000     0.000     0.000 -0.0426  0.9047 -0.4239
              Bcc     0.0000     0.000     0.000     0.000  0.9713  0.1368  0.1944
 
              Baa    -0.0000    -0.000    -0.000    -0.000  0.0993 -0.0652  0.9929
    28 H(1)   Bbb     0.0000     0.000     0.000     0.000 -0.4222  0.9008  0.1013
              Bcc     0.0000     0.000     0.000     0.000  0.9010  0.4293 -0.0619
 
              Baa    -0.0000    -0.000    -0.000    -0.000  0.9432 -0.2212  0.2478
    29 H(1)   Bbb    -0.0000    -0.000    -0.000    -0.000 -0.3318 -0.6633  0.6708
              Bcc     0.0000     0.000     0.000     0.000 -0.0160  0.7149  0.6990
 
              Baa    -0.0000    -0.000    -0.000    -0.000 -0.0909  0.3430  0.9349
    30 H(1)   Bbb    -0.0000    -0.000    -0.000    -0.000  0.9955  0.0574  0.0757
              Bcc     0.0000     0.000     0.000     0.000 -0.0277  0.9376 -0.3466
 

 ---------------------------------------------------------------------------------

 No NMR shielding tensors so no spin-rotation constants.
 Leave Link  601 at Sun Jan 14 01:29:17 2024, MaxMem=  4026531840 cpu:               3.3 elap:               0.5
 (Enter /sysapps/ubuntu-applications/gaussian/Gaussian/AVX2/g16/l9999.exe)
 1\1\GINC-ACIDSCN019\SP\UB3LYP\6-311++G(d,p)\C15H11N1O3(2-)\SELHAJJ1\14
 -Jan-2024\0\\#P UB3LYP/6-311++G(d,p) SCRF=(PCM,Solvent=n,n-DiMethylFor
 mamide)\\Reduced\\-2,1\C,0,-2.234727,3.237773,4.099805\C,0,-3.458255,2
 .686276,4.375649\C,0,-3.89268,1.532297,3.671534\C,0,-3.084865,0.96944,
 2.692806\C,0,-1.797095,1.51723,2.355723\C,0,-1.3745,2.686928,3.110159\
 C,0,-0.110866,3.350977,2.904502\C,0,-0.933059,0.946913,1.33137\C,0,0.7
 37322,2.814431,1.867169\C,0,0.345813,1.637337,1.132549\C,0,2.018912,3.
 405415,1.561806\C,0,2.86351,2.816713,0.628208\C,0,2.471678,1.644785,-0
 .061695\C,0,1.236826,1.083451,0.179086\O,0,0.223402,4.378929,3.633998\
 O,0,-1.213618,-0.080932,0.639326\N,0,2.38715,4.608178,2.187522\O,0,-3.
 497375,-0.145114,2.00097\C,0,-4.748922,-0.708628,2.300577\H,0,-1.87061
 7,4.116088,4.61967\H,0,-4.106103,3.119609,5.135401\H,0,-4.863134,1.110
 188,3.897536\H,0,3.817839,3.294132,0.409159\H,0,3.146785,1.199608,-0.7
 90894\H,0,0.898657,0.193623,-0.33918\H,0,1.736299,4.792357,2.974219\H,
 0,3.372412,4.659439,2.409289\H,0,-4.843198,-1.591409,1.663179\H,0,-5.5
 84134,-0.024595,2.083803\H,0,-4.832759,-1.024609,3.351992\\Version=ES6
 4L-G16RevA.03\State=1-A\HF=-859.1129955\S2=0.\S2-1=0.\S2A=0.\RMSD=4.71
 1e-09\Dipole=-1.5493062,-0.833093,0.8874613\Quadrupole=11.3115381,-10.
 8289374,-0.4826008,-4.4798456,2.2828096,-13.9584203\PG=C01 [X(C15H11N1
 O3)]\\@


 IT'S WHAT A FELLER THINKS HE KNOWS THAT HURTS HIM...
                    ------
           KIN HUBBARD
 Job cpu time:       0 days  0 hours 33 minutes  9.5 seconds.
 Elapsed time:       0 days  0 hours  4 minutes 35.0 seconds.
 File lengths (MBytes):  RWF=    329 Int=      0 D2E=      0 Chk=     19 Scr=      1
 Normal termination of Gaussian 16 at Sun Jan 14 01:29:17 2024.
