 Entering Gaussian System, Link 0=g16
 Input=252-rad.com
 Output=252-rad.log
 Initial command:
 /sysapps/ubuntu-applications/gaussian/Gaussian/AVX2/g16/l1.exe "/scratch/selhajj1/4308373/Gau-3085568.inp" -scrdir="/scratch/selhajj1/4308373/"
 Entering Link 1 = /sysapps/ubuntu-applications/gaussian/Gaussian/AVX2/g16/l1.exe PID=   3085588.
  
 Copyright (c) 1988,1990,1992,1993,1995,1998,2003,2009,2016,
            Gaussian, Inc.  All Rights Reserved.
  
 This is part of the Gaussian(R) 16 program.  It is based on
 the Gaussian(R) 09 system (copyright 2009, Gaussian, Inc.),
 the Gaussian(R) 03 system (copyright 2003, Gaussian, Inc.),
 the Gaussian(R) 98 system (copyright 1998, Gaussian, Inc.),
 the Gaussian(R) 94 system (copyright 1995, Gaussian, Inc.),
 the Gaussian 92(TM) system (copyright 1992, Gaussian, Inc.),
 the Gaussian 90(TM) system (copyright 1990, Gaussian, Inc.),
 the Gaussian 88(TM) system (copyright 1988, Gaussian, Inc.),
 the Gaussian 86(TM) system (copyright 1986, Carnegie Mellon
 University), and the Gaussian 82(TM) system (copyright 1983,
 Carnegie Mellon University). Gaussian is a federally registered
 trademark of Gaussian, Inc.
  
 This software contains proprietary and confidential information,
 including trade secrets, belonging to Gaussian, Inc.
  
 This software is provided under written license and may be
 used, copied, transmitted, or stored only in accord with that
 written license.
  
 The following legend is applicable only to US Government
 contracts under FAR:
  
                    RESTRICTED RIGHTS LEGEND
  
 Use, reproduction and disclosure by the US Government is
 subject to restrictions as set forth in subparagraphs (a)
 and (c) of the Commercial Computer Software - Restricted
 Rights clause in FAR 52.227-19.
  
 Gaussian, Inc.
 340 Quinnipiac St., Bldg. 40, Wallingford CT 06492
  
  
 ---------------------------------------------------------------
 Warning -- This program may not be used in any manner that
 competes with the business of Gaussian, Inc. or will provide
 assistance to any competitor of Gaussian, Inc.  The licensee
 of this program is prohibited from giving any competitor of
 Gaussian, Inc. access to this program.  By using this program,
 the user acknowledges that Gaussian, Inc. is engaged in the
 business of creating and licensing software in the field of
 computational chemistry and represents and warrants to the
 licensee that it is not a competitor of Gaussian, Inc. and that
 it will not use this program in any manner prohibited above.
 ---------------------------------------------------------------
  

 Cite this work as:
 Gaussian 16, Revision A.03,
 M. J. Frisch, G. W. Trucks, H. B. Schlegel, G. E. Scuseria, 
 M. A. Robb, J. R. Cheeseman, G. Scalmani, V. Barone, 
 G. A. Petersson, H. Nakatsuji, X. Li, M. Caricato, A. V. Marenich, 
 J. Bloino, B. G. Janesko, R. Gomperts, B. Mennucci, H. P. Hratchian, 
 J. V. Ortiz, A. F. Izmaylov, J. L. Sonnenberg, D. Williams-Young, 
 F. Ding, F. Lipparini, F. Egidi, J. Goings, B. Peng, A. Petrone, 
 T. Henderson, D. Ranasinghe, V. G. Zakrzewski, J. Gao, N. Rega, 
 G. Zheng, W. Liang, M. Hada, M. Ehara, K. Toyota, R. Fukuda, 
 J. Hasegawa, M. Ishida, T. Nakajima, Y. Honda, O. Kitao, H. Nakai, 
 T. Vreven, K. Throssell, J. A. Montgomery, Jr., J. E. Peralta, 
 F. Ogliaro, M. J. Bearpark, J. J. Heyd, E. N. Brothers, K. N. Kudin, 
 V. N. Staroverov, T. A. Keith, R. Kobayashi, J. Normand, 
 K. Raghavachari, A. P. Rendell, J. C. Burant, S. S. Iyengar, 
 J. Tomasi, M. Cossi, J. M. Millam, M. Klene, C. Adamo, R. Cammi, 
 J. W. Ochterski, R. L. Martin, K. Morokuma, O. Farkas, 
 J. B. Foresman, and D. J. Fox, Gaussian, Inc., Wallingford CT, 2016.
 
 ******************************************
 Gaussian 16:  ES64L-G16RevA.03 25-Dec-2016
                22-Jan-2024 
 ******************************************
 %chk=252-rad.chk
 %nproc=8
 Will use up to    8 processors via shared memory.
 %mem=30GB
 ---------------------------------------------------
 #P UB3LYP/6-311++G(d,p) nosym opt freq Int=Acc2E=11
 ---------------------------------------------------
 1/18=20,19=15,26=3,38=1/1,3;
 2/9=110,12=2,15=1,17=6,18=5,40=1/2;
 3/5=4,6=6,7=1111,11=2,25=1,27=11,30=1,71=1,74=-5,116=2/1,2,3;
 4//1;
 5/5=2,38=5,87=11/2;
 6/7=2,8=2,9=2,10=2,28=1,87=11/1;
 7/30=1,87=11/1,2,3,16;
 1/18=20,19=15,26=3/3(2);
 2/9=110,15=1/2;
 99//99;
 2/9=110,15=1/2;
 3/5=4,6=6,7=1111,11=2,25=1,27=11,30=1,71=1,74=-5,116=2/1,2,3;
 4/5=5,16=3,69=1/1;
 5/5=2,38=5,87=11/2;
 7/30=1,87=11/1,2,3,16;
 1/18=20,19=15,26=3/3(-5);
 2/9=110,15=1/2;
 6/7=2,8=2,9=2,10=2,19=2,28=1,87=11/1;
 99/9=1/99;
 Leave Link    1 at Mon Jan 22 18:34:40 2024, MaxMem=  4026531840 cpu:               0.5 elap:               0.1
 (Enter /sysapps/ubuntu-applications/gaussian/Gaussian/AVX2/g16/l101.exe)
 -------
 Radical
 -------
 Symbolic Z-matrix:
 Charge = -1 Multiplicity = 2
 C                    -3.45962   5.51625   3.51652 
 C                    -2.44941   6.0207    4.31616 
 C                    -2.02305   5.29927   5.44878 
 C                    -4.07559   4.28456   3.81536 
 C                    -3.64602   3.55918   4.955 
 C                    -2.61631   4.08824   5.75812 
 C                    -5.14822   3.77473   2.94705 
 C                    -5.73861   2.50301   3.31784 
 C                    -5.30443   1.78863   4.42863 
 C                    -4.25929   2.27052   5.30523 
 O                    -5.52402   4.4264    1.93304 
 O                    -3.88581   1.62214   6.32347 
 H                    -1.9849    6.97188   4.07224 
 H                    -1.22997   5.69438   6.07719 
 C                    -6.84718   1.99036   2.42958 
 H                    -3.80822   6.04904   2.63921 
 H                    -2.31051   3.51089   6.62322 
 H                    -6.54922   1.0819    1.88939 
 H                    -7.09323   2.75396   1.69141 
 H                    -7.7462    1.74421   3.00419 
 C                    -5.91361   0.44876   4.80791 
 C                    -7.04508   0.59458   5.79433 
 C                    -8.27999   0.07327   5.75382 
 C                    -9.25999   0.35427   6.87571 
 C                    -9.58377  -0.8784    7.75902 
 C                    -10.60532  -0.57356   8.81801 
 C                    -10.4592  -0.54885   10.15075 
 C                    -8.80236  -0.80546   4.64156 
 C                    -11.63145  -0.17892   11.03779 
 C                    -11.47952   1.18789   11.75244 
 C                    -12.64356   1.49233   12.65338 
 C                    -13.5388   2.48679   12.56756 
 C                    -9.17437  -0.8735    10.87373 
 C                    -13.52296   3.56101   11.50724 
 C                    -14.65543   2.59395   13.58707 
 C                    -16.0649   2.28929   13.01928 
 C                    -17.14462   2.4639    14.05063 
 C                    -17.9675   1.54376   14.57388 
 C                    -17.97984   0.08656   14.18011 
 C                    -18.98192   1.94247   15.62722 
 C                    -18.68313   1.38295   17.04117 
 C                    -19.7441   1.75874   18.03796 
 C                    -19.639    2.52932   19.13006 
 C                    -18.35787   3.17399   19.60066 
 C                    -20.85648   2.79404   19.9933 
 C                    -21.37263   4.25396   19.93267 
 C                    -22.54388   4.48219   20.84739 
 C                    -23.80532   4.81163   20.53478 
 C                    -24.30202   5.05351   19.1301 
 C                    -24.84053   4.97874   21.62919 
 C                    -25.93093   3.87804   21.64656 
 C                    -26.96582   4.11818   22.71052 
 C                    -27.25368   3.36961   23.78371 
 C                    -26.56944   2.07378   24.14049 
 C                    -28.3348   3.78781   24.75109 
 H                    -5.12358  -0.13106   5.29908 
 H                    -6.22888  -0.09884   3.91795 
 H                    -6.78762   1.21447   6.65102 
 H                    -10.20247   0.73548   6.45574 
 H                    -8.86154   1.14485   7.51792 
 H                    -8.65166  -1.25047   8.18986 
 H                    -9.97292  -1.68097   7.12008 
 H                    -11.59115  -0.31584   8.42813 
 H                    -8.11171  -0.86628   3.80096 
 H                    -9.75901  -0.42312   4.2629 
 H                    -8.9893   -1.82975   4.98758 
 H                    -11.77157  -0.95602   11.80261 
 H                    -12.5489  -0.15783   10.44198 
 H                    -11.3384   1.96336   10.99676 
 H                    -10.56424   1.17447   12.35648 
 H                    -12.76778   0.78851   13.47749 
 H                    -8.37809  -1.1874    10.20021 
 H                    -9.33732  -1.6764    11.60348 
 H                    -8.80396  -0.00944   11.43606 
 H                    -12.67971   3.47134   10.82381 
 H                    -13.47539   4.55385   11.97058 
 H                    -14.43805   3.54076   10.90542 
 H                    -14.66446   3.60713   14.01224 
 H                    -14.46108   1.90867   14.41743 
 H                    -16.06321   1.27992   12.60215 
 H                    -16.26743   2.96974   12.1834 
 H                    -17.24848   3.48444   14.42089 
 H                    -17.26664  -0.14654   13.39038 
 H                    -18.97712  -0.20555   13.82974 
 H                    -17.74785  -0.55847   15.03449 
 H                    -19.97918   1.59739   15.32115 
 H                    -19.0352   3.03322   15.69054 
 H                    -17.69514   1.72886   17.35267 
 H                    -18.62598   0.28895   16.98773 
 H                    -20.73022   1.34833   17.81786 
 H                    -17.50136   2.92621   18.97478 
 H                    -18.12736   2.86012   20.62575 
 H                    -18.44626   4.26549   19.62118 
 H                    -20.6204   2.55249   21.03876 
 H                    -21.66994   2.12633   19.69491 
 H                    -21.61613   4.4962    18.89592 
 H                    -20.56243   4.93195   20.22732 
 H                    -22.31809   4.34601   21.90553 
 H                    -23.51864   4.96015   18.37882 
 H                    -24.73066   6.05924   19.04556 
 H                    -25.09945   4.35136   18.86426 
 H                    -25.33373   5.95399   21.51682 
 H                    -24.345    4.99084   22.60426 
 H                    -25.44709   2.90617   21.76704 
 H                    -26.43185   3.8549    20.67107 
 H                    -27.53964   5.03597   22.57983 
 H                    -25.77782   1.79749   23.44481 
 H                    -27.29459   1.25167   24.16993 
 H                    -26.13042   2.13624   25.14322 
 H                    -28.80259   4.729     24.45506 
 H                    -27.93051   3.9105    25.76315 
 H                    -29.11859   3.0236    24.8188 
 
 ITRead=  0  0  0  0  0  0  0  0  0  0  0  0  0  0  0  0  0  0  0  0
 ITRead=  0  0  0  0  0  0  0  0  0  0  0  0  0  0  0  0  0  0  0  0
 ITRead=  0  0  0  0  0  0  0  0  0  0  0  0  0  0  0  0  0  0  0  0
 ITRead=  0  0  0  0  0  0  0  0  0  0  0  0  0  0  0  0  0  0  0  0
 ITRead=  0  0  0  0  0  0  0  0  0  0  0  0  0  0  0  0  0  0  0  0
 ITRead=  0  0  0  0  0  0  0  0  0  0  0  0
 MicOpt= -1 -1 -1 -1 -1 -1 -1 -1 -1 -1 -1 -1 -1 -1 -1 -1 -1 -1 -1 -1
 MicOpt= -1 -1 -1 -1 -1 -1 -1 -1 -1 -1 -1 -1 -1 -1 -1 -1 -1 -1 -1 -1
 MicOpt= -1 -1 -1 -1 -1 -1 -1 -1 -1 -1 -1 -1 -1 -1 -1 -1 -1 -1 -1 -1
 MicOpt= -1 -1 -1 -1 -1 -1 -1 -1 -1 -1 -1 -1 -1 -1 -1 -1 -1 -1 -1 -1
 MicOpt= -1 -1 -1 -1 -1 -1 -1 -1 -1 -1 -1 -1 -1 -1 -1 -1 -1 -1 -1 -1
 MicOpt= -1 -1 -1 -1 -1 -1 -1 -1 -1 -1 -1 -1
 NAtoms=    112 NQM=      112 NQMF=       0 NMMI=      0 NMMIF=      0
                NMic=       0 NMicF=      0.
                    Isotopes and Nuclear Properties:
 (Nuclear quadrupole moments (NQMom) in fm**2, nuclear magnetic moments (NMagM)
  in nuclear magnetons)

  Atom         1           2           3           4           5           6           7           8           9          10
 IAtWgt=          12          12          12          12          12          12          12          12          12          12
 AtmWgt=  12.0000000  12.0000000  12.0000000  12.0000000  12.0000000  12.0000000  12.0000000  12.0000000  12.0000000  12.0000000
 NucSpn=           0           0           0           0           0           0           0           0           0           0
 AtZEff=  -0.0000000  -0.0000000  -0.0000000  -0.0000000  -0.0000000  -0.0000000  -0.0000000  -0.0000000  -0.0000000  -0.0000000
 NQMom=    0.0000000   0.0000000   0.0000000   0.0000000   0.0000000   0.0000000   0.0000000   0.0000000   0.0000000   0.0000000
 NMagM=    0.0000000   0.0000000   0.0000000   0.0000000   0.0000000   0.0000000   0.0000000   0.0000000   0.0000000   0.0000000
 AtZNuc=   6.0000000   6.0000000   6.0000000   6.0000000   6.0000000   6.0000000   6.0000000   6.0000000   6.0000000   6.0000000

  Atom        11          12          13          14          15          16          17          18          19          20
 IAtWgt=          16          16           1           1          12           1           1           1           1           1
 AtmWgt=  15.9949146  15.9949146   1.0078250   1.0078250  12.0000000   1.0078250   1.0078250   1.0078250   1.0078250   1.0078250
 NucSpn=           0           0           1           1           0           1           1           1           1           1
 AtZEff=  -0.0000000  -0.0000000  -0.0000000  -0.0000000  -0.0000000  -0.0000000  -0.0000000  -0.0000000  -0.0000000  -0.0000000
 NQMom=    0.0000000   0.0000000   0.0000000   0.0000000   0.0000000   0.0000000   0.0000000   0.0000000   0.0000000   0.0000000
 NMagM=    0.0000000   0.0000000   2.7928460   2.7928460   0.0000000   2.7928460   2.7928460   2.7928460   2.7928460   2.7928460
 AtZNuc=   8.0000000   8.0000000   1.0000000   1.0000000   6.0000000   1.0000000   1.0000000   1.0000000   1.0000000   1.0000000

  Atom        21          22          23          24          25          26          27          28          29          30
 IAtWgt=          12          12          12          12          12          12          12          12          12          12
 AtmWgt=  12.0000000  12.0000000  12.0000000  12.0000000  12.0000000  12.0000000  12.0000000  12.0000000  12.0000000  12.0000000
 NucSpn=           0           0           0           0           0           0           0           0           0           0
 AtZEff=  -0.0000000  -0.0000000  -0.0000000  -0.0000000  -0.0000000  -0.0000000  -0.0000000  -0.0000000  -0.0000000  -0.0000000
 NQMom=    0.0000000   0.0000000   0.0000000   0.0000000   0.0000000   0.0000000   0.0000000   0.0000000   0.0000000   0.0000000
 NMagM=    0.0000000   0.0000000   0.0000000   0.0000000   0.0000000   0.0000000   0.0000000   0.0000000   0.0000000   0.0000000
 AtZNuc=   6.0000000   6.0000000   6.0000000   6.0000000   6.0000000   6.0000000   6.0000000   6.0000000   6.0000000   6.0000000

  Atom        31          32          33          34          35          36          37          38          39          40
 IAtWgt=          12          12          12          12          12          12          12          12          12          12
 AtmWgt=  12.0000000  12.0000000  12.0000000  12.0000000  12.0000000  12.0000000  12.0000000  12.0000000  12.0000000  12.0000000
 NucSpn=           0           0           0           0           0           0           0           0           0           0
 AtZEff=  -0.0000000  -0.0000000  -0.0000000  -0.0000000  -0.0000000  -0.0000000  -0.0000000  -0.0000000  -0.0000000  -0.0000000
 NQMom=    0.0000000   0.0000000   0.0000000   0.0000000   0.0000000   0.0000000   0.0000000   0.0000000   0.0000000   0.0000000
 NMagM=    0.0000000   0.0000000   0.0000000   0.0000000   0.0000000   0.0000000   0.0000000   0.0000000   0.0000000   0.0000000
 AtZNuc=   6.0000000   6.0000000   6.0000000   6.0000000   6.0000000   6.0000000   6.0000000   6.0000000   6.0000000   6.0000000

  Atom        41          42          43          44          45          46          47          48          49          50
 IAtWgt=          12          12          12          12          12          12          12          12          12          12
 AtmWgt=  12.0000000  12.0000000  12.0000000  12.0000000  12.0000000  12.0000000  12.0000000  12.0000000  12.0000000  12.0000000
 NucSpn=           0           0           0           0           0           0           0           0           0           0
 AtZEff=  -0.0000000  -0.0000000  -0.0000000  -0.0000000  -0.0000000  -0.0000000  -0.0000000  -0.0000000  -0.0000000  -0.0000000
 NQMom=    0.0000000   0.0000000   0.0000000   0.0000000   0.0000000   0.0000000   0.0000000   0.0000000   0.0000000   0.0000000
 NMagM=    0.0000000   0.0000000   0.0000000   0.0000000   0.0000000   0.0000000   0.0000000   0.0000000   0.0000000   0.0000000
 AtZNuc=   6.0000000   6.0000000   6.0000000   6.0000000   6.0000000   6.0000000   6.0000000   6.0000000   6.0000000   6.0000000

  Atom        51          52          53          54          55          56          57          58          59          60
 IAtWgt=          12          12          12          12          12           1           1           1           1           1
 AtmWgt=  12.0000000  12.0000000  12.0000000  12.0000000  12.0000000   1.0078250   1.0078250   1.0078250   1.0078250   1.0078250
 NucSpn=           0           0           0           0           0           1           1           1           1           1
 AtZEff=  -0.0000000  -0.0000000  -0.0000000  -0.0000000  -0.0000000  -0.0000000  -0.0000000  -0.0000000  -0.0000000  -0.0000000
 NQMom=    0.0000000   0.0000000   0.0000000   0.0000000   0.0000000   0.0000000   0.0000000   0.0000000   0.0000000   0.0000000
 NMagM=    0.0000000   0.0000000   0.0000000   0.0000000   0.0000000   2.7928460   2.7928460   2.7928460   2.7928460   2.7928460
 AtZNuc=   6.0000000   6.0000000   6.0000000   6.0000000   6.0000000   1.0000000   1.0000000   1.0000000   1.0000000   1.0000000

  Atom        61          62          63          64          65          66          67          68          69          70
 IAtWgt=           1           1           1           1           1           1           1           1           1           1
 AtmWgt=   1.0078250   1.0078250   1.0078250   1.0078250   1.0078250   1.0078250   1.0078250   1.0078250   1.0078250   1.0078250
 NucSpn=           1           1           1           1           1           1           1           1           1           1
 AtZEff=  -0.0000000  -0.0000000  -0.0000000  -0.0000000  -0.0000000  -0.0000000  -0.0000000  -0.0000000  -0.0000000  -0.0000000
 NQMom=    0.0000000   0.0000000   0.0000000   0.0000000   0.0000000   0.0000000   0.0000000   0.0000000   0.0000000   0.0000000
 NMagM=    2.7928460   2.7928460   2.7928460   2.7928460   2.7928460   2.7928460   2.7928460   2.7928460   2.7928460   2.7928460
 AtZNuc=   1.0000000   1.0000000   1.0000000   1.0000000   1.0000000   1.0000000   1.0000000   1.0000000   1.0000000   1.0000000

  Atom        71          72          73          74          75          76          77          78          79          80
 IAtWgt=           1           1           1           1           1           1           1           1           1           1
 AtmWgt=   1.0078250   1.0078250   1.0078250   1.0078250   1.0078250   1.0078250   1.0078250   1.0078250   1.0078250   1.0078250
 NucSpn=           1           1           1           1           1           1           1           1           1           1
 AtZEff=  -0.0000000  -0.0000000  -0.0000000  -0.0000000  -0.0000000  -0.0000000  -0.0000000  -0.0000000  -0.0000000  -0.0000000
 NQMom=    0.0000000   0.0000000   0.0000000   0.0000000   0.0000000   0.0000000   0.0000000   0.0000000   0.0000000   0.0000000
 NMagM=    2.7928460   2.7928460   2.7928460   2.7928460   2.7928460   2.7928460   2.7928460   2.7928460   2.7928460   2.7928460
 AtZNuc=   1.0000000   1.0000000   1.0000000   1.0000000   1.0000000   1.0000000   1.0000000   1.0000000   1.0000000   1.0000000

  Atom        81          82          83          84          85          86          87          88          89          90
 IAtWgt=           1           1           1           1           1           1           1           1           1           1
 AtmWgt=   1.0078250   1.0078250   1.0078250   1.0078250   1.0078250   1.0078250   1.0078250   1.0078250   1.0078250   1.0078250
 NucSpn=           1           1           1           1           1           1           1           1           1           1
 AtZEff=  -0.0000000  -0.0000000  -0.0000000  -0.0000000  -0.0000000  -0.0000000  -0.0000000  -0.0000000  -0.0000000  -0.0000000
 NQMom=    0.0000000   0.0000000   0.0000000   0.0000000   0.0000000   0.0000000   0.0000000   0.0000000   0.0000000   0.0000000
 NMagM=    2.7928460   2.7928460   2.7928460   2.7928460   2.7928460   2.7928460   2.7928460   2.7928460   2.7928460   2.7928460
 AtZNuc=   1.0000000   1.0000000   1.0000000   1.0000000   1.0000000   1.0000000   1.0000000   1.0000000   1.0000000   1.0000000

  Atom        91          92          93          94          95          96          97          98          99         100
 IAtWgt=           1           1           1           1           1           1           1           1           1           1
 AtmWgt=   1.0078250   1.0078250   1.0078250   1.0078250   1.0078250   1.0078250   1.0078250   1.0078250   1.0078250   1.0078250
 NucSpn=           1           1           1           1           1           1           1           1           1           1
 AtZEff=  -0.0000000  -0.0000000  -0.0000000  -0.0000000  -0.0000000  -0.0000000  -0.0000000  -0.0000000  -0.0000000  -0.0000000
 NQMom=    0.0000000   0.0000000   0.0000000   0.0000000   0.0000000   0.0000000   0.0000000   0.0000000   0.0000000   0.0000000
 NMagM=    2.7928460   2.7928460   2.7928460   2.7928460   2.7928460   2.7928460   2.7928460   2.7928460   2.7928460   2.7928460
 AtZNuc=   1.0000000   1.0000000   1.0000000   1.0000000   1.0000000   1.0000000   1.0000000   1.0000000   1.0000000   1.0000000

  Atom       101         102         103         104         105         106         107         108         109         110
 IAtWgt=           1           1           1           1           1           1           1           1           1           1
 AtmWgt=   1.0078250   1.0078250   1.0078250   1.0078250   1.0078250   1.0078250   1.0078250   1.0078250   1.0078250   1.0078250
 NucSpn=           1           1           1           1           1           1           1           1           1           1
 AtZEff=  -0.0000000  -0.0000000  -0.0000000  -0.0000000  -0.0000000  -0.0000000  -0.0000000  -0.0000000  -0.0000000  -0.0000000
 NQMom=    0.0000000   0.0000000   0.0000000   0.0000000   0.0000000   0.0000000   0.0000000   0.0000000   0.0000000   0.0000000
 NMagM=    2.7928460   2.7928460   2.7928460   2.7928460   2.7928460   2.7928460   2.7928460   2.7928460   2.7928460   2.7928460
 AtZNuc=   1.0000000   1.0000000   1.0000000   1.0000000   1.0000000   1.0000000   1.0000000   1.0000000   1.0000000   1.0000000

  Atom       111         112
 IAtWgt=           1           1
 AtmWgt=   1.0078250   1.0078250
 NucSpn=           1           1
 AtZEff=  -0.0000000  -0.0000000
 NQMom=    0.0000000   0.0000000
 NMagM=    2.7928460   2.7928460
 AtZNuc=   1.0000000   1.0000000
 Leave Link  101 at Mon Jan 22 18:34:41 2024, MaxMem=  4026531840 cpu:               3.7 elap:               0.8
 (Enter /sysapps/ubuntu-applications/gaussian/Gaussian/AVX2/g16/l103.exe)

 GradGradGradGradGradGradGradGradGradGradGradGradGradGradGradGradGradGrad
 Berny optimization.
 Initialization pass.
                           ----------------------------
                           !    Initial Parameters    !
                           ! (Angstroms and Degrees)  !
 --------------------------                            --------------------------
 ! Name  Definition              Value          Derivative Info.                !
 --------------------------------------------------------------------------------
 ! R1    R(1,2)                  1.3836         estimate D2E/DX2                !
 ! R2    R(1,4)                  1.4092         estimate D2E/DX2                !
 ! R3    R(1,16)                 1.084          estimate D2E/DX2                !
 ! R4    R(2,3)                  1.4089         estimate D2E/DX2                !
 ! R5    R(2,13)                 1.0863         estimate D2E/DX2                !
 ! R6    R(3,6)                  1.3836         estimate D2E/DX2                !
 ! R7    R(3,14)                 1.0863         estimate D2E/DX2                !
 ! R8    R(4,5)                  1.4176         estimate D2E/DX2                !
 ! R9    R(4,7)                  1.4712         estimate D2E/DX2                !
 ! R10   R(5,6)                  1.409          estimate D2E/DX2                !
 ! R11   R(5,10)                 1.4695         estimate D2E/DX2                !
 ! R12   R(6,17)                 1.0841         estimate D2E/DX2                !
 ! R13   R(7,8)                  1.4503         estimate D2E/DX2                !
 ! R14   R(7,11)                 1.2626         estimate D2E/DX2                !
 ! R15   R(8,9)                  1.3902         estimate D2E/DX2                !
 ! R16   R(8,15)                 1.5102         estimate D2E/DX2                !
 ! R17   R(9,10)                 1.4467         estimate D2E/DX2                !
 ! R18   R(9,21)                 1.5199         estimate D2E/DX2                !
 ! R19   R(10,12)                1.2636         estimate D2E/DX2                !
 ! R20   R(15,18)                1.0981         estimate D2E/DX2                !
 ! R21   R(15,19)                1.0902         estimate D2E/DX2                !
 ! R22   R(15,20)                1.095          estimate D2E/DX2                !
 ! R23   R(21,22)                1.5082         estimate D2E/DX2                !
 ! R24   R(21,56)                1.0962         estimate D2E/DX2                !
 ! R25   R(21,57)                1.0915         estimate D2E/DX2                !
 ! R26   R(22,23)                1.341          estimate D2E/DX2                !
 ! R27   R(22,58)                1.0883         estimate D2E/DX2                !
 ! R28   R(23,24)                1.5159         estimate D2E/DX2                !
 ! R29   R(23,28)                1.5107         estimate D2E/DX2                !
 ! R30   R(24,25)                1.5507         estimate D2E/DX2                !
 ! R31   R(24,59)                1.1            estimate D2E/DX2                !
 ! R32   R(24,60)                1.0937         estimate D2E/DX2                !
 ! R33   R(25,26)                1.5027         estimate D2E/DX2                !
 ! R34   R(25,61)                1.0922         estimate D2E/DX2                !
 ! R35   R(25,62)                1.0972         estimate D2E/DX2                !
 ! R36   R(26,27)                1.341          estimate D2E/DX2                !
 ! R37   R(26,63)                1.091          estimate D2E/DX2                !
 ! R38   R(27,29)                1.5159         estimate D2E/DX2                !
 ! R39   R(27,33)                1.5096         estimate D2E/DX2                !
 ! R40   R(28,64)                1.0896         estimate D2E/DX2                !
 ! R41   R(28,65)                1.0976         estimate D2E/DX2                !
 ! R42   R(28,66)                1.0972         estimate D2E/DX2                !
 ! R43   R(29,30)                1.5498         estimate D2E/DX2                !
 ! R44   R(29,67)                1.0993         estimate D2E/DX2                !
 ! R45   R(29,68)                1.0941         estimate D2E/DX2                !
 ! R46   R(30,31)                1.5031         estimate D2E/DX2                !
 ! R47   R(30,69)                1.0919         estimate D2E/DX2                !
 ! R48   R(30,70)                1.0967         estimate D2E/DX2                !
 ! R49   R(31,32)                1.3408         estimate D2E/DX2                !
 ! R50   R(31,71)                1.0908         estimate D2E/DX2                !
 ! R51   R(32,34)                1.5095         estimate D2E/DX2                !
 ! R52   R(32,35)                1.5158         estimate D2E/DX2                !
 ! R53   R(33,72)                1.0891         estimate D2E/DX2                !
 ! R54   R(33,73)                1.0972         estimate D2E/DX2                !
 ! R55   R(33,74)                1.0955         estimate D2E/DX2                !
 ! R56   R(34,75)                1.0891         estimate D2E/DX2                !
 ! R57   R(34,76)                1.0967         estimate D2E/DX2                !
 ! R58   R(34,77)                1.0954         estimate D2E/DX2                !
 ! R59   R(35,36)                1.5498         estimate D2E/DX2                !
 ! R60   R(35,78)                1.0988         estimate D2E/DX2                !
 ! R61   R(35,79)                1.094          estimate D2E/DX2                !
 ! R62   R(36,37)                1.5033         estimate D2E/DX2                !
 ! R63   R(36,80)                1.0922         estimate D2E/DX2                !
 ! R64   R(36,81)                1.0967         estimate D2E/DX2                !
 ! R65   R(37,38)                1.3407         estimate D2E/DX2                !
 ! R66   R(37,82)                1.0906         estimate D2E/DX2                !
 ! R67   R(38,39)                1.5095         estimate D2E/DX2                !
 ! R68   R(38,40)                1.5158         estimate D2E/DX2                !
 ! R69   R(39,83)                1.0893         estimate D2E/DX2                !
 ! R70   R(39,84)                1.0967         estimate D2E/DX2                !
 ! R71   R(39,85)                1.0954         estimate D2E/DX2                !
 ! R72   R(40,41)                1.5497         estimate D2E/DX2                !
 ! R73   R(40,86)                1.0988         estimate D2E/DX2                !
 ! R74   R(40,87)                1.0939         estimate D2E/DX2                !
 ! R75   R(41,42)                1.5035         estimate D2E/DX2                !
 ! R76   R(41,88)                1.0922         estimate D2E/DX2                !
 ! R77   R(41,89)                1.0968         estimate D2E/DX2                !
 ! R78   R(42,43)                1.3407         estimate D2E/DX2                !
 ! R79   R(42,90)                1.0906         estimate D2E/DX2                !
 ! R80   R(43,44)                1.5094         estimate D2E/DX2                !
 ! R81   R(43,45)                1.5158         estimate D2E/DX2                !
 ! R82   R(44,91)                1.0894         estimate D2E/DX2                !
 ! R83   R(44,92)                1.0966         estimate D2E/DX2                !
 ! R84   R(44,93)                1.0953         estimate D2E/DX2                !
 ! R85   R(45,46)                1.5497         estimate D2E/DX2                !
 ! R86   R(45,94)                1.0987         estimate D2E/DX2                !
 ! R87   R(45,95)                1.0939         estimate D2E/DX2                !
 ! R88   R(46,47)                1.5035         estimate D2E/DX2                !
 ! R89   R(46,96)                1.0922         estimate D2E/DX2                !
 ! R90   R(46,97)                1.0968         estimate D2E/DX2                !
 ! R91   R(47,48)                1.3407         estimate D2E/DX2                !
 ! R92   R(47,98)                1.0905         estimate D2E/DX2                !
 ! R93   R(48,49)                1.5094         estimate D2E/DX2                !
 ! R94   R(48,50)                1.5157         estimate D2E/DX2                !
 ! R95   R(49,99)                1.0894         estimate D2E/DX2                !
 ! R96   R(49,100)               1.0965         estimate D2E/DX2                !
 ! R97   R(49,101)               1.0952         estimate D2E/DX2                !
 ! R98   R(50,51)                1.5495         estimate D2E/DX2                !
 ! R99   R(50,102)               1.0986         estimate D2E/DX2                !
 ! R100  R(50,103)               1.0938         estimate D2E/DX2                !
 ! R101  R(51,52)                1.5036         estimate D2E/DX2                !
 ! R102  R(51,104)               1.0923         estimate D2E/DX2                !
 ! R103  R(51,105)               1.0968         estimate D2E/DX2                !
 ! R104  R(52,53)                1.3398         estimate D2E/DX2                !
 ! R105  R(52,106)               1.0903         estimate D2E/DX2                !
 ! R106  R(53,54)                1.5082         estimate D2E/DX2                !
 ! R107  R(53,55)                1.5098         estimate D2E/DX2                !
 ! R108  R(54,107)               1.0895         estimate D2E/DX2                !
 ! R109  R(54,108)               1.0966         estimate D2E/DX2                !
 ! R110  R(54,109)               1.0964         estimate D2E/DX2                !
 ! R111  R(55,110)               1.0919         estimate D2E/DX2                !
 ! R112  R(55,111)               1.0967         estimate D2E/DX2                !
 ! R113  R(55,112)               1.0968         estimate D2E/DX2                !
 ! A1    A(2,1,4)              121.0143         estimate D2E/DX2                !
 ! A2    A(2,1,16)             121.5563         estimate D2E/DX2                !
 ! A3    A(4,1,16)             117.4294         estimate D2E/DX2                !
 ! A4    A(1,2,3)              119.9241         estimate D2E/DX2                !
 ! A5    A(1,2,13)             120.111          estimate D2E/DX2                !
 ! A6    A(3,2,13)             119.9649         estimate D2E/DX2                !
 ! A7    A(2,3,6)              119.8789         estimate D2E/DX2                !
 ! A8    A(2,3,14)             119.9834         estimate D2E/DX2                !
 ! A9    A(6,3,14)             120.1377         estimate D2E/DX2                !
 ! A10   A(1,4,5)              119.0314         estimate D2E/DX2                !
 ! A11   A(1,4,7)              119.7641         estimate D2E/DX2                !
 ! A12   A(5,4,7)              121.2045         estimate D2E/DX2                !
 ! A13   A(4,5,6)              119.1809         estimate D2E/DX2                !
 ! A14   A(4,5,10)             120.9228         estimate D2E/DX2                !
 ! A15   A(6,5,10)             119.8963         estimate D2E/DX2                !
 ! A16   A(3,6,5)              120.9703         estimate D2E/DX2                !
 ! A17   A(3,6,17)             121.5755         estimate D2E/DX2                !
 ! A18   A(5,6,17)             117.4542         estimate D2E/DX2                !
 ! A19   A(4,7,8)              116.73           estimate D2E/DX2                !
 ! A20   A(4,7,11)             120.8067         estimate D2E/DX2                !
 ! A21   A(8,7,11)             122.4633         estimate D2E/DX2                !
 ! A22   A(7,8,9)              121.8523         estimate D2E/DX2                !
 ! A23   A(7,8,15)             116.4942         estimate D2E/DX2                !
 ! A24   A(9,8,15)             121.6529         estimate D2E/DX2                !
 ! A25   A(8,9,10)             122.5885         estimate D2E/DX2                !
 ! A26   A(8,9,21)             121.8159         estimate D2E/DX2                !
 ! A27   A(10,9,21)            115.5927         estimate D2E/DX2                !
 ! A28   A(5,10,9)             116.6912         estimate D2E/DX2                !
 ! A29   A(5,10,12)            121.2436         estimate D2E/DX2                !
 ! A30   A(9,10,12)            122.0652         estimate D2E/DX2                !
 ! A31   A(8,15,18)            111.7765         estimate D2E/DX2                !
 ! A32   A(8,15,19)            109.0358         estimate D2E/DX2                !
 ! A33   A(8,15,20)            111.7359         estimate D2E/DX2                !
 ! A34   A(18,15,19)           107.9155         estimate D2E/DX2                !
 ! A35   A(18,15,20)           107.1536         estimate D2E/DX2                !
 ! A36   A(19,15,20)           109.1156         estimate D2E/DX2                !
 ! A37   A(9,21,22)            112.2512         estimate D2E/DX2                !
 ! A38   A(9,21,56)            106.8124         estimate D2E/DX2                !
 ! A39   A(9,21,57)            110.7674         estimate D2E/DX2                !
 ! A40   A(22,21,56)           107.3847         estimate D2E/DX2                !
 ! A41   A(22,21,57)           111.4144         estimate D2E/DX2                !
 ! A42   A(56,21,57)           107.9482         estimate D2E/DX2                !
 ! A43   A(21,22,23)           129.3099         estimate D2E/DX2                !
 ! A44   A(21,22,58)           113.1062         estimate D2E/DX2                !
 ! A45   A(23,22,58)           117.5834         estimate D2E/DX2                !
 ! A46   A(22,23,24)           120.059          estimate D2E/DX2                !
 ! A47   A(22,23,28)           124.5256         estimate D2E/DX2                !
 ! A48   A(24,23,28)           115.4155         estimate D2E/DX2                !
 ! A49   A(23,24,25)           114.1544         estimate D2E/DX2                !
 ! A50   A(23,24,59)           109.6084         estimate D2E/DX2                !
 ! A51   A(23,24,60)           109.4531         estimate D2E/DX2                !
 ! A52   A(25,24,59)           108.3048         estimate D2E/DX2                !
 ! A53   A(25,24,60)           108.4334         estimate D2E/DX2                !
 ! A54   A(59,24,60)           106.6079         estimate D2E/DX2                !
 ! A55   A(24,25,26)           112.4659         estimate D2E/DX2                !
 ! A56   A(24,25,61)           108.5008         estimate D2E/DX2                !
 ! A57   A(24,25,62)           108.8942         estimate D2E/DX2                !
 ! A58   A(26,25,61)           111.7952         estimate D2E/DX2                !
 ! A59   A(26,25,62)           108.5224         estimate D2E/DX2                !
 ! A60   A(61,25,62)           106.4526         estimate D2E/DX2                !
 ! A61   A(25,26,27)           129.0571         estimate D2E/DX2                !
 ! A62   A(25,26,63)           114.228          estimate D2E/DX2                !
 ! A63   A(27,26,63)           116.6974         estimate D2E/DX2                !
 ! A64   A(26,27,29)           120.1203         estimate D2E/DX2                !
 ! A65   A(26,27,33)           124.386          estimate D2E/DX2                !
 ! A66   A(29,27,33)           115.4936         estimate D2E/DX2                !
 ! A67   A(23,28,64)           112.4138         estimate D2E/DX2                !
 ! A68   A(23,28,65)           110.6558         estimate D2E/DX2                !
 ! A69   A(23,28,66)           111.6999         estimate D2E/DX2                !
 ! A70   A(64,28,65)           107.8024         estimate D2E/DX2                !
 ! A71   A(64,28,66)           107.4084         estimate D2E/DX2                !
 ! A72   A(65,28,66)           106.588          estimate D2E/DX2                !
 ! A73   A(27,29,30)           114.157          estimate D2E/DX2                !
 ! A74   A(27,29,67)           109.4617         estimate D2E/DX2                !
 ! A75   A(27,29,68)           109.5415         estimate D2E/DX2                !
 ! A76   A(30,29,67)           108.3669         estimate D2E/DX2                !
 ! A77   A(30,29,68)           108.4391         estimate D2E/DX2                !
 ! A78   A(67,29,68)           106.5956         estimate D2E/DX2                !
 ! A79   A(29,30,31)           112.2773         estimate D2E/DX2                !
 ! A80   A(29,30,69)           108.6548         estimate D2E/DX2                !
 ! A81   A(29,30,70)           108.9652         estimate D2E/DX2                !
 ! A82   A(31,30,69)           111.7809         estimate D2E/DX2                !
 ! A83   A(31,30,70)           108.5813         estimate D2E/DX2                !
 ! A84   A(69,30,70)           106.3792         estimate D2E/DX2                !
 ! A85   A(30,31,32)           128.9705         estimate D2E/DX2                !
 ! A86   A(30,31,71)           114.2259         estimate D2E/DX2                !
 ! A87   A(32,31,71)           116.7987         estimate D2E/DX2                !
 ! A88   A(31,32,34)           124.4567         estimate D2E/DX2                !
 ! A89   A(31,32,35)           120.0816         estimate D2E/DX2                !
 ! A90   A(34,32,35)           115.459          estimate D2E/DX2                !
 ! A91   A(27,33,72)           112.8346         estimate D2E/DX2                !
 ! A92   A(27,33,73)           110.4579         estimate D2E/DX2                !
 ! A93   A(27,33,74)           111.3463         estimate D2E/DX2                !
 ! A94   A(72,33,73)           107.998          estimate D2E/DX2                !
 ! A95   A(72,33,74)           107.311          estimate D2E/DX2                !
 ! A96   A(73,33,74)           106.6195         estimate D2E/DX2                !
 ! A97   A(32,34,75)           112.9741         estimate D2E/DX2                !
 ! A98   A(32,34,76)           110.3619         estimate D2E/DX2                !
 ! A99   A(32,34,77)           111.3459         estimate D2E/DX2                !
 ! A100  A(75,34,76)           107.8228         estimate D2E/DX2                !
 ! A101  A(75,34,77)           107.4887         estimate D2E/DX2                !
 ! A102  A(76,34,77)           106.5643         estimate D2E/DX2                !
 ! A103  A(32,35,36)           114.1823         estimate D2E/DX2                !
 ! A104  A(32,35,78)           109.3583         estimate D2E/DX2                !
 ! A105  A(32,35,79)           109.5927         estimate D2E/DX2                !
 ! A106  A(36,35,78)           108.3944         estimate D2E/DX2                !
 ! A107  A(36,35,79)           108.4518         estimate D2E/DX2                !
 ! A108  A(78,35,79)           106.5802         estimate D2E/DX2                !
 ! A109  A(35,36,37)           112.2724         estimate D2E/DX2                !
 ! A110  A(35,36,80)           108.6747         estimate D2E/DX2                !
 ! A111  A(35,36,81)           108.9792         estimate D2E/DX2                !
 ! A112  A(37,36,80)           111.7451         estimate D2E/DX2                !
 ! A113  A(37,36,81)           108.554          estimate D2E/DX2                !
 ! A114  A(80,36,81)           106.4165         estimate D2E/DX2                !
 ! A115  A(36,37,38)           128.9645         estimate D2E/DX2                !
 ! A116  A(36,37,82)           114.2051         estimate D2E/DX2                !
 ! A117  A(38,37,82)           116.8252         estimate D2E/DX2                !
 ! A118  A(37,38,39)           124.4527         estimate D2E/DX2                !
 ! A119  A(37,38,40)           120.0944         estimate D2E/DX2                !
 ! A120  A(39,38,40)           115.4507         estimate D2E/DX2                !
 ! A121  A(38,39,83)           112.9749         estimate D2E/DX2                !
 ! A122  A(38,39,84)           110.3595         estimate D2E/DX2                !
 ! A123  A(38,39,85)           111.3011         estimate D2E/DX2                !
 ! A124  A(83,39,84)           107.8642         estimate D2E/DX2                !
 ! A125  A(83,39,85)           107.505          estimate D2E/DX2                !
 ! A126  A(84,39,85)           106.5552         estimate D2E/DX2                !
 ! A127  A(38,40,41)           114.2074         estimate D2E/DX2                !
 ! A128  A(38,40,86)           109.3436         estimate D2E/DX2                !
 ! A129  A(38,40,87)           109.5795         estimate D2E/DX2                !
 ! A130  A(41,40,86)           108.4062         estimate D2E/DX2                !
 ! A131  A(41,40,87)           108.4571         estimate D2E/DX2                !
 ! A132  A(86,40,87)           106.5634         estimate D2E/DX2                !
 ! A133  A(40,41,42)           112.2475         estimate D2E/DX2                !
 ! A134  A(40,41,88)           108.6807         estimate D2E/DX2                !
 ! A135  A(40,41,89)           109.0095         estimate D2E/DX2                !
 ! A136  A(42,41,88)           111.7222         estimate D2E/DX2                !
 ! A137  A(42,41,89)           108.565          estimate D2E/DX2                !
 ! A138  A(88,41,89)           106.4199         estimate D2E/DX2                !
 ! A139  A(41,42,43)           128.9309         estimate D2E/DX2                !
 ! A140  A(41,42,90)           114.2195         estimate D2E/DX2                !
 ! A141  A(43,42,90)           116.8447         estimate D2E/DX2                !
 ! A142  A(42,43,44)           124.4695         estimate D2E/DX2                !
 ! A143  A(42,43,45)           120.0869         estimate D2E/DX2                !
 ! A144  A(44,43,45)           115.4416         estimate D2E/DX2                !
 ! A145  A(43,44,91)           113.0204         estimate D2E/DX2                !
 ! A146  A(43,44,92)           110.3412         estimate D2E/DX2                !
 ! A147  A(43,44,93)           111.2829         estimate D2E/DX2                !
 ! A148  A(91,44,92)           107.8608         estimate D2E/DX2                !
 ! A149  A(91,44,93)           107.5113         estimate D2E/DX2                !
 ! A150  A(92,44,93)           106.5409         estimate D2E/DX2                !
 ! A151  A(43,45,46)           114.1911         estimate D2E/DX2                !
 ! A152  A(43,45,94)           109.3256         estimate D2E/DX2                !
 ! A153  A(43,45,95)           109.5939         estimate D2E/DX2                !
 ! A154  A(46,45,94)           108.4166         estimate D2E/DX2                !
 ! A155  A(46,45,95)           108.4629         estimate D2E/DX2                !
 ! A156  A(94,45,95)           106.5687         estimate D2E/DX2                !
 ! A157  A(45,46,47)           112.2514         estimate D2E/DX2                !
 ! A158  A(45,46,96)           108.6841         estimate D2E/DX2                !
 ! A159  A(45,46,97)           109.0146         estimate D2E/DX2                !
 ! A160  A(47,46,96)           111.7259         estimate D2E/DX2                !
 ! A161  A(47,46,97)           108.5526         estimate D2E/DX2                !
 ! A162  A(96,46,97)           106.4158         estimate D2E/DX2                !
 ! A163  A(46,47,48)           128.9313         estimate D2E/DX2                !
 ! A164  A(46,47,98)           114.2098         estimate D2E/DX2                !
 ! A165  A(48,47,98)           116.8554         estimate D2E/DX2                !
 ! A166  A(47,48,49)           124.47           estimate D2E/DX2                !
 ! A167  A(47,48,50)           120.0897         estimate D2E/DX2                !
 ! A168  A(49,48,50)           115.4376         estimate D2E/DX2                !
 ! A169  A(48,49,99)           113.0418         estimate D2E/DX2                !
 ! A170  A(48,49,100)          110.3258         estimate D2E/DX2                !
 ! A171  A(48,49,101)          111.2679         estimate D2E/DX2                !
 ! A172  A(99,49,100)          107.8501         estimate D2E/DX2                !
 ! A173  A(99,49,101)          107.5318         estimate D2E/DX2                !
 ! A174  A(100,49,101)         106.5397         estimate D2E/DX2                !
 ! A175  A(48,50,51)           114.2312         estimate D2E/DX2                !
 ! A176  A(48,50,102)          109.3076         estimate D2E/DX2                !
 ! A177  A(48,50,103)          109.6005         estimate D2E/DX2                !
 ! A178  A(51,50,102)          108.4109         estimate D2E/DX2                !
 ! A179  A(51,50,103)          108.4615         estimate D2E/DX2                !
 ! A180  A(102,50,103)         106.5427         estimate D2E/DX2                !
 ! A181  A(50,51,52)           112.2626         estimate D2E/DX2                !
 ! A182  A(50,51,104)          108.7582         estimate D2E/DX2                !
 ! A183  A(50,51,105)          109.0504         estimate D2E/DX2                !
 ! A184  A(52,51,104)          111.65           estimate D2E/DX2                !
 ! A185  A(52,51,105)          108.5642         estimate D2E/DX2                !
 ! A186  A(104,51,105)         106.3571         estimate D2E/DX2                !
 ! A187  A(51,52,53)           128.7174         estimate D2E/DX2                !
 ! A188  A(51,52,106)          114.3237         estimate D2E/DX2                !
 ! A189  A(53,52,106)          116.9539         estimate D2E/DX2                !
 ! A190  A(52,53,54)           124.8948         estimate D2E/DX2                !
 ! A191  A(52,53,55)           120.8191         estimate D2E/DX2                !
 ! A192  A(54,53,55)           114.2857         estimate D2E/DX2                !
 ! A193  A(53,54,107)          113.3588         estimate D2E/DX2                !
 ! A194  A(53,54,108)          110.516          estimate D2E/DX2                !
 ! A195  A(53,54,109)          110.4301         estimate D2E/DX2                !
 ! A196  A(107,54,108)         107.908          estimate D2E/DX2                !
 ! A197  A(107,54,109)         107.9081         estimate D2E/DX2                !
 ! A198  A(108,54,109)         106.4352         estimate D2E/DX2                !
 ! A199  A(53,55,110)          111.828          estimate D2E/DX2                !
 ! A200  A(53,55,111)          110.9953         estimate D2E/DX2                !
 ! A201  A(53,55,112)          110.9939         estimate D2E/DX2                !
 ! A202  A(110,55,111)         108.1608         estimate D2E/DX2                !
 ! A203  A(110,55,112)         108.1303         estimate D2E/DX2                !
 ! A204  A(111,55,112)         106.5236         estimate D2E/DX2                !
 ! D1    D(4,1,2,3)             -0.0004         estimate D2E/DX2                !
 ! D2    D(4,1,2,13)          -179.9848         estimate D2E/DX2                !
 ! D3    D(16,1,2,3)           179.9946         estimate D2E/DX2                !
 ! D4    D(16,1,2,13)            0.0101         estimate D2E/DX2                !
 ! D5    D(2,1,4,5)             -0.0053         estimate D2E/DX2                !
 ! D6    D(2,1,4,7)            179.9328         estimate D2E/DX2                !
 ! D7    D(16,1,4,5)           179.9996         estimate D2E/DX2                !
 ! D8    D(16,1,4,7)            -0.0623         estimate D2E/DX2                !
 ! D9    D(1,2,3,6)             -0.0123         estimate D2E/DX2                !
 ! D10   D(1,2,3,14)           179.9959         estimate D2E/DX2                !
 ! D11   D(13,2,3,6)           179.9722         estimate D2E/DX2                !
 ! D12   D(13,2,3,14)           -0.0196         estimate D2E/DX2                !
 ! D13   D(2,3,6,5)              0.0309         estimate D2E/DX2                !
 ! D14   D(2,3,6,17)          -179.9391         estimate D2E/DX2                !
 ! D15   D(14,3,6,5)          -179.9774         estimate D2E/DX2                !
 ! D16   D(14,3,6,17)            0.0526         estimate D2E/DX2                !
 ! D17   D(1,4,5,6)              0.0232         estimate D2E/DX2                !
 ! D18   D(1,4,5,10)          -179.9906         estimate D2E/DX2                !
 ! D19   D(7,4,5,6)           -179.914          estimate D2E/DX2                !
 ! D20   D(7,4,5,10)             0.0722         estimate D2E/DX2                !
 ! D21   D(1,4,7,8)           -179.8284         estimate D2E/DX2                !
 ! D22   D(1,4,7,11)             0.1355         estimate D2E/DX2                !
 ! D23   D(5,4,7,8)              0.1084         estimate D2E/DX2                !
 ! D24   D(5,4,7,11)          -179.9278         estimate D2E/DX2                !
 ! D25   D(4,5,6,3)             -0.0363         estimate D2E/DX2                !
 ! D26   D(4,5,6,17)           179.9349         estimate D2E/DX2                !
 ! D27   D(10,5,6,3)           179.9773         estimate D2E/DX2                !
 ! D28   D(10,5,6,17)           -0.0515         estimate D2E/DX2                !
 ! D29   D(4,5,10,9)             0.3748         estimate D2E/DX2                !
 ! D30   D(4,5,10,12)         -179.6346         estimate D2E/DX2                !
 ! D31   D(6,5,10,9)          -179.6391         estimate D2E/DX2                !
 ! D32   D(6,5,10,12)            0.3515         estimate D2E/DX2                !
 ! D33   D(4,7,8,9)             -0.7898         estimate D2E/DX2                !
 ! D34   D(4,7,8,15)           179.4951         estimate D2E/DX2                !
 ! D35   D(11,7,8,9)           179.247          estimate D2E/DX2                !
 ! D36   D(11,7,8,15)           -0.4681         estimate D2E/DX2                !
 ! D37   D(7,8,9,10)             1.3129         estimate D2E/DX2                !
 ! D38   D(7,8,9,21)          -179.3309         estimate D2E/DX2                !
 ! D39   D(15,8,9,10)         -178.9867         estimate D2E/DX2                !
 ! D40   D(15,8,9,21)            0.3695         estimate D2E/DX2                !
 ! D41   D(7,8,15,18)          112.9224         estimate D2E/DX2                !
 ! D42   D(7,8,15,19)           -6.3033         estimate D2E/DX2                !
 ! D43   D(7,8,15,20)         -126.9998         estimate D2E/DX2                !
 ! D44   D(9,8,15,18)          -66.7933         estimate D2E/DX2                !
 ! D45   D(9,8,15,19)          173.981          estimate D2E/DX2                !
 ! D46   D(9,8,15,20)           53.2846         estimate D2E/DX2                !
 ! D47   D(8,9,10,5)            -1.0692         estimate D2E/DX2                !
 ! D48   D(8,9,10,12)          178.9403         estimate D2E/DX2                !
 ! D49   D(21,9,10,5)          179.5374         estimate D2E/DX2                !
 ! D50   D(21,9,10,12)          -0.4532         estimate D2E/DX2                !
 ! D51   D(8,9,21,22)          -92.8399         estimate D2E/DX2                !
 ! D52   D(8,9,21,56)          149.7174         estimate D2E/DX2                !
 ! D53   D(8,9,21,57)           32.4034         estimate D2E/DX2                !
 ! D54   D(10,9,21,22)          86.5587         estimate D2E/DX2                !
 ! D55   D(10,9,21,56)         -30.884          estimate D2E/DX2                !
 ! D56   D(10,9,21,57)        -148.198          estimate D2E/DX2                !
 ! D57   D(9,21,22,23)         130.4211         estimate D2E/DX2                !
 ! D58   D(9,21,22,58)         -49.8332         estimate D2E/DX2                !
 ! D59   D(56,21,22,23)       -112.4777         estimate D2E/DX2                !
 ! D60   D(56,21,22,58)         67.2681         estimate D2E/DX2                !
 ! D61   D(57,21,22,23)          5.5333         estimate D2E/DX2                !
 ! D62   D(57,21,22,58)       -174.7209         estimate D2E/DX2                !
 ! D63   D(21,22,23,24)        179.7087         estimate D2E/DX2                !
 ! D64   D(21,22,23,28)         -0.33           estimate D2E/DX2                !
 ! D65   D(58,22,23,24)         -0.0274         estimate D2E/DX2                !
 ! D66   D(58,22,23,28)        179.9339         estimate D2E/DX2                !
 ! D67   D(22,23,24,25)       -110.6981         estimate D2E/DX2                !
 ! D68   D(22,23,24,59)        127.6226         estimate D2E/DX2                !
 ! D69   D(22,23,24,60)         11.0321         estimate D2E/DX2                !
 ! D70   D(28,23,24,25)         69.3373         estimate D2E/DX2                !
 ! D71   D(28,23,24,59)        -52.342          estimate D2E/DX2                !
 ! D72   D(28,23,24,60)       -168.9326         estimate D2E/DX2                !
 ! D73   D(22,23,28,64)         -7.6955         estimate D2E/DX2                !
 ! D74   D(22,23,28,65)       -128.2881         estimate D2E/DX2                !
 ! D75   D(22,23,28,66)        113.1315         estimate D2E/DX2                !
 ! D76   D(24,23,28,64)        172.2673         estimate D2E/DX2                !
 ! D77   D(24,23,28,65)         51.6748         estimate D2E/DX2                !
 ! D78   D(24,23,28,66)        -66.9056         estimate D2E/DX2                !
 ! D79   D(23,24,25,26)       -177.3538         estimate D2E/DX2                !
 ! D80   D(23,24,25,61)         58.4488         estimate D2E/DX2                !
 ! D81   D(23,24,25,62)        -57.0308         estimate D2E/DX2                !
 ! D82   D(59,24,25,26)        -54.9589         estimate D2E/DX2                !
 ! D83   D(59,24,25,61)       -179.1563         estimate D2E/DX2                !
 ! D84   D(59,24,25,62)         65.364          estimate D2E/DX2                !
 ! D85   D(60,24,25,26)         60.3563         estimate D2E/DX2                !
 ! D86   D(60,24,25,61)        -63.8412         estimate D2E/DX2                !
 ! D87   D(60,24,25,62)       -179.3208         estimate D2E/DX2                !
 ! D88   D(24,25,26,27)       -113.6589         estimate D2E/DX2                !
 ! D89   D(24,25,26,63)         64.7488         estimate D2E/DX2                !
 ! D90   D(61,25,26,27)          8.6964         estimate D2E/DX2                !
 ! D91   D(61,25,26,63)       -172.8959         estimate D2E/DX2                !
 ! D92   D(62,25,26,27)        125.8037         estimate D2E/DX2                !
 ! D93   D(62,25,26,63)        -55.7885         estimate D2E/DX2                !
 ! D94   D(25,26,27,29)        178.5082         estimate D2E/DX2                !
 ! D95   D(25,26,27,33)         -1.5972         estimate D2E/DX2                !
 ! D96   D(63,26,27,29)          0.1334         estimate D2E/DX2                !
 ! D97   D(63,26,27,33)       -179.9719         estimate D2E/DX2                !
 ! D98   D(26,27,29,30)       -110.7692         estimate D2E/DX2                !
 ! D99   D(26,27,29,67)        127.5786         estimate D2E/DX2                !
 ! D100  D(26,27,29,68)         11.0362         estimate D2E/DX2                !
 ! D101  D(33,27,29,30)         69.3271         estimate D2E/DX2                !
 ! D102  D(33,27,29,67)        -52.3251         estimate D2E/DX2                !
 ! D103  D(33,27,29,68)       -168.8675         estimate D2E/DX2                !
 ! D104  D(26,27,33,72)         -3.1538         estimate D2E/DX2                !
 ! D105  D(26,27,33,73)       -124.145          estimate D2E/DX2                !
 ! D106  D(26,27,33,74)        117.5902         estimate D2E/DX2                !
 ! D107  D(29,27,33,72)        176.7452         estimate D2E/DX2                !
 ! D108  D(29,27,33,73)         55.754          estimate D2E/DX2                !
 ! D109  D(29,27,33,74)        -62.5107         estimate D2E/DX2                !
 ! D110  D(27,29,30,31)       -178.1829         estimate D2E/DX2                !
 ! D111  D(27,29,30,69)         57.6557         estimate D2E/DX2                !
 ! D112  D(27,29,30,70)        -57.8582         estimate D2E/DX2                !
 ! D113  D(67,29,30,31)        -55.9292         estimate D2E/DX2                !
 ! D114  D(67,29,30,69)        179.9093         estimate D2E/DX2                !
 ! D115  D(67,29,30,70)         64.3954         estimate D2E/DX2                !
 ! D116  D(68,29,30,31)         59.407          estimate D2E/DX2                !
 ! D117  D(68,29,30,69)        -64.7544         estimate D2E/DX2                !
 ! D118  D(68,29,30,70)        179.7317         estimate D2E/DX2                !
 ! D119  D(29,30,31,32)       -116.4733         estimate D2E/DX2                !
 ! D120  D(29,30,31,71)         62.6751         estimate D2E/DX2                !
 ! D121  D(69,30,31,32)          5.9341         estimate D2E/DX2                !
 ! D122  D(69,30,31,71)       -174.9175         estimate D2E/DX2                !
 ! D123  D(70,30,31,32)        122.98           estimate D2E/DX2                !
 ! D124  D(70,30,31,71)        -57.8717         estimate D2E/DX2                !
 ! D125  D(30,31,32,34)         -1.4668         estimate D2E/DX2                !
 ! D126  D(30,31,32,35)        179.1587         estimate D2E/DX2                !
 ! D127  D(71,31,32,34)        179.4032         estimate D2E/DX2                !
 ! D128  D(71,31,32,35)          0.0287         estimate D2E/DX2                !
 ! D129  D(31,32,34,75)         -1.9924         estimate D2E/DX2                !
 ! D130  D(31,32,34,76)       -122.7856         estimate D2E/DX2                !
 ! D131  D(31,32,34,77)        119.0805         estimate D2E/DX2                !
 ! D132  D(35,32,34,75)        177.4082         estimate D2E/DX2                !
 ! D133  D(35,32,34,76)         56.6149         estimate D2E/DX2                !
 ! D134  D(35,32,34,77)        -61.519          estimate D2E/DX2                !
 ! D135  D(31,32,35,36)       -110.7415         estimate D2E/DX2                !
 ! D136  D(31,32,35,78)        127.6301         estimate D2E/DX2                !
 ! D137  D(31,32,35,79)         11.1363         estimate D2E/DX2                !
 ! D138  D(34,32,35,36)         69.8297         estimate D2E/DX2                !
 ! D139  D(34,32,35,78)        -51.7986         estimate D2E/DX2                !
 ! D140  D(34,32,35,79)       -168.2924         estimate D2E/DX2                !
 ! D141  D(32,35,36,37)       -177.604          estimate D2E/DX2                !
 ! D142  D(32,35,36,80)         58.2693         estimate D2E/DX2                !
 ! D143  D(32,35,36,81)        -57.3072         estimate D2E/DX2                !
 ! D144  D(78,35,36,37)        -55.446          estimate D2E/DX2                !
 ! D145  D(78,35,36,80)       -179.5727         estimate D2E/DX2                !
 ! D146  D(78,35,36,81)         64.8508         estimate D2E/DX2                !
 ! D147  D(79,35,36,37)         59.8934         estimate D2E/DX2                !
 ! D148  D(79,35,36,80)        -64.2334         estimate D2E/DX2                !
 ! D149  D(79,35,36,81)       -179.8099         estimate D2E/DX2                !
 ! D150  D(35,36,37,38)       -115.6783         estimate D2E/DX2                !
 ! D151  D(35,36,37,82)         63.4608         estimate D2E/DX2                !
 ! D152  D(80,36,37,38)          6.7252         estimate D2E/DX2                !
 ! D153  D(80,36,37,82)       -174.1357         estimate D2E/DX2                !
 ! D154  D(81,36,37,38)        123.7789         estimate D2E/DX2                !
 ! D155  D(81,36,37,82)        -57.082          estimate D2E/DX2                !
 ! D156  D(36,37,38,39)         -1.3853         estimate D2E/DX2                !
 ! D157  D(36,37,38,40)        179.182          estimate D2E/DX2                !
 ! D158  D(82,37,38,39)        179.4946         estimate D2E/DX2                !
 ! D159  D(82,37,38,40)          0.0619         estimate D2E/DX2                !
 ! D160  D(37,38,39,83)         -2.0121         estimate D2E/DX2                !
 ! D161  D(37,38,39,84)       -122.8574         estimate D2E/DX2                !
 ! D162  D(37,38,39,85)        119.0497         estimate D2E/DX2                !
 ! D163  D(40,38,39,83)        177.4444         estimate D2E/DX2                !
 ! D164  D(40,38,39,84)         56.5991         estimate D2E/DX2                !
 ! D165  D(40,38,39,85)        -61.4938         estimate D2E/DX2                !
 ! D166  D(37,38,40,41)       -110.7768         estimate D2E/DX2                !
 ! D167  D(37,38,40,86)        127.5732         estimate D2E/DX2                !
 ! D168  D(37,38,40,87)         11.1156         estimate D2E/DX2                !
 ! D169  D(39,38,40,41)         69.7412         estimate D2E/DX2                !
 ! D170  D(39,38,40,86)        -51.9087         estimate D2E/DX2                !
 ! D171  D(39,38,40,87)       -168.3664         estimate D2E/DX2                !
 ! D172  D(38,40,41,42)       -177.7096         estimate D2E/DX2                !
 ! D173  D(38,40,41,88)         58.2057         estimate D2E/DX2                !
 ! D174  D(38,40,41,89)        -57.3944         estimate D2E/DX2                !
 ! D175  D(86,40,41,42)        -55.5449         estimate D2E/DX2                !
 ! D176  D(86,40,41,88)       -179.6296         estimate D2E/DX2                !
 ! D177  D(86,40,41,89)         64.7703         estimate D2E/DX2                !
 ! D178  D(87,40,41,42)         59.7837         estimate D2E/DX2                !
 ! D179  D(87,40,41,88)        -64.3011         estimate D2E/DX2                !
 ! D180  D(87,40,41,89)       -179.9012         estimate D2E/DX2                !
 ! D181  D(40,41,42,43)       -115.7586         estimate D2E/DX2                !
 ! D182  D(40,41,42,90)         63.4018         estimate D2E/DX2                !
 ! D183  D(88,41,42,43)          6.6176         estimate D2E/DX2                !
 ! D184  D(88,41,42,90)       -174.2219         estimate D2E/DX2                !
 ! D185  D(89,41,42,43)        123.669          estimate D2E/DX2                !
 ! D186  D(89,41,42,90)        -57.1706         estimate D2E/DX2                !
 ! D187  D(41,42,43,44)         -1.3826         estimate D2E/DX2                !
 ! D188  D(41,42,43,45)        179.1609         estimate D2E/DX2                !
 ! D189  D(90,42,43,44)        179.4755         estimate D2E/DX2                !
 ! D190  D(90,42,43,45)          0.019          estimate D2E/DX2                !
 ! D191  D(42,43,44,91)         -1.7603         estimate D2E/DX2                !
 ! D192  D(42,43,44,92)       -122.6193         estimate D2E/DX2                !
 ! D193  D(42,43,44,93)        119.3288         estimate D2E/DX2                !
 ! D194  D(45,43,44,91)        177.719          estimate D2E/DX2                !
 ! D195  D(45,43,44,92)         56.8599         estimate D2E/DX2                !
 ! D196  D(45,43,44,93)        -61.192          estimate D2E/DX2                !
 ! D197  D(42,43,45,46)       -110.6277         estimate D2E/DX2                !
 ! D198  D(42,43,45,94)        127.7335         estimate D2E/DX2                !
 ! D199  D(42,43,45,95)         11.2717         estimate D2E/DX2                !
 ! D200  D(44,43,45,46)         69.8685         estimate D2E/DX2                !
 ! D201  D(44,43,45,94)        -51.7703         estimate D2E/DX2                !
 ! D202  D(44,43,45,95)       -168.2321         estimate D2E/DX2                !
 ! D203  D(43,45,46,47)       -177.6062         estimate D2E/DX2                !
 ! D204  D(43,45,46,96)         58.2993         estimate D2E/DX2                !
 ! D205  D(43,45,46,97)        -57.3006         estimate D2E/DX2                !
 ! D206  D(94,45,46,47)        -55.468          estimate D2E/DX2                !
 ! D207  D(94,45,46,96)       -179.5626         estimate D2E/DX2                !
 ! D208  D(94,45,46,97)         64.8375         estimate D2E/DX2                !
 ! D209  D(95,45,46,47)         59.8753         estimate D2E/DX2                !
 ! D210  D(95,45,46,96)        -64.2193         estimate D2E/DX2                !
 ! D211  D(95,45,46,97)       -179.8192         estimate D2E/DX2                !
 ! D212  D(45,46,47,48)       -116.0379         estimate D2E/DX2                !
 ! D213  D(45,46,47,98)         63.2563         estimate D2E/DX2                !
 ! D214  D(96,46,47,48)          6.3483         estimate D2E/DX2                !
 ! D215  D(96,46,47,98)       -174.3575         estimate D2E/DX2                !
 ! D216  D(97,46,47,48)        123.3892         estimate D2E/DX2                !
 ! D217  D(97,46,47,98)        -57.3166         estimate D2E/DX2                !
 ! D218  D(46,47,48,49)         -1.3204         estimate D2E/DX2                !
 ! D219  D(46,47,48,50)        179.3142         estimate D2E/DX2                !
 ! D220  D(98,47,48,49)        179.4012         estimate D2E/DX2                !
 ! D221  D(98,47,48,50)          0.0357         estimate D2E/DX2                !
 ! D222  D(47,48,49,99)         -1.5781         estimate D2E/DX2                !
 ! D223  D(47,48,49,100)      -122.4269         estimate D2E/DX2                !
 ! D224  D(47,48,49,101)       119.542          estimate D2E/DX2                !
 ! D225  D(50,48,49,99)        177.814          estimate D2E/DX2                !
 ! D226  D(50,48,49,100)        56.9652         estimate D2E/DX2                !
 ! D227  D(50,48,49,101)       -61.066          estimate D2E/DX2                !
 ! D228  D(47,48,50,51)       -110.7228         estimate D2E/DX2                !
 ! D229  D(47,48,50,102)       127.6317         estimate D2E/DX2                !
 ! D230  D(47,48,50,103)        11.2077         estimate D2E/DX2                !
 ! D231  D(49,48,50,51)         69.8565         estimate D2E/DX2                !
 ! D232  D(49,48,50,102)       -51.7891         estimate D2E/DX2                !
 ! D233  D(49,48,50,103)      -168.213          estimate D2E/DX2                !
 ! D234  D(48,50,51,52)       -177.5825         estimate D2E/DX2                !
 ! D235  D(48,50,51,104)        58.3587         estimate D2E/DX2                !
 ! D236  D(48,50,51,105)       -57.2311         estimate D2E/DX2                !
 ! D237  D(102,50,51,52)       -55.4447         estimate D2E/DX2                !
 ! D238  D(102,50,51,104)     -179.5035         estimate D2E/DX2                !
 ! D239  D(102,50,51,105)       64.9067         estimate D2E/DX2                !
 ! D240  D(103,50,51,52)        59.8642         estimate D2E/DX2                !
 ! D241  D(103,50,51,104)      -64.1946         estimate D2E/DX2                !
 ! D242  D(103,50,51,105)     -179.7844         estimate D2E/DX2                !
 ! D243  D(50,51,52,53)       -116.3179         estimate D2E/DX2                !
 ! D244  D(50,51,52,106)        62.8354         estimate D2E/DX2                !
 ! D245  D(104,51,52,53)         6.1172         estimate D2E/DX2                !
 ! D246  D(104,51,52,106)     -174.7295         estimate D2E/DX2                !
 ! D247  D(105,51,52,53)       123.0495         estimate D2E/DX2                !
 ! D248  D(105,51,52,106)      -57.7972         estimate D2E/DX2                !
 ! D249  D(51,52,53,54)         -0.5885         estimate D2E/DX2                !
 ! D250  D(51,52,53,55)        179.6342         estimate D2E/DX2                !
 ! D251  D(106,52,53,54)      -179.7229         estimate D2E/DX2                !
 ! D252  D(106,52,53,55)         0.4997         estimate D2E/DX2                !
 ! D253  D(52,53,54,107)         1.4643         estimate D2E/DX2                !
 ! D254  D(52,53,54,108)      -119.8168         estimate D2E/DX2                !
 ! D255  D(52,53,54,109)       122.6826         estimate D2E/DX2                !
 ! D256  D(55,53,54,107)      -178.7454         estimate D2E/DX2                !
 ! D257  D(55,53,54,108)        59.9735         estimate D2E/DX2                !
 ! D258  D(55,53,54,109)       -57.5271         estimate D2E/DX2                !
 ! D259  D(52,53,55,110)        -0.1956         estimate D2E/DX2                !
 ! D260  D(52,53,55,111)      -121.0826         estimate D2E/DX2                !
 ! D261  D(52,53,55,112)       120.6516         estimate D2E/DX2                !
 ! D262  D(54,53,55,110)      -179.9953         estimate D2E/DX2                !
 ! D263  D(54,53,55,111)        59.1177         estimate D2E/DX2                !
 ! D264  D(54,53,55,112)       -59.1481         estimate D2E/DX2                !
 --------------------------------------------------------------------------------
 Trust Radius=3.00D-01 FncErr=1.00D-07 GrdErr=1.00D-06 EigMax=2.50D+02 EigMin=1.00D-04
 Number of steps in this run=    591 maximum allowed number of steps=    672.
 GradGradGradGradGradGradGradGradGradGradGradGradGradGradGradGradGradGrad

 Leave Link  103 at Mon Jan 22 18:34:41 2024, MaxMem=  4026531840 cpu:               0.3 elap:               0.1
 (Enter /sysapps/ubuntu-applications/gaussian/Gaussian/AVX2/g16/l202.exe)
 Symmetry turned off by external request.
 Stoichiometry    C46H64O2(1-,2)
 Framework group  C1[X(C46H64O2)]
 Deg. of freedom   330
 Full point group                 C1      NOp   1
                          Input orientation:                          
 ---------------------------------------------------------------------
 Center     Atomic      Atomic             Coordinates (Angstroms)
 Number     Number       Type             X           Y           Z
 ---------------------------------------------------------------------
      1          6           0       -3.459621    5.516253    3.516524
      2          6           0       -2.449411    6.020702    4.316160
      3          6           0       -2.023045    5.299270    5.448776
      4          6           0       -4.075586    4.284564    3.815358
      5          6           0       -3.646024    3.559183    4.955004
      6          6           0       -2.616307    4.088239    5.758122
      7          6           0       -5.148217    3.774727    2.947054
      8          6           0       -5.738612    2.503010    3.317842
      9          6           0       -5.304425    1.788631    4.428626
     10          6           0       -4.259291    2.270516    5.305230
     11          8           0       -5.524016    4.426404    1.933044
     12          8           0       -3.885813    1.622143    6.323471
     13          1           0       -1.984904    6.971879    4.072236
     14          1           0       -1.229972    5.694377    6.077195
     15          6           0       -6.847178    1.990362    2.429577
     16          1           0       -3.808219    6.049038    2.639209
     17          1           0       -2.310508    3.510893    6.623219
     18          1           0       -6.549222    1.081897    1.889392
     19          1           0       -7.093227    2.753958    1.691409
     20          1           0       -7.746196    1.744205    3.004191
     21          6           0       -5.913609    0.448759    4.807909
     22          6           0       -7.045084    0.594584    5.794330
     23          6           0       -8.279993    0.073267    5.753821
     24          6           0       -9.259992    0.354273    6.875711
     25          6           0       -9.583768   -0.878396    7.759015
     26          6           0      -10.605321   -0.573560    8.818010
     27          6           0      -10.459204   -0.548846   10.150749
     28          6           0       -8.802357   -0.805459    4.641560
     29          6           0      -11.631453   -0.178920   11.037786
     30          6           0      -11.479522    1.187891   11.752438
     31          6           0      -12.643555    1.492328   12.653383
     32          6           0      -13.538799    2.486788   12.567560
     33          6           0       -9.174369   -0.873496   10.873730
     34          6           0      -13.522964    3.561011   11.507239
     35          6           0      -14.655433    2.593951   13.587074
     36          6           0      -16.064905    2.289289   13.019276
     37          6           0      -17.144618    2.463898   14.050635
     38          6           0      -17.967500    1.543756   14.573876
     39          6           0      -17.979842    0.086562   14.180111
     40          6           0      -18.981917    1.942473   15.627218
     41          6           0      -18.683129    1.382950   17.041167
     42          6           0      -19.744100    1.758738   18.037958
     43          6           0      -19.638999    2.529321   19.130065
     44          6           0      -18.357865    3.173994   19.600658
     45          6           0      -20.856479    2.794039   19.993299
     46          6           0      -21.372632    4.253956   19.932671
     47          6           0      -22.543878    4.482194   20.847390
     48          6           0      -23.805320    4.811630   20.534784
     49          6           0      -24.302022    5.053509   19.130097
     50          6           0      -24.840532    4.978742   21.629186
     51          6           0      -25.930926    3.878038   21.646563
     52          6           0      -26.965821    4.118179   22.710516
     53          6           0      -27.253682    3.369607   23.783712
     54          6           0      -26.569439    2.073784   24.140488
     55          6           0      -28.334798    3.787814   24.751086
     56          1           0       -5.123581   -0.131060    5.299079
     57          1           0       -6.228882   -0.098843    3.917945
     58          1           0       -6.787619    1.214470    6.651016
     59          1           0      -10.202473    0.735481    6.455740
     60          1           0       -8.861545    1.144852    7.517915
     61          1           0       -8.651656   -1.250471    8.189860
     62          1           0       -9.972917   -1.680968    7.120083
     63          1           0      -11.591145   -0.315842    8.428131
     64          1           0       -8.111712   -0.866275    3.800958
     65          1           0       -9.759005   -0.423117    4.262902
     66          1           0       -8.989302   -1.829747    4.987580
     67          1           0      -11.771565   -0.956021   11.802614
     68          1           0      -12.548901   -0.157828   10.441977
     69          1           0      -11.338397    1.963359   10.996760
     70          1           0      -10.564237    1.174473   12.356484
     71          1           0      -12.767782    0.788512   13.477489
     72          1           0       -8.378088   -1.187398   10.200211
     73          1           0       -9.337319   -1.676402   11.603483
     74          1           0       -8.803957   -0.009435   11.436059
     75          1           0      -12.679707    3.471339   10.823813
     76          1           0      -13.475393    4.553846   11.970583
     77          1           0      -14.438048    3.540760   10.905420
     78          1           0      -14.664456    3.607133   14.012236
     79          1           0      -14.461078    1.908671   14.417427
     80          1           0      -16.063209    1.279916   12.602155
     81          1           0      -16.267435    2.969742   12.183395
     82          1           0      -17.248481    3.484438   14.420888
     83          1           0      -17.266638   -0.146543   13.390375
     84          1           0      -18.977119   -0.205548   13.829741
     85          1           0      -17.747854   -0.558474   15.034485
     86          1           0      -19.979182    1.597392   15.321152
     87          1           0      -19.035197    3.033215   15.690535
     88          1           0      -17.695139    1.728862   17.352673
     89          1           0      -18.625977    0.288945   16.987730
     90          1           0      -20.730223    1.348333   17.817862
     91          1           0      -17.501364    2.926212   18.974784
     92          1           0      -18.127362    2.860118   20.625746
     93          1           0      -18.446258    4.265486   19.621181
     94          1           0      -20.620396    2.552489   21.038762
     95          1           0      -21.669937    2.126331   19.694908
     96          1           0      -21.616127    4.496195   18.895924
     97          1           0      -20.562426    4.931947   20.227321
     98          1           0      -22.318091    4.346013   21.905532
     99          1           0      -23.518640    4.960152   18.378824
    100          1           0      -24.730658    6.059238   19.045559
[...]
 .00010098,-0.00002564,0.00010319,0.00026446,-0.00002499,0.00000580,-0.
 00018241,0.00047321,-0.00007506,0.00011025,0.01031423,0.00444522,0.025
 88523,0.01056451,0.04907649,-0.00000007,-0.00000025,0.00000013,0.00000
 012,-0.00000004,-0.00000022,-0.00000011,-0.00000027,0.00000017,0.00000
 067,0.00000024,-0.00000003,-0.00000054,-0.00000072,-0.00000036,0.00000
 040,0.00000054,0.00000011,0.00000014,-0.00000005,0.00000025,0.00000028
 ,-0.00000063,0.00000027,0.00000009,-0.00000009,-0.00000073,0.00000025,
 -0.00000079,0.00000085,0.00000063,0.00000033,-0.00000053,0.00000075,0.
 00000091,-0.00000073,0.00000002,0.00000029,-0.00000002,0.00000003,0.00
 000014,0.00000013,-0.00000068,0.00000015,0.,-0.00000010,0.00000002,-0.
 00000005,-0.00000027,0.,-0.00000020,0.00000017,-0.00000016,0.00000007,
 -0.00000009,-0.00000007,0.00000009,0.00000056,0.00000011,-0.00000017,0
 .00000027,0.00000027,0.00000034,-0.00000091,0.00000009,0.00000025,-0.0
 0000003,0.00000036,0.00000052,-0.00000011,-0.00000051,0.00000007,0.000
 00019,0.00000062,-0.00000068,-0.00000010,0.00000007,0.00000046,-0.0000
 0188,-0.00000030,0.00000073,0.00000010,0.00000003,-0.00000051,0.000001
 17,0.00000076,-0.00000077,-0.00000017,-0.00000138,-0.00000033,-0.00000
 038,0.00000099,-0.00000036,-0.00000111,0.00000107,0.00000382,0.0000007
 9,0.00000016,-0.00000072,0.00000112,-0.00000077,-0.00000162,-0.0000002
 8,-0.00000086,-0.00000328,0.00000137,0.00000166,0.00000110,0.00000113,
 -0.00000131,0.00000082,-0.00000709,0.00000413,0.00000322,0.00000302,-0
 .00000087,-0.00000313,0.00000658,-0.00000378,-0.00000152,-0.00000623,0
 .00000440,-0.00000683,0.00001047,-0.00000218,-0.00000062,-0.00001964,-
 0.00002358,0.00002505,0.00000830,0.00000214,-0.00001477,0.00002812,0.0
 0002634,-0.00004851,0.00000508,-0.00006978,0.00003855,0.00002476,0.000
 01224,-0.00010959,0.00006842,0.00025599,0.00018693,0.00004233,-0.00003
 174,-0.00002937,0.00025003,-0.00047729,-0.00065956,0.00124784,0.001513
 62,0.00078085,0.00171605,-0.00256950,-0.00050796,-0.00445754,-0.000352
 81,-0.02203449,-0.00070105,0.00091870,0.00050759,-0.09044207,-0.025729
 16,-0.25573662,0.00000008,0.00000011,-0.00000037,0.00000002,0.00000010
 ,-0.00000013,-0.00000028,-0.00000030,-0.00000025,0.00000063,-0.0000001
 5,0.00000026,-0.00000033,-0.00000019,-0.00000017,0.00000046,-0.0000000
 8,0.00000011,0.00000002,-0.00000027,-0.00000033,0.00000041,-0.00000021
 ,0.00000038,0.00000022,-0.00000008,-0.00000043,0.00000024,-0.00000018,
 0.00000041,-0.00000014,0.00000037,0.00000022,-0.00000015,0.00000026,-0
 .00000032,0.00000033,0.,0.00000073,-0.00000005,0.00000022,-0.00000047,
 0.00000131,-0.00000017,-0.00000006,-0.00000032,0.00000030,-0.00000005,
 0.00000066,-0.00000035,-0.00000045,-0.00000041,0.00000015,0.00000012,-
 0.00000074,-0.00000005,0.00000003,0.00000119,0.00000017,-0.00000107,-0
 .00000079,-0.00000054,0.00000040,0.00000005,-0.00000024,0.00000172,-0.
 00000021,-0.00000088,-0.00000023,-0.00000062,0.00000059,-0.00000001,0.
 00000051,-0.00000120,-0.00000042,0.00000081,0.00000042,-0.00000171,-0.
 00000108,-0.00000139,-0.00000055,0.00000183,-0.00000134,-0.00000297,0.
 00000007,0.00000122,0.00000153,-0.00000171,0.00000219,0.00000120,0.000
 00206,0.00000180,0.00000161,-0.00000190,-0.00000260,0.00000107,0.00000
 406,0.00000188,-0.00000035,0.00000258,-0.00000457,-0.00000324,0.000001
 90,0.00000272,0.00000279,0.00000933,-0.00000217,-0.00000288,-0.0000027
 2,-0.00000090,0.00000352,-0.00000771,-0.00000418,0.00000138,0.00000108
 ,0.00000154,0.00000620,-0.00000239,0.00000699,0.00000384,-0.00000232,-
 0.00000283,-0.00000677,0.00002444,0.00000405,-0.00001068,0.00000615,0.
 00002152,0.00001287,0.00001731,0.00000548,-0.00002963,-0.00000724,-0.0
 0000279,0.00001233,0.00000186,0.00001294,0.00003507,-0.00004828,0.0000
 0136,-0.00000885,0.00002490,-0.00002605,0.00004026,0.00011236,-0.00009
 803,-0.00003323,-0.00015355,-0.00000534,0.00009087,-0.00067706,-0.0007
 0288,-0.00056782,0.00025481,0.00025384,0.00036708,-0.00007912,-0.00004
 558,0.00004259,0.00053414,-0.00068541,0.00058383,-0.00296496,-0.000870
 42,-0.00728268,0.09547608,0.02905715,0.28301612,-0.00000003,0.00000022
 ,-0.00000007,-0.00000015,0.00000013,0.00000018,-0.00000004,0.00000022,
 0.,-0.00000039,-0.00000014,-0.00000002,0.00000031,0.00000036,0.0000003
 0,-0.00000032,-0.00000029,0.00000001,-0.00000008,0.00000019,-0.0000004
 0,-0.00000034,0.00000023,-0.00000007,-0.00000005,0.00000030,0.00000051
 ,-0.00000025,0.00000051,-0.00000074,-0.00000038,-0.00000022,0.00000079
 ,-0.00000057,-0.00000047,0.00000086,0.00000005,-0.00000020,-0.00000005
 ,0.00000009,-0.00000010,-0.00000011,0.00000051,-0.00000013,-0.00000010
 ,0.00000011,-0.00000005,-0.00000002,0.00000024,-0.00000007,0.00000008,
 -0.00000014,0.00000026,0.00000003,0.00000006,-0.00000004,-0.00000007,-
 0.00000037,-0.00000009,0.00000010,-0.00000022,-0.00000024,-0.00000029,
 0.00000062,0.00000004,-0.00000013,0.00000006,-0.00000046,-0.00000058,-
 0.00000007,0.00000050,-0.00000008,-0.00000014,-0.00000076,0.00000053,0
 .00000004,0.00000019,-0.00000039,0.00000175,0.00000059,-0.00000069,-0.
 00000020,-0.00000002,0.00000048,-0.00000116,-0.00000100,0.00000050,0.0
 0000002,0.00000114,0.00000012,0.00000075,-0.00000042,0.00000045,0.0000
 0133,-0.00000071,-0.00000289,-0.00000080,-0.00000029,0.00000068,-0.000
 00120,0.00000028,0.00000116,0.00000002,0.00000020,0.00000230,-0.000001
 28,-0.00000146,-0.00000108,-0.00000084,0.00000110,-0.00000004,0.000006
 88,-0.00000471,-0.00000272,-0.00000355,0.00000084,0.00000261,-0.000007
 42,0.00000287,0.00000079,0.00000561,-0.00000391,0.00000604,-0.00000901
 ,0.00000185,-0.00000075,0.00001605,0.00001669,-0.00002188,-0.00000732,
 -0.00000224,0.00001185,-0.00001757,-0.00002138,0.00002871,-0.00000441,
 0.00002291,-0.00002032,-0.00000706,0.00000314,0.00003973,0.00006190,-0
 .00005115,-0.00006483,-0.00003418,0.00003301,0.00005039,0.00013134,0.0
 0019817,-0.00008970,0.00124289,0.00009279,0.00142534,-0.00197925,0.002
 14460,-0.00008034,-0.01660218,-0.01636530,0.00398454,0.00081759,-0.000
 85941,-0.00019793,-0.17230502,-0.12454972,0.00812800,-0.00000013,-0.00
 000006,0.00000021,0.00000003,-0.00000001,0.00000023,0.00000025,0.00000
 023,0.00000024,-0.00000047,0.00000006,-0.00000024,0.00000036,0.0000002
 3,0.00000019,-0.00000040,0.00000004,-0.00000012,0.,0.00000037,0.000000
 45,-0.00000029,0.00000002,-0.00000030,-0.00000024,0.00000004,0.0000004
 1,-0.00000010,0.00000007,-0.00000029,0.00000014,-0.00000016,-0.0000002
 5,0.00000006,-0.00000017,0.00000015,-0.00000016,-0.00000004,-0.0000005
 0,0.00000004,-0.00000015,0.00000036,-0.00000103,0.00000009,0.00000013,
 0.00000010,-0.00000045,-0.00000005,-0.00000062,0.00000029,0.00000040,0
 .00000037,-0.00000020,-0.00000018,0.00000074,0.00000019,0.00000004,-0.
 00000110,-0.00000019,0.00000092,0.00000067,0.00000078,-0.00000022,0.00
 000011,0.00000018,-0.00000149,0.00000016,0.00000135,0.00000031,0.00000
 053,-0.00000071,0.00000004,-0.00000055,0.00000144,0.00000057,-0.000000
 65,-0.00000051,0.00000139,0.00000079,0.00000185,0.00000042,-0.00000175
 ,0.00000125,0.00000278,0.00000074,-0.00000100,-0.00000091,0.00000123,-
 0.00000194,-0.00000128,-0.00000087,-0.00000145,-0.00000110,0.00000179,
 0.00000297,-0.00000119,-0.00000266,-0.00000155,0.00000023,-0.00000321,
 0.00000498,0.00000345,-0.00000025,-0.00000274,-0.00000153,-0.00000798,
 0.00000204,0.00000293,0.00000347,-0.00000073,-0.00000175,0.00000720,0.
 00000545,-0.00000198,-0.00000094,-0.00000258,-0.00000340,0.00000319,-0
 .00000470,-0.00000121,0.00000098,0.00000314,0.00000603,-0.00002022,-0.
 00000095,0.00000812,0.00000294,-0.00000923,-0.00000401,-0.00002555,-0.
 00001462,0.00002347,0.00000402,0.00000049,-0.00001286,-0.00001060,-0.0
 0002121,-0.00004993,0.00001481,0.00000426,0.00000018,0.00000417,-0.000
 02533,-0.00003878,-0.00009680,0.00007523,0.00000597,-0.00050260,0.0001
 1928,0.00040466,-0.00039488,-0.00039256,-0.00025828,0.00050538,0.00020
 675,0.00008561,-0.00007797,0.00102164,0.00001916,-0.00010437,-0.000064
 26,-0.00003572,0.01097594,0.00961758,-0.00033345,-0.00984609,-0.009414
 93,-0.00030861,0.18827000,0.00000007,0.00000025,0.,-0.00000014,0.00000
 013,0.00000002,0.,0.00000012,0.00000007,-0.00000040,-0.00000023,-0.000
 00006,0.00000016,0.00000029,0.00000033,-0.00000028,-0.00000022,-0.0000
 0004,0.,0.00000031,-0.00000053,-0.00000018,-0.00000006,0.00000024,-0.0
 0000009,0.00000025,0.00000006,-0.00000038,0.00000083,-0.00000104,-0.00
 000006,-0.00000029,0.00000078,-0.00000008,-0.00000069,0.00000112,0.000
 00003,-0.00000012,-0.00000004,0.00000013,-0.00000002,-0.00000002,0.000
 00041,-0.00000009,-0.00000011,0.00000004,-0.00000004,0.,0.00000020,-0.
 00000009,0.00000017,-0.00000010,0.00000021,0.00000005,0.00000003,-0.00
 000005,0.,-0.00000025,-0.00000004,0.00000006,-0.00000009,-0.00000026,-
 0.00000030,0.00000030,-0.00000005,-0.00000004,0.00000001,-0.00000044,-
 0.00000033,-0.00000012,0.00000038,-0.00000018,-0.00000010,-0.00000050,
 0.00000034,0.00000004,0.00000005,-0.00000032,0.00000087,0.00000032,-0.
 00000047,-0.00000016,0.00000011,0.00000031,-0.00000060,-0.00000045,0.0
 0000002,-0.00000016,0.00000051,0.00000006,0.00000067,-0.00000009,0.000
 00022,0.00000081,-0.00000015,-0.00000141,-0.00000043,-0.00000011,0.000
 00033,-0.00000077,0.00000008,0.00000045,-0.00000023,0.00000011,0.00000
 100,-0.00000083,-0.00000067,-0.00000074,0.00000004,0.00000046,0.000000
 34,0.00000395,-0.00000248,-0.00000075,-0.00000221,0.00000053,0.0000008
 1,-0.00000423,0.00000151,-0.00000042,0.00000242,-0.00000093,0.00000218
 ,-0.00000251,-0.00000100,0.00000011,0.00000701,0.00000293,-0.00000762,
 -0.00000337,0.00000010,0.00000381,-0.00000610,-0.00000498,0.00000578,-
 0.00000171,0.00000637,-0.00000669,-0.00000365,0.00000192,0.00001550,-0
 .00000390,-0.00001319,-0.00004378,-0.00000906,-0.00000236,-0.00000206,
 0.00002022,-0.00001820,0.00004937,-0.00042766,0.00007617,-0.00045174,0
 .00039339,0.00002404,-0.00060388,0.00676684,0.00756991,0.00241071,0.00
 023143,0.00058837,0.00000927,-0.12275059,-0.17167375,0.00826334,-0.000
 00007,-0.00000011,0.00000012,0.00000002,0.00000004,0.00000018,0.000000
 16,0.00000027,0.00000022,-0.00000022,0.00000001,-0.00000012,0.00000024
 ,0.00000019,0.00000015,-0.00000019,0.,-0.00000007,-0.00000002,0.000000
 28,0.00000030,-0.00000008,0.,-0.00000014,-0.00000018,0.00000003,0.0000
 0027,0.00000001,0.,-0.00000018,0.00000008,-0.00000011,-0.00000016,-0.0
 0000002,-0.00000019,0.00000020,-0.00000001,0.,-0.00000019,0.,-0.000000
 13,0.00000024,-0.00000044,0.00000004,0.00000005,-0.00000001,-0.0000003
 4,0.,-0.00000034,0.00000017,0.00000020,0.00000020,-0.00000026,-0.00000
 002,0.00000048,0.00000019,0.00000005,-0.00000065,-0.00000012,0.0000005
 1,0.00000031,0.00000043,-0.00000012,0.00000022,0.00000011,-0.00000069,
 0.00000005,0.00000084,0.00000012,0.00000035,-0.00000059,0.00000014,-0.
 00000027,0.00000085,0.00000025,-0.00000036,-0.00000044,0.00000087,0.00
 000020,0.00000095,0.00000002,-0.00000099,0.00000061,0.00000145,0.00000
 056,-0.00000037,-0.00000058,0.00000080,-0.00000120,-0.00000040,-0.0000
 0005,-0.00000024,-0.00000034,0.00000064,0.00000112,-0.00000056,-0.0000
 0089,-0.00000074,0.00000012,-0.00000157,0.00000215,0.00000146,-0.00000
 014,-0.00000035,-0.00000099,-0.00000359,0.00000088,0.00000150,0.000002
 31,-0.00000069,0.00000031,0.00000309,0.00000225,-0.00000115,0.00000181
 ,-0.00000099,0.00000213,0.00000016,-0.00000105,-0.00000220,-0.00000055
 ,0.00000038,0.00000513,-0.00000546,-0.00000104,0.00000224,0.00000395,-
 0.00000307,0.00000364,-0.00000212,0.00000294,0.00000887,0.00000043,0.0
 0000032,-0.00000406,0.00000436,0.00000474,-0.00000022,-0.00000273,0.00
 000142,-0.00001544,0.00000418,-0.00000733,0.00001487,-0.00004707,0.000
 04063,0.00010771,0.00009457,0.00004833,-0.00013522,-0.00027761,0.00016
 112,-0.00034111,-0.00012814,0.00023014,0.00007636,-0.00014614,0.000080
 35,-0.00014186,-0.00001342,-0.00006982,-0.00012142,-0.01952094,-0.0182
 6809,0.00027176,-0.00240535,-0.00320153,-0.00039343,0.13823184,0.18442
 232,0.00000007,0.00000005,0.00000007,0.,-0.00000004,-0.00000009,0.0000
 0006,-0.00000003,0.00000005,-0.00000009,-0.00000012,-0.00000004,-0.000
 00005,0.00000011,-0.00000006,0.,0.,-0.00000004,0.00000020,-0.00000027,
 0.00000035,0.00000024,-0.00000002,0.00000024,-0.00000020,-0.00000020,-
 0.00000040,0.00000013,0.00000002,0.00000025,-0.00000005,0.00000029,-0.
 00000052,0.00000014,0.00000012,-0.00000038,0.,0.00000006,0.00000002,-0
 .00000001,0.00000003,0.00000005,-0.00000007,-0.00000001,-0.00000003,-0
 .00000005,0.00000002,0.,-0.00000003,0.,0.00000005,0.00000001,-0.000000
 07,0.,0.,0.00000005,0.,0.00000005,-0.00000001,0.00000002,0.00000015,-0
 .00000007,0.00000004,-0.00000022,0.00000002,-0.00000001,-0.00000010,0.
 00000019,0.00000019,0.00000012,-0.00000029,0.00000002,0.00000005,0.000
 00026,-0.00000018,0.,-0.00000005,0.00000016,-0.00000054,-0.00000014,0.
 00000025,0.00000015,-0.00000001,-0.00000011,0.00000038,0.00000022,-0.0
 0000011,0.,-0.00000039,0.00000003,-0.00000015,-0.00000001,-0.00000018,
 -0.00000048,0.00000016,0.00000113,0.00000024,0.00000003,-0.00000020,0.
 00000047,-0.00000006,-0.00000050,0.00000005,-0.00000022,-0.00000089,0.
 00000062,0.00000053,0.00000062,0.00000024,-0.00000050,-0.00000043,-0.0
 0000326,0.00000199,0.00000081,0.00000181,-0.00000037,-0.00000085,0.000
 00375,-0.00000127,0.00000002,-0.00000251,0.00000116,-0.00000240,0.0000
 0431,0.00000008,0.00000011,-0.00000760,-0.00000569,0.00000897,0.000003
 50,0.00000043,-0.00000516,0.00000594,0.00000866,-0.00001116,0.00000377
 ,-0.00000415,0.00000829,-0.00000316,0.00000435,-0.00001604,-0.00005482
 ,-0.00001367,0.00002456,0.00001831,-0.00001880,-0.00003177,-0.00026443
 ,-0.00007992,0.00017384,-0.00128495,-0.00065057,-0.00165844,0.00241168
 ,-0.00143783,-0.00061638,0.01772145,0.01674162,-0.00414105,-0.00081040
 ,0.00069886,0.00030065,0.00858751,0.00960727,-0.04282399,0.,-0.0000000
 3,-0.00000007,0.,0.,-0.00000006,-0.00000007,-0.00000002,-0.00000001,0.
 00000006,0.00000001,0.00000004,-0.00000009,-0.00000005,-0.00000003,0.0
 0000007,0.,0.00000002,0.00000003,-0.00000013,-0.00000015,0.00000005,-0
 .00000001,0.00000009,0.00000008,-0.00000001,-0.00000012,-0.00000003,0.
 ,0.00000007,-0.00000003,0.00000006,0.00000007,0.,0.00000012,-0.0000001
 0,0.00000002,0.00000002,0.00000014,0.00000002,0.00000008,-0.00000016,0
 .00000028,-0.00000004,-0.00000006,0.,0.00000029,-0.00000009,0.00000021
 ,-0.00000010,-0.00000012,-0.00000010,0.00000012,0.00000002,-0.00000025
 ,-0.00000006,0.,0.00000041,0.00000006,-0.00000032,-0.00000020,-0.00000
 019,0.00000012,-0.00000010,-0.00000008,0.00000048,-0.00000009,-0.00000
 045,-0.00000005,-0.00000026,0.00000034,-0.00000008,0.00000025,-0.00000
 053,-0.00000018,0.00000031,0.00000027,-0.00000065,-0.00000025,-0.00000
 067,0.,0.00000067,-0.00000052,-0.00000104,-0.00000044,0.00000032,0.000
 00035,-0.00000055,0.00000088,0.00000033,0.00000004,0.00000034,0.000000
 41,-0.00000071,-0.00000101,0.00000050,0.00000101,0.00000057,-0.0000002
 1,0.00000147,-0.00000184,-0.00000133,0.00000013,0.00000092,0.00000100,
 0.00000349,-0.00000086,-0.00000102,-0.00000145,-0.00000007,0.00000059,
 -0.00000323,-0.00000199,0.00000067,0.00000004,0.00000040,0.00000092,-0
 .00000103,0.00000253,0.00000163,-0.00000055,-0.00000118,-0.00000201,0.
 00001063,0.00000028,-0.00000451,-0.00000285,-0.00000209,0.00000105,0.0
 0001575,0.00001092,-0.00000910,-0.00000101,0.00000267,0.00000681,0.000
 01026,0.00001194,0.00003459,-0.00000248,0.00000698,0.00000464,0.000003
 37,0.00001049,0.00003802,0.00006495,-0.00004682,-0.00001595,0.00042791
 ,-0.00007004,-0.00045624,0.00090467,0.00053118,0.00058433,-0.00027040,
 0.00007366,-0.00017724,-0.00005604,-0.00050813,0.00033707,-0.00015238,
 -0.00020685,0.00000726,0.00715186,0.00626126,-0.00130573,-0.02172547,-
 0.02193974,0.00133947,-0.01271025,-0.00898504,0.04840657\\-0.00000080,
 -0.00000090,0.00000027,0.00000091,0.00000008,0.00000090,0.00000062,0.0
 0000139,-0.00000032,0.00000290,0.00000007,0.00000452,-0.00000025,0.000
 00413,-0.00000246,0.00000006,-0.00000049,0.00000057,-0.00000541,0.0000
 0738,-0.00001580,0.00000222,-0.00000427,0.00000597,-0.00000322,0.00000
 481,-0.00000387,0.00000480,-0.00000961,0.00001160,0.00000282,-0.000004
 51,0.00000883,-0.00000364,0.00000502,-0.00000712,0.00000009,0.00000020
 ,0.00000002,-0.00000022,-0.00000015,-0.00000011,-0.00000082,-0.0000021
 2,-0.00000455,-0.00000030,0.00000022,-0.00000063,-0.00000017,-0.000000
 11,-0.00000006,-0.00000041,0.00000077,0.00000114,0.00000027,0.00000020
 ,0.00000064,-0.00000064,0.00000109,0.00000038,0.00000228,-0.00000406,-
 0.00000249,-0.00000382,0.00000189,0.00000430,0.00000424,0.00000148,-0.
 00000383,-0.00000273,-0.00000032,0.00000212,-0.00000036,-0.00000120,0.
 00000050,0.00000058,0.00000081,-0.00000025,0.00000056,0.00000182,-0.00
 000248,-0.00000195,-0.00000152,-0.00000161,-0.00000196,-0.00000183,0.0
 0000219,0.00000092,0.00000079,0.00000040,-0.00000063,-0.00000041,-0.00
 000054,0.00000349,0.00000159,0.00000203,0.00000212,-0.00000137,0.00000
 191,-0.00000073,0.00000237,-0.00000183,-0.00000058,0.00000018,0.000002
 01,-0.00000073,-0.00000041,-0.00000049,0.00000026,0.00000019,0.0000005
 0,-0.00000090,0.00000144,-0.00000229,-0.00000039,-0.00000283,-0.000000
 93,-0.00000133,0.00000109,0.00000025,0.00000044,-0.00000084,0.00000132
 ,0.00000038,0.00000077,-0.00000132,-0.00000034,-0.00000058,-0.00000124
 ,0.00000276,0.00000011,0.00000151,-0.00000003,-0.00000125,0.00000250,-
 0.00000040,0.00000088,-0.00000023,0.00000018,-0.00000016,-0.00000037,0
 .00000127,0.00000122,0.00000081,-0.00000083,0.00000033,-0.00000274,-0.
 00000098,0.00000040,0.00000044,-0.00000026,-0.00000074,-0.00000037,-0.
 00000005,0.00000010,0.00000054,0.00000124,0.00000216,-0.00000053,0.000
 00040,-0.00000284,0.00000054,-0.00000267,-0.00000040,0.00000154,0.0000
 0015,-0.00000043,-0.00000024,0.00000002,0.00000113,0.00000206,0.000001
 93,-0.00000061,-0.00000028,0.00000080,-0.00000042,-0.00000026,0.000000
 38,0.00000024,-0.00000006,0.,0.00000058,0.00000004,0.00000038,0.000000
 05,-0.00000010,0.00000013,-0.00000020,0.,0.00000015,-0.00000026,0.0000
 0045,0.00000089,0.00000055,0.00000027,-0.00000047,0.00000020,0.0000007
 8,0.00000018,0.00000066,-0.00000022,0.00000059,0.,-0.00000002,-0.00000
 041,-0.00000054,-0.00000031,-0.00000093,-0.00000012,-0.00000039,-0.000
 00023,-0.00000056,0.00000012,-0.00000017,0.00000007,-0.00000052,-0.000
 00037,0.00000001,-0.00000018,-0.00000067,0.00000002,-0.00000049,0.0000
 0005,0.00000006,0.00000054,-0.00000057,-0.00000130,0.00000031,-0.00000
 058,-0.00000062,-0.00000058,0.00000028,-0.00000065,-0.00000094,0.00000
 008,-0.00000012,-0.00000008,0.00000059,0.00000004,0.00000064,0.0000002
 5,0.00000047,-0.00000052,0.00000022,-0.00000006,0.00000026,-0.00000028
 ,0.00000025,0.00000037,0.00000044,0.00000082,0.00000055,0.00000028,0.0
 0000006,0.00000063,0.00000070,-0.00000032,0.00000011,0.00000010,-0.000
 00024,-0.00000007,-0.00000041,0.00000039,-0.00000038,0.00000014,-0.000
 00012,-0.00000053,-0.00000043,-0.00000025,0.00000006,-0.00000065,-0.00
 000048,0.00000034,-0.00000084,0.00000044,-0.00000053,-0.00000041,0.000
 00048,-0.00000069,-0.00000012,0.00000026,-0.00000058,-0.00000017,-0.00
 000012,-0.00000032,0.,-0.00000039,0.00000020,-0.00000014,-0.00000049,0
 .00000003,0.,-0.00000006,0.00000016,-0.00000033,-0.00000005,0.00000049
 ,0.00000023,-0.00000045,0.00000064,-0.00000018,-0.00000022,0.00000039,
 0.00000020,-0.00000055,-0.00000032,0.00000022,-0.00000012,0.00000015,-
 0.00000002,0.00000008,0.,0.00000020,0.00000020,-0.00000030,-0.00000023
 ,-0.00000026,-0.00000045,-0.00000010,0.00000023,-0.00000027,0.00000013
 ,0.00000045,-0.00000004,-0.00000059,0.00000048,-0.00000049,0.00000025,
 -0.00000027,-0.00000041,0.00000041,-0.00000016,-0.00000076,0.00000063,
 0.00000023,-0.00000005\\\@


 IF I HAVE SEEN FARTHER, IT IS BY STANDING ON THE
 SHOULDERS OF GIANTS. -- SIR ISAAC NEWTON
 Job cpu time:       9 days 19 hours 54 minutes 53.8 seconds.
 Elapsed time:       1 days  6 hours 54 minutes  2.4 seconds.
 File lengths (MBytes):  RWF=  34684 Int=      0 D2E=      0 Chk=    234 Scr=      1
 Normal termination of Gaussian 16 at Wed Jan 24 02:46:23 2024.
