 Entering Gaussian System, Link 0=g16
 Input=141.com
 Output=141.log
 Initial command:
 /sysapps/ubuntu-applications/gaussian/Gaussian/AVX2/g16/l1.exe "/scratch/selhajj1/4221651/Gau-224471.inp" -scrdir="/scratch/selhajj1/4221651/"
 Entering Link 1 = /sysapps/ubuntu-applications/gaussian/Gaussian/AVX2/g16/l1.exe PID=    224484.
  
 Copyright (c) 1988,1990,1992,1993,1995,1998,2003,2009,2016,
            Gaussian, Inc.  All Rights Reserved.
  
 This is part of the Gaussian(R) 16 program.  It is based on
 the Gaussian(R) 09 system (copyright 2009, Gaussian, Inc.),
 the Gaussian(R) 03 system (copyright 2003, Gaussian, Inc.),
 the Gaussian(R) 98 system (copyright 1998, Gaussian, Inc.),
 the Gaussian(R) 94 system (copyright 1995, Gaussian, Inc.),
 the Gaussian 92(TM) system (copyright 1992, Gaussian, Inc.),
 the Gaussian 90(TM) system (copyright 1990, Gaussian, Inc.),
 the Gaussian 88(TM) system (copyright 1988, Gaussian, Inc.),
 the Gaussian 86(TM) system (copyright 1986, Carnegie Mellon
 University), and the Gaussian 82(TM) system (copyright 1983,
 Carnegie Mellon University). Gaussian is a federally registered
 trademark of Gaussian, Inc.
  
 This software contains proprietary and confidential information,
 including trade secrets, belonging to Gaussian, Inc.
  
 This software is provided under written license and may be
 used, copied, transmitted, or stored only in accord with that
 written license.
  
 The following legend is applicable only to US Government
 contracts under FAR:
  
                    RESTRICTED RIGHTS LEGEND
  
 Use, reproduction and disclosure by the US Government is
 subject to restrictions as set forth in subparagraphs (a)
 and (c) of the Commercial Computer Software - Restricted
 Rights clause in FAR 52.227-19.
  
 Gaussian, Inc.
 340 Quinnipiac St., Bldg. 40, Wallingford CT 06492
  
  
 ---------------------------------------------------------------
 Warning -- This program may not be used in any manner that
 competes with the business of Gaussian, Inc. or will provide
 assistance to any competitor of Gaussian, Inc.  The licensee
 of this program is prohibited from giving any competitor of
 Gaussian, Inc. access to this program.  By using this program,
 the user acknowledges that Gaussian, Inc. is engaged in the
 business of creating and licensing software in the field of
 computational chemistry and represents and warrants to the
 licensee that it is not a competitor of Gaussian, Inc. and that
 it will not use this program in any manner prohibited above.
 ---------------------------------------------------------------
  

 Cite this work as:
 Gaussian 16, Revision A.03,
 M. J. Frisch, G. W. Trucks, H. B. Schlegel, G. E. Scuseria, 
 M. A. Robb, J. R. Cheeseman, G. Scalmani, V. Barone, 
 G. A. Petersson, H. Nakatsuji, X. Li, M. Caricato, A. V. Marenich, 
 J. Bloino, B. G. Janesko, R. Gomperts, B. Mennucci, H. P. Hratchian, 
 J. V. Ortiz, A. F. Izmaylov, J. L. Sonnenberg, D. Williams-Young, 
 F. Ding, F. Lipparini, F. Egidi, J. Goings, B. Peng, A. Petrone, 
 T. Henderson, D. Ranasinghe, V. G. Zakrzewski, J. Gao, N. Rega, 
 G. Zheng, W. Liang, M. Hada, M. Ehara, K. Toyota, R. Fukuda, 
 J. Hasegawa, M. Ishida, T. Nakajima, Y. Honda, O. Kitao, H. Nakai, 
 T. Vreven, K. Throssell, J. A. Montgomery, Jr., J. E. Peralta, 
 F. Ogliaro, M. J. Bearpark, J. J. Heyd, E. N. Brothers, K. N. Kudin, 
 V. N. Staroverov, T. A. Keith, R. Kobayashi, J. Normand, 
 K. Raghavachari, A. P. Rendell, J. C. Burant, S. S. Iyengar, 
 J. Tomasi, M. Cossi, J. M. Millam, M. Klene, C. Adamo, R. Cammi, 
 J. W. Ochterski, R. L. Martin, K. Morokuma, O. Farkas, 
 J. B. Foresman, and D. J. Fox, Gaussian, Inc., Wallingford CT, 2016.
 
 ******************************************
 Gaussian 16:  ES64L-G16RevA.03 25-Dec-2016
                21-Dec-2023 
 ******************************************
 %chk=141.chk
 %nproc=8
 Will use up to    8 processors via shared memory.
 %mem=30GB
 --------------------------------------
 #P UB3LYP/6-311++G(d,p) nosym opt freq
 --------------------------------------
 1/18=20,19=15,26=3,38=1/1,3;
 2/9=110,12=2,15=1,17=6,18=5,40=1/2;
 3/5=4,6=6,7=1111,11=2,25=1,30=1,71=1,74=-5,116=2/1,2,3;
 4//1;
 5/5=2,38=5/2;
 6/7=2,8=2,9=2,10=2,28=1/1;
 7/30=1/1,2,3,16;
 1/18=20,19=15,26=3/3(2);
 2/9=110,15=1/2;
 99//99;
 2/9=110,15=1/2;
 3/5=4,6=6,7=1111,11=2,25=1,30=1,71=1,74=-5,116=2/1,2,3;
 4/5=5,16=3,69=1/1;
 5/5=2,38=5/2;
 7/30=1/1,2,3,16;
 1/18=20,19=15,26=3/3(-5);
 2/9=110,15=1/2;
 6/7=2,8=2,9=2,10=2,19=2,28=1/1;
 99/9=1/99;
 Leave Link    1 at Thu Dec 21 05:33:55 2023, MaxMem=  4026531840 cpu:               0.8 elap:               0.1
 (Enter /sysapps/ubuntu-applications/gaussian/Gaussian/AVX2/g16/l101.exe)
 --------
 Oxidized
 --------
 Symbolic Z-matrix:
 Charge =  0 Multiplicity = 1
 C                    -3.28633   3.61474   0.08712 
 C                    -4.52407   2.9625    0.09472 
 C                    -4.58203   1.56826   0.07174 
 C                    -2.09932   2.8738    0.05659 
 C                    -2.15327   1.48305   0.03423 
 C                    -3.39366   0.83247   0.04205 
 C                    -0.79943   3.57432   0.04837 
 C                     0.44449   2.77984   0.01688 
 C                     0.39069   1.38909  -0.00535 
 C                    -0.90928   0.68853   0.00215 
 C                     1.6847    3.4307    0.00972 
 C                     2.87323   2.69526  -0.01897 
 C                     2.81561   1.30101  -0.04172 
 C                     1.57794   0.64845  -0.03494 
 O                    -0.75748   4.79868   0.06757 
 O                    -0.95124  -0.53582  -0.01793 
 H                    -3.44045  -0.25544   0.02458 
 H                     1.54553  -0.44     -0.05279 
 H                    -3.25365   4.70317   0.10514 
 H                     1.7312    4.51863   0.02703 
 O                     4.01151   3.45166  -0.02223 
 O                    -5.7207    0.81241   0.0757 
 C                    -6.96065   1.50916   0.09473 
 C                     5.25189   2.75572  -0.03967 
 H                    -5.4212    3.57341   0.11902 
 H                     3.71296   0.69037  -0.0652 
 H                    -7.76262   0.76472   0.08997 
 H                    -7.07754   2.13081  -0.79911 
 H                    -7.06409   2.10489   1.00763 
 H                     6.05331   3.50076  -0.03452 
 H                     5.35663   2.15961  -0.95216 
 H                     5.36831   2.13465   0.85461 
 
 ITRead=  0  0  0  0  0  0  0  0  0  0  0  0  0  0  0  0  0  0  0  0
 ITRead=  0  0  0  0  0  0  0  0  0  0  0  0
 MicOpt= -1 -1 -1 -1 -1 -1 -1 -1 -1 -1 -1 -1 -1 -1 -1 -1 -1 -1 -1 -1
 MicOpt= -1 -1 -1 -1 -1 -1 -1 -1 -1 -1 -1 -1
 NAtoms=     32 NQM=       32 NQMF=       0 NMMI=      0 NMMIF=      0
                NMic=       0 NMicF=      0.
                    Isotopes and Nuclear Properties:
 (Nuclear quadrupole moments (NQMom) in fm**2, nuclear magnetic moments (NMagM)
  in nuclear magnetons)

  Atom         1           2           3           4           5           6           7           8           9          10
 IAtWgt=          12          12          12          12          12          12          12          12          12          12
 AtmWgt=  12.0000000  12.0000000  12.0000000  12.0000000  12.0000000  12.0000000  12.0000000  12.0000000  12.0000000  12.0000000
 NucSpn=           0           0           0           0           0           0           0           0           0           0
 AtZEff=  -0.0000000  -0.0000000  -0.0000000  -0.0000000  -0.0000000  -0.0000000  -0.0000000  -0.0000000  -0.0000000  -0.0000000
 NQMom=    0.0000000   0.0000000   0.0000000   0.0000000   0.0000000   0.0000000   0.0000000   0.0000000   0.0000000   0.0000000
 NMagM=    0.0000000   0.0000000   0.0000000   0.0000000   0.0000000   0.0000000   0.0000000   0.0000000   0.0000000   0.0000000
 AtZNuc=   6.0000000   6.0000000   6.0000000   6.0000000   6.0000000   6.0000000   6.0000000   6.0000000   6.0000000   6.0000000

  Atom        11          12          13          14          15          16          17          18          19          20
 IAtWgt=          12          12          12          12          16          16           1           1           1           1
 AtmWgt=  12.0000000  12.0000000  12.0000000  12.0000000  15.9949146  15.9949146   1.0078250   1.0078250   1.0078250   1.0078250
 NucSpn=           0           0           0           0           0           0           1           1           1           1
 AtZEff=  -0.0000000  -0.0000000  -0.0000000  -0.0000000  -0.0000000  -0.0000000  -0.0000000  -0.0000000  -0.0000000  -0.0000000
 NQMom=    0.0000000   0.0000000   0.0000000   0.0000000   0.0000000   0.0000000   0.0000000   0.0000000   0.0000000   0.0000000
 NMagM=    0.0000000   0.0000000   0.0000000   0.0000000   0.0000000   0.0000000   2.7928460   2.7928460   2.7928460   2.7928460
 AtZNuc=   6.0000000   6.0000000   6.0000000   6.0000000   8.0000000   8.0000000   1.0000000   1.0000000   1.0000000   1.0000000

  Atom        21          22          23          24          25          26          27          28          29          30
 IAtWgt=          16          16          12          12           1           1           1           1           1           1
 AtmWgt=  15.9949146  15.9949146  12.0000000  12.0000000   1.0078250   1.0078250   1.0078250   1.0078250   1.0078250   1.0078250
 NucSpn=           0           0           0           0           1           1           1           1           1           1
 AtZEff=  -0.0000000  -0.0000000  -0.0000000  -0.0000000  -0.0000000  -0.0000000  -0.0000000  -0.0000000  -0.0000000  -0.0000000
 NQMom=    0.0000000   0.0000000   0.0000000   0.0000000   0.0000000   0.0000000   0.0000000   0.0000000   0.0000000   0.0000000
 NMagM=    0.0000000   0.0000000   0.0000000   0.0000000   2.7928460   2.7928460   2.7928460   2.7928460   2.7928460   2.7928460
 AtZNuc=   8.0000000   8.0000000   6.0000000   6.0000000   1.0000000   1.0000000   1.0000000   1.0000000   1.0000000   1.0000000

  Atom        31          32
 IAtWgt=           1           1
 AtmWgt=   1.0078250   1.0078250
 NucSpn=           1           1
 AtZEff=  -0.0000000  -0.0000000
 NQMom=    0.0000000   0.0000000
 NMagM=    2.7928460   2.7928460
 AtZNuc=   1.0000000   1.0000000
 Leave Link  101 at Thu Dec 21 05:33:56 2023, MaxMem=  4026531840 cpu:               6.3 elap:               0.8
 (Enter /sysapps/ubuntu-applications/gaussian/Gaussian/AVX2/g16/l103.exe)

 GradGradGradGradGradGradGradGradGradGradGradGradGradGradGradGradGradGrad
 Berny optimization.
 Initialization pass.
                           ----------------------------
                           !    Initial Parameters    !
                           ! (Angstroms and Degrees)  !
 --------------------------                            --------------------------
 ! Name  Definition              Value          Derivative Info.                !
 --------------------------------------------------------------------------------
 ! R1    R(1,2)                  1.3991         estimate D2E/DX2                !
 ! R2    R(1,4)                  1.3996         estimate D2E/DX2                !
 ! R3    R(1,19)                 1.0891         estimate D2E/DX2                !
 ! R4    R(2,3)                  1.3956         estimate D2E/DX2                !
 ! R5    R(2,25)                 1.0857         estimate D2E/DX2                !
 ! R6    R(3,6)                  1.398          estimate D2E/DX2                !
 ! R7    R(3,22)                 1.3667         estimate D2E/DX2                !
 ! R8    R(4,5)                  1.392          estimate D2E/DX2                !
 ! R9    R(4,7)                  1.4767         estimate D2E/DX2                !
 ! R10   R(5,6)                  1.4007         estimate D2E/DX2                !
 ! R11   R(5,10)                 1.4764         estimate D2E/DX2                !
 ! R12   R(6,17)                 1.0891         estimate D2E/DX2                !
 ! R13   R(7,8)                  1.4763         estimate D2E/DX2                !
 ! R14   R(7,15)                 1.2252         estimate D2E/DX2                !
 ! R15   R(8,9)                  1.392          estimate D2E/DX2                !
 ! R16   R(8,11)                 1.4006         estimate D2E/DX2                !
 ! R17   R(9,10)                 1.4767         estimate D2E/DX2                !
 ! R18   R(9,14)                 1.3996         estimate D2E/DX2                !
 ! R19   R(10,16)                1.2252         estimate D2E/DX2                !
 ! R20   R(11,12)                1.398          estimate D2E/DX2                !
 ! R21   R(11,20)                1.0891         estimate D2E/DX2                !
 ! R22   R(12,13)                1.3956         estimate D2E/DX2                !
 ! R23   R(12,21)                1.3667         estimate D2E/DX2                !
 ! R24   R(13,14)                1.3992         estimate D2E/DX2                !
 ! R25   R(13,26)                1.0857         estimate D2E/DX2                !
 ! R26   R(14,18)                1.0891         estimate D2E/DX2                !
 ! R27   R(21,24)                1.4224         estimate D2E/DX2                !
 ! R28   R(22,23)                1.4224         estimate D2E/DX2                !
 ! R29   R(23,27)                1.0942         estimate D2E/DX2                !
 ! R30   R(23,28)                1.095          estimate D2E/DX2                !
 ! R31   R(23,29)                1.095          estimate D2E/DX2                !
 ! R32   R(24,30)                1.0943         estimate D2E/DX2                !
 ! R33   R(24,31)                1.095          estimate D2E/DX2                !
 ! R34   R(24,32)                1.095          estimate D2E/DX2                !
 ! A1    A(2,1,4)              120.2393         estimate D2E/DX2                !
 ! A2    A(2,1,19)             119.4964         estimate D2E/DX2                !
 ! A3    A(4,1,19)             120.2643         estimate D2E/DX2                !
 ! A4    A(1,2,3)              120.157          estimate D2E/DX2                !
 ! A5    A(1,2,25)             117.9591         estimate D2E/DX2                !
 ! A6    A(3,2,25)             121.884          estimate D2E/DX2                !
 ! A7    A(2,3,6)              119.395          estimate D2E/DX2                !
 ! A8    A(2,3,22)             125.9475         estimate D2E/DX2                !
 ! A9    A(6,3,22)             114.6575         estimate D2E/DX2                !
 ! A10   A(1,4,5)              119.7623         estimate D2E/DX2                !
 ! A11   A(1,4,7)              119.7065         estimate D2E/DX2                !
 ! A12   A(5,4,7)              120.5312         estimate D2E/DX2                !
 ! A13   A(4,5,6)              119.8877         estimate D2E/DX2                !
 ! A14   A(4,5,10)             120.3553         estimate D2E/DX2                !
 ! A15   A(6,5,10)             119.7571         estimate D2E/DX2                !
 ! A16   A(3,6,5)              120.5588         estimate D2E/DX2                !
 ! A17   A(3,6,17)             119.3124         estimate D2E/DX2                !
 ! A18   A(5,6,17)             120.1288         estimate D2E/DX2                !
 ! A19   A(4,7,8)              119.1135         estimate D2E/DX2                !
 ! A20   A(4,7,15)             120.2725         estimate D2E/DX2                !
 ! A21   A(8,7,15)             120.614          estimate D2E/DX2                !
 ! A22   A(7,8,9)              120.3614         estimate D2E/DX2                !
 ! A23   A(7,8,11)             119.7429         estimate D2E/DX2                !
 ! A24   A(9,8,11)             119.8957         estimate D2E/DX2                !
 ! A25   A(8,9,10)             120.5256         estimate D2E/DX2                !
 ! A26   A(8,9,14)             119.7525         estimate D2E/DX2                !
 ! A27   A(10,9,14)            119.7218         estimate D2E/DX2                !
 ! A28   A(5,10,9)             119.113          estimate D2E/DX2                !
 ! A29   A(5,10,16)            120.6142         estimate D2E/DX2                !
 ! A30   A(9,10,16)            120.2728         estimate D2E/DX2                !
 ! A31   A(8,11,12)            120.5606         estimate D2E/DX2                !
 ! A32   A(8,11,20)            120.1278         estimate D2E/DX2                !
 ! A33   A(12,11,20)           119.3116         estimate D2E/DX2                !
 ! A34   A(11,12,13)           119.3929         estimate D2E/DX2                !
 ! A35   A(11,12,21)           114.6445         estimate D2E/DX2                !
 ! A36   A(13,12,21)           125.9626         estimate D2E/DX2                !
 ! A37   A(12,13,14)           120.1568         estimate D2E/DX2                !
 ! A38   A(12,13,26)           121.8792         estimate D2E/DX2                !
 ! A39   A(14,13,26)           117.9639         estimate D2E/DX2                !
 ! A40   A(9,14,13)            120.2415         estimate D2E/DX2                !
 ! A41   A(9,14,18)            120.2626         estimate D2E/DX2                !
 ! A42   A(13,14,18)           119.496          estimate D2E/DX2                !
 ! A43   A(12,21,24)           117.0996         estimate D2E/DX2                !
 ! A44   A(3,22,23)            117.0911         estimate D2E/DX2                !
 ! A45   A(22,23,27)           107.7928         estimate D2E/DX2                !
 ! A46   A(22,23,28)           111.1133         estimate D2E/DX2                !
 ! A47   A(22,23,29)           111.1001         estimate D2E/DX2                !
 ! A48   A(27,23,28)           107.7244         estimate D2E/DX2                !
 ! A49   A(27,23,29)           107.7296         estimate D2E/DX2                !
 ! A50   A(28,23,29)           111.1982         estimate D2E/DX2                !
 ! A51   A(21,24,30)           107.7874         estimate D2E/DX2                !
 ! A52   A(21,24,31)           111.1002         estimate D2E/DX2                !
 ! A53   A(21,24,32)           111.1134         estimate D2E/DX2                !
 ! A54   A(30,24,31)           107.7302         estimate D2E/DX2                !
 ! A55   A(30,24,32)           107.7262         estimate D2E/DX2                !
 ! A56   A(31,24,32)           111.201          estimate D2E/DX2                !
 ! D1    D(4,1,2,3)             -0.0067         estimate D2E/DX2                !
 ! D2    D(4,1,2,25)           179.9785         estimate D2E/DX2                !
 ! D3    D(19,1,2,3)           179.9933         estimate D2E/DX2                !
 ! D4    D(19,1,2,25)           -0.0214         estimate D2E/DX2                !
 ! D5    D(2,1,4,5)             -0.0228         estimate D2E/DX2                !
 ! D6    D(2,1,4,7)            179.9776         estimate D2E/DX2                !
 ! D7    D(19,1,4,5)           179.9772         estimate D2E/DX2                !
 ! D8    D(19,1,4,7)            -0.0225         estimate D2E/DX2                !
 ! D9    D(1,2,3,6)              0.043          estimate D2E/DX2                !
 ! D10   D(1,2,3,22)          -179.9811         estimate D2E/DX2                !
 ! D11   D(25,2,3,6)          -179.9416         estimate D2E/DX2                !
 ! D12   D(25,2,3,22)            0.0343         estimate D2E/DX2                !
 ! D13   D(2,3,6,5)             -0.0504         estimate D2E/DX2                !
 ! D14   D(2,3,6,17)           179.9735         estimate D2E/DX2                !
 ! D15   D(22,3,6,5)           179.971          estimate D2E/DX2                !
 ! D16   D(22,3,6,17)           -0.005          estimate D2E/DX2                !
 ! D17   D(2,3,22,23)            0.5097         estimate D2E/DX2                !
 ! D18   D(6,3,22,23)         -179.5133         estimate D2E/DX2                !
 ! D19   D(1,4,5,6)              0.0155         estimate D2E/DX2                !
 ! D20   D(1,4,5,10)          -179.9903         estimate D2E/DX2                !
 ! D21   D(7,4,5,6)           -179.9848         estimate D2E/DX2                !
 ! D22   D(7,4,5,10)             0.0094         estimate D2E/DX2                !
 ! D23   D(1,4,7,8)            179.9643         estimate D2E/DX2                !
 ! D24   D(1,4,7,15)            -0.0312         estimate D2E/DX2                !
 ! D25   D(5,4,7,8)             -0.0354         estimate D2E/DX2                !
 ! D26   D(5,4,7,15)           179.9692         estimate D2E/DX2                !
 ! D27   D(4,5,6,3)              0.0212         estimate D2E/DX2                !
 ! D28   D(4,5,6,17)           179.9971         estimate D2E/DX2                !
 ! D29   D(10,5,6,3)          -179.973          estimate D2E/DX2                !
 ! D30   D(10,5,6,17)            0.0028         estimate D2E/DX2                !
 ! D31   D(4,5,10,9)             0.0227         estimate D2E/DX2                !
 ! D32   D(4,5,10,16)         -179.9831         estimate D2E/DX2                !
 ! D33   D(6,5,10,9)          -179.983          estimate D2E/DX2                !
 ! D34   D(6,5,10,16)            0.0111         estimate D2E/DX2                !
 ! D35   D(4,7,8,9)              0.029          estimate D2E/DX2                !
 ! D36   D(4,7,8,11)          -179.9546         estimate D2E/DX2                !
 ! D37   D(15,7,8,9)          -179.9755         estimate D2E/DX2                !
 ! D38   D(15,7,8,11)            0.0409         estimate D2E/DX2                !
 ! D39   D(7,8,9,10)             0.003          estimate D2E/DX2                !
 ! D40   D(7,8,9,14)          -179.9918         estimate D2E/DX2                !
 ! D41   D(11,8,9,10)          179.9866         estimate D2E/DX2                !
 ! D42   D(11,8,9,14)           -0.0083         estimate D2E/DX2                !
 ! D43   D(7,8,11,12)          179.9524         estimate D2E/DX2                !
 ! D44   D(7,8,11,20)           -0.0173         estimate D2E/DX2                !
 ! D45   D(9,8,11,12)           -0.0313         estimate D2E/DX2                !
 ! D46   D(9,8,11,20)          179.999          estimate D2E/DX2                !
 ! D47   D(8,9,10,5)            -0.0291         estimate D2E/DX2                !
 ! D48   D(8,9,10,16)          179.9767         estimate D2E/DX2                !
 ! D49   D(14,9,10,5)          179.9657         estimate D2E/DX2                !
 ! D50   D(14,9,10,16)          -0.0285         estimate D2E/DX2                !
 ! D51   D(8,9,14,13)            0.0232         estimate D2E/DX2                !
 ! D52   D(8,9,14,18)         -179.9811         estimate D2E/DX2                !
 ! D53   D(10,9,14,13)        -179.9717         estimate D2E/DX2                !
 ! D54   D(10,9,14,18)           0.024          estimate D2E/DX2                !
 ! D55   D(8,11,12,13)           0.0554         estimate D2E/DX2                !
 ! D56   D(8,11,12,21)        -179.9651         estimate D2E/DX2                !
 ! D57   D(20,11,12,13)       -179.9746         estimate D2E/DX2                !
 ! D58   D(20,11,12,21)          0.0049         estimate D2E/DX2                !
 ! D59   D(11,12,13,14)         -0.0403         estimate D2E/DX2                !
 ! D60   D(11,12,13,26)        179.9451         estimate D2E/DX2                !
 ! D61   D(21,12,13,14)        179.9827         estimate D2E/DX2                !
 ! D62   D(21,12,13,26)         -0.0319         estimate D2E/DX2                !
 ! D63   D(11,12,21,24)        179.4881         estimate D2E/DX2                !
 ! D64   D(13,12,21,24)         -0.5339         estimate D2E/DX2                !
 ! D65   D(12,13,14,9)           0.0012         estimate D2E/DX2                !
 ! D66   D(12,13,14,18)       -179.9945         estimate D2E/DX2                !
 ! D67   D(26,13,14,9)        -179.9847         estimate D2E/DX2                !
 ! D68   D(26,13,14,18)          0.0196         estimate D2E/DX2                !
 ! D69   D(12,21,24,30)       -179.6974         estimate D2E/DX2                !
 ! D70   D(12,21,24,31)         62.4886         estimate D2E/DX2                !
 ! D71   D(12,21,24,32)        -61.8806         estimate D2E/DX2                !
 ! D72   D(3,22,23,27)         179.6978         estimate D2E/DX2                !
 ! D73   D(3,22,23,28)          61.88           estimate D2E/DX2                !
 ! D74   D(3,22,23,29)         -62.4855         estimate D2E/DX2                !
 --------------------------------------------------------------------------------
 Trust Radius=3.00D-01 FncErr=1.00D-07 GrdErr=1.00D-06 EigMax=2.50D+02 EigMin=1.00D-04
 Number of steps in this run=    174 maximum allowed number of steps=    192.
 GradGradGradGradGradGradGradGradGradGradGradGradGradGradGradGradGradGrad

 Leave Link  103 at Thu Dec 21 05:33:56 2023, MaxMem=  4026531840 cpu:               0.4 elap:               0.1
 (Enter /sysapps/ubuntu-applications/gaussian/Gaussian/AVX2/g16/l202.exe)
                          Input orientation:                          
 ---------------------------------------------------------------------
 Center     Atomic      Atomic             Coordinates (Angstroms)
 Number     Number       Type             X           Y           Z
 ---------------------------------------------------------------------
      1          6           0       -3.286330    3.614740    0.087120
      2          6           0       -4.524070    2.962500    0.094720
      3          6           0       -4.582030    1.568260    0.071740
      4          6           0       -2.099320    2.873800    0.056590
      5          6           0       -2.153270    1.483050    0.034230
      6          6           0       -3.393660    0.832470    0.042050
      7          6           0       -0.799430    3.574320    0.048370
      8          6           0        0.444490    2.779840    0.016880
      9          6           0        0.390690    1.389090   -0.005350
     10          6           0       -0.909280    0.688530    0.002150
     11          6           0        1.684700    3.430700    0.009720
     12          6           0        2.873230    2.695260   -0.018970
     13          6           0        2.815610    1.301010   -0.041720
     14          6           0        1.577940    0.648450   -0.034940
     15          8           0       -0.757480    4.798680    0.067570
     16          8           0       -0.951240   -0.535820   -0.017930
     17          1           0       -3.440450   -0.255440    0.024580
     18          1           0        1.545530   -0.440000   -0.052790
     19          1           0       -3.253650    4.703170    0.105140
     20          1           0        1.731200    4.518630    0.027030
     21          8           0        4.011510    3.451660   -0.022230
     22          8           0       -5.720700    0.812410    0.075700
     23          6           0       -6.960650    1.509160    0.094730
     24          6           0        5.251890    2.755720   -0.039670
     25          1           0       -5.421200    3.573410    0.119020
     26          1           0        3.712960    0.690370   -0.065200
     27          1           0       -7.762620    0.764720    0.089970
     28          1           0       -7.077540    2.130810   -0.799110
     29          1           0       -7.064090    2.104890    1.007630
     30          1           0        6.053310    3.500760   -0.034520
     31          1           0        5.356630    2.159610   -0.952160
     32          1           0        5.368310    2.134650    0.854610
 ---------------------------------------------------------------------
                    Distance matrix (angstroms):
                    1          2          3          4          5
     1  C    0.000000
     2  C    1.399098   0.000000
     3  C    2.422221   1.395633   0.000000
     4  C    1.399613   2.426671   2.805087   0.000000
     5  C    2.414689   2.795197   2.430544   1.391976   0.000000
     6  C    2.784704   2.411976   1.398031   2.417138   1.400672
     7  C    2.487530   3.774840   4.281692   1.476655   2.491283
     8  C    3.823743   4.972526   5.170768   2.545854   2.903502
     9  C    4.299133   5.161443   4.976544   2.899716   2.546002
    10  C    3.770980   4.271559   3.777282   2.488888   1.476415
    11  C    4.975038   6.226978   6.537923   3.825068   4.303946
    12  C    6.228714   7.402999   7.540508   4.976328   5.170879
    13  C    6.527145   7.526624   7.403335   5.161383   4.972794
    14  C    5.698675   6.527340   6.229178   4.299163   3.824038
    15  O    2.792343   4.190405   5.006277   2.346448   3.597602
    16  O    4.763489   5.001604   4.197360   3.598493   2.350198
    17  H    3.873752   3.396217   2.152048   3.404673   2.163163
    18  H    6.309308   6.959800   6.449466   4.927288   4.169750
    19  H    1.089070   2.154996   3.404904   2.163661   3.403680
    20  H    5.098650   6.446280   6.968756   4.168840   4.929899
    21  O    7.300481   8.550385   8.798009   6.138597   6.471717
    22  O    3.712053   2.460726   1.366709   4.167024   3.630156
    23  C    4.234873   2.837097   2.379465   5.049379   4.807832
    24  C    8.582260   9.779070   9.905981   7.352788   7.514090
    25  H    2.135508   1.085654   2.174182   3.395326   3.880227
    26  H    7.587174   8.546158   8.342440   6.210056   5.920379
    27  H    5.306580   3.913881   3.280573   6.043368   5.655432
    28  H    4.166620   2.830344   2.702298   5.105578   5.036118
    29  H    4.171146   2.832067   2.706378   5.113183   5.044834
    30  H    9.341128  10.591855  10.810009   8.177210   8.451262
    31  H    8.825999   9.968391  10.008748   7.557700   7.604558
    32  H    8.813768   9.956001   9.997147   7.546435   7.594193
                    6          7          8          9         10
     6  C    0.000000
     7  C    3.774627   0.000000
     8  C    4.303984   1.476322   0.000000
     9  C    3.825360   2.488876   1.391968   0.000000
    10  C    2.488866   2.888250   2.491282   1.476741   0.000000
    11  C    5.704523   2.488578   1.400639   2.417201   3.774690
    12  C    6.538166   3.776998   2.430477   2.805222   4.281915
    13  C    6.227486   4.271366   2.795100   2.426792   3.775164
    14  C    4.975600   3.770881   2.414584   1.399638   2.487819
    15  O    4.762449   1.225229   2.350110   3.598460   4.113473
    16  O    2.800220   4.113477   3.597621   2.346532   1.225233
    17  H    1.089056   4.652162   4.930085   4.169294   2.701556
    18  H    5.101350   4.650144   3.403603   2.163672   2.702349
    19  H    3.873745   2.701985   4.169320   4.927124   4.650163
    20  H    6.312859   2.701160   2.163127   3.404708   4.652141
    21  O    7.854988   4.813021   3.629945   4.167111   5.643550
    22  O    2.327370   5.643385   6.471770   6.139073   4.813576
    23  C    3.630992   6.498282   7.513773   7.353002   6.107461
    24  C    8.857263   6.107072   4.807793   5.049764   6.498849
    25  H    3.410219   4.622310   5.920009   6.210055   5.356642
    26  H    7.108850   5.356466   3.880144   3.395478   4.622731
    27  H    4.369748   7.508768   8.451195   8.177737   6.854326
    28  H    3.995524   6.497431   7.593946   7.546831   6.385109
    29  H    4.002931   6.505795   7.603678   7.557264   6.395213
    30  H    9.816867   6.853636   5.655195   6.043614   7.509171
    31  H    8.906028   6.395275   5.045081   5.113777   6.506644
    32  H    8.895395   6.384645   5.036076   5.106084   6.498160
                   11         12         13         14         15
    11  C    0.000000
    12  C    1.397962   0.000000
    13  C    2.411884   1.395626   0.000000
    14  C    2.784656   2.422285   1.399181   0.000000
    15  O    2.799814   4.196894   5.001261   4.763308   0.000000
    16  O    4.762586   5.006641   4.190903   2.792765   5.338702
    17  H    6.313083   6.969296   6.447109   5.099490   5.722264
    18  H    3.873705   3.404965   2.155073   1.089079   5.723820
    19  H    5.100548   6.448703   6.959323   6.309092   2.498279
    20  H    1.089061   2.151982   3.396138   3.873709   2.504715
    21  O    2.327124   1.366687   2.460864   3.712198   4.956389
    22  O    7.854919   8.798279   8.551088   7.301320   6.365844
    23  C    8.856727   9.905804   9.779428   8.582841   7.021467
    24  C    3.630824   2.379518   2.837542   4.235389   6.348048
    25  H    7.108173   8.341928   8.546033   7.587296   4.822263
    26  H    3.410111   2.174136   1.085665   2.135646   6.072946
    27  H    9.816606  10.810188  10.592634   9.342119   8.083645
    28  H    8.894986   9.997252   9.956738   8.814686   6.914609
    29  H    8.904770  10.007636   9.967739   8.825693   6.921961
    30  H    4.369396   3.280546   3.914288   5.307034   6.934110
    31  H    4.002993   2.706481   2.832468   4.171738   6.736979
    32  H    3.995318   2.702379   2.831014   4.167373   6.726202
                   16         17         18         19         20
    16  O    0.000000
    17  H    2.505312   0.000000
    18  H    2.498851   4.989994   0.000000
    19  H    5.723919   4.962781   7.036282   0.000000
    20  H    5.722322   7.038303   4.962747   4.988876   0.000000
    21  O    6.366231   8.323250   4.607278   7.373266   2.518068
    22  O    4.957241   2.518424   7.374492   4.607083   8.322815
    23  C    6.348830   3.938343   8.727891   4.893226   9.198356
    24  C    7.022359   9.199347   4.893864   8.726840   3.937964
    25  H    6.073308   4.311888   8.041909   2.444345   7.215174
    26  H    4.822918   7.216224   2.444513   8.041470   4.311781
    27  H    6.935268   4.441414   9.386873   5.986855  10.209232
    28  H    6.727013   4.427310   9.029031   4.696471   9.163956
    29  H    6.737363   4.434897   9.040272   4.699468   9.173050
    30  H    8.084428  10.209996   5.987487   9.385350   4.440775
    31  H    6.922958   9.174699   4.700141   9.040161   4.434809
    32  H    6.915884   9.164919   4.697430   9.027580   4.426829
                   21         22         23         24         25
    21  O    0.000000
    22  O   10.084203   0.000000
    23  C   11.143396   1.422427   0.000000
    24  C    1.422385  11.143944  12.276730   0.000000
    25  H    9.434553   2.777534   2.575194  10.705543   0.000000
    26  H    2.777715   9.435501  10.706164   2.575777   9.580122
    27  H   12.077350   2.042527   1.094244  13.166562   3.656751
    28  H   11.194428   2.084343   1.095017  12.368594   2.380655
    29  H   11.204611   2.084153   1.094980  12.377551   2.375977
    30  H    2.042427  12.077528  13.166105   1.094251  11.475767
    31  H    2.084109  11.206190  12.378790   1.094968  10.922814
    32  H    2.084291  11.194693  12.368181   1.094997  10.909842
                   26         27         28         29         30
    26  H    0.000000
    27  H   11.476870   0.000000
    28  H   10.910929   1.768050   0.000000
    29  H   10.922300   1.768078   1.806976   0.000000
    30  H    3.657386  14.084791  13.224242  13.232563   0.000000
    31  H    2.376345  13.234292  12.435145  12.574500   1.768081
    32  H    2.381634  13.224322  12.555237  12.433377   1.768059
                   31         32
    31  H    0.000000
    32  H    1.806980   0.000000
 Symmetry turned off by external request.
 Stoichiometry    C16H12O4
 Framework group  C1[X(C16H12O4)]
 Deg. of freedom    90
 Full point group                 C1      NOp   1
 Rotational constants (GHZ):           1.0350548           0.1663510           0.1435857
 Leave Link  202 at Thu Dec 21 05:33:56 2023, MaxMem=  4026531840 cpu:               0.2 elap:               0.1
 (Enter /sysapps/ubuntu-applications/gaussian/Gaussian/AVX2/g16/l301.exe)
 Standard basis: 6-311++G(d,p) (5D, 7F)
 Ernie: Thresh=  0.10000D-02 Tol=  0.10000D-05 Strict=F.
   524 basis functions,   828 primitive gaussians,   544 cartesian basis functions
    70 alpha electrons       70 beta electrons
       nuclear repulsion energy      1430.2152718800 Hartrees.
 IExCor=  402 DFT=T Ex+Corr=B3LYP ExCW=0 ScaHFX=  0.200000
 ScaDFX=  0.800000  0.720000  1.000000  0.810000 ScalE2=  1.000000  1.000000
 IRadAn=      5 IRanWt=     -1 IRanGd=            0 ICorTp=0 IEmpDi=  4
 NAtoms=   32 NActive=   32 NUniq=   32 SFac= 1.00D+00 NAtFMM=   60 NAOKFM=F Big=F
 Integral buffers will be    131072 words long.
 Raffenetti 2 integral format.
 Two-electron integral symmetry is turned off.
 Leave Link  301 at Thu Dec 21 05:33:57 2023, MaxMem=  4026531840 cpu:               1.0 elap:               0.2
 (Enter /sysapps/ubuntu-applications/gaussian/Gaussian/AVX2/g16/l302.exe)
 NPDir=0 NMtPBC=     1 NCelOv=     1 NCel=       1 NClECP=     1 NCelD=      1
         NCelK=      1 NCelE2=     1 NClLst=     1 CellRange=     0.0.
 One-electron integrals computed using PRISM.
 NBasis=   524 RedAO= T EigKep=  1.23D-06  NBF=   524
 NBsUse=   517 1.00D-06 EigRej=  7.74D-07 NBFU=   517
 Precomputing XC quadrature grid using
 IXCGrd= 4 IRadAn=           5 IRanWt=          -1 IRanGd=           0 AccXCQ= 0.00D+00.
 Generated NRdTot=       0 NPtTot=           0 NUsed=           0 NTot=          32
 NSgBfM=   532   532   532   532   532 MxSgAt=    32 MxSgA2=    32.
 Leave Link  302 at Thu Dec 21 05:33:58 2023, MaxMem=  4026531840 cpu:               4.3 elap:               0.6
 (Enter /sysapps/ubuntu-applications/gaussian/Gaussian/AVX2/g16/l303.exe)
 DipDrv:  MaxL=1.
 Leave Link  303 at Thu Dec 21 05:33:58 2023, MaxMem=  4026531840 cpu:               1.1 elap:               0.2
 (Enter /sysapps/ubuntu-applications/gaussian/Gaussian/AVX2/g16/l401.exe)
 ExpMin= 3.60D-02 ExpMax= 8.59D+03 ExpMxC= 1.30D+03 IAcc=3 IRadAn=         5 AccDes= 0.00D+00
 Harris functional with IExCor=  402 and IRadAn=       5 diagonalized for initial guess.
 HarFok:  IExCor=  402 AccDes= 0.00D+00 IRadAn=         5 IDoV= 1 UseB2=F ITyADJ=14
 ICtDFT=  3500011 ScaDFX=  1.000000  1.000000  1.000000  1.000000
 FoFCou: FMM=F IPFlag=           0 FMFlag=      100000 FMFlg1=           0
         NFxFlg=           0 DoJE=T BraDBF=F KetDBF=T FulRan=T
         wScrn=  0.000000 ICntrl=       500 IOpCl=  0 I1Cent=   200000004 NGrid=           0
         NMat0=    1 NMatS0=      1 NMatT0=    0 NMatD0=    1 NMtDS0=    0 NMtDT0=    0
 Symmetry not used in FoFCou.
 Harris En= -918.082788890974    
 JPrj=0 DoOrth=F DoCkMO=F.
 Initial guess <Sx>= 0.0000 <Sy>= 0.0000 <Sz>= 0.0000 <S**2>=-0.0000 S=-0.0000
 Leave Link  401 at Thu Dec 21 05:34:01 2023, MaxMem=  4026531840 cpu:              20.5 elap:               2.7
 (Enter /sysapps/ubuntu-applications/gaussian/Gaussian/AVX2/g16/l502.exe)
 Two-electron integral symmetry not used.
 UHF open shell SCF:
 Using DIIS extrapolation, IDIIS=  1040.
 NGot=  4026531840 LenX=  4025931732 LenY=  4025635252
 Requested convergence on RMS density matrix=1.00D-08 within 128 cycles.
 Requested convergence on MAX density matrix=1.00D-06.
 Requested convergence on             energy=1.00D-06.
 No special actions if energy rises.
 Fock matrices will be formed incrementally for  20 cycles.

 Cycle   1  Pass 1  IDiag  1:
 FoFJK:  IHMeth= 1 ICntrl=       0 DoSepK=F KAlg= 0 I1Cent=           0 FoldK=F
 IRaf= 800000000 NMat=       1 IRICut=       1 DoRegI=T DoRafI=F ISym2E= 0 IDoP0=0 IntGTp=1.
 FoFCou: FMM=F IPFlag=           0 FMFlag=      100000 FMFlg1=           0
         NFxFlg=           0 DoJE=F BraDBF=F KetDBF=F FulRan=T
         wScrn=  0.000000 ICntrl=         0 IOpCl=  1 I1Cent=           0 NGrid=           0
         NMat0=    1 NMatS0=      1 NMatT0=    0 NMatD0=    1 NMtDS0=    0 NMtDT0=    0
 Symmetry not used in FoFCou.
 E= -917.655976348561    
 DIIS: error= 3.97D-02 at cycle   1 NSaved=   1.
 NSaved= 1 IEnMin= 1 EnMin= -917.655976348561     IErMin= 1 ErrMin= 3.97D-02
 ErrMax= 3.97D-02  0.00D+00 EMaxC= 1.00D-01 BMatC= 2.05D+00 BMatP= 2.05D+00
 IDIUse=3 WtCom= 6.03D-01 WtEn= 3.97D-01
 Coeff-Com:  0.100D+01
 Coeff-En:   0.100D+01
 Coeff:      0.100D+01
 Gap=     0.141 Goal=   None    Shift=    0.000
 Gap=     0.141 Goal=   None    Shift=    0.000
 GapD=    0.141 DampG=1.000 DampE=0.500 DampFc=0.5000 IDamp=-1.
 Damping current iteration by 5.00D-01
 RMSDP=1.69D-02 MaxDP=8.72D-01              OVMax= 2.74D-01

 Cycle   2  Pass 1  IDiag  1:
 RMSU=  8.36D-03    CP:  1.02D+00
 E= -917.792259074692     Delta-E=       -0.136282726131 Rises=F Damp=T
 DIIS: error= 1.49D-02 at cycle   2 NSaved=   2.
 NSaved= 2 IEnMin= 2 EnMin= -917.792259074692     IErMin= 2 ErrMin= 1.49D-02
 ErrMax= 1.49D-02  0.00D+00 EMaxC= 1.00D-01 BMatC= 3.03D-01 BMatP= 2.05D+00
 IDIUse=3 WtCom= 8.51D-01 WtEn= 1.49D-01
 Coeff-Com:  0.165D+00 0.835D+00
 Coeff-En:   0.271D+00 0.729D+00
 Coeff:      0.181D+00 0.819D+00
 Gap=     0.171 Goal=   None    Shift=    0.000
 Gap=     0.171 Goal=   None    Shift=    0.000
 RMSDP=1.11D-02 MaxDP=1.10D+00 DE=-1.36D-01 OVMax= 3.00D-01

 Cycle   3  Pass 1  IDiag  1:
 RMSU=  9.04D-03    CP:  1.03D+00  2.25D-01
 E= -917.982160125277     Delta-E=       -0.189901050585 Rises=F Damp=F
 DIIS: error= 2.23D-02 at cycle   3 NSaved=   3.
 NSaved= 3 IEnMin= 3 EnMin= -917.982160125277     IErMin= 2 ErrMin= 1.49D-02
 ErrMax= 2.23D-02  0.00D+00 EMaxC= 1.00D-01 BMatC= 4.17D-01 BMatP= 3.03D-01
 IDIUse=2 WtCom= 0.00D+00 WtEn= 1.00D+00
 Coeff-En:   0.000D+00 0.000D+00 0.100D+01
 Coeff:      0.000D+00 0.000D+00 0.100D+01
 Gap=     0.157 Goal=   None    Shift=    0.000
 Gap=     0.157 Goal=   None    Shift=    0.000
 RMSDP=1.63D-02 MaxDP=1.61D+00 DE=-1.90D-01 OVMax= 2.50D-01

 Cycle   4  Pass 1  IDiag  1:
 RMSU=  5.79D-03    CP:  1.01D+00  1.43D+00 -2.58D-01
 E= -917.494418734045     Delta-E=        0.487741391232 Rises=F Damp=F
 DIIS: error= 7.04D-02 at cycle   4 NSaved=   4.
 NSaved= 4 IEnMin= 3 EnMin= -917.982160125277     IErMin= 2 ErrMin= 1.49D-02
 ErrMax= 7.04D-02  0.00D+00 EMaxC= 1.00D-01 BMatC= 2.88D+00 BMatP= 3.03D-01
 IDIUse=2 WtCom= 0.00D+00 WtEn= 1.00D+00
 Coeff-En:   0.000D+00 0.000D+00 0.813D+00 0.187D+00
 Coeff:      0.000D+00 0.000D+00 0.813D+00 0.187D+00
 Gap=     0.136 Goal=   None    Shift=    0.000
 Gap=     0.136 Goal=   None    Shift=    0.000
 RMSDP=9.00D-03 MaxDP=7.90D-01 DE= 4.88D-01 OVMax= 1.51D-01

 Cycle   5  Pass 1  IDiag  1:
 RMSU=  1.02D-03    CP:  9.92D-01  7.16D-01  3.83D-01  4.63D-01
 E= -918.018375615051     Delta-E=       -0.523956881006 Rises=F Damp=F
 DIIS: error= 1.93D-02 at cycle   5 NSaved=   5.
 NSaved= 5 IEnMin= 5 EnMin= -918.018375615051     IErMin= 2 ErrMin= 1.49D-02
 ErrMax= 1.93D-02  0.00D+00 EMaxC= 1.00D-01 BMatC= 2.46D-01 BMatP= 3.03D-01
 IDIUse=3 WtCom= 8.07D-01 WtEn= 1.93D-01
 Coeff-Com:  0.308D-02 0.274D-01 0.338D+00-0.910D-01 0.723D+00
 Coeff-En:   0.000D+00 0.000D+00 0.400D+00 0.000D+00 0.600D+00
 Coeff:      0.249D-02 0.221D-01 0.350D+00-0.735D-01 0.699D+00
 Gap=     0.159 Goal=   None    Shift=    0.000
 Gap=     0.159 Goal=   None    Shift=    0.000
 RMSDP=3.34D-03 MaxDP=3.09D-01 DE=-5.24D-01 OVMax= 6.46D-02

 Cycle   6  Pass 1  IDiag  1:
 RMSU=  3.31D-04    CP:  9.87D-01  4.78D-01  6.36D-01  2.36D-01  8.86D-01
 E= -918.066420137940     Delta-E=       -0.048044522889 Rises=F Damp=F
 DIIS: error= 1.30D-03 at cycle   6 NSaved=   6.
 NSaved= 6 IEnMin= 6 EnMin= -918.066420137940     IErMin= 6 ErrMin= 1.30D-03
 ErrMax= 1.30D-03  0.00D+00 EMaxC= 1.00D-01 BMatC= 9.82D-04 BMatP= 2.46D-01
 IDIUse=3 WtCom= 9.87D-01 WtEn= 1.30D-02
 Coeff-Com: -0.138D-02 0.142D-01 0.160D+00-0.647D-01 0.423D+00 0.469D+00
 Coeff-En:   0.000D+00 0.000D+00 0.000D+00 0.000D+00 0.000D+00 0.100D+01
 Coeff:     -0.136D-02 0.140D-01 0.158D+00-0.639D-01 0.417D+00 0.476D+00
 Gap=     0.142 Goal=   None    Shift=    0.000
 Gap=     0.142 Goal=   None    Shift=    0.000
 RMSDP=2.86D-04 MaxDP=2.71D-02 DE=-4.80D-02 OVMax= 9.67D-03

 Cycle   7  Pass 1  IDiag  1:
 RMSU=  1.94D-04    CP:  9.85D-01  4.88D-01  6.27D-01  2.57D-01  8.35D-01
                    CP:  7.37D-01
 E= -918.066639396890     Delta-E=       -0.000219258950 Rises=F Damp=F
 DIIS: error= 5.76D-04 at cycle   7 NSaved=   7.
 NSaved= 7 IEnMin= 7 EnMin= -918.066639396890     IErMin= 7 ErrMin= 5.76D-04
 ErrMax= 5.76D-04  0.00D+00 EMaxC= 1.00D-01 BMatC= 1.59D-04 BMatP= 9.82D-04
 IDIUse=3 WtCom= 9.94D-01 WtEn= 5.76D-03
 Coeff-Com:  0.112D-03-0.931D-03 0.311D-01-0.122D-01 0.800D-01 0.283D+00
 Coeff-Com:  0.619D+00
 Coeff-En:   0.000D+00 0.000D+00 0.000D+00 0.000D+00 0.000D+00 0.174D+00
 Coeff-En:   0.826D+00
 Coeff:      0.111D-03-0.925D-03 0.309D-01-0.121D-01 0.795D-01 0.282D+00
 Coeff:      0.621D+00
 Gap=     0.141 Goal=   None    Shift=    0.000
 Gap=     0.141 Goal=   None    Shift=    0.000
 RMSDP=1.27D-04 MaxDP=1.35D-02 DE=-2.19D-04 OVMax= 2.38D-03

 Cycle   8  Pass 1  IDiag  1:
 RMSU=  2.44D-05    CP:  9.87D-01  4.83D-01  6.34D-01  2.52D-01  8.37D-01
                    CP:  7.37D-01  7.30D-01
 E= -918.066678587253     Delta-E=       -0.000039190363 Rises=F Damp=F
 DIIS: error= 6.38D-05 at cycle   8 NSaved=   8.
 NSaved= 8 IEnMin= 8 EnMin= -918.066678587253     IErMin= 8 ErrMin= 6.38D-05
 ErrMax= 6.38D-05  0.00D+00 EMaxC= 1.00D-01 BMatC= 4.73D-06 BMatP= 1.59D-04
 IDIUse=1 WtCom= 1.00D+00 WtEn= 0.00D+00
 Coeff-Com:  0.264D-03-0.149D-02 0.811D-02-0.281D-02 0.189D-01 0.123D+00
 Coeff-Com:  0.303D+00 0.551D+00
 Coeff:      0.264D-03-0.149D-02 0.811D-02-0.281D-02 0.189D-01 0.123D+00
 Coeff:      0.303D+00 0.551D+00
 Gap=     0.141 Goal=   None    Shift=    0.000
 Gap=     0.141 Goal=   None    Shift=    0.000
 RMSDP=1.75D-05 MaxDP=1.71D-03 DE=-3.92D-05 OVMax= 2.16D-04

 Cycle   9  Pass 1  IDiag  1:
 RMSU=  9.80D-06    CP:  9.87D-01  4.82D-01  6.35D-01  2.52D-01  8.41D-01
                    CP:  7.50D-01  6.98D-01  6.61D-01
 E= -918.066679616928     Delta-E=       -0.000001029675 Rises=F Damp=F
 DIIS: error= 1.50D-05 at cycle   9 NSaved=   9.
 NSaved= 9 IEnMin= 9 EnMin= -918.066679616928     IErMin= 9 ErrMin= 1.50D-05
 ErrMax= 1.50D-05  0.00D+00 EMaxC= 1.00D-01 BMatC= 2.87D-07 BMatP= 4.73D-06
 IDIUse=1 WtCom= 1.00D+00 WtEn= 0.00D+00
 Coeff-Com:  0.114D-03-0.409D-03-0.472D-04 0.517D-04-0.978D-03 0.219D-01
 Coeff-Com:  0.653D-01 0.242D+00 0.672D+00
 Coeff:      0.114D-03-0.409D-03-0.472D-04 0.517D-04-0.978D-03 0.219D-01
 Coeff:      0.653D-01 0.242D+00 0.672D+00
 Gap=     0.141 Goal=   None    Shift=    0.000
 Gap=     0.141 Goal=   None    Shift=    0.000
 RMSDP=6.49D-06 MaxDP=4.00D-04 DE=-1.03D-06 OVMax= 9.01D-05

 Cycle  10  Pass 1  IDiag  1:
 RMSU=  4.38D-06    CP:  9.87D-01  4.82D-01  6.35D-01  2.52D-01  8.42D-01
                    CP:  7.50D-01  6.98D-01  6.11D-01  9.94D-01
 E= -918.066679674902     Delta-E=       -0.000000057973 Rises=F Damp=F
 DIIS: error= 6.14D-06 at cycle  10 NSaved=  10.
 NSaved=10 IEnMin=10 EnMin= -918.066679674902     IErMin=10 ErrMin= 6.14D-06
 ErrMax= 6.14D-06  0.00D+00 EMaxC= 1.00D-01 BMatC= 3.81D-08 BMatP= 2.87D-07
 IDIUse=1 WtCom= 1.00D+00 WtEn= 0.00D+00
 Coeff-Com:  0.364D-04-0.101D-03-0.384D-03 0.102D-03-0.118D-02 0.481D-02
 Coeff-Com:  0.169D-01 0.984D-01 0.380D+00 0.502D+00
 Coeff:      0.364D-04-0.101D-03-0.384D-03 0.102D-03-0.118D-02 0.481D-02
 Coeff:      0.169D-01 0.984D-01 0.380D+00 0.502D+00
 Gap=     0.141 Goal=   None    Shift=    0.000
 Gap=     0.141 Goal=   None    Shift=    0.000
 RMSDP=1.93D-06 MaxDP=1.22D-04 DE=-5.80D-08 OVMax= 3.84D-05

 Cycle  11  Pass 1  IDiag  1:
 RMSU=  8.70D-07    CP:  9.87D-01  4.82D-01  6.35D-01  2.52D-01  8.42D-01
                    CP:  7.51D-01  6.99D-01  6.47D-01  9.23D-01  7.68D-01
 E= -918.066679683154     Delta-E=       -0.000000008252 Rises=F Damp=F
 DIIS: error= 3.15D-06 at cycle  11 NSaved=  11.
 NSaved=11 IEnMin=11 EnMin= -918.066679683154     IErMin=11 ErrMin= 3.15D-06
 ErrMax= 3.15D-06  0.00D+00 EMaxC= 1.00D-01 BMatC= 4.72D-09 BMatP= 3.81D-08
 IDIUse=1 WtCom= 1.00D+00 WtEn= 0.00D+00
 Coeff-Com:  0.444D-05-0.822D-05-0.254D-03 0.817D-04-0.653D-03-0.734D-04
 Coeff-Com:  0.716D-03 0.218D-01 0.125D+00 0.278D+00 0.575D+00
 Coeff:      0.444D-05-0.822D-05-0.254D-03 0.817D-04-0.653D-03-0.734D-04
 Coeff:      0.716D-03 0.218D-01 0.125D+00 0.278D+00 0.575D+00
 Gap=     0.141 Goal=   None    Shift=    0.000
 Gap=     0.141 Goal=   None    Shift=    0.000
 RMSDP=7.22D-07 MaxDP=6.68D-05 DE=-8.25D-09 OVMax= 1.35D-05

 Cycle  12  Pass 1  IDiag  1:
 RMSU=  2.50D-07    CP:  9.87D-01  4.82D-01  6.35D-01  2.52D-01  8.41D-01
                    CP:  7.50D-01  7.00D-01  6.42D-01  9.54D-01  7.95D-01
                    CP:  5.35D-01
 E= -918.066679684262     Delta-E=       -0.000000001108 Rises=F Damp=F
 DIIS: error= 8.06D-07 at cycle  12 NSaved=  12.
 NSaved=12 IEnMin=12 EnMin= -918.066679684262     IErMin=12 ErrMin= 8.06D-07
 ErrMax= 8.06D-07  0.00D+00 EMaxC= 1.00D-01 BMatC= 6.49D-10 BMatP= 4.72D-09
 IDIUse=1 WtCom= 1.00D+00 WtEn= 0.00D+00
 Coeff-Com: -0.249D-05 0.615D-05-0.110D-03 0.375D-04-0.246D-03-0.488D-03
 Coeff-Com: -0.148D-02 0.231D-02 0.355D-01 0.106D+00 0.315D+00 0.544D+00
 Coeff:     -0.249D-05 0.615D-05-0.110D-03 0.375D-04-0.246D-03-0.488D-03
 Coeff:     -0.148D-02 0.231D-02 0.355D-01 0.106D+00 0.315D+00 0.544D+00
 Gap=     0.141 Goal=   None    Shift=    0.000
 Gap=     0.141 Goal=   None    Shift=    0.000
 RMSDP=1.47D-07 MaxDP=9.64D-06 DE=-1.11D-09 OVMax= 3.98D-06

 Cycle  13  Pass 1  IDiag  1:
 RMSU=  7.19D-08    CP:  9.87D-01  4.82D-01  6.35D-01  2.52D-01  8.41D-01
                    CP:  7.50D-01  7.00D-01  6.44D-01  9.51D-01  7.92D-01
                    CP:  6.22D-01  8.97D-01
 E= -918.066679684417     Delta-E=       -0.000000000155 Rises=F Damp=F
 DIIS: error= 2.54D-07 at cycle  13 NSaved=  13.
 NSaved=13 IEnMin=13 EnMin= -918.066679684417     IErMin=13 ErrMin= 2.54D-07
 ErrMax= 2.54D-07  0.00D+00 EMaxC= 1.00D-01 BMatC= 5.87D-11 BMatP= 6.49D-10
 IDIUse=1 WtCom= 1.00D+00 WtEn= 0.00D+00
 Coeff-Com: -0.266D-05 0.504D-05-0.551D-05 0.157D-05 0.135D-04-0.166D-03
 Coeff-Com: -0.819D-03-0.312D-02-0.618D-02-0.390D-02 0.294D-01 0.210D+00
 Coeff-Com:  0.775D+00
 Coeff:     -0.266D-05 0.504D-05-0.551D-05 0.157D-05 0.135D-04-0.166D-03
 Coeff:     -0.819D-03-0.312D-02-0.618D-02-0.390D-02 0.294D-01 0.210D+00
 Coeff:      0.775D+00
 Gap=     0.141 Goal=   None    Shift=    0.000
 Gap=     0.141 Goal=   None    Shift=    0.000
 RMSDP=6.22D-08 MaxDP=3.10D-06 DE=-1.55D-10 OVMax= 2.00D-06

 Cycle  14  Pass 1  IDiag  1:
 RMSU=  2.02D-08    CP:  9.87D-01  4.82D-01  6.35D-01  2.52D-01  8.42D-01
                    CP:  7.50D-01  7.00D-01  6.44D-01  9.52D-01  8.00D-01
                    CP:  6.33D-01  9.55D-01  9.39D-01
 E= -918.066679684439     Delta-E=       -0.000000000023 Rises=F Damp=F
 DIIS: error= 3.69D-08 at cycle  14 NSaved=  14.
 NSaved=14 IEnMin=14 EnMin= -918.066679684439     IErMin=14 ErrMin= 3.69D-08
 ErrMax= 3.69D-08  0.00D+00 EMaxC= 1.00D-01 BMatC= 2.33D-12 BMatP= 5.87D-11
 IDIUse=1 WtCom= 1.00D+00 WtEn= 0.00D+00
 Coeff-Com: -0.108D-05 0.238D-05 0.181D-05-0.112D-05 0.159D-04-0.683D-04
 Coeff-Com: -0.344D-03-0.160D-02-0.475D-02-0.701D-02-0.424D-02 0.537D-01
 Coeff-Com:  0.338D+00 0.626D+00
 Coeff:     -0.108D-05 0.238D-05 0.181D-05-0.112D-05 0.159D-04-0.683D-04
 Coeff:     -0.344D-03-0.160D-02-0.475D-02-0.701D-02-0.424D-02 0.537D-01
 Coeff:      0.338D+00 0.626D+00
 Gap=     0.141 Goal=   None    Shift=    0.000
 Gap=     0.141 Goal=   None    Shift=    0.000
 RMSDP=1.51D-08 MaxDP=1.84D-06 DE=-2.27D-11 OVMax= 2.18D-07

 Cycle  15  Pass 1  IDiag  1:
 RMSU=  7.09D-09    CP:  9.87D-01  4.82D-01  6.35D-01  2.52D-01  8.41D-01
                    CP:  7.50D-01  7.00D-01  6.44D-01  9.52D-01  8.01D-01
                    CP:  6.28D-01  9.84D-01  9.83D-01  9.88D-01
 E= -918.066679684418     Delta-E=        0.000000000021 Rises=F Damp=F
 DIIS: error= 2.32D-08 at cycle  15 NSaved=  15.
 NSaved=15 IEnMin=14 EnMin= -918.066679684439     IErMin=15 ErrMin= 2.32D-08
 ErrMax= 2.32D-08  0.00D+00 EMaxC= 1.00D-01 BMatC= 5.97D-13 BMatP= 2.33D-12
 IDIUse=1 WtCom= 1.00D+00 WtEn= 0.00D+00
 Coeff-Com: -0.764D-07 0.275D-06 0.179D-05-0.770D-06 0.579D-05-0.246D-05
 Coeff-Com: -0.392D-04-0.286D-03-0.121D-02-0.226D-02-0.559D-02-0.478D-02
 Coeff-Com:  0.686D-01 0.344D+00 0.601D+00
 Coeff:     -0.764D-07 0.275D-06 0.179D-05-0.770D-06 0.579D-05-0.246D-05
 Coeff:     -0.392D-04-0.286D-03-0.121D-02-0.226D-02-0.559D-02-0.478D-02
 Coeff:      0.686D-01 0.344D+00 0.601D+00
 Gap=     0.141 Goal=   None    Shift=    0.000
 Gap=     0.141 Goal=   None    Shift=    0.000
 RMSDP=6.02D-09 MaxDP=5.04D-07 DE= 2.14D-11 OVMax= 1.16D-07

 SCF Done:  E(UB3LYP) =  -918.066679684     A.U. after   15 cycles
            NFock= 15  Conv=0.60D-08     -V/T= 2.0040
 <Sx>= 0.0000 <Sy>= 0.0000 <Sz>= 0.0000 <S**2>=-0.0000 S=-0.0000
 <L.S>=  0.00000000000    
 KE= 9.144157749081D+02 PE=-5.002911850735D+03 EE= 1.740214124263D+03
 Annihilation of the first spin contaminant:
 S**2 before annihilation    -0.0000,   after    -0.0000
 Leave Link  502 at Thu Dec 21 05:38:09 2023, MaxMem=  4026531840 cpu:            1965.9 elap:             247.8
 (Enter /sysapps/ubuntu-applications/gaussian/Gaussian/AVX2/g16/l601.exe)
 Copying SCF densities to generalized density rwf, IOpCl= 1 IROHF=0.

 **********************************************************************

            Population analysis using the SCF density.

 **********************************************************************

 Alpha  occ. eigenvalues --  -19.17622 -19.17622 -19.11417 -19.11415 -10.26802
 Alpha  occ. eigenvalues --  -10.26799 -10.26045 -10.26044 -10.24050 -10.24050
 Alpha  occ. eigenvalues --  -10.20341 -10.20339 -10.20049 -10.20047 -10.19968
 Alpha  occ. eigenvalues --  -10.19966 -10.19609 -10.19608 -10.19194 -10.19191
 Alpha  occ. eigenvalues --   -1.08994  -1.08993  -1.04962  -1.04722  -0.89107
 Alpha  occ. eigenvalues --   -0.87919  -0.81341  -0.78221  -0.78064  -0.77340
 Alpha  occ. eigenvalues --   -0.72523  -0.72453  -0.67166  -0.67099  -0.62687
 Alpha  occ. eigenvalues --   -0.62466  -0.58577  -0.56715  -0.56013  -0.53560
 Alpha  occ. eigenvalues --   -0.51433  -0.51431  -0.49591  -0.49154  -0.49125
 Alpha  occ. eigenvalues --   -0.48210  -0.45795  -0.44826  -0.44583  -0.44560
 Alpha  occ. eigenvalues --   -0.44377  -0.43625  -0.42920  -0.41880  -0.40565
 Alpha  occ. eigenvalues --   -0.40276  -0.39575  -0.39000  -0.38717  -0.37866
 Alpha  occ. eigenvalues --   -0.35472  -0.35177  -0.34527  -0.33167  -0.28146
 Alpha  occ. eigenvalues --   -0.27450  -0.27252  -0.26274  -0.25362  -0.24606
 Alpha virt. eigenvalues --   -0.10512  -0.07213  -0.02719  -0.02131  -0.01481
 Alpha virt. eigenvalues --   -0.01378   0.00828   0.00961   0.01217   0.02144
 Alpha virt. eigenvalues --    0.02413   0.02470   0.03356   0.03377   0.04214
 Alpha virt. eigenvalues --    0.04263   0.04492   0.04763   0.05260   0.06248
 Alpha virt. eigenvalues --    0.06589   0.06629   0.06813   0.07758   0.08236
 Alpha virt. eigenvalues --    0.09029   0.09586   0.09626   0.09670   0.10035
 Alpha virt. eigenvalues --    0.10796   0.11067   0.11088   0.11347   0.11980
 Alpha virt. eigenvalues --    0.12122   0.12289   0.12562   0.13196   0.13328
 Alpha virt. eigenvalues --    0.13473   0.13658   0.14140   0.14176   0.14514
 Alpha virt. eigenvalues --    0.14659   0.14678   0.15049   0.15327   0.15526
 Alpha virt. eigenvalues --    0.16102   0.16125   0.16275   0.17031   0.17129
 Alpha virt. eigenvalues --    0.17906   0.18076   0.18717   0.19534   0.19696
 Alpha virt. eigenvalues --    0.19711   0.19913   0.20607   0.20646   0.20808
 Alpha virt. eigenvalues --    0.21530   0.21803   0.22942   0.23158   0.23189
 Alpha virt. eigenvalues --    0.23280   0.24089   0.24273   0.24610   0.24836
 Alpha virt. eigenvalues --    0.25158   0.26162   0.26196   0.26314   0.26742
 Alpha virt. eigenvalues --    0.27343   0.27488   0.27655   0.29028   0.29246
 Alpha virt. eigenvalues --    0.29825   0.29852   0.30326   0.30546   0.31201
 Alpha virt. eigenvalues --    0.31255   0.31818   0.32062   0.32089   0.32605
 Alpha virt. eigenvalues --    0.32701   0.32967   0.33320   0.33894   0.34193
 Alpha virt. eigenvalues --    0.34718   0.34746   0.35709   0.36098   0.36360
 Alpha virt. eigenvalues --    0.36712   0.37227   0.38649   0.38943   0.39128
 Alpha virt. eigenvalues --    0.39561   0.39803   0.41602   0.42944   0.43208
 Alpha virt. eigenvalues --    0.43413   0.43788   0.43859   0.45587   0.46951
 Alpha virt. eigenvalues --    0.47626   0.48322   0.48791   0.49061   0.49656
 Alpha virt. eigenvalues --    0.52584   0.52853   0.53607   0.54130   0.54388
 Alpha virt. eigenvalues --    0.54753   0.54925   0.56664   0.57119   0.58166
 Alpha virt. eigenvalues --    0.59315   0.59991   0.60086   0.60667   0.61257
 Alpha virt. eigenvalues --    0.62368   0.62687   0.62910   0.63847   0.64171
 Alpha virt. eigenvalues --    0.64779   0.65107   0.65393   0.65888   0.65949
 Alpha virt. eigenvalues --    0.66116   0.66511   0.66628   0.67308   0.68230
 Alpha virt. eigenvalues --    0.68837   0.69703   0.70075   0.71919   0.72697
 Alpha virt. eigenvalues --    0.72762   0.72873   0.73628   0.75589   0.75779
 Alpha virt. eigenvalues --    0.75970   0.77470   0.78272   0.78536   0.79171
 Alpha virt. eigenvalues --    0.80835   0.82022   0.85451   0.85696   0.87422
 Alpha virt. eigenvalues --    0.87562   0.89601   0.90551   0.91976   0.92200
 Alpha virt. eigenvalues --    0.92223   0.92658   0.93059   0.93933   0.94558
 Alpha virt. eigenvalues --    0.95125   0.96123   0.96344   0.97318   0.98414
 Alpha virt. eigenvalues --    0.98808   0.99758   1.00125   1.00182   1.00700
 Alpha virt. eigenvalues --    1.01660   1.02248   1.02994   1.04164   1.04698
 Alpha virt. eigenvalues --    1.05844   1.06353   1.06514   1.08180   1.09427
 Alpha virt. eigenvalues --    1.10301   1.10551   1.11706   1.12584   1.13162
 Alpha virt. eigenvalues --    1.15827   1.16264   1.16271   1.18637   1.20092
 Alpha virt. eigenvalues --    1.22729   1.23750   1.24121   1.24686   1.27167
 Alpha virt. eigenvalues --    1.27341   1.27763   1.29535   1.30081   1.32509
 Alpha virt. eigenvalues --    1.32912   1.34284   1.35313   1.35638   1.39573
 Alpha virt. eigenvalues --    1.41572   1.42041   1.42144   1.45525   1.47488
 Alpha virt. eigenvalues --    1.47997   1.48573   1.48981   1.49568   1.50847
 Alpha virt. eigenvalues --    1.50994   1.51795   1.52964   1.53838   1.55264
 Alpha virt. eigenvalues --    1.55909   1.57045   1.57420   1.58061   1.58843
 Alpha virt. eigenvalues --    1.59332   1.60458   1.63679   1.66128   1.66843
 Alpha virt. eigenvalues --    1.67217   1.67291   1.67620   1.68398   1.69001
 Alpha virt. eigenvalues --    1.69966   1.71021   1.72176   1.72435   1.73778
 Alpha virt. eigenvalues --    1.75078   1.76745   1.76890   1.76996   1.78824
 Alpha virt. eigenvalues --    1.81934   1.82243   1.85198   1.87850   1.87940
 Alpha virt. eigenvalues --    1.89084   1.89114   1.90620   1.91274   1.92309
 Alpha virt. eigenvalues --    1.92765   1.94420   1.94572   1.96435   1.97186
 Alpha virt. eigenvalues --    1.98152   1.99546   2.00027   2.03101   2.04048
 Alpha virt. eigenvalues --    2.04511   2.05199   2.06533   2.07374   2.08806
 Alpha virt. eigenvalues --    2.09572   2.09911   2.10284   2.14183   2.15671
 Alpha virt. eigenvalues --    2.16827   2.18370   2.18649   2.19394   2.19965
 Alpha virt. eigenvalues --    2.24364   2.25799   2.30214   2.31193   2.32446
 Alpha virt. eigenvalues --    2.33209   2.36120   2.38559   2.39666   2.43989
 Alpha virt. eigenvalues --    2.44523   2.45104   2.45761   2.45947   2.48621
 Alpha virt. eigenvalues --    2.48886   2.49045   2.49186   2.54899   2.54953
 Alpha virt. eigenvalues --    2.57964   2.60248   2.61602   2.62475   2.63555
 Alpha virt. eigenvalues --    2.65790   2.66098   2.66334   2.68432   2.71052
 Alpha virt. eigenvalues --    2.71758   2.73917   2.75078   2.75331   2.76221
 Alpha virt. eigenvalues --    2.76260   2.77211   2.77725   2.77986   2.80100
 Alpha virt. eigenvalues --    2.80592   2.82089   2.82332   2.85905   2.86124
 Alpha virt. eigenvalues --    2.86342   2.86604   2.86943   2.88648   2.88922
 Alpha virt. eigenvalues --    2.94634   2.94680   2.96145   2.97106   3.01277
 Alpha virt. eigenvalues --    3.04111   3.04227   3.04298   3.04961   3.08381
 Alpha virt. eigenvalues --    3.09623   3.10159   3.11764   3.12307   3.17056
 Alpha virt. eigenvalues --    3.20285   3.21006   3.22256   3.22291   3.22361
 Alpha virt. eigenvalues --    3.25915   3.32115   3.33415   3.33469   3.34104
 Alpha virt. eigenvalues --    3.36643   3.40596   3.40846   3.41849   3.42546
 Alpha virt. eigenvalues --    3.52089   3.53616   3.55216   3.55666   3.58952
 Alpha virt. eigenvalues --    3.59655   3.63258   3.63995   3.70153   3.77830
 Alpha virt. eigenvalues --    3.77877   3.78746   3.79757   3.81376   3.83394
 Alpha virt. eigenvalues --    3.87220   4.05599   4.07194   4.09611   4.10466
 Alpha virt. eigenvalues --    4.16032   4.17215   4.17384   4.20947   4.25806
 Alpha virt. eigenvalues --    4.27752   4.50591   4.78205   4.84330   4.85613
 Alpha virt. eigenvalues --    5.01616   5.01932   5.05735   5.07006   5.25540
 Alpha virt. eigenvalues --    5.27946   5.39581   5.40482   5.73042   5.77015
 Alpha virt. eigenvalues --    5.77028   5.83006  23.53245  23.65095  23.89457
 Alpha virt. eigenvalues --   23.90011  23.90787  23.91115  23.92440  23.95123
 Alpha virt. eigenvalues --   23.95281  23.96316  24.04296  24.06437  24.06614
 Alpha virt. eigenvalues --   24.08566  24.14736  24.15126  49.94713  49.95170
 Alpha virt. eigenvalues --   50.04862  50.09390
  Beta  occ. eigenvalues --  -19.17622 -19.17622 -19.11417 -19.11415 -10.26802
  Beta  occ. eigenvalues --  -10.26799 -10.26045 -10.26044 -10.24050 -10.24050
  Beta  occ. eigenvalues --  -10.20341 -10.20339 -10.20049 -10.20047 -10.19968
  Beta  occ. eigenvalues --  -10.19966 -10.19609 -10.19608 -10.19194 -10.19191
  Beta  occ. eigenvalues --   -1.08994  -1.08993  -1.04962  -1.04722  -0.89107
  Beta  occ. eigenvalues --   -0.87919  -0.81341  -0.78221  -0.78064  -0.77340
  Beta  occ. eigenvalues --   -0.72523  -0.72453  -0.67166  -0.67099  -0.62687
  Beta  occ. eigenvalues --   -0.62466  -0.58577  -0.56715  -0.56013  -0.53560
  Beta  occ. eigenvalues --   -0.51433  -0.51431  -0.49591  -0.49154  -0.49125
  Beta  occ. eigenvalues --   -0.48210  -0.45795  -0.44826  -0.44583  -0.44560
  Beta  occ. eigenvalues --   -0.44377  -0.43625  -0.42920  -0.41880  -0.40565
  Beta  occ. eigenvalues --   -0.40276  -0.39575  -0.39000  -0.38717  -0.37866
  Beta  occ. eigenvalues --   -0.35472  -0.35177  -0.34527  -0.33167  -0.28146
  Beta  occ. eigenvalues --   -0.27450  -0.27252  -0.26274  -0.25362  -0.24606
  Beta virt. eigenvalues --   -0.10512  -0.07213  -0.02719  -0.02131  -0.01481
  Beta virt. eigenvalues --   -0.01378   0.00828   0.00961   0.01217   0.02144
  Beta virt. eigenvalues --    0.02413   0.02470   0.03356   0.03377   0.04214
  Beta virt. eigenvalues --    0.04263   0.04492   0.04763   0.05260   0.06248
  Beta virt. eigenvalues --    0.06589   0.06629   0.06813   0.07758   0.08236
  Beta virt. eigenvalues --    0.09029   0.09586   0.09626   0.09670   0.10035
  Beta virt. eigenvalues --    0.10796   0.11067   0.11088   0.11347   0.11980
  Beta virt. eigenvalues --    0.12122   0.12289   0.12562   0.13196   0.13328
  Beta virt. eigenvalues --    0.13473   0.13658   0.14140   0.14176   0.14514
  Beta virt. eigenvalues --    0.14659   0.14678   0.15049   0.15327   0.15526
  Beta virt. eigenvalues --    0.16102   0.16125   0.16275   0.17031   0.17129
  Beta virt. eigenvalues --    0.17906   0.18076   0.18717   0.19534   0.19696
  Beta virt. eigenvalues --    0.19711   0.19913   0.20607   0.20646   0.20808
  Beta virt. eigenvalues --    0.21530   0.21803   0.22942   0.23158   0.23189
  Beta virt. eigenvalues --    0.23280   0.24089   0.24273   0.24610   0.24836
  Beta virt. eigenvalues --    0.25158   0.26162   0.26196   0.26314   0.26742
  Beta virt. eigenvalues --    0.27343   0.27488   0.27655   0.29028   0.29246
  Beta virt. eigenvalues --    0.29825   0.29852   0.30326   0.30546   0.31201
  Beta virt. eigenvalues --    0.31255   0.31818   0.32062   0.32089   0.32605
  Beta virt. eigenvalues --    0.32701   0.32967   0.33320   0.33894   0.34193
  Beta virt. eigenvalues --    0.34718   0.34746   0.35709   0.36098   0.36360
  Beta virt. eigenvalues --    0.36712   0.37227   0.38649   0.38943   0.39128
  Beta virt. eigenvalues --    0.39561   0.39803   0.41602   0.42944   0.43208
  Beta virt. eigenvalues --    0.43413   0.43788   0.43859   0.45587   0.46951
  Beta virt. eigenvalues --    0.47626   0.48322   0.48791   0.49061   0.49656
  Beta virt. eigenvalues --    0.52584   0.52853   0.53607   0.54130   0.54388
  Beta virt. eigenvalues --    0.54753   0.54925   0.56664   0.57119   0.58166
  Beta virt. eigenvalues --    0.59315   0.59991   0.60086   0.60667   0.61257
  Beta virt. eigenvalues --    0.62368   0.62687   0.62910   0.63847   0.64171
  Beta virt. eigenvalues --    0.64779   0.65107   0.65393   0.65888   0.65949
  Beta virt. eigenvalues --    0.66116   0.66511   0.66628   0.67308   0.68230
  Beta virt. eigenvalues --    0.68837   0.69703   0.70075   0.71919   0.72697
  Beta virt. eigenvalues --    0.72762   0.72873   0.73628   0.75589   0.75779
  Beta virt. eigenvalues --    0.75970   0.77470   0.78272   0.78536   0.79171
  Beta virt. eigenvalues --    0.80835   0.82022   0.85451   0.85696   0.87422
  Beta virt. eigenvalues --    0.87562   0.89601   0.90551   0.91976   0.92200
  Beta virt. eigenvalues --    0.92223   0.92658   0.93059   0.93933   0.94558
  Beta virt. eigenvalues --    0.95125   0.96123   0.96344   0.97318   0.98414
  Beta virt. eigenvalues --    0.98808   0.99758   1.00125   1.00182   1.00700
  Beta virt. eigenvalues --    1.01660   1.02248   1.02994   1.04164   1.04698
  Beta virt. eigenvalues --    1.05844   1.06353   1.06514   1.08180   1.09427
  Beta virt. eigenvalues --    1.10301   1.10551   1.11706   1.12584   1.13162
  Beta virt. eigenvalues --    1.15827   1.16264   1.16271   1.18637   1.20092
  Beta virt. eigenvalues --    1.22729   1.23750   1.24121   1.24686   1.27167
  Beta virt. eigenvalues --    1.27341   1.27763   1.29535   1.30081   1.32509
  Beta virt. eigenvalues --    1.32912   1.34284   1.35313   1.35638   1.39573
  Beta virt. eigenvalues --    1.41572   1.42041   1.42144   1.45525   1.47488
  Beta virt. eigenvalues --    1.47997   1.48573   1.48981   1.49568   1.50847
  Beta virt. eigenvalues --    1.50994   1.51795   1.52964   1.53838   1.55264
  Beta virt. eigenvalues --    1.55909   1.57045   1.57420   1.58061   1.58843
  Beta virt. eigenvalues --    1.59332   1.60458   1.63679   1.66128   1.66843
  Beta virt. eigenvalues --    1.67217   1.67291   1.67620   1.68398   1.69001
  Beta virt. eigenvalues --    1.69966   1.71021   1.72176   1.72435   1.73778
  Beta virt. eigenvalues --    1.75078   1.76745   1.76890   1.76996   1.78824
  Beta virt. eigenvalues --    1.81934   1.82243   1.85198   1.87850   1.87940
  Beta virt. eigenvalues --    1.89084   1.89114   1.90620   1.91274   1.92309
  Beta virt. eigenvalues --    1.92765   1.94420   1.94572   1.96435   1.97186
  Beta virt. eigenvalues --    1.98152   1.99546   2.00027   2.03101   2.04048
  Beta virt. eigenvalues --    2.04511   2.05199   2.06533   2.07374   2.08806
  Beta virt. eigenvalues --    2.09572   2.09911   2.10284   2.14183   2.15671
  Beta virt. eigenvalues --    2.16827   2.18370   2.18649   2.19394   2.19965
  Beta virt. eigenvalues --    2.24364   2.25799   2.30214   2.31193   2.32446
  Beta virt. eigenvalues --    2.33209   2.36120   2.38559   2.39666   2.43989
  Beta virt. eigenvalues --    2.44523   2.45104   2.45761   2.45947   2.48621
  Beta virt. eigenvalues --    2.48886   2.49045   2.49186   2.54899   2.54953
  Beta virt. eigenvalues --    2.57964   2.60248   2.61602   2.62475   2.63555
  Beta virt. eigenvalues --    2.65790   2.66098   2.66334   2.68432   2.71052
  Beta virt. eigenvalues --    2.71758   2.73917   2.75078   2.75331   2.76221
  Beta virt. eigenvalues --    2.76260   2.77211   2.77725   2.77986   2.80100
  Beta virt. eigenvalues --    2.80592   2.82089   2.82332   2.85905   2.86124
  Beta virt. eigenvalues --    2.86342   2.86604   2.86943   2.88648   2.88922
  Beta virt. eigenvalues --    2.94634   2.94680   2.96145   2.97106   3.01277
  Beta virt. eigenvalues --    3.04111   3.04227   3.04298   3.04961   3.08381
  Beta virt. eigenvalues --    3.09623   3.10159   3.11764   3.12307   3.17056
  Beta virt. eigenvalues --    3.20285   3.21006   3.22256   3.22291   3.22361
  Beta virt. eigenvalues --    3.25915   3.32115   3.33415   3.33469   3.34104
  Beta virt. eigenvalues --    3.36643   3.40596   3.40846   3.41849   3.42546
  Beta virt. eigenvalues --    3.52089   3.53616   3.55216   3.55666   3.58952
  Beta virt. eigenvalues --    3.59655   3.63258   3.63995   3.70153   3.77830
  Beta virt. eigenvalues --    3.77877   3.78746   3.79757   3.81376   3.83394
  Beta virt. eigenvalues --    3.87220   4.05599   4.07194   4.09611   4.10466
  Beta virt. eigenvalues --    4.16032   4.17215   4.17384   4.20947   4.25806
  Beta virt. eigenvalues --    4.27752   4.50591   4.78205   4.84330   4.85613
  Beta virt. eigenvalues --    5.01616   5.01932   5.05735   5.07006   5.25540
  Beta virt. eigenvalues --    5.27946   5.39581   5.40482   5.73042   5.77015
  Beta virt. eigenvalues --    5.77028   5.83006  23.53245  23.65095  23.89457
  Beta virt. eigenvalues --   23.90011  23.90787  23.91115  23.92440  23.95123
  Beta virt. eigenvalues --   23.95281  23.96316  24.04296  24.06437  24.06614
  Beta virt. eigenvalues --   24.08566  24.14736  24.15126  49.94713  49.95170
  Beta virt. eigenvalues --   50.04862  50.09390
          Condensed to atoms (all electrons):
               1          2          3          4          5          6
     1  C   12.798891  -0.761319  -2.147366   2.173556  -1.694607   3.021083
     2  C   -0.761319  11.351897   0.598501  -3.697489  -1.270380  -2.072815
     3  C   -2.147366   0.598501  13.288694  -0.990914  -4.103252   0.444410
     4  C    2.173556  -3.697489  -0.990914  21.579932  -3.527657  -0.210131
     5  C   -1.694607  -1.270380  -4.103252  -3.527657  18.690802   0.271678
     6  C    3.021083  -2.072815   0.444410  -0.210131   0.271678  12.239493
     7  C   -3.036768   0.985870  -0.186883  -1.177225   1.353400  -1.653755
     8  C    0.405438   0.275147  -0.455123   2.436790  -4.167117  -1.267687
     9  C   -2.535524   0.110955   0.006345  -8.603113   2.437964  -0.850409
    10  C   -0.998056   0.240517   0.460351   1.382193  -0.924599  -2.648341
    11  C   -0.696442  -0.115250  -0.171373  -0.848780  -1.268786  -0.547329
    12  C   -0.180577  -0.025174  -0.017748   0.007775  -0.455017  -0.171416
    13  C   -0.119634  -0.018386  -0.025089   0.110094   0.275073  -0.115720
    14  C   -0.571390  -0.119495  -0.180768  -2.535391   0.403366  -0.695975
    15  O    0.231523   0.100345   0.001428  -0.139988  -0.380815  -0.009770
    16  O   -0.020905   0.007120   0.122399  -0.402096  -0.236728   0.210235
    17  H    0.035042  -0.075277  -0.006307   0.152804  -0.036050   0.517872
    18  H   -0.002307  -0.000128  -0.003868   0.009429  -0.051081  -0.022168
    19  H    0.285963  -0.083901   0.041190   0.035796   0.060147   0.029555
    20  H   -0.049539   0.002891  -0.003314  -0.120989   0.008042  -0.012643
    21  O   -0.000379   0.000313   0.000070  -0.004319  -0.002353   0.000250
    22  O    0.069721   0.083190  -0.085303   0.029854  -0.072896  -0.104438
    23  C   -0.207681  -0.215189   0.324324  -0.112201  -0.106534   0.131908
    24  C   -0.000964   0.000340  -0.000160  -0.017992  -0.013584  -0.001610
    25  H   -0.046148   0.513085  -0.118188  -0.049198   0.011115  -0.002266
    26  H    0.000127  -0.000385  -0.001175  -0.003479   0.016157   0.001567
    27  H   -0.023710  -0.005181   0.099892  -0.006741   0.006551  -0.013740
    28  H    0.025189  -0.004650  -0.057131  -0.000373  -0.010661   0.020963
    29  H    0.022199   0.004450  -0.053059   0.000281  -0.014042   0.012400
    30  H   -0.000112   0.000007  -0.000001  -0.000277  -0.000298  -0.000080
    31  H    0.000079  -0.000018   0.000003   0.000749  -0.000452   0.000015
    32  H    0.000090  -0.000022   0.000002   0.000861  -0.000352   0.000030
               7          8          9         10         11         12
     1  C   -3.036768   0.405438  -2.535524  -0.998056  -0.696442  -0.180577
     2  C    0.985870   0.275147   0.110955   0.240517  -0.115250  -0.025174
     3  C   -0.186883  -0.455123   0.006345   0.460351  -0.171373  -0.017748
     4  C   -1.177225   2.436790  -8.603113   1.382193  -0.848780   0.007775
     5  C    1.353400  -4.167117   2.437964  -0.924599  -1.268786  -0.455017
     6  C   -1.653755  -1.267687  -0.850409  -2.648341  -0.547329  -0.171416
     7  C   10.775754  -0.925632   1.381092   1.567444  -2.649656   0.459759
     8  C   -0.925632  18.701034  -3.532478   1.351282   0.269807  -4.108123
     9  C    1.381092  -3.532478  21.576002  -1.174220  -0.211739  -0.985286
    10  C    1.567444   1.351282  -1.174220  10.773902  -1.653620  -0.187829
    11  C   -2.649656   0.269807  -0.211739  -1.653620  12.240673   0.442836
    12  C    0.459759  -4.108123  -0.985286  -0.187829   0.442836  13.286034
    13  C    0.240342  -1.271089  -3.687684   0.983431  -2.069940   0.598192
    14  C   -0.998218  -1.691248   2.167118  -3.036910   3.021588  -2.143612
    15  O    0.603606  -0.236953  -0.402261  -0.015240   0.210387   0.122554
    16  O   -0.015210  -0.380838  -0.139806   0.603597  -0.009753   0.001415
    17  H   -0.025099   0.008029  -0.120987  -0.076486  -0.012617  -0.003313
    18  H   -0.000986   0.060155   0.036068   0.039821   0.029532   0.040983
    19  H    0.039852  -0.051071   0.009434  -0.000981  -0.022189  -0.003865
    20  H   -0.076570  -0.036388   0.152974  -0.025092   0.517773  -0.006039
    21  O    0.022479  -0.072749   0.029758   0.001158  -0.103289  -0.085602
    22  O    0.001175  -0.002349  -0.004306   0.022489   0.000253   0.000070
    23  C    0.001199  -0.013596  -0.017989  -0.041913  -0.001604  -0.000160
    24  C   -0.041897  -0.106639  -0.111747   0.001092   0.132055   0.323467
    25  H    0.020923   0.016162  -0.003476  -0.006886   0.001567  -0.001177
    26  H   -0.006874   0.011178  -0.049263   0.020923  -0.002195  -0.117904
    27  H    0.000906  -0.000299  -0.000278  -0.004244  -0.000080  -0.000001
    28  H   -0.002027  -0.000353   0.000857   0.005160   0.000029   0.000002
    29  H   -0.001850  -0.000452   0.000753   0.005115   0.000015   0.000003
    30  H   -0.004244   0.006534  -0.006706   0.000903  -0.013842   0.099779
    31  H    0.005082  -0.014083   0.000219  -0.001865   0.012357  -0.052693
    32  H    0.005190  -0.010592  -0.000386  -0.002009   0.021139  -0.057367
              13         14         15         16         17         18
     1  C   -0.119634  -0.571390   0.231523  -0.020905   0.035042  -0.002307
     2  C   -0.018386  -0.119495   0.100345   0.007120  -0.075277  -0.000128
     3  C   -0.025089  -0.180768   0.001428   0.122399  -0.006307  -0.003868
     4  C    0.110094  -2.535391  -0.139988  -0.402096   0.152804   0.009429
     5  C    0.275073   0.403366  -0.380815  -0.236728  -0.036050  -0.051081
     6  C   -0.115720  -0.695975  -0.009770   0.210235   0.517872  -0.022168
     7  C    0.240342  -0.998218   0.603606  -0.015210  -0.025099  -0.000986
     8  C   -1.271089  -1.691248  -0.236953  -0.380838   0.008029   0.060155
     9  C   -3.687684   2.167118  -0.402261  -0.139806  -0.120987   0.036068
    10  C    0.983431  -3.036910  -0.015240   0.603597  -0.076486   0.039821
    11  C   -2.069940   3.021588   0.210387  -0.009753  -0.012617   0.029532
    12  C    0.598192  -2.143612   0.122554   0.001415  -0.003313   0.040983
    13  C   11.341382  -0.757396   0.007118   0.100197   0.002857  -0.084049
    14  C   -0.757396  12.795421  -0.020891   0.231492  -0.049514   0.286094
    15  O    0.007118  -0.020891   8.164137   0.000034   0.000343   0.000412
    16  O    0.100197   0.231492   0.000034   8.164076  -0.001813  -0.014121
    17  H    0.002857  -0.049514   0.000343  -0.001813   0.493759  -0.000078
    18  H   -0.084049   0.286094   0.000412  -0.014121  -0.000078   0.496377
    19  H   -0.000128  -0.002316  -0.014121   0.000412   0.002388  -0.000062
    20  H   -0.075137   0.034981  -0.001803   0.000343  -0.000458   0.002387
    21  O    0.082375   0.069657  -0.000141  -0.000048   0.000003  -0.000678
    22  O    0.000312  -0.000380  -0.000048  -0.000141  -0.020500  -0.000040
    23  C    0.000341  -0.000968  -0.000057  -0.000059   0.012054  -0.000078
    24  C   -0.215352  -0.206883  -0.000060  -0.000056  -0.000024   0.005947
    25  H   -0.000385   0.000131   0.004011  -0.000116  -0.002811  -0.000016
    26  H    0.512956  -0.046319  -0.000115   0.004008  -0.000040  -0.018867
    27  H    0.000007  -0.000112  -0.000004   0.000025   0.000887   0.000000
    28  H   -0.000022   0.000087  -0.000034   0.000007  -0.000908  -0.000000
    29  H   -0.000018   0.000083  -0.000035   0.000006  -0.000816  -0.000000
    30  H   -0.005048  -0.023637   0.000025  -0.000004   0.000001   0.000028
    31  H    0.004471   0.022045   0.000006  -0.000035   0.000001   0.001062
    32  H   -0.004854   0.025291   0.000007  -0.000034   0.000001   0.001072
              19         20         21         22         23         24
     1  C    0.285963  -0.049539  -0.000379   0.069721  -0.207681  -0.000964
     2  C   -0.083901   0.002891   0.000313   0.083190  -0.215189   0.000340
     3  C    0.041190  -0.003314   0.000070  -0.085303   0.324324  -0.000160
     4  C    0.035796  -0.120989  -0.004319   0.029854  -0.112201  -0.017992
     5  C    0.060147   0.008042  -0.002353  -0.072896  -0.106534  -0.013584
     6  C    0.029555  -0.012643   0.000250  -0.104438   0.131908  -0.001610
     7  C    0.039852  -0.076570   0.022479   0.001175   0.001199  -0.041897
     8  C   -0.051071  -0.036388  -0.072749  -0.002349  -0.013596  -0.106639
     9  C    0.009434   0.152974   0.029758  -0.004306  -0.017989  -0.111747
    10  C   -0.000981  -0.025092   0.001158   0.022489  -0.041913   0.001092
    11  C   -0.022189   0.517773  -0.103289   0.000253  -0.001604   0.132055
    12  C   -0.003865  -0.006039  -0.085602   0.000070  -0.000160   0.323467
    13  C   -0.000128  -0.075137   0.082375   0.000312   0.000341  -0.215352
    14  C   -0.002316   0.034981   0.069657  -0.000380  -0.000968  -0.206883
    15  O   -0.014121  -0.001803  -0.000141  -0.000048  -0.000057  -0.000060
    16  O    0.000412   0.000343  -0.000048  -0.000141  -0.000059  -0.000056
    17  H    0.002388  -0.000458   0.000003  -0.020500   0.012054  -0.000024
    18  H   -0.000062   0.002387  -0.000678  -0.000040  -0.000078   0.005947
    19  H    0.496391  -0.000078  -0.000040  -0.000683   0.005961  -0.000078
    20  H   -0.000078   0.493759  -0.020510   0.000003  -0.000024   0.012045
    21  O   -0.000040  -0.020510   8.187921   0.000000   0.000000   0.204288
    22  O   -0.000683   0.000003   0.000000   8.187870   0.204245   0.000000
    23  C    0.005961  -0.000024   0.000000   0.204245   5.173655   0.000000
    24  C   -0.000078   0.012045   0.204288   0.000000   0.000000   5.173358
    25  H   -0.018878  -0.000040   0.000002  -0.023812  -0.007837  -0.000003
    26  H   -0.000016  -0.002808  -0.023825   0.000002  -0.000003  -0.007816
    27  H    0.000029   0.000001   0.000000  -0.076807   0.384624   0.000000
    28  H    0.001073   0.000001  -0.000000  -0.028663   0.407927  -0.000000
    29  H    0.001061   0.000001  -0.000000  -0.029962   0.408144  -0.000000
    30  H    0.000000   0.000885  -0.076804   0.000000   0.000000   0.384615
    31  H   -0.000000  -0.000811  -0.029998  -0.000000  -0.000000   0.408122
    32  H   -0.000000  -0.000913  -0.028640  -0.000000  -0.000000   0.407988
              25         26         27         28         29         30
     1  C   -0.046148   0.000127  -0.023710   0.025189   0.022199  -0.000112
     2  C    0.513085  -0.000385  -0.005181  -0.004650   0.004450   0.000007
     3  C   -0.118188  -0.001175   0.099892  -0.057131  -0.053059  -0.000001
[...]
 455337,0.00008096,-0.00025035,-0.00015524,-0.00000108,-0.00016580,0.00
 058708,0.00001231,-0.00130821,-0.00104783,0.00000320,0.00040960,0.0001
 8728,-0.00000174,-0.00003579,0.00003979,0.00000109,-0.00011424,0.00003
 067,0.00000237,0.00014459,-0.00026519,-0.00000682,-0.00002748,0.000026
 40,0.00000026,0.00009390,0.00005292,0.,-0.00003313,-0.00001897,0.00000
 011,0.00001122,-0.00003063,-0.00000077,-0.00012654,-0.00019945,-0.0000
 0164,-0.00007959,0.00014511,0.00000344,0.00000939,0.00000778,-0.000000
 41,0.00000551,0.00000295,0.00000001,-0.00004917,-0.00001529,0.00000088
 ,0.00000940,-0.00000207,-0.00000016,-0.00011780,-0.00003654,0.00000098
 ,-0.03744645,-0.01839993,0.00015498,-0.16612685,-0.13150754,-0.0008845
 6,0.00004774,-0.00002268,-0.00000099,0.00036662,-0.00018392,-0.0000129
 7,-0.00000768,0.00000102,0.00000014,0.19816792,-0.00007101,0.00043252,
 0.00000312,0.00036804,-0.00103555,-0.00002838,0.00327728,-0.00123217,-
 0.00006608,-0.00017280,0.00002800,0.00000532,-0.00009355,-0.00029718,-
 0.00000269,0.00077853,0.00060866,-0.00000572,0.00006018,0.00008063,-0.
 00000026,-0.00003820,0.00000403,0.00000079,-0.00004102,-0.00003173,-0.
 00000051,0.00019716,-0.00000560,-0.00000223,-0.00001804,0.00001968,0.0
 0000133,0.00004764,0.00003497,-0.00000068,-0.00001723,-0.00002356,-0.0
 0000007,0.00002923,-0.00000118,-0.00000031,-0.00003703,-0.00002151,0.0
 0000018,-0.00005234,0.00004554,0.00000172,-0.00001833,-0.00001816,0.00
 000010,0.00000227,0.00000086,-0.00000008,0.00004893,0.00001575,-0.0000
 0104,0.00000392,-0.00000110,-0.00000009,-0.00006604,-0.00002178,0.0000
 0055,0.02004768,0.01460822,0.00000333,-0.14527861,-0.20111188,-0.00083
 881,0.00002692,-0.00001254,-0.00000053,-0.00060347,0.00052732,0.000025
 71,-0.00000214,0.00000132,0.00000004,0.14295994,0.20941846,-0.00000182
 ,0.00000624,0.00023572,0.00001389,-0.00002923,0.00023230,0.00008542,-0
 .00008374,0.00060296,-0.00000076,0.00000336,-0.00013436,-0.00000013,-0
 .00000866,-0.00011696,0.00003049,0.00001807,0.00028972,-0.00000329,-0.
 00000210,0.00006106,-0.00000019,-0.00000032,-0.00000478,0.00000118,-0.
 00000136,0.00002821,0.00000098,0.00000383,-0.00003093,-0.00000067,0.00
 000078,-0.00004722,0.00000015,-0.00000075,0.00003473,0.00000005,0.0000
 0003,-0.00000730,0.00000025,0.00000036,-0.00000219,0.00000091,0.000002
 14,-0.00000198,-0.00000011,-0.00000084,-0.00001515,-0.00000014,-0.0000
 0069,0.00001657,0.00000002,-0.00000008,0.00000353,0.00000186,-0.000000
 15,0.00003613,-0.00000004,0.,0.00000048,0.00000035,0.00000012,-0.00000
 108,0.00077721,0.00045494,0.00035902,-0.00111441,-0.00100341,-0.050811
 63,-0.00000016,0.00000007,-0.00000027,-0.00001906,0.00001894,-0.000443
 35,0.00000006,0.,0.00000028,0.00064580,0.00108329,0.04676100,-0.000701
 55,-0.00012141,0.00060495,0.00057680,-0.00091482,0.00001265,0.00620285
 ,0.00412358,-0.00190702,0.00001628,-0.00088703,-0.00020047,0.00072576,
 0.00084790,0.00040665,-0.00196262,0.00002137,0.00070924,0.00033514,0.0
 0014446,-0.00011921,0.00000308,0.00000872,0.00001915,-0.00001404,0.000
 00808,0.00003805,0.00005283,0.00004444,-0.00008263,-0.00003131,0.00001
 395,-0.00000095,0.00005769,-0.00000125,-0.00000403,0.00000013,0.000013
 41,0.00002835,-0.00002429,-0.00000290,-0.00005424,-0.00010305,-0.00019
 890,0.00002155,-0.00007356,0.00001629,0.00002314,0.00012777,-0.0001099
 4,-0.00016557,0.00000276,0.00000153,0.00000018,-0.00003790,-0.00001479
 ,-0.00004069,0.00000786,-0.00000090,0.00000003,-0.00005246,-0.00001288
 ,-0.00000010,-0.01916184,0.02489322,-0.02562745,-0.05088354,0.00574872
 ,-0.01117350,0.00002000,-0.00000899,-0.00000447,-0.00096175,-0.0007156
 1,-0.00109367,-0.00000301,0.00000144,0.00000222,0.00424188,-0.01099044
 ,0.01823206,0.05962238,-0.00058307,0.00003219,0.00025558,0.00075637,0.
 00057549,-0.00023144,-0.00359982,-0.00126147,-0.00049809,0.00082999,0.
 00012285,0.00005223,-0.00017768,-0.00003880,-0.00012504,0.00079187,-0.
 00000246,-0.00013063,-0.00064083,-0.00036043,-0.00004832,0.00008257,-0
 .00003609,0.00000222,0.00010880,0.00000571,0.00000219,-0.00015056,0.00
 009854,0.00004851,0.00001692,-0.00004178,0.00000389,-0.00011305,-0.000
 08278,-0.00000265,0.00004569,0.00003238,0.00000034,-0.00002826,0.00002
 040,-0.00000567,0.00017667,0.00031362,0.00000058,0.00009473,-0.0000756
 6,-0.00002292,-0.00008918,0.00007152,0.00009867,-0.00000398,-0.0000037
 0,0.00000120,0.00003081,0.00002499,-0.00003307,-0.00001502,0.00000287,
 0.00000277,0.00014855,0.00004700,-0.00000270,0.01448835,-0.01211511,0.
 01087059,0.00930003,-0.12996042,0.11610578,-0.00006036,0.00002848,0.00
 000318,-0.00081583,-0.00003757,-0.00056974,0.00000735,-0.00000279,0.00
 000062,0.00162201,-0.01131235,0.01938105,-0.01953313,0.14268091,0.0004
 9193,-0.00038315,-0.00010593,-0.00083966,0.00084354,0.00003517,0.00166
 520,0.00107367,0.00072293,-0.00029816,-0.00004941,-0.00002777,0.000311
 75,0.00007618,-0.00002974,-0.00059665,-0.00015751,-0.00024834,0.000274
 10,0.00012455,0.00003669,0.00000075,0.00001656,-0.00001127,-0.00000228
 ,0.00000062,-0.00000625,-0.00009725,0.00006585,0.00002630,0.00000910,0
 .00000158,0.00000032,0.00001616,0.00001409,0.00000101,-0.00000487,0.00
 000050,-0.00000157,-0.00000521,-0.00000122,0.00000459,-0.00004147,-0.0
 0015380,0.00000049,0.00000742,-0.00006444,0.00000150,0.00007432,-0.000
 03931,-0.00000010,-0.00000031,0.00000058,-0.00000157,-0.00005507,-0.00
 001694,0.00000904,0.00000334,0.00000068,-0.00000206,-0.00001679,-0.000
 00670,0.00000148,-0.00537268,-0.00141609,0.00767954,-0.01569842,0.1173
 2845,-0.22314503,0.00000670,-0.00000206,-0.00000133,0.00024456,-0.0006
 9770,-0.00009421,-0.00000031,0.00000076,-0.00000106,0.00087811,-0.0014
 8172,0.00156439,0.02001168,-0.13068055,0.23391398,-0.00072382,-0.00009
 184,-0.00059070,0.00059818,-0.00093188,-0.00006128,0.00619775,0.004033
 97,0.00189091,0.00002642,-0.00088871,0.00016887,0.00070318,0.00085727,
 -0.00039719,-0.00196524,0.00004383,-0.00066213,0.00033230,0.00013810,0
 .00011583,0.00000237,0.00000910,-0.00001948,-0.00001553,0.00000947,-0.
 00003764,0.00005786,0.00003919,0.00008362,-0.00003152,0.00001383,0.000
 00242,0.00005763,-0.00000142,0.00000232,-0.00000075,0.00001415,-0.0000
 2762,-0.00002250,-0.00000476,0.00005451,-0.00010280,-0.00019482,-0.000
 02525,-0.00007461,0.00001876,-0.00002049,0.00013077,-0.00011475,0.0001
 5842,0.00000276,0.00000152,-0.00000024,-0.00003548,-0.00001576,0.00004
 107,0.00000779,-0.00000091,-0.00000032,-0.00005239,-0.00001288,0.00000
 113,-0.01840223,0.02402237,0.02706367,-0.05034721,0.00276285,0.0072419
 6,0.00002007,-0.00000915,0.00000361,-0.00096342,-0.00072744,0.00110219
 ,-0.00000307,0.00000148,-0.00000212,0.00379332,-0.01034181,-0.01864994
 ,0.00202344,-0.00270320,-0.00096434,0.05879248,-0.00057221,0.00002809,
 -0.00023673,0.00073682,0.00059704,0.00023152,-0.00352571,-0.00124945,0
 .00051768,0.00081775,0.00012332,-0.00006919,-0.00016324,-0.00004113,0.
 00012955,0.00077639,-0.00001090,0.00011587,-0.00063021,-0.00035788,0.0
 0005225,0.00008244,-0.00003550,-0.00000527,0.00010876,0.00000585,-0.00
 000484,-0.00015544,0.00010242,-0.00004159,0.00001717,-0.00004155,-0.00
 000586,-0.00011255,-0.00008245,0.00000314,0.00004555,0.00003246,-0.000
 00064,-0.00002831,0.00002018,0.00000718,0.00017533,0.00030847,0.000004
 94,0.00009567,-0.00007854,0.00001756,-0.00008945,0.00007367,-0.0000942
 0,-0.00000404,-0.00000364,-0.00000115,0.00002990,0.00002333,0.00003306
 ,-0.00001497,0.00000298,-0.00000219,0.00014817,0.00004678,0.00000022,0
 .01403918,-0.01174951,-0.01182867,0.00617158,-0.12220179,-0.11286598,-
 0.00006023,0.00002850,-0.00000069,-0.00079137,-0.00007927,0.00058881,0
 .00000733,-0.00000274,-0.00000086,0.00119264,-0.01070593,-0.01984190,-
 0.00237883,0.01128877,0.01560168,-0.01593132,0.13397275,-0.00049563,0.
 00039086,-0.00007424,0.00085079,-0.00080662,-0.00001063,-0.00191310,-0
 .00123495,0.00069920,0.00032211,0.00007498,-0.00004024,-0.00033343,-0.
 00009698,-0.00000898,0.00066000,0.00016447,-0.00023939,-0.00030120,-0.
 00014043,0.00003920,0.00000152,-0.00001767,-0.00001171,0.00000631,-0.0
 0000036,-0.00000558,0.00009059,-0.00006405,0.00001815,-0.00000766,-0.0
 0000330,0.00000035,-0.00002134,-0.00001687,0.00000093,0.00000635,0.000
 00038,-0.00000099,0.00000485,0.00000188,0.00000327,0.00004972,0.000168
 19,0.00000530,-0.00000220,0.00006125,0.00000502,-0.00008040,0.00004447
 ,-0.00000371,0.00000004,-0.00000068,-0.00000164,0.00005725,0.00001779,
 0.00000792,-0.00000405,-0.00000050,-0.00000207,0.00002313,0.00000858,0
 .00000124,0.00646688,0.00021232,0.00658823,0.01186743,-0.11399857,-0.2
 3139803,-0.00000927,0.00000329,-0.00000119,-0.00024460,0.00071322,-0.0
 0007041,0.00000061,-0.00000085,-0.00000108,-0.00088889,0.00130355,0.00
 139182,0.00036261,-0.01447774,-0.02032143,-0.01647063,0.12769626,0.243
 43051,0.00001122,-0.00003063,-0.00000076,-0.00003313,-0.00001897,0.000
 00011,0.00009390,0.00005292,0.,-0.00011424,0.00003067,0.00000237,-0.00
 003579,0.00003979,0.00000107,-0.00002748,0.00002640,0.00000028,0.00014
 459,-0.00026519,-0.00000683,-0.00016580,0.00058709,0.00001240,-0.00025
 035,-0.00015525,-0.00000108,0.00040960,0.00018728,-0.00000174,-0.00130
 821,-0.00104784,0.00000326,-0.00140336,0.00455328,0.00008061,-0.000159
 52,0.00074322,0.00001914,0.00016162,-0.00027821,-0.00000399,-0.0000795
 9,0.00014511,0.00000341,-0.00012654,-0.00019945,-0.00000168,0.00000940
 ,-0.00000207,-0.00000016,-0.00004917,-0.00001529,0.00000089,0.00000551
 ,0.00000295,0.00000001,0.00000939,0.00000778,-0.00000043,-0.03744644,-
 0.01840107,0.00015544,-0.00011780,-0.00003654,0.00000097,0.00004773,-0
 .00002268,-0.00000099,-0.16611914,-0.13150675,-0.00088613,-0.00000768,
 0.00000102,0.00000014,0.00036661,-0.00018393,-0.00001299,-0.00000529,-
 0.00000304,0.00000002,-0.00000273,0.00000718,-0.00000105,-0.00000275,0
 .00000714,0.00000134,0.19815969,0.00002923,-0.00000118,-0.00000031,-0.
 00001723,-0.00002356,-0.00000007,0.00004764,0.00003497,-0.00000068,-0.
 00004101,-0.00003172,-0.00000052,-0.00003820,0.00000403,0.00000078,-0.
 00001804,0.00001968,0.00000131,0.00019715,-0.00000560,-0.00000221,-0.0
 0009354,-0.00029716,-0.00000272,-0.00017279,0.00002800,0.00000537,0.00
 006018,0.00008062,-0.00000023,0.00077847,0.00060862,-0.00000576,0.0032
 7725,-0.00123191,-0.00006605,0.00036808,-0.00103542,-0.00002844,-0.000
 07099,0.00043248,0.00000309,-0.00005234,0.00004554,0.00000171,-0.00003
 703,-0.00002151,0.00000017,0.00000392,-0.00000110,-0.00000009,0.000048
 93,0.00001575,-0.00000105,0.00000227,0.00000086,-0.00000008,-0.0000183
 3,-0.00001816,0.00000011,0.02004622,0.01460825,0.00000336,-0.00006604,
 -0.00002178,0.00000054,0.00002692,-0.00001254,-0.00000053,-0.14527767,
 -0.20111948,-0.00084025,-0.00000214,0.00000132,0.00000004,-0.00060337,
 0.00052728,0.00002576,-0.00000304,-0.00000180,0.,-0.00000136,0.0000040
 3,-0.00000073,-0.00000127,0.00000402,0.00000091,0.14295962,0.20942641,
 0.00000024,0.00000037,-0.00000219,0.00000006,0.00000003,-0.00000730,0.
 00000014,-0.00000075,0.00003473,0.00000117,-0.00000136,0.00002821,-0.0
 0000019,-0.00000032,-0.00000478,-0.00000066,0.00000078,-0.00004722,0.0
 0000098,0.00000382,-0.00003093,-0.00000013,-0.00000864,-0.00011695,-0.
 00000076,0.00000336,-0.00013436,-0.00000329,-0.00000211,0.00006106,0.0
 0003049,0.00001809,0.00028971,0.00008563,-0.00008376,0.00060291,0.0000
 1395,-0.00002922,0.00023225,-0.00000182,0.00000624,0.00023570,-0.00000
 010,-0.00000084,-0.00001515,0.00000091,0.00000214,-0.00000198,-0.00000
 003,0.,0.00000048,0.00000186,-0.00000016,0.00003612,0.00000002,-0.0000
 0008,0.00000353,-0.00000013,-0.00000069,0.00001657,0.00077758,0.000455
 24,0.00035905,0.00000035,0.00000012,-0.00000108,-0.00000016,0.00000007
 ,-0.00000027,-0.00111611,-0.00100504,-0.05081139,0.00000006,0.,0.00000
 028,-0.00001906,0.00001895,-0.00044332,0.00000002,0.,0.00000039,0.0000
 0177,0.00000023,-0.00000057,-0.00000175,-0.00000026,-0.00000054,0.0006
 4711,0.00108507,0.04676098,-0.00002250,-0.00000476,0.00005448,-0.00000
 074,0.00001414,-0.00002762,0.00005764,-0.00000141,0.00000232,-0.000015
 54,0.00000947,-0.00003763,0.00000236,0.00000910,-0.00001950,-0.0000315
 1,0.00001384,0.00000243,0.00005787,0.00003920,0.00008364,0.00070312,0.
 00085721,-0.00039723,0.00002636,-0.00088865,0.00016883,0.00033235,0.00
 013811,0.00011585,-0.00196528,0.00004378,-0.00066205,0.00619767,0.0040
 3408,0.00189066,0.00059816,-0.00093181,-0.00006131,-0.00072372,-0.0000
 9185,-0.00059063,-0.00007462,0.00001875,-0.00002050,-0.00010282,-0.000
 19483,-0.00002529,0.00000779,-0.00000091,-0.00000032,-0.00003548,-0.00
 001576,0.00004107,0.00000276,0.00000152,-0.00000024,0.00013078,-0.0001
 1475,0.00015843,-0.01840308,0.02402191,0.02706437,-0.00005240,-0.00001
 288,0.00000113,0.00002007,-0.00000916,0.00000361,-0.05034735,0.0027646
 6,0.00724533,-0.00000307,0.00000148,-0.00000212,-0.00096316,-0.0007273
 5,0.00110205,-0.00000276,-0.00000127,-0.00000175,-0.00000256,0.0000029
 8,-0.00000005,-0.00000042,0.00000307,0.00000065,0.00379352,-0.01034123
 ,-0.01864953,0.05879297,-0.00002831,0.00002018,0.00000719,0.00004555,0
 .00003246,-0.00000064,-0.00011255,-0.00008245,0.00000313,0.00010877,0.
 00000585,-0.00000483,0.00008245,-0.00003550,-0.00000525,0.00001717,-0.
 00004155,-0.00000585,-0.00015545,0.00010243,-0.00004163,-0.00016321,-0
 .00004112,0.00012950,0.00081774,0.00012333,-0.00006917,-0.00063021,-0.
 00035788,0.00005219,0.00077635,-0.00001088,0.00011582,-0.00352540,-0.0
 0124940,0.00051775,0.00073694,0.00059711,0.00023141,-0.00057218,0.0000
 2807,-0.00023676,0.00009567,-0.00007855,0.00001759,0.00017533,0.000308
 46,0.00000499,-0.00001496,0.00000298,-0.00000219,0.00002990,0.00002333
 ,0.00003306,-0.00000404,-0.00000363,-0.00000115,-0.00008946,0.00007367
 ,-0.00009419,0.01403885,-0.01174803,-0.01182786,0.00014817,0.00004678,
 0.00000022,-0.00006023,0.00002850,-0.00000069,0.00617305,-0.12219863,-
 0.11286445,0.00000733,-0.00000274,-0.00000086,-0.00079115,-0.00007926,
 0.00058872,0.00000714,0.00000402,-0.00000026,0.00000299,-0.00000956,0.
 00000137,0.00000307,-0.00000879,-0.00000107,0.00119293,-0.01070607,-0.
 01984279,-0.01593322,0.13396812,0.00000485,0.00000188,0.00000327,0.000
 00635,0.00000038,-0.00000099,-0.00002134,-0.00001687,0.00000093,0.0000
 0631,-0.00000035,-0.00000558,0.00000152,-0.00001766,-0.00001171,-0.000
 00766,-0.00000330,0.00000035,0.00009056,-0.00006403,0.00001815,-0.0003
 3341,-0.00009699,-0.00000898,0.00032210,0.00007500,-0.00004022,-0.0003
 0120,-0.00014044,0.00003920,0.00065998,0.00016447,-0.00023942,-0.00191
 304,-0.00123496,0.00069917,0.00085079,-0.00080654,-0.00001074,-0.00049
 557,0.00039084,-0.00007423,-0.00000219,0.00006123,0.00000501,0.0000497
 3,0.00016819,0.00000532,-0.00000405,-0.00000050,-0.00000207,0.00005725
 ,0.00001779,0.00000791,0.00000004,-0.00000068,-0.00000164,-0.00008040,
 0.00004447,-0.00000370,0.00646716,0.00021230,0.00658813,0.00002313,0.0
 0000859,0.00000124,-0.00000927,0.00000329,-0.00000119,0.01187032,-0.11
 399703,-0.23140120,0.00000061,-0.00000085,-0.00000108,-0.00024457,0.00
 071315,-0.00007036,0.00000134,0.00000091,-0.00000054,0.00000021,-0.000
 00177,0.00000013,0.00000065,-0.00000108,0.00000060,-0.00088889,0.00130
 333,0.00139152,-0.01647422,0.12769456,0.24343412,-0.00002429,-0.000002
 90,-0.00005427,0.00000012,0.00001342,0.00002836,0.00005770,-0.00000125
 ,-0.00000403,-0.00001405,0.00000808,0.00003807,0.00000308,0.00000872,0
 .00001914,-0.00003131,0.00001395,-0.00000094,0.00005284,0.00004441,-0.
 00008261,0.00072580,0.00084792,0.00040664,0.00001620,-0.00088704,-0.00
 020053,0.00033518,0.00014450,-0.00011918,-0.00196260,0.00002139,0.0007
 0932,0.00620294,0.00412358,-0.00190729,0.00057679,-0.00091476,0.000012
 71,-0.00070149,-0.00012143,0.00060500,-0.00007356,0.00001631,0.0000231
 4,-0.00010305,-0.00019892,0.00002152,0.00000786,-0.00000090,0.00000002
 ,-0.00003790,-0.00001479,-0.00004068,0.00000276,0.00000153,0.00000018,
 0.00012777,-0.00010995,-0.00016557,-0.01916307,0.02489338,-0.02562704,
 -0.00005247,-0.00001288,-0.00000010,0.00002000,-0.00000900,-0.00000447
 ,-0.05088409,0.00575171,-0.01117770,-0.00000301,0.00000144,0.00000223,
 -0.00096161,-0.00071553,-0.00109354,-0.00000272,-0.00000136,0.00000177
 ,-0.00000044,0.00000308,-0.00000052,-0.00000256,0.00000299,0.00000021,
 0.00424224,-0.01099026,0.01823139,0.00202361,-0.00237902,0.00036292,0.
 05962334,-0.00002826,0.00002040,-0.00000566,0.00004569,0.00003238,0.00
 000034,-0.00011304,-0.00008278,-0.00000266,0.00010880,0.00000571,0.000
 00220,0.00008256,-0.00003609,0.00000225,0.00001692,-0.00004178,0.00000
 391,-0.00015057,0.00009855,0.00004847,-0.00017766,-0.00003879,-0.00012
 507,0.00082995,0.00012282,0.00005222,-0.00064079,-0.00036040,-0.000048
 38,0.00079180,-0.00000245,-0.00013065,-0.00359961,-0.00126126,-0.00049
 806,0.00075643,0.00057546,-0.00023139,-0.00058304,0.00003218,0.0002555
 9,0.00009473,-0.00007566,-0.00002289,0.00017666,0.00031360,0.00000064,
 -0.00001502,0.00000287,0.00000277,0.00003081,0.00002499,-0.00003306,-0
 .00000398,-0.00000370,0.00000121,-0.00008917,0.00007152,0.00009867,0.0
 1448790,-0.01211408,0.01086950,0.00014854,0.00004700,-0.00000270,-0.00
 006035,0.00002848,0.00000318,0.00930319,-0.12996328,0.11610693,0.00000
 735,-0.00000279,0.00000062,-0.00081576,-0.00003755,-0.00056967,0.00000
 718,0.00000403,0.00000023,0.00000308,-0.00000881,0.00000068,0.00000298
 ,-0.00000956,-0.00000177,0.00162254,-0.01131290,0.01938147,-0.00270346
 ,0.01128875,-0.01447732,-0.01953641,0.14268313,-0.00000521,-0.00000122
 ,0.00000459,-0.00000487,0.00000049,-0.00000157,0.00001616,0.00001409,0
 .00000101,-0.00000228,0.00000062,-0.00000625,0.00000075,0.00001656,-0.
 00001128,0.00000910,0.00000158,0.00000032,-0.00009725,0.00006585,0.000
 02630,0.00031175,0.00007617,-0.00002974,-0.00029817,-0.00004940,-0.000
 02777,0.00027409,0.00012455,0.00003669,-0.00059665,-0.00015751,-0.0002
 4831,0.00166506,0.00107363,0.00072292,-0.00083969,0.00084345,0.0000352
 0,0.00049191,-0.00038311,-0.00010596,0.00000742,-0.00006445,0.00000151
 ,-0.00004147,-0.00015380,0.00000047,0.00000334,0.00000068,-0.00000207,
 -0.00005507,-0.00001694,0.00000905,-0.00000031,0.00000058,-0.00000157,
 0.00007431,-0.00003930,-0.00000011,-0.00537225,-0.00141664,0.00767969,
 -0.00001679,-0.00000670,0.00000148,0.00000670,-0.00000207,-0.00000133,
 -0.01570236,0.11732976,-0.22314250,-0.00000031,0.00000076,-0.00000106,
 0.00024458,-0.00069765,-0.00009421,-0.00000105,-0.00000073,-0.00000057
 ,-0.00000052,0.00000068,0.00000069,-0.00000005,0.00000137,0.00000013,0
 .00087816,-0.00148183,0.00156454,-0.00096489,0.01560213,-0.02032139,0.
 02001585,-0.13068161,0.23391108\\0.00000430,-0.00003280,-0.00000243,0.
 00001410,0.00000997,0.00000469,-0.00005476,0.00002963,-0.00001441,-0.0
 0000542,0.00001763,-0.00001187,0.00000429,-0.00002311,-0.00000738,0.00
 001683,0.00001209,-0.00000137,-0.00000201,0.00005579,0.00004589,-0.000
 00452,0.00002335,-0.00001314,0.00000522,-0.00001750,-0.00000637,0.0000
 0282,-0.00005691,0.00001413,-0.00001689,-0.00001228,0.00000213,0.00005
 363,-0.00002942,0.00001601,-0.00001479,-0.00001156,-0.00000393,-0.0000
 0454,0.00003260,0.00000225,-0.00000265,-0.00006717,-0.00001907,0.00000
 242,0.00006765,-0.00000496,-0.00000066,-0.00001965,-0.00000054,-0.0000
 1029,-0.00002983,-0.00000009,0.00001007,0.00002974,0.00000025,0.000000
 69,0.00001961,0.00000067,-0.00002182,0.00000649,-0.00002680,0.00002262
 ,-0.00000616,0.00002618,0.00000083,-0.00005313,-0.00001624,0.00000103,
 0.00005453,0.00001636,0.00000530,-0.00000501,0.00000049,-0.00000679,0.
 00000514,-0.00000037,-0.00000915,0.00001120,-0.00000205,-0.00000437,0.
 00001407,-0.00000074,-0.00000835,0.00000996,0.00000611,0.00000952,-0.0
 0001146,0.00000216,0.00000875,-0.00000967,-0.00000602,0.00000460,-0.00
 001382,0.00000050\\\@


 The hours that make us happy make us wise.
                         -- John Masefield
 Job cpu time:       0 days  6 hours 26 minutes  0.0 seconds.
 Elapsed time:       0 days  0 hours 48 minutes 40.9 seconds.
 File lengths (MBytes):  RWF=   1646 Int=      0 D2E=      0 Chk=     31 Scr=      1
 Normal termination of Gaussian 16 at Thu Dec 21 06:46:49 2023.
