 Entering Gaussian System, Link 0=g16
 Input=006-an-PCM.com
 Output=006-an-PCM.log
 Initial command:
 /sysapps/ubuntu-applications/gaussian/Gaussian/SSE_4/g16/l1.exe "/scratch/selhajj1/4308342/Gau-1513466.inp" -scrdir="/scratch/selhajj1/4308342/"
 Entering Link 1 = /sysapps/ubuntu-applications/gaussian/Gaussian/SSE_4/g16/l1.exe PID=   1513470.
  
 Copyright (c) 1988,1990,1992,1993,1995,1998,2003,2009,2016,
            Gaussian, Inc.  All Rights Reserved.
  
 This is part of the Gaussian(R) 16 program.  It is based on
 the Gaussian(R) 09 system (copyright 2009, Gaussian, Inc.),
 the Gaussian(R) 03 system (copyright 2003, Gaussian, Inc.),
 the Gaussian(R) 98 system (copyright 1998, Gaussian, Inc.),
 the Gaussian(R) 94 system (copyright 1995, Gaussian, Inc.),
 the Gaussian 92(TM) system (copyright 1992, Gaussian, Inc.),
 the Gaussian 90(TM) system (copyright 1990, Gaussian, Inc.),
 the Gaussian 88(TM) system (copyright 1988, Gaussian, Inc.),
 the Gaussian 86(TM) system (copyright 1986, Carnegie Mellon
 University), and the Gaussian 82(TM) system (copyright 1983,
 Carnegie Mellon University). Gaussian is a federally registered
 trademark of Gaussian, Inc.
  
 This software contains proprietary and confidential information,
 including trade secrets, belonging to Gaussian, Inc.
  
 This software is provided under written license and may be
 used, copied, transmitted, or stored only in accord with that
 written license.
  
 The following legend is applicable only to US Government
 contracts under FAR:
  
                    RESTRICTED RIGHTS LEGEND
  
 Use, reproduction and disclosure by the US Government is
 subject to restrictions as set forth in subparagraphs (a)
 and (c) of the Commercial Computer Software - Restricted
 Rights clause in FAR 52.227-19.
  
 Gaussian, Inc.
 340 Quinnipiac St., Bldg. 40, Wallingford CT 06492
  
  
 ---------------------------------------------------------------
 Warning -- This program may not be used in any manner that
 competes with the business of Gaussian, Inc. or will provide
 assistance to any competitor of Gaussian, Inc.  The licensee
 of this program is prohibited from giving any competitor of
 Gaussian, Inc. access to this program.  By using this program,
 the user acknowledges that Gaussian, Inc. is engaged in the
 business of creating and licensing software in the field of
 computational chemistry and represents and warrants to the
 licensee that it is not a competitor of Gaussian, Inc. and that
 it will not use this program in any manner prohibited above.
 ---------------------------------------------------------------
  

 Cite this work as:
 Gaussian 16, Revision A.03,
 M. J. Frisch, G. W. Trucks, H. B. Schlegel, G. E. Scuseria, 
 M. A. Robb, J. R. Cheeseman, G. Scalmani, V. Barone, 
 G. A. Petersson, H. Nakatsuji, X. Li, M. Caricato, A. V. Marenich, 
 J. Bloino, B. G. Janesko, R. Gomperts, B. Mennucci, H. P. Hratchian, 
 J. V. Ortiz, A. F. Izmaylov, J. L. Sonnenberg, D. Williams-Young, 
 F. Ding, F. Lipparini, F. Egidi, J. Goings, B. Peng, A. Petrone, 
 T. Henderson, D. Ranasinghe, V. G. Zakrzewski, J. Gao, N. Rega, 
 G. Zheng, W. Liang, M. Hada, M. Ehara, K. Toyota, R. Fukuda, 
 J. Hasegawa, M. Ishida, T. Nakajima, Y. Honda, O. Kitao, H. Nakai, 
 T. Vreven, K. Throssell, J. A. Montgomery, Jr., J. E. Peralta, 
 F. Ogliaro, M. J. Bearpark, J. J. Heyd, E. N. Brothers, K. N. Kudin, 
 V. N. Staroverov, T. A. Keith, R. Kobayashi, J. Normand, 
 K. Raghavachari, A. P. Rendell, J. C. Burant, S. S. Iyengar, 
 J. Tomasi, M. Cossi, J. M. Millam, M. Klene, C. Adamo, R. Cammi, 
 J. W. Ochterski, R. L. Martin, K. Morokuma, O. Farkas, 
 J. B. Foresman, and D. J. Fox, Gaussian, Inc., Wallingford CT, 2016.
 
 ******************************************
 Gaussian 16:  ES64L-G16RevA.03 25-Dec-2016
                22-Jan-2024 
 ******************************************
 %chk=006-an-PCM.chk
 %nproc=8
 Will use up to    8 processors via shared memory.
 %mem=30GB
 ---------------------------------------------------------
 #P UB3LYP/genecp SCRF=(PCM,Solvent=n,n-DiMethylFormamide)
 ---------------------------------------------------------
 1/38=1,172=1/1;
 2/12=2,17=6,18=5,40=1/2;
 3/5=7,11=2,16=1,17=8,25=1,30=1,70=2201,72=148,74=-5,116=2/1,2,3;
 4//1;
 5/5=2,38=5,53=148/2;
 6/7=2,8=2,9=2,10=2,28=1/1;
 99/5=1,9=1/99;
 Leave Link    1 at Mon Jan 22 18:29:40 2024, MaxMem=  4026531840 cpu:               0.4 elap:               0.1
 (Enter /sysapps/ubuntu-applications/gaussian/Gaussian/SSE_4/g16/l101.exe)
 -------
 Reduced
 -------
 Symbolic Z-matrix:
 Charge = -2 Multiplicity = 1
 C                    -1.32103   2.02477   0.53976 
 C                    -2.58569   1.36933   0.24618 
 C                    -2.66358   0.07827  -0.27905 
 C                    -1.53077  -0.74495  -0.58991 
 C                    -0.27451  -0.11465  -0.29524 
 C                    -0.22052   1.17055   0.23457 
 O                    -1.24273   3.21758   1.0193 
 O                    -1.62287  -1.93907  -1.08032 
 H                     0.63183  -0.67581  -0.49473 
 I                     1.74519   2.02155   0.63976 
 C                    -3.82405   2.20118   0.55156 
 C                    -4.04113   3.2814   -0.53011 
 C                    -5.11263   1.39325   0.76193 
 H                    -3.63484  -0.36813  -0.48233 
 H                    -3.60088   2.74516   1.47948 
 H                    -4.25923   2.81423  -1.49869 
 H                    -3.13476   3.88278  -0.6222 
 H                    -4.88287   3.94549  -0.27258 
 H                    -5.4276    0.8849   -0.1568 
 H                    -5.93491   2.05237   1.07165 
 H                    -4.97933   0.62501   1.53033 
 
 ITRead=  0  0  0  0  0  0  0  0  0  0  0  0  0  0  0  0  0  0  0  0
 ITRead=  0
 MicOpt= -1 -1 -1 -1 -1 -1 -1 -1 -1 -1 -1 -1 -1 -1 -1 -1 -1 -1 -1 -1
 MicOpt= -1
 NAtoms=     21 NQM=       21 NQMF=       0 NMMI=      0 NMMIF=      0
                NMic=       0 NMicF=      0.
                    Isotopes and Nuclear Properties:
 (Nuclear quadrupole moments (NQMom) in fm**2, nuclear magnetic moments (NMagM)
  in nuclear magnetons)

  Atom         1           2           3           4           5           6           7           8           9          10
 IAtWgt=          12          12          12          12          12          12          16          16           1         127
 AtmWgt=  12.0000000  12.0000000  12.0000000  12.0000000  12.0000000  12.0000000  15.9949146  15.9949146   1.0078250 126.9004000
 NucSpn=           0           0           0           0           0           0           0           0           1           5
 AtZEff=  -0.0000000  -0.0000000  -0.0000000  -0.0000000  -0.0000000  -0.0000000  -0.0000000  -0.0000000  -0.0000000  -0.0000000
 NQMom=    0.0000000   0.0000000   0.0000000   0.0000000   0.0000000   0.0000000   0.0000000   0.0000000   0.0000000 -71.0000000
 NMagM=    0.0000000   0.0000000   0.0000000   0.0000000   0.0000000   0.0000000   0.0000000   0.0000000   2.7928460   2.8132800
 AtZNuc=   6.0000000   6.0000000   6.0000000   6.0000000   6.0000000   6.0000000   8.0000000   8.0000000   1.0000000  53.0000000

  Atom        11          12          13          14          15          16          17          18          19          20
 IAtWgt=          12          12          12           1           1           1           1           1           1           1
 AtmWgt=  12.0000000  12.0000000  12.0000000   1.0078250   1.0078250   1.0078250   1.0078250   1.0078250   1.0078250   1.0078250
 NucSpn=           0           0           0           1           1           1           1           1           1           1
 AtZEff=  -0.0000000  -0.0000000  -0.0000000  -0.0000000  -0.0000000  -0.0000000  -0.0000000  -0.0000000  -0.0000000  -0.0000000
 NQMom=    0.0000000   0.0000000   0.0000000   0.0000000   0.0000000   0.0000000   0.0000000   0.0000000   0.0000000   0.0000000
 NMagM=    0.0000000   0.0000000   0.0000000   2.7928460   2.7928460   2.7928460   2.7928460   2.7928460   2.7928460   2.7928460
 AtZNuc=   6.0000000   6.0000000   6.0000000   1.0000000   1.0000000   1.0000000   1.0000000   1.0000000   1.0000000   1.0000000

  Atom        21
 IAtWgt=           1
 AtmWgt=   1.0078250
 NucSpn=           1
 AtZEff=  -0.0000000
 NQMom=    0.0000000
 NMagM=    2.7928460
 AtZNuc=   1.0000000
 Leave Link  101 at Mon Jan 22 18:29:40 2024, MaxMem=  4026531840 cpu:               2.0 elap:               0.3
 (Enter /sysapps/ubuntu-applications/gaussian/Gaussian/SSE_4/g16/l202.exe)
                          Input orientation:                          
 ---------------------------------------------------------------------
 Center     Atomic      Atomic             Coordinates (Angstroms)
 Number     Number       Type             X           Y           Z
 ---------------------------------------------------------------------
      1          6           0       -1.321029    2.024772    0.539761
      2          6           0       -2.585691    1.369325    0.246182
      3          6           0       -2.663577    0.078269   -0.279052
      4          6           0       -1.530766   -0.744948   -0.589914
      5          6           0       -0.274507   -0.114653   -0.295239
      6          6           0       -0.220521    1.170554    0.234567
      7          8           0       -1.242729    3.217577    1.019303
      8          8           0       -1.622873   -1.939074   -1.080322
      9          1           0        0.631834   -0.675808   -0.494734
     10         53           0        1.745192    2.021547    0.639763
     11          6           0       -3.824045    2.201177    0.551559
     12          6           0       -4.041127    3.281400   -0.530111
     13          6           0       -5.112631    1.393253    0.761926
     14          1           0       -3.634841   -0.368125   -0.482331
     15          1           0       -3.600876    2.745155    1.479481
     16          1           0       -4.259230    2.814228   -1.498693
     17          1           0       -3.134757    3.882781   -0.622195
     18          1           0       -4.882872    3.945488   -0.272579
     19          1           0       -5.427603    0.884899   -0.156797
     20          1           0       -5.934905    2.052371    1.071653
     21          1           0       -4.979326    0.625011    1.530334
 ---------------------------------------------------------------------
                    Distance matrix (angstroms):
                    1          2          3          4          5
     1  C    0.000000
     2  C    1.454362   0.000000
     3  C    2.502352   1.395981   0.000000
     4  C    2.998584   2.506407   1.434427   0.000000
     5  C    2.523801   2.799446   2.396901   1.436068   0.000000
     6  C    1.426166   2.373536   2.724961   2.462856   1.391174
     7  O    1.287973   2.411908   3.682362   4.286508   3.710691
     8  O    4.292768   3.692172   2.407233   1.294187   2.400616
     9  H    3.489554   3.883812   3.387460   2.165797   1.084503
    10  I    3.067853   4.397368   4.904875   4.460661   3.084925
    11  C    2.509252   1.522745   2.557995   3.904067   4.321962
    12  C    3.181615   2.525263   3.495815   4.745205   5.076984
    13  C    3.850249   2.579145   2.968280   4.385103   5.176758
    14  H    3.482004   2.156427   1.088092   2.140257   3.375070
    15  H    2.568994   2.108207   3.329151   4.555060   4.732110
    16  H    3.662180   2.816570   3.393981   4.575820   5.089662
    17  H    2.844635   2.715329   3.848905   4.897929   4.926196
    18  H    4.127441   3.490382   4.458777   5.773864   6.141847
    19  H    4.318386   2.910932   2.881916   4.246096   5.250968
    20  H    4.644515   3.516417   4.052539   5.475604   6.213251
    21  H    4.040260   2.816476   2.989230   4.273734   5.100504
                    6          7          8          9         10
     6  C    0.000000
     7  O    2.418889   0.000000
     8  O    3.655860   5.580680   0.000000
     9  H    2.160426   4.578727   2.649992   0.000000
    10  I    2.180000   3.240711   5.476228   3.130874   0.000000
    11  C    3.761390   2.813369   4.964864   5.406166   5.572831
    12  C    4.431414   3.199342   5.779622   6.123505   6.036334
    13  C    4.925489   4.286087   5.164948   6.233706   6.887628
    14  H    3.813012   4.564467   2.621734   4.277773   5.992861
    15  H    3.931409   2.448633   5.692722   5.789330   5.459778
    16  H    4.692230   3.949971   5.451540   6.091863   6.422960
    17  H    4.072221   2.591676   6.032385   5.914743   5.373140
    18  H    5.449309   3.930579   6.775553   7.198452   6.961692
    19  H    5.229576   4.933332   4.827390   6.266321   7.305851
    20  H    5.842303   4.834973   6.257495   7.281387   7.692293
    21  H    4.962142   4.576539   4.965464   6.105583   6.925502
                   11         12         13         14         15
    11  C    0.000000
    12  C    1.544026   0.000000
    13  C    1.535399   2.526377   0.000000
    14  H    2.775975   3.672381   2.614286   0.000000
    15  H    1.098524   2.125991   2.151262   3.679996   0.000000
    16  H    2.183747   1.097256   2.803188   3.398562   3.050856
    17  H    2.163471   1.091625   3.467784   4.282505   2.434852
    18  H    2.200668   1.102665   2.763493   4.495424   2.480731
    19  H    2.192203   2.793724   1.096213   2.211343   3.078131
    20  H    2.179076   2.768132   1.098409   3.682928   2.468596
    21  H    2.185629   3.490280   1.094722   2.616253   2.529372
                   16         17         18         19         20
    16  H    0.000000
    17  H    1.781711   0.000000
    18  H    1.781021   1.783836   0.000000
    19  H    2.624517   3.802767   3.110843   0.000000
    20  H    3.161486   3.749713   2.549044   1.769021   0.000000
    21  H    3.806076   4.318435   3.779599   1.764909   1.777885
                   21
    21  H    0.000000
 Stoichiometry    C9H9IO2(2-)
 Framework group  C1[X(C9H9IO2)]
 Deg. of freedom    57
 Full point group                 C1      NOp   1
 Largest Abelian subgroup         C1      NOp   1
 Largest concise Abelian subgroup C1      NOp   1
                         Standard orientation:                         
 ---------------------------------------------------------------------
 Center     Atomic      Atomic             Coordinates (Angstroms)
 Number     Number       Type             X           Y           Z
 ---------------------------------------------------------------------
      1          6           0       -0.518617   -0.650451   -0.119922
      2          6           0       -1.863673   -0.097292   -0.117034
      3          6           0       -2.117669    1.271151   -0.009281
      4          6           0       -1.106039    2.280928    0.111290
      5          6           0        0.228343    1.750294    0.099283
      6          6           0        0.458536    0.383155   -0.016087
      7          8           0       -0.278222   -1.912316   -0.213629
      8          8           0       -1.361288    3.545525    0.214071
      9          1           0        1.052007    2.451369    0.178143
     10         53           0        2.527879   -0.302540   -0.022244
     11          6           0       -2.979532   -1.126539   -0.236467
     12          6           0       -3.193484   -1.863369    1.103429
     13          6           0       -4.314516   -0.578227   -0.760512
     14          1           0       -3.142966    1.635442   -0.011090
     15          1           0       -2.615727   -1.885495   -0.942432
     16          1           0       -3.548694   -1.164849    1.871456
     17          1           0       -2.245848   -2.296712    1.428769
     18          1           0       -3.937503   -2.671129    1.004287
     19          1           0       -4.764885    0.133052   -0.058420
     20          1           0       -5.034694   -1.394082   -0.909596
     21          1           0       -4.183321   -0.056522   -1.713941
 ---------------------------------------------------------------------
 Rotational constants (GHZ):           0.9726982           0.3277819           0.2539438
 Leave Link  202 at Mon Jan 22 18:29:40 2024, MaxMem=  4026531840 cpu:               0.4 elap:               0.1
 (Enter /sysapps/ubuntu-applications/gaussian/Gaussian/SSE_4/g16/l301.exe)
 General basis read from cards:  (5D, 7F)
 Centers:       9     14     15     16     17     18     19     20     21      1
 Centers:       2      3      4      5      6     11     12     13      7      8
 6-311++G(d,p)
 ****
 Centers:      10
 def2TZVP
 ****
 ======================================================================================================
                                       Pseudopotential Parameters
 ======================================================================================================
  Center     Atomic      Valence      Angular      Power
  Number     Number     Electrons     Momentum     of R      Exponent        Coefficient   SO-Coeffient
 ======================================================================================================
    1          6
                                   No pseudopotential on this center.
    2          6
                                   No pseudopotential on this center.
    3          6
                                   No pseudopotential on this center.
    4          6
                                   No pseudopotential on this center.
    5          6
                                   No pseudopotential on this center.
    6          6
                                   No pseudopotential on this center.
    7          8
                                   No pseudopotential on this center.
    8          8
                                   No pseudopotential on this center.
    9          1
                                   No pseudopotential on this center.
   10         53           25
                                      G and up 
                                                     2        1.0000000        0.00000000    0.00000000
                                      S - G
                                                     2       40.0158350       49.99429300    0.00000000
                                                     2       17.4297470      281.02531700    0.00000000
                                                     2        9.0054840       61.57332600    0.00000000
                                      P - G
                                                     2       15.3554660       67.44284100 -134.88568300
                                                     2       14.9718330      134.88113700  134.88113700
                                                     2        8.9601640       14.67505100  -29.35010100
                                                     2        8.2590960       29.37566600   29.37566600
                                      D - G
                                                     2       15.0689080       35.43952900  -35.43952900
                                                     2       14.5553220       53.17605700   35.45070400
                                                     2        6.7186470        9.06719500   -9.06719500
                                                     2        6.4563930       13.20693700    8.80462400
                                                     2        1.1917790        0.08933500   -0.08933500
                                                     2        1.2911570        0.05238000    0.03492000
                                      F - G
                                                     2       19.4586090      -21.84204000   14.56136000
                                                     2       19.3492600      -28.46819100  -14.23409500
                                                     2        4.8237670       -0.24371300    0.16247500
                                                     2        4.8843150       -0.32080400   -0.16040200
   11          6
                                   No pseudopotential on this center.
   12          6
                                   No pseudopotential on this center.
   13          6
                                   No pseudopotential on this center.
   14          1
                                   No pseudopotential on this center.
   15          1
                                   No pseudopotential on this center.
   16          1
                                   No pseudopotential on this center.
   17          1
                                   No pseudopotential on this center.
   18          1
                                   No pseudopotential on this center.
   19          1
                                   No pseudopotential on this center.
   20          1
                                   No pseudopotential on this center.
   21          1
                                   No pseudopotential on this center.
 ======================================================================================================
 Ernie: Thresh=  0.10000D-02 Tol=  0.10000D-05 Strict=F.
 There are   375 symmetry adapted cartesian basis functions of A   symmetry.
 There are   355 symmetry adapted basis functions of A   symmetry.
   355 basis functions,   586 primitive gaussians,   375 cartesian basis functions
    53 alpha electrons       53 beta electrons
       nuclear repulsion energy       817.7213221896 Hartrees.
 IExCor=  402 DFT=T Ex+Corr=B3LYP ExCW=0 ScaHFX=  0.200000
 ScaDFX=  0.800000  0.720000  1.000000  0.810000 ScalE2=  1.000000  1.000000
 IRadAn=      5 IRanWt=     -1 IRanGd=            0 ICorTp=0 IEmpDi=  4
 NAtoms=   21 NActive=   21 NUniq=   21 SFac= 1.00D+00 NAtFMM=   60 NAOKFM=F Big=F
 Integral buffers will be    131072 words long.
 Raffenetti 2 integral format.
 Two-electron integral symmetry is turned on.
 ------------------------------------------------------------------------------
 Polarizable Continuum Model (PCM)
 =================================
 Model                : PCM.
 Atomic radii         : UFF (Universal Force Field).
 Polarization charges : Total charges.
 Charge compensation  : None.
 Solution method      : On-the-fly selection.
 Cavity type          : Scaled VdW (van der Waals Surface) (Alpha=1.100).
 Cavity algorithm     : GePol (No added spheres)
                        Default sphere list used, NSphG=   21.
                        Lebedev-Laikov grids with approx.  5.0 points / Ang**2.
                        Smoothing algorithm: York/Karplus (Gamma=1.0000).
                        Polarization charges: spherical gaussians, with
                                              point-specific exponents (IZeta= 3).
                        Self-potential: point-specific (ISelfS= 7).
                        Self-field    : sphere-specific E.n sum rule (ISelfD= 2).
 Solvent              : n,n-DiMethylFormamide, Eps=  37.219000 Eps(inf)=   2.046330
 ------------------------------------------------------------------------------
 GePol: Number of generator spheres                  =      21
 GePol: Total number of spheres                      =      21
 GePol: Number of exposed spheres                    =      21 (100.00%)
 GePol: Number of points                             =    1857
 GePol: Average weight of points                     =       0.14
 GePol: Minimum weight of points                     =   0.34D-11
 GePol: Maximum weight of points                     =    0.20577
 GePol: Number of points with low weight             =     106
 GePol: Fraction of low-weight points (<1% of avg)   =       5.71%
 GePol: Cavity surface area                          =    254.882 Ang**2
 GePol: Cavity volume                                =    268.209 Ang**3
 Leave Link  301 at Mon Jan 22 18:29:40 2024, MaxMem=  4026531840 cpu:               1.0 elap:               0.2
 (Enter /sysapps/ubuntu-applications/gaussian/Gaussian/SSE_4/g16/l302.exe)
 NPDir=0 NMtPBC=     1 NCelOv=     1 NCel=       1 NClECP=     1 NCelD=      1
         NCelK=      1 NCelE2=     1 NClLst=     1 CellRange=     0.0.
 One-electron integrals computed using PRISM.
 One-electron integral symmetry used in STVInt
   1 Symmetry operations used in ECPInt.
 ECPInt:  NShTT=    8128 NPrTT=   28463 LenC2=    7697 LenP2D=   19644.
 LDataN:  DoStor=T MaxTD1= 7 Len=  274
 NBasis=   355 RedAO= T EigKep=  1.48D-06  NBF=   355
 NBsUse=   355 1.00D-06 EigRej= -1.00D+00 NBFU=   355
 Precomputing XC quadrature grid using
 IXCGrd= 4 IRadAn=           5 IRanWt=          -1 IRanGd=           0 AccXCQ= 0.00D+00.
 Defaulting to unpruned grid for atomic number  53.
 Generated NRdTot=       0 NPtTot=           0 NUsed=           0 NTot=          32
 NSgBfM=   374   374   374   374   374 MxSgAt=    21 MxSgA2=    21.
 Leave Link  302 at Mon Jan 22 18:29:42 2024, MaxMem=  4026531840 cpu:               9.0 elap:               1.3
 (Enter /sysapps/ubuntu-applications/gaussian/Gaussian/SSE_4/g16/l303.exe)
 DipDrv:  MaxL=1.
 Leave Link  303 at Mon Jan 22 18:29:42 2024, MaxMem=  4026531840 cpu:               1.3 elap:               0.2
 (Enter /sysapps/ubuntu-applications/gaussian/Gaussian/SSE_4/g16/l401.exe)
 ExpMin= 3.60D-02 ExpMax= 8.59D+03 ExpMxC= 1.30D+03 IAcc=3 IRadAn=         5 AccDes= 0.00D+00
 Harris functional with IExCor=  402 and IRadAn=       5 diagonalized for initial guess.
 HarFok:  IExCor=  402 AccDes= 0.00D+00 IRadAn=         5 IDoV= 1 UseB2=F ITyADJ=14
 ICtDFT=  3500011 ScaDFX=  1.000000  1.000000  1.000000  1.000000
 Defaulting to unpruned grid for atomic number  53.
 FoFCou: FMM=F IPFlag=           0 FMFlag=      100000 FMFlg1=           0
         NFxFlg=           0 DoJE=T BraDBF=F KetDBF=T FulRan=T
         wScrn=  0.000000 ICntrl=       500 IOpCl=  0 I1Cent=   200000004 NGrid=           0
         NMat0=    1 NMatS0=      1 NMatT0=    0 NMatD0=    1 NMtDS0=    0 NMtDT0=    0
 Petite list used in FoFCou.
 Harris En= -797.219493003839    
 JPrj=0 DoOrth=F DoCkMO=F.
 Initial guess <Sx>= 0.0000 <Sy>= 0.0000 <Sz>= 0.0000 <S**2>=-0.0000 S=-0.0000
 Leave Link  401 at Mon Jan 22 18:29:45 2024, MaxMem=  4026531840 cpu:              22.3 elap:               2.8
 (Enter /sysapps/ubuntu-applications/gaussian/Gaussian/SSE_4/g16/l502.exe)
 Integral symmetry usage will be decided dynamically.
 UHF open shell SCF:
 Using DIIS extrapolation, IDIIS=  1040.
 NGot=  4026531840 LenX=  4026244035 LenY=  4026102969
 Requested convergence on RMS density matrix=1.00D-08 within 128 cycles.
 Requested convergence on MAX density matrix=1.00D-06.
 Requested convergence on             energy=1.00D-06.
 No special actions if energy rises.
 Fock matrices will be formed incrementally for  20 cycles.

 Cycle   1  Pass 1  IDiag  1:
 FoFJK:  IHMeth= 1 ICntrl=       0 DoSepK=F KAlg= 0 I1Cent=           0 FoldK=F
 IRaf= 910000000 NMat=       1 IRICut=       1 DoRegI=T DoRafI=F ISym2E= 0 IDoP0=0 IntGTp=1.
 FoFCou: FMM=F IPFlag=           0 FMFlag=      100000 FMFlg1=           0
         NFxFlg=           0 DoJE=F BraDBF=F KetDBF=F FulRan=T
         wScrn=  0.000000 ICntrl=         0 IOpCl=  1 I1Cent=           0 NGrid=           0
         NMat0=    1 NMatS0=      1 NMatT0=    0 NMatD0=    1 NMtDS0=    0 NMtDT0=    0
 Symmetry not used in FoFCou.
 Defaulting to unpruned grid for atomic number  53.
 Defaulting to unpruned grid for atomic number  53.
 Defaulting to unpruned grid for atomic number  53.
 Defaulting to unpruned grid for atomic number  53.
 Defaulting to unpruned grid for atomic number  53.
 Defaulting to unpruned grid for atomic number  53.
 Defaulting to unpruned grid for atomic number  53.
 Defaulting to unpruned grid for atomic number  53.
 Inv3:  Mode=1 IEnd=    10345347.
 Iteration    1 A*A^-1 deviation from unit magnitude is 7.33D-15 for    211.
 Iteration    1 A*A^-1 deviation from orthogonality  is 2.79D-15 for   1414    932.
 Iteration    1 A^-1*A deviation from unit magnitude is 6.88D-15 for    692.
 Iteration    1 A^-1*A deviation from orthogonality  is 2.16D-15 for   1834   1726.
 E= -796.436465945394    
 DIIS: error= 3.01D-02 at cycle   1 NSaved=   1.
 NSaved= 1 IEnMin= 1 EnMin= -796.436465945394     IErMin= 1 ErrMin= 3.01D-02
 ErrMax= 3.01D-02  0.00D+00 EMaxC= 1.00D-01 BMatC= 2.48D+00 BMatP= 2.48D+00
 IDIUse=3 WtCom= 6.99D-01 WtEn= 3.01D-01
 Coeff-Com:  0.100D+01
 Coeff-En:   0.100D+01
 Coeff:      0.100D+01
 Gap=     0.345 Goal=   None    Shift=    0.000
 Gap=     0.345 Goal=   None    Shift=    0.000
 GapD=    0.345 DampG=1.000 DampE=0.500 DampFc=0.5000 IDamp=-1.
 Damping current iteration by 5.00D-01
 RMSDP=4.36D+00 MaxDP=5.04D+02              OVMax= 9.64D-01

 Cycle   2  Pass 1  IDiag  1:
 RMSU=  2.11D+00    CP:  3.00D+00
 E= -796.173188998809     Delta-E=        0.263276946586 Rises=F Damp=T
 DIIS: error= 2.62D-02 at cycle   2 NSaved=   2.
 NSaved= 2 IEnMin= 1 EnMin= -796.436465945394     IErMin= 2 ErrMin= 2.62D-02
 ErrMax= 2.62D-02  0.00D+00 EMaxC= 1.00D-01 BMatC= 9.13D-01 BMatP= 2.48D+00
 IDIUse=3 WtCom= 7.38D-01 WtEn= 2.62D-01
 Coeff-Com:  0.347D+00 0.653D+00
 Coeff-En:   0.632D+00 0.368D+00
 Coeff:      0.422D+00 0.578D+00
 Gap=    -0.010 Goal=   None    Shift=    0.000
 Gap=    -0.010 Goal=   None    Shift=    0.000
 RMSDP=2.18D+00 MaxDP=2.52D+02 DE= 2.63D-01 OVMax= 9.38D-01

 Cycle   3  Pass 1  IDiag  1:
 RMSU=  1.26D-02    CP:  7.92D-01  6.96D-04
 E= -796.872550268703     Delta-E=       -0.699361269894 Rises=F Damp=F
 DIIS: error= 1.76D-02 at cycle   3 NSaved=   3.
 NSaved= 3 IEnMin= 3 EnMin= -796.872550268703     IErMin= 3 ErrMin= 1.76D-02
 ErrMax= 1.76D-02  0.00D+00 EMaxC= 1.00D-01 BMatC= 5.96D-01 BMatP= 9.13D-01
 IDIUse=3 WtCom= 8.24D-01 WtEn= 1.76D-01
 Coeff-Com:  0.151D+00 0.436D+00 0.413D+00
 Coeff-En:   0.000D+00 0.000D+00 0.100D+01
 Coeff:      0.125D+00 0.359D+00 0.517D+00
 Gap=     0.108 Goal=   None    Shift=    0.000
 Gap=     0.108 Goal=   None    Shift=    0.000
 RMSDP=1.02D-02 MaxDP=9.30D-01 DE=-6.99D-01 OVMax= 1.10D-01

 Cycle   4  Pass 1  IDiag  1:
 RMSU=  7.86D-03    CP:  8.88D-01  1.32D-03  1.11D+00
 E= -796.981185309117     Delta-E=       -0.108635040414 Rises=F Damp=F
 DIIS: error= 5.74D-03 at cycle   4 NSaved=   4.
 NSaved= 4 IEnMin= 4 EnMin= -796.981185309117     IErMin= 4 ErrMin= 5.74D-03
 ErrMax= 5.74D-03  0.00D+00 EMaxC= 1.00D-01 BMatC= 8.81D-02 BMatP= 5.96D-01
 IDIUse=3 WtCom= 9.43D-01 WtEn= 5.74D-02
 Coeff-Com: -0.224D-01 0.128D+00 0.274D+00 0.620D+00
 Coeff-En:   0.000D+00 0.000D+00 0.113D+00 0.887D+00
 Coeff:     -0.212D-01 0.120D+00 0.265D+00 0.636D+00
 Gap=     0.109 Goal=   None    Shift=    0.000
 Gap=     0.109 Goal=   None    Shift=    0.000
 RMSDP=8.28D-03 MaxDP=8.76D-01 DE=-1.09D-01 OVMax= 5.19D-02

 Cycle   5  Pass 1  IDiag  1:
 RMSU=  3.52D-03    CP:  7.76D-01  7.22D-04  1.18D+00  8.58D-01
 E= -797.001145498054     Delta-E=       -0.019960188936 Rises=F Damp=F
 DIIS: error= 3.58D-03 at cycle   5 NSaved=   5.
 NSaved= 5 IEnMin= 5 EnMin= -797.001145498054     IErMin= 5 ErrMin= 3.58D-03
 ErrMax= 3.58D-03  0.00D+00 EMaxC= 1.00D-01 BMatC= 1.88D-02 BMatP= 8.81D-02
 IDIUse=3 WtCom= 9.64D-01 WtEn= 3.58D-02
 Coeff-Com: -0.309D-01 0.533D-01 0.101D+00 0.386D+00 0.491D+00
 Coeff-En:   0.000D+00 0.000D+00 0.000D+00 0.913D-01 0.909D+00
 Coeff:     -0.298D-01 0.514D-01 0.971D-01 0.375D+00 0.506D+00
 Gap=     0.107 Goal=   None    Shift=    0.000
 Gap=     0.107 Goal=   None    Shift=    0.000
 RMSDP=1.95D-03 MaxDP=1.84D-01 DE=-2.00D-02 OVMax= 2.43D-02

 Cycle   6  Pass 1  IDiag  1:
 RMSU=  1.32D-03    CP:  7.90D-01  8.83D-04  1.23D+00  9.51D-01  8.93D-01
 E= -797.004943807838     Delta-E=       -0.003798309784 Rises=F Damp=F
 DIIS: error= 8.19D-04 at cycle   6 NSaved=   6.
 NSaved= 6 IEnMin= 6 EnMin= -797.004943807838     IErMin= 6 ErrMin= 8.19D-04
 ErrMax= 8.19D-04  0.00D+00 EMaxC= 1.00D-01 BMatC= 1.72D-03 BMatP= 1.88D-02
 IDIUse=3 WtCom= 9.92D-01 WtEn= 8.19D-03
 Coeff-Com: -0.115D-01 0.106D-01-0.546D-02 0.814D-01 0.282D+00 0.643D+00
 Coeff-En:   0.000D+00 0.000D+00 0.000D+00 0.000D+00 0.319D-01 0.968D+00
 Coeff:     -0.114D-01 0.105D-01-0.542D-02 0.807D-01 0.279D+00 0.646D+00
 Gap=     0.109 Goal=   None    Shift=    0.000
 Gap=     0.109 Goal=   None    Shift=    0.000
 RMSDP=6.38D-04 MaxDP=5.04D-02 DE=-3.80D-03 OVMax= 1.07D-02

 Cycle   7  Pass 1  IDiag  1:
 RMSU=  4.60D-04    CP:  7.89D-01  7.73D-04  1.23D+00  9.81D-01  9.69D-01
                    CP:  9.21D-01
 E= -797.005299404019     Delta-E=       -0.000355596182 Rises=F Damp=F
 DIIS: error= 3.84D-04 at cycle   7 NSaved=   7.
 NSaved= 7 IEnMin= 7 EnMin= -797.005299404019     IErMin= 7 ErrMin= 3.84D-04
 ErrMax= 3.84D-04  0.00D+00 EMaxC= 1.00D-01 BMatC= 3.86D-04 BMatP= 1.72D-03
 IDIUse=3 WtCom= 9.96D-01 WtEn= 3.84D-03
 Coeff-Com: -0.334D-02 0.135D-02-0.148D-01 0.745D-02 0.119D+00 0.417D+00
 Coeff-Com:  0.473D+00
 Coeff-En:   0.000D+00 0.000D+00 0.000D+00 0.000D+00 0.000D+00 0.169D+00
 Coeff-En:   0.831D+00
 Coeff:     -0.333D-02 0.135D-02-0.147D-01 0.742D-02 0.119D+00 0.416D+00
 Coeff:      0.474D+00
 Gap=     0.108 Goal=   None    Shift=    0.000
 Gap=     0.108 Goal=   None    Shift=    0.000
 RMSDP=2.39D-04 MaxDP=1.84D-02 DE=-3.56D-04 OVMax= 6.06D-03

 Cycle   8  Pass 1  IDiag  1:
 RMSU=  1.61D-04    CP:  7.89D-01  8.17D-04  1.23D+00  9.87D-01  9.95D-01
                    CP:  9.90D-01  8.75D-01
 E= -797.005401079838     Delta-E=       -0.000101675819 Rises=F Damp=F
 DIIS: error= 8.48D-05 at cycle   8 NSaved=   8.
 NSaved= 8 IEnMin= 8 EnMin= -797.005401079838     IErMin= 8 ErrMin= 8.48D-05
 ErrMax= 8.48D-05  0.00D+00 EMaxC= 1.00D-01 BMatC= 1.73D-05 BMatP= 3.86D-04
 IDIUse=1 WtCom= 1.00D+00 WtEn= 0.00D+00
 Coeff-Com: -0.885D-04-0.137D-03-0.531D-02-0.516D-02 0.245D-01 0.115D+00
 Coeff-Com:  0.223D+00 0.648D+00
 Coeff:     -0.885D-04-0.137D-03-0.531D-02-0.516D-02 0.245D-01 0.115D+00
 Coeff:      0.223D+00 0.648D+00
 Gap=     0.109 Goal=   None    Shift=    0.000
 Gap=     0.109 Goal=   None    Shift=    0.000
 RMSDP=5.98D-05 MaxDP=5.64D-03 DE=-1.02D-04 OVMax= 8.45D-04

 Cycle   9  Pass 1  IDiag  1:
 RMSU=  4.38D-05    CP:  7.90D-01  8.10D-04  1.23D+00  9.85D-01  9.93D-01
                    CP:  9.99D-01  9.28D-01  9.28D-01
 E= -797.005404743285     Delta-E=       -0.000003663447 Rises=F Damp=F
 DIIS: error= 3.15D-05 at cycle   9 NSaved=   9.
 NSaved= 9 IEnMin= 9 EnMin= -797.005404743285     IErMin= 9 ErrMin= 3.15D-05
 ErrMax= 3.15D-05  0.00D+00 EMaxC= 1.00D-01 BMatC= 2.53D-06 BMatP= 1.73D-05
 IDIUse=1 WtCom= 1.00D+00 WtEn= 0.00D+00
 Coeff-Com:  0.169D-03-0.177D-03-0.179D-02-0.301D-02 0.637D-02 0.340D-01
 Coeff-Com:  0.949D-01 0.358D+00 0.511D+00
 Coeff:      0.169D-03-0.177D-03-0.179D-02-0.301D-02 0.637D-02 0.340D-01
 Coeff:      0.949D-01 0.358D+00 0.511D+00
 Gap=     0.109 Goal=   None    Shift=    0.000
 Gap=     0.109 Goal=   None    Shift=    0.000
 RMSDP=2.03D-05 MaxDP=2.01D-03 DE=-3.66D-06 OVMax= 4.28D-04

 Cycle  10  Pass 1  IDiag  1:
 RMSU=  1.34D-05    CP:  7.89D-01  8.11D-04  1.23D+00  9.84D-01  9.93D-01
                    CP:  1.00D+00  9.34D-01  9.59D-01  9.04D-01
 E= -797.005405288912     Delta-E=       -0.000000545627 Rises=F Damp=F
 DIIS: error= 1.08D-05 at cycle  10 NSaved=  10.
 NSaved=10 IEnMin=10 EnMin= -797.005405288912     IErMin=10 ErrMin= 1.08D-05
 ErrMax= 1.08D-05  0.00D+00 EMaxC= 1.00D-01 BMatC= 3.00D-07 BMatP= 2.53D-06
 IDIUse=1 WtCom= 1.00D+00 WtEn= 0.00D+00
 Coeff-Com:  0.875D-04-0.112D-03-0.244D-03-0.798D-03 0.844D-03 0.316D-02
 Coeff-Com:  0.234D-01 0.952D-01 0.280D+00 0.598D+00
 Coeff:      0.875D-04-0.112D-03-0.244D-03-0.798D-03 0.844D-03 0.316D-02
 Coeff:      0.234D-01 0.952D-01 0.280D+00 0.598D+00
 Gap=     0.109 Goal=   None    Shift=    0.000
 Gap=     0.109 Goal=   None    Shift=    0.000
 RMSDP=9.99D-06 MaxDP=1.01D-03 DE=-5.46D-07 OVMax= 1.16D-04

 Cycle  11  Pass 1  IDiag  1:
 RMSU=  5.33D-06    CP:  7.89D-01  8.11D-04  1.23D+00  9.84D-01  9.94D-01
                    CP:  1.00D+00  9.38D-01  9.81D-01  9.99D-01  8.55D-01
 E= -797.005405361684     Delta-E=       -0.000000072772 Rises=F Damp=F
 DIIS: error= 3.33D-06 at cycle  11 NSaved=  11.
 NSaved=11 IEnMin=11 EnMin= -797.005405361684     IErMin=11 ErrMin= 3.33D-06
 ErrMax= 3.33D-06  0.00D+00 EMaxC= 1.00D-01 BMatC= 3.89D-08 BMatP= 3.00D-07
 IDIUse=1 WtCom= 1.00D+00 WtEn= 0.00D+00
 Coeff-Com:  0.234D-04-0.395D-04 0.154D-03 0.787D-04-0.276D-03-0.317D-02
 Coeff-Com: -0.755D-03-0.727D-02 0.805D-01 0.317D+00 0.614D+00
 Coeff:      0.234D-04-0.395D-04 0.154D-03 0.787D-04-0.276D-03-0.317D-02
 Coeff:     -0.755D-03-0.727D-02 0.805D-01 0.317D+00 0.614D+00
 Gap=     0.109 Goal=   None    Shift=    0.000
 Gap=     0.109 Goal=   None    Shift=    0.000
 RMSDP=4.32D-06 MaxDP=5.56D-04 DE=-7.28D-08 OVMax= 5.09D-05

 Cycle  12  Pass 1  IDiag  1:
 RMSU=  2.31D-06    CP:  7.89D-01  8.11D-04  1.23D+00  9.83D-01  9.93D-01
                    CP:  1.00D+00  9.41D-01  9.79D-01  1.05D+00  9.00D-01
                    CP:  1.00D+00
 E= -797.005405371187     Delta-E=       -0.000000009503 Rises=F Damp=F
 DIIS: error= 1.37D-06 at cycle  12 NSaved=  12.
 NSaved=12 IEnMin=12 EnMin= -797.005405371187     IErMin=12 ErrMin= 1.37D-06
 ErrMax= 1.37D-06  0.00D+00 EMaxC= 1.00D-01 BMatC= 3.80D-09 BMatP= 3.89D-08
 IDIUse=1 WtCom= 1.00D+00 WtEn= 0.00D+00
 Coeff-Com:  0.335D-05-0.120D-04 0.101D-03 0.127D-03-0.164D-03-0.162D-02
 Coeff-Com: -0.221D-02-0.142D-01 0.702D-02 0.657D-01 0.273D+00 0.672D+00
 Coeff:      0.335D-05-0.120D-04 0.101D-03 0.127D-03-0.164D-03-0.162D-02
 Coeff:     -0.221D-02-0.142D-01 0.702D-02 0.657D-01 0.273D+00 0.672D+00
 Gap=     0.109 Goal=   None    Shift=    0.000
 Gap=     0.109 Goal=   None    Shift=    0.000
 RMSDP=1.68D-06 MaxDP=2.00D-04 DE=-9.50D-09 OVMax= 1.31D-05

 Cycle  13  Pass 1  IDiag  1:
 RMSU=  7.16D-07    CP:  7.89D-01  8.11D-04  1.23D+00  9.83D-01  9.93D-01
                    CP:  1.00D+00  9.42D-01  9.81D-01  1.08D+00  9.03D-01
                    CP:  1.05D+00  1.07D+00
 E= -797.005405372074     Delta-E=       -0.000000000886 Rises=F Damp=F
 DIIS: error= 4.49D-07 at cycle  13 NSaved=  13.
 NSaved=13 IEnMin=13 EnMin= -797.005405372074     IErMin=13 ErrMin= 4.49D-07
 ErrMax= 4.49D-07  0.00D+00 EMaxC= 1.00D-01 BMatC= 5.96D-10 BMatP= 3.80D-09
 IDIUse=1 WtCom= 1.00D+00 WtEn= 0.00D+00
 Coeff-Com:  0.964D-06-0.338D-05 0.423D-04 0.543D-04-0.576D-04-0.577D-03
 Coeff-Com: -0.933D-03-0.665D-02-0.397D-02-0.240D-02 0.769D-01 0.340D+00
 Coeff-Com:  0.598D+00
 Coeff:      0.964D-06-0.338D-05 0.423D-04 0.543D-04-0.576D-04-0.577D-03
 Coeff:     -0.933D-03-0.665D-02-0.397D-02-0.240D-02 0.769D-01 0.340D+00
 Coeff:      0.598D+00
 Gap=     0.109 Goal=   None    Shift=    0.000
 Gap=     0.109 Goal=   None    Shift=    0.000
 RMSDP=7.02D-07 MaxDP=6.87D-05 DE=-8.86D-10 OVMax= 6.20D-06

 Cycle  14  Pass 1  IDiag  1:
 RMSU=  3.17D-07    CP:  7.89D-01  8.11D-04  1.23D+00  9.83D-01  9.93D-01
                    CP:  1.00D+00  9.41D-01  9.81D-01  1.08D+00  8.99D-01
                    CP:  1.11D+00  1.12D+00  7.42D-01
 E= -797.005405372214     Delta-E=       -0.000000000141 Rises=F Damp=F
 DIIS: error= 2.37D-07 at cycle  14 NSaved=  14.
 NSaved=14 IEnMin=14 EnMin= -797.005405372214     IErMin=14 ErrMin= 2.37D-07
 ErrMax= 2.37D-07  0.00D+00 EMaxC= 1.00D-01 BMatC= 1.31D-10 BMatP= 5.96D-10
 IDIUse=1 WtCom= 1.00D+00 WtEn= 0.00D+00
 Coeff-Com:  0.255D-06-0.328D-06 0.976D-05 0.122D-04 0.162D-05-0.779D-04
 Coeff-Com: -0.132D-03-0.177D-02-0.363D-02-0.143D-01 0.329D-03 0.972D-01
 Coeff-Com:  0.379D+00 0.544D+00
 Coeff:      0.255D-06-0.328D-06 0.976D-05 0.122D-04 0.162D-05-0.779D-04
 Coeff:     -0.132D-03-0.177D-02-0.363D-02-0.143D-01 0.329D-03 0.972D-01
 Coeff:      0.379D+00 0.544D+00
 Gap=     0.109 Goal=   None    Shift=    0.000
 Gap=     0.109 Goal=   None    Shift=    0.000
 RMSDP=2.74D-07 MaxDP=3.00D-05 DE=-1.41D-10 OVMax= 2.61D-06

 Cycle  15  Pass 1  IDiag  1:
 RMSU=  1.33D-07    CP:  7.89D-01  8.11D-04  1.23D+00  9.83D-01  9.93D-01
                    CP:  1.00D+00  9.42D-01  9.81D-01  1.08D+00  9.03D-01
                    CP:  1.10D+00  1.13D+00  9.11D-01  6.33D-01
 E= -797.005405372231     Delta-E=       -0.000000000016 Rises=F Damp=F
 DIIS: error= 1.12D-07 at cycle  15 NSaved=  15.
 NSaved=15 IEnMin=15 EnMin= -797.005405372231     IErMin=15 ErrMin= 1.12D-07
 ErrMax= 1.12D-07  0.00D+00 EMaxC= 1.00D-01 BMatC= 1.81D-11 BMatP= 1.31D-10
 IDIUse=1 WtCom= 1.00D+00 WtEn= 0.00D+00
 Coeff-Com:  0.136D-06 0.123D-06 0.593D-06 0.403D-06 0.117D-04 0.233D-04
 Coeff-Com:  0.656D-04-0.188D-03-0.129D-02-0.760D-02-0.813D-02 0.128D-01
 Coeff-Com:  0.144D+00 0.339D+00 0.521D+00
 Coeff:      0.136D-06 0.123D-06 0.593D-06 0.403D-06 0.117D-04 0.233D-04
 Coeff:      0.656D-04-0.188D-03-0.129D-02-0.760D-02-0.813D-02 0.128D-01
 Coeff:      0.144D+00 0.339D+00 0.521D+00
 Gap=     0.109 Goal=   None    Shift=    0.000
 Gap=     0.109 Goal=   None    Shift=    0.000
 RMSDP=9.56D-08 MaxDP=1.16D-05 DE=-1.61D-11 OVMax= 1.02D-06

 Cycle  16  Pass 1  IDiag  1:
 RMSU=  3.21D-08    CP:  7.89D-01  8.11D-04  1.23D+00  9.83D-01  9.93D-01
                    CP:  1.00D+00  9.42D-01  9.81D-01  1.08D+00  9.02D-01
                    CP:  1.10D+00  1.14D+00  8.74D-01  7.08D-01  8.94D-01
 E= -797.005405372237     Delta-E=       -0.000000000007 Rises=F Damp=F
 DIIS: error= 1.81D-08 at cycle  16 NSaved=  16.
 NSaved=16 IEnMin=16 EnMin= -797.005405372237     IErMin=16 ErrMin= 1.81D-08
 ErrMax= 1.81D-08  0.00D+00 EMaxC= 1.00D-01 BMatC= 7.49D-13 BMatP= 1.81D-11
 IDIUse=1 WtCom= 1.00D+00 WtEn= 0.00D+00
 Coeff-Com:  0.657D-08 0.135D-06-0.604D-06-0.725D-06 0.506D-05 0.131D-04
 Coeff-Com:  0.377D-04 0.354D-04-0.263D-03-0.219D-02-0.348D-02-0.351D-02
 Coeff-Com:  0.264D-01 0.901D-01 0.211D+00 0.682D+00
 Coeff:      0.657D-08 0.135D-06-0.604D-06-0.725D-06 0.506D-05 0.131D-04
 Coeff:      0.377D-04 0.354D-04-0.263D-03-0.219D-02-0.348D-02-0.351D-02
 Coeff:      0.264D-01 0.901D-01 0.211D+00 0.682D+00
 Gap=     0.109 Goal=   None    Shift=    0.000
 Gap=     0.109 Goal=   None    Shift=    0.000
 RMSDP=2.48D-08 MaxDP=1.88D-06 DE=-6.82D-12 OVMax= 1.80D-07

 Cycle  17  Pass 1  IDiag  1:
 RMSU=  6.55D-09    CP:  7.89D-01  8.11D-04  1.23D+00  9.83D-01  9.93D-01
                    CP:  1.00D+00  9.42D-01  9.80D-01  1.08D+00  9.02D-01
                    CP:  1.10D+00  1.14D+00  8.86D-01  7.10D-01  9.77D-01
                    CP:  1.07D+00
 E= -797.005405372243     Delta-E=       -0.000000000005 Rises=F Damp=F
 DIIS: error= 4.80D-09 at cycle  17 NSaved=  17.
 NSaved=17 IEnMin=17 EnMin= -797.005405372243     IErMin=17 ErrMin= 4.80D-09
 ErrMax= 4.80D-09  0.00D+00 EMaxC= 1.00D-01 BMatC= 1.19D-13 BMatP= 7.49D-13
 IDIUse=1 WtCom= 1.00D+00 WtEn= 0.00D+00
 Coeff-Com: -0.262D-07 0.611D-07-0.397D-06-0.417D-06 0.977D-06 0.228D-05
 Coeff-Com:  0.125D-04 0.437D-04 0.765D-04-0.496D-04-0.466D-03-0.344D-02
 Coeff-Com: -0.658D-02-0.177D-02 0.352D-01 0.343D+00 0.634D+00
 Coeff:     -0.262D-07 0.611D-07-0.397D-06-0.417D-06 0.977D-06 0.228D-05
 Coeff:      0.125D-04 0.437D-04 0.765D-04-0.496D-04-0.466D-03-0.344D-02
 Coeff:     -0.658D-02-0.177D-02 0.352D-01 0.343D+00 0.634D+00
 Gap=     0.109 Goal=   None    Shift=    0.000
 Gap=     0.109 Goal=   None    Shift=    0.000
 RMSDP=7.52D-09 MaxDP=6.98D-07 DE=-5.23D-12 OVMax= 8.34D-08

 Error on total polarization charges =  0.03337
 SCF Done:  E(UB3LYP) =  -797.005405372     A.U. after   17 cycles
            NFock= 17  Conv=0.75D-08     -V/T= 2.3056
 <Sx>= 0.0000 <Sy>= 0.0000 <Sz>= 0.0000 <S**2>=-0.0000 S=-0.0000
 <L.S>= 0.000000000000E+00
 KE= 6.104687343404D+02 PE=-3.464122742200D+03 EE= 1.238927280298D+03
 Annihilation of the first spin contaminant:
 S**2 before annihilation    -0.0000,   after    -0.0000
 Leave Link  502 at Mon Jan 22 18:33:24 2024, MaxMem=  4026531840 cpu:            1746.2 elap:             218.7
 (Enter /sysapps/ubuntu-applications/gaussian/Gaussian/SSE_4/g16/l601.exe)
 Copying SCF densities to generalized density rwf, IOpCl= 1 IROHF=0.

 **********************************************************************

            Population analysis using the SCF density.

 **********************************************************************

 Orbital symmetries:
 Alpha Orbitals:
       Occupied  (A) (A) (A) (A) (A) (A) (A) (A) (A) (A) (A) (A)
                 (A) (A) (A) (A) (A) (A) (A) (A) (A) (A) (A) (A)
                 (A) (A) (A) (A) (A) (A) (A) (A) (A) (A) (A) (A)
                 (A) (A) (A) (A) (A) (A) (A) (A) (A) (A) (A) (A)
                 (A) (A) (A) (A) (A)
       Virtual   (A) (A) (A) (A) (A) (A) (A) (A) (A) (A) (A) (A)
                 (A) (A) (A) (A) (A) (A) (A) (A) (A) (A) (A) (A)
                 (A) (A) (A) (A) (A) (A) (A) (A) (A) (A) (A) (A)
                 (A) (A) (A) (A) (A) (A) (A) (A) (A) (A) (A) (A)
                 (A) (A) (A) (A) (A) (A) (A) (A) (A) (A) (A) (A)
                 (A) (A) (A) (A) (A) (A) (A) (A) (A) (A) (A) (A)
                 (A) (A) (A) (A) (A) (A) (A) (A) (A) (A) (A) (A)
                 (A) (A) (A) (A) (A) (A) (A) (A) (A) (A) (A) (A)
                 (A) (A) (A) (A) (A) (A) (A) (A) (A) (A) (A) (A)
                 (A) (A) (A) (A) (A) (A) (A) (A) (A) (A) (A) (A)
                 (A) (A) (A) (A) (A) (A) (A) (A) (A) (A) (A) (A)
                 (A) (A) (A) (A) (A) (A) (A) (A) (A) (A) (A) (A)
                 (A) (A) (A) (A) (A) (A) (A) (A) (A) (A) (A) (A)
                 (A) (A) (A) (A) (A) (A) (A) (A) (A) (A) (A) (A)
                 (A) (A) (A) (A) (A) (A) (A) (A) (A) (A) (A) (A)
                 (A) (A) (A) (A) (A) (A) (A) (A) (A) (A) (A) (A)
                 (A) (A) (A) (A) (A) (A) (A) (A) (A) (A) (A) (A)
                 (A) (A) (A) (A) (A) (A) (A) (A) (A) (A) (A) (A)
                 (A) (A) (A) (A) (A) (A) (A) (A) (A) (A) (A) (A)
                 (A) (A) (A) (A) (A) (A) (A) (A) (A) (A) (A) (A)
                 (A) (A) (A) (A) (A) (A) (A) (A) (A) (A) (A) (A)
                 (A) (A) (A) (A) (A) (A) (A) (A) (A) (A) (A) (A)
                 (A) (A) (A) (A) (A) (A) (A) (A) (A) (A) (A) (A)
                 (A) (A) (A) (A) (A) (A) (A) (A) (A) (A) (A) (A)
                 (A) (A) (A) (A) (A) (A) (A) (A) (A) (A) (A) (A)
                 (A) (A)
 Beta  Orbitals:
       Occupied  (A) (A) (A) (A) (A) (A) (A) (A) (A) (A) (A) (A)
                 (A) (A) (A) (A) (A) (A) (A) (A) (A) (A) (A) (A)
                 (A) (A) (A) (A) (A) (A) (A) (A) (A) (A) (A) (A)
                 (A) (A) (A) (A) (A) (A) (A) (A) (A) (A) (A) (A)
                 (A) (A) (A) (A) (A)
       Virtual   (A) (A) (A) (A) (A) (A) (A) (A) (A) (A) (A) (A)
                 (A) (A) (A) (A) (A) (A) (A) (A) (A) (A) (A) (A)
                 (A) (A) (A) (A) (A) (A) (A) (A) (A) (A) (A) (A)
                 (A) (A) (A) (A) (A) (A) (A) (A) (A) (A) (A) (A)
                 (A) (A) (A) (A) (A) (A) (A) (A) (A) (A) (A) (A)
                 (A) (A) (A) (A) (A) (A) (A) (A) (A) (A) (A) (A)
                 (A) (A) (A) (A) (A) (A) (A) (A) (A) (A) (A) (A)
                 (A) (A) (A) (A) (A) (A) (A) (A) (A) (A) (A) (A)
                 (A) (A) (A) (A) (A) (A) (A) (A) (A) (A) (A) (A)
                 (A) (A) (A) (A) (A) (A) (A) (A) (A) (A) (A) (A)
                 (A) (A) (A) (A) (A) (A) (A) (A) (A) (A) (A) (A)
                 (A) (A) (A) (A) (A) (A) (A) (A) (A) (A) (A) (A)
                 (A) (A) (A) (A) (A) (A) (A) (A) (A) (A) (A) (A)
                 (A) (A) (A) (A) (A) (A) (A) (A) (A) (A) (A) (A)
                 (A) (A) (A) (A) (A) (A) (A) (A) (A) (A) (A) (A)
                 (A) (A) (A) (A) (A) (A) (A) (A) (A) (A) (A) (A)
                 (A) (A) (A) (A) (A) (A) (A) (A) (A) (A) (A) (A)
                 (A) (A) (A) (A) (A) (A) (A) (A) (A) (A) (A) (A)
                 (A) (A) (A) (A) (A) (A) (A) (A) (A) (A) (A) (A)
                 (A) (A) (A) (A) (A) (A) (A) (A) (A) (A) (A) (A)
                 (A) (A) (A) (A) (A) (A) (A) (A) (A) (A) (A) (A)
                 (A) (A) (A) (A) (A) (A) (A) (A) (A) (A) (A) (A)
                 (A) (A) (A) (A) (A) (A) (A) (A) (A) (A) (A) (A)
                 (A) (A) (A) (A) (A) (A) (A) (A) (A) (A) (A) (A)
                 (A) (A) (A) (A) (A) (A) (A) (A) (A) (A) (A) (A)
                 (A) (A)
 The electronic state is 1-A.
 Alpha  occ. eigenvalues --  -19.01550 -19.01425 -10.17409 -10.17062 -10.16748
 Alpha  occ. eigenvalues --  -10.15208 -10.14301 -10.13935 -10.13383 -10.12527
 Alpha  occ. eigenvalues --  -10.11972  -6.81254  -4.83516  -4.82631  -4.82589
 Alpha  occ. eigenvalues --   -1.88335  -1.88047  -1.88017  -1.87253  -1.87252
 Alpha  occ. eigenvalues --   -0.93344  -0.92638  -0.79578  -0.76665  -0.70370
 Alpha  occ. eigenvalues --   -0.66715  -0.66172  -0.63703  -0.58719  -0.51976
 Alpha  occ. eigenvalues --   -0.51447  -0.44621  -0.43220  -0.42308  -0.41388
 Alpha  occ. eigenvalues --   -0.38728  -0.37314  -0.36482  -0.35449  -0.35114
 Alpha  occ. eigenvalues --   -0.34463  -0.32822  -0.32104  -0.31147  -0.30373
 Alpha  occ. eigenvalues --   -0.29263  -0.25991  -0.24140  -0.22221  -0.20469
 Alpha  occ. eigenvalues --   -0.19555  -0.19238  -0.11812
 Alpha virt. eigenvalues --   -0.00938   0.00105   0.01334   0.01750   0.02279
 Alpha virt. eigenvalues --    0.02352   0.03670   0.04306   0.05026   0.05385
 Alpha virt. eigenvalues --    0.06152   0.06617   0.07165   0.07913   0.08339
 Alpha virt. eigenvalues --    0.08987   0.09537   0.10171   0.11079   0.11422
 Alpha virt. eigenvalues --    0.11901   0.12180   0.12700   0.13090   0.13707
 Alpha virt. eigenvalues --    0.14081   0.14361   0.14560   0.14900   0.15514
 Alpha virt. eigenvalues --    0.16173   0.16534   0.16988   0.17290   0.17478
 Alpha virt. eigenvalues --    0.17593   0.18013   0.18665   0.19017   0.19992
 Alpha virt. eigenvalues --    0.20278   0.20435   0.21130   0.21531   0.21942
 Alpha virt. eigenvalues --    0.22482   0.22915   0.23310   0.24826   0.25059
 Alpha virt. eigenvalues --    0.25353   0.26478   0.26733   0.27645   0.28249
 Alpha virt. eigenvalues --    0.28473   0.28870   0.29429   0.30369   0.30923
 Alpha virt. eigenvalues --    0.31832   0.31855   0.32831   0.33247   0.33473
 Alpha virt. eigenvalues --    0.33751   0.34188   0.34875   0.35345   0.36916
 Alpha virt. eigenvalues --    0.37537   0.38151   0.38806   0.39341   0.40833
 Alpha virt. eigenvalues --    0.41394   0.42920   0.43536   0.44814   0.46065
 Alpha virt. eigenvalues --    0.47391   0.47703   0.48589   0.49662   0.51270
 Alpha virt. eigenvalues --    0.53798   0.55438   0.56402   0.58268   0.59774
 Alpha virt. eigenvalues --    0.60856   0.61109   0.61608   0.63644   0.64525
 Alpha virt. eigenvalues --    0.64683   0.65598   0.66339   0.67625   0.68329
 Alpha virt. eigenvalues --    0.69321   0.69590   0.70517   0.71409   0.72238
 Alpha virt. eigenvalues --    0.72939   0.74447   0.75813   0.76056   0.76642
 Alpha virt. eigenvalues --    0.78780   0.79172   0.80203   0.81296   0.82039
 Alpha virt. eigenvalues --    0.83702   0.86083   0.87222   0.88217   0.89590
 Alpha virt. eigenvalues --    0.90185   0.90550   0.91428   0.92894   0.93795
 Alpha virt. eigenvalues --    0.95335   0.96041   0.97443   0.98843   0.99374
 Alpha virt. eigenvalues --    0.99742   1.01552   1.04670   1.06794   1.07769
 Alpha virt. eigenvalues --    1.09460   1.09929   1.13889   1.14435   1.16642
 Alpha virt. eigenvalues --    1.18356   1.19435   1.20864   1.22871   1.25695
 Alpha virt. eigenvalues --    1.25959   1.27548   1.28466   1.30817   1.31251
 Alpha virt. eigenvalues --    1.32253   1.33926   1.35097   1.36869   1.38649
 Alpha virt. eigenvalues --    1.41635   1.42925   1.45597   1.48656   1.48847
 Alpha virt. eigenvalues --    1.49146   1.50017   1.51557   1.52659   1.54733
 Alpha virt. eigenvalues --    1.55327   1.57442   1.59851   1.60251   1.61181
 Alpha virt. eigenvalues --    1.62720   1.63465   1.64036   1.65240   1.66443
 Alpha virt. eigenvalues --    1.66792   1.69207   1.70535   1.71150   1.72847
 Alpha virt. eigenvalues --    1.77164   1.77505   1.81818   1.82297   1.83281
 Alpha virt. eigenvalues --    1.84359   1.85713   1.87903   1.88525   1.89529
 Alpha virt. eigenvalues --    1.91663   1.96565   1.98180   1.99661   2.00466
 Alpha virt. eigenvalues --    2.01195   2.06062   2.08097   2.09034   2.10146
 Alpha virt. eigenvalues --    2.13725   2.16114   2.17661   2.18459   2.23262
 Alpha virt. eigenvalues --    2.26530   2.29558   2.30440   2.30923   2.33681
 Alpha virt. eigenvalues --    2.38578   2.40589   2.49128   2.49984   2.52602
 Alpha virt. eigenvalues --    2.53434   2.55115   2.55992   2.57137   2.60727
 Alpha virt. eigenvalues --    2.62603   2.65872   2.66731   2.67977   2.70758
 Alpha virt. eigenvalues --    2.72601   2.74981   2.76280   2.77712   2.79088
 Alpha virt. eigenvalues --    2.80245   2.83172   2.85406   2.87686   2.91850
 Alpha virt. eigenvalues --    2.93253   2.93349   2.97085   2.97541   3.00798
 Alpha virt. eigenvalues --    3.02670   3.03502   3.03805   3.07569   3.08204
 Alpha virt. eigenvalues --    3.08893   3.09262   3.11934   3.12776   3.13886
 Alpha virt. eigenvalues --    3.17244   3.19420   3.22543   3.23787   3.26879
 Alpha virt. eigenvalues --    3.28988   3.33305   3.35771   3.38004   3.42361
 Alpha virt. eigenvalues --    3.45426   3.50377   3.54510   3.59010   3.62711
 Alpha virt. eigenvalues --    3.72856   3.76711   3.79320   3.81620   3.85114
 Alpha virt. eigenvalues --    3.86378   3.94851   4.07735   4.16697   4.21660
 Alpha virt. eigenvalues --    4.29427   4.31471   4.39095   4.44813   4.82892
 Alpha virt. eigenvalues --    5.14177   5.16618   5.28436   5.33660   5.76638
 Alpha virt. eigenvalues --    5.85170  23.62869  23.86371  23.90336  23.97731
 Alpha virt. eigenvalues --   23.98854  24.00307  24.01663  24.11406  24.16478
 Alpha virt. eigenvalues --   34.54147  34.60769  34.73102  42.85228  50.08122
 Alpha virt. eigenvalues --   50.12604 117.85937
  Beta  occ. eigenvalues --  -19.01550 -19.01425 -10.17409 -10.17062 -10.16748
  Beta  occ. eigenvalues --  -10.15208 -10.14301 -10.13935 -10.13383 -10.12527
  Beta  occ. eigenvalues --  -10.11972  -6.81254  -4.83516  -4.82631  -4.82589
  Beta  occ. eigenvalues --   -1.88335  -1.88047  -1.88017  -1.87253  -1.87252
  Beta  occ. eigenvalues --   -0.93344  -0.92638  -0.79578  -0.76665  -0.70370
  Beta  occ. eigenvalues --   -0.66715  -0.66172  -0.63703  -0.58719  -0.51976
  Beta  occ. eigenvalues --   -0.51447  -0.44621  -0.43220  -0.42308  -0.41388
  Beta  occ. eigenvalues --   -0.38728  -0.37314  -0.36482  -0.35449  -0.35114
  Beta  occ. eigenvalues --   -0.34463  -0.32822  -0.32104  -0.31147  -0.30373
  Beta  occ. eigenvalues --   -0.29263  -0.25991  -0.24140  -0.22221  -0.20469
  Beta  occ. eigenvalues --   -0.19555  -0.19238  -0.11812
  Beta virt. eigenvalues --   -0.00938   0.00105   0.01334   0.01750   0.02279
  Beta virt. eigenvalues --    0.02352   0.03670   0.04306   0.05026   0.05385
  Beta virt. eigenvalues --    0.06152   0.06617   0.07165   0.07913   0.08339
  Beta virt. eigenvalues --    0.08987   0.09537   0.10171   0.11079   0.11422
  Beta virt. eigenvalues --    0.11901   0.12180   0.12700   0.13090   0.13707
  Beta virt. eigenvalues --    0.14081   0.14361   0.14560   0.14900   0.15514
  Beta virt. eigenvalues --    0.16173   0.16534   0.16988   0.17290   0.17478
  Beta virt. eigenvalues --    0.17593   0.18013   0.18665   0.19017   0.19992
  Beta virt. eigenvalues --    0.20278   0.20435   0.21130   0.21531   0.21942
  Beta virt. eigenvalues --    0.22482   0.22915   0.23310   0.24826   0.25059
  Beta virt. eigenvalues --    0.25353   0.26478   0.26733   0.27645   0.28249
  Beta virt. eigenvalues --    0.28473   0.28870   0.29429   0.30369   0.30923
  Beta virt. eigenvalues --    0.31832   0.31855   0.32831   0.33247   0.33473
  Beta virt. eigenvalues --    0.33751   0.34188   0.34875   0.35345   0.36916
  Beta virt. eigenvalues --    0.37537   0.38151   0.38806   0.39341   0.40833
  Beta virt. eigenvalues --    0.41394   0.42920   0.43536   0.44814   0.46065
  Beta virt. eigenvalues --    0.47391   0.47703   0.48589   0.49662   0.51270
  Beta virt. eigenvalues --    0.53798   0.55438   0.56402   0.58268   0.59774
  Beta virt. eigenvalues --    0.60856   0.61109   0.61608   0.63644   0.64525
  Beta virt. eigenvalues --    0.64683   0.65598   0.66339   0.67625   0.68329
  Beta virt. eigenvalues --    0.69321   0.69590   0.70517   0.71409   0.72238
  Beta virt. eigenvalues --    0.72939   0.74447   0.75813   0.76056   0.76642
  Beta virt. eigenvalues --    0.78780   0.79172   0.80203   0.81296   0.82039
  Beta virt. eigenvalues --    0.83702   0.86083   0.87222   0.88217   0.89590
  Beta virt. eigenvalues --    0.90185   0.90550   0.91428   0.92894   0.93795
  Beta virt. eigenvalues --    0.95335   0.96041   0.97443   0.98843   0.99374
  Beta virt. eigenvalues --    0.99742   1.01552   1.04670   1.06794   1.07769
  Beta virt. eigenvalues --    1.09460   1.09929   1.13889   1.14435   1.16642
  Beta virt. eigenvalues --    1.18356   1.19435   1.20864   1.22871   1.25695
  Beta virt. eigenvalues --    1.25959   1.27548   1.28466   1.30817   1.31251
  Beta virt. eigenvalues --    1.32253   1.33926   1.35097   1.36869   1.38649
  Beta virt. eigenvalues --    1.41635   1.42925   1.45597   1.48656   1.48847
  Beta virt. eigenvalues --    1.49146   1.50017   1.51557   1.52659   1.54733
  Beta virt. eigenvalues --    1.55327   1.57442   1.59851   1.60251   1.61181
  Beta virt. eigenvalues --    1.62720   1.63465   1.64036   1.65240   1.66443
  Beta virt. eigenvalues --    1.66792   1.69207   1.70535   1.71150   1.72847
  Beta virt. eigenvalues --    1.77164   1.77505   1.81818   1.82297   1.83281
  Beta virt. eigenvalues --    1.84359   1.85713   1.87903   1.88525   1.89529
  Beta virt. eigenvalues --    1.91663   1.96565   1.98180   1.99661   2.00466
  Beta virt. eigenvalues --    2.01195   2.06062   2.08097   2.09034   2.10146
  Beta virt. eigenvalues --    2.13725   2.16114   2.17661   2.18459   2.23262
  Beta virt. eigenvalues --    2.26530   2.29558   2.30440   2.30923   2.33681
  Beta virt. eigenvalues --    2.38578   2.40589   2.49128   2.49984   2.52602
  Beta virt. eigenvalues --    2.53434   2.55115   2.55992   2.57137   2.60727
  Beta virt. eigenvalues --    2.62603   2.65872   2.66731   2.67977   2.70758
  Beta virt. eigenvalues --    2.72601   2.74981   2.76280   2.77712   2.79088
  Beta virt. eigenvalues --    2.80245   2.83172   2.85406   2.87686   2.91850
  Beta virt. eigenvalues --    2.93253   2.93349   2.97085   2.97541   3.00798
  Beta virt. eigenvalues --    3.02670   3.03502   3.03805   3.07569   3.08204
  Beta virt. eigenvalues --    3.08893   3.09262   3.11934   3.12776   3.13886
  Beta virt. eigenvalues --    3.17244   3.19420   3.22543   3.23787   3.26879
  Beta virt. eigenvalues --    3.28988   3.33305   3.35771   3.38004   3.42361
  Beta virt. eigenvalues --    3.45426   3.50377   3.54510   3.59010   3.62711
  Beta virt. eigenvalues --    3.72856   3.76711   3.79320   3.81620   3.85114
  Beta virt. eigenvalues --    3.86378   3.94851   4.07735   4.16697   4.21660
  Beta virt. eigenvalues --    4.29427   4.31471   4.39095   4.44813   4.82892
  Beta virt. eigenvalues --    5.14177   5.16618   5.28436   5.33660   5.76638
  Beta virt. eigenvalues --    5.85170  23.62869  23.86371  23.90336  23.97731
  Beta virt. eigenvalues --   23.98854  24.00307  24.01663  24.11406  24.16478
  Beta virt. eigenvalues --   34.54147  34.60769  34.73102  42.85228  50.08122
  Beta virt. eigenvalues --   50.12604 117.85937
          Condensed to atoms (all electrons):
               1          2          3          4          5          6
     1  C   22.245412  -2.267211  -1.315415  -1.825890  -1.190039  -9.415117
     2  C   -2.267211  16.602340  -4.458759   1.824688  -2.148932  -1.501779
     3  C   -1.315415  -4.458759  17.889881  -2.059799  -3.591932  -0.051894
     4  C   -1.825890   1.824688  -2.059799   8.490125  -1.751231   1.713402
     5  C   -1.190039  -2.148932  -3.591932  -1.751231  16.065875  -1.949636
     6  C   -9.415117  -1.501779  -0.051894   1.713402  -1.949636  18.066617
     7  O    0.697069  -0.184985  -0.084580   0.032846  -0.126549  -0.254414
     8  O   -0.035327   0.022358  -0.269679   0.470584  -0.258180   0.013166
     9  H   -0.001402   0.061993  -0.086834  -0.045818   0.503539  -0.138834
    10  I    0.402674   0.049218   0.032463  -0.090434   0.291672  -0.579090
    11  C    0.719461  -3.149536  -0.291690  -0.190494   0.296428  -1.254997
    12  C   -0.049539   0.225163   0.029130   0.069212   0.000955  -0.009937
    13  C    0.021250   0.210456   0.117683  -0.034083   0.008525   0.050877
    14  H    0.055128  -0.115700   0.515810  -0.115350  -0.050896  -0.017963
    15  H    0.132965  -0.334942   0.063184  -0.018570   0.010386  -0.017750
    16  H    0.009140  -0.085125   0.028722  -0.006702  -0.000524  -0.017074
    17  H    0.136071  -0.073103  -0.019726  -0.009096   0.001239  -0.061965
    18  H   -0.022055  -0.035494   0.020632   0.005158   0.002887   0.020963
    19  H    0.027913  -0.033436  -0.080702   0.003741   0.008608   0.006210
    20  H    0.020236   0.042968  -0.032159  -0.004667   0.001339  -0.007123
    21  H   -0.018008  -0.024191   0.029580   0.002753   0.002738  -0.000031
               7          8          9         10         11         12
     1  C    0.697069  -0.035327  -0.001402   0.402674   0.719461  -0.049539
     2  C   -0.184985   0.022358   0.061993   0.049218  -3.149536   0.225163
     3  C   -0.084580  -0.269679  -0.086834   0.032463  -0.291690   0.029130
     4  C    0.032846   0.470584  -0.045818  -0.090434  -0.190494   0.069212
     5  C   -0.126549  -0.258180   0.503539   0.291672   0.296428   0.000955
     6  C   -0.254414   0.013166  -0.138834  -0.579090  -1.254997  -0.009937
     7  O    8.650687  -0.000107   0.001841  -0.030355  -0.074469  -0.060145
     8  O   -0.000107   8.779700  -0.001731  -0.001794   0.005445   0.002682
     9  H    0.001841  -0.001731   0.585533   0.012319   0.003076  -0.000694
    10  I   -0.030355  -0.001794   0.012319  25.185184   0.011805  -0.001048
    11  C   -0.074469   0.005445   0.003076   0.011805   9.965136  -0.046163
    12  C   -0.060145   0.002682  -0.000694  -0.001048  -0.046163   5.623152
    13  C    0.027635   0.000336   0.001187  -0.001207  -0.602236  -0.132333
    14  H   -0.002859  -0.004656  -0.006829   0.001307  -0.016770   0.005540
    15  H   -0.008568  -0.000535   0.000136   0.001447   0.582981  -0.080112
    16  H    0.001438  -0.000321  -0.000028  -0.000069   0.027877   0.381644
    17  H    0.023343  -0.001181  -0.000400   0.002907  -0.071970   0.403297
    18  H   -0.002210   0.000278   0.000049  -0.000142   0.015623   0.356702
    19  H    0.000483   0.001452   0.000081  -0.000053   0.057063  -0.015320
    20  H   -0.000258   0.000210   0.000010   0.000006  -0.105930   0.004782
    21  H    0.000015   0.000361   0.000062   0.000036  -0.043203   0.005132
              13         14         15         16         17         18
     1  C    0.021250   0.055128   0.132965   0.009140   0.136071  -0.022055
     2  C    0.210456  -0.115700  -0.334942  -0.085125  -0.073103  -0.035494
     3  C    0.117683   0.515810   0.063184   0.028722  -0.019726   0.020632
     4  C   -0.034083  -0.115350  -0.018570  -0.006702  -0.009096   0.005158
     5  C    0.008525  -0.050896   0.010386  -0.000524   0.001239   0.002887
     6  C    0.050877  -0.017963  -0.017750  -0.017074  -0.061965   0.020963
     7  O    0.027635  -0.002859  -0.008568   0.001438   0.023343  -0.002210
     8  O    0.000336  -0.004656  -0.000535  -0.000321  -0.001181   0.000278
     9  H    0.001187  -0.006829   0.000136  -0.000028  -0.000400   0.000049
    10  I   -0.001207   0.001307   0.001447  -0.000069   0.002907  -0.000142
    11  C   -0.602236  -0.016770   0.582981   0.027877  -0.071970   0.015623
    12  C   -0.132333   0.005540  -0.080112   0.381644   0.403297   0.356702
    13  C    5.748713  -0.005981  -0.102764   0.002566   0.029760  -0.020430
    14  H   -0.005981   0.631675   0.003429   0.001021   0.001607  -0.001460
    15  H   -0.102764   0.003429   0.651504   0.008895  -0.054009   0.018303
    16  H    0.002566   0.001021   0.008895   0.579586  -0.030714  -0.040872
    17  H    0.029760   0.001607  -0.054009  -0.030714   0.604144  -0.052440
    18  H   -0.020430  -0.001460   0.018303  -0.040872  -0.052440   0.621715
    19  H    0.375184  -0.000420   0.016065   0.008046  -0.007706   0.008222
    20  H    0.431300   0.001456  -0.027416   0.001733   0.009456  -0.011067
    21  H    0.429954  -0.003371  -0.012537  -0.000935   0.000105  -0.001040
              19         20         21
     1  C    0.027913   0.020236  -0.018008
     2  C   -0.033436   0.042968  -0.024191
     3  C   -0.080702  -0.032159   0.029580
     4  C    0.003741  -0.004667   0.002753
     5  C    0.008608   0.001339   0.002738
     6  C    0.006210  -0.007123  -0.000031
     7  O    0.000483  -0.000258   0.000015
     8  O    0.001452   0.000210   0.000361
     9  H    0.000081   0.000010   0.000062
    10  I   -0.000053   0.000006   0.000036
    11  C    0.057063  -0.105930  -0.043203
    12  C   -0.015320   0.004782   0.005132
    13  C    0.375184   0.431300   0.429954
    14  H   -0.000420   0.001456  -0.003371
    15  H    0.016065  -0.027416  -0.012537
    16  H    0.008046   0.001733  -0.000935
    17  H   -0.007706   0.009456   0.000105
    18  H    0.008222  -0.011067  -0.001040
    19  H    0.576353  -0.040708  -0.043745
    20  H   -0.040708   0.578210  -0.016007
    21  H   -0.043745  -0.016007   0.564110
          Atomic-Atomic Spin Densities.
               1          2          3          4          5          6
     1  C    0.000000  -0.000000   0.000000  -0.000000   0.000000  -0.000000
     2  C   -0.000000   0.000000  -0.000000   0.000000   0.000000   0.000000
     3  C    0.000000  -0.000000   0.000000  -0.000000  -0.000000  -0.000000
     4  C   -0.000000   0.000000  -0.000000   0.000000   0.000000   0.000000
     5  C    0.000000   0.000000  -0.000000   0.000000  -0.000000  -0.000000
     6  C   -0.000000   0.000000  -0.000000   0.000000  -0.000000   0.000000
     7  O   -0.000000   0.000000  -0.000000   0.000000   0.000000   0.000000
     8  O    0.000000   0.000000  -0.000000  -0.000000  -0.000000   0.000000
     9  H   -0.000000   0.000000  -0.000000   0.000000   0.000000  -0.000000
    10  I    0.000000  -0.000000   0.000000  -0.000000  -0.000000  -0.000000
    11  C    0.000000  -0.000000  -0.000000  -0.000000   0.000000  -0.000000
    12  C   -0.000000   0.000000  -0.000000   0.000000   0.000000   0.000000
    13  C    0.000000  -0.000000   0.000000  -0.000000   0.000000  -0.000000
    14  H    0.000000  -0.000000   0.000000  -0.000000  -0.000000  -0.000000
    15  H    0.000000  -0.000000   0.000000  -0.000000  -0.000000  -0.000000
    16  H    0.000000  -0.000000   0.000000  -0.000000  -0.000000  -0.000000
    17  H    0.000000  -0.000000   0.000000  -0.000000   0.000000  -0.000000
    18  H    0.000000   0.000000  -0.000000   0.000000   0.000000   0.000000
    19  H    0.000000   0.000000  -0.000000  -0.000000   0.000000   0.000000
    20  H    0.000000  -0.000000  -0.000000  -0.000000   0.000000  -0.000000
    21  H   -0.000000   0.000000  -0.000000   0.000000  -0.000000   0.000000
               7          8          9         10         11         12
     1  C   -0.000000   0.000000  -0.000000   0.000000   0.000000  -0.000000
     2  C    0.000000   0.000000   0.000000  -0.000000  -0.000000   0.000000
     3  C   -0.000000  -0.000000  -0.000000   0.000000  -0.000000  -0.000000
     4  C    0.000000  -0.000000   0.000000  -0.000000  -0.000000   0.000000
     5  C    0.000000  -0.000000   0.000000  -0.000000   0.000000   0.000000
     6  C    0.000000   0.000000  -0.000000  -0.000000  -0.000000   0.000000
     7  O    0.000000  -0.000000   0.000000  -0.000000  -0.000000   0.000000
     8  O   -0.000000  -0.000000  -0.000000  -0.000000   0.000000   0.000000
     9  H    0.000000  -0.000000  -0.000000   0.000000   0.000000   0.000000
    10  I   -0.000000  -0.000000   0.000000   0.000000   0.000000  -0.000000
    11  C   -0.000000   0.000000   0.000000   0.000000  -0.000000  -0.000000
    12  C    0.000000   0.000000   0.000000  -0.000000  -0.000000   0.000000
    13  C   -0.000000  -0.000000  -0.000000   0.000000   0.000000  -0.000000
    14  H   -0.000000  -0.000000  -0.000000   0.000000   0.000000  -0.000000
    15  H   -0.000000  -0.000000  -0.000000   0.000000   0.000000  -0.000000
    16  H   -0.000000  -0.000000  -0.000000  -0.000000   0.000000  -0.000000
    17  H   -0.000000   0.000000   0.000000   0.000000   0.000000  -0.000000
    18  H    0.000000   0.000000   0.000000  -0.000000  -0.000000   0.000000
    19  H    0.000000   0.000000   0.000000  -0.000000  -0.000000  -0.000000
    20  H   -0.000000  -0.000000   0.000000   0.000000   0.000000  -0.000000
    21  H    0.000000   0.000000   0.000000  -0.000000  -0.000000   0.000000
              13         14         15         16         17         18
     1  C    0.000000   0.000000   0.000000   0.000000   0.000000   0.000000
     2  C   -0.000000  -0.000000  -0.000000  -0.000000  -0.000000   0.000000
     3  C    0.000000   0.000000   0.000000   0.000000   0.000000  -0.000000
     4  C   -0.000000  -0.000000  -0.000000  -0.000000  -0.000000   0.000000
     5  C    0.000000  -0.000000  -0.000000  -0.000000   0.000000   0.000000
     6  C   -0.000000  -0.000000  -0.000000  -0.000000  -0.000000   0.000000
     7  O   -0.000000  -0.000000  -0.000000  -0.000000  -0.000000   0.000000
     8  O   -0.000000  -0.000000  -0.000000  -0.000000   0.000000   0.000000
     9  H   -0.000000  -0.000000  -0.000000  -0.000000   0.000000   0.000000
    10  I    0.000000   0.000000   0.000000  -0.000000   0.000000  -0.000000
    11  C    0.000000   0.000000   0.000000   0.000000   0.000000  -0.000000
    12  C   -0.000000  -0.000000  -0.000000  -0.000000  -0.000000   0.000000
    13  C   -0.000000   0.000000   0.000000   0.000000   0.000000  -0.000000
    14  H    0.000000   0.000000   0.000000   0.000000   0.000000  -0.000000
    15  H    0.000000   0.000000  -0.000000  -0.000000   0.000000  -0.000000
    16  H    0.000000   0.000000  -0.000000  -0.000000   0.000000   0.000000
    17  H    0.000000   0.000000   0.000000   0.000000   0.000000   0.000000
    18  H   -0.000000  -0.000000  -0.000000   0.000000   0.000000  -0.000000
    19  H    0.000000   0.000000  -0.000000  -0.000000  -0.000000   0.000000
    20  H   -0.000000  -0.000000   0.000000   0.000000   0.000000  -0.000000
    21  H    0.000000  -0.000000  -0.000000  -0.000000  -0.000000   0.000000
              19         20         21
     1  C    0.000000   0.000000  -0.000000
     2  C    0.000000  -0.000000   0.000000
     3  C   -0.000000  -0.000000  -0.000000
     4  C   -0.000000  -0.000000   0.000000
     5  C    0.000000   0.000000  -0.000000
     6  C    0.000000  -0.000000   0.000000
     7  O    0.000000  -0.000000   0.000000
     8  O    0.000000  -0.000000   0.000000
     9  H    0.000000   0.000000   0.000000
    10  I   -0.000000   0.000000  -0.000000
    11  C   -0.000000   0.000000  -0.000000
    12  C   -0.000000  -0.000000   0.000000
    13  C    0.000000  -0.000000   0.000000
    14  H    0.000000  -0.000000  -0.000000
    15  H   -0.000000   0.000000  -0.000000
    16  H   -0.000000   0.000000  -0.000000
    17  H   -0.000000   0.000000  -0.000000
    18  H    0.000000  -0.000000   0.000000
    19  H   -0.000000   0.000000  -0.000000
    20  H    0.000000  -0.000000  -0.000000
    21  H   -0.000000  -0.000000   0.000000
 Mulliken charges and spin densities:
               1          2
     1  C   -2.327317   0.000000
     2  C    1.374007  -0.000000
     3  C   -0.383915   0.000000
     4  C   -0.460376  -0.000000
     5  C   -0.126273   0.000000
     6  C    1.406369  -0.000000
     7  O   -0.605858  -0.000000
     8  O   -0.723060  -0.000000
     9  H    0.112743   0.000000
    10  I   -0.286847   0.000000
    11  C    0.162563   0.000000
    12  C   -0.712099  -0.000000
    13  C   -0.556393   0.000000
    14  H    0.125281  -0.000000
    15  H    0.167905  -0.000000
    16  H    0.131697   0.000000
    17  H    0.170382   0.000000
    18  H    0.116675  -0.000000
    19  H    0.132667   0.000000
    20  H    0.153629   0.000000
    21  H    0.128219  -0.000000
 Sum of Mulliken charges =  -2.00000  -0.00000
 Mulliken charges and spin densities with hydrogens summed into heavy atoms:
               1          2
     1  C   -2.327317   0.000000
     2  C    1.374007  -0.000000
     3  C   -0.258634   0.000000
     4  C   -0.460376  -0.000000
     5  C   -0.013530   0.000000
     6  C    1.406369  -0.000000
     7  O   -0.605858  -0.000000
     8  O   -0.723060  -0.000000
    10  I   -0.286847   0.000000
    11  C    0.330468   0.000000
    12  C   -0.293345  -0.000000
    13  C   -0.141878   0.000000
 Electronic spatial extent (au):  <R**2>=           3338.1117
 Charge=             -2.0000 electrons
 Dipole moment (field-independent basis, Debye):
    X=              3.7230    Y=             -7.5484    Z=             -0.1810  Tot=              8.4185
 Quadrupole moment (field-independent basis, Debye-Ang):
   XX=           -122.1498   YY=           -166.9668   ZZ=           -104.3878
   XY=             18.1557   XZ=              1.5192   YZ=             -3.8599
 Traceless Quadrupole moment (field-independent basis, Debye-Ang):
   XX=              9.0184   YY=            -35.7987   ZZ=             26.7803
   XY=             18.1557   XZ=              1.5192   YZ=             -3.8599
 Octapole moment (field-independent basis, Debye-Ang**2):
  XXX=            154.5592  YYY=           -184.2536  ZZZ=             -3.3188  XYY=            121.4384
  XXY=            -34.6321  XXZ=             -2.3578  XZZ=             49.1988  YZZ=             -9.9981
  YYZ=             -9.8198  XYZ=              1.7896
 Hexadecapole moment (field-independent basis, Debye-Ang**3):
 XXXX=          -3550.9353 YYYY=          -2277.1260 ZZZZ=           -264.5846 XXXY=            -14.2830
 XXXZ=             -4.0888 YYYX=            227.4516 YYYZ=            -44.1080 ZZZX=              3.0011
 ZZZY=              1.0167 XXYY=           -927.4331 XXZZ=           -638.8883 YYZZ=           -311.2356
 XXYZ=              5.4018 YYXZ=             21.8046 ZZXY=            -13.4478
 N-N= 8.177213221896D+02 E-N=-3.464122742675D+03  KE= 6.104687343404D+02
                          Isotropic Fermi Contact Couplings
        Atom                 a.u.       MegaHertz       Gauss      10(-4) cm-1
     1  C(13)             -0.00000      -0.00000      -0.00000      -0.00000
     2  C(13)             -0.00000      -0.00000      -0.00000      -0.00000
     3  C(13)             -0.00000      -0.00000      -0.00000      -0.00000
     4  C(13)              0.00000       0.00000       0.00000       0.00000
     5  C(13)              0.00000       0.00000       0.00000       0.00000
     6  C(13)             -0.00000      -0.00000      -0.00000      -0.00000
     7  O(17)              0.00000      -0.00000      -0.00000      -0.00000
     8  O(17)              0.00000      -0.00000      -0.00000      -0.00000
     9  H(1)              -0.00000      -0.00000      -0.00000      -0.00000
    10  I(127)             0.00000       0.00000       0.00000       0.00000
    11  C(13)              0.00000       0.00000       0.00000       0.00000
    12  C(13)             -0.00000      -0.00000      -0.00000      -0.00000
    13  C(13)              0.00000       0.00000       0.00000       0.00000
    14  H(1)              -0.00000      -0.00000      -0.00000      -0.00000
    15  H(1)              -0.00000      -0.00000      -0.00000      -0.00000
    16  H(1)               0.00000       0.00000       0.00000       0.00000
    17  H(1)              -0.00000      -0.00000      -0.00000      -0.00000
    18  H(1)               0.00000       0.00000       0.00000       0.00000
    19  H(1)              -0.00000      -0.00000      -0.00000      -0.00000
    20  H(1)              -0.00000      -0.00000      -0.00000      -0.00000
    21  H(1)              -0.00000      -0.00000      -0.00000      -0.00000
 --------------------------------------------------------
       Center         ----  Spin Dipole Couplings  ----
                      3XX-RR        3YY-RR        3ZZ-RR
 --------------------------------------------------------
     1   Atom        0.000000     -0.000000      0.000000
     2   Atom       -0.000000      0.000000      0.000000
     3   Atom        0.000000      0.000000     -0.000000
     4   Atom        0.000000     -0.000000     -0.000000
     5   Atom       -0.000000      0.000000      0.000000
     6   Atom        0.000000      0.000000     -0.000000
     7   Atom       -0.000000      0.000000      0.000000
     8   Atom       -0.000000      0.000000      0.000000
     9   Atom       -0.000000      0.000000      0.000000
    10   Atom        0.000000     -0.000000     -0.000000
    11   Atom        0.000000     -0.000000      0.000000
    12   Atom        0.000000     -0.000000      0.000000
    13   Atom       -0.000000      0.000000      0.000000
    14   Atom       -0.000000      0.000000      0.000000
    15   Atom       -0.000000      0.000000      0.000000
    16   Atom        0.000000     -0.000000     -0.000000
    17   Atom       -0.000000      0.000000      0.000000
    18   Atom       -0.000000     -0.000000      0.000000
    19   Atom        0.000000     -0.000000     -0.000000
    20   Atom       -0.000000     -0.000000      0.000000
    21   Atom       -0.000000      0.000000     -0.000000
 --------------------------------------------------------
                        XY            XZ            YZ
 --------------------------------------------------------
     1   Atom       -0.000000     -0.000000     -0.000000
     2   Atom       -0.000000      0.000000     -0.000000
     3   Atom       -0.000000     -0.000000      0.000000
     4   Atom       -0.000000      0.000000     -0.000000
     5   Atom        0.000000      0.000000      0.000000
     6   Atom       -0.000000     -0.000000      0.000000
     7   Atom        0.000000     -0.000000     -0.000000
     8   Atom       -0.000000     -0.000000     -0.000000
     9   Atom       -0.000000     -0.000000     -0.000000
    10   Atom       -0.000000      0.000000     -0.000000
    11   Atom       -0.000000     -0.000000     -0.000000
    12   Atom        0.000000      0.000000      0.000000
    13   Atom        0.000000      0.000000     -0.000000
    14   Atom        0.000000      0.000000      0.000000
    15   Atom        0.000000      0.000000     -0.000000
    16   Atom       -0.000000     -0.000000      0.000000
    17   Atom        0.000000      0.000000     -0.000000
    18   Atom       -0.000000      0.000000     -0.000000
    19   Atom        0.000000      0.000000     -0.000000
    20   Atom       -0.000000      0.000000     -0.000000
    21   Atom        0.000000      0.000000     -0.000000
 --------------------------------------------------------


 ---------------------------------------------------------------------------------
              Anisotropic Spin Dipole Couplings in Principal Axis System
 ---------------------------------------------------------------------------------

       Atom             a.u.   MegaHertz   Gauss  10(-4) cm-1        Axes

              Baa    -0.0000    -0.000    -0.000    -0.000  0.5866  0.6766  0.4451
     1 C(13)  Bbb     0.0000     0.000     0.000     0.000 -0.2985  0.6916 -0.6577
              Bcc     0.0000     0.000     0.000     0.000  0.7528 -0.2529 -0.6077
 
              Baa    -0.0000    -0.000    -0.000    -0.000  0.9826  0.0073 -0.1856
     2 C(13)  Bbb     0.0000     0.000     0.000     0.000  0.1054  0.8009  0.5895
              Bcc     0.0000     0.000     0.000     0.000  0.1530 -0.5988  0.7861
 
              Baa    -0.0000    -0.000    -0.000    -0.000  0.7289  0.6481  0.2208
     3 C(13)  Bbb    -0.0000    -0.000    -0.000    -0.000 -0.0769 -0.2430  0.9670
              Bcc     0.0000     0.000     0.000     0.000 -0.6803  0.7218  0.1272
 
              Baa    -0.0000    -0.000    -0.000    -0.000  0.2586  0.9513 -0.1680
     4 C(13)  Bbb    -0.0000    -0.000    -0.000    -0.000 -0.0627  0.1901  0.9798
              Bcc     0.0000     0.000     0.000     0.000  0.9639 -0.2428  0.1088
 
              Baa    -0.0000    -0.000    -0.000    -0.000  0.8946 -0.4369  0.0941
     5 C(13)  Bbb     0.0000     0.000     0.000     0.000  0.3957  0.6764 -0.6212
              Bcc     0.0000     0.000     0.000     0.000  0.2077  0.5929  0.7780
 
              Baa    -0.0000    -0.000    -0.000    -0.000 -0.0075 -0.2221  0.9750
     6 C(13)  Bbb     0.0000     0.000     0.000     0.000  0.4514  0.8693  0.2015
              Bcc     0.0000     0.000     0.000     0.000  0.8923 -0.4416 -0.0938
 
              Baa    -0.0000     0.000     0.000     0.000  0.9799 -0.1788  0.0879
     7 O(17)  Bbb    -0.0000     0.000     0.000     0.000  0.0524  0.6568  0.7522
              Bcc     0.0000    -0.000    -0.000    -0.000  0.1923  0.7325 -0.6530
 
              Baa    -0.0000     0.000     0.000     0.000  0.8681  0.4263  0.2541
     8 O(17)  Bbb     0.0000    -0.000    -0.000    -0.000 -0.2073  0.7767 -0.5948
              Bcc     0.0000    -0.000    -0.000    -0.000 -0.4510  0.4637  0.7626
 
              Baa    -0.0000    -0.000    -0.000    -0.000  0.8574  0.4691  0.2119
     9 H(1)   Bbb     0.0000     0.000     0.000     0.000 -0.1460 -0.1732  0.9740
              Bcc     0.0000     0.000     0.000     0.000 -0.4936  0.8660  0.0800
 
              Baa    -0.0000    -0.000    -0.000    -0.000  0.1269  0.9757  0.1785
    10 I(127) Bbb    -0.0000    -0.000    -0.000    -0.000 -0.1062 -0.1656  0.9805
              Bcc     0.0000     0.000     0.000     0.000  0.9862 -0.1434  0.0826
 
              Baa    -0.0000    -0.000    -0.000    -0.000  0.1535  0.9661  0.2078
    11 C(13)  Bbb    -0.0000    -0.000    -0.000    -0.000  0.5308 -0.2580  0.8073
              Bcc     0.0000     0.000     0.000     0.000  0.8335 -0.0136 -0.5524
 
              Baa    -0.0000    -0.000    -0.000    -0.000 -0.1979  0.9292 -0.3122
    12 C(13)  Bbb    -0.0000    -0.000    -0.000    -0.000 -0.6983  0.0899  0.7101
              Bcc     0.0000     0.000     0.000     0.000  0.6879  0.3585  0.6311
 
              Baa    -0.0000    -0.000    -0.000    -0.000  0.9472 -0.2364 -0.2164
    13 C(13)  Bbb     0.0000     0.000     0.000     0.000  0.3205  0.6993  0.6390
              Bcc     0.0000     0.000     0.000     0.000  0.0002 -0.6746  0.7382
 
              Baa    -0.0000    -0.000    -0.000    -0.000  0.9402 -0.3405 -0.0123
    14 H(1)   Bbb     0.0000     0.000     0.000     0.000 -0.0137 -0.0738  0.9972
              Bcc     0.0000     0.000     0.000     0.000  0.3404  0.9374  0.0740
 
              Baa    -0.0000    -0.000    -0.000    -0.000  0.6775 -0.4643 -0.5704
    15 H(1)   Bbb     0.0000     0.000     0.000     0.000  0.1189  0.8345 -0.5380
              Bcc     0.0000     0.000     0.000     0.000  0.7258  0.2967  0.6206
 
              Baa    -0.0000    -0.000    -0.000    -0.000 -0.1765 -0.6625  0.7280
    16 H(1)   Bbb    -0.0000    -0.000    -0.000    -0.000  0.5176  0.5666  0.6411
              Bcc     0.0000     0.000     0.000     0.000  0.8372 -0.4900 -0.2429
 
              Baa    -0.0000    -0.000    -0.000    -0.000  0.8926 -0.2434 -0.3795
    17 H(1)   Bbb     0.0000     0.000     0.000     0.000  0.3789 -0.0513  0.9240
              Bcc     0.0000     0.000     0.000     0.000  0.2444  0.9686 -0.0465
 
              Baa    -0.0000    -0.000    -0.000    -0.000 -0.1064  0.8873  0.4488
    18 H(1)   Bbb    -0.0000    -0.000    -0.000    -0.000  0.9329  0.2453 -0.2637
              Bcc     0.0000     0.000     0.000     0.000  0.3440 -0.3906  0.8539
 
              Baa    -0.0000    -0.000    -0.000    -0.000 -0.5193  0.7611  0.3887
    19 H(1)   Bbb    -0.0000    -0.000    -0.000    -0.000  0.3085 -0.2572  0.9158
              Bcc     0.0000     0.000     0.000     0.000  0.7970  0.5955 -0.1012
 
              Baa    -0.0000    -0.000    -0.000    -0.000  0.7496  0.6612 -0.0298
    20 H(1)   Bbb    -0.0000    -0.000    -0.000    -0.000 -0.4459  0.5378  0.7155
              Bcc     0.0000     0.000     0.000     0.000  0.4891 -0.5230  0.6980
 
              Baa    -0.0000    -0.000    -0.000    -0.000  0.8626 -0.2039 -0.4630
    21 H(1)   Bbb     0.0000     0.000     0.000     0.000  0.4480 -0.1177  0.8863
              Bcc     0.0000     0.000     0.000     0.000  0.2352  0.9719  0.0102
 

 ---------------------------------------------------------------------------------

 No NMR shielding tensors so no spin-rotation constants.
 Leave Link  601 at Mon Jan 22 18:33:24 2024, MaxMem=  4026531840 cpu:               4.0 elap:               0.6
 (Enter /sysapps/ubuntu-applications/gaussian/Gaussian/SSE_4/g16/l9999.exe)
 1\1\GINC-ACIDSCN029\SP\UB3LYP\GenECP\C9H9I1O2(2-)\SELHAJJ1\22-Jan-2024
 \0\\#P UB3LYP/genecp SCRF=(PCM,Solvent=n,n-DiMethylFormamide)\\Reduced
 \\-2,1\C,0,-1.321029,2.024772,0.539761\C,0,-2.585691,1.369325,0.246182
 \C,0,-2.663577,0.078269,-0.279052\C,0,-1.530766,-0.744948,-0.589914\C,
 0,-0.274507,-0.114653,-0.295239\C,0,-0.220521,1.170554,0.234567\O,0,-1
 .242729,3.217577,1.019303\O,0,-1.622873,-1.939074,-1.080322\H,0,0.6318
 34,-0.675808,-0.494734\I,0,1.745192,2.021547,0.639763\C,0,-3.824045,2.
 201177,0.551559\C,0,-4.041127,3.2814,-0.530111\C,0,-5.112631,1.393253,
 0.761926\H,0,-3.634841,-0.368125,-0.482331\H,0,-3.600876,2.745155,1.47
 9481\H,0,-4.25923,2.814228,-1.498693\H,0,-3.134757,3.882781,-0.622195\
 H,0,-4.882872,3.945488,-0.272579\H,0,-5.427603,0.884899,-0.156797\H,0,
 -5.934905,2.052371,1.071653\H,0,-4.979326,0.625011,1.530334\\Version=E
 S64L-G16RevA.03\State=1-A\HF=-797.0054054\S2=0.\S2-1=0.\S2A=0.\RMSD=7.
 519e-09\Dipole=1.0841852,2.9398404,1.0732642\Quadrupole=9.6205069,-22.
 9138796,13.2933727,-8.0104959,-4.0154867,-17.0043915\PG=C01 [X(C9H9I1O
 2)]\\@


 BETTER TO HUNT IN FIELDS, FOR HEALTH UNBOUGHT
 THAN FEE THE DOCTOR FOR A NAUSEOUS DRAUGHT.
 THE WISE, FOR CURE, ON EXERCISE DEPEND;
 GOD NEVER MADE HIS WORK FOR MAN TO MEND.
     -- JOHN DRYDEN (1631-1700)
 Job cpu time:       0 days  0 hours 29 minutes 47.2 seconds.
 Elapsed time:       0 days  0 hours  3 minutes 44.5 seconds.
 File lengths (MBytes):  RWF=    178 Int=      0 D2E=      0 Chk=     11 Scr=      1
 Normal termination of Gaussian 16 at Mon Jan 22 18:33:24 2024.
