
Running Job 1 of 1 191-an-CPCM.in
qchem 191-an-CPCM.in_45457.0 /expanse/lustre/scratch/selhajj/temp_project/qcscratch/31251391/qchem45457/ 0
/cm/shared/apps/spack/cpu/opt/spack/linux-centos8-zen2/gcc-10.2.0/qchem-5.4-akfmr7b3t57bfs6qan3padb2wnb2i7cl/exe/qcprog.exe_s 191-an-CPCM.in_45457.0 /expanse/lustre/scratch/selhajj/temp_project/qcscratch/31251391/qchem45457/
                  Welcome to Q-Chem
     A Quantum Leap Into The Future Of Chemistry


 Q-Chem 5.4, Q-Chem, Inc., Pleasanton, CA (2021)

 License issued to: University of California, San Diego (site)

 E. Epifanovsky,  A. T. B. Gilbert,  Xintian Feng,  Joonho Lee,  Yuezhi Mao,  
 N. Mardirossian,  P. Pokhilko,  A. White,  M. Wormit,  M. P. Coons,  
 A. L. Dempwolff,  Zhengting Gan,  D. Hait,  P. R. Horn,  L. D. Jacobson,  
 I. Kaliman,  J. Kussmann,  A. W. Lange,  Ka Un Lao,  D. S. Levine,  Jie Liu,  
 S. C. McKenzie,  A. F. Morrison,  K. Nanda,  F. Plasser,  D. R. Rehn,  
 M. L. Vidal,  Zhi-Qiang You,  Ying Zhu,  B. Alam,  B. Albrecht,  
 A. Aldossary,  E. Alguire,  J. H. Andersen,  D. Barton,  K. Begam,  A. Behn,  
 Y. A. Bernard,  E. J. Berquist,  H. Burton,  A. Carreras,  K. Carter-Fenk,  
 R. Chakraborty,  A. D. Chien,  K. D. Closser,  V. Cofer-Shabica,  
 S. Dasgupta,  Jia Deng,  M. de Wergifosse,  M. Diedenhofen,  Hainam Do,  
 S. Ehlert,  Po-Tung Fang,  S. Fatehi,  Qingguo Feng,  J. Gayvert,  
 Qinghui Ge,  G. Gidofalvi,  M. Goldey,  J. Gomes,  C. Gonzalez-Espinoza,  
 S. Gulania,  A. Gunina,  M. W. D. Hanson-Heine,  P. H. P. Harbach,  
 A. W. Hauser,  M. F. Herbst,  M. Hernandez Vera,  M. Hodecker,  
 Z. C. Holden,  S. Houck,  Xunkun Huang,  Kerwin Hui,  B. C. Huynh,  
 M. Ivanov,  Hyunjun Ji,  Hanjie Jiang,  B. Kaduk,  S. Kaehler,  
 K. Khistyaev,  Jaehoon Kim,  P. Klunzinger,  Z. Koczor-Benda,  
 Joong Hoon Koh,  D. Kosenkov,  L. Koulias,  T. Kowalczyk,  C. M. Krauter,  
 K. Kue,  A. Kunitsa,  T. Kus,  A. Landau,  K. V. Lawler,  D. Lefrancois,  
 S. Lehtola,  Rain Li,  Yi-Pei Li,  Jiashu Liang,  M. Liebenthal,  
 Hung-Hsuan Lin,  You-Sheng Lin,  Fenglai Liu,  Kuan-Yu Liu,  
 M. Loipersberger,  A. Luenser,  A. Manjanath,  P. Manohar,  E. Mansoor,  
 S. F. Manzer,  Shan-Ping Mao,  A. V. Marenich,  T. Markovich,  S. Mason,  
 S. A. Maurer,  P. F. McLaughlin,  M. F. S. J. Menger,  J.-M. Mewes,  
 S. A. Mewes,  P. Morgante,  J. W. Mullinax,  T. S. Nguyen-Beck,  
 K. J. Oosterbaan,  G. Paran,  Alexander C. Paul,  Suranjan K. Paul,  
 F. Pavosevic,  Zheng Pei,  S. Prager,  E. I. Proynov,  E. Ramos,  B. Rana,  
 A. E. Rask,  A. Rettig,  R. M. Richard,  F. Rob,  E. Rossomme,  T. Scheele,  
 M. Scheurer,  M. Schneider,  N. Sergueev,  S. M. Sharada,  W. Skomorowski,  
 D. W. Small,  C. J. Stein,  Yu-Chuan Su,  E. J. Sundstrom,  Zhen Tao,  
 J. Thirman,  T. Tsuchimochi,  N. M. Tubman,  S. P. Veccham,  O. Vydrov,  
 J. Wenzel,  J. Witte,  A. Yamada,  Kun Yao,  S. Yeganeh,  S. R. Yost,  
 A. Zech,  Igor Ying Zhang,  Xing Zhang,  Yu Zhang,  D. Zuev,  
 A. Aspuru-Guzik,  A. T. Bell,  N. A. Besley,  K. B. Bravaya,  B. R. Brooks,  
 D. Casanova,  Jeng-Da Chai,  S. Coriani,  C. J. Cramer,  
 A. E. DePrince, III,  R. A. DiStasio Jr.,  A. Dreuw,  B. D. Dunietz,  
 T. R. Furlani,  W. A. Goddard III,  S. Grimme,  S. Hammes-Schiffer,  
 T. Head-Gordon,  W. J. Hehre,  Chao-Ping Hsu,  T.-C. Jagau,  Yousung Jung,  
 A. Klamt,  Jing Kong,  D. S. Lambrecht,  WanZhen Liang,  N. J. Mayhall,  
 C. W. McCurdy,  J. B. Neaton,  C. Ochsenfeld,  J. A. Parkhill,  R. Peverati,  
 V. A. Rassolov,  Yihan Shao,  L. V. Slipchenko,  T. Stauch,  R. P. Steele,  
 J. E. Subotnik,  A. J. W. Thom,  A. Tkatchenko,  D. G. Truhlar,  
 T. Van Voorhis,  T. A. Wesolowski,  K. B. Whaley,  H. L. Woodcock III,  
 P. M. Zimmerman,  S. Faraji,  P. M. W. Gill,  M. Head-Gordon,  
 J. M. Herbert,  A. I. Krylov

 Contributors to earlier versions of Q-Chem not listed above: 
 R. D. Adamson,  B. Austin,  R. Baer,  J. Baker,  G. J. O. Beran,  
 K. Brandhorst,  S. T. Brown,  E. F. C. Byrd,  A. K. Chakraborty,  
 G. K. L. Chan,  Chun-Min Chang,  Yunqing Chen,  C.-L. Cheng,  
 Siu Hung Chien,  D. M. Chipman,  D. L. Crittenden,  H. Dachsel,  
 R. J. Doerksen,  A. D. Dutoi,  R. G. Edgar,  J. Fosso-Tande,  
 L. Fusti-Molnar,  D. Ghosh,  A. Ghysels,  A. Golubeva-Zadorozhnaya,  
 J. Gonthier,  M. S. Gordon,  S. R. Gwaltney,  G. Hawkins,  J. E. Herr,  
 A. Heyden,  S. Hirata,  E. G. Hohenstein,  G. Kedziora,  F. J. Keil,  
 C. Kelley,  Jihan Kim,  R. A. King,  R. Z. Khaliullin,  P. P. Korambath,  
 W. Kurlancheek,  A. Laurent,  A. M. Lee,  M. S. Lee,  S. V. Levchenko,  
 Ching Yeh Lin,  D. Liotard,  E. Livshits,  R. C. Lochan,  I. Lotan,  
 L. A. Martinez-Martinez,  P. E. Maslen,  N. Nair,  D. P. O'Neill,  
 D. Neuhauser,  E. Neuscamman,  C. M. Oana,  R. Olivares-Amaya,  R. Olson,  
 T. M. Perrine,  B. Peters,  P. A. Pieniazek,  A. Prociuk,  Y. M. Rhee,  
 J. Ritchie,  M. A. Rohrdanz,  E. Rosta,  N. J. Russ,  H. F. Schaefer III,  
 M. W. Schmidt,  N. E. Schultz,  S. Sharma,  N. Shenvi,  C. D. Sherrill,  
 A. C. Simmonett,  A. Sodt,  T. Stein,  D. Stuck,  K. S. Thanthiriwatte,  
 V. Vanovschi,  L. Vogt,  Tao Wang,  A. Warshel,  M. A. Watson,  
 C. F. Williams,  Q. Wu,  X. Xu,  Jun Yang,  W. Zhang,  Yan Zhao

 Please cite Q-Chem as follows:
 Y. Shao et al., Mol. Phys. 113, 184-215 (2015)
 DOI: 10.1080/00268976.2014.952696

 Q-Chem 5.4.0 for Intel X86 EM64T Linux

 Parts of Q-Chem use Armadillo 9.800.1 (Horizon Scraper).
 http://arma.sourceforge.net/

 Q-Chem begins on Tue Jun 11 20:20:37 2024  

 Host: 
0

     Scratch files written to /expanse/lustre/scratch/selhajj/temp_project/qcscratch/31251391/qchem45457//
 May1621 |scratch|qcdevops|jenkins|workspace|build_RNUM    
 Processing $rem in /cm/shared/apps/spack/cpu/opt/spack/linux-centos8-zen2/gcc-10.2.0/qchem-5.4-akfmr7b3t57bfs6qan3padb2wnb2i7cl/config/preferences:
 Processing $rem in /home/selhajj/.qchemrc:
 Symmetry turned off for PCM/SM12/SMD calculation

 Checking the input file for inconsistencies... 	...done.

--------------------------------------------------------------
User input:
--------------------------------------------------------------
$molecule
-2 1
C                  4.8776090000     -2.9403920000     -0.3100800000
C                  5.6399540000     -2.0933220000     -1.0667910000
C                  5.0886180000     -0.8573450000     -1.5220210000
C                  3.5340730000     -2.6266760000      0.0440290000
C                  2.9366950000     -1.3672790000     -0.4054050000
C                  3.7869230000     -0.5157460000     -1.1993270000
C                  2.8158670000     -3.5679170000      0.8343810000
C                  1.4657250000     -3.2401850000      1.1838370000
C                  0.8675190000     -2.0083520000      0.7500460000
C                  1.5859290000     -1.0449510000     -0.0523020000
C                  0.6969860000     -4.1606450000      1.9825800000
C                 -0.6032870000     -3.8540270000      2.3241780000
C                 -0.4968140000     -1.7270890000      1.1303690000
C                 -1.2002430000     -2.6364270000      1.8976400000
O                  3.3606600000     -4.7023970000      1.2364250000
O                  0.9755870000      0.0620680000     -0.4132030000
O                  1.2731830000     -5.3281820000      2.3899630000
H                  5.2623420000     -3.8867940000      0.0529070000
H                  6.6651200000     -2.3472680000     -1.3290840000
H                  5.7026930000     -0.1963610000     -2.1203470000
O                  3.2417430000      0.6761630000     -1.6336030000
H                  2.2312890000     -5.2667850000      1.9825170000
O                 -1.0752550000     -0.5657520000      0.7270710000
H                 -2.2256490000     -2.3989200000      2.1693940000
H                 -1.1648100000     -4.5631920000      2.9275210000
H                 -0.2903350000     -0.1113990000      0.1743260000
C                  4.0271460000      1.5365220000     -2.4067100000
H                  3.3945290000      2.4001720000     -2.6286040000
H                  4.3492050000      1.0760610000     -3.3544550000
H                  4.9272570000      1.8802470000     -1.8722690000
$end
$rem
MAX_SCF_CYCLES=200
BASIS  =  6-311++G(d,p)
GUI  =  2
JOB_TYPE  =  SP
METHOD  =  B3LYP
SOLVENT_METHOD = PCM
$end
$pcm
theory = CPCM
$end
$solvent
dielectric 37.219
opticaldielectric 1.43
$end






--------------------------------------------------------------
 ----------------------------------------------------------------
             Standard Nuclear Orientation (Angstroms)
    I     Atom           X                Y                Z
 ----------------------------------------------------------------
    1      C       4.8776090000    -2.9403920000    -0.3100800000
    2      C       5.6399540000    -2.0933220000    -1.0667910000
    3      C       5.0886180000    -0.8573450000    -1.5220210000
    4      C       3.5340730000    -2.6266760000     0.0440290000
    5      C       2.9366950000    -1.3672790000    -0.4054050000
    6      C       3.7869230000    -0.5157460000    -1.1993270000
    7      C       2.8158670000    -3.5679170000     0.8343810000
    8      C       1.4657250000    -3.2401850000     1.1838370000
    9      C       0.8675190000    -2.0083520000     0.7500460000
   10      C       1.5859290000    -1.0449510000    -0.0523020000
   11      C       0.6969860000    -4.1606450000     1.9825800000
   12      C      -0.6032870000    -3.8540270000     2.3241780000
   13      C      -0.4968140000    -1.7270890000     1.1303690000
   14      C      -1.2002430000    -2.6364270000     1.8976400000
   15      O       3.3606600000    -4.7023970000     1.2364250000
   16      O       0.9755870000     0.0620680000    -0.4132030000
   17      O       1.2731830000    -5.3281820000     2.3899630000
   18      H       5.2623420000    -3.8867940000     0.0529070000
   19      H       6.6651200000    -2.3472680000    -1.3290840000
   20      H       5.7026930000    -0.1963610000    -2.1203470000
   21      O       3.2417430000     0.6761630000    -1.6336030000
   22      H       2.2312890000    -5.2667850000     1.9825170000
   23      O      -1.0752550000    -0.5657520000     0.7270710000
   24      H      -2.2256490000    -2.3989200000     2.1693940000
   25      H      -1.1648100000    -4.5631920000     2.9275210000
   26      H      -0.2903350000    -0.1113990000     0.1743260000
   27      C       4.0271460000     1.5365220000    -2.4067100000
   28      H       3.3945290000     2.4001720000    -2.6286040000
   29      H       4.3492050000     1.0760610000    -3.3544550000
   30      H       4.9272570000     1.8802470000    -1.8722690000
 ----------------------------------------------------------------
 Nuclear Repulsion Energy =        1500.86900553 hartrees
 There are       71 alpha and       71 beta electrons
 Requested basis set is 6-311++G(d,p)
 There are 170 shells and 510 basis functions

 Total QAlloc Memory Limit   8000 MB
 Mega-Array Size       188 MB
 MEM_STATIC part       192 MB
 Discretize the solute cavity surface with Lebedev spheres
	Using 110 Lebedev grid points for each H atom
	Using 194 Lebedev grid points for other atoms
	Atomic van der Waals radii will be scaled by 1.20
 Remove points where switching function is < 1.0e-08
 Keep 1955 surface tesserae and discard 3025 interior tesserae
 Molecular Surface Area = 274.625 Angst**2
 A cutoff of  1.0D-08 yielded   9746 shell pairs
 There are     91795 function pairs (     98237 Cartesian)
 Smallest overlap matrix eigenvalue = 4.44E-08

 Q-Chem warning in module stvman/mkSTV.C, line 323:

 Overlap eigenvalue is smaller than square root of threshold
 Use THRESH >= 12 to get rid of this warning

 Linear dependence detected in AO basis
 Tighter screening thresholds may be required for diffuse basis sets
 Use S2THRESH > 14 and THRESH = 14 in case of SCF convergence issues
 Number of orthogonalized atomic orbitals = 502
 Maximum deviation from orthogonality = 1.111E-10

 Scale SEOQF with 1.000000e-02/1.000000e-02/1.000000e-01

 Standard Electronic Orientation quadrupole field applied
 Nucleus-field energy     =    -0.0000000196 hartrees
 Guess from superposition of atomic densities
 Warning:  Energy on first SCF cycle will be non-variational
 SAD guess density has 140.000000 electrons

 -----------------------------------------------------------------------
  General SCF calculation program by
  Eric Jon Sundstrom, Paul Horn, Yuezhi Mao, Dmitri Zuev, Alec White,
  David Stuck, Shaama M.S., Shane Yost, Joonho Lee, David Small,
  Daniel Levine, Susi Lehtola, Hugh Burton, Evgeny Epifanovsky,
  Bang C. Huynh
 -----------------------------------------------------------------------
 Exchange:     0.2000 Hartree-Fock + 0.0800 Slater + 0.7200 B88
 Correlation:  0.1900 VWN1RPA + 0.8100 LYP
 Using SG-1 standard quadrature grid
 using 8 threads for integral computing
 -------------------------------------------------------
 OpenMP Integral computing Module                
 Release: version 1.0, May 2013, Q-Chem Inc. Pittsburgh 
 -------------------------------------------------------
 A restricted SCF calculation will be
 performed using DIIS
 SCF converges when DIIS error is below 1.0e-05
 ---------------------------------------
  Cycle       Energy         DIIS error
 ---------------------------------------
    1    -958.6890676246      2.96e-02  
    2    -953.8775020311      3.75e-03  
    3    -953.6509332279      5.02e-03  
    4    -954.2452322025      1.09e-03  
    5    -954.2754992161      2.62e-04  
    6    -954.2769585635      1.11e-04  
    7    -954.2772609477      3.00e-05  
    8    -954.2772788568      1.37e-05  
    9    -954.2772847162      2.44e-06  Convergence criterion met
 ---------------------------------------
 SCF time:   CPU 472.96s  wall 64.00s 

************** Final PCM Free Energy Summary **************
 G_electrostatic  =      -0.27795933 hartree =    -174.42211024 kcal/mol
 G_cavitation     =       0.00000000 hartree =       0.00000000 kcal/mol
 G_dispersion     =       0.00000000 hartree =       0.00000000 kcal/mol
 G_repulsion      =       0.00000000 hartree =       0.00000000 kcal/mol
 --------------------------------------------------
 Non-electrostatic Free Energy =       0.00000000 hartree =       0.00000000 kcal/mol
 Total                         =      -0.27795933 hartree =    -174.42211024 kcal/mol
 --------------------------------------------------
 SCF Energy (H0 + V/2)                       =    -954.27728472 
 Solute Internal Energy (H0)                 =    -953.99932539 
 Total Free Energy (H0 + V/2 + non-elec)     =    -954.27728472 hartree
                                             = -598818.03411959 kcal/mol
***********************************************************

 SCF   energy in the final basis set =     -954.2772847162
 Total energy in the final basis set =     -954.2772847162
 
 --------------------------------------------------------------
 
                    Orbital Energies (a.u.)
 --------------------------------------------------------------
 
 Alpha MOs
 -- Occupied --
-19.1378 -19.0975 -19.0928 -19.0473 -19.0469 -10.2216 -10.2064 -10.2005
-10.1999 -10.1968 -10.1881 -10.1555 -10.1545 -10.1505 -10.1500 -10.1487
-10.1483 -10.1450 -10.1411 -10.1394  -1.0555  -1.0160  -1.0139  -0.9550
 -0.9513  -0.8345  -0.8151  -0.7614  -0.7432  -0.7171  -0.7046  -0.6799
 -0.6501  -0.6119  -0.6065  -0.5611  -0.5498  -0.5252  -0.5060  -0.4881
 -0.4789  -0.4691  -0.4606  -0.4565  -0.4441  -0.4275  -0.4191  -0.4063
 -0.3977  -0.3928  -0.3826  -0.3775  -0.3719  -0.3709  -0.3684  -0.3536
 -0.3405  -0.3352  -0.3303  -0.3260  -0.3192  -0.3144  -0.2984  -0.2772
 -0.2393  -0.2282  -0.2240  -0.2160  -0.2148  -0.1857  -0.1193
 -- Virtual --
 -0.0194  -0.0050   0.0017   0.0099   0.0133   0.0231   0.0253   0.0355
  0.0396   0.0398   0.0444   0.0469   0.0593   0.0596   0.0667   0.0671
  0.0728   0.0768   0.0823   0.0842   0.0919   0.0947   0.0993   0.1005
  0.1121   0.1130   0.1174   0.1196   0.1206   0.1257   0.1293   0.1342
  0.1375   0.1384   0.1453   0.1459   0.1493   0.1521   0.1536   0.1587
  0.1615   0.1677   0.1695   0.1741   0.1776   0.1830   0.1861   0.1887
  0.1909   0.1922   0.2013   0.2018   0.2088   0.2145   0.2148   0.2188
  0.2226   0.2273   0.2304   0.2353   0.2365   0.2458   0.2492   0.2599
  0.2604   0.2611   0.2627   0.2688   0.2736   0.2773   0.2837   0.2855
  0.2928   0.2937   0.2968   0.2987   0.3028   0.3038   0.3077   0.3115
  0.3160   0.3169   0.3201   0.3215   0.3256   0.3297   0.3342   0.3348
  0.3382   0.3433   0.3483   0.3567   0.3586   0.3639   0.3667   0.3699
  0.3735   0.3816   0.3832   0.3894   0.3974   0.4062   0.4118   0.4156
  0.4211   0.4275   0.4372   0.4465   0.4647   0.4682   0.4684   0.4926
  0.5057   0.5105   0.5180   0.5337   0.5362   0.5468   0.5598   0.5638
  0.5679   0.5708   0.5824   0.5882   0.5910   0.6028   0.6112   0.6149
  0.6228   0.6313   0.6330   0.6360   0.6463   0.6524   0.6564   0.6599
  0.6703   0.6712   0.6762   0.6803   0.6865   0.6898   0.7025   0.7059
  0.7103   0.7199   0.7251   0.7381   0.7441   0.7658   0.7669   0.7697
  0.7957   0.8008   0.8106   0.8143   0.8176   0.8299   0.8367   0.8527
  0.8589   0.8792   0.8892   0.9022   0.9100   0.9181   0.9268   0.9304
  0.9378   0.9540   0.9631   0.9675   0.9730   0.9808   0.9894   0.9946
  1.0075   1.0139   1.0209   1.0267   1.0384   1.0503   1.0566   1.0622
  1.0666   1.0824   1.0882   1.0971   1.1090   1.1119   1.1132   1.1207
  1.1234   1.1330   1.1344   1.1594   1.1643   1.1675   1.1916   1.2038
  1.2068   1.2367   1.2450   1.2576   1.2691   1.2704   1.2759   1.2854
  1.2857   1.3094   1.3172   1.3215   1.3363   1.3570   1.3767   1.3995
  1.4270   1.4526   1.4544   1.4667   1.4711   1.4719   1.4925   1.5100
  1.5219   1.5240   1.5264   1.5337   1.5421   1.5522   1.5649   1.5651
  1.5787   1.5887   1.5953   1.5970   1.6145   1.6365   1.6390   1.6557
  1.6859   1.6904   1.7018   1.7155   1.7329   1.7355   1.7373   1.7422
  1.7602   1.7639   1.7722   1.7898   1.8013   1.8212   1.8353   1.8447
  1.8624   1.9013   1.9041   1.9080   1.9080   1.9148   1.9388   1.9504
  1.9552   1.9660   1.9732   1.9762   1.9764   1.9954   2.0006   2.0052
  2.0148   2.0241   2.0450   2.0588   2.0701   2.0990   2.1059   2.1213
  2.1232   2.1396   2.1430   2.1465   2.1813   2.1824   2.2009   2.2179
  2.2463   2.2583   2.2618   2.3303   2.3407   2.3563   2.3858   2.3946
  2.4135   2.4640   2.4757   2.4836   2.4848   2.4914   2.5103   2.5298
  2.5480   2.5664   2.6057   2.6228   2.6518   2.6672   2.6701   2.7016
  2.7205   2.7271   2.7467   2.7486   2.7502   2.7690   2.7696   2.7865
  2.7906   2.8068   2.8169   2.8231   2.8409   2.8506   2.8605   2.8686
  2.8896   2.8960   2.9000   2.9133   2.9304   2.9425   2.9444   2.9706
  3.0508   3.0536   3.0841   3.0882   3.1114   3.1328   3.1359   3.1387
  3.1509   3.1584   3.1905   3.2050   3.2102   3.2199   3.2301   3.2320
  3.2536   3.2622   3.2750   3.2862   3.3003   3.3047   3.3221   3.3557
  3.3661   3.4003   3.4137   3.4517   3.4612   3.4693   3.5105   3.5136
  3.5352   3.5751   3.5871   3.6110   3.6672   3.6739   3.7122   3.7374
  3.7735   3.8442   3.8606   3.8837   3.9410   3.9659   3.9912   4.0827
  4.1128   4.1507   4.1743   4.1955   4.2583   4.2785   4.3446   4.3712
  4.5539   4.8383   4.8639   4.8877   5.0461   5.0527   5.0666   5.1133
  5.1370   5.2781   5.3014   5.4747   5.5578   5.6162   5.7236   5.8151
  5.8462   5.8667   5.9247  23.5446  23.7255  23.8773  23.8796  23.9154
 23.9402  23.9560  23.9759  23.9967  24.0159  24.0641  24.1085  24.1205
 24.1838  24.2149  50.0026  50.0108  50.0533  50.0977  50.1576
 --------------------------------------------------------------
 
          Ground-State Mulliken Net Atomic Charges

     Atom                 Charge (a.u.)
  ----------------------------------------
      1 C                    -0.326774
      2 C                    -0.474722
      3 C                    -0.063755
      4 C                     0.144724
      5 C                    -0.020067
      6 C                     0.030560
      7 C                    -0.247061
      8 C                     0.325225
      9 C                     0.616968
     10 C                    -0.302558
     11 C                    -0.254113
     12 C                    -0.180604
     13 C                    -0.301279
     14 C                    -0.256593
     15 O                    -0.686535
     16 O                    -0.692559
     17 O                    -0.514208
     18 H                     0.151101
     19 H                     0.189636
     20 H                     0.184442
     21 O                    -0.187066
     22 H                     0.390127
     23 O                    -0.547823
     24 H                     0.174584
     25 H                     0.177180
     26 H                     0.453625
     27 C                    -0.292882
     28 H                     0.196452
     29 H                     0.156956
     30 H                     0.157017
  ----------------------------------------
  Sum of atomic charges =    -2.000000

 -----------------------------------------------------------------
                    Cartesian Multipole Moments
 -----------------------------------------------------------------
    Charge (ESU x 10^10)
                -9.6064
    Dipole Moment (Debye)
         X     -13.8910      Y      25.0796      Z      -8.1724
       Tot      29.8117
    Quadrupole Moments (Debye-Ang)
        XX    -171.8963     XY      58.4741     YY    -231.4253
        XZ     -14.3193     YZ      33.5467     ZZ    -140.0095
    Octopole Moments (Debye-Ang^2)
       XXX    -934.6037    XXY     451.3459    XYY    -504.0714
       YYY    1289.9590    XXZ     -95.0585    XYZ      50.0505
       YYZ    -217.6828    XZZ    -279.3071    YZZ     342.2899
       ZZZ    -145.8256
    Hexadecapole Moments (Debye-Ang^3)
      XXXX   -7223.7245   XXXY    2070.2619   XXYY   -2816.7785
      XYYY    2526.1545   YYYY   -8383.8676   XXXZ     247.8514
      XXYZ     420.1889   XYYZ    -150.4373   YYYZ    1896.7497
      XXZZ   -1403.7109   XYZZ     637.8450   YYZZ   -1623.9878
      XZZZ     486.8515   YZZZ    1136.7139   ZZZZ   -1754.7370
 -----------------------------------------------------------------
 Total job time:  67.25s(wall), 480.89s(cpu) 
 Tue Jun 11 20:21:44 2024

        *************************************************************
        *                                                           *
        *  Thank you very much for using Q-Chem.  Have a nice day.  *
        *                                                           *
        *************************************************************


