 Entering Gaussian System, Link 0=g16
 Input=286-PCM.com
 Output=286-PCM.log
 Initial command:
 /sysapps/ubuntu-applications/gaussian/Gaussian/AVX2/g16/l1.exe "/scratch/selhajj1/4304461/Gau-1121300.inp" -scrdir="/scratch/selhajj1/4304461/"
 Entering Link 1 = /sysapps/ubuntu-applications/gaussian/Gaussian/AVX2/g16/l1.exe PID=   1121302.
  
 Copyright (c) 1988,1990,1992,1993,1995,1998,2003,2009,2016,
            Gaussian, Inc.  All Rights Reserved.
  
 This is part of the Gaussian(R) 16 program.  It is based on
 the Gaussian(R) 09 system (copyright 2009, Gaussian, Inc.),
 the Gaussian(R) 03 system (copyright 2003, Gaussian, Inc.),
 the Gaussian(R) 98 system (copyright 1998, Gaussian, Inc.),
 the Gaussian(R) 94 system (copyright 1995, Gaussian, Inc.),
 the Gaussian 92(TM) system (copyright 1992, Gaussian, Inc.),
 the Gaussian 90(TM) system (copyright 1990, Gaussian, Inc.),
 the Gaussian 88(TM) system (copyright 1988, Gaussian, Inc.),
 the Gaussian 86(TM) system (copyright 1986, Carnegie Mellon
 University), and the Gaussian 82(TM) system (copyright 1983,
 Carnegie Mellon University). Gaussian is a federally registered
 trademark of Gaussian, Inc.
  
 This software contains proprietary and confidential information,
 including trade secrets, belonging to Gaussian, Inc.
  
 This software is provided under written license and may be
 used, copied, transmitted, or stored only in accord with that
 written license.
  
 The following legend is applicable only to US Government
 contracts under FAR:
  
                    RESTRICTED RIGHTS LEGEND
  
 Use, reproduction and disclosure by the US Government is
 subject to restrictions as set forth in subparagraphs (a)
 and (c) of the Commercial Computer Software - Restricted
 Rights clause in FAR 52.227-19.
  
 Gaussian, Inc.
 340 Quinnipiac St., Bldg. 40, Wallingford CT 06492
  
  
 ---------------------------------------------------------------
 Warning -- This program may not be used in any manner that
 competes with the business of Gaussian, Inc. or will provide
 assistance to any competitor of Gaussian, Inc.  The licensee
 of this program is prohibited from giving any competitor of
 Gaussian, Inc. access to this program.  By using this program,
 the user acknowledges that Gaussian, Inc. is engaged in the
 business of creating and licensing software in the field of
 computational chemistry and represents and warrants to the
 licensee that it is not a competitor of Gaussian, Inc. and that
 it will not use this program in any manner prohibited above.
 ---------------------------------------------------------------
  

 Cite this work as:
 Gaussian 16, Revision A.03,
 M. J. Frisch, G. W. Trucks, H. B. Schlegel, G. E. Scuseria, 
 M. A. Robb, J. R. Cheeseman, G. Scalmani, V. Barone, 
 G. A. Petersson, H. Nakatsuji, X. Li, M. Caricato, A. V. Marenich, 
 J. Bloino, B. G. Janesko, R. Gomperts, B. Mennucci, H. P. Hratchian, 
 J. V. Ortiz, A. F. Izmaylov, J. L. Sonnenberg, D. Williams-Young, 
 F. Ding, F. Lipparini, F. Egidi, J. Goings, B. Peng, A. Petrone, 
 T. Henderson, D. Ranasinghe, V. G. Zakrzewski, J. Gao, N. Rega, 
 G. Zheng, W. Liang, M. Hada, M. Ehara, K. Toyota, R. Fukuda, 
 J. Hasegawa, M. Ishida, T. Nakajima, Y. Honda, O. Kitao, H. Nakai, 
 T. Vreven, K. Throssell, J. A. Montgomery, Jr., J. E. Peralta, 
 F. Ogliaro, M. J. Bearpark, J. J. Heyd, E. N. Brothers, K. N. Kudin, 
 V. N. Staroverov, T. A. Keith, R. Kobayashi, J. Normand, 
 K. Raghavachari, A. P. Rendell, J. C. Burant, S. S. Iyengar, 
 J. Tomasi, M. Cossi, J. M. Millam, M. Klene, C. Adamo, R. Cammi, 
 J. W. Ochterski, R. L. Martin, K. Morokuma, O. Farkas, 
 J. B. Foresman, and D. J. Fox, Gaussian, Inc., Wallingford CT, 2016.
 
 ******************************************
 Gaussian 16:  ES64L-G16RevA.03 25-Dec-2016
                21-Jan-2024 
 ******************************************
 %chk=286-PCM.chk
 %nproc=8
 Will use up to    8 processors via shared memory.
 %mem=30GB
 ----------------------------------------------------------------
 #P UB3LYP/6-311++G(d,p) SCRF=(PCM,Solvent=n,n-DiMethylFormamide)
 ----------------------------------------------------------------
 1/38=1,172=1/1;
 2/12=2,17=6,18=5,40=1/2;
 3/5=4,6=6,7=1111,11=2,25=1,30=1,70=2201,72=148,74=-5,116=2/1,2,3;
 4//1;
 5/5=2,38=5,53=148/2;
 6/7=2,8=2,9=2,10=2,28=1/1;
 99/5=1,9=1/99;
 Leave Link    1 at Sun Jan 21 08:10:55 2024, MaxMem=  4026531840 cpu:               0.3 elap:               0.1
 (Enter /sysapps/ubuntu-applications/gaussian/Gaussian/AVX2/g16/l101.exe)
 ------------------
 Quinone PCM in DMF
 ------------------
 Symbolic Z-matrix:
 Charge =  0 Multiplicity = 1
 C                    -0.28134   3.82773  -0.20491 
 C                    -1.50092   3.21985  -0.48644 
 C                    -1.54007   1.87652  -0.86462 
 C                     0.89976   3.08826  -0.30296 
 C                     0.86363   1.7366   -0.68298 
 C                    -0.36299   1.13672  -0.96244 
 C                     2.1998    3.71739  -0.00754 
 C                     3.43073   2.88508  -0.13295 
 C                     3.42063   1.57666  -0.48829 
 C                     2.12691   0.92947  -0.79157 
 O                     2.33411   4.88664   0.3359 
 O                     2.07537  -0.2467   -1.12352 
 H                    -0.22539   4.86818   0.09089 
 H                    -2.41966   3.78999  -0.41196 
 H                    -2.49128   1.40476  -1.08367 
 H                    -0.37548   0.09393  -1.25423 
 O                     4.56575   3.5464    0.14666 
 C                     4.67911   0.76563  -0.61785 
 C                     5.24883   0.77099  -2.05286 
 C                     6.52563  -0.0661   -2.18072 
 C                     7.10954  -0.07014  -3.598 
 C                     8.38732  -0.90649  -3.73168 
 H                     4.29745   4.45402   0.3857 
 H                     4.45827  -0.2649   -0.32891 
 H                     5.43136   1.15927   0.07051 
 H                     5.45553   1.80448  -2.35322 
 H                     4.48776   0.38601  -2.73979 
 H                     6.31296  -1.09779  -1.87308 
 H                     7.27974   0.31344  -1.47918 
 H                     7.31939   0.96244  -3.90573 
 H                     6.35438  -0.44878  -4.2987 
 H                     8.17722  -1.93896  -3.42368 
 H                     9.14214  -0.52826  -3.03002 
 C                     8.97258  -0.91157  -5.14822 
 H                     9.18298   0.12082  -5.45712 
 H                     8.2182   -1.28987  -5.85053 
 C                     10.2503  -1.74757  -5.28406 
 C                     10.82733  -1.7464   -6.70272 
 H                     10.04034  -2.77925  -4.97636 
 H                     11.00453  -1.36962  -4.58301 
 H                     10.10887  -2.15191  -7.42225 
 H                     11.73663  -2.35077  -6.76562 
 H                     11.08027  -0.73158  -7.026 
 
 ITRead=  0  0  0  0  0  0  0  0  0  0  0  0  0  0  0  0  0  0  0  0
 ITRead=  0  0  0  0  0  0  0  0  0  0  0  0  0  0  0  0  0  0  0  0
 ITRead=  0  0  0
 MicOpt= -1 -1 -1 -1 -1 -1 -1 -1 -1 -1 -1 -1 -1 -1 -1 -1 -1 -1 -1 -1
 MicOpt= -1 -1 -1 -1 -1 -1 -1 -1 -1 -1 -1 -1 -1 -1 -1 -1 -1 -1 -1 -1
 MicOpt= -1 -1 -1
 NAtoms=     43 NQM=       43 NQMF=       0 NMMI=      0 NMMIF=      0
                NMic=       0 NMicF=      0.
                    Isotopes and Nuclear Properties:
 (Nuclear quadrupole moments (NQMom) in fm**2, nuclear magnetic moments (NMagM)
  in nuclear magnetons)

  Atom         1           2           3           4           5           6           7           8           9          10
 IAtWgt=          12          12          12          12          12          12          12          12          12          12
 AtmWgt=  12.0000000  12.0000000  12.0000000  12.0000000  12.0000000  12.0000000  12.0000000  12.0000000  12.0000000  12.0000000
 NucSpn=           0           0           0           0           0           0           0           0           0           0
 AtZEff=  -0.0000000  -0.0000000  -0.0000000  -0.0000000  -0.0000000  -0.0000000  -0.0000000  -0.0000000  -0.0000000  -0.0000000
 NQMom=    0.0000000   0.0000000   0.0000000   0.0000000   0.0000000   0.0000000   0.0000000   0.0000000   0.0000000   0.0000000
 NMagM=    0.0000000   0.0000000   0.0000000   0.0000000   0.0000000   0.0000000   0.0000000   0.0000000   0.0000000   0.0000000
 AtZNuc=   6.0000000   6.0000000   6.0000000   6.0000000   6.0000000   6.0000000   6.0000000   6.0000000   6.0000000   6.0000000

  Atom        11          12          13          14          15          16          17          18          19          20
 IAtWgt=          16          16           1           1           1           1          16          12          12          12
 AtmWgt=  15.9949146  15.9949146   1.0078250   1.0078250   1.0078250   1.0078250  15.9949146  12.0000000  12.0000000  12.0000000
 NucSpn=           0           0           1           1           1           1           0           0           0           0
 AtZEff=  -0.0000000  -0.0000000  -0.0000000  -0.0000000  -0.0000000  -0.0000000  -0.0000000  -0.0000000  -0.0000000  -0.0000000
 NQMom=    0.0000000   0.0000000   0.0000000   0.0000000   0.0000000   0.0000000   0.0000000   0.0000000   0.0000000   0.0000000
 NMagM=    0.0000000   0.0000000   2.7928460   2.7928460   2.7928460   2.7928460   0.0000000   0.0000000   0.0000000   0.0000000
 AtZNuc=   8.0000000   8.0000000   1.0000000   1.0000000   1.0000000   1.0000000   8.0000000   6.0000000   6.0000000   6.0000000

  Atom        21          22          23          24          25          26          27          28          29          30
 IAtWgt=          12          12           1           1           1           1           1           1           1           1
 AtmWgt=  12.0000000  12.0000000   1.0078250   1.0078250   1.0078250   1.0078250   1.0078250   1.0078250   1.0078250   1.0078250
 NucSpn=           0           0           1           1           1           1           1           1           1           1
 AtZEff=  -0.0000000  -0.0000000  -0.0000000  -0.0000000  -0.0000000  -0.0000000  -0.0000000  -0.0000000  -0.0000000  -0.0000000
 NQMom=    0.0000000   0.0000000   0.0000000   0.0000000   0.0000000   0.0000000   0.0000000   0.0000000   0.0000000   0.0000000
 NMagM=    0.0000000   0.0000000   2.7928460   2.7928460   2.7928460   2.7928460   2.7928460   2.7928460   2.7928460   2.7928460
 AtZNuc=   6.0000000   6.0000000   1.0000000   1.0000000   1.0000000   1.0000000   1.0000000   1.0000000   1.0000000   1.0000000

  Atom        31          32          33          34          35          36          37          38          39          40
 IAtWgt=           1           1           1          12           1           1          12          12           1           1
 AtmWgt=   1.0078250   1.0078250   1.0078250  12.0000000   1.0078250   1.0078250  12.0000000  12.0000000   1.0078250   1.0078250
 NucSpn=           1           1           1           0           1           1           0           0           1           1
 AtZEff=  -0.0000000  -0.0000000  -0.0000000  -0.0000000  -0.0000000  -0.0000000  -0.0000000  -0.0000000  -0.0000000  -0.0000000
 NQMom=    0.0000000   0.0000000   0.0000000   0.0000000   0.0000000   0.0000000   0.0000000   0.0000000   0.0000000   0.0000000
 NMagM=    2.7928460   2.7928460   2.7928460   0.0000000   2.7928460   2.7928460   0.0000000   0.0000000   2.7928460   2.7928460
 AtZNuc=   1.0000000   1.0000000   1.0000000   6.0000000   1.0000000   1.0000000   6.0000000   6.0000000   1.0000000   1.0000000

  Atom        41          42          43
 IAtWgt=           1           1           1
 AtmWgt=   1.0078250   1.0078250   1.0078250
 NucSpn=           1           1           1
 AtZEff=  -0.0000000  -0.0000000  -0.0000000
 NQMom=    0.0000000   0.0000000   0.0000000
 NMagM=    2.7928460   2.7928460   2.7928460
 AtZNuc=   1.0000000   1.0000000   1.0000000
 Leave Link  101 at Sun Jan 21 08:10:55 2024, MaxMem=  4026531840 cpu:               0.7 elap:               0.2
 (Enter /sysapps/ubuntu-applications/gaussian/Gaussian/AVX2/g16/l202.exe)
                          Input orientation:                          
 ---------------------------------------------------------------------
 Center     Atomic      Atomic             Coordinates (Angstroms)
 Number     Number       Type             X           Y           Z
 ---------------------------------------------------------------------
      1          6           0       -0.281338    3.827727   -0.204914
      2          6           0       -1.500920    3.219846   -0.486435
      3          6           0       -1.540072    1.876522   -0.864621
      4          6           0        0.899758    3.088256   -0.302959
      5          6           0        0.863627    1.736602   -0.682982
      6          6           0       -0.362989    1.136719   -0.962435
      7          6           0        2.199799    3.717391   -0.007543
      8          6           0        3.430727    2.885075   -0.132949
      9          6           0        3.420631    1.576659   -0.488291
     10          6           0        2.126915    0.929473   -0.791569
     11          8           0        2.334106    4.886640    0.335900
     12          8           0        2.075370   -0.246697   -1.123515
     13          1           0       -0.225394    4.868184    0.090886
     14          1           0       -2.419662    3.789991   -0.411959
     15          1           0       -2.491277    1.404762   -1.083667
     16          1           0       -0.375475    0.093932   -1.254227
     17          8           0        4.565748    3.546404    0.146659
     18          6           0        4.679110    0.765634   -0.617852
     19          6           0        5.248830    0.770992   -2.052859
     20          6           0        6.525633   -0.066104   -2.180723
     21          6           0        7.109540   -0.070135   -3.598000
     22          6           0        8.387318   -0.906492   -3.731681
     23          1           0        4.297454    4.454019    0.385699
     24          1           0        4.458266   -0.264900   -0.328912
     25          1           0        5.431359    1.159271    0.070505
     26          1           0        5.455529    1.804480   -2.353219
     27          1           0        4.487756    0.386009   -2.739786
     28          1           0        6.312961   -1.097786   -1.873084
     29          1           0        7.279736    0.313442   -1.479180
     30          1           0        7.319389    0.962443   -3.905727
     31          1           0        6.354378   -0.448784   -4.298705
     32          1           0        8.177225   -1.938963   -3.423683
     33          1           0        9.142140   -0.528262   -3.030021
     34          6           0        8.972580   -0.911572   -5.148215
     35          1           0        9.182983    0.120819   -5.457124
     36          1           0        8.218204   -1.289872   -5.850525
     37          6           0       10.250303   -1.747569   -5.284062
     38          6           0       10.827325   -1.746401   -6.702716
     39          1           0       10.040338   -2.779254   -4.976355
     40          1           0       11.004532   -1.369618   -4.583007
     41          1           0       10.108868   -2.151910   -7.422246
     42          1           0       11.736629   -2.350767   -6.765621
     43          1           0       11.080273   -0.731576   -7.026000
 ---------------------------------------------------------------------
                    Distance matrix (angstroms):
                    1          2          3          4          5
     1  C    0.000000
     2  C    1.391457   0.000000
     3  C    2.413882   1.396093   0.000000
     4  C    1.396932   2.411272   2.781463   0.000000
     5  C    2.431522   2.798165   2.414610   1.404525   0.000000
     6  C    2.796789   2.420926   1.393700   2.416182   1.393750
     7  C    2.491419   3.764600   4.255587   1.474174   2.482962
     8  C    3.830561   4.955620   5.124584   2.544797   2.865577
     9  C    4.341910   5.188616   4.983986   2.945178   2.569388
    10  C    3.813623   4.301174   3.788012   2.530810   1.503045
    11  O    2.873034   4.261674   5.050873   2.387400   3.622591
    12  O    4.795710   5.021219   4.200774   3.630053   2.365558
    13  H    1.083133   2.162703   3.404616   2.142248   3.404650
    14  H    2.148656   1.083835   2.154053   3.394534   3.881990
    15  H    3.395114   2.152214   1.084126   3.865589   3.395003
    16  H    3.879580   3.409908   2.164649   3.390738   2.135430
    17  O    4.867955   6.108347   6.410322   3.721766   4.203497
    18  C    5.844055   6.650804   6.322436   4.447160   3.937630
    19  C    6.583410   7.349129   6.980207   5.229368   4.694568
    20  C    8.087063   8.837060   8.400090   6.717623   6.127911
    21  C    9.018394   9.728609   9.277749   7.706758   7.125522
    22  C   10.487922  11.195336  10.701321   9.153016   8.537355
    23  H    4.659013   5.992073   6.502576   3.726110   4.507505
    24  H    6.263291   6.905083   6.391614   4.889510   4.129504
    25  H    6.311214   7.253457   7.070344   4.939217   4.665322
    26  H    6.451386   7.340322   7.152590   5.158168   4.886703
    27  H    6.404315   6.998033   6.486338   5.110185   4.380509
    28  H    8.398110   9.034461   8.457756   7.020755   6.256624
    29  H    8.434678   9.302293   8.978302   7.056005   6.620103
    30  H    8.926193   9.725496   9.411372   7.662289   7.256877
    31  H    8.892716   9.470900   8.917529   7.630827   6.928038
    32  H   10.731378  11.353732  10.748609   9.379412   8.631914
    33  H   10.759080  11.566887  11.161613   9.404942   8.897864
    34  C   11.512262  12.185853  11.689247  10.229642   9.628408
    35  H   11.441165  12.184314  11.796503  10.197201   9.727018
    36  H   11.415120  11.982170  11.406544  10.173650   9.484348
    37  C   12.953653  13.630249  13.102612  11.645999  11.019032
    38  C   14.024790  14.672811  14.147842  12.762734  12.150876
    39  H   13.151268  13.760422  13.141100  11.824488  11.092251
    40  H   13.173874  13.936693  13.480761  11.844742  11.300299
    41  H   13.992938  14.551578  13.961680  12.765238  12.083571
    42  H   15.021591  15.674585  15.131509  13.739969  13.112103
    43  H   14.014302  14.719581  14.284183  12.784103  12.276222
                    6          7          8          9         10
     6  C    0.000000
     7  C    3.760262   0.000000
     8  C    4.258765   1.491194   0.000000
     9  C    3.838508   2.510833   1.355847   0.000000
    10  C    2.504350   2.896980   2.440919   1.478015   0.000000
    11  O    4.798114   1.226024   2.329948   3.579916   4.119865
    12  O    2.808092   4.120057   3.553338   2.353267   1.223201
    13  H    3.879723   2.686182   4.165338   4.946017   4.671780
    14  H    3.401879   4.637698   5.926531   6.246094   5.384982
    15  H    2.148524   5.339709   6.177809   5.944298   4.651765
    16  H    1.082914   4.616894   4.851280   4.146753   2.678458
    17  O    5.597242   2.377126   1.343060   2.365238   3.698176
    18  C    5.067465   3.902862   2.507114   1.502770   2.563342
    19  C    5.728463   4.707566   3.385395   2.537574   3.370804
    20  C    7.098177   6.144134   4.741443   3.899235   4.719072
    21  C    8.015073   7.165354   5.854358   5.098065   5.805327
    22  C    9.402729   8.575249   7.203794   6.430676   7.155954
    23  H    5.877216   2.257746   1.865957   3.132392   4.303443
    24  H    5.060671   4.589400   3.319123   2.119771   2.660033
    25  H    5.885741   4.122263   2.649966   2.128261   3.422766
    26  H    6.019579   4.445357   3.193291   2.769597   3.779426
    27  H    5.220371   4.878320   3.762744   2.761455   3.108774
    28  H    7.098634   6.601839   5.215220   4.175629   4.775190
    29  H    7.704288   6.289542   4.820841   4.179745   5.234870
    30  H    8.228747   6.999698   5.749092   5.220770   6.054821
    31  H    7.665999   7.282281   6.084067   5.218098   5.663130
    32  H    9.404936   8.910330   7.525259   6.603129   7.194595
    33  H    9.868868   8.680843   7.257006   6.605055   7.506600
    34  C   10.434036   9.681135   8.383290   7.663571   8.320633
    35  H   10.599994   9.560237   8.311221   7.746836   8.497613
    36  H   10.169496   9.769049   8.546391   7.745144   8.223280
    37  C   11.816833  11.068787   9.721212   8.983002   9.661184
    38  C   12.902958  12.211166  10.923464  10.223547  10.853529
    39  H   11.818444  11.330028   9.961434   9.106987   9.689652
    40  H   12.190603  11.150599   9.760530   9.108392   9.923352
    41  H   12.735935  12.328012  11.095163  10.330270  10.824619
    42  H   13.865074  13.169863  11.848814  11.134872  11.781166
    43  H   13.084555  12.162026  10.913747  10.331491  11.035843
                   11         12         13         14         15
    11  O    0.000000
    12  O    5.343031   0.000000
    13  H    2.571267   5.738492   0.000000
    14  H    4.935610   6.083295   2.496030   0.000000
    15  H    6.117431   4.856251   4.302219   2.479040   0.000000
    16  H    5.730653   2.477853   4.962392   4.306851   2.494791
    17  O    2.610033   4.712000   4.970438   7.011943   7.476760
    18  C    4.836463   2.839009   6.433303   7.718918   7.213870
    19  C    5.580353   3.459801   7.165874   8.403135   7.826254
    20  C    6.959308   4.577679   8.665089   9.900318   9.201720
    21  C    7.927797   5.612229   9.581030  10.763695  10.033588
    22  C    9.313805   6.861381  11.051593  12.242072  11.432310
    23  H    2.011063   5.414066   4.551330   6.796826   7.585768
    24  H    5.611809   2.511955   6.961426   7.984669   7.187042
    25  H    4.853523   3.829503   6.764267   8.294094   8.010027
    26  H    5.145323   4.140649   6.901653   8.350412   8.057497
    27  H    5.861206   2.971911   7.093404   8.044768   7.244825
    28  H    7.518261   4.386728   9.066425  10.113553   9.186976
    29  H    6.976239   5.246492   8.918394  10.358749   9.839721
    30  H    7.631760   6.058255   9.388902  10.726162  10.218064
    31  H    8.130738   5.332221   9.530585  10.490843   9.592586
    32  H    9.739885   6.737000  11.370728  12.417142  11.422483
    33  H    9.327374   7.324840  11.252217  12.616530  11.952459
    34  C   10.380950   8.013225  12.060534  13.203030  12.381679
    35  H   10.157721   8.332670  11.909469  13.173378  12.532517
    36  H   10.537730   7.820949  12.021496  12.982573  12.028174
    37  C   11.758524   9.294746  13.505498  14.660490  13.781450
    38  C   12.871446  10.486816  14.562567  15.675073  14.794888
    39  H   12.098429   9.203203  13.767552  14.806765  13.773176
    40  H   11.769142   9.641523  13.669919  14.974251  14.215464
    41  H   13.045188  10.384649  14.578266  15.537515  14.546173
    42  H   13.828199  11.384217  15.563256  16.687675  15.774090
    43  H   12.738028  10.777881  14.485354  15.698355  14.968708
                   16         17         18         19         20
    16  H    0.000000
    17  O    6.188516   0.000000
    18  C    5.138578   2.886176   0.000000
    19  C    5.720929   3.606576   1.543974   0.000000
    20  C    6.964862   4.723142   2.558125   1.532092   0.000000
    21  C    7.845103   5.794196   3.935325   2.560702   1.532853
    22  C    9.161068   7.033790   5.122767   3.934781   2.564682
    23  H    6.598180   0.976159   3.841479   4.518448   5.655335
    24  H    4.934574   3.842364   1.092821   2.161031   2.782576
    25  H    6.050552   2.540371   1.093007   2.166276   2.786935
    26  H    6.175303   3.174177   2.166455   1.095919   2.161935
    27  H    5.093448   4.280858   2.164102   1.095132   2.160995
    28  H    6.821902   5.357296   2.778023   2.158014   1.097378
    29  H    7.661661   4.523398   2.776620   2.159407   1.097674
    30  H    8.185090   5.539064   4.221366   2.785137   2.159536
    31  H    7.406369   6.238749   4.222560   2.784585   2.159079
    32  H    9.054716   7.475250   5.236825   4.218828   2.789320
    33  H    9.701833   6.901997   5.235586   4.219096   2.789445
    34  C   10.176459   8.205450   6.463056   5.126262   3.938067
    35  H   10.441704   8.028442   6.642229   5.243024   4.222707
    36  H    9.843383   8.526208   6.643129   5.242767   4.222541
    37  C   11.512509   9.478030   7.689467   6.465180   5.131394
    38  C   12.592680  10.683402   9.007577   7.686224   6.463464
    39  H   11.427974   9.809707   7.765664   6.641508   5.246894
    40  H   11.946854   9.380562   7.764839   6.641684   5.246966
    41  H   12.369709  10.976579   9.181183   7.809843   6.683092
    42  H   13.529785  11.574877   9.864867   8.605059   7.307219
    43  H   12.854143  10.591845   9.180462   7.809966   6.683136
                   21         22         23         24         25
    21  C    0.000000
    22  C    1.532997   0.000000
    23  H    6.651741   7.900309   0.000000
    24  H    4.213564   5.237168   4.775429   0.000000
    25  H    4.217305   5.240390   3.498636   1.770510   0.000000
    26  H    2.792743   4.224324   3.982821   3.061811   2.508250
    27  H    2.796131   4.226227   5.133573   2.497372   3.063667
    28  H    2.160079   2.791762   6.323520   2.553049   3.106295
    29  H    2.159976   2.790831   5.432877   3.101337   2.556061
    30  H    1.097702   2.159556   6.303930   4.741941   4.406112
    31  H    1.097557   2.159597   7.086046   4.403216   4.746346
    32  H    2.159365   1.097724   8.392511   5.119644   5.417396
    33  H    2.159616   1.097789   7.743465   5.413319   5.121613
    34  C    2.565561   1.532686   9.015019   6.634975   6.638048
    35  H    2.791410   2.160001   8.762625   6.983573   6.760751
    36  H    2.791194   2.159880   9.341041   6.758396   6.987375
    37  C    3.939668   2.566712  10.297684   7.765276   7.768097
    38  C    5.125530   3.935242  11.459932   9.131546   9.134325
    39  H    4.222412   2.790865  10.679540   7.686367   7.888312
    40  H    4.222542   2.790887  10.177803   7.884879   7.688349
    41  H    5.287212   4.258529  11.763283   9.263126   9.433150
    42  H    6.053516   4.744324  12.360737   9.937637   9.940293
    43  H    5.287287   4.258537  11.306207   9.429727   9.265307
                   26         27         28         29         30
    26  H    0.000000
    27  H    1.760136   0.000000
    28  H    3.064126   2.506829   0.000000
    29  H    2.512940   3.064237   1.755386   0.000000
    30  H    2.567739   3.116062   3.064160   2.512151   0.000000
    31  H    3.109669   2.571261   2.511286   3.063821   1.754206
    32  H    4.750462   4.414226   2.566596   3.108039   3.063724
    33  H    4.414844   4.752201   3.109198   2.565565   2.512267
    34  C    5.249627   5.253370   4.223119   4.222345   2.790833
    35  H    5.134477   5.431336   4.750512   4.414011   2.566738
    36  H    5.425729   5.138241   4.414395   4.749736   3.108542
    37  C    6.648064   6.650748   5.249729   5.248730   4.223059
    38  C    7.770655   7.774453   6.642705   6.641812   5.240859
    39  H    6.993707   6.771432   5.133319   5.423645   4.748695
    40  H    6.770398   6.996289   5.424796   5.132303   4.413332
    41  H    7.937356   7.743602   6.805387   7.028654   5.463176
    42  H    8.728550   8.731750   7.411009   7.410018   6.218389
    43  H    7.739781   7.942412   7.029503   6.804657   5.172045
                   31         32         33         34         35
    31  H    0.000000
    32  H    2.511786   0.000000
    33  H    3.063902   1.753884   0.000000
    34  C    2.791204   2.159197   2.159264   0.000000
    35  H    3.109242   3.064169   2.512728   1.097964   0.000000
    36  H    2.566987   2.512481   3.064139   1.097922   1.753742
    37  C    4.223269   2.792005   2.792031   1.532945   2.158702
    38  C    5.241215   4.220446   4.220474   2.559979   2.782422
    39  H    4.413230   2.566723   3.108366   2.158212   3.062127
    40  H    4.748968   3.108352   2.566739   2.158262   2.510682
    41  H    5.172363   4.445795   4.781468   2.828570   3.143925
    42  H    6.218669   4.899744   4.899756   3.511019   3.787085
    43  H    5.463716   4.781439   4.445846   2.828576   2.605314
                   36         37         38         39         40
    36  H    0.000000
    37  C    2.158655   0.000000
    38  C    2.782474   1.531514   0.000000
    39  H    2.510499   1.096879   2.160198   0.000000
    40  H    3.062121   1.096899   2.160216   1.752560   0.000000
    41  H    2.605384   2.180671   1.094688   2.525993   3.078226
    42  H    3.787111   2.183582   1.093640   2.502494   2.502483
    43  H    3.144022   2.180697   1.094699   3.078229   2.526074
                   41         42         43
    41  H    0.000000
    42  H    1.766439   0.000000
    43  H    1.765782   1.766460   0.000000
 Stoichiometry    C18H22O3
 Framework group  C1[X(C18H22O3)]
 Deg. of freedom   123
 Full point group                 C1      NOp   1
 Largest Abelian subgroup         C1      NOp   1
 Largest concise Abelian subgroup C1      NOp   1
                         Standard orientation:                         
 ---------------------------------------------------------------------
 Center     Atomic      Atomic             Coordinates (Angstroms)
 Number     Number       Type             X           Y           Z
 ---------------------------------------------------------------------
      1          6           0       -5.270204    0.145990   -0.908662
      2          6           0       -5.926646   -1.079324   -0.970660
      3          6           0       -5.297064   -2.232753   -0.499170
      4          6           0       -3.981541    0.214740   -0.373836
      5          6           0       -3.345587   -0.943844    0.101491
      6          6           0       -4.011678   -2.166340    0.035409
      7          6           0       -3.272775    1.505271   -0.300545
      8          6           0       -1.896847    1.522508    0.274072
      9          6           0       -1.266156    0.419844    0.748078
     10          6           0       -1.959628   -0.883607    0.679967
     11          8           0       -3.744447    2.570013   -0.683930
     12          8           0       -1.422239   -1.903294    1.089445
     13          1           0       -5.738001    1.054581   -1.267559
     14          1           0       -6.926408   -1.137227   -1.385174
     15          1           0       -5.810151   -3.186504   -0.548471
     16          1           0       -3.508985   -3.051180    0.405627
     17          8           0       -1.329012    2.739516    0.290345
     18          6           0        0.126317    0.465825    1.311304
     19          6           0        1.210357    0.178780    0.250023
     20          6           0        2.626862    0.216601    0.832593
     21          6           0        3.718435   -0.062049   -0.206858
     22          6           0        5.137970   -0.025600    0.370786
     23          1           0       -1.989800    3.350781   -0.087281
     24          1           0        0.203219   -0.280264    2.106096
     25          1           0        0.302858    1.451214    1.750059
     26          1           0        1.125632    0.914483   -0.557814
     27          1           0        1.022724   -0.804563   -0.193988
     28          1           0        2.702870   -0.518003    1.644269
     29          1           0        2.804491    1.198329    1.290356
     30          1           0        3.639809    0.671625   -1.019564
     31          1           0        3.539241   -1.043354   -0.664637
     32          1           0        5.216239   -0.759216    1.183608
     33          1           0        5.316630    0.955616    0.829518
     34          6           0        6.230729   -0.303958   -0.667252
     35          1           0        6.153136    0.429387   -1.480708
     36          1           0        6.052742   -1.285254   -1.126393
     37          6           0        7.651016   -0.268188   -0.091557
     38          6           0        8.735586   -0.547413   -1.136199
     39          1           0        7.729224   -1.001286    0.720597
     40          1           0        7.829552    0.712249    0.366762
     41          1           0        8.604668   -1.536016   -1.587714
     42          1           0        9.735320   -0.514606   -0.694040
     43          1           0        8.705708    0.190429   -1.944321
 ---------------------------------------------------------------------
 Rotational constants (GHZ):           0.7214762           0.0900171           0.0840705
 Leave Link  202 at Sun Jan 21 08:10:55 2024, MaxMem=  4026531840 cpu:               0.1 elap:               0.0
 (Enter /sysapps/ubuntu-applications/gaussian/Gaussian/AVX2/g16/l301.exe)
 Standard basis: 6-311++G(d,p) (5D, 7F)
 Ernie: Thresh=  0.10000D-02 Tol=  0.10000D-05 Strict=F.
 There are   637 symmetry adapted cartesian basis functions of A   symmetry.
 There are   616 symmetry adapted basis functions of A   symmetry.
   616 basis functions,   954 primitive gaussians,   637 cartesian basis functions
    77 alpha electrons       77 beta electrons
       nuclear repulsion energy      1535.0306548792 Hartrees.
 IExCor=  402 DFT=T Ex+Corr=B3LYP ExCW=0 ScaHFX=  0.200000
 ScaDFX=  0.800000  0.720000  1.000000  0.810000 ScalE2=  1.000000  1.000000
 IRadAn=      5 IRanWt=     -1 IRanGd=            0 ICorTp=0 IEmpDi=  4
 NAtoms=   43 NActive=   43 NUniq=   43 SFac= 1.00D+00 NAtFMM=   60 NAOKFM=F Big=F
 Integral buffers will be    131072 words long.
 Raffenetti 2 integral format.
 Two-electron integral symmetry is turned on.
 ------------------------------------------------------------------------------
 Polarizable Continuum Model (PCM)
 =================================
 Model                : PCM.
 Atomic radii         : UFF (Universal Force Field).
 Polarization charges : Total charges.
 Charge compensation  : None.
 Solution method      : On-the-fly selection.
 Cavity type          : Scaled VdW (van der Waals Surface) (Alpha=1.100).
 Cavity algorithm     : GePol (No added spheres)
                        Default sphere list used, NSphG=   43.
                        Lebedev-Laikov grids with approx.  5.0 points / Ang**2.
                        Smoothing algorithm: York/Karplus (Gamma=1.0000).
                        Polarization charges: spherical gaussians, with
                                              point-specific exponents (IZeta= 3).
                        Self-potential: point-specific (ISelfS= 7).
                        Self-field    : sphere-specific E.n sum rule (ISelfD= 2).
 Solvent              : n,n-DiMethylFormamide, Eps=  37.219000 Eps(inf)=   2.046330
 ------------------------------------------------------------------------------
 GePol: Number of generator spheres                  =      43
 GePol: Total number of spheres                      =      43
 GePol: Number of exposed spheres                    =      43 (100.00%)
 GePol: Number of points                             =    3135
 GePol: Average weight of points                     =       0.13
 GePol: Minimum weight of points                     =   0.70D-11
 GePol: Maximum weight of points                     =    0.20577
 GePol: Number of points with low weight             =     203
 GePol: Fraction of low-weight points (<1% of avg)   =       6.48%
 GePol: Cavity surface area                          =    403.250 Ang**2
 GePol: Cavity volume                                =    429.673 Ang**3
 Leave Link  301 at Sun Jan 21 08:10:56 2024, MaxMem=  4026531840 cpu:               0.6 elap:               0.2
 (Enter /sysapps/ubuntu-applications/gaussian/Gaussian/AVX2/g16/l302.exe)
 NPDir=0 NMtPBC=     1 NCelOv=     1 NCel=       1 NClECP=     1 NCelD=      1
         NCelK=      1 NCelE2=     1 NClLst=     1 CellRange=     0.0.
 One-electron integrals computed using PRISM.
 One-electron integral symmetry used in STVInt
 NBasis=   616 RedAO= T EigKep=  1.12D-06  NBF=   616
 NBsUse=   612 1.00D-06 EigRej=  6.76D-07 NBFU=   612
 Precomputing XC quadrature grid using
 IXCGrd= 4 IRadAn=           5 IRanWt=          -1 IRanGd=           0 AccXCQ= 0.00D+00.
 Generated NRdTot=       0 NPtTot=           0 NUsed=           0 NTot=          32
 NSgBfM=   619   618   618   619   619 MxSgAt=    43 MxSgA2=    43.
 Leave Link  302 at Sun Jan 21 08:10:57 2024, MaxMem=  4026531840 cpu:               7.8 elap:               1.2
 (Enter /sysapps/ubuntu-applications/gaussian/Gaussian/AVX2/g16/l303.exe)
 DipDrv:  MaxL=1.
 Leave Link  303 at Sun Jan 21 08:10:57 2024, MaxMem=  4026531840 cpu:               0.9 elap:               0.2
 (Enter /sysapps/ubuntu-applications/gaussian/Gaussian/AVX2/g16/l401.exe)
 ExpMin= 3.60D-02 ExpMax= 8.59D+03 ExpMxC= 1.30D+03 IAcc=3 IRadAn=         5 AccDes= 0.00D+00
 Harris functional with IExCor=  402 and IRadAn=       5 diagonalized for initial guess.
 HarFok:  IExCor=  402 AccDes= 0.00D+00 IRadAn=         5 IDoV= 1 UseB2=F ITyADJ=14
 ICtDFT=  3500011 ScaDFX=  1.000000  1.000000  1.000000  1.000000
 FoFCou: FMM=F IPFlag=           0 FMFlag=      100000 FMFlg1=           0
         NFxFlg=           0 DoJE=T BraDBF=F KetDBF=T FulRan=T
         wScrn=  0.000000 ICntrl=       500 IOpCl=  0 I1Cent=   200000004 NGrid=           0
         NMat0=    1 NMatS0=      1 NMatT0=    0 NMatD0=    1 NMtDS0=    0 NMtDT0=    0
 Petite list used in FoFCou.
 Harris En= -925.223156386084    
 JPrj=0 DoOrth=F DoCkMO=F.
 Initial guess <Sx>= 0.0000 <Sy>= 0.0000 <Sz>= 0.0000 <S**2>=-0.0000 S=-0.0000
 Leave Link  401 at Sun Jan 21 08:11:00 2024, MaxMem=  4026531840 cpu:              25.4 elap:               3.3
 (Enter /sysapps/ubuntu-applications/gaussian/Gaussian/AVX2/g16/l502.exe)
 Integral symmetry usage will be decided dynamically.
 UHF open shell SCF:
 Using DIIS extrapolation, IDIIS=  1040.
 NGot=  4026531840 LenX=  4025709027 LenY=  4025302621
 Requested convergence on RMS density matrix=1.00D-08 within 128 cycles.
 Requested convergence on MAX density matrix=1.00D-06.
 Requested convergence on             energy=1.00D-06.
 No special actions if energy rises.
 Fock matrices will be formed incrementally for  20 cycles.

 Cycle   1  Pass 1  IDiag  1:
 FoFJK:  IHMeth= 1 ICntrl=       0 DoSepK=F KAlg= 0 I1Cent=           0 FoldK=F
 IRaf= 750000000 NMat=       1 IRICut=       1 DoRegI=T DoRafI=F ISym2E= 0 IDoP0=0 IntGTp=1.
 FoFCou: FMM=F IPFlag=           0 FMFlag=      100000 FMFlg1=           0
         NFxFlg=           0 DoJE=F BraDBF=F KetDBF=F FulRan=T
         wScrn=  0.000000 ICntrl=         0 IOpCl=  1 I1Cent=           0 NGrid=           0
         NMat0=    1 NMatS0=      1 NMatT0=    0 NMatD0=    1 NMtDS0=    0 NMtDT0=    0
 Symmetry not used in FoFCou.
 Inv3:  Mode=1 IEnd=    29484675.
 Iteration    1 A*A^-1 deviation from unit magnitude is 3.44D-15 for    181.
 Iteration    1 A*A^-1 deviation from orthogonality  is 2.22D-15 for   2712    114.
 Iteration    1 A^-1*A deviation from unit magnitude is 3.22D-15 for    604.
 Iteration    1 A^-1*A deviation from orthogonality  is 2.89D-15 for   2154    953.
 E= -924.503059836359    
 DIIS: error= 3.20D-02 at cycle   1 NSaved=   1.
 NSaved= 1 IEnMin= 1 EnMin= -924.503059836359     IErMin= 1 ErrMin= 3.20D-02
 ErrMax= 3.20D-02  0.00D+00 EMaxC= 1.00D-01 BMatC= 2.82D+00 BMatP= 2.82D+00
 IDIUse=3 WtCom= 6.80D-01 WtEn= 3.20D-01
 Coeff-Com:  0.100D+01
 Coeff-En:   0.100D+01
 Coeff:      0.100D+01
 Gap=     0.112 Goal=   None    Shift=    0.000
 Gap=     0.112 Goal=   None    Shift=    0.000
 GapD=    0.112 DampG=1.000 DampE=0.500 DampFc=0.5000 IDamp=-1.
 Damping current iteration by 5.00D-01
 RMSDP=1.69D-02 MaxDP=2.49D+00              OVMax= 2.32D-01

 Cycle   2  Pass 1  IDiag  1:
 RMSU=  7.49D-03    CP:  1.08D+00
 E= -924.715496995534     Delta-E=       -0.212437159175 Rises=F Damp=T
 DIIS: error= 7.65D-03 at cycle   2 NSaved=   2.
 NSaved= 2 IEnMin= 2 EnMin= -924.715496995534     IErMin= 2 ErrMin= 7.65D-03
 ErrMax= 7.65D-03  0.00D+00 EMaxC= 1.00D-01 BMatC= 3.19D-01 BMatP= 2.82D+00
 IDIUse=3 WtCom= 9.23D-01 WtEn= 7.65D-02
 Coeff-Com:  0.158D+00 0.842D+00
 Coeff-En:   0.274D+00 0.726D+00
 Coeff:      0.167D+00 0.833D+00
 Gap=     0.168 Goal=   None    Shift=    0.000
 Gap=     0.168 Goal=   None    Shift=    0.000
 RMSDP=8.46D-03 MaxDP=1.07D+00 DE=-2.12D-01 OVMax= 2.61D-01

 Cycle   3  Pass 1  IDiag  1:
 RMSU=  6.45D-03    CP:  9.88D-01  5.81D-01
 E= -925.054122967108     Delta-E=       -0.338625971574 Rises=F Damp=F
 DIIS: error= 1.06D-02 at cycle   3 NSaved=   3.
 NSaved= 3 IEnMin= 3 EnMin= -925.054122967108     IErMin= 2 ErrMin= 7.65D-03
 ErrMax= 1.06D-02  0.00D+00 EMaxC= 1.00D-01 BMatC= 3.53D-01 BMatP= 3.19D-01
 IDIUse=2 WtCom= 0.00D+00 WtEn= 1.00D+00
 Coeff-En:   0.000D+00 0.000D+00 0.100D+01
 Coeff:      0.000D+00 0.000D+00 0.100D+01
 Gap=     0.147 Goal=   None    Shift=    0.000
 Gap=     0.147 Goal=   None    Shift=    0.000
 RMSDP=1.16D-02 MaxDP=1.57D+00 DE=-3.39D-01 OVMax= 2.91D-01

 Cycle   4  Pass 1  IDiag  1:
 RMSU=  5.21D-03    CP:  1.13D+00  1.16D+00 -3.28D-02
 E= -924.708110186450     Delta-E=        0.346012780658 Rises=F Damp=F
 DIIS: error= 2.79D-02 at cycle   4 NSaved=   4.
 NSaved= 4 IEnMin= 3 EnMin= -925.054122967108     IErMin= 2 ErrMin= 7.65D-03
 ErrMax= 2.79D-02  0.00D+00 EMaxC= 1.00D-01 BMatC= 2.08D+00 BMatP= 3.19D-01
 IDIUse=2 WtCom= 0.00D+00 WtEn= 1.00D+00
 Coeff-En:   0.000D+00 0.000D+00 0.795D+00 0.205D+00
 Coeff:      0.000D+00 0.000D+00 0.795D+00 0.205D+00
 Gap=     0.130 Goal=   None    Shift=    0.000
 Gap=     0.130 Goal=   None    Shift=    0.000
 RMSDP=6.21D-03 MaxDP=8.80D-01 DE= 3.46D-01 OVMax= 9.34D-02

 Cycle   5  Pass 1  IDiag  1:
 RMSU=  1.29D-03    CP:  1.05D+00  8.60D-01  4.98D-01  4.85D-01
 E= -925.097007454639     Delta-E=       -0.388897268189 Rises=F Damp=F
 DIIS: error= 7.32D-03 at cycle   5 NSaved=   5.
 NSaved= 5 IEnMin= 5 EnMin= -925.097007454639     IErMin= 5 ErrMin= 7.32D-03
 ErrMax= 7.32D-03  0.00D+00 EMaxC= 1.00D-01 BMatC= 1.53D-01 BMatP= 3.19D-01
 IDIUse=3 WtCom= 9.27D-01 WtEn= 7.32D-02
 Coeff-Com:  0.237D-02 0.105D-01 0.315D+00-0.775D-01 0.750D+00
 Coeff-En:   0.000D+00 0.000D+00 0.343D+00 0.000D+00 0.657D+00
 Coeff:      0.219D-02 0.972D-02 0.317D+00-0.718D-01 0.743D+00
 Gap=     0.152 Goal=   None    Shift=    0.000
 Gap=     0.152 Goal=   None    Shift=    0.000
 RMSDP=2.95D-03 MaxDP=4.02D-01 DE=-3.89D-01 OVMax= 3.95D-02

 Cycle   6  Pass 1  IDiag  1:
 RMSU=  4.27D-04    CP:  1.01D+00  7.22D-01  6.85D-01  2.56D-01  6.73D-01
 E= -925.128138514975     Delta-E=       -0.031131060337 Rises=F Damp=F
 DIIS: error= 6.33D-04 at cycle   6 NSaved=   6.
 NSaved= 6 IEnMin= 6 EnMin= -925.128138514975     IErMin= 6 ErrMin= 6.33D-04
 ErrMax= 6.33D-04  0.00D+00 EMaxC= 1.00D-01 BMatC= 1.13D-03 BMatP= 1.53D-01
 IDIUse=3 WtCom= 9.94D-01 WtEn= 6.33D-03
 Coeff-Com: -0.316D-03 0.664D-02 0.159D+00-0.637D-01 0.467D+00 0.431D+00
 Coeff-En:   0.000D+00 0.000D+00 0.000D+00 0.000D+00 0.000D+00 0.100D+01
 Coeff:     -0.314D-03 0.660D-02 0.158D+00-0.633D-01 0.464D+00 0.435D+00
 Gap=     0.131 Goal=   None    Shift=    0.000
 Gap=     0.131 Goal=   None    Shift=    0.000
 RMSDP=2.41D-04 MaxDP=2.26D-02 DE=-3.11D-02 OVMax= 4.40D-03

 Cycle   7  Pass 1  IDiag  1:
 RMSU=  9.93D-05    CP:  1.01D+00  7.33D-01  6.83D-01  2.68D-01  7.54D-01
                    CP:  7.86D-01
 E= -925.128373950549     Delta-E=       -0.000235435574 Rises=F Damp=F
 DIIS: error= 1.90D-04 at cycle   7 NSaved=   7.
 NSaved= 7 IEnMin= 7 EnMin= -925.128373950549     IErMin= 7 ErrMin= 1.90D-04
 ErrMax= 1.90D-04  0.00D+00 EMaxC= 1.00D-01 BMatC= 7.14D-05 BMatP= 1.13D-03
 IDIUse=3 WtCom= 9.98D-01 WtEn= 1.90D-03
 Coeff-Com:  0.195D-04 0.179D-02 0.507D-01-0.249D-01 0.157D+00 0.193D+00
 Coeff-Com:  0.622D+00
 Coeff-En:   0.000D+00 0.000D+00 0.000D+00 0.000D+00 0.000D+00 0.000D+00
 Coeff-En:   0.100D+01
 Coeff:      0.195D-04 0.179D-02 0.506D-01-0.248D-01 0.157D+00 0.192D+00
 Coeff:      0.623D+00
 Gap=     0.131 Goal=   None    Shift=    0.000
 Gap=     0.131 Goal=   None    Shift=    0.000
 RMSDP=6.67D-05 MaxDP=7.20D-03 DE=-2.35D-04 OVMax= 1.03D-03

 Cycle   8  Pass 1  IDiag  1:
 RMSU=  3.51D-05    CP:  1.01D+00  7.34D-01  6.86D-01  2.68D-01  7.62D-01
                    CP:  7.59D-01  7.70D-01
 E= -925.128383986204     Delta-E=       -0.000010035654 Rises=F Damp=F
 DIIS: error= 1.07D-04 at cycle   8 NSaved=   8.
 NSaved= 8 IEnMin= 8 EnMin= -925.128383986204     IErMin= 8 ErrMin= 1.07D-04
 ErrMax= 1.07D-04  0.00D+00 EMaxC= 1.00D-01 BMatC= 2.07D-05 BMatP= 7.14D-05
 IDIUse=3 WtCom= 9.99D-01 WtEn= 1.07D-03
 Coeff-Com:  0.268D-03-0.493D-03 0.905D-02-0.479D-02 0.239D-01 0.474D-01
 Coeff-Com:  0.416D+00 0.509D+00
 Coeff-En:   0.000D+00 0.000D+00 0.000D+00 0.000D+00 0.000D+00 0.000D+00
 Coeff-En:   0.149D+00 0.851D+00
 Coeff:      0.268D-03-0.493D-03 0.904D-02-0.479D-02 0.238D-01 0.473D-01
 Coeff:      0.416D+00 0.509D+00
 Gap=     0.131 Goal=   None    Shift=    0.000
 Gap=     0.131 Goal=   None    Shift=    0.000
 RMSDP=3.23D-05 MaxDP=4.66D-03 DE=-1.00D-05 OVMax= 7.42D-04

 Cycle   9  Pass 1  IDiag  1:
 RMSU=  1.41D-05    CP:  1.01D+00  7.32D-01  6.87D-01  2.67D-01  7.54D-01
                    CP:  7.53D-01  7.71D-01  6.21D-01
 E= -925.128387863105     Delta-E=       -0.000003876901 Rises=F Damp=F
 DIIS: error= 2.57D-05 at cycle   9 NSaved=   9.
 NSaved= 9 IEnMin= 9 EnMin= -925.128387863105     IErMin= 9 ErrMin= 2.57D-05
 ErrMax= 2.57D-05  0.00D+00 EMaxC= 1.00D-01 BMatC= 1.32D-06 BMatP= 2.07D-05
 IDIUse=1 WtCom= 1.00D+00 WtEn= 0.00D+00
 Coeff-Com:  0.186D-03-0.603D-03 0.192D-02-0.854D-03 0.268D-02 0.139D-01
 Coeff-Com:  0.184D+00 0.292D+00 0.507D+00
 Coeff:      0.186D-03-0.603D-03 0.192D-02-0.854D-03 0.268D-02 0.139D-01
 Coeff:      0.184D+00 0.292D+00 0.507D+00
 Gap=     0.131 Goal=   None    Shift=    0.000
 Gap=     0.131 Goal=   None    Shift=    0.000
 RMSDP=8.72D-06 MaxDP=8.71D-04 DE=-3.88D-06 OVMax= 1.78D-04

 Cycle  10  Pass 1  IDiag  1:
 RMSU=  5.12D-06    CP:  1.01D+00  7.32D-01  6.88D-01  2.66D-01  7.53D-01
                    CP:  7.59D-01  7.85D-01  5.93D-01  8.74D-01
 E= -925.128388129692     Delta-E=       -0.000000266587 Rises=F Damp=F
 DIIS: error= 7.34D-06 at cycle  10 NSaved=  10.
 NSaved=10 IEnMin=10 EnMin= -925.128388129692     IErMin=10 ErrMin= 7.34D-06
 ErrMax= 7.34D-06  0.00D+00 EMaxC= 1.00D-01 BMatC= 1.01D-07 BMatP= 1.32D-06
 IDIUse=1 WtCom= 1.00D+00 WtEn= 0.00D+00
 Coeff-Com:  0.815D-04-0.306D-03 0.207D-03-0.417D-04-0.725D-03 0.442D-02
 Coeff-Com:  0.667D-01 0.119D+00 0.278D+00 0.532D+00
 Coeff:      0.815D-04-0.306D-03 0.207D-03-0.417D-04-0.725D-03 0.442D-02
 Coeff:      0.667D-01 0.119D+00 0.278D+00 0.532D+00
 Gap=     0.131 Goal=   None    Shift=    0.000
 Gap=     0.131 Goal=   None    Shift=    0.000
 RMSDP=2.37D-06 MaxDP=3.24D-04 DE=-2.67D-07 OVMax= 6.78D-05

 Cycle  11  Pass 1  IDiag  1:
 RMSU=  1.44D-06    CP:  1.01D+00  7.32D-01  6.88D-01  2.67D-01  7.53D-01
                    CP:  7.60D-01  7.83D-01  5.96D-01  9.06D-01  9.10D-01
 E= -925.128388151595     Delta-E=       -0.000000021903 Rises=F Damp=F
 DIIS: error= 3.30D-06 at cycle  11 NSaved=  11.
 NSaved=11 IEnMin=11 EnMin= -925.128388151595     IErMin=11 ErrMin= 3.30D-06
 ErrMax= 3.30D-06  0.00D+00 EMaxC= 1.00D-01 BMatC= 1.37D-08 BMatP= 1.01D-07
 IDIUse=1 WtCom= 1.00D+00 WtEn= 0.00D+00
 Coeff-Com:  0.142D-04-0.537D-04-0.239D-03 0.105D-03-0.805D-03 0.674D-03
 Coeff-Com:  0.546D-02 0.172D-01 0.690D-01 0.287D+00 0.621D+00
 Coeff:      0.142D-04-0.537D-04-0.239D-03 0.105D-03-0.805D-03 0.674D-03
 Coeff:      0.546D-02 0.172D-01 0.690D-01 0.287D+00 0.621D+00
 Gap=     0.131 Goal=   None    Shift=    0.000
 Gap=     0.131 Goal=   None    Shift=    0.000
 RMSDP=1.02D-06 MaxDP=1.18D-04 DE=-2.19D-08 OVMax= 4.45D-05

 Cycle  12  Pass 1  IDiag  1:
 RMSU=  4.38D-07    CP:  1.01D+00  7.32D-01  6.88D-01  2.67D-01  7.53D-01
                    CP:  7.59D-01  7.85D-01  6.04D-01  8.93D-01  8.83D-01
                    CP:  8.40D-01
 E= -925.128388154479     Delta-E=       -0.000000002884 Rises=F Damp=F
 DIIS: error= 1.03D-06 at cycle  12 NSaved=  12.
 NSaved=12 IEnMin=12 EnMin= -925.128388154479     IErMin=12 ErrMin= 1.03D-06
 ErrMax= 1.03D-06  0.00D+00 EMaxC= 1.00D-01 BMatC= 1.94D-09 BMatP= 1.37D-08
 IDIUse=1 WtCom= 1.00D+00 WtEn= 0.00D+00
 Coeff-Com:  0.377D-06-0.377D-05-0.209D-03 0.838D-04-0.552D-03 0.875D-05
 Coeff-Com: -0.245D-02 0.271D-03 0.173D-01 0.116D+00 0.375D+00 0.495D+00
 Coeff:      0.377D-06-0.377D-05-0.209D-03 0.838D-04-0.552D-03 0.875D-05
 Coeff:     -0.245D-02 0.271D-03 0.173D-01 0.116D+00 0.375D+00 0.495D+00
 Gap=     0.131 Goal=   None    Shift=    0.000
 Gap=     0.131 Goal=   None    Shift=    0.000
 RMSDP=2.76D-07 MaxDP=2.78D-05 DE=-2.88D-09 OVMax= 6.41D-06

 Cycle  13  Pass 1  IDiag  1:
 RMSU=  1.42D-07    CP:  1.01D+00  7.32D-01  6.88D-01  2.67D-01  7.53D-01
                    CP:  7.59D-01  7.84D-01  6.03D-01  9.02D-01  8.90D-01
                    CP:  8.70D-01  8.61D-01
 E= -925.128388154902     Delta-E=       -0.000000000423 Rises=F Damp=F
 DIIS: error= 2.56D-07 at cycle  13 NSaved=  13.
 NSaved=13 IEnMin=13 EnMin= -925.128388154902     IErMin=13 ErrMin= 2.56D-07
 ErrMax= 2.56D-07  0.00D+00 EMaxC= 1.00D-01 BMatC= 1.30D-10 BMatP= 1.94D-09
 IDIUse=1 WtCom= 1.00D+00 WtEn= 0.00D+00
 Coeff-Com: -0.297D-05 0.775D-05-0.335D-04 0.100D-04-0.414D-04 0.387D-04
 Coeff-Com: -0.190D-02-0.273D-02-0.395D-02-0.195D-02 0.749D-01 0.194D+00
 Coeff-Com:  0.742D+00
 Coeff:     -0.297D-05 0.775D-05-0.335D-04 0.100D-04-0.414D-04 0.387D-04
 Coeff:     -0.190D-02-0.273D-02-0.395D-02-0.195D-02 0.749D-01 0.194D+00
 Coeff:      0.742D+00
 Gap=     0.131 Goal=   None    Shift=    0.000
 Gap=     0.131 Goal=   None    Shift=    0.000
 RMSDP=1.01D-07 MaxDP=1.10D-05 DE=-4.23D-10 OVMax= 6.33D-06

 Cycle  14  Pass 1  IDiag  1:
 RMSU=  6.36D-08    CP:  1.01D+00  7.32D-01  6.88D-01  2.67D-01  7.53D-01
                    CP:  7.59D-01  7.84D-01  6.03D-01  9.03D-01  8.90D-01
                    CP:  8.74D-01  9.06D-01  7.97D-01
 E= -925.128388154937     Delta-E=       -0.000000000035 Rises=F Damp=F
 DIIS: error= 1.82D-07 at cycle  14 NSaved=  14.
 NSaved=14 IEnMin=14 EnMin= -925.128388154937     IErMin=14 ErrMin= 1.82D-07
 ErrMax= 1.82D-07  0.00D+00 EMaxC= 1.00D-01 BMatC= 4.20D-11 BMatP= 1.30D-10
 IDIUse=1 WtCom= 1.00D+00 WtEn= 0.00D+00
 Coeff-Com: -0.183D-05 0.474D-05-0.236D-05-0.302D-06 0.177D-04 0.810D-05
 Coeff-Com: -0.920D-03-0.170D-02-0.415D-02-0.146D-01 0.682D-02 0.480D-01
 Coeff-Com:  0.465D+00 0.502D+00
 Coeff:     -0.183D-05 0.474D-05-0.236D-05-0.302D-06 0.177D-04 0.810D-05
 Coeff:     -0.920D-03-0.170D-02-0.415D-02-0.146D-01 0.682D-02 0.480D-01
 Coeff:      0.465D+00 0.502D+00
 Gap=     0.131 Goal=   None    Shift=    0.000
 Gap=     0.131 Goal=   None    Shift=    0.000
 RMSDP=4.49D-08 MaxDP=5.39D-06 DE=-3.50D-11 OVMax= 1.30D-06

 Cycle  15  Pass 1  IDiag  1:
 RMSU=  1.66D-08    CP:  1.01D+00  7.32D-01  6.88D-01  2.67D-01  7.53D-01
                    CP:  7.59D-01  7.84D-01  6.03D-01  9.04D-01  8.92D-01
                    CP:  8.87D-01  9.03D-01  8.64D-01  8.68D-01
 E= -925.128388154961     Delta-E=       -0.000000000024 Rises=F Damp=F
 DIIS: error= 2.56D-08 at cycle  15 NSaved=  15.
 NSaved=15 IEnMin=15 EnMin= -925.128388154961     IErMin=15 ErrMin= 2.56D-08
 ErrMax= 2.56D-08  0.00D+00 EMaxC= 1.00D-01 BMatC= 1.99D-12 BMatP= 4.20D-11
 IDIUse=1 WtCom= 1.00D+00 WtEn= 0.00D+00
 Coeff-Com: -0.327D-06 0.956D-06 0.473D-05-0.196D-05 0.154D-04-0.126D-05
 Coeff-Com: -0.129D-03-0.347D-03-0.111D-02-0.615D-02-0.642D-02-0.129D-01
 Coeff-Com:  0.107D+00 0.182D+00 0.738D+00
 Coeff:     -0.327D-06 0.956D-06 0.473D-05-0.196D-05 0.154D-04-0.126D-05
 Coeff:     -0.129D-03-0.347D-03-0.111D-02-0.615D-02-0.642D-02-0.129D-01
 Coeff:      0.107D+00 0.182D+00 0.738D+00
 Gap=     0.131 Goal=   None    Shift=    0.000
 Gap=     0.131 Goal=   None    Shift=    0.000
 RMSDP=1.31D-08 MaxDP=2.24D-06 DE=-2.36D-11 OVMax= 5.13D-07

 Cycle  16  Pass 1  IDiag  1:
 RMSU=  5.86D-09    CP:  1.01D+00  7.32D-01  6.88D-01  2.67D-01  7.53D-01
                    CP:  7.59D-01  7.84D-01  6.03D-01  9.04D-01  8.91D-01
                    CP:  8.87D-01  9.09D-01  9.05D-01  8.61D-01  8.94D-01
 E= -925.128388154945     Delta-E=        0.000000000016 Rises=F Damp=F
 DIIS: error= 1.10D-08 at cycle  16 NSaved=  16.
 NSaved=16 IEnMin=15 EnMin= -925.128388154961     IErMin=16 ErrMin= 1.10D-08
 ErrMax= 1.10D-08  0.00D+00 EMaxC= 1.00D-01 BMatC= 2.47D-13 BMatP= 1.99D-12
 IDIUse=1 WtCom= 1.00D+00 WtEn= 0.00D+00
 Coeff-Com:  0.319D-07 0.162D-07 0.203D-05-0.686D-06 0.430D-05-0.272D-05
 Coeff-Com:  0.109D-04-0.263D-04-0.134D-03-0.152D-02-0.285D-02-0.998D-02
 Coeff-Com:  0.127D-01 0.339D-01 0.327D+00 0.641D+00
 Coeff:      0.319D-07 0.162D-07 0.203D-05-0.686D-06 0.430D-05-0.272D-05
 Coeff:      0.109D-04-0.263D-04-0.134D-03-0.152D-02-0.285D-02-0.998D-02
 Coeff:      0.127D-01 0.339D-01 0.327D+00 0.641D+00
 Gap=     0.131 Goal=   None    Shift=    0.000
 Gap=     0.131 Goal=   None    Shift=    0.000
 RMSDP=3.54D-09 MaxDP=2.22D-07 DE= 1.59D-11 OVMax= 9.42D-08

 Error on total polarization charges =  0.02086
 SCF Done:  E(UB3LYP) =  -925.128388155     A.U. after   16 cycles
            NFock= 16  Conv=0.35D-08     -V/T= 2.0044
 <Sx>= 0.0000 <Sy>= 0.0000 <Sz>= 0.0000 <S**2>=-0.0000 S=-0.0000
 <L.S>=  0.00000000000    
 KE= 9.211093714149D+02 PE=-5.223916617920D+03 EE= 1.842648203471D+03
 Annihilation of the first spin contaminant:
 S**2 before annihilation    -0.0000,   after     0.0000
 Leave Link  502 at Sun Jan 21 08:17:09 2024, MaxMem=  4026531840 cpu:            2932.2 elap:             368.5
 (Enter /sysapps/ubuntu-applications/gaussian/Gaussian/AVX2/g16/l601.exe)
 Copying SCF densities to generalized density rwf, IOpCl= 1 IROHF=0.

 **********************************************************************

            Population analysis using the SCF density.

 **********************************************************************

 Orbital symmetries:
 Alpha Orbitals:
       Occupied  (A) (A) (A) (A) (A) (A) (A) (A) (A) (A) (A) (A)
                 (A) (A) (A) (A) (A) (A) (A) (A) (A) (A) (A) (A)
                 (A) (A) (A) (A) (A) (A) (A) (A) (A) (A) (A) (A)
                 (A) (A) (A) (A) (A) (A) (A) (A) (A) (A) (A) (A)
                 (A) (A) (A) (A) (A) (A) (A) (A) (A) (A) (A) (A)
                 (A) (A) (A) (A) (A) (A) (A) (A) (A) (A) (A) (A)
                 (A) (A) (A) (A) (A)
       Virtual   (A) (A) (A) (A) (A) (A) (A) (A) (A) (A) (A) (A)
                 (A) (A) (A) (A) (A) (A) (A) (A) (A) (A) (A) (A)
                 (A) (A) (A) (A) (A) (A) (A) (A) (A) (A) (A) (A)
                 (A) (A) (A) (A) (A) (A) (A) (A) (A) (A) (A) (A)
                 (A) (A) (A) (A) (A) (A) (A) (A) (A) (A) (A) (A)
                 (A) (A) (A) (A) (A) (A) (A) (A) (A) (A) (A) (A)
                 (A) (A) (A) (A) (A) (A) (A) (A) (A) (A) (A) (A)
                 (A) (A) (A) (A) (A) (A) (A) (A) (A) (A) (A) (A)
                 (A) (A) (A) (A) (A) (A) (A) (A) (A) (A) (A) (A)
                 (A) (A) (A) (A) (A) (A) (A) (A) (A) (A) (A) (A)
                 (A) (A) (A) (A) (A) (A) (A) (A) (A) (A) (A) (A)
                 (A) (A) (A) (A) (A) (A) (A) (A) (A) (A) (A) (A)
                 (A) (A) (A) (A) (A) (A) (A) (A) (A) (A) (A) (A)
                 (A) (A) (A) (A) (A) (A) (A) (A) (A) (A) (A) (A)
                 (A) (A) (A) (A) (A) (A) (A) (A) (A) (A) (A) (A)
                 (A) (A) (A) (A) (A) (A) (A) (A) (A) (A) (A) (A)
                 (A) (A) (A) (A) (A) (A) (A) (A) (A) (A) (A) (A)
                 (A) (A) (A) (A) (A) (A) (A) (A) (A) (A) (A) (A)
                 (A) (A) (A) (A) (A) (A) (A) (A) (A) (A) (A) (A)
                 (A) (A) (A) (A) (A) (A) (A) (A) (A) (A) (A) (A)
                 (A) (A) (A) (A) (A) (A) (A) (A) (A) (A) (A) (A)
                 (A) (A) (A) (A) (A) (A) (A) (A) (A) (A) (A) (A)
                 (A) (A) (A) (A) (A) (A) (A) (A) (A) (A) (A) (A)
                 (A) (A) (A) (A) (A) (A) (A) (A) (A) (A) (A) (A)
                 (A) (A) (A) (A) (A) (A) (A) (A) (A) (A) (A) (A)
                 (A) (A) (A) (A) (A) (A) (A) (A) (A) (A) (A) (A)
                 (A) (A) (A) (A) (A) (A) (A) (A) (A) (A) (A) (A)
                 (A) (A) (A) (A) (A) (A) (A) (A) (A) (A) (A) (A)
                 (A) (A) (A) (A) (A) (A) (A) (A) (A) (A) (A) (A)
                 (A) (A) (A) (A) (A) (A) (A) (A) (A) (A) (A) (A)
                 (A) (A) (A) (A) (A) (A) (A) (A) (A) (A) (A) (A)
                 (A) (A) (A) (A) (A) (A) (A) (A) (A) (A) (A) (A)
                 (A) (A) (A) (A) (A) (A) (A) (A) (A) (A) (A) (A)
                 (A) (A) (A) (A) (A) (A) (A) (A) (A) (A) (A) (A)
                 (A) (A) (A) (A) (A) (A) (A) (A) (A) (A) (A) (A)
                 (A) (A) (A) (A) (A) (A) (A) (A) (A) (A) (A) (A)
                 (A) (A) (A) (A) (A) (A) (A) (A) (A) (A) (A) (A)
                 (A) (A) (A) (A) (A) (A) (A) (A) (A) (A) (A) (A)
                 (A) (A) (A) (A) (A) (A) (A) (A) (A) (A) (A) (A)
                 (A) (A) (A) (A) (A) (A) (A) (A) (A) (A) (A) (A)
                 (A) (A) (A) (A) (A) (A) (A) (A) (A) (A) (A) (A)
                 (A) (A) (A) (A) (A) (A) (A) (A) (A) (A) (A) (A)
                 (A) (A) (A) (A) (A) (A) (A) (A) (A) (A) (A) (A)
                 (A) (A) (A) (A) (A) (A) (A) (A) (A) (A) (A) (A)
                 (A) (A) (A) (A) (A) (A) (A)
 Beta  Orbitals:
       Occupied  (A) (A) (A) (A) (A) (A) (A) (A) (A) (A) (A) (A)
                 (A) (A) (A) (A) (A) (A) (A) (A) (A) (A) (A) (A)
                 (A) (A) (A) (A) (A) (A) (A) (A) (A) (A) (A) (A)
                 (A) (A) (A) (A) (A) (A) (A) (A) (A) (A) (A) (A)
                 (A) (A) (A) (A) (A) (A) (A) (A) (A) (A) (A) (A)
                 (A) (A) (A) (A) (A) (A) (A) (A) (A) (A) (A) (A)
                 (A) (A) (A) (A) (A)
       Virtual   (A) (A) (A) (A) (A) (A) (A) (A) (A) (A) (A) (A)
                 (A) (A) (A) (A) (A) (A) (A) (A) (A) (A) (A) (A)
                 (A) (A) (A) (A) (A) (A) (A) (A) (A) (A) (A) (A)
                 (A) (A) (A) (A) (A) (A) (A) (A) (A) (A) (A) (A)
                 (A) (A) (A) (A) (A) (A) (A) (A) (A) (A) (A) (A)
                 (A) (A) (A) (A) (A) (A) (A) (A) (A) (A) (A) (A)
                 (A) (A) (A) (A) (A) (A) (A) (A) (A) (A) (A) (A)
                 (A) (A) (A) (A) (A) (A) (A) (A) (A) (A) (A) (A)
                 (A) (A) (A) (A) (A) (A) (A) (A) (A) (A) (A) (A)
                 (A) (A) (A) (A) (A) (A) (A) (A) (A) (A) (A) (A)
                 (A) (A) (A) (A) (A) (A) (A) (A) (A) (A) (A) (A)
                 (A) (A) (A) (A) (A) (A) (A) (A) (A) (A) (A) (A)
                 (A) (A) (A) (A) (A) (A) (A) (A) (A) (A) (A) (A)
                 (A) (A) (A) (A) (A) (A) (A) (A) (A) (A) (A) (A)
                 (A) (A) (A) (A) (A) (A) (A) (A) (A) (A) (A) (A)
                 (A) (A) (A) (A) (A) (A) (A) (A) (A) (A) (A) (A)
                 (A) (A) (A) (A) (A) (A) (A) (A) (A) (A) (A) (A)
                 (A) (A) (A) (A) (A) (A) (A) (A) (A) (A) (A) (A)
                 (A) (A) (A) (A) (A) (A) (A) (A) (A) (A) (A) (A)
                 (A) (A) (A) (A) (A) (A) (A) (A) (A) (A) (A) (A)
                 (A) (A) (A) (A) (A) (A) (A) (A) (A) (A) (A) (A)
                 (A) (A) (A) (A) (A) (A) (A) (A) (A) (A) (A) (A)
                 (A) (A) (A) (A) (A) (A) (A) (A) (A) (A) (A) (A)
                 (A) (A) (A) (A) (A) (A) (A) (A) (A) (A) (A) (A)
                 (A) (A) (A) (A) (A) (A) (A) (A) (A) (A) (A) (A)
                 (A) (A) (A) (A) (A) (A) (A) (A) (A) (A) (A) (A)
                 (A) (A) (A) (A) (A) (A) (A) (A) (A) (A) (A) (A)
                 (A) (A) (A) (A) (A) (A) (A) (A) (A) (A) (A) (A)
                 (A) (A) (A) (A) (A) (A) (A) (A) (A) (A) (A) (A)
                 (A) (A) (A) (A) (A) (A) (A) (A) (A) (A) (A) (A)
                 (A) (A) (A) (A) (A) (A) (A) (A) (A) (A) (A) (A)
                 (A) (A) (A) (A) (A) (A) (A) (A) (A) (A) (A) (A)
                 (A) (A) (A) (A) (A) (A) (A) (A) (A) (A) (A) (A)
                 (A) (A) (A) (A) (A) (A) (A) (A) (A) (A) (A) (A)
                 (A) (A) (A) (A) (A) (A) (A) (A) (A) (A) (A) (A)
                 (A) (A) (A) (A) (A) (A) (A) (A) (A) (A) (A) (A)
                 (A) (A) (A) (A) (A) (A) (A) (A) (A) (A) (A) (A)
                 (A) (A) (A) (A) (A) (A) (A) (A) (A) (A) (A) (A)
                 (A) (A) (A) (A) (A) (A) (A) (A) (A) (A) (A) (A)
                 (A) (A) (A) (A) (A) (A) (A) (A) (A) (A) (A) (A)
                 (A) (A) (A) (A) (A) (A) (A) (A) (A) (A) (A) (A)
                 (A) (A) (A) (A) (A) (A) (A) (A) (A) (A) (A) (A)
                 (A) (A) (A) (A) (A) (A) (A) (A) (A) (A) (A) (A)
                 (A) (A) (A) (A) (A) (A) (A) (A) (A) (A) (A) (A)
                 (A) (A) (A) (A) (A) (A) (A)
 The electronic state is 1-A.
 Alpha  occ. eigenvalues --  -19.18060 -19.15132 -19.13081 -10.29518 -10.28230
 Alpha  occ. eigenvalues --  -10.26894 -10.21287 -10.21158 -10.20552 -10.20351
 Alpha  occ. eigenvalues --  -10.20180 -10.20012 -10.19969 -10.17805 -10.16904
 Alpha  occ. eigenvalues --  -10.16289 -10.16176 -10.16096 -10.15998 -10.15948
 Alpha  occ. eigenvalues --  -10.15530  -1.11059  -1.06908  -1.06435  -0.89482
 Alpha  occ. eigenvalues --   -0.84606  -0.81234  -0.79725  -0.78261  -0.77769
 Alpha  occ. eigenvalues --   -0.74899  -0.71458  -0.69097  -0.66352  -0.65215
 Alpha  occ. eigenvalues --   -0.62539  -0.60758  -0.59561  -0.57813  -0.57605
 Alpha  occ. eigenvalues --   -0.57404  -0.54459  -0.52086  -0.49993  -0.48475
 Alpha  occ. eigenvalues --   -0.48017  -0.47364  -0.46924  -0.46469  -0.45527
 Alpha  occ. eigenvalues --   -0.44997  -0.44009  -0.43051  -0.42810  -0.42364
 Alpha  occ. eigenvalues --   -0.42152  -0.40905  -0.40813  -0.39475  -0.38963
 Alpha  occ. eigenvalues --   -0.38334  -0.37905  -0.37402  -0.36417  -0.35931
 Alpha  occ. eigenvalues --   -0.35843  -0.33656  -0.33639  -0.32517  -0.32452
 Alpha  occ. eigenvalues --   -0.32059  -0.31162  -0.30412  -0.29169  -0.28232
 Alpha  occ. eigenvalues --   -0.28049  -0.25842
 Alpha virt. eigenvalues --   -0.12739  -0.05819  -0.02779  -0.00966  -0.00298
 Alpha virt. eigenvalues --    0.00196   0.00640   0.00849   0.01320   0.01609
 Alpha virt. eigenvalues --    0.02142   0.02334   0.02472   0.03134   0.03472
 Alpha virt. eigenvalues --    0.03982   0.04378   0.04418   0.04934   0.05282
 Alpha virt. eigenvalues --    0.05408   0.05981   0.06098   0.06386   0.06653
 Alpha virt. eigenvalues --    0.07172   0.07627   0.07854   0.07946   0.08484
 Alpha virt. eigenvalues --    0.08750   0.09364   0.09636   0.10163   0.10402
 Alpha virt. eigenvalues --    0.10731   0.11211   0.11326   0.11516   0.11754
 Alpha virt. eigenvalues --    0.12003   0.12192   0.12418   0.12618   0.12840
 Alpha virt. eigenvalues --    0.12857   0.13004   0.13241   0.13613   0.13712
 Alpha virt. eigenvalues --    0.13985   0.14121   0.14309   0.14382   0.14705
 Alpha virt. eigenvalues --    0.15200   0.15371   0.15378   0.15554   0.15982
 Alpha virt. eigenvalues --    0.16257   0.16356   0.16655   0.16730   0.17009
 Alpha virt. eigenvalues --    0.17050   0.17193   0.17735   0.18290   0.18315
 Alpha virt. eigenvalues --    0.18510   0.18761   0.19014   0.19409   0.19558
 Alpha virt. eigenvalues --    0.19941   0.20134   0.20324   0.20628   0.20750
 Alpha virt. eigenvalues --    0.20903   0.21136   0.21208   0.21633   0.21850
 Alpha virt. eigenvalues --    0.22332   0.22613   0.23002   0.23084   0.23376
 Alpha virt. eigenvalues --    0.23734   0.23828   0.24166   0.24577   0.24681
 Alpha virt. eigenvalues --    0.24966   0.25284   0.25475   0.26149   0.26740
 Alpha virt. eigenvalues --    0.26809   0.27301   0.27374   0.27888   0.28339
 Alpha virt. eigenvalues --    0.28451   0.28689   0.28927   0.29324   0.29642
 Alpha virt. eigenvalues --    0.29881   0.30018   0.30260   0.31026   0.31254
 Alpha virt. eigenvalues --    0.31579   0.31812   0.32221   0.32544   0.32744
 Alpha virt. eigenvalues --    0.33058   0.33428   0.33556   0.33785   0.34109
 Alpha virt. eigenvalues --    0.34635   0.34797   0.35069   0.35821   0.36058
 Alpha virt. eigenvalues --    0.36508   0.36939   0.37422   0.37447   0.38070
 Alpha virt. eigenvalues --    0.38182   0.38861   0.39842   0.40822   0.41008
 Alpha virt. eigenvalues --    0.41589   0.42087   0.42485   0.42952   0.43482
 Alpha virt. eigenvalues --    0.44447   0.45037   0.45308   0.45698   0.46007
 Alpha virt. eigenvalues --    0.48295   0.48801   0.49389   0.50068   0.51229
 Alpha virt. eigenvalues --    0.51655   0.52620   0.53140   0.53447   0.54556
 Alpha virt. eigenvalues --    0.55337   0.55873   0.56302   0.57174   0.57310
 Alpha virt. eigenvalues --    0.58345   0.59105   0.59327   0.59679   0.60696
 Alpha virt. eigenvalues --    0.61082   0.61910   0.62633   0.62814   0.63312
 Alpha virt. eigenvalues --    0.64023   0.64462   0.64909   0.65235   0.65418
 Alpha virt. eigenvalues --    0.65849   0.66363   0.67013   0.67064   0.67605
 Alpha virt. eigenvalues --    0.68220   0.68876   0.69457   0.69829   0.70019
 Alpha virt. eigenvalues --    0.70194   0.70830   0.71400   0.71902   0.72182
 Alpha virt. eigenvalues --    0.72221   0.72868   0.73291   0.73525   0.74167
 Alpha virt. eigenvalues --    0.74692   0.75179   0.75966   0.76450   0.76763
 Alpha virt. eigenvalues --    0.77185   0.77735   0.77909   0.78702   0.78949
 Alpha virt. eigenvalues --    0.79029   0.79974   0.80401   0.81350   0.82293
 Alpha virt. eigenvalues --    0.82632   0.84191   0.85349   0.86210   0.86737
 Alpha virt. eigenvalues --    0.87031   0.88228   0.88967   0.91080   0.92179
 Alpha virt. eigenvalues --    0.92620   0.92945   0.93634   0.94312   0.94995
 Alpha virt. eigenvalues --    0.95630   0.96216   0.97991   0.98327   1.00233
 Alpha virt. eigenvalues --    1.00532   1.01520   1.02341   1.02801   1.03684
 Alpha virt. eigenvalues --    1.04453   1.04837   1.05647   1.06295   1.06841
 Alpha virt. eigenvalues --    1.07103   1.08325   1.09262   1.10085   1.11087
 Alpha virt. eigenvalues --    1.11374   1.13177   1.14551   1.16262   1.17440
 Alpha virt. eigenvalues --    1.19083   1.19874   1.21748   1.21753   1.23116
 Alpha virt. eigenvalues --    1.24032   1.25049   1.25309   1.25696   1.25976
 Alpha virt. eigenvalues --    1.26548   1.27501   1.27855   1.28287   1.29514
 Alpha virt. eigenvalues --    1.30895   1.31839   1.35132   1.35382   1.38047
 Alpha virt. eigenvalues --    1.41786   1.42790   1.44232   1.44725   1.46565
 Alpha virt. eigenvalues --    1.47129   1.47877   1.48254   1.49292   1.50023
 Alpha virt. eigenvalues --    1.50779   1.51374   1.52084   1.53377   1.55331
 Alpha virt. eigenvalues --    1.56328   1.56937   1.57450   1.58408   1.58849
 Alpha virt. eigenvalues --    1.59387   1.59747   1.60181   1.61405   1.62420
 Alpha virt. eigenvalues --    1.62442   1.63639   1.64175   1.64601   1.65605
 Alpha virt. eigenvalues --    1.65906   1.66879   1.66952   1.67454   1.67630
 Alpha virt. eigenvalues --    1.68469   1.69305   1.69693   1.70761   1.72341
 Alpha virt. eigenvalues --    1.72537   1.72861   1.73365   1.73789   1.74273
 Alpha virt. eigenvalues --    1.74697   1.75117   1.75418   1.75538   1.76282
 Alpha virt. eigenvalues --    1.77215   1.78982   1.79497   1.81364   1.81708
 Alpha virt. eigenvalues --    1.84454   1.84778   1.85461   1.86088   1.87301
 Alpha virt. eigenvalues --    1.88506   1.88661   1.89987   1.90477   1.91530
 Alpha virt. eigenvalues --    1.91691   1.92337   1.93275   1.94370   1.94561
 Alpha virt. eigenvalues --    1.95723   1.96491   1.97071   1.99102   2.00489
 Alpha virt. eigenvalues --    2.02282   2.05250   2.06337   2.07171   2.08255
 Alpha virt. eigenvalues --    2.08680   2.09275   2.11538   2.11918   2.12299
 Alpha virt. eigenvalues --    2.13132   2.15187   2.17600   2.18202   2.19727
 Alpha virt. eigenvalues --    2.20510   2.21970   2.23378   2.25063   2.25645
 Alpha virt. eigenvalues --    2.27111   2.27876   2.28233   2.28509   2.31145
 Alpha virt. eigenvalues --    2.34073   2.34322   2.34883   2.35640   2.37248
 Alpha virt. eigenvalues --    2.38587   2.39710   2.41595   2.42071   2.43894
 Alpha virt. eigenvalues --    2.44532   2.44815   2.46786   2.47995   2.48433
 Alpha virt. eigenvalues --    2.50055   2.52713   2.53500   2.54718   2.55113
 Alpha virt. eigenvalues --    2.56426   2.58217   2.58972   2.59952   2.60403
 Alpha virt. eigenvalues --    2.61218   2.61975   2.62900   2.63331   2.63994
 Alpha virt. eigenvalues --    2.64667   2.65668   2.66401   2.66923   2.67768
 Alpha virt. eigenvalues --    2.69545   2.70580   2.71869   2.72483   2.73217
 Alpha virt. eigenvalues --    2.74523   2.74824   2.74996   2.75828   2.76438
 Alpha virt. eigenvalues --    2.77040   2.77076   2.78975   2.80437   2.80819
 Alpha virt. eigenvalues --    2.81737   2.81978   2.82783   2.83708   2.83803
 Alpha virt. eigenvalues --    2.84417   2.86191   2.86929   2.87481   2.88157
 Alpha virt. eigenvalues --    2.91091   2.91513   2.92550   2.93660   2.94417
 Alpha virt. eigenvalues --    2.95688   2.96316   2.97319   2.98134   2.98795
 Alpha virt. eigenvalues --    3.02117   3.02911   3.03869   3.06951   3.07749
 Alpha virt. eigenvalues --    3.08926   3.09962   3.11377   3.15522   3.16510
 Alpha virt. eigenvalues --    3.16652   3.17914   3.21413   3.22930   3.24614
 Alpha virt. eigenvalues --    3.27507   3.32091   3.33807   3.34635   3.36646
 Alpha virt. eigenvalues --    3.39870   3.43099   3.44573   3.47102   3.50368
 Alpha virt. eigenvalues --    3.51218   3.52368   3.54341   3.57566   3.57870
 Alpha virt. eigenvalues --    3.65795   3.77400   3.77898   3.78529   3.79741
 Alpha virt. eigenvalues --    3.80688   3.81596   3.82603   3.84003   3.85597
 Alpha virt. eigenvalues --    3.86218   3.88311   3.90961   3.92661   4.02512
 Alpha virt. eigenvalues --    4.05488   4.06336   4.08682   4.12900   4.15902
 Alpha virt. eigenvalues --    4.18390   4.19133   4.23400   4.26046   4.28587
 Alpha virt. eigenvalues --    4.34509   4.39639   4.40755   4.74122   4.83164
 Alpha virt. eigenvalues --    4.98350   5.05017   5.08392   5.23879   5.27401
 Alpha virt. eigenvalues --    5.49771   5.67453   5.78757   5.80110  23.54615
 Alpha virt. eigenvalues --   23.70560  23.84909  23.87878  23.89068  23.89735
 Alpha virt. eigenvalues --   23.90351  23.91241  23.91699  23.92650  23.93754
 Alpha virt. eigenvalues --   23.94552  23.96029  23.98514  24.04799  24.07618
 Alpha virt. eigenvalues --   24.14517  24.16607  49.92128  50.01777  50.06445
  Beta  occ. eigenvalues --  -19.18060 -19.15132 -19.13081 -10.29518 -10.28230
  Beta  occ. eigenvalues --  -10.26894 -10.21287 -10.21158 -10.20552 -10.20351
  Beta  occ. eigenvalues --  -10.20180 -10.20012 -10.19969 -10.17805 -10.16904
  Beta  occ. eigenvalues --  -10.16289 -10.16176 -10.16096 -10.15998 -10.15948
  Beta  occ. eigenvalues --  -10.15530  -1.11059  -1.06908  -1.06435  -0.89482
  Beta  occ. eigenvalues --   -0.84606  -0.81234  -0.79725  -0.78261  -0.77769
  Beta  occ. eigenvalues --   -0.74899  -0.71458  -0.69097  -0.66352  -0.65215
  Beta  occ. eigenvalues --   -0.62539  -0.60758  -0.59561  -0.57813  -0.57605
  Beta  occ. eigenvalues --   -0.57404  -0.54459  -0.52086  -0.49993  -0.48475
  Beta  occ. eigenvalues --   -0.48017  -0.47364  -0.46924  -0.46469  -0.45527
  Beta  occ. eigenvalues --   -0.44997  -0.44009  -0.43051  -0.42810  -0.42364
  Beta  occ. eigenvalues --   -0.42152  -0.40905  -0.40813  -0.39475  -0.38963
  Beta  occ. eigenvalues --   -0.38334  -0.37905  -0.37402  -0.36417  -0.35931
  Beta  occ. eigenvalues --   -0.35843  -0.33656  -0.33639  -0.32517  -0.32452
  Beta  occ. eigenvalues --   -0.32059  -0.31162  -0.30412  -0.29169  -0.28232
  Beta  occ. eigenvalues --   -0.28049  -0.25842
  Beta virt. eigenvalues --   -0.12739  -0.05819  -0.02779  -0.00966  -0.00298
  Beta virt. eigenvalues --    0.00196   0.00640   0.00849   0.01320   0.01609
  Beta virt. eigenvalues --    0.02142   0.02334   0.02472   0.03134   0.03472
  Beta virt. eigenvalues --    0.03982   0.04378   0.04418   0.04934   0.05282
  Beta virt. eigenvalues --    0.05408   0.05981   0.06098   0.06386   0.06653
  Beta virt. eigenvalues --    0.07172   0.07627   0.07854   0.07946   0.08484
  Beta virt. eigenvalues --    0.08750   0.09364   0.09636   0.10163   0.10402
  Beta virt. eigenvalues --    0.10731   0.11211   0.11326   0.11516   0.11754
  Beta virt. eigenvalues --    0.12003   0.12192   0.12418   0.12618   0.12840
  Beta virt. eigenvalues --    0.12857   0.13004   0.13241   0.13613   0.13712
  Beta virt. eigenvalues --    0.13985   0.14121   0.14309   0.14382   0.14705
  Beta virt. eigenvalues --    0.15200   0.15371   0.15378   0.15554   0.15982
  Beta virt. eigenvalues --    0.16257   0.16356   0.16655   0.16730   0.17009
  Beta virt. eigenvalues --    0.17050   0.17193   0.17735   0.18290   0.18315
  Beta virt. eigenvalues --    0.18510   0.18761   0.19014   0.19409   0.19558
  Beta virt. eigenvalues --    0.19941   0.20134   0.20324   0.20628   0.20750
  Beta virt. eigenvalues --    0.20903   0.21136   0.21208   0.21633   0.21850
  Beta virt. eigenvalues --    0.22332   0.22613   0.23002   0.23084   0.23376
  Beta virt. eigenvalues --    0.23734   0.23828   0.24166   0.24577   0.24681
  Beta virt. eigenvalues --    0.24966   0.25284   0.25475   0.26149   0.26740
  Beta virt. eigenvalues --    0.26809   0.27301   0.27374   0.27888   0.28339
  Beta virt. eigenvalues --    0.28451   0.28689   0.28927   0.29324   0.29642
  Beta virt. eigenvalues --    0.29881   0.30018   0.30260   0.31026   0.31254
  Beta virt. eigenvalues --    0.31579   0.31812   0.32221   0.32544   0.32744
  Beta virt. eigenvalues --    0.33058   0.33428   0.33556   0.33785   0.34109
  Beta virt. eigenvalues --    0.34635   0.34797   0.35069   0.35821   0.36058
  Beta virt. eigenvalues --    0.36508   0.36939   0.37422   0.37447   0.38070
  Beta virt. eigenvalues --    0.38182   0.38861   0.39842   0.40822   0.41008
  Beta virt. eigenvalues --    0.41589   0.42087   0.42485   0.42952   0.43482
  Beta virt. eigenvalues --    0.44447   0.45037   0.45308   0.45698   0.46007
  Beta virt. eigenvalues --    0.48295   0.48801   0.49389   0.50068   0.51229
  Beta virt. eigenvalues --    0.51655   0.52620   0.53140   0.53447   0.54556
  Beta virt. eigenvalues --    0.55337   0.55873   0.56302   0.57174   0.57310
  Beta virt. eigenvalues --    0.58345   0.59105   0.59327   0.59679   0.60696
  Beta virt. eigenvalues --    0.61082   0.61910   0.62633   0.62814   0.63312
  Beta virt. eigenvalues --    0.64023   0.64462   0.64909   0.65235   0.65418
  Beta virt. eigenvalues --    0.65849   0.66363   0.67013   0.67064   0.67605
  Beta virt. eigenvalues --    0.68220   0.68876   0.69457   0.69829   0.70019
  Beta virt. eigenvalues --    0.70194   0.70830   0.71400   0.71902   0.72182
  Beta virt. eigenvalues --    0.72221   0.72868   0.73291   0.73525   0.74167
  Beta virt. eigenvalues --    0.74692   0.75179   0.75966   0.76450   0.76763
  Beta virt. eigenvalues --    0.77185   0.77735   0.77909   0.78702   0.78949
  Beta virt. eigenvalues --    0.79029   0.79974   0.80401   0.81350   0.82293
  Beta virt. eigenvalues --    0.82632   0.84191   0.85349   0.86210   0.86737
  Beta virt. eigenvalues --    0.87031   0.88228   0.88967   0.91080   0.92179
  Beta virt. eigenvalues --    0.92620   0.92945   0.93634   0.94312   0.94995
  Beta virt. eigenvalues --    0.95630   0.96216   0.97991   0.98327   1.00233
  Beta virt. eigenvalues --    1.00532   1.01520   1.02341   1.02801   1.03684
  Beta virt. eigenvalues --    1.04453   1.04837   1.05647   1.06295   1.06841
  Beta virt. eigenvalues --    1.07103   1.08325   1.09262   1.10085   1.11087
  Beta virt. eigenvalues --    1.11374   1.13177   1.14551   1.16262   1.17440
  Beta virt. eigenvalues --    1.19083   1.19874   1.21748   1.21753   1.23116
  Beta virt. eigenvalues --    1.24032   1.25049   1.25309   1.25696   1.25976
  Beta virt. eigenvalues --    1.26548   1.27501   1.27855   1.28287   1.29514
  Beta virt. eigenvalues --    1.30895   1.31839   1.35132   1.35382   1.38047
  Beta virt. eigenvalues --    1.41786   1.42790   1.44232   1.44725   1.46565
  Beta virt. eigenvalues --    1.47129   1.47877   1.48254   1.49292   1.50023
  Beta virt. eigenvalues --    1.50779   1.51374   1.52084   1.53377   1.55331
  Beta virt. eigenvalues --    1.56328   1.56937   1.57450   1.58408   1.58849
  Beta virt. eigenvalues --    1.59387   1.59747   1.60181   1.61405   1.62420
  Beta virt. eigenvalues --    1.62442   1.63639   1.64175   1.64601   1.65605
  Beta virt. eigenvalues --    1.65906   1.66879   1.66952   1.67454   1.67630
  Beta virt. eigenvalues --    1.68469   1.69305   1.69693   1.70761   1.72341
  Beta virt. eigenvalues --    1.72537   1.72861   1.73365   1.73789   1.74273
  Beta virt. eigenvalues --    1.74697   1.75117   1.75418   1.75538   1.76282
  Beta virt. eigenvalues --    1.77215   1.78982   1.79497   1.81364   1.81708
  Beta virt. eigenvalues --    1.84454   1.84778   1.85461   1.86088   1.87301
  Beta virt. eigenvalues --    1.88506   1.88661   1.89987   1.90477   1.91530
  Beta virt. eigenvalues --    1.91691   1.92337   1.93275   1.94370   1.94561
  Beta virt. eigenvalues --    1.95723   1.96491   1.97071   1.99102   2.00489
  Beta virt. eigenvalues --    2.02282   2.05250   2.06337   2.07171   2.08255
  Beta virt. eigenvalues --    2.08680   2.09275   2.11538   2.11918   2.12299
  Beta virt. eigenvalues --    2.13132   2.15187   2.17600   2.18202   2.19727
  Beta virt. eigenvalues --    2.20510   2.21970   2.23378   2.25063   2.25645
  Beta virt. eigenvalues --    2.27111   2.27876   2.28233   2.28509   2.31145
  Beta virt. eigenvalues --    2.34073   2.34322   2.34883   2.35640   2.37248
  Beta virt. eigenvalues --    2.38587   2.39710   2.41595   2.42071   2.43894
  Beta virt. eigenvalues --    2.44532   2.44815   2.46786   2.47995   2.48433
  Beta virt. eigenvalues --    2.50055   2.52713   2.53500   2.54718   2.55113
  Beta virt. eigenvalues --    2.56426   2.58217   2.58972   2.59952   2.60403
  Beta virt. eigenvalues --    2.61218   2.61975   2.62900   2.63331   2.63994
  Beta virt. eigenvalues --    2.64667   2.65668   2.66401   2.66923   2.67768
  Beta virt. eigenvalues --    2.69545   2.70580   2.71869   2.72483   2.73217
  Beta virt. eigenvalues --    2.74523   2.74824   2.74996   2.75828   2.76438
  Beta virt. eigenvalues --    2.77040   2.77076   2.78975   2.80437   2.80819
  Beta virt. eigenvalues --    2.81737   2.81978   2.82783   2.83708   2.83803
  Beta virt. eigenvalues --    2.84417   2.86191   2.86929   2.87481   2.88157
  Beta virt. eigenvalues --    2.91091   2.91513   2.92550   2.93660   2.94417
  Beta virt. eigenvalues --    2.95688   2.96316   2.97319   2.98134   2.98795
  Beta virt. eigenvalues --    3.02117   3.02911   3.03869   3.06951   3.07749
  Beta virt. eigenvalues --    3.08926   3.09962   3.11377   3.15522   3.16510
  Beta virt. eigenvalues --    3.16652   3.17914   3.21413   3.22930   3.24614
  Beta virt. eigenvalues --    3.27507   3.32091   3.33807   3.34635   3.36646
  Beta virt. eigenvalues --    3.39870   3.43099   3.44573   3.47102   3.50368
  Beta virt. eigenvalues --    3.51218   3.52368   3.54341   3.57566   3.57870
  Beta virt. eigenvalues --    3.65795   3.77400   3.77898   3.78529   3.79741
  Beta virt. eigenvalues --    3.80688   3.81596   3.82603   3.84003   3.85597
  Beta virt. eigenvalues --    3.86218   3.88311   3.90961   3.92661   4.02512
  Beta virt. eigenvalues --    4.05488   4.06336   4.08682   4.12900   4.15902
  Beta virt. eigenvalues --    4.18390   4.19133   4.23400   4.26046   4.28587
  Beta virt. eigenvalues --    4.34509   4.39639   4.40755   4.74122   4.83164
  Beta virt. eigenvalues --    4.98350   5.05017   5.08392   5.23879   5.27401
  Beta virt. eigenvalues --    5.49771   5.67453   5.78757   5.80110  23.54615
  Beta virt. eigenvalues --   23.70560  23.84909  23.87878  23.89068  23.89735
  Beta virt. eigenvalues --   23.90351  23.91241  23.91699  23.92650  23.93754
  Beta virt. eigenvalues --   23.94552  23.96029  23.98514  24.04799  24.07618
[...]
                      3XX-RR        3YY-RR        3ZZ-RR
 --------------------------------------------------------
     1   Atom        0.000000      0.000000     -0.000000
     2   Atom        0.000000     -0.000000      0.000000
     3   Atom       -0.000000      0.000000     -0.000000
     4   Atom       -0.000000     -0.000000      0.000000
     5   Atom        0.000000      0.000000     -0.000000
     6   Atom       -0.000000      0.000000     -0.000000
     7   Atom        0.000000     -0.000000     -0.000000
     8   Atom       -0.000000      0.000000      0.000000
     9   Atom       -0.000000     -0.000000      0.000000
    10   Atom        0.000000     -0.000000     -0.000000
    11   Atom        0.000000     -0.000000     -0.000000
    12   Atom        0.000000     -0.000000     -0.000000
    13   Atom        0.000000     -0.000000     -0.000000
    14   Atom       -0.000000      0.000000      0.000000
    15   Atom        0.000000     -0.000000      0.000000
    16   Atom       -0.000000      0.000000      0.000000
    17   Atom       -0.000000      0.000000      0.000000
    18   Atom        0.000000     -0.000000     -0.000000
    19   Atom       -0.000000     -0.000000      0.000000
    20   Atom        0.000000     -0.000000     -0.000000
    21   Atom       -0.000000      0.000000      0.000000
    22   Atom       -0.000000     -0.000000      0.000000
    23   Atom        0.000000     -0.000000      0.000000
    24   Atom        0.000000     -0.000000      0.000000
    25   Atom       -0.000000      0.000000      0.000000
    26   Atom       -0.000000      0.000000      0.000000
    27   Atom       -0.000000      0.000000     -0.000000
    28   Atom       -0.000000      0.000000     -0.000000
    29   Atom        0.000000      0.000000     -0.000000
    30   Atom       -0.000000     -0.000000      0.000000
    31   Atom       -0.000000      0.000000      0.000000
    32   Atom       -0.000000      0.000000     -0.000000
    33   Atom       -0.000000      0.000000     -0.000000
    34   Atom        0.000000     -0.000000     -0.000000
    35   Atom        0.000000     -0.000000     -0.000000
    36   Atom        0.000000     -0.000000      0.000000
    37   Atom       -0.000000     -0.000000      0.000000
    38   Atom        0.000000     -0.000000      0.000000
    39   Atom       -0.000000      0.000000      0.000000
    40   Atom       -0.000000      0.000000     -0.000000
    41   Atom       -0.000000      0.000000     -0.000000
    42   Atom        0.000000     -0.000000      0.000000
    43   Atom        0.000000     -0.000000      0.000000
 --------------------------------------------------------
                        XY            XZ            YZ
 --------------------------------------------------------
     1   Atom        0.000000      0.000000      0.000000
     2   Atom        0.000000      0.000000      0.000000
     3   Atom        0.000000     -0.000000     -0.000000
     4   Atom        0.000000     -0.000000     -0.000000
     5   Atom        0.000000      0.000000      0.000000
     6   Atom        0.000000     -0.000000      0.000000
     7   Atom        0.000000     -0.000000      0.000000
     8   Atom        0.000000     -0.000000     -0.000000
     9   Atom       -0.000000      0.000000     -0.000000
    10   Atom        0.000000      0.000000      0.000000
    11   Atom       -0.000000     -0.000000     -0.000000
    12   Atom        0.000000     -0.000000     -0.000000
    13   Atom       -0.000000      0.000000     -0.000000
    14   Atom       -0.000000     -0.000000      0.000000
    15   Atom        0.000000      0.000000      0.000000
    16   Atom       -0.000000     -0.000000     -0.000000
    17   Atom       -0.000000     -0.000000     -0.000000
    18   Atom        0.000000     -0.000000     -0.000000
    19   Atom        0.000000      0.000000      0.000000
    20   Atom        0.000000      0.000000      0.000000
    21   Atom       -0.000000      0.000000     -0.000000
    22   Atom        0.000000      0.000000      0.000000
    23   Atom        0.000000     -0.000000      0.000000
    24   Atom        0.000000     -0.000000      0.000000
    25   Atom       -0.000000      0.000000      0.000000
    26   Atom       -0.000000     -0.000000     -0.000000
    27   Atom        0.000000      0.000000      0.000000
    28   Atom        0.000000     -0.000000     -0.000000
    29   Atom       -0.000000     -0.000000     -0.000000
    30   Atom        0.000000     -0.000000     -0.000000
    31   Atom        0.000000      0.000000      0.000000
    32   Atom        0.000000     -0.000000     -0.000000
    33   Atom       -0.000000     -0.000000      0.000000
    34   Atom        0.000000      0.000000      0.000000
    35   Atom        0.000000     -0.000000      0.000000
    36   Atom       -0.000000     -0.000000     -0.000000
    37   Atom       -0.000000     -0.000000     -0.000000
    38   Atom       -0.000000     -0.000000     -0.000000
    39   Atom       -0.000000      0.000000     -0.000000
    40   Atom        0.000000     -0.000000      0.000000
    41   Atom        0.000000      0.000000      0.000000
    42   Atom       -0.000000      0.000000     -0.000000
    43   Atom        0.000000     -0.000000     -0.000000
 --------------------------------------------------------


 ---------------------------------------------------------------------------------
              Anisotropic Spin Dipole Couplings in Principal Axis System
 ---------------------------------------------------------------------------------

       Atom             a.u.   MegaHertz   Gauss  10(-4) cm-1        Axes

              Baa    -0.0000    -0.000    -0.000    -0.000 -0.4404 -0.2764  0.8542
     1 C(13)  Bbb    -0.0000    -0.000    -0.000    -0.000  0.7009 -0.7004  0.1347
              Bcc     0.0000     0.000     0.000     0.000  0.5611  0.6580  0.5022
 
              Baa    -0.0000    -0.000    -0.000    -0.000 -0.4446  0.8926 -0.0750
     2 C(13)  Bbb     0.0000     0.000     0.000     0.000 -0.2253 -0.0304  0.9738
              Bcc     0.0000     0.000     0.000     0.000  0.8669  0.4499  0.2146
 
              Baa    -0.0000    -0.000    -0.000    -0.000  0.6323 -0.4741 -0.6127
     3 C(13)  Bbb    -0.0000    -0.000    -0.000    -0.000  0.7480  0.1676  0.6422
              Bcc     0.0000     0.000     0.000     0.000  0.2018  0.8644 -0.4606
 
              Baa    -0.0000    -0.000    -0.000    -0.000  0.8619 -0.1431  0.4865
     4 C(13)  Bbb    -0.0000    -0.000    -0.000    -0.000  0.0072  0.9627  0.2705
              Bcc     0.0000     0.000     0.000     0.000 -0.5071 -0.2296  0.8307
 
              Baa    -0.0000    -0.000    -0.000    -0.000 -0.4131 -0.0142  0.9106
     5 C(13)  Bbb    -0.0000    -0.000    -0.000    -0.000 -0.5956  0.7606 -0.2584
              Bcc     0.0000     0.000     0.000     0.000  0.6889  0.6491  0.3226
 
              Baa    -0.0000    -0.000    -0.000    -0.000  0.6858 -0.5071  0.5221
     6 C(13)  Bbb     0.0000     0.000     0.000     0.000 -0.6047  0.0024  0.7965
              Bcc     0.0000     0.000     0.000     0.000  0.4051  0.8619  0.3050
 
              Baa    -0.0000    -0.000    -0.000    -0.000 -0.4785  0.8733 -0.0916
     7 C(13)  Bbb    -0.0000    -0.000    -0.000    -0.000 -0.0360  0.0847  0.9958
              Bcc     0.0000     0.000     0.000     0.000  0.8774  0.4797 -0.0091
 
              Baa    -0.0000    -0.000    -0.000    -0.000  0.9000  0.1573  0.4065
     8 C(13)  Bbb    -0.0000    -0.000    -0.000    -0.000 -0.3593  0.7957  0.4876
              Bcc     0.0000     0.000     0.000     0.000 -0.2468 -0.5849  0.7726
 
              Baa    -0.0000    -0.000    -0.000    -0.000  0.4152  0.9078 -0.0586
     9 C(13)  Bbb    -0.0000    -0.000    -0.000    -0.000  0.8776 -0.4167 -0.2371
              Bcc     0.0000     0.000     0.000     0.000  0.2396 -0.0470  0.9697
 
              Baa    -0.0000    -0.000    -0.000    -0.000 -0.4127  0.9071  0.0834
    10 C(13)  Bbb    -0.0000    -0.000    -0.000    -0.000 -0.1189 -0.1444  0.9824
              Bcc     0.0000     0.000     0.000     0.000  0.9031  0.3955  0.1674
 
              Baa    -0.0000     0.000     0.000     0.000  0.4210  0.5676  0.7075
    11 O(17)  Bbb     0.0000    -0.000    -0.000    -0.000 -0.4788  0.8016 -0.3582
              Bcc     0.0000    -0.000    -0.000    -0.000  0.7704  0.1879 -0.6092
 
              Baa    -0.0000     0.000     0.000     0.000 -0.0377  0.7320  0.6802
    12 O(17)  Bbb    -0.0000     0.000     0.000     0.000  0.1632 -0.6671  0.7269
              Bcc     0.0000    -0.000    -0.000    -0.000  0.9859  0.1384 -0.0944
 
              Baa    -0.0000    -0.000    -0.000    -0.000 -0.5446  0.0830  0.8346
    13 H(1)   Bbb    -0.0000    -0.000    -0.000    -0.000  0.1319  0.9912 -0.0125
              Bcc     0.0000     0.000     0.000     0.000  0.8282 -0.1033  0.5508
 
              Baa    -0.0000    -0.000    -0.000    -0.000  0.9442  0.0657  0.3228
    14 H(1)   Bbb     0.0000     0.000     0.000     0.000 -0.0518  0.9973 -0.0515
              Bcc     0.0000     0.000     0.000     0.000 -0.3253  0.0319  0.9451
 
              Baa    -0.0000    -0.000    -0.000    -0.000 -0.1275  0.9311 -0.3419
    15 H(1)   Bbb     0.0000     0.000     0.000     0.000 -0.2622  0.3008  0.9169
              Bcc     0.0000     0.000     0.000     0.000  0.9566  0.2066  0.2058
 
              Baa    -0.0000    -0.000    -0.000    -0.000  0.8918  0.3589  0.2754
    16 H(1)   Bbb     0.0000     0.000     0.000     0.000 -0.2859 -0.0247  0.9579
              Bcc     0.0000     0.000     0.000     0.000 -0.3506  0.9331 -0.0806
 
              Baa    -0.0000     0.000     0.000     0.000  0.9099  0.1579  0.3835
    17 O(17)  Bbb     0.0000    -0.000    -0.000    -0.000 -0.1007  0.9811 -0.1651
              Bcc     0.0000    -0.000    -0.000    -0.000 -0.4024  0.1116  0.9087
 
              Baa    -0.0000    -0.000    -0.000    -0.000  0.1427  0.6402  0.7548
    18 C(13)  Bbb     0.0000     0.000     0.000     0.000  0.6506 -0.6354  0.4159
              Bcc     0.0000     0.000     0.000     0.000  0.7458  0.4317 -0.5073
 
              Baa    -0.0000    -0.000    -0.000    -0.000  0.8621  0.3304 -0.3843
    19 C(13)  Bbb    -0.0000    -0.000    -0.000    -0.000 -0.4003  0.9090 -0.1164
              Bcc     0.0000     0.000     0.000     0.000  0.3108  0.2542  0.9158
 
              Baa    -0.0000    -0.000    -0.000    -0.000  0.2481  0.7855 -0.5670
    20 C(13)  Bbb    -0.0000    -0.000    -0.000    -0.000 -0.4795  0.6081  0.6327
              Bcc     0.0000     0.000     0.000     0.000  0.8418  0.1149  0.5275
 
              Baa    -0.0000    -0.000    -0.000    -0.000  0.9809  0.1932 -0.0203
    21 C(13)  Bbb     0.0000     0.000     0.000     0.000 -0.0629  0.4146  0.9078
              Bcc     0.0000     0.000     0.000     0.000 -0.1838  0.8893 -0.4188
 
              Baa    -0.0000    -0.000    -0.000    -0.000  0.9205 -0.1588 -0.3569
    22 C(13)  Bbb    -0.0000    -0.000    -0.000    -0.000  0.1169  0.9838 -0.1361
              Bcc     0.0000     0.000     0.000     0.000  0.3728  0.0835  0.9242
 
              Baa    -0.0000    -0.000    -0.000    -0.000 -0.3627  0.8297 -0.4243
    23 H(1)   Bbb     0.0000     0.000     0.000     0.000  0.9288  0.3593 -0.0913
              Bcc     0.0000     0.000     0.000     0.000 -0.0767  0.4272  0.9009
 
              Baa    -0.0000    -0.000    -0.000    -0.000 -0.1346  0.9647 -0.2264
    24 H(1)   Bbb     0.0000     0.000     0.000     0.000  0.2807  0.2562  0.9250
              Bcc     0.0000     0.000     0.000     0.000  0.9503  0.0610 -0.3053
 
              Baa    -0.0000    -0.000    -0.000    -0.000  0.9910  0.1035 -0.0845
    25 H(1)   Bbb     0.0000     0.000     0.000     0.000 -0.1313  0.8711 -0.4732
              Bcc     0.0000     0.000     0.000     0.000  0.0246  0.4801  0.8769
 
              Baa    -0.0000    -0.000    -0.000    -0.000  0.9507  0.2385  0.1981
    26 H(1)   Bbb     0.0000     0.000     0.000     0.000 -0.2491  0.2068  0.9462
              Bcc     0.0000     0.000     0.000     0.000 -0.1847  0.9489 -0.2560
 
              Baa    -0.0000    -0.000    -0.000    -0.000  0.2361 -0.3451  0.9084
    27 H(1)   Bbb    -0.0000    -0.000    -0.000    -0.000  0.9443 -0.1390 -0.2982
              Bcc     0.0000     0.000     0.000     0.000  0.2291  0.9282  0.2930
 
              Baa    -0.0000    -0.000    -0.000    -0.000  0.4470  0.4997  0.7419
    28 H(1)   Bbb    -0.0000    -0.000    -0.000    -0.000  0.8942 -0.2736 -0.3545
              Bcc     0.0000     0.000     0.000     0.000  0.0258  0.8219 -0.5691
 
              Baa    -0.0000    -0.000    -0.000    -0.000  0.3373  0.1858  0.9229
    29 H(1)   Bbb     0.0000     0.000     0.000     0.000  0.2351  0.9326 -0.2737
              Bcc     0.0000     0.000     0.000     0.000  0.9116 -0.3093 -0.2709
 
              Baa    -0.0000    -0.000    -0.000    -0.000  0.1480  0.7631  0.6291
    30 H(1)   Bbb    -0.0000    -0.000    -0.000    -0.000  0.9242 -0.3331  0.1867
              Bcc     0.0000     0.000     0.000     0.000 -0.3521 -0.5538  0.7546
 
              Baa    -0.0000    -0.000    -0.000    -0.000  0.8869  0.0770 -0.4556
    31 H(1)   Bbb    -0.0000    -0.000    -0.000    -0.000  0.4013 -0.6168  0.6771
              Bcc     0.0000     0.000     0.000     0.000  0.2289  0.7833  0.5779
 
              Baa    -0.0000    -0.000    -0.000    -0.000  0.4074  0.3898  0.8259
    32 H(1)   Bbb    -0.0000    -0.000    -0.000    -0.000  0.8507 -0.4910 -0.1879
              Bcc     0.0000     0.000     0.000     0.000  0.3323  0.7791 -0.5316
 
              Baa    -0.0000    -0.000    -0.000    -0.000 -0.1329 -0.1928  0.9722
    33 H(1)   Bbb    -0.0000    -0.000    -0.000    -0.000  0.9741  0.1557  0.1640
              Bcc     0.0000     0.000     0.000     0.000 -0.1830  0.9688  0.1671
 
              Baa    -0.0000    -0.000    -0.000    -0.000 -0.4793  0.0884  0.8732
    34 C(13)  Bbb    -0.0000    -0.000    -0.000    -0.000 -0.1252  0.9779 -0.1677
              Bcc     0.0000     0.000     0.000     0.000  0.8687  0.1897  0.4576
 
              Baa    -0.0000    -0.000    -0.000    -0.000 -0.1319  0.8416 -0.5237
    35 H(1)   Bbb     0.0000     0.000     0.000     0.000 -0.1582  0.5037  0.8493
              Bcc     0.0000     0.000     0.000     0.000  0.9786  0.1949  0.0667
 
              Baa    -0.0000    -0.000    -0.000    -0.000  0.2945  0.8988  0.3247
    36 H(1)   Bbb     0.0000     0.000     0.000     0.000  0.2498 -0.4004  0.8816
              Bcc     0.0000     0.000     0.000     0.000  0.9224 -0.1785 -0.3424
 
              Baa    -0.0000    -0.000    -0.000    -0.000  0.6308  0.6521  0.4205
    37 C(13)  Bbb    -0.0000    -0.000    -0.000    -0.000 -0.5151  0.7572 -0.4016
              Bcc     0.0000     0.000     0.000     0.000 -0.5803  0.0367  0.8135
 
              Baa    -0.0000    -0.000    -0.000    -0.000  0.0812  0.9161  0.3926
    38 C(13)  Bbb     0.0000     0.000     0.000     0.000  0.5773 -0.3644  0.7307
              Bcc     0.0000     0.000     0.000     0.000  0.8124  0.1673 -0.5585
 
              Baa    -0.0000    -0.000    -0.000    -0.000  0.9217  0.3826 -0.0642
    39 H(1)   Bbb    -0.0000    -0.000    -0.000    -0.000 -0.2089  0.6289  0.7489
              Bcc     0.0000     0.000     0.000     0.000 -0.3269  0.6768 -0.6596
 
              Baa    -0.0000    -0.000    -0.000    -0.000  0.5132 -0.3971  0.7609
    40 H(1)   Bbb    -0.0000    -0.000    -0.000    -0.000  0.7614 -0.1985 -0.6171
              Bcc     0.0000     0.000     0.000     0.000  0.3961  0.8961  0.2005
 
              Baa    -0.0000    -0.000    -0.000    -0.000 -0.4905 -0.1145  0.8639
    41 H(1)   Bbb    -0.0000    -0.000    -0.000    -0.000  0.7393 -0.5795  0.3430
              Bcc     0.0000     0.000     0.000     0.000  0.4613  0.8069  0.3689
 
              Baa    -0.0000    -0.000    -0.000    -0.000  0.6318  0.7189 -0.2899
    42 H(1)   Bbb    -0.0000    -0.000    -0.000    -0.000 -0.2934  0.5679  0.7690
              Bcc     0.0000     0.000     0.000     0.000  0.7175 -0.4009  0.5697
 
              Baa    -0.0000    -0.000    -0.000    -0.000 -0.3337  0.9142 -0.2301
    43 H(1)   Bbb    -0.0000    -0.000    -0.000    -0.000  0.6036  0.3947  0.6927
              Bcc     0.0000     0.000     0.000     0.000  0.7241  0.0922 -0.6835
 

 ---------------------------------------------------------------------------------

 No NMR shielding tensors so no spin-rotation constants.
 Leave Link  601 at Sun Jan 21 08:17:10 2024, MaxMem=  4026531840 cpu:               3.8 elap:               0.6
 (Enter /sysapps/ubuntu-applications/gaussian/Gaussian/AVX2/g16/l9999.exe)
 1\1\GINC-ACIDSCN028\SP\UB3LYP\6-311++G(d,p)\C18H22O3\SELHAJJ1\21-Jan-2
 024\0\\#P UB3LYP/6-311++G(d,p) SCRF=(PCM,Solvent=n,n-DiMethylFormamide
 )\\Quinone PCM in DMF\\0,1\C,0,-0.281338,3.827727,-0.204914\C,0,-1.500
 92,3.219846,-0.486435\C,0,-1.540072,1.876522,-0.864621\C,0,0.899758,3.
 088256,-0.302959\C,0,0.863627,1.736602,-0.682982\C,0,-0.362989,1.13671
 9,-0.962435\C,0,2.199799,3.717391,-0.007543\C,0,3.430727,2.885075,-0.1
 32949\C,0,3.420631,1.576659,-0.488291\C,0,2.126915,0.929473,-0.791569\
 O,0,2.334106,4.88664,0.3359\O,0,2.07537,-0.246697,-1.123515\H,0,-0.225
 394,4.868184,0.090886\H,0,-2.419662,3.789991,-0.411959\H,0,-2.491277,1
 .404762,-1.083667\H,0,-0.375475,0.093932,-1.254227\O,0,4.565748,3.5464
 04,0.146659\C,0,4.67911,0.765634,-0.617852\C,0,5.24883,0.770992,-2.052
 859\C,0,6.525633,-0.066104,-2.180723\C,0,7.10954,-0.070135,-3.598\C,0,
 8.387318,-0.906492,-3.731681\H,0,4.297454,4.454019,0.385699\H,0,4.4582
 66,-0.2649,-0.328912\H,0,5.431359,1.159271,0.070505\H,0,5.455529,1.804
 48,-2.353219\H,0,4.487756,0.386009,-2.739786\H,0,6.312961,-1.097786,-1
 .873084\H,0,7.279736,0.313442,-1.47918\H,0,7.319389,0.962443,-3.905727
 \H,0,6.354378,-0.448784,-4.298705\H,0,8.177225,-1.938963,-3.423683\H,0
 ,9.14214,-0.528262,-3.030021\C,0,8.97258,-0.911572,-5.148215\H,0,9.182
 983,0.120819,-5.457124\H,0,8.218204,-1.289872,-5.850525\C,0,10.250303,
 -1.747569,-5.284062\C,0,10.827325,-1.746401,-6.702716\H,0,10.040338,-2
 .779254,-4.976355\H,0,11.004532,-1.369618,-4.583007\H,0,10.108868,-2.1
 5191,-7.422246\H,0,11.736629,-2.350767,-6.765621\H,0,11.080273,-0.7315
 76,-7.026\\Version=ES64L-G16RevA.03\State=1-A\HF=-925.1283882\S2=0.\S2
 -1=0.\S2A=0.\RMSD=3.537e-09\Dipole=-1.0093105,0.5575274,0.0049254\Quad
 rupole=15.7732633,-9.0782356,-6.6950277,-5.1726794,-1.7645871,0.005561
 8\PG=C01 [X(C18H22O3)]\\@


 EXPERIMENTALISTS THINK SILICON IS REALLY FUN TO USE
     ITS PLACE IN NOVEL COMPOUNDS IS CERTAIN TO AMUSE
 THEY SIT ALL DAY IN LABORATORIES MAKING ALL THIS SLUDGE
     "LOADED WITH THE SILICON THEY SAY", TO ME IT LOOKS LIKE FUDGE.
 FOR HAPPY THOUGH THEY BE WITH CRUD, I'D LIKE TO KNOW A LITTLE
      ABOUT THE PI BONDS ON THE EDGE AND SIGMAS IN THE MIDDLE.

 SO LETS DERIVE A WAVEFUNCTION.....6-31G*
     USE AN OPTIMAL GEOMETRY AND SEE WHERE ELECTRONS ARE.
 BUT WHAT OF CORRELATION?  ASKS THE WIRY LITTLE SKEPTIC.
     WE'LL THROW IN PERTURBATION AS AN ELECTRON ANTISEPTIC.
 AND WHEN THE PROGRAM GIVES US ANSWERS IN THEM WE CAN TRUST
     SINCE NOBODY CAN MAKE THE STUFF, WE HAVE NO CHOICE, WE MUST.

 SO THEORY GUYS HAVE GOT IT MADE, IN ROOMS FREE OF POLLUTION.
     INSTEAD OF PROBLEMS WITH THE REFLUX, THEY HAVE ONLY SOLUTIONS.
 AND WHEN THE FEDS ANNOUNCE THE LIST OF CARCINOGENIC TERRORS,
     THE THEORISTS SIT SAFELY AT THEIR TERMINALS FIXING ERRORS.
 IN OTHER WORDS, EXPERIMENTALISTS WILL LIKELY DIE OF CANCER
     FROM WORKING HARD YET FRUITLESSLY...TILL THEORY GIVES THE ANSWER.
          -- THOMAS A. HOLME, 1983
 Job cpu time:       0 days  0 hours 49 minutes 32.8 seconds.
 Elapsed time:       0 days  0 hours  6 minutes 14.5 seconds.
 File lengths (MBytes):  RWF=    527 Int=      0 D2E=      0 Chk=     29 Scr=      1
 Normal termination of Gaussian 16 at Sun Jan 21 08:17:10 2024.
