
Running Job 1 of 1 156-rad-SM12.in
qchem 156-rad-SM12.in_3796462.0 /expanse/lustre/scratch/selhajj/temp_project/qcscratch/28445591/qchem3796462/ 0
/cm/shared/apps/spack/cpu/opt/spack/linux-centos8-zen2/gcc-10.2.0/qchem-5.4-akfmr7b3t57bfs6qan3padb2wnb2i7cl/exe/qcprog.exe_s 156-rad-SM12.in_3796462.0 /expanse/lustre/scratch/selhajj/temp_project/qcscratch/28445591/qchem3796462/
                  Welcome to Q-Chem
     A Quantum Leap Into The Future Of Chemistry


 Q-Chem 5.4, Q-Chem, Inc., Pleasanton, CA (2021)

 License issued to: University of California, San Diego (site)

 E. Epifanovsky,  A. T. B. Gilbert,  Xintian Feng,  Joonho Lee,  Yuezhi Mao,  
 N. Mardirossian,  P. Pokhilko,  A. White,  M. Wormit,  M. P. Coons,  
 A. L. Dempwolff,  Zhengting Gan,  D. Hait,  P. R. Horn,  L. D. Jacobson,  
 I. Kaliman,  J. Kussmann,  A. W. Lange,  Ka Un Lao,  D. S. Levine,  Jie Liu,  
 S. C. McKenzie,  A. F. Morrison,  K. Nanda,  F. Plasser,  D. R. Rehn,  
 M. L. Vidal,  Zhi-Qiang You,  Ying Zhu,  B. Alam,  B. Albrecht,  
 A. Aldossary,  E. Alguire,  J. H. Andersen,  D. Barton,  K. Begam,  A. Behn,  
 Y. A. Bernard,  E. J. Berquist,  H. Burton,  A. Carreras,  K. Carter-Fenk,  
 R. Chakraborty,  A. D. Chien,  K. D. Closser,  V. Cofer-Shabica,  
 S. Dasgupta,  Jia Deng,  M. de Wergifosse,  M. Diedenhofen,  Hainam Do,  
 S. Ehlert,  Po-Tung Fang,  S. Fatehi,  Qingguo Feng,  J. Gayvert,  
 Qinghui Ge,  G. Gidofalvi,  M. Goldey,  J. Gomes,  C. Gonzalez-Espinoza,  
 S. Gulania,  A. Gunina,  M. W. D. Hanson-Heine,  P. H. P. Harbach,  
 A. W. Hauser,  M. F. Herbst,  M. Hernandez Vera,  M. Hodecker,  
 Z. C. Holden,  S. Houck,  Xunkun Huang,  Kerwin Hui,  B. C. Huynh,  
 M. Ivanov,  Hyunjun Ji,  Hanjie Jiang,  B. Kaduk,  S. Kaehler,  
 K. Khistyaev,  Jaehoon Kim,  P. Klunzinger,  Z. Koczor-Benda,  
 Joong Hoon Koh,  D. Kosenkov,  L. Koulias,  T. Kowalczyk,  C. M. Krauter,  
 K. Kue,  A. Kunitsa,  T. Kus,  A. Landau,  K. V. Lawler,  D. Lefrancois,  
 S. Lehtola,  Rain Li,  Yi-Pei Li,  Jiashu Liang,  M. Liebenthal,  
 Hung-Hsuan Lin,  You-Sheng Lin,  Fenglai Liu,  Kuan-Yu Liu,  
 M. Loipersberger,  A. Luenser,  A. Manjanath,  P. Manohar,  E. Mansoor,  
 S. F. Manzer,  Shan-Ping Mao,  A. V. Marenich,  T. Markovich,  S. Mason,  
 S. A. Maurer,  P. F. McLaughlin,  M. F. S. J. Menger,  J.-M. Mewes,  
 S. A. Mewes,  P. Morgante,  J. W. Mullinax,  T. S. Nguyen-Beck,  
 K. J. Oosterbaan,  G. Paran,  Alexander C. Paul,  Suranjan K. Paul,  
 F. Pavosevic,  Zheng Pei,  S. Prager,  E. I. Proynov,  E. Ramos,  B. Rana,  
 A. E. Rask,  A. Rettig,  R. M. Richard,  F. Rob,  E. Rossomme,  T. Scheele,  
 M. Scheurer,  M. Schneider,  N. Sergueev,  S. M. Sharada,  W. Skomorowski,  
 D. W. Small,  C. J. Stein,  Yu-Chuan Su,  E. J. Sundstrom,  Zhen Tao,  
 J. Thirman,  T. Tsuchimochi,  N. M. Tubman,  S. P. Veccham,  O. Vydrov,  
 J. Wenzel,  J. Witte,  A. Yamada,  Kun Yao,  S. Yeganeh,  S. R. Yost,  
 A. Zech,  Igor Ying Zhang,  Xing Zhang,  Yu Zhang,  D. Zuev,  
 A. Aspuru-Guzik,  A. T. Bell,  N. A. Besley,  K. B. Bravaya,  B. R. Brooks,  
 D. Casanova,  Jeng-Da Chai,  S. Coriani,  C. J. Cramer,  
 A. E. DePrince, III,  R. A. DiStasio Jr.,  A. Dreuw,  B. D. Dunietz,  
 T. R. Furlani,  W. A. Goddard III,  S. Grimme,  S. Hammes-Schiffer,  
 T. Head-Gordon,  W. J. Hehre,  Chao-Ping Hsu,  T.-C. Jagau,  Yousung Jung,  
 A. Klamt,  Jing Kong,  D. S. Lambrecht,  WanZhen Liang,  N. J. Mayhall,  
 C. W. McCurdy,  J. B. Neaton,  C. Ochsenfeld,  J. A. Parkhill,  R. Peverati,  
 V. A. Rassolov,  Yihan Shao,  L. V. Slipchenko,  T. Stauch,  R. P. Steele,  
 J. E. Subotnik,  A. J. W. Thom,  A. Tkatchenko,  D. G. Truhlar,  
 T. Van Voorhis,  T. A. Wesolowski,  K. B. Whaley,  H. L. Woodcock III,  
 P. M. Zimmerman,  S. Faraji,  P. M. W. Gill,  M. Head-Gordon,  
 J. M. Herbert,  A. I. Krylov

 Contributors to earlier versions of Q-Chem not listed above: 
 R. D. Adamson,  B. Austin,  R. Baer,  J. Baker,  G. J. O. Beran,  
 K. Brandhorst,  S. T. Brown,  E. F. C. Byrd,  A. K. Chakraborty,  
 G. K. L. Chan,  Chun-Min Chang,  Yunqing Chen,  C.-L. Cheng,  
 Siu Hung Chien,  D. M. Chipman,  D. L. Crittenden,  H. Dachsel,  
 R. J. Doerksen,  A. D. Dutoi,  R. G. Edgar,  J. Fosso-Tande,  
 L. Fusti-Molnar,  D. Ghosh,  A. Ghysels,  A. Golubeva-Zadorozhnaya,  
 J. Gonthier,  M. S. Gordon,  S. R. Gwaltney,  G. Hawkins,  J. E. Herr,  
 A. Heyden,  S. Hirata,  E. G. Hohenstein,  G. Kedziora,  F. J. Keil,  
 C. Kelley,  Jihan Kim,  R. A. King,  R. Z. Khaliullin,  P. P. Korambath,  
 W. Kurlancheek,  A. Laurent,  A. M. Lee,  M. S. Lee,  S. V. Levchenko,  
 Ching Yeh Lin,  D. Liotard,  E. Livshits,  R. C. Lochan,  I. Lotan,  
 L. A. Martinez-Martinez,  P. E. Maslen,  N. Nair,  D. P. O'Neill,  
 D. Neuhauser,  E. Neuscamman,  C. M. Oana,  R. Olivares-Amaya,  R. Olson,  
 T. M. Perrine,  B. Peters,  P. A. Pieniazek,  A. Prociuk,  Y. M. Rhee,  
 J. Ritchie,  M. A. Rohrdanz,  E. Rosta,  N. J. Russ,  H. F. Schaefer III,  
 M. W. Schmidt,  N. E. Schultz,  S. Sharma,  N. Shenvi,  C. D. Sherrill,  
 A. C. Simmonett,  A. Sodt,  T. Stein,  D. Stuck,  K. S. Thanthiriwatte,  
 V. Vanovschi,  L. Vogt,  Tao Wang,  A. Warshel,  M. A. Watson,  
 C. F. Williams,  Q. Wu,  X. Xu,  Jun Yang,  W. Zhang,  Yan Zhao

 Please cite Q-Chem as follows:
 Y. Shao et al., Mol. Phys. 113, 184-215 (2015)
 DOI: 10.1080/00268976.2014.952696

 Q-Chem 5.4.0 for Intel X86 EM64T Linux

 Parts of Q-Chem use Armadillo 9.800.1 (Horizon Scraper).
 http://arma.sourceforge.net/

 Q-Chem begins on Sat Feb  3 11:23:27 2024  

 Host: 
0

     Scratch files written to /expanse/lustre/scratch/selhajj/temp_project/qcscratch/28445591/qchem3796462//
 May1621 |scratch|qcdevops|jenkins|workspace|build_RNUM    
 Processing $rem in /cm/shared/apps/spack/cpu/opt/spack/linux-centos8-zen2/gcc-10.2.0/qchem-5.4-akfmr7b3t57bfs6qan3padb2wnb2i7cl/config/preferences:
 Processing $rem in /home/selhajj/.qchemrc:
 Symmetry turned off for PCM/SM12/SMD calculation
 Method-specific promolecule density matrix will be built for SM12 calculation

 Checking the input file for inconsistencies... 	...done.

--------------------------------------------------------------
User input:
--------------------------------------------------------------
$molecule
-1 2
C                 -1.8396950000      1.9160740000     -5.1437300000
C                 -1.7480750000      0.6001200000     -5.5504170000
C                 -1.3240830000     -0.3904920000     -4.6371730000
C                 -1.5147440000      2.2955510000     -3.8222270000
C                 -1.0916460000      1.3015430000     -2.9053700000
C                 -1.0034910000     -0.0395750000     -3.3411020000
C                 -1.6146750000      3.6987880000     -3.4334620000
C                 -0.7578940000      1.6304950000     -1.5234770000
C                 -1.2496000000      4.0463960000     -2.0639820000
C                 -0.8689620000      3.0222160000     -1.1145020000
C                 -1.2948210000      5.4141170000     -1.6406370000
C                 -1.0057700000      5.7230710000     -0.3150780000
C                 -0.6690180000      4.7394430000      0.6164920000
C                 -0.5923780000      3.3922950000      0.2501100000
O                 -2.0151090000      4.5510630000     -4.2866450000
O                 -0.3865950000      0.6966000000     -0.7394400000
N                 -1.5660360000      6.4514510000     -2.5387620000
N                 -0.2768020000      2.4250900000      1.1810640000
C                  0.2233820000      2.7290130000      2.4917320000
H                 -2.1601880000      2.6981960000     -5.8215670000
H                 -2.0002220000      0.3257280000     -6.5706500000
H                 -1.2513000000     -1.4264950000     -4.9552700000
H                 -0.6777050000     -0.7776920000     -2.6180380000
H                 -1.0296810000      6.7649520000     -0.0051780000
H                 -0.4624120000      5.0326840000      1.6385410000
H                 -1.9558260000      6.1050130000     -3.4168800000
H                 -2.0320620000      7.2472980000     -2.1282490000
H                 -0.1496660000      1.4993270000      0.7646770000
H                 -0.5244910000      3.2383020000      3.1182710000
H                  1.1216720000      3.3698880000      2.4743390000
H                  0.4860410000      1.7931090000      2.9900890000
$end

$rem
BASIS  =  6-311++G(d,p)
GUI  =  2
JOB_TYPE  =  SP
METHOD  =  B3LYP
SCF_CONVERGENCE  = 8
SOLVENT_METHOD = sm12
$end

$smx
solvent dimethylformamide
charges CM5
$end





--------------------------------------------------------------
 ----------------------------------------------------------------
             Standard Nuclear Orientation (Angstroms)
    I     Atom           X                Y                Z
 ----------------------------------------------------------------
    1      C      -1.8396950000     1.9160740000    -5.1437300000
    2      C      -1.7480750000     0.6001200000    -5.5504170000
    3      C      -1.3240830000    -0.3904920000    -4.6371730000
    4      C      -1.5147440000     2.2955510000    -3.8222270000
    5      C      -1.0916460000     1.3015430000    -2.9053700000
    6      C      -1.0034910000    -0.0395750000    -3.3411020000
    7      C      -1.6146750000     3.6987880000    -3.4334620000
    8      C      -0.7578940000     1.6304950000    -1.5234770000
    9      C      -1.2496000000     4.0463960000    -2.0639820000
   10      C      -0.8689620000     3.0222160000    -1.1145020000
   11      C      -1.2948210000     5.4141170000    -1.6406370000
   12      C      -1.0057700000     5.7230710000    -0.3150780000
   13      C      -0.6690180000     4.7394430000     0.6164920000
   14      C      -0.5923780000     3.3922950000     0.2501100000
   15      O      -2.0151090000     4.5510630000    -4.2866450000
   16      O      -0.3865950000     0.6966000000    -0.7394400000
   17      N      -1.5660360000     6.4514510000    -2.5387620000
   18      N      -0.2768020000     2.4250900000     1.1810640000
   19      C       0.2233820000     2.7290130000     2.4917320000
   20      H      -2.1601880000     2.6981960000    -5.8215670000
   21      H      -2.0002220000     0.3257280000    -6.5706500000
   22      H      -1.2513000000    -1.4264950000    -4.9552700000
   23      H      -0.6777050000    -0.7776920000    -2.6180380000
   24      H      -1.0296810000     6.7649520000    -0.0051780000
   25      H      -0.4624120000     5.0326840000     1.6385410000
   26      H      -1.9558260000     6.1050130000    -3.4168800000
   27      H      -2.0320620000     7.2472980000    -2.1282490000
   28      H      -0.1496660000     1.4993270000     0.7646770000
   29      H      -0.5244910000     3.2383020000     3.1182710000
   30      H       1.1216720000     3.3698880000     2.4743390000
   31      H       0.4860410000     1.7931090000     2.9900890000
 ----------------------------------------------------------------
 Nuclear Repulsion Energy =        1354.73900412 hartrees
 There are       67 alpha and       66 beta electrons
 Requested basis set is 6-311++G(d,p)
 There are 174 shells and 502 basis functions

 Total QAlloc Memory Limit   8000 MB
 Mega-Array Size       188 MB
 MEM_STATIC part       192 MB
 A cutoff of  1.0D-11 yielded  11501 shell pairs
 There are     99615 function pairs (    106699 Cartesian)
 Smallest overlap matrix eigenvalue = 4.00E-08

 Q-Chem warning in module stvman/mkSTV.C, line 323:

 Overlap eigenvalue is smaller than square root of threshold
 Use THRESH >= 12 to get rid of this warning

 Linear dependence detected in AO basis
 Tighter screening thresholds may be required for diffuse basis sets
 Use S2THRESH > 14 and THRESH = 14 in case of SCF convergence issues
 Number of orthogonalized atomic orbitals = 494
 Maximum deviation from orthogonality = 8.361E-11

 Scale SEOQF with 1.000000e-01/1.000000e-02/1.000000e-02

 Standard Electronic Orientation quadrupole field applied
 Nucleus-field energy     =     0.0000000060 hartrees
 ================ Generating on-the-fly Promolecule Density  ================
Attempting to make child job directory: /expanse/lustre/scratch/selhajj/temp_project/qcscratch/28445591/qchem3796462//Frg1/
Attempting to make child job directory: /expanse/lustre/scratch/selhajj/temp_project/qcscratch/28445591/qchem3796462//Frg2/
Attempting to make child job directory: /expanse/lustre/scratch/selhajj/temp_project/qcscratch/28445591/qchem3796462//Frg3/
Attempting to make child job directory: /expanse/lustre/scratch/selhajj/temp_project/qcscratch/28445591/qchem3796462//Frg4/
Creating input file /expanse/lustre/scratch/selhajj/temp_project/qcscratch/28445591/qchem3796462/Frg1.input
using default PutDataFrgm: nothing
calling putenv with: QCSCRATCH=/expanse/lustre/scratch/selhajj/temp_project/qcscratch/28445591/qchem3796462/ 
Spawning Job For Fragment 0
Done Job For Fragment 0
calling putenv with: QCSCRATCH=/expanse/lustre/scratch/selhajj/temp_project/qcscratch/28445591 
calling putenv with: QCTHREADS=8 
Creating input file /expanse/lustre/scratch/selhajj/temp_project/qcscratch/28445591/qchem3796462/Frg2.input
using default PutDataFrgm: nothing
calling putenv with: QCSCRATCH=/expanse/lustre/scratch/selhajj/temp_project/qcscratch/28445591/qchem3796462/ 
Spawning Job For Fragment 1
Done Job For Fragment 1
calling putenv with: QCSCRATCH=/expanse/lustre/scratch/selhajj/temp_project/qcscratch/28445591 
calling putenv with: QCTHREADS=8 
Creating input file /expanse/lustre/scratch/selhajj/temp_project/qcscratch/28445591/qchem3796462/Frg3.input
using default PutDataFrgm: nothing
calling putenv with: QCSCRATCH=/expanse/lustre/scratch/selhajj/temp_project/qcscratch/28445591/qchem3796462/ 
Spawning Job For Fragment 2
Done Job For Fragment 2
calling putenv with: QCSCRATCH=/expanse/lustre/scratch/selhajj/temp_project/qcscratch/28445591 
calling putenv with: QCTHREADS=8 
Creating input file /expanse/lustre/scratch/selhajj/temp_project/qcscratch/28445591/qchem3796462/Frg4.input
using default PutDataFrgm: nothing
calling putenv with: QCSCRATCH=/expanse/lustre/scratch/selhajj/temp_project/qcscratch/28445591/qchem3796462/ 
Spawning Job For Fragment 3
Done Job For Fragment 3
calling putenv with: QCSCRATCH=/expanse/lustre/scratch/selhajj/temp_project/qcscratch/28445591 
calling putenv with: QCTHREADS=8 
 Time for running child jobs:  CPU 0.01 s  wall 35.57 s
 ============= Method Specific Promolecule Density Constructed =============
 Guess from superposition of atomic densities
 Warning:  Energy on first SCF cycle will be non-variational
 SAD guess density has 132.000000 electrons

 -----------------------------------------------------------------------
  General SCF calculation program by
  Eric Jon Sundstrom, Paul Horn, Yuezhi Mao, Dmitri Zuev, Alec White,
  David Stuck, Shaama M.S., Shane Yost, Joonho Lee, David Small,
  Daniel Levine, Susi Lehtola, Hugh Burton, Evgeny Epifanovsky,
  Bang C. Huynh
 -----------------------------------------------------------------------
 Exchange:     0.2000 Hartree-Fock + 0.0800 Slater + 0.7200 B88
 Correlation:  0.1900 VWN1RPA + 0.8100 LYP
 Using SG-1 standard quadrature grid
 using 8 threads for integral computing
 -------------------------------------------------------
 OpenMP Integral computing Module                
 Release: version 1.0, May 2013, Q-Chem Inc. Pittsburgh 
 -------------------------------------------------------
 
 SM12 calculation using CM5 charges
 Citation of the SM12 model:
 Marenich, A.V.; Cramer, C.J.; Truhlar, D.G.
 J. Chem. Theory Comput. 2013, 9, 609-612.
 iSolventCode=          91
 Solvent: dimethylformamide                                               
 
Hirshfeld: reading atomic densities from disk.
warning:  vdwdata pointer should have been initialzed before dftman
 Inaccurate integrated density:
   Number of electrons =   133
   Numerical integral  =   131.999572150699
   Relative error      =    -0.7522013905 %

 Charges (in A.U.) from CM5PAC (Nov. 11, 2011)
 -----------------------------------------------
 Center     Atomic      CM5         Hirshfeld
 Number     Number      Charge      Charge
 -----------------------------------------------
    1          6       -0.051873   -0.000336
    2          6       -0.057758   -0.002672
    3          6       -0.057862   -0.002777
    4          6       -0.001542    0.000153
    5          6       -0.001622    0.000075
    6          6       -0.051856   -0.000316
    7          6        0.037949    0.007723
    8          6        0.037478    0.007643
    9          6        0.006927    0.001934
   10          6        0.007473    0.002153
   11          6        0.054929    0.002735
   12          6       -0.048356   -0.000847
   13          6       -0.048421   -0.000508
   14          6        0.061793    0.003159
   15          8       -0.082395   -0.019940
   16          8       -0.085551   -0.020109
   17          7       -0.462407   -0.018336
   18          7       -0.379690   -0.020642
   19          6       -0.087154   -0.001317
   20          1        0.067128    0.005538
   21          1        0.058502    0.003056
   22          1        0.058485    0.003040
   23          1        0.067194    0.005543
   24          1        0.062644    0.003572
   25          1        0.063324    0.002927
   26          1        0.218760    0.010235
   27          1        0.197961    0.007695
   28          1        0.225377    0.010155
   29          1        0.063175    0.003560
   30          1        0.062899    0.003822
   31          1        0.064917    0.003507
 -----------------------------------------------

 Dipole moment (in Debye)
 -----------------------------------------------
                 X        Y        Z     Total
 -----------------------------------------------
 CM5         -0.3022   0.0454   0.3741   0.4830
 Hirshfeld    0.0027   0.0317   0.0527   0.0615
 -----------------------------------------------

 A unrestricted SCF calculation will be
 performed using DIIS
 SCF converges when DIIS error is below 1.0e-08
 ---------------------------------------
  Cycle       Energy         DIIS error
 ---------------------------------------
Hirshfeld: reading atomic densities from disk.

 Charges (in A.U.) from CM5PAC (Nov. 11, 2011)
 -----------------------------------------------
 Center     Atomic      CM5         Hirshfeld
 Number     Number      Charge      Charge
 -----------------------------------------------
    1          6       -0.176225   -0.124688
    2          6       -0.179972   -0.124886
    3          6       -0.179031   -0.123947
    4          6       -0.083094   -0.081398
    5          6       -0.081675   -0.079977
    6          6       -0.177385   -0.125844
    7          6        0.232005    0.201779
    8          6        0.221964    0.192129
    9          6       -0.097339   -0.102332
   10          6       -0.099213   -0.104532
   11          6        0.124052    0.071858
   12          6       -0.222211   -0.174702
   13          6       -0.231373   -0.183460
   14          6        0.133054    0.074420
   15          8       -0.609054   -0.546599
   16          8       -0.609042   -0.543600
   17          7       -0.768858   -0.324788
   18          7       -0.551119   -0.192070
   19          6       -0.251845   -0.166008
   20          1        0.167220    0.105630
   21          1        0.178604    0.123158
   22          1        0.178639    0.123194
   23          1        0.166924    0.105273
   24          1        0.180724    0.121652
   25          1        0.173778    0.113380
   26          1        0.345935    0.137410
   27          1        0.394513    0.204247
   28          1        0.351733    0.136511
   29          1        0.152044    0.092430
   30          1        0.150721    0.091643
   31          1        0.165602    0.104193
 -----------------------------------------------

 Dipole moment (in Debye)
 -----------------------------------------------
                 X        Y        Z     Total
 -----------------------------------------------
 CM5          5.5390 -12.2356  14.1972  19.5436
 Hirshfeld    5.8439 -12.2493  13.8758  19.4096
 -----------------------------------------------

    1    -843.6362111073      1.50e-02  
Hirshfeld: reading atomic densities from disk.

 Charges (in A.U.) from CM5PAC (Nov. 11, 2011)
 -----------------------------------------------
 Center     Atomic      CM5         Hirshfeld
 Number     Number      Charge      Charge
 -----------------------------------------------
    1          6       -0.037416    0.014121
    2          6       -0.039505    0.015581
    3          6       -0.040381    0.014703
    4          6       -0.038404   -0.036708
    5          6       -0.037574   -0.035876
    6          6       -0.036040    0.015500
    7          6       -0.208962   -0.239188
    8          6       -0.201950   -0.231785
    9          6       -0.072364   -0.077357
   10          6       -0.077233   -0.082552
   11          6       -0.022222   -0.074416
   12          6       -0.037193    0.010317
   13          6       -0.027765    0.020148
   14          6       -0.010662   -0.069296
   15          8        0.093138    0.155593
   16          8        0.076643    0.142085
   17          7       -0.451100   -0.007029
   18          7       -0.381310   -0.022261
   19          6        0.022265    0.108102
   20          1       -0.026016   -0.087606
   21          1       -0.007740   -0.063186
   22          1       -0.007897   -0.063343
   23          1       -0.026297   -0.087947
   24          1       -0.006508   -0.065580
   25          1       -0.000324   -0.060722
   26          1        0.176032   -0.032493
   27          1        0.167808   -0.022457
   28          1        0.196093   -0.019130
   29          1        0.013091   -0.046523
   30          1        0.007743   -0.051335
   31          1        0.042144   -0.019265
 -----------------------------------------------

 Dipole moment (in Debye)
 -----------------------------------------------
                 X        Y        Z     Total
 -----------------------------------------------
 CM5          5.1843 -14.4064  10.7874  18.7294
 Hirshfeld    5.4892 -14.4201  10.4660  18.6442
 -----------------------------------------------

    2    -838.7025625999      1.78e-03  
Hirshfeld: reading atomic densities from disk.

 Charges (in A.U.) from CM5PAC (Nov. 11, 2011)
 -----------------------------------------------
 Center     Atomic      CM5         Hirshfeld
 Number     Number      Charge      Charge
 -----------------------------------------------
    1          6       -0.094301   -0.042764
    2          6       -0.115670   -0.060584
    3          6       -0.115467   -0.060383
    4          6       -0.006738   -0.005042
    5          6       -0.005740   -0.004042
    6          6       -0.094809   -0.043269
    7          6        0.145383    0.115157
    8          6        0.143416    0.113581
    9          6       -0.000052   -0.005045
   10          6        0.002475   -0.002844
   11          6        0.073000    0.020806
   12          6       -0.112989   -0.065479
   13          6       -0.124305   -0.076392
   14          6        0.089980    0.031346
   15          8       -0.546703   -0.484248
   16          8       -0.541079   -0.475637
   17          7       -0.628271   -0.184200
   18          7       -0.466669   -0.107620
   19          6       -0.094945   -0.009108
   20          1        0.073260    0.011670
   21          1        0.073797    0.018351
   22          1        0.073733    0.018287
   23          1        0.072972    0.011322
   24          1        0.068498    0.009426
   25          1        0.067122    0.006725
   26          1        0.269390    0.060866
   27          1        0.276998    0.086732
   28          1        0.278334    0.063111
   29          1        0.074516    0.014902
   30          1        0.070188    0.011110
   31          1        0.094683    0.033274
 -----------------------------------------------

 Dipole moment (in Debye)
 -----------------------------------------------
                 X        Y        Z     Total
 -----------------------------------------------
 CM5          5.5307 -13.0251  13.1985  19.3505
 Hirshfeld    5.8355 -13.0388  12.8771  19.2323
 -----------------------------------------------

    3    -838.4257645305      2.56e-03  
Hirshfeld: reading atomic densities from disk.

 Charges (in A.U.) from CM5PAC (Nov. 11, 2011)
 -----------------------------------------------
 Center     Atomic      CM5         Hirshfeld
 Number     Number      Charge      Charge
 -----------------------------------------------
    1          6       -0.109355   -0.057817
    2          6       -0.116452   -0.061366
    3          6       -0.116404   -0.061320
    4          6       -0.059484   -0.057789
    5          6       -0.058729   -0.057032
    6          6       -0.109392   -0.057851
    7          6        0.091309    0.061083
    8          6        0.089156    0.059321
    9          6       -0.076186   -0.081179
   10          6       -0.077541   -0.082861
   11          6        0.071565    0.019370
   12          6       -0.139863   -0.092353
   13          6       -0.148141   -0.100228
   14          6        0.081634    0.023000
   15          8       -0.371641   -0.309187
   16          8       -0.374587   -0.309145
   17          7       -0.650318   -0.206247
   18          7       -0.487936   -0.128887
   19          6       -0.124721   -0.038884
   20          1        0.090511    0.028921
   21          1        0.092511    0.037065
   22          1        0.092430    0.036985
   23          1        0.090467    0.028817
   24          1        0.091311    0.032239
   25          1        0.089221    0.028824
   26          1        0.278647    0.070122
   27          1        0.293854    0.103589
   28          1        0.287709    0.072487
   29          1        0.088147    0.028533
   30          1        0.084543    0.025466
   31          1        0.107811    0.046401
 -----------------------------------------------

 Dipole moment (in Debye)
 -----------------------------------------------
                 X        Y        Z     Total
 -----------------------------------------------
 CM5          5.3390 -13.6751  12.3022  19.1535
 Hirshfeld    5.6439 -13.6888  11.9808  19.0467
 -----------------------------------------------

    4    -839.0435356978      6.56e-04  
Hirshfeld: reading atomic densities from disk.

 Charges (in A.U.) from CM5PAC (Nov. 11, 2011)
 -----------------------------------------------
 Center     Atomic      CM5         Hirshfeld
 Number     Number      Charge      Charge
 -----------------------------------------------
    1          6       -0.107089   -0.055551
    2          6       -0.117391   -0.062305
    3          6       -0.117324   -0.062239
    4          6       -0.041673   -0.039977
    5          6       -0.040584   -0.038887
    6          6       -0.107201   -0.055660
    7          6        0.077688    0.047462
    8          6        0.075150    0.045316
    9          6       -0.056744   -0.061737
   10          6       -0.058474   -0.063793
   11          6        0.065530    0.013336
   12          6       -0.135933   -0.088424
   13          6       -0.139979   -0.092066
   14          6        0.076581    0.017947
   15          8       -0.394588   -0.332134
   16          8       -0.395552   -0.330110
   17          7       -0.629544   -0.185474
   18          7       -0.475714   -0.116666
   19          6       -0.119933   -0.034096
   20          1        0.086916    0.025326
   21          1        0.089655    0.034209
   22          1        0.089564    0.034118
   23          1        0.086797    0.025146
   24          1        0.086683    0.027611
   25          1        0.085052    0.024655
   26          1        0.274676    0.066152
   27          1        0.287400    0.097134
   28          1        0.284912    0.069689
   29          1        0.085178    0.025564
   30          1        0.081635    0.022558
   31          1        0.104371    0.042961
 -----------------------------------------------

 Dipole moment (in Debye)
 -----------------------------------------------
                 X        Y        Z     Total
 -----------------------------------------------
 CM5          5.3703 -13.4642  12.4534  19.1106
 Hirshfeld    5.6752 -13.4779  12.1320  19.0012
 -----------------------------------------------

    5    -839.0807227794      1.32e-04  
Hirshfeld: reading atomic densities from disk.

 Charges (in A.U.) from CM5PAC (Nov. 11, 2011)
 -----------------------------------------------
 Center     Atomic      CM5         Hirshfeld
 Number     Number      Charge      Charge
 -----------------------------------------------
    1          6       -0.106593   -0.055055
    2          6       -0.116008   -0.060922
    3          6       -0.116032   -0.060948
    4          6       -0.046790   -0.045094
    5          6       -0.045962   -0.044264
    6          6       -0.106682   -0.055141
    7          6        0.089918    0.059691
    8          6        0.088523    0.058689
    9          6       -0.058616   -0.063609
   10          6       -0.059363   -0.064683
   11          6        0.066153    0.013958
   12          6       -0.134696   -0.087186
   13          6       -0.142565   -0.094652
   14          6        0.078385    0.019751
   15          8       -0.391035   -0.328581
   16          8       -0.392930   -0.327488
   17          7       -0.641543   -0.197472
   18          7       -0.482300   -0.123251
   19          6       -0.118326   -0.032489
   20          1        0.086087    0.024497
   21          1        0.088652    0.033206
   22          1        0.088552    0.033107
   23          1        0.085974    0.024324
   24          1        0.085640    0.026568
   25          1        0.083948    0.023551
   26          1        0.275152    0.066628
   27          1        0.288563    0.098298
   28          1        0.284542    0.069319
   29          1        0.084547    0.024932
   30          1        0.080892    0.021814
   31          1        0.103975    0.042565
 -----------------------------------------------

 Dipole moment (in Debye)
 -----------------------------------------------
                 X        Y        Z     Total
 -----------------------------------------------
 CM5          5.3509 -13.6321  12.3290  19.1434
 Hirshfeld    5.6558 -13.6458  12.0075  19.0362
 -----------------------------------------------

    6    -839.0835831212      4.48e-05  
Hirshfeld: reading atomic densities from disk.

 Charges (in A.U.) from CM5PAC (Nov. 11, 2011)
 -----------------------------------------------
 Center     Atomic      CM5         Hirshfeld
 Number     Number      Charge      Charge
 -----------------------------------------------
    1          6       -0.106205   -0.054668
    2          6       -0.115694   -0.060608
    3          6       -0.115686   -0.060602
    4          6       -0.046545   -0.044849
    5          6       -0.045749   -0.044051
    6          6       -0.106267   -0.054726
    7          6        0.087237    0.057011
    8          6        0.085146    0.055312
    9          6       -0.060480   -0.065473
   10          6       -0.061715   -0.067034
   11          6        0.067523    0.015328
   12          6       -0.135172   -0.087663
   13          6       -0.142020   -0.094107
   14          6        0.078696    0.020062
   15          8       -0.391296   -0.328841
   16          8       -0.392651   -0.327209
   17          7       -0.637677   -0.193607
   18          7       -0.479952   -0.120903
   19          6       -0.119058   -0.033221
   20          1        0.086555    0.024965
   21          1        0.089031    0.033585
   22          1        0.088925    0.033480
   23          1        0.086451    0.024801
   24          1        0.085776    0.026704
   25          1        0.084059    0.023662
   26          1        0.274829    0.066304
   27          1        0.287951    0.097685
   28          1        0.284600    0.069377
   29          1        0.084564    0.024949
   30          1        0.080870    0.021793
   31          1        0.104017    0.042607
 -----------------------------------------------

 Dipole moment (in Debye)
 -----------------------------------------------
                 X        Y        Z     Total
 -----------------------------------------------
 CM5          5.3477 -13.6167  12.3162  19.1233
 Hirshfeld    5.6526 -13.6304  11.9948  19.0161
 -----------------------------------------------

    7    -839.0842273979      1.81e-05  
Hirshfeld: reading atomic densities from disk.

 Charges (in A.U.) from CM5PAC (Nov. 11, 2011)
 -----------------------------------------------
 Center     Atomic      CM5         Hirshfeld
 Number     Number      Charge      Charge
 -----------------------------------------------
    1          6       -0.106688   -0.055151
    2          6       -0.116349   -0.061263
    3          6       -0.116373   -0.061289
    4          6       -0.045497   -0.043801
    5          6       -0.044586   -0.042889
    6          6       -0.106741   -0.055201
    7          6        0.086861    0.056635
    8          6        0.085193    0.055358
    9          6       -0.058282   -0.063275
   10          6       -0.059281   -0.064601
   11          6        0.066026    0.013831
   12          6       -0.135882   -0.088372
   13          6       -0.142622   -0.094709
   14          6        0.077914    0.019280
   15          8       -0.390493   -0.328038
   16          8       -0.392285   -0.326843
   17          7       -0.639102   -0.195032
   18          7       -0.481304   -0.122255
   19          6       -0.119217   -0.033380
   20          1        0.086618    0.025028
   21          1        0.089181    0.033735
   22          1        0.089071    0.033625
   23          1        0.086521    0.024871
   24          1        0.085839    0.026768
   25          1        0.084078    0.023681
   26          1        0.274996    0.066472
   27          1        0.288162    0.097897
   28          1        0.284693    0.069471
   29          1        0.084613    0.024999
   30          1        0.080925    0.021847
   31          1        0.104076    0.042666
 -----------------------------------------------

 Dipole moment (in Debye)
 -----------------------------------------------
                 X        Y        Z     Total
 -----------------------------------------------
 CM5          5.3437 -13.6418  12.2912  19.1240
 Hirshfeld    5.6486 -13.6555  11.9697  19.0172
 -----------------------------------------------

    8    -839.0841039586      6.53e-06  
Hirshfeld: reading atomic densities from disk.

 Charges (in A.U.) from CM5PAC (Nov. 11, 2011)
 -----------------------------------------------
 Center     Atomic      CM5         Hirshfeld
 Number     Number      Charge      Charge
 -----------------------------------------------
    1          6       -0.106532   -0.054995
    2          6       -0.115776   -0.060690
    3          6       -0.115810   -0.060726
    4          6       -0.045950   -0.044254
    5          6       -0.045145   -0.043447
    6          6       -0.106600   -0.055060
    7          6        0.087046    0.056820
    8          6        0.085232    0.055397
    9          6       -0.058967   -0.063960
   10          6       -0.060143   -0.065462
   11          6        0.066337    0.014143
   12          6       -0.135351   -0.087842
   13          6       -0.142356   -0.094443
   14          6        0.077977    0.019343
   15          8       -0.390713   -0.328259
   16          8       -0.392207   -0.326765
   17          7       -0.638910   -0.194840
   18          7       -0.480863   -0.121815
   19          6       -0.119156   -0.033319
   20          1        0.086672    0.025082
   21          1        0.089188    0.033742
   22          1        0.089075    0.033629
   23          1        0.086577    0.024926
   24          1        0.085690    0.026618
   25          1        0.083957    0.023560
   26          1        0.274908    0.066383
   27          1        0.288052    0.097786
   28          1        0.284591    0.069368
   29          1        0.084503    0.024889
   30          1        0.080803    0.021726
   31          1        0.103936    0.042527
 -----------------------------------------------

 Dipole moment (in Debye)
 -----------------------------------------------
                 X        Y        Z     Total
 -----------------------------------------------
 CM5          5.3415 -13.6528  12.2778  19.1226
 Hirshfeld    5.6464 -13.6665  11.9564  19.0160
 -----------------------------------------------

    9    -839.0842526079      5.35e-06  
Hirshfeld: reading atomic densities from disk.

 Charges (in A.U.) from CM5PAC (Nov. 11, 2011)
 -----------------------------------------------
 Center     Atomic      CM5         Hirshfeld
 Number     Number      Charge      Charge
 -----------------------------------------------
    1          6       -0.106457   -0.054920
    2          6       -0.116081   -0.060995
    3          6       -0.116104   -0.061020
    4          6       -0.045770   -0.044074
    5          6       -0.044929   -0.043231
    6          6       -0.106495   -0.054955
    7          6        0.087190    0.056964
    8          6        0.085380    0.055545
    9          6       -0.058932   -0.063925
   10          6       -0.060016   -0.065335
   11          6        0.066501    0.014307
   12          6       -0.135826   -0.088317
   13          6       -0.142649   -0.094736
   14          6        0.078075    0.019441
   15          8       -0.390531   -0.328077
   16          8       -0.392233   -0.326791
   17          7       -0.638656   -0.194586
   18          7       -0.480941   -0.121892
   19          6       -0.119236   -0.033400
   20          1        0.086661    0.025071
   21          1        0.089212    0.033767
   22          1        0.089097    0.033651
   23          1        0.086567    0.024917
   24          1        0.085692    0.026620
   25          1        0.083946    0.023549
   26          1        0.274835    0.066310
   27          1        0.287945    0.097680
   28          1        0.284585    0.069362
   29          1        0.084499    0.024884
   30          1        0.080788    0.021710
   31          1        0.103947    0.042537
 -----------------------------------------------

 Dipole moment (in Debye)
 -----------------------------------------------
                 X        Y        Z     Total
 -----------------------------------------------
 CM5          5.3398 -13.6534  12.2699  19.1175
 Hirshfeld    5.6446 -13.6671  11.9484  19.0110
 -----------------------------------------------

   10    -839.0842330055      1.31e-06  
Hirshfeld: reading atomic densities from disk.

 Charges (in A.U.) from CM5PAC (Nov. 11, 2011)
 -----------------------------------------------
 Center     Atomic      CM5         Hirshfeld
 Number     Number      Charge      Charge
 -----------------------------------------------
    1          6       -0.106483   -0.054946
    2          6       -0.115931   -0.060845
    3          6       -0.115963   -0.060878
    4          6       -0.045840   -0.044144
    5          6       -0.045005   -0.043307
    6          6       -0.106534   -0.054993
    7          6        0.087093    0.056867
    8          6        0.085277    0.055442
    9          6       -0.058903   -0.063896
   10          6       -0.060012   -0.065331
   11          6        0.066405    0.014211
   12          6       -0.135635   -0.088125
   13          6       -0.142507   -0.094594
   14          6        0.078057    0.019423
   15          8       -0.390566   -0.328112
   16          8       -0.392133   -0.326691
   17          7       -0.638816   -0.194745
   18          7       -0.480944   -0.121895
   19          6       -0.119226   -0.033389
   20          1        0.086664    0.025073
   21          1        0.089199    0.033753
   22          1        0.089084    0.033639
   23          1        0.086567    0.024917
   24          1        0.085673    0.026601
   25          1        0.083922    0.023524
   26          1        0.274855    0.066330
   27          1        0.287980    0.097714
   28          1        0.284581    0.069358
   29          1        0.084488    0.024874
   30          1        0.080775    0.021698
   31          1        0.103941    0.042531
 -----------------------------------------------

 Dipole moment (in Debye)
 -----------------------------------------------
                 X        Y        Z     Total
 -----------------------------------------------
 CM5          5.3402 -13.6560  12.2711  19.1202
 Hirshfeld    5.6451 -13.6697  11.9496  19.0137
 -----------------------------------------------

   11    -839.0842665369      8.55e-07  
Hirshfeld: reading atomic densities from disk.

 Charges (in A.U.) from CM5PAC (Nov. 11, 2011)
 -----------------------------------------------
 Center     Atomic      CM5         Hirshfeld
 Number     Number      Charge      Charge
 -----------------------------------------------
    1          6       -0.106482   -0.054945
    2          6       -0.115943   -0.060857
    3          6       -0.115970   -0.060886
    4          6       -0.045822   -0.044126
    5          6       -0.044999   -0.043301
    6          6       -0.106535   -0.054995
    7          6        0.087126    0.056900
    8          6        0.085311    0.055476
    9          6       -0.058902   -0.063895
   10          6       -0.060038   -0.065357
   11          6        0.066399    0.014205
   12          6       -0.135636   -0.088126
   13          6       -0.142547   -0.094633
   14          6        0.077989    0.019355
   15          8       -0.390501   -0.328047
   16          8       -0.392174   -0.326732
   17          7       -0.638795   -0.194725
   18          7       -0.480933   -0.121884
   19          6       -0.119203   -0.033366
   20          1        0.086660    0.025070
   21          1        0.089198    0.033752
   22          1        0.089083    0.033638
   23          1        0.086566    0.024916
   24          1        0.085677    0.026605
   25          1        0.083931    0.023534
   26          1        0.274852    0.066327
   27          1        0.287974    0.097709
   28          1        0.284582    0.069359
   29          1        0.084484    0.024870
   30          1        0.080773    0.021696
   31          1        0.103937    0.042527
 -----------------------------------------------

 Dipole moment (in Debye)
 -----------------------------------------------
                 X        Y        Z     Total
 -----------------------------------------------
 CM5          5.3397 -13.6552  12.2694  19.1184
 Hirshfeld    5.6446 -13.6689  11.9480  19.0119
 -----------------------------------------------

   12    -839.0842583930      2.09e-07  
Hirshfeld: reading atomic densities from disk.

 Charges (in A.U.) from CM5PAC (Nov. 11, 2011)
 -----------------------------------------------
 Center     Atomic      CM5         Hirshfeld
 Number     Number      Charge      Charge
 -----------------------------------------------
    1          6       -0.106481   -0.054944
    2          6       -0.115951   -0.060865
    3          6       -0.115980   -0.060895
    4          6       -0.045832   -0.044136
    5          6       -0.045001   -0.043303
    6          6       -0.106530   -0.054990
    7          6        0.087122    0.056896
    8          6        0.085306    0.055471
    9          6       -0.058904   -0.063897
   10          6       -0.060018   -0.065338
   11          6        0.066406    0.014211
   12          6       -0.135654   -0.088144
   13          6       -0.142539   -0.094626
   14          6        0.078029    0.019395
   15          8       -0.390536   -0.328081
   16          8       -0.392136   -0.326694
   17          7       -0.638797   -0.194727
   18          7       -0.480947   -0.121898
   19          6       -0.119215   -0.033378
   20          1        0.086662    0.025072
   21          1        0.089200    0.033754
   22          1        0.089085    0.033639
   23          1        0.086566    0.024916
   24          1        0.085676    0.026604
   25          1        0.083927    0.023530
   26          1        0.274852    0.066328
   27          1        0.287974    0.097709
   28          1        0.284579    0.069356
   29          1        0.084485    0.024871
   30          1        0.080774    0.021697
   31          1        0.103937    0.042527
 -----------------------------------------------

 Dipole moment (in Debye)
 -----------------------------------------------
                 X        Y        Z     Total
 -----------------------------------------------
 CM5          5.3400 -13.6557  12.2702  19.1194
 Hirshfeld    5.6449 -13.6694  11.9487  19.0129
 -----------------------------------------------

   13    -839.0842588928      1.71e-07  
Hirshfeld: reading atomic densities from disk.

 Charges (in A.U.) from CM5PAC (Nov. 11, 2011)
 -----------------------------------------------
 Center     Atomic      CM5         Hirshfeld
 Number     Number      Charge      Charge
 -----------------------------------------------
    1          6       -0.106480   -0.054943
    2          6       -0.115947   -0.060861
    3          6       -0.115976   -0.060891
    4          6       -0.045831   -0.044135
    5          6       -0.045001   -0.043304
    6          6       -0.106533   -0.054992
    7          6        0.087120    0.056894
    8          6        0.085300    0.055465
    9          6       -0.058903   -0.063896
   10          6       -0.060019   -0.065338
   11          6        0.066408    0.014214
   12          6       -0.135650   -0.088140
   13          6       -0.142533   -0.094620
   14          6        0.078032    0.019398
   15          8       -0.390519   -0.328065
   16          8       -0.392157   -0.326715
   17          7       -0.638803   -0.194733
   18          7       -0.480945   -0.121897
   19          6       -0.119220   -0.033383
   20          1        0.086662    0.025072
   21          1        0.089199    0.033753
   22          1        0.089085    0.033639
   23          1        0.086567    0.024917
   24          1        0.085675    0.026603
   25          1        0.083926    0.023529
   26          1        0.274852    0.066327
   27          1        0.287975    0.097710
   28          1        0.284580    0.069357
   29          1        0.084486    0.024872
   30          1        0.080774    0.021697
   31          1        0.103938    0.042529
 -----------------------------------------------

 Dipole moment (in Debye)
 -----------------------------------------------
                 X        Y        Z     Total
 -----------------------------------------------
 CM5          5.3398 -13.6554  12.2699  19.1189
 Hirshfeld    5.6447 -13.6691  11.9484  19.0124
 -----------------------------------------------

   14    -839.0842599986      5.53e-08  
Hirshfeld: reading atomic densities from disk.

 Charges (in A.U.) from CM5PAC (Nov. 11, 2011)
 -----------------------------------------------
 Center     Atomic      CM5         Hirshfeld
 Number     Number      Charge      Charge
 -----------------------------------------------
    1          6       -0.106481   -0.054944
    2          6       -0.115948   -0.060862
    3          6       -0.115976   -0.060892
    4          6       -0.045830   -0.044134
    5          6       -0.044999   -0.043301
    6          6       -0.106532   -0.054992
    7          6        0.087123    0.056897
    8          6        0.085303    0.055468
    9          6       -0.058902   -0.063895
   10          6       -0.060022   -0.065341
   11          6        0.066405    0.014211
   12          6       -0.135649   -0.088139
   13          6       -0.142537   -0.094624
   14          6        0.078023    0.019389
   15          8       -0.390527   -0.328073
   16          8       -0.392148   -0.326706
   17          7       -0.638800   -0.194729
   18          7       -0.480945   -0.121896
   19          6       -0.119217   -0.033381
   20          1        0.086663    0.025073
   21          1        0.089199    0.033753
   22          1        0.089085    0.033639
   23          1        0.086567    0.024916
   24          1        0.085676    0.026604
   25          1        0.083927    0.023530
   26          1        0.274852    0.066328
   27          1        0.287975    0.097710
   28          1        0.284580    0.069357
   29          1        0.084486    0.024872
   30          1        0.080774    0.021696
   31          1        0.103938    0.042528
 -----------------------------------------------

 Dipole moment (in Debye)
 -----------------------------------------------
                 X        Y        Z     Total
 -----------------------------------------------
 CM5          5.3399 -13.6556  12.2699  19.1191
 Hirshfeld    5.6448 -13.6693  11.9484  19.0126
 -----------------------------------------------

   15    -839.0842599989      4.12e-08  
   16    -839.0842599638      9.96e-09  Convergence criterion met
 ---------------------------------------
 SCF time:   CPU 7027.01s  wall 894.00s 
<S^2> =          0.760025307
(1)  E-EN(liq) elect-nuc energy of solute               -839.084259964 a.u.
(2)  G-P(liq) polarization free energy of solvation           -49.5711 kcal/mol
(3)  G-ENP(liq) elect-nuc-pol free energy of system     -839.163256555 a.u.
(4)  G-CDS(liq) cavity-dispersion-solvent structure 
     free energy                                               -7.9137 kcal/mol
(5)  G-P-CDS(liq) = G-P(liq) + G-CDS(liq) = (2) + (4)         -57.4848 kcal/mol
(6)  G-S(liq) free energy of system = (1) + (5)         -839.175867840 a.u.
 SCF   energy in the final basis set =     -839.1758678401
 Total energy in the final basis set =     -839.1758678401
 
 --------------------------------------------------------------
 
                    Orbital Energies (a.u.)
 --------------------------------------------------------------
 
 Alpha MOs
 -- Occupied --
-19.0775 -19.0773 -14.3115 -14.3040 -10.2286 -10.2283 -10.2151 -10.2119
-10.1990 -10.1811 -10.1806 -10.1790 -10.1785 -10.1776 -10.1772 -10.1768
-10.1767 -10.1729 -10.1718  -1.0047  -1.0025  -0.9306  -0.9092  -0.8636
 -0.8315  -0.7882  -0.7566  -0.7470  -0.7357  -0.6832  -0.6696  -0.6394
 -0.6273  -0.5868  -0.5694  -0.5478  -0.5298  -0.5154  -0.4960  -0.4802
 -0.4705  -0.4680  -0.4567  -0.4436  -0.4386  -0.4302  -0.4232  -0.4182
 -0.4141  -0.4000  -0.3894  -0.3859  -0.3799  -0.3785  -0.3739  -0.3545
 -0.3474  -0.3427  -0.3280  -0.2742  -0.2624  -0.2618  -0.2535  -0.2474
 -0.2381  -0.1930  -0.1387
 -- Virtual --
 -0.0516  -0.0309  -0.0299  -0.0264  -0.0193  -0.0131  -0.0101  -0.0006
  0.0030   0.0090   0.0150   0.0175   0.0239   0.0283   0.0290   0.0353
  0.0401   0.0410   0.0445   0.0515   0.0547   0.0581   0.0618   0.0650
  0.0725   0.0737   0.0783   0.0801   0.0842   0.0867   0.0909   0.0923
  0.0933   0.1011   0.1021   0.1080   0.1124   0.1132   0.1144   0.1197
  0.1225   0.1262   0.1291   0.1360   0.1405   0.1431   0.1453   0.1483
  0.1506   0.1529   0.1597   0.1655   0.1703   0.1743   0.1796   0.1819
  0.1826   0.1841   0.1933   0.1986   0.2006   0.2038   0.2057   0.2084
  0.2126   0.2245   0.2253   0.2292   0.2308   0.2332   0.2338   0.2403
  0.2434   0.2472   0.2505   0.2537   0.2560   0.2594   0.2631   0.2708
  0.2738   0.2780   0.2819   0.2850   0.2904   0.2933   0.2974   0.3002
  0.3042   0.3091   0.3105   0.3118   0.3175   0.3223   0.3286   0.3329
  0.3344   0.3375   0.3470   0.3543   0.3562   0.3587   0.3716   0.3769
  0.3817   0.3905   0.3968   0.4097   0.4213   0.4295   0.4545   0.4602
  0.4691   0.4790   0.4913   0.4980   0.5193   0.5345   0.5372   0.5406
  0.5467   0.5547   0.5567   0.5584   0.5633   0.5695   0.5775   0.5884
  0.5986   0.6030   0.6066   0.6095   0.6147   0.6210   0.6335   0.6350
  0.6433   0.6445   0.6470   0.6530   0.6623   0.6660   0.6692   0.6766
  0.6802   0.6864   0.6882   0.6965   0.7018   0.7180   0.7302   0.7403
  0.7428   0.7521   0.7593   0.7681   0.7710   0.7823   0.7953   0.8024
  0.8129   0.8175   0.8328   0.8386   0.8432   0.8558   0.8664   0.8728
  0.8784   0.8861   0.8956   0.9059   0.9075   0.9100   0.9139   0.9268
  0.9349   0.9392   0.9442   0.9524   0.9569   0.9696   0.9840   0.9878
  0.9980   1.0015   1.0139   1.0234   1.0286   1.0378   1.0422   1.0539
  1.0614   1.0845   1.0911   1.0957   1.1089   1.1170   1.1326   1.1439
  1.1532   1.1634   1.1760   1.1908   1.1958   1.2163   1.2382   1.2483
  1.2591   1.2619   1.2852   1.3018   1.3258   1.3281   1.3435   1.3666
  1.3859   1.4098   1.4247   1.4599   1.4654   1.4757   1.4777   1.4841
  1.5052   1.5119   1.5152   1.5202   1.5249   1.5292   1.5339   1.5550
  1.5678   1.5682   1.5750   1.5843   1.5909   1.6044   1.6169   1.6231
  1.6347   1.6491   1.6615   1.6710   1.6858   1.6973   1.7107   1.7229
  1.7391   1.7473   1.7510   1.7573   1.7644   1.7828   1.7917   1.8023
  1.8090   1.8227   1.8430   1.8679   1.8756   1.8880   1.8968   1.9007
  1.9074   1.9149   1.9284   1.9351   1.9499   1.9527   1.9695   1.9819
  1.9877   1.9907   2.0020   2.0049   2.0166   2.0298   2.0345   2.0668
  2.0763   2.0858   2.1005   2.1181   2.1213   2.1326   2.1446   2.1484
  2.1645   2.1970   2.2500   2.2585   2.2706   2.3062   2.3178   2.3259
  2.3653   2.3714   2.3816   2.4048   2.4248   2.4383   2.4417   2.4707
  2.4756   2.4905   2.5180   2.5299   2.5716   2.5768   2.5927   2.6034
  2.6206   2.6281   2.6380   2.6513   2.6656   2.6827   2.6897   2.7069
  2.7172   2.7277   2.7283   2.7472   2.7474   2.7657   2.7737   2.7754
  2.7823   2.7868   2.7925   2.8072   2.8208   2.8260   2.8376   2.8557
  2.8668   2.8810   2.8852   2.8961   2.9031   2.9065   2.9243   2.9372
  2.9503   2.9670   2.9951   3.0301   3.0387   3.0786   3.0894   3.0970
  3.1130   3.1220   3.1539   3.1849   3.1988   3.2191   3.2315   3.2442
  3.2712   3.3136   3.3175   3.3401   3.3473   3.3784   3.3874   3.4090
  3.4209   3.4648   3.5066   3.5114   3.5297   3.5330   3.5696   3.5744
  3.5900   3.6595   3.7191   3.7500   3.7541   3.8268   3.8373   3.8511
  3.9385   3.9762   4.0227   4.0399   4.0439   4.0845   4.1330   4.2027
  4.2783   4.3181   4.4891   4.7936   4.8246   4.8410   4.8649   4.9133
  4.9987   5.0823   5.1003   5.1267   5.3524   5.3694   5.7836   5.8614
 23.5351  23.7069  23.8902  23.9037  23.9308  23.9410  23.9482  23.9590
 23.9653  23.9813  24.0435  24.0467  24.1152  24.1695  24.1866  35.6663
 35.6903  50.0669  50.1159
 
 Beta MOs
 -- Occupied --
-19.0727 -19.0722 -14.3109 -14.3033 -10.2271 -10.2267 -10.2148 -10.2115
-10.1990 -10.1807 -10.1802 -10.1790 -10.1785 -10.1771 -10.1770 -10.1766
-10.1762 -10.1716 -10.1705  -0.9964  -0.9939  -0.9290  -0.9075  -0.8616
 -0.8298  -0.7843  -0.7547  -0.7452  -0.7339  -0.6810  -0.6637  -0.6375
 -0.6254  -0.5857  -0.5677  -0.5457  -0.5286  -0.5145  -0.4947  -0.4774
 -0.4697  -0.4669  -0.4555  -0.4413  -0.4373  -0.4298  -0.4169  -0.4144
 -0.4100  -0.3980  -0.3875  -0.3822  -0.3757  -0.3729  -0.3639  -0.3530
 -0.3415  -0.3360  -0.3206  -0.2616  -0.2556  -0.2501  -0.2487  -0.2431
 -0.2338  -0.1815
 -- Virtual --
 -0.0864  -0.0428  -0.0302  -0.0265  -0.0210  -0.0188  -0.0130  -0.0101
  0.0009   0.0051   0.0091   0.0165   0.0177   0.0240   0.0288   0.0294
  0.0368   0.0404   0.0441   0.0451   0.0543   0.0556   0.0607   0.0621
  0.0719   0.0737   0.0743   0.0786   0.0810   0.0845   0.0877   0.0922
  0.0925   0.0943   0.1016   0.1023   0.1084   0.1126   0.1134   0.1157
  0.1211   0.1237   0.1272   0.1297   0.1365   0.1408   0.1432   0.1458
  0.1485   0.1510   0.1534   0.1605   0.1687   0.1703   0.1753   0.1802
  0.1822   0.1836   0.1846   0.1945   0.1991   0.2008   0.2042   0.2065
  0.2097   0.2132   0.2251   0.2267   0.2302   0.2315   0.2341   0.2368
  0.2411   0.2452   0.2474   0.2521   0.2540   0.2578   0.2599   0.2642
  0.2714   0.2745   0.2788   0.2823   0.2856   0.2913   0.2939   0.2981
  0.3014   0.3052   0.3101   0.3116   0.3130   0.3188   0.3240   0.3304
  0.3339   0.3349   0.3385   0.3475   0.3551   0.3573   0.3593   0.3724
  0.3778   0.3828   0.3918   0.3982   0.4114   0.4237   0.4304   0.4554
  0.4613   0.4700   0.4804   0.4923   0.4992   0.5203   0.5361   0.5387
  0.5421   0.5491   0.5568   0.5592   0.5605   0.5639   0.5709   0.5786
  0.5902   0.6003   0.6050   0.6079   0.6112   0.6159   0.6226   0.6344
  0.6369   0.6448   0.6466   0.6486   0.6545   0.6633   0.6677   0.6704
  0.6773   0.6813   0.6878   0.6893   0.6992   0.7032   0.7186   0.7309
  0.7431   0.7437   0.7530   0.7598   0.7685   0.7714   0.7827   0.7966
  0.8036   0.8139   0.8179   0.8338   0.8396   0.8439   0.8572   0.8678
  0.8737   0.8796   0.8885   0.8970   0.9069   0.9092   0.9116   0.9150
  0.9279   0.9366   0.9403   0.9450   0.9543   0.9581   0.9711   0.9858
  0.9897   0.9996   1.0032   1.0158   1.0245   1.0298   1.0388   1.0446
  1.0554   1.0648   1.0871   1.0929   1.0999   1.1102   1.1227   1.1366
  1.1467   1.1570   1.1663   1.1779   1.1927   1.2005   1.2188   1.2455
  1.2510   1.2636   1.2642   1.2869   1.3038   1.3273   1.3302   1.3449
  1.3679   1.3874   1.4115   1.4260   1.4603   1.4663   1.4766   1.4793
  1.4867   1.5067   1.5128   1.5180   1.5221   1.5259   1.5316   1.5347
  1.5565   1.5687   1.5696   1.5764   1.5859   1.5920   1.6057   1.6181
  1.6247   1.6358   1.6509   1.6628   1.6715   1.6867   1.6994   1.7139
  1.7240   1.7398   1.7485   1.7523   1.7585   1.7658   1.7840   1.7934
  1.8053   1.8111   1.8243   1.8437   1.8692   1.8776   1.8895   1.8983
  1.9040   1.9099   1.9164   1.9296   1.9362   1.9516   1.9543   1.9726
  1.9845   1.9907   1.9924   2.0031   2.0057   2.0178   2.0319   2.0365
  2.0679   2.0774   2.0874   2.1024   2.1198   2.1235   2.1349   2.1455
  2.1497   2.1653   2.1980   2.2520   2.2601   2.2730   2.3081   2.3211
  2.3291   2.3668   2.3735   2.3829   2.4067   2.4262   2.4397   2.4436
  2.4713   2.4764   2.4907   2.5186   2.5306   2.5723   2.5790   2.5944
  2.6045   2.6221   2.6316   2.6395   2.6538   2.6679   2.6848   2.6911
  2.7087   2.7180   2.7292   2.7303   2.7475   2.7486   2.7663   2.7756
  2.7788   2.7844   2.7871   2.7934   2.8131   2.8224   2.8290   2.8386
  2.8565   2.8726   2.8861   2.8888   2.9004   2.9064   2.9081   2.9294
  2.9401   2.9517   2.9763   3.0011   3.0358   3.0447   3.0810   3.0924
  3.1001   3.1160   3.1246   3.1556   3.1873   3.1999   3.2223   3.2325
  3.2457   3.2728   3.3146   3.3300   3.3479   3.3530   3.3798   3.3890
  3.4099   3.4216   3.4663   3.5081   3.5132   3.5315   3.5348   3.5711
  3.5757   3.5907   3.6607   3.7200   3.7513   3.7544   3.8271   3.8405
  3.8535   3.9408   3.9786   4.0247   4.0407   4.0462   4.0861   4.1348
  4.2037   4.2807   4.3210   4.4918   4.7957   4.8268   4.8421   4.8661
  4.9142   4.9996   5.1025   5.1203   5.1278   5.3564   5.3734   5.7879
  5.8657  23.5358  23.7076  23.8911  23.9046  23.9319  23.9416  23.9485
 23.9599  23.9659  23.9817  24.0444  24.0476  24.1154  24.1708  24.1869
 35.6670  35.6910  50.0718  50.1208
 --------------------------------------------------------------
 
          Ground-State Mulliken Net Atomic Charges

     Atom                 Charge (a.u.)    Spin (a.u.)
  --------------------------------------------------------
      1 C                     0.181337       0.024385
      2 C                     0.996382       0.032145
      3 C                     0.910346       0.037625
      4 C                    -0.654443       0.035503
      5 C                    -0.510423       0.034540
      6 C                     0.035136       0.020200
      7 C                    -2.015037       0.072760
      8 C                    -1.502406       0.075940
      9 C                    -0.655207       0.006930
     10 C                    -0.672402       0.000078
     11 C                    -0.699792       0.041510
     12 C                     1.285743       0.099382
     13 C                     1.218272       0.100591
     14 C                    -1.204245       0.024228
     15 O                    -0.277470       0.185597
     16 O                    -0.297847       0.178424
     17 N                    -0.284139       0.027624
     18 N                    -0.302232       0.029461
     19 C                     0.055672      -0.002850
     20 H                     0.183954      -0.000822
     21 H                     0.357961      -0.002654
     22 H                     0.357631      -0.002948
     23 H                     0.184641      -0.000697
     24 H                     0.309402      -0.007289
     25 H                     0.333575      -0.007210
     26 H                     0.278052      -0.003051
     27 H                     0.363659      -0.001538
     28 H                     0.323562      -0.003447
     29 H                     0.199294       0.002230
     30 H                     0.210641       0.003439
     31 H                     0.290381      -0.000087
  --------------------------------------------------------
  Sum of atomic charges =    -1.000000
  Sum of spin   charges =     1.000000

 -----------------------------------------------------------------
                    Cartesian Multipole Moments
 -----------------------------------------------------------------
    Charge (ESU x 10^10)
                -4.8032
    Dipole Moment (Debye)
         X       5.3491      Y     -13.4498      Z      12.5821
       Tot      19.1786
    Quadrupole Moments (Debye-Ang)
        XX    -126.9773     XY      14.4697     YY    -166.8046
        XZ     -15.2492     YZ      45.2282     ZZ    -156.4825
    Octopole Moments (Debye-Ang^2)
       XXX     398.0918    XXY    -359.8507    XYY     157.6317
       YYY   -1199.0042    XXZ     264.2771    XYZ     -56.9948
       YYZ     418.1078    XZZ     190.0728    YZZ    -505.5646
       ZZZ     858.0345
    Hexadecapole Moments (Debye-Ang^3)
      XXXX   -1269.9708   XXXY    1183.5104   XXYY   -1704.3006
      XYYY    1073.7578   YYYY   -9251.5855   XXXZ   -1265.0457
      XXYZ     589.8565   XYYZ    -588.3281   YYYZ    2376.6616
      XXZZ   -1447.5822   XYZZ     660.5073   YYZZ   -3265.9641
      XZZZ   -1388.9210   YZZZ    2262.9985   ZZZZ   -7066.8832
 -----------------------------------------------------------------
 Total job time:  934.90s(wall), 7033.99s(cpu) 
 Sat Feb  3 11:39:02 2024

        *************************************************************
        *                                                           *
        *  Thank you very much for using Q-Chem.  Have a nice day.  *
        *                                                           *
        *************************************************************


