
Running Job 1 of 1 308-an-CPCM.in
qchem 308-an-CPCM.in_1782307.0 /expanse/lustre/scratch/selhajj/temp_project/qcscratch/31258359/qchem1782307/ 0
/cm/shared/apps/spack/cpu/opt/spack/linux-centos8-zen2/gcc-10.2.0/qchem-5.4-akfmr7b3t57bfs6qan3padb2wnb2i7cl/exe/qcprog.exe_s 308-an-CPCM.in_1782307.0 /expanse/lustre/scratch/selhajj/temp_project/qcscratch/31258359/qchem1782307/
                  Welcome to Q-Chem
     A Quantum Leap Into The Future Of Chemistry


 Q-Chem 5.4, Q-Chem, Inc., Pleasanton, CA (2021)

 License issued to: University of California, San Diego (site)

 E. Epifanovsky,  A. T. B. Gilbert,  Xintian Feng,  Joonho Lee,  Yuezhi Mao,  
 N. Mardirossian,  P. Pokhilko,  A. White,  M. Wormit,  M. P. Coons,  
 A. L. Dempwolff,  Zhengting Gan,  D. Hait,  P. R. Horn,  L. D. Jacobson,  
 I. Kaliman,  J. Kussmann,  A. W. Lange,  Ka Un Lao,  D. S. Levine,  Jie Liu,  
 S. C. McKenzie,  A. F. Morrison,  K. Nanda,  F. Plasser,  D. R. Rehn,  
 M. L. Vidal,  Zhi-Qiang You,  Ying Zhu,  B. Alam,  B. Albrecht,  
 A. Aldossary,  E. Alguire,  J. H. Andersen,  D. Barton,  K. Begam,  A. Behn,  
 Y. A. Bernard,  E. J. Berquist,  H. Burton,  A. Carreras,  K. Carter-Fenk,  
 R. Chakraborty,  A. D. Chien,  K. D. Closser,  V. Cofer-Shabica,  
 S. Dasgupta,  Jia Deng,  M. de Wergifosse,  M. Diedenhofen,  Hainam Do,  
 S. Ehlert,  Po-Tung Fang,  S. Fatehi,  Qingguo Feng,  J. Gayvert,  
 Qinghui Ge,  G. Gidofalvi,  M. Goldey,  J. Gomes,  C. Gonzalez-Espinoza,  
 S. Gulania,  A. Gunina,  M. W. D. Hanson-Heine,  P. H. P. Harbach,  
 A. W. Hauser,  M. F. Herbst,  M. Hernandez Vera,  M. Hodecker,  
 Z. C. Holden,  S. Houck,  Xunkun Huang,  Kerwin Hui,  B. C. Huynh,  
 M. Ivanov,  Hyunjun Ji,  Hanjie Jiang,  B. Kaduk,  S. Kaehler,  
 K. Khistyaev,  Jaehoon Kim,  P. Klunzinger,  Z. Koczor-Benda,  
 Joong Hoon Koh,  D. Kosenkov,  L. Koulias,  T. Kowalczyk,  C. M. Krauter,  
 K. Kue,  A. Kunitsa,  T. Kus,  A. Landau,  K. V. Lawler,  D. Lefrancois,  
 S. Lehtola,  Rain Li,  Yi-Pei Li,  Jiashu Liang,  M. Liebenthal,  
 Hung-Hsuan Lin,  You-Sheng Lin,  Fenglai Liu,  Kuan-Yu Liu,  
 M. Loipersberger,  A. Luenser,  A. Manjanath,  P. Manohar,  E. Mansoor,  
 S. F. Manzer,  Shan-Ping Mao,  A. V. Marenich,  T. Markovich,  S. Mason,  
 S. A. Maurer,  P. F. McLaughlin,  M. F. S. J. Menger,  J.-M. Mewes,  
 S. A. Mewes,  P. Morgante,  J. W. Mullinax,  T. S. Nguyen-Beck,  
 K. J. Oosterbaan,  G. Paran,  Alexander C. Paul,  Suranjan K. Paul,  
 F. Pavosevic,  Zheng Pei,  S. Prager,  E. I. Proynov,  E. Ramos,  B. Rana,  
 A. E. Rask,  A. Rettig,  R. M. Richard,  F. Rob,  E. Rossomme,  T. Scheele,  
 M. Scheurer,  M. Schneider,  N. Sergueev,  S. M. Sharada,  W. Skomorowski,  
 D. W. Small,  C. J. Stein,  Yu-Chuan Su,  E. J. Sundstrom,  Zhen Tao,  
 J. Thirman,  T. Tsuchimochi,  N. M. Tubman,  S. P. Veccham,  O. Vydrov,  
 J. Wenzel,  J. Witte,  A. Yamada,  Kun Yao,  S. Yeganeh,  S. R. Yost,  
 A. Zech,  Igor Ying Zhang,  Xing Zhang,  Yu Zhang,  D. Zuev,  
 A. Aspuru-Guzik,  A. T. Bell,  N. A. Besley,  K. B. Bravaya,  B. R. Brooks,  
 D. Casanova,  Jeng-Da Chai,  S. Coriani,  C. J. Cramer,  
 A. E. DePrince, III,  R. A. DiStasio Jr.,  A. Dreuw,  B. D. Dunietz,  
 T. R. Furlani,  W. A. Goddard III,  S. Grimme,  S. Hammes-Schiffer,  
 T. Head-Gordon,  W. J. Hehre,  Chao-Ping Hsu,  T.-C. Jagau,  Yousung Jung,  
 A. Klamt,  Jing Kong,  D. S. Lambrecht,  WanZhen Liang,  N. J. Mayhall,  
 C. W. McCurdy,  J. B. Neaton,  C. Ochsenfeld,  J. A. Parkhill,  R. Peverati,  
 V. A. Rassolov,  Yihan Shao,  L. V. Slipchenko,  T. Stauch,  R. P. Steele,  
 J. E. Subotnik,  A. J. W. Thom,  A. Tkatchenko,  D. G. Truhlar,  
 T. Van Voorhis,  T. A. Wesolowski,  K. B. Whaley,  H. L. Woodcock III,  
 P. M. Zimmerman,  S. Faraji,  P. M. W. Gill,  M. Head-Gordon,  
 J. M. Herbert,  A. I. Krylov

 Contributors to earlier versions of Q-Chem not listed above: 
 R. D. Adamson,  B. Austin,  R. Baer,  J. Baker,  G. J. O. Beran,  
 K. Brandhorst,  S. T. Brown,  E. F. C. Byrd,  A. K. Chakraborty,  
 G. K. L. Chan,  Chun-Min Chang,  Yunqing Chen,  C.-L. Cheng,  
 Siu Hung Chien,  D. M. Chipman,  D. L. Crittenden,  H. Dachsel,  
 R. J. Doerksen,  A. D. Dutoi,  R. G. Edgar,  J. Fosso-Tande,  
 L. Fusti-Molnar,  D. Ghosh,  A. Ghysels,  A. Golubeva-Zadorozhnaya,  
 J. Gonthier,  M. S. Gordon,  S. R. Gwaltney,  G. Hawkins,  J. E. Herr,  
 A. Heyden,  S. Hirata,  E. G. Hohenstein,  G. Kedziora,  F. J. Keil,  
 C. Kelley,  Jihan Kim,  R. A. King,  R. Z. Khaliullin,  P. P. Korambath,  
 W. Kurlancheek,  A. Laurent,  A. M. Lee,  M. S. Lee,  S. V. Levchenko,  
 Ching Yeh Lin,  D. Liotard,  E. Livshits,  R. C. Lochan,  I. Lotan,  
 L. A. Martinez-Martinez,  P. E. Maslen,  N. Nair,  D. P. O'Neill,  
 D. Neuhauser,  E. Neuscamman,  C. M. Oana,  R. Olivares-Amaya,  R. Olson,  
 T. M. Perrine,  B. Peters,  P. A. Pieniazek,  A. Prociuk,  Y. M. Rhee,  
 J. Ritchie,  M. A. Rohrdanz,  E. Rosta,  N. J. Russ,  H. F. Schaefer III,  
 M. W. Schmidt,  N. E. Schultz,  S. Sharma,  N. Shenvi,  C. D. Sherrill,  
 A. C. Simmonett,  A. Sodt,  T. Stein,  D. Stuck,  K. S. Thanthiriwatte,  
 V. Vanovschi,  L. Vogt,  Tao Wang,  A. Warshel,  M. A. Watson,  
 C. F. Williams,  Q. Wu,  X. Xu,  Jun Yang,  W. Zhang,  Yan Zhao

 Please cite Q-Chem as follows:
 Y. Shao et al., Mol. Phys. 113, 184-215 (2015)
 DOI: 10.1080/00268976.2014.952696

 Q-Chem 5.4.0 for Intel X86 EM64T Linux

 Parts of Q-Chem use Armadillo 9.800.1 (Horizon Scraper).
 http://arma.sourceforge.net/

 Q-Chem begins on Wed Jun 12 03:04:17 2024  

 Host: 
0

     Scratch files written to /expanse/lustre/scratch/selhajj/temp_project/qcscratch/31258359/qchem1782307//
 May1621 |scratch|qcdevops|jenkins|workspace|build_RNUM    
 Processing $rem in /cm/shared/apps/spack/cpu/opt/spack/linux-centos8-zen2/gcc-10.2.0/qchem-5.4-akfmr7b3t57bfs6qan3padb2wnb2i7cl/config/preferences:
 Processing $rem in /home/selhajj/.qchemrc:
 Symmetry turned off for PCM/SM12/SMD calculation

 Checking the input file for inconsistencies... 	...done.

--------------------------------------------------------------
User input:
--------------------------------------------------------------
$molecule
-2 1
C                 -4.0732120000      3.5795140000      1.5405380000
C                 -4.5644640000      3.8061190000      0.2740470000
C                 -3.9640610000      3.1583250000     -0.8278580000
C                 -2.8806200000      2.3059540000     -0.6427420000
C                 -2.3514480000      2.0189640000      0.6518070000
C                 -2.9792930000      2.7105880000      1.7667610000
C                 -2.5195140000      2.5449990000      3.1444720000
C                 -1.4179130000      1.6588690000      3.2935900000
C                 -0.8043450000      0.9771390000      2.2422930000
C                 -1.2344850000      1.0926780000      0.8736080000
O                 -3.0680870000      3.1597150000      4.1351670000
O                 -0.6558480000      0.4156810000     -0.0456490000
H                 -4.5027530000      4.0521100000      2.4173510000
H                 -4.3511640000      3.3145890000     -1.8359870000
O                 -2.3216530000      1.7201860000     -1.7634550000
C                  0.3576470000      0.0543520000      2.5048440000
H                 -5.4074860000      4.4744220000      0.1096700000
H                 -1.0467970000      1.5201880000      4.3103390000
H                 -2.7418370000      2.1434750000     -2.5228100000
H                  0.6560080000      0.0892270000      3.5601580000
H                  1.2208260000      0.3171840000      1.8780680000
H                  0.1168380000     -0.9864060000      2.2426100000
$end
$rem
MAX_SCF_CYCLES=200
BASIS  =  6-311++G(d,p)
GUI  =  2
JOB_TYPE  =  SP
METHOD  =  B3LYP
SOLVENT_METHOD = PCM
$end
$pcm
theory = CPCM
$end
$solvent
dielectric 37.219
opticaldielectric 1.43
$end






--------------------------------------------------------------
 ----------------------------------------------------------------
             Standard Nuclear Orientation (Angstroms)
    I     Atom           X                Y                Z
 ----------------------------------------------------------------
    1      C      -4.0732120000     3.5795140000     1.5405380000
    2      C      -4.5644640000     3.8061190000     0.2740470000
    3      C      -3.9640610000     3.1583250000    -0.8278580000
    4      C      -2.8806200000     2.3059540000    -0.6427420000
    5      C      -2.3514480000     2.0189640000     0.6518070000
    6      C      -2.9792930000     2.7105880000     1.7667610000
    7      C      -2.5195140000     2.5449990000     3.1444720000
    8      C      -1.4179130000     1.6588690000     3.2935900000
    9      C      -0.8043450000     0.9771390000     2.2422930000
   10      C      -1.2344850000     1.0926780000     0.8736080000
   11      O      -3.0680870000     3.1597150000     4.1351670000
   12      O      -0.6558480000     0.4156810000    -0.0456490000
   13      H      -4.5027530000     4.0521100000     2.4173510000
   14      H      -4.3511640000     3.3145890000    -1.8359870000
   15      O      -2.3216530000     1.7201860000    -1.7634550000
   16      C       0.3576470000     0.0543520000     2.5048440000
   17      H      -5.4074860000     4.4744220000     0.1096700000
   18      H      -1.0467970000     1.5201880000     4.3103390000
   19      H      -2.7418370000     2.1434750000    -2.5228100000
   20      H       0.6560080000     0.0892270000     3.5601580000
   21      H       1.2208260000     0.3171840000     1.8780680000
   22      H       0.1168380000    -0.9864060000     2.2426100000
 ----------------------------------------------------------------
 Nuclear Repulsion Energy =         830.83289211 hartrees
 There are       50 alpha and       50 beta electrons
 Requested basis set is 6-311++G(d,p)
 There are 124 shells and 364 basis functions

 Total QAlloc Memory Limit   8000 MB
 Mega-Array Size       188 MB
 MEM_STATIC part       192 MB
 Discretize the solute cavity surface with Lebedev spheres
	Using 110 Lebedev grid points for each H atom
	Using 194 Lebedev grid points for other atoms
	Atomic van der Waals radii will be scaled by 1.20
 Remove points where switching function is < 1.0e-08
 Keep 1541 surface tesserae and discard 2055 interior tesserae
 Molecular Surface Area = 216.280 Angst**2
 A cutoff of  1.0D-08 yielded   5848 shell pairs
 There are     52601 function pairs (     56431 Cartesian)
 Smallest overlap matrix eigenvalue = 2.11E-07

 Q-Chem warning in module stvman/mkSTV.C, line 323:

 Overlap eigenvalue is smaller than square root of threshold
 Use THRESH >= 12 to get rid of this warning

 Linear dependence detected in AO basis
 Tighter screening thresholds may be required for diffuse basis sets
 Use S2THRESH > 14 and THRESH = 14 in case of SCF convergence issues
 Number of orthogonalized atomic orbitals = 361
 Maximum deviation from orthogonality = 1.393E-10

 Scale SEOQF with 1.000000e-02/1.000000e-01/1.000000e-01

 Standard Electronic Orientation quadrupole field applied
 Nucleus-field energy     =    -0.0000000069 hartrees
 Guess from superposition of atomic densities
 Warning:  Energy on first SCF cycle will be non-variational
 SAD guess density has 98.000000 electrons

 -----------------------------------------------------------------------
  General SCF calculation program by
  Eric Jon Sundstrom, Paul Horn, Yuezhi Mao, Dmitri Zuev, Alec White,
  David Stuck, Shaama M.S., Shane Yost, Joonho Lee, David Small,
  Daniel Levine, Susi Lehtola, Hugh Burton, Evgeny Epifanovsky,
  Bang C. Huynh
 -----------------------------------------------------------------------
 Exchange:     0.2000 Hartree-Fock + 0.0800 Slater + 0.7200 B88
 Correlation:  0.1900 VWN1RPA + 0.8100 LYP
 Using SG-1 standard quadrature grid
 using 8 threads for integral computing
 -------------------------------------------------------
 OpenMP Integral computing Module                
 Release: version 1.0, May 2013, Q-Chem Inc. Pittsburgh 
 -------------------------------------------------------
 A restricted SCF calculation will be
 performed using DIIS
 SCF converges when DIIS error is below 1.0e-05
 ---------------------------------------
  Cycle       Energy         DIIS error
 ---------------------------------------
    1    -652.8458945189      3.40e-02  
    2    -649.6720502502      5.13e-03  
    3    -648.4727204907      9.60e-03  
    4    -649.9998852144      2.44e-03  
    5    -650.0790755008      5.21e-04  
    6    -650.0829748927      2.59e-04  
    7    -650.0839559487      9.33e-05  
    8    -650.0840873216      3.19e-05  
    9    -650.0841029294      7.06e-06  Convergence criterion met
 ---------------------------------------
 SCF time:   CPU 201.80s  wall 30.00s 

************** Final PCM Free Energy Summary **************
 G_electrostatic  =      -0.31556326 hartree =    -198.01893478 kcal/mol
 G_cavitation     =       0.00000000 hartree =       0.00000000 kcal/mol
 G_dispersion     =       0.00000000 hartree =       0.00000000 kcal/mol
 G_repulsion      =       0.00000000 hartree =       0.00000000 kcal/mol
 --------------------------------------------------
 Non-electrostatic Free Energy =       0.00000000 hartree =       0.00000000 kcal/mol
 Total                         =      -0.31556326 hartree =    -198.01893478 kcal/mol
 --------------------------------------------------
 SCF Energy (H0 + V/2)                       =    -650.08410293 
 Solute Internal Energy (H0)                 =    -649.76853967 
 Total Free Energy (H0 + V/2 + non-elec)     =    -650.08410293 hartree
                                             = -407933.93153472 kcal/mol
***********************************************************

 SCF   energy in the final basis set =     -650.0841029294
 Total energy in the final basis set =     -650.0841029294
 
 --------------------------------------------------------------
 
                    Orbital Energies (a.u.)
 --------------------------------------------------------------
 
 Alpha MOs
 -- Occupied --
-19.1313 -19.0158 -19.0126 -10.2131 -10.1695 -10.1666 -10.1478 -10.1434
-10.1425 -10.1371 -10.1368 -10.1358 -10.1235 -10.1159  -1.0406  -0.9353
 -0.9317  -0.8204  -0.7689  -0.7226  -0.7137  -0.6671  -0.6244  -0.5956
 -0.5636  -0.5383  -0.4898  -0.4754  -0.4453  -0.4346  -0.4177  -0.4028
 -0.3984  -0.3853  -0.3738  -0.3600  -0.3562  -0.3474  -0.3456  -0.3371
 -0.3152  -0.3116  -0.3111  -0.3005  -0.2244  -0.2115  -0.2061  -0.1974
 -0.1880  -0.1062
 -- Virtual --
  0.0018   0.0038   0.0108   0.0111   0.0162   0.0292   0.0336   0.0425
  0.0502   0.0580   0.0599   0.0611   0.0770   0.0796   0.0833   0.0889
  0.0964   0.0980   0.1010   0.1066   0.1141   0.1221   0.1233   0.1265
  0.1291   0.1355   0.1403   0.1460   0.1472   0.1502   0.1507   0.1558
  0.1585   0.1687   0.1733   0.1792   0.1837   0.1884   0.1945   0.1962
  0.2021   0.2047   0.2086   0.2188   0.2221   0.2294   0.2388   0.2420
  0.2481   0.2565   0.2586   0.2667   0.2687   0.2765   0.2807   0.2818
  0.2870   0.2904   0.2964   0.3061   0.3126   0.3150   0.3180   0.3200
  0.3267   0.3308   0.3359   0.3371   0.3418   0.3455   0.3553   0.3645
  0.3721   0.3763   0.3797   0.3908   0.4030   0.4125   0.4169   0.4290
  0.4377   0.4653   0.4684   0.4795   0.4966   0.5098   0.5421   0.5554
  0.5603   0.5664   0.5815   0.5876   0.5904   0.6060   0.6128   0.6234
  0.6264   0.6284   0.6457   0.6494   0.6574   0.6598   0.6758   0.6787
  0.6801   0.6815   0.6970   0.7009   0.7136   0.7348   0.7430   0.7505
  0.7614   0.7886   0.7934   0.7994   0.8111   0.8212   0.8379   0.8513
  0.8703   0.8761   0.9134   0.9215   0.9272   0.9401   0.9502   0.9620
  0.9771   0.9860   0.9980   1.0084   1.0131   1.0194   1.0348   1.0385
  1.0720   1.0782   1.0827   1.0997   1.1091   1.1292   1.1328   1.1549
  1.1645   1.1770   1.1858   1.2239   1.2321   1.2407   1.2602   1.2728
  1.2816   1.3012   1.3138   1.3311   1.3470   1.3840   1.4127   1.4242
  1.4413   1.4526   1.4793   1.4959   1.5138   1.5318   1.5439   1.5540
  1.5754   1.5823   1.5921   1.5991   1.6201   1.6335   1.6430   1.6460
  1.6495   1.6928   1.7186   1.7363   1.7405   1.7672   1.7752   1.7987
  1.8093   1.8364   1.8509   1.8698   1.8768   1.8825   1.8963   1.9208
  1.9347   1.9589   1.9663   1.9757   1.9773   1.9831   2.0106   2.0202
  2.0569   2.0723   2.0776   2.0883   2.0983   2.1358   2.1507   2.1775
  2.1937   2.2195   2.2691   2.2786   2.3034   2.3415   2.3602   2.3768
  2.3973   2.4393   2.4559   2.5023   2.5172   2.5716   2.5859   2.5895
  2.6136   2.6283   2.6361   2.6688   2.6704   2.7075   2.7208   2.7508
  2.7686   2.7752   2.7785   2.7960   2.8041   2.8151   2.8339   2.8381
  2.8592   2.9023   2.9052   2.9213   2.9300   2.9687   3.0025   3.0055
  3.0171   3.0823   3.0911   3.0950   3.1220   3.1429   3.1800   3.1845
  3.2069   3.2321   3.2489   3.2796   3.3161   3.3621   3.3721   3.3857
  3.4027   3.4621   3.4939   3.5287   3.5356   3.5603   3.6154   3.6443
  3.6868   3.7523   3.7948   3.8379   3.8850   3.9243   3.9385   4.0831
  4.1185   4.2048   4.2306   4.3366   4.3515   4.4532   4.8379   4.8592
  5.0284   5.1395   5.1594   5.2983   5.3262   5.5281   5.7395   5.8004
  5.8669  23.5840  23.8185  23.9191  23.9708  23.9715  23.9879  24.0186
 24.0277  24.1037  24.1687  24.2108  49.9687  50.0975  50.1475
 --------------------------------------------------------------
 
          Ground-State Mulliken Net Atomic Charges

     Atom                 Charge (a.u.)
  ----------------------------------------
      1 C                    -0.107142
      2 C                    -0.449745
      3 C                    -0.245531
      4 C                     0.027210
      5 C                    -0.186402
      6 C                     0.567144
      7 C                    -0.693400
      8 C                    -0.385521
      9 C                     0.582861
     10 C                    -0.325945
     11 O                    -0.735807
     12 O                    -0.699215
     13 H                     0.133129
     14 H                     0.154973
     15 O                    -0.278924
     16 C                    -0.362379
     17 H                     0.176999
     18 H                     0.103118
     19 H                     0.299352
     20 H                     0.141601
     21 H                     0.141154
     22 H                     0.142473
  ----------------------------------------
  Sum of atomic charges =    -2.000000

 -----------------------------------------------------------------
                    Cartesian Multipole Moments
 -----------------------------------------------------------------
    Charge (ESU x 10^10)
                -9.6064
    Dipole Moment (Debye)
         X      18.7479      Y     -17.6467      Z     -19.2076
       Tot      32.1220
    Quadrupole Moments (Debye-Ang)
        XX    -142.0577     XY      48.3329     YY    -141.0748
        XZ      58.8985     YZ     -59.7152     ZZ    -158.5651
    Octopole Moments (Debye-Ang^2)
       XXX     777.0970    XXY    -326.7127    XYY     350.5610
       YYY    -722.2593    XXZ    -301.5369    XYZ     183.0340
       YYZ    -301.5849    XZZ     402.4225    YZZ    -392.6223
       ZZZ    -664.1177
    Hexadecapole Moments (Debye-Ang^3)
      XXXX   -4612.1779   XXXY    2137.3425   XXYY   -1614.2981
      XYYY    2191.2937   YYYY   -3749.0366   XXXZ    1215.4388
      XXYZ    -802.8075   XYYZ     773.5214   YYYZ   -1277.0135
      XXZZ   -1706.9135   XYZZ    1187.5532   YYZZ   -1629.8295
      XZZZ    1601.5186   YZZZ   -1680.0970   ZZZZ   -3801.4231
 -----------------------------------------------------------------
 Total job time:  319.58s(wall), 213.10s(cpu) 
 Wed Jun 12 03:09:36 2024

        *************************************************************
        *                                                           *
        *  Thank you very much for using Q-Chem.  Have a nice day.  *
        *                                                           *
        *************************************************************


