 Entering Gaussian System, Link 0=g16
 Input=314-rad.com
 Output=314-rad.log
 Initial command:
 /sysapps/ubuntu-applications/gaussian/Gaussian/AVX2/g16/l1.exe "/scratch/selhajj1/4235695/Gau-480403.inp" -scrdir="/scratch/selhajj1/4235695/"
 Entering Link 1 = /sysapps/ubuntu-applications/gaussian/Gaussian/AVX2/g16/l1.exe PID=    480412.
  
 Copyright (c) 1988,1990,1992,1993,1995,1998,2003,2009,2016,
            Gaussian, Inc.  All Rights Reserved.
  
 This is part of the Gaussian(R) 16 program.  It is based on
 the Gaussian(R) 09 system (copyright 2009, Gaussian, Inc.),
 the Gaussian(R) 03 system (copyright 2003, Gaussian, Inc.),
 the Gaussian(R) 98 system (copyright 1998, Gaussian, Inc.),
 the Gaussian(R) 94 system (copyright 1995, Gaussian, Inc.),
 the Gaussian 92(TM) system (copyright 1992, Gaussian, Inc.),
 the Gaussian 90(TM) system (copyright 1990, Gaussian, Inc.),
 the Gaussian 88(TM) system (copyright 1988, Gaussian, Inc.),
 the Gaussian 86(TM) system (copyright 1986, Carnegie Mellon
 University), and the Gaussian 82(TM) system (copyright 1983,
 Carnegie Mellon University). Gaussian is a federally registered
 trademark of Gaussian, Inc.
  
 This software contains proprietary and confidential information,
 including trade secrets, belonging to Gaussian, Inc.
  
 This software is provided under written license and may be
 used, copied, transmitted, or stored only in accord with that
 written license.
  
 The following legend is applicable only to US Government
 contracts under FAR:
  
                    RESTRICTED RIGHTS LEGEND
  
 Use, reproduction and disclosure by the US Government is
 subject to restrictions as set forth in subparagraphs (a)
 and (c) of the Commercial Computer Software - Restricted
 Rights clause in FAR 52.227-19.
  
 Gaussian, Inc.
 340 Quinnipiac St., Bldg. 40, Wallingford CT 06492
  
  
 ---------------------------------------------------------------
 Warning -- This program may not be used in any manner that
 competes with the business of Gaussian, Inc. or will provide
 assistance to any competitor of Gaussian, Inc.  The licensee
 of this program is prohibited from giving any competitor of
 Gaussian, Inc. access to this program.  By using this program,
 the user acknowledges that Gaussian, Inc. is engaged in the
 business of creating and licensing software in the field of
 computational chemistry and represents and warrants to the
 licensee that it is not a competitor of Gaussian, Inc. and that
 it will not use this program in any manner prohibited above.
 ---------------------------------------------------------------
  

 Cite this work as:
 Gaussian 16, Revision A.03,
 M. J. Frisch, G. W. Trucks, H. B. Schlegel, G. E. Scuseria, 
 M. A. Robb, J. R. Cheeseman, G. Scalmani, V. Barone, 
 G. A. Petersson, H. Nakatsuji, X. Li, M. Caricato, A. V. Marenich, 
 J. Bloino, B. G. Janesko, R. Gomperts, B. Mennucci, H. P. Hratchian, 
 J. V. Ortiz, A. F. Izmaylov, J. L. Sonnenberg, D. Williams-Young, 
 F. Ding, F. Lipparini, F. Egidi, J. Goings, B. Peng, A. Petrone, 
 T. Henderson, D. Ranasinghe, V. G. Zakrzewski, J. Gao, N. Rega, 
 G. Zheng, W. Liang, M. Hada, M. Ehara, K. Toyota, R. Fukuda, 
 J. Hasegawa, M. Ishida, T. Nakajima, Y. Honda, O. Kitao, H. Nakai, 
 T. Vreven, K. Throssell, J. A. Montgomery, Jr., J. E. Peralta, 
 F. Ogliaro, M. J. Bearpark, J. J. Heyd, E. N. Brothers, K. N. Kudin, 
 V. N. Staroverov, T. A. Keith, R. Kobayashi, J. Normand, 
 K. Raghavachari, A. P. Rendell, J. C. Burant, S. S. Iyengar, 
 J. Tomasi, M. Cossi, J. M. Millam, M. Klene, C. Adamo, R. Cammi, 
 J. W. Ochterski, R. L. Martin, K. Morokuma, O. Farkas, 
 J. B. Foresman, and D. J. Fox, Gaussian, Inc., Wallingford CT, 2016.
 
 ******************************************
 Gaussian 16:  ES64L-G16RevA.03 25-Dec-2016
                28-Dec-2023 
 ******************************************
 %chk=314-rad.chk
 %nproc=8
 Will use up to    8 processors via shared memory.
 %mem=30GB
 --------------------------------------
 #P UB3LYP/6-311++G(d,p) nosym opt freq
 --------------------------------------
 1/18=20,19=15,26=3,38=1/1,3;
 2/9=110,12=2,15=1,17=6,18=5,40=1/2;
 3/5=4,6=6,7=1111,11=2,25=1,30=1,71=1,74=-5,116=2/1,2,3;
 4//1;
 5/5=2,38=5/2;
 6/7=2,8=2,9=2,10=2,28=1/1;
 7/30=1/1,2,3,16;
 1/18=20,19=15,26=3/3(2);
 2/9=110,15=1/2;
 99//99;
 2/9=110,15=1/2;
 3/5=4,6=6,7=1111,11=2,25=1,30=1,71=1,74=-5,116=2/1,2,3;
 4/5=5,16=3,69=1/1;
 5/5=2,38=5/2;
 7/30=1/1,2,3,16;
 1/18=20,19=15,26=3/3(-5);
 2/9=110,15=1/2;
 6/7=2,8=2,9=2,10=2,19=2,28=1/1;
 99/9=1/99;
 Leave Link    1 at Thu Dec 28 19:45:49 2023, MaxMem=  4026531840 cpu:               0.7 elap:               0.1
 (Enter /sysapps/ubuntu-applications/gaussian/Gaussian/AVX2/g16/l101.exe)
 -------
 Radical
 -------
 Symbolic Z-matrix:
 Charge = -1 Multiplicity = 2
 C                    -4.68087  -0.92261  -2.78719 
 C                    -4.06305  -1.45198  -3.92113 
 C                    -2.7158   -1.19287  -4.1631 
 C                    -3.94975  -0.12967  -1.89034 
 C                    -2.60651   0.12799  -2.12989 
 C                    -1.98703  -0.40541  -3.27039 
 C                    -4.61766   0.426    -0.70313 
 C                    -3.83602   1.29202   0.22659 
 C                    -2.52951   1.52244  -0.00092 
 C                    -1.82392   0.95687  -1.19697 
 O                    -5.8001    0.17729  -0.49362 
 O                    -0.63467   1.1517   -1.42925 
 H                    -5.73473  -1.12945  -2.60632 
 H                    -4.63389  -2.06534  -4.61496 
 H                    -2.2314   -1.60303  -5.04663 
 H                    -0.93439  -0.20825  -3.46868 
 C                    -4.65796   1.83254   1.36726 
 S                    -1.54176   2.52019   1.0372 
 C                    -0.99726   1.26495   2.1846 
 C                    -1.56616   1.19645   3.46115 
 C                    -1.1535    0.22169   4.38526 
 C                    -0.14284  -0.6962    4.01906 
 C                     0.43225  -0.6096    2.7423 
 C                     0.01273   0.3668    1.83539 
 C                    -1.72183   0.14122   5.66704 
 C                    -1.30111  -0.83249   6.57422 
 C                    -0.30773  -1.73748   6.21235 
 C                     0.26863  -1.67017   4.94292 
 H                    -5.55355   2.33648   0.98673 
 H                    -4.13258   2.56524   1.98376 
 H                    -4.97365   1.01514   2.0246 
 H                    -2.33606   1.91063   3.74489 
 H                     1.21945  -1.29874   2.44416 
 H                     0.48908   0.42108   0.8583 
 H                    -2.49833   0.8401    5.97031 
 H                    -1.7487   -0.88251   7.56349 
 H                     0.02139  -2.49543   6.91849 
 H                     1.0458   -2.38443   4.68008 
 
 ITRead=  0  0  0  0  0  0  0  0  0  0  0  0  0  0  0  0  0  0  0  0
 ITRead=  0  0  0  0  0  0  0  0  0  0  0  0  0  0  0  0  0  0
 MicOpt= -1 -1 -1 -1 -1 -1 -1 -1 -1 -1 -1 -1 -1 -1 -1 -1 -1 -1 -1 -1
 MicOpt= -1 -1 -1 -1 -1 -1 -1 -1 -1 -1 -1 -1 -1 -1 -1 -1 -1 -1
 NAtoms=     38 NQM=       38 NQMF=       0 NMMI=      0 NMMIF=      0
                NMic=       0 NMicF=      0.
                    Isotopes and Nuclear Properties:
 (Nuclear quadrupole moments (NQMom) in fm**2, nuclear magnetic moments (NMagM)
  in nuclear magnetons)

  Atom         1           2           3           4           5           6           7           8           9          10
 IAtWgt=          12          12          12          12          12          12          12          12          12          12
 AtmWgt=  12.0000000  12.0000000  12.0000000  12.0000000  12.0000000  12.0000000  12.0000000  12.0000000  12.0000000  12.0000000
 NucSpn=           0           0           0           0           0           0           0           0           0           0
 AtZEff=  -0.0000000  -0.0000000  -0.0000000  -0.0000000  -0.0000000  -0.0000000  -0.0000000  -0.0000000  -0.0000000  -0.0000000
 NQMom=    0.0000000   0.0000000   0.0000000   0.0000000   0.0000000   0.0000000   0.0000000   0.0000000   0.0000000   0.0000000
 NMagM=    0.0000000   0.0000000   0.0000000   0.0000000   0.0000000   0.0000000   0.0000000   0.0000000   0.0000000   0.0000000
 AtZNuc=   6.0000000   6.0000000   6.0000000   6.0000000   6.0000000   6.0000000   6.0000000   6.0000000   6.0000000   6.0000000

  Atom        11          12          13          14          15          16          17          18          19          20
 IAtWgt=          16          16           1           1           1           1          12          32          12          12
 AtmWgt=  15.9949146  15.9949146   1.0078250   1.0078250   1.0078250   1.0078250  12.0000000  31.9720718  12.0000000  12.0000000
 NucSpn=           0           0           1           1           1           1           0           0           0           0
 AtZEff=  -0.0000000  -0.0000000  -0.0000000  -0.0000000  -0.0000000  -0.0000000  -0.0000000  -0.0000000  -0.0000000  -0.0000000
 NQMom=    0.0000000   0.0000000   0.0000000   0.0000000   0.0000000   0.0000000   0.0000000   0.0000000   0.0000000   0.0000000
 NMagM=    0.0000000   0.0000000   2.7928460   2.7928460   2.7928460   2.7928460   0.0000000   0.0000000   0.0000000   0.0000000
 AtZNuc=   8.0000000   8.0000000   1.0000000   1.0000000   1.0000000   1.0000000   6.0000000  16.0000000   6.0000000   6.0000000

  Atom        21          22          23          24          25          26          27          28          29          30
 IAtWgt=          12          12          12          12          12          12          12          12           1           1
 AtmWgt=  12.0000000  12.0000000  12.0000000  12.0000000  12.0000000  12.0000000  12.0000000  12.0000000   1.0078250   1.0078250
 NucSpn=           0           0           0           0           0           0           0           0           1           1
 AtZEff=  -0.0000000  -0.0000000  -0.0000000  -0.0000000  -0.0000000  -0.0000000  -0.0000000  -0.0000000  -0.0000000  -0.0000000
 NQMom=    0.0000000   0.0000000   0.0000000   0.0000000   0.0000000   0.0000000   0.0000000   0.0000000   0.0000000   0.0000000
 NMagM=    0.0000000   0.0000000   0.0000000   0.0000000   0.0000000   0.0000000   0.0000000   0.0000000   2.7928460   2.7928460
 AtZNuc=   6.0000000   6.0000000   6.0000000   6.0000000   6.0000000   6.0000000   6.0000000   6.0000000   1.0000000   1.0000000

  Atom        31          32          33          34          35          36          37          38
 IAtWgt=           1           1           1           1           1           1           1           1
 AtmWgt=   1.0078250   1.0078250   1.0078250   1.0078250   1.0078250   1.0078250   1.0078250   1.0078250
 NucSpn=           1           1           1           1           1           1           1           1
 AtZEff=  -0.0000000  -0.0000000  -0.0000000  -0.0000000  -0.0000000  -0.0000000  -0.0000000  -0.0000000
 NQMom=    0.0000000   0.0000000   0.0000000   0.0000000   0.0000000   0.0000000   0.0000000   0.0000000
 NMagM=    2.7928460   2.7928460   2.7928460   2.7928460   2.7928460   2.7928460   2.7928460   2.7928460
 AtZNuc=   1.0000000   1.0000000   1.0000000   1.0000000   1.0000000   1.0000000   1.0000000   1.0000000
 Leave Link  101 at Thu Dec 28 19:45:50 2023, MaxMem=  4026531840 cpu:               4.2 elap:               0.7
 (Enter /sysapps/ubuntu-applications/gaussian/Gaussian/AVX2/g16/l103.exe)

 GradGradGradGradGradGradGradGradGradGradGradGradGradGradGradGradGradGrad
 Berny optimization.
 Initialization pass.
                           ----------------------------
                           !    Initial Parameters    !
                           ! (Angstroms and Degrees)  !
 --------------------------                            --------------------------
 ! Name  Definition              Value          Derivative Info.                !
 --------------------------------------------------------------------------------
 ! R1    R(1,2)                  1.3956         estimate D2E/DX2                !
 ! R2    R(1,4)                  1.4027         estimate D2E/DX2                !
 ! R3    R(1,13)                 1.0891         estimate D2E/DX2                !
 ! R4    R(2,3)                  1.3931         estimate D2E/DX2                !
 ! R5    R(2,14)                 1.0879         estimate D2E/DX2                !
 ! R6    R(3,6)                  1.3958         estimate D2E/DX2                !
 ! R7    R(3,15)                 1.0879         estimate D2E/DX2                !
 ! R8    R(4,5)                  1.3885         estimate D2E/DX2                !
 ! R9    R(4,7)                  1.4712         estimate D2E/DX2                !
 ! R10   R(5,6)                  1.4032         estimate D2E/DX2                !
 ! R11   R(5,10)                 1.473          estimate D2E/DX2                !
 ! R12   R(6,16)                 1.0891         estimate D2E/DX2                !
 ! R13   R(7,8)                  1.4918         estimate D2E/DX2                !
 ! R14   R(7,11)                 1.2263         estimate D2E/DX2                !
 ! R15   R(8,9)                  1.346          estimate D2E/DX2                !
 ! R16   R(8,17)                 1.5063         estimate D2E/DX2                !
 ! R17   R(9,10)                 1.4994         estimate D2E/DX2                !
 ! R18   R(9,18)                 1.7461         estimate D2E/DX2                !
 ! R19   R(10,12)                1.2273         estimate D2E/DX2                !
 ! R20   R(17,29)                1.0958         estimate D2E/DX2                !
 ! R21   R(17,30)                1.0922         estimate D2E/DX2                !
 ! R22   R(17,31)                1.0954         estimate D2E/DX2                !
 ! R23   R(18,19)                1.7857         estimate D2E/DX2                !
 ! R24   R(19,20)                1.3993         estimate D2E/DX2                !
 ! R25   R(19,24)                1.396          estimate D2E/DX2                !
 ! R26   R(20,21)                1.4051         estimate D2E/DX2                !
 ! R27   R(20,32)                1.0878         estimate D2E/DX2                !
 ! R28   R(21,22)                1.4135         estimate D2E/DX2                !
 ! R29   R(21,25)                1.4044         estimate D2E/DX2                !
 ! R30   R(22,23)                1.403          estimate D2E/DX2                !
 ! R31   R(22,28)                1.4041         estimate D2E/DX2                !
 ! R32   R(23,24)                1.3971         estimate D2E/DX2                !
 ! R33   R(23,33)                1.0879         estimate D2E/DX2                !
 ! R34   R(24,34)                1.0884         estimate D2E/DX2                !
 ! R35   R(25,26)                1.3957         estimate D2E/DX2                !
 ! R36   R(25,35)                1.0878         estimate D2E/DX2                !
 ! R37   R(26,27)                1.3917         estimate D2E/DX2                !
 ! R38   R(26,36)                1.087          estimate D2E/DX2                !
 ! R39   R(27,28)                1.3958         estimate D2E/DX2                !
 ! R40   R(27,37)                1.0869         estimate D2E/DX2                !
 ! R41   R(28,38)                1.0878         estimate D2E/DX2                !
 ! A1    A(2,1,4)              120.2097         estimate D2E/DX2                !
 ! A2    A(2,1,13)             119.4236         estimate D2E/DX2                !
 ! A3    A(4,1,13)             120.3667         estimate D2E/DX2                !
 ! A4    A(1,2,3)              119.913          estimate D2E/DX2                !
 ! A5    A(1,2,14)             119.9848         estimate D2E/DX2                !
 ! A6    A(3,2,14)             120.1022         estimate D2E/DX2                !
 ! A7    A(2,3,6)              119.9198         estimate D2E/DX2                !
 ! A8    A(2,3,15)             120.1023         estimate D2E/DX2                !
 ! A9    A(6,3,15)             119.9779         estimate D2E/DX2                !
 ! A10   A(1,4,5)              119.9207         estimate D2E/DX2                !
 ! A11   A(1,4,7)              119.5272         estimate D2E/DX2                !
 ! A12   A(5,4,7)              120.5518         estimate D2E/DX2                !
 ! A13   A(4,5,6)              119.7851         estimate D2E/DX2                !
 ! A14   A(4,5,10)             120.6036         estimate D2E/DX2                !
 ! A15   A(6,5,10)             119.6112         estimate D2E/DX2                !
 ! A16   A(3,6,5)              120.2515         estimate D2E/DX2                !
 ! A17   A(3,6,16)             119.3615         estimate D2E/DX2                !
 ! A18   A(5,6,16)             120.3869         estimate D2E/DX2                !
 ! A19   A(4,7,8)              118.9688         estimate D2E/DX2                !
 ! A20   A(4,7,11)             119.9346         estimate D2E/DX2                !
 ! A21   A(8,7,11)             121.0963         estimate D2E/DX2                !
 ! A22   A(7,8,9)              120.1737         estimate D2E/DX2                !
 ! A23   A(7,8,17)             113.2266         estimate D2E/DX2                !
 ! A24   A(9,8,17)             126.5996         estimate D2E/DX2                !
 ! A25   A(8,9,10)             121.8037         estimate D2E/DX2                !
 ! A26   A(8,9,18)             123.1208         estimate D2E/DX2                !
 ! A27   A(10,9,18)            115.061          estimate D2E/DX2                !
 ! A28   A(5,10,9)             117.8679         estimate D2E/DX2                !
 ! A29   A(5,10,12)            118.965          estimate D2E/DX2                !
 ! A30   A(9,10,12)            123.1671         estimate D2E/DX2                !
 ! A31   A(8,17,29)            110.3663         estimate D2E/DX2                !
 ! A32   A(8,17,30)            113.9342         estimate D2E/DX2                !
 ! A33   A(8,17,31)            110.1161         estimate D2E/DX2                !
 ! A34   A(29,17,30)           106.2979         estimate D2E/DX2                !
 ! A35   A(29,17,31)           108.4218         estimate D2E/DX2                !
 ! A36   A(30,17,31)           107.4873         estimate D2E/DX2                !
 ! A37   A(9,18,19)             98.7916         estimate D2E/DX2                !
 ! A38   A(18,19,20)           119.7784         estimate D2E/DX2                !
 ! A39   A(18,19,24)           120.8071         estimate D2E/DX2                !
 ! A40   A(20,19,24)           119.3986         estimate D2E/DX2                !
 ! A41   A(19,20,21)           120.9673         estimate D2E/DX2                !
 ! A42   A(19,20,32)           119.5761         estimate D2E/DX2                !
 ! A43   A(21,20,32)           119.456          estimate D2E/DX2                !
 ! A44   A(20,21,22)           119.3449         estimate D2E/DX2                !
 ! A45   A(20,21,25)           121.4082         estimate D2E/DX2                !
 ! A46   A(22,21,25)           119.2467         estimate D2E/DX2                !
 ! A47   A(21,22,23)           119.2591         estimate D2E/DX2                !
 ! A48   A(21,22,28)           119.3085         estimate D2E/DX2                !
 ! A49   A(23,22,28)           121.4316         estimate D2E/DX2                !
 ! A50   A(22,23,24)           120.717          estimate D2E/DX2                !
 ! A51   A(22,23,33)           120.4583         estimate D2E/DX2                !
 ! A52   A(24,23,33)           118.8232         estimate D2E/DX2                !
 ! A53   A(19,24,23)           120.2999         estimate D2E/DX2                !
 ! A54   A(19,24,34)           120.6073         estimate D2E/DX2                !
 ! A55   A(23,24,34)           119.0912         estimate D2E/DX2                !
 ! A56   A(21,25,26)           120.7433         estimate D2E/DX2                !
 ! A57   A(21,25,35)           120.43           estimate D2E/DX2                !
 ! A58   A(26,25,35)           118.8267         estimate D2E/DX2                !
 ! A59   A(25,26,27)           119.9878         estimate D2E/DX2                !
 ! A60   A(25,26,36)           119.9686         estimate D2E/DX2                !
 ! A61   A(27,26,36)           120.0435         estimate D2E/DX2                !
 ! A62   A(26,27,28)           119.9921         estimate D2E/DX2                !
 ! A63   A(26,27,37)           120.0443         estimate D2E/DX2                !
 ! A64   A(28,27,37)           119.9634         estimate D2E/DX2                !
 ! A65   A(22,28,27)           120.7214         estimate D2E/DX2                !
 ! A66   A(22,28,38)           120.389          estimate D2E/DX2                !
 ! A67   A(27,28,38)           118.8893         estimate D2E/DX2                !
 ! D1    D(4,1,2,3)              0.0329         estimate D2E/DX2                !
 ! D2    D(4,1,2,14)          -179.9162         estimate D2E/DX2                !
 ! D3    D(13,1,2,3)           179.9422         estimate D2E/DX2                !
 ! D4    D(13,1,2,14)           -0.0069         estimate D2E/DX2                !
 ! D5    D(2,1,4,5)             -0.1013         estimate D2E/DX2                !
 ! D6    D(2,1,4,7)            179.7111         estimate D2E/DX2                !
 ! D7    D(13,1,4,5)           179.9903         estimate D2E/DX2                !
 ! D8    D(13,1,4,7)            -0.1974         estimate D2E/DX2                !
 ! D9    D(1,2,3,6)              0.0498         estimate D2E/DX2                !
 ! D10   D(1,2,3,15)          -179.931          estimate D2E/DX2                !
 ! D11   D(14,2,3,6)           179.9989         estimate D2E/DX2                !
 ! D12   D(14,2,3,15)            0.018          estimate D2E/DX2                !
 ! D13   D(2,3,6,5)             -0.0648         estimate D2E/DX2                !
 ! D14   D(2,3,6,16)          -179.9729         estimate D2E/DX2                !
 ! D15   D(15,3,6,5)           179.9161         estimate D2E/DX2                !
 ! D16   D(15,3,6,16)            0.008          estimate D2E/DX2                !
 ! D17   D(1,4,5,6)              0.0861         estimate D2E/DX2                !
 ! D18   D(1,4,5,10)          -179.9009         estimate D2E/DX2                !
 ! D19   D(7,4,5,6)           -179.7243         estimate D2E/DX2                !
 ! D20   D(7,4,5,10)             0.2887         estimate D2E/DX2                !
 ! D21   D(1,4,7,8)           -178.6781         estimate D2E/DX2                !
 ! D22   D(1,4,7,11)             1.1132         estimate D2E/DX2                !
 ! D23   D(5,4,7,8)              1.1331         estimate D2E/DX2                !
 ! D24   D(5,4,7,11)          -179.0757         estimate D2E/DX2                !
 ! D25   D(4,5,6,3)             -0.0035         estimate D2E/DX2                !
 ! D26   D(4,5,6,16)           179.9036         estimate D2E/DX2                !
 ! D27   D(10,5,6,3)           179.9836         estimate D2E/DX2                !
 ! D28   D(10,5,6,16)           -0.1093         estimate D2E/DX2                !
 ! D29   D(4,5,10,9)            -0.8344         estimate D2E/DX2                !
 ! D30   D(4,5,10,12)          179.1043         estimate D2E/DX2                !
 ! D31   D(6,5,10,9)           179.1786         estimate D2E/DX2                !
 ! D32   D(6,5,10,12)           -0.8827         estimate D2E/DX2                !
 ! D33   D(4,7,8,9)             -2.0776         estimate D2E/DX2                !
 ! D34   D(4,7,8,17)           177.7906         estimate D2E/DX2                !
 ! D35   D(11,7,8,9)           178.1336         estimate D2E/DX2                !
 ! D36   D(11,7,8,17)           -1.9981         estimate D2E/DX2                !
 ! D37   D(7,8,9,10)             1.5576         estimate D2E/DX2                !
 ! D38   D(7,8,9,18)          -179.8995         estimate D2E/DX2                !
 ! D39   D(17,8,9,10)         -178.2916         estimate D2E/DX2                !
 ! D40   D(17,8,9,18)            0.2513         estimate D2E/DX2                !
 ! D41   D(7,8,17,29)          -53.2943         estimate D2E/DX2                !
 ! D42   D(7,8,17,30)         -172.7847         estimate D2E/DX2                !
 ! D43   D(7,8,17,31)           66.3722         estimate D2E/DX2                !
 ! D44   D(9,8,17,29)          126.5639         estimate D2E/DX2                !
 ! D45   D(9,8,17,30)            7.0735         estimate D2E/DX2                !
 ! D46   D(9,8,17,31)         -113.7697         estimate D2E/DX2                !
 ! D47   D(8,9,10,5)            -0.1227         estimate D2E/DX2                !
 ! D48   D(8,9,10,12)          179.9414         estimate D2E/DX2                !
 ! D49   D(18,9,10,5)         -178.7756         estimate D2E/DX2                !
 ! D50   D(18,9,10,12)           1.2885         estimate D2E/DX2                !
 ! D51   D(8,9,18,19)           88.859          estimate D2E/DX2                !
 ! D52   D(10,9,18,19)         -92.508          estimate D2E/DX2                !
 ! D53   D(9,18,19,20)        -104.0698         estimate D2E/DX2                !
 ! D54   D(9,18,19,24)          77.3856         estimate D2E/DX2                !
 ! D55   D(18,19,20,21)       -179.7946         estimate D2E/DX2                !
 ! D56   D(18,19,20,32)         -0.0738         estimate D2E/DX2                !
 ! D57   D(24,19,20,21)         -1.2295         estimate D2E/DX2                !
 ! D58   D(24,19,20,32)        178.4913         estimate D2E/DX2                !
 ! D59   D(18,19,24,23)        179.8825         estimate D2E/DX2                !
 ! D60   D(18,19,24,34)          0.3436         estimate D2E/DX2                !
 ! D61   D(20,19,24,23)          1.3324         estimate D2E/DX2                !
 ! D62   D(20,19,24,34)       -178.2064         estimate D2E/DX2                !
 ! D63   D(19,20,21,22)          0.3891         estimate D2E/DX2                !
 ! D64   D(19,20,21,25)       -179.7483         estimate D2E/DX2                !
 ! D65   D(32,20,21,22)       -179.332          estimate D2E/DX2                !
 ! D66   D(32,20,21,25)          0.5306         estimate D2E/DX2                !
 ! D67   D(20,21,22,23)          0.3478         estimate D2E/DX2                !
 ! D68   D(20,21,22,28)       -179.9803         estimate D2E/DX2                !
 ! D69   D(25,21,22,23)       -179.5177         estimate D2E/DX2                !
 ! D70   D(25,21,22,28)          0.1541         estimate D2E/DX2                !
 ! D71   D(20,21,25,26)       -179.9819         estimate D2E/DX2                !
 ! D72   D(20,21,25,35)         -0.0855         estimate D2E/DX2                !
 ! D73   D(22,21,25,26)         -0.1192         estimate D2E/DX2                !
 ! D74   D(22,21,25,35)        179.7772         estimate D2E/DX2                !
 ! D75   D(21,22,23,24)         -0.2417         estimate D2E/DX2                !
 ! D76   D(21,22,23,33)        179.2966         estimate D2E/DX2                !
 ! D77   D(28,22,23,24)       -179.9064         estimate D2E/DX2                !
 ! D78   D(28,22,23,33)         -0.368          estimate D2E/DX2                !
 ! D79   D(21,22,28,27)         -0.0775         estimate D2E/DX2                !
 ! D80   D(21,22,28,38)       -179.9209         estimate D2E/DX2                !
 ! D81   D(23,22,28,27)        179.587          estimate D2E/DX2                !
 ! D82   D(23,22,28,38)         -0.2564         estimate D2E/DX2                !
 ! D83   D(22,23,24,19)         -0.6059         estimate D2E/DX2                !
 ! D84   D(22,23,24,34)        178.9399         estimate D2E/DX2                !
 ! D85   D(33,23,24,19)        179.8483         estimate D2E/DX2                !
 ! D86   D(33,23,24,34)         -0.6059         estimate D2E/DX2                !
 ! D87   D(21,25,26,27)          0.0048         estimate D2E/DX2                !
 ! D88   D(21,25,26,36)        179.9197         estimate D2E/DX2                !
 ! D89   D(35,25,26,27)       -179.8933         estimate D2E/DX2                !
 ! D90   D(35,25,26,36)          0.0215         estimate D2E/DX2                !
 ! D91   D(25,26,27,28)          0.0742         estimate D2E/DX2                !
 ! D92   D(25,26,27,37)        179.9314         estimate D2E/DX2                !
 ! D93   D(36,26,27,28)       -179.8406         estimate D2E/DX2                !
 ! D94   D(36,26,27,37)          0.0166         estimate D2E/DX2                !
 ! D95   D(26,27,28,22)         -0.0373         estimate D2E/DX2                !
 ! D96   D(26,27,28,38)        179.8084         estimate D2E/DX2                !
 ! D97   D(37,27,28,22)       -179.8947         estimate D2E/DX2                !
 ! D98   D(37,27,28,38)         -0.049          estimate D2E/DX2                !
 --------------------------------------------------------------------------------
 Trust Radius=3.00D-01 FncErr=1.00D-07 GrdErr=1.00D-06 EigMax=2.50D+02 EigMin=1.00D-04
 Number of steps in this run=    216 maximum allowed number of steps=    228.
 GradGradGradGradGradGradGradGradGradGradGradGradGradGradGradGradGradGrad

 Leave Link  103 at Thu Dec 28 19:45:50 2023, MaxMem=  4026531840 cpu:               0.3 elap:               0.1
 (Enter /sysapps/ubuntu-applications/gaussian/Gaussian/AVX2/g16/l202.exe)
                          Input orientation:                          
 ---------------------------------------------------------------------
 Center     Atomic      Atomic             Coordinates (Angstroms)
 Number     Number       Type             X           Y           Z
 ---------------------------------------------------------------------
      1          6           0       -4.680870   -0.922610   -2.787190
      2          6           0       -4.063050   -1.451980   -3.921130
      3          6           0       -2.715800   -1.192870   -4.163100
      4          6           0       -3.949750   -0.129670   -1.890340
      5          6           0       -2.606510    0.127990   -2.129890
      6          6           0       -1.987030   -0.405410   -3.270390
      7          6           0       -4.617660    0.426000   -0.703130
      8          6           0       -3.836020    1.292020    0.226590
      9          6           0       -2.529510    1.522440   -0.000920
     10          6           0       -1.823920    0.956870   -1.196970
     11          8           0       -5.800100    0.177290   -0.493620
     12          8           0       -0.634670    1.151700   -1.429250
     13          1           0       -5.734730   -1.129450   -2.606320
     14          1           0       -4.633890   -2.065340   -4.614960
     15          1           0       -2.231400   -1.603030   -5.046630
     16          1           0       -0.934390   -0.208250   -3.468680
     17          6           0       -4.657960    1.832540    1.367260
     18         16           0       -1.541760    2.520190    1.037200
     19          6           0       -0.997260    1.264950    2.184600
     20          6           0       -1.566160    1.196450    3.461150
     21          6           0       -1.153500    0.221690    4.385260
     22          6           0       -0.142840   -0.696200    4.019060
     23          6           0        0.432250   -0.609600    2.742300
     24          6           0        0.012730    0.366800    1.835390
     25          6           0       -1.721830    0.141220    5.667040
     26          6           0       -1.301110   -0.832490    6.574220
     27          6           0       -0.307730   -1.737480    6.212350
     28          6           0        0.268630   -1.670170    4.942920
     29          1           0       -5.553550    2.336480    0.986730
     30          1           0       -4.132580    2.565240    1.983760
     31          1           0       -4.973650    1.015140    2.024600
     32          1           0       -2.336060    1.910630    3.744890
     33          1           0        1.219450   -1.298740    2.444160
     34          1           0        0.489080    0.421080    0.858300
     35          1           0       -2.498330    0.840100    5.970310
     36          1           0       -1.748700   -0.882510    7.563490
     37          1           0        0.021390   -2.495430    6.918490
     38          1           0        1.045800   -2.384430    4.680080
 ---------------------------------------------------------------------
                    Distance matrix (angstroms):
                    1          2          3          4          5
     1  C    0.000000
     2  C    1.395620   0.000000
     3  C    2.414057   1.393115   0.000000
     4  C    1.402722   2.425994   2.796152   0.000000
     5  C    2.416355   2.797562   2.427047   1.388548   0.000000
     6  C    2.785274   2.414256   1.395754   2.415127   1.403215
     7  C    2.483153   3.766952   4.267224   1.471170   2.483783
     8  C    3.834218   4.978419   5.167103   2.552554   2.901665
     9  C    4.286014   5.154315   4.973063   2.883827   2.546160
    10  C    3.771393   4.270516   3.770247   2.486058   1.473034
    11  O    2.779014   4.173690   4.985512   2.338556   3.588708
    12  O    4.745366   4.974174   4.159573   3.583890   2.329599
    13  H    1.089090   2.151108   3.397282   2.167566   3.404982
    14  H    2.156103   1.087874   2.155099   3.411513   3.885426
    15  H    3.401168   2.155112   1.087888   3.884029   3.412405
    16  H    3.874384   3.397071   2.150609   3.404369   2.168271
    17  C    4.985061   6.253724   6.596209   3.868305   4.398181
    18  S    6.027673   6.835208   6.496792   4.625004   4.109352
    19  C    6.563010   7.352599   7.020510   5.221810   4.743120
    20  C    7.296135   8.230838   8.072156   6.006541   5.786507
    21  C    8.074392   8.958949   8.804330   6.879362   6.675867
    22  C    8.183521   8.887399   8.591539   7.052271   6.675219
    23  C    7.537721   8.081994   7.611503   6.394811   5.789330
    24  C    6.712727   7.284056   6.771952   5.461574   4.758245
    25  C    9.020070   9.997630   9.969926   7.883591   7.846971
    26  C    9.953235  10.870347  10.836109   8.897080   8.853707
    27  C   10.038929  10.810706  10.665147   9.027898   8.851968
    28  C    9.209289   9.868254   9.594490   8.176877   7.843752
    29  H    5.062184   6.376606   6.857834   4.114803   4.824499
    30  H    5.935291   7.142172   7.342652   4.722776   5.019083
    31  H    5.195567   6.501352   6.947001   4.205439   4.863144
    32  H    7.496229   8.547368   8.503659   6.206661   6.145241
    33  H    7.894446   8.273162   7.691117   6.846550   6.131514
    34  H    6.467108   6.860991   6.171754   5.249910   4.312523
    35  H    9.195892  10.273391  10.337614   8.052136   8.132161
    36  H   10.758058  11.729323  11.770494   9.735825   9.783586
    37  H   10.898864  11.630512  11.488712   9.947978   9.780663
    38  H    9.523224  10.047419   9.683557   8.556277   8.125719
                    6          7          8          9         10
     6  C    0.000000
     7  C    3.768591   0.000000
     8  C    4.304521   1.491754   0.000000
     9  C    3.834100   2.460823   1.346040   0.000000
    10  C    2.486259   2.886292   2.487447   1.499421   0.000000
    11  O    4.752841   1.226342   2.370429   3.570566   4.112475
    12  O    2.764646   4.113162   3.606957   2.401665   1.227285
    13  H    3.874336   2.699889   4.182582   4.908571   4.651175
    14  H    3.401339   4.637828   5.945508   6.212081   5.358390
    15  H    2.156163   5.355109   6.225991   5.942779   4.641014
    16  H    1.089147   4.649410   4.932067   4.191068   2.703597
    17  C    5.800869   2.503297   1.506279   2.549192   3.920951
    18  S    5.226158   4.107985   2.725641   1.746095   2.741368
    19  C    5.790221   4.706391   3.448637   2.681527   3.494753
    20  C    6.932295   5.219815   3.952692   3.608357   4.671394
    21  C    7.726384   6.159047   5.063206   4.777440   5.670207
    22  C    7.524738   6.601699   5.654682   5.174823   5.724128
    23  C    6.484370   6.200407   5.306890   4.565400   4.802289
    24  C    5.537539   5.280918   4.272838   3.342233   3.593977
    25  C    8.958057   7.003285   5.949171   5.889472   6.913056
    26  C    9.877714   8.095871   7.157634   7.091342   7.991654
    27  C    9.721976   8.430896   7.579975   7.359899   8.028473
    28  C    8.610812   7.755491   6.918561   6.516433   6.998454
    29  H    6.193634   2.716883   2.149097   3.283737   4.536740
    30  H    6.405797   3.468577   2.190133   2.756124   4.246623
    31  H    6.242978   2.813241   2.145625   3.214639   4.505853
    32  H    7.395946   5.214854   3.874402   3.770836   5.059044
    33  H    6.613292   6.852154   6.098150   5.290763   5.254303
    34  H    4.884699   5.340120   4.456914   3.326130   3.140251
    35  H    9.338269   7.014117   5.914724   6.010170   7.199887
    36  H   10.846999   8.847606   7.931935   7.975823   8.951795
    37  H   10.593168   9.388537   8.602669   8.398131   9.010229
    38  H    8.736392   8.303749   7.561880   7.068114   7.344338
                   11         12         13         14         15
    11  O    0.000000
    12  O    5.339152   0.000000
    13  H    2.485024   5.709619   0.000000
    14  H    4.834757   6.040849   2.474343   0.000000
    15  H    6.052690   4.819079   4.295662   2.484357   0.000000
    16  H    5.716184   2.469528   4.963420   4.295235   2.473373
    17  C    2.739929   4.946804   5.071702   7.140098   7.670027
    18  S    5.095689   2.962930   6.646511   7.907924   7.381703
    19  C    5.605635   3.633760   7.150503   8.399400   7.876490
    20  C    5.882613   4.978523   7.720167   9.234381   8.981200
    21  C    6.737680   5.911229   8.467316   9.917035   9.667059
    22  C    7.289160   5.774142   8.680588   9.828040   9.347254
    23  C    7.066298   4.652131   8.179830   9.050648   8.291524
    24  C    6.264918   3.419513   7.416256   8.313447   7.501903
    25  C    7.388323   7.249850   9.282589  10.911852  10.866683
    26  C    8.438894   8.272647  10.199387  11.739893  11.683464
    27  C    8.877078   8.176081  10.372607  11.664210  11.422925
    28  C    8.354553   7.027336   9.660421  10.749136  10.297853
    29  H    2.629510   5.606785   4.995549   7.183364   7.934598
    30  H    3.823655   5.087446   6.106263   8.076923   8.391385
    31  H    2.779648   5.547475   5.159838   7.327247   8.023531
    32  H    5.741864   5.499312   7.818626   9.538105   9.468241
    33  H    7.751342   4.944262   8.596315   9.202198   8.253054
    34  H    6.437461   2.651321   7.289962   7.898334   6.809275
    35  H    7.288580   7.637003   9.376140  11.182582  11.287741
    36  H    9.080421   9.287004  10.925862  12.571319  12.639908
    37  H    9.796558   9.133276  11.212530  12.444962  12.208011
    38  H    8.955218   7.256177  10.032058  10.897636  10.293664
                   16         17         18         19         20
    16  H    0.000000
    17  C    6.435535   0.000000
    18  S    5.302475   3.208193   0.000000
    19  C    5.842418   3.793538   1.785675   0.000000
    20  C    7.098934   3.787904   2.761959   1.399257   0.000000
    21  C    7.868750   4.897387   4.079627   2.440432   1.405142
    22  C    7.545257   5.814884   4.603654   2.818047   2.432946
    23  C    6.372210   5.810768   4.074269   2.422492   2.787867
    24  C    5.418568   4.917610   2.773199   1.395959   2.413360
    25  C    9.176250   5.474443   5.208391   3.730303   2.450244
    26  C   10.068962   6.744128   6.477420   4.874458   3.725326
    27  C    9.821079   7.425930   6.814159   5.070780   4.214344
    28  C    8.622035   7.023219   6.007602   4.222054   3.712089
    29  H    6.903837   1.095828   4.016311   4.831444   4.829255
    30  H    6.902881   1.092221   2.758687   3.400194   3.262327
    31  H    6.927368   1.095399   3.875307   3.987441   3.702369
    32  H    7.647871   3.324221   2.886877   2.154946   1.087799
    33  H    6.386695   6.746004   4.918134   3.399071   3.875547
    34  H    4.598378   5.361276   2.926188   2.163422   3.405883
    35  H    9.624940   5.180445   5.298425   4.094546   2.700335
    36  H   11.082712   7.364004   7.362992   5.840266   4.602672
    37  H   10.678858   8.452443   7.886029   6.130891   5.301273
    38  H    8.663671   7.828824   6.634858   4.870266   4.596828
                   21         22         23         24         25
    21  C    0.000000
    22  C    1.413527   0.000000
    23  C    2.430013   1.402977   0.000000
    24  C    2.807666   2.433636   1.397083   0.000000
    25  C    1.404434   2.431115   3.709164   4.212022   0.000000
    26  C    2.434056   2.808738   4.211630   5.061717   1.395741
    27  C    2.809258   2.433511   3.723027   4.867080   2.413826
    28  C    2.431578   1.404081   2.448328   3.724443   2.787008
    29  H    5.948343   6.904198   6.898639   5.965177   6.434792
    30  H    4.487131   5.540529   5.611833   4.694544   5.025350
    31  H    4.560244   5.499389   5.690222   5.031911   4.960387
    32  H    2.158944   3.417740   3.875601   3.398002   2.683794
    33  H    3.422056   2.167763   1.087881   2.144947   4.594733
    34  H    3.895802   3.411457   2.148252   1.088375   5.300040
    35  H    2.168728   3.422854   4.594560   4.860761   1.087823
    36  H    3.416821   3.895700   5.298575   6.121645   2.155288
    37  H    3.896198   3.416269   4.600622   5.833553   3.399539
    38  H    3.422821   2.167933   2.698417   4.090081   3.874632
                   26         27         28         29         30
    26  C    0.000000
    27  C    1.391675   0.000000
    28  C    2.413904   1.395770   0.000000
    29  H    7.703614   8.451206   8.099535   0.000000
    30  H    6.374489   7.143098   6.787192   1.750873   0.000000
    31  H    6.131911   6.847261   6.573354   1.777469   1.764051
    32  H    4.074425   4.848834   4.587136   4.259230   2.599534
    33  H    4.860865   4.089502   2.699226   7.823839   6.617139
    34  H    6.119474   5.827533   4.594132   6.340239   5.217645
    35  H    2.143735   3.391346   3.874668   6.034036   4.641063
    36  H    1.086965   2.152428   3.399620   8.251821   6.978771
    37  H    2.152417   1.086942   2.155240   9.466419   8.198622
    38  H    3.391795   2.144397   1.087771   8.915113   7.654083
                   31         32         33         34         35
    31  H    0.000000
    32  H    3.273863   0.000000
    33  H    6.624542   4.963225   0.000000
    34  H    5.617347   4.304948   2.450749   0.000000
    35  H    4.661167   2.474845   5.552500   5.935726   0.000000
    36  H    6.684361   4.767424   5.932175   7.187947   2.463240
    37  H    7.824620   5.919685   4.784041   6.741711   4.286466
    38  H    7.405567   5.546089   2.491629   4.773555   4.962171
                   36         37         38
    36  H    0.000000
    37  H    2.480071   0.000000
    38  H    4.287079   2.464187   0.000000
 Symmetry turned off by external request.
 Stoichiometry    C21H14O2S(1-,2)
 Framework group  C1[X(C21H14O2S)]
 Deg. of freedom   108
 Full point group                 C1      NOp   1
 Rotational constants (GHZ):           0.4340595           0.1229246           0.1184383
 Leave Link  202 at Thu Dec 28 19:45:50 2023, MaxMem=  4026531840 cpu:               0.4 elap:               0.1
 (Enter /sysapps/ubuntu-applications/gaussian/Gaussian/AVX2/g16/l301.exe)
 Standard basis: 6-311++G(d,p) (5D, 7F)
 Ernie: Thresh=  0.10000D-02 Tol=  0.10000D-05 Strict=F.
   634 basis functions,  1004 primitive gaussians,   658 cartesian basis functions
    87 alpha electrons       86 beta electrons
       nuclear repulsion energy      1995.1559128981 Hartrees.
 IExCor=  402 DFT=T Ex+Corr=B3LYP ExCW=0 ScaHFX=  0.200000
 ScaDFX=  0.800000  0.720000  1.000000  0.810000 ScalE2=  1.000000  1.000000
 IRadAn=      5 IRanWt=     -1 IRanGd=            0 ICorTp=0 IEmpDi=  4
 NAtoms=   38 NActive=   38 NUniq=   38 SFac= 1.00D+00 NAtFMM=   60 NAOKFM=F Big=F
 Integral buffers will be    131072 words long.
 Raffenetti 2 integral format.
 Two-electron integral symmetry is turned off.
 Leave Link  301 at Thu Dec 28 19:45:50 2023, MaxMem=  4026531840 cpu:               0.5 elap:               0.1
 (Enter /sysapps/ubuntu-applications/gaussian/Gaussian/AVX2/g16/l302.exe)
 NPDir=0 NMtPBC=     1 NCelOv=     1 NCel=       1 NClECP=     1 NCelD=      1
         NCelK=      1 NCelE2=     1 NClLst=     1 CellRange=     0.0.
 One-electron integrals computed using PRISM.
 NBasis=   634 RedAO= T EigKep=  1.08D-06  NBF=   634
 NBsUse=   626 1.00D-06 EigRej=  8.60D-07 NBFU=   626
 Precomputing XC quadrature grid using
 IXCGrd= 4 IRadAn=           5 IRanWt=          -1 IRanGd=           0 AccXCQ= 0.00D+00.
 Generated NRdTot=       0 NPtTot=           0 NUsed=           0 NTot=          32
 NSgBfM=   644   644   644   644   644 MxSgAt=    38 MxSgA2=    38.
 Leave Link  302 at Thu Dec 28 19:45:53 2023, MaxMem=  4026531840 cpu:              16.3 elap:               2.6
 (Enter /sysapps/ubuntu-applications/gaussian/Gaussian/AVX2/g16/l303.exe)
 DipDrv:  MaxL=1.
 Leave Link  303 at Thu Dec 28 19:45:54 2023, MaxMem=  4026531840 cpu:               1.6 elap:               0.4
 (Enter /sysapps/ubuntu-applications/gaussian/Gaussian/AVX2/g16/l401.exe)
 ExpMin= 3.60D-02 ExpMax= 9.34D+04 ExpMxC= 3.17D+03 IAcc=3 IRadAn=         5 AccDes= 0.00D+00
 Harris functional with IExCor=  402 and IRadAn=       5 diagonalized for initial guess.
 HarFok:  IExCor=  402 AccDes= 0.00D+00 IRadAn=         5 IDoV= 1 UseB2=F ITyADJ=14
 ICtDFT=  3500011 ScaDFX=  1.000000  1.000000  1.000000  1.000000
 FoFCou: FMM=F IPFlag=           0 FMFlag=      100000 FMFlg1=           0
         NFxFlg=           0 DoJE=T BraDBF=F KetDBF=T FulRan=T
         wScrn=  0.000000 ICntrl=       500 IOpCl=  0 I1Cent=   200000004 NGrid=           0
         NMat0=    1 NMatS0=      1 NMatT0=    0 NMatD0=    1 NMtDS0=    0 NMtDT0=    0
 Symmetry not used in FoFCou.
 Harris En= -1357.79358449753    
 JPrj=0 DoOrth=F DoCkMO=F.
 Initial guess <Sx>= 0.0000 <Sy>= 0.0000 <Sz>= 0.5000 <S**2>= 0.7500 S= 0.5000
 Leave Link  401 at Thu Dec 28 19:46:00 2023, MaxMem=  4026531840 cpu:              49.0 elap:               6.2
 (Enter /sysapps/ubuntu-applications/gaussian/Gaussian/AVX2/g16/l502.exe)
 Two-electron integral symmetry not used.
 UHF open shell SCF:
 Using DIIS extrapolation, IDIIS=  1040.
 NGot=  4026531840 LenX=  4025656008 LenY=  4025222386
 Requested convergence on RMS density matrix=1.00D-08 within 128 cycles.
 Requested convergence on MAX density matrix=1.00D-06.
 Requested convergence on             energy=1.00D-06.
 No special actions if energy rises.
 Fock matrices will be formed incrementally for  20 cycles.

 Cycle   1  Pass 1  IDiag  1:
 FoFJK:  IHMeth= 1 ICntrl=       0 DoSepK=F KAlg= 0 I1Cent=           0 FoldK=F
 IRaf= 800000000 NMat=       1 IRICut=       1 DoRegI=T DoRafI=F ISym2E= 0 IDoP0=0 IntGTp=1.
 FoFCou: FMM=F IPFlag=           0 FMFlag=      100000 FMFlg1=           0
         NFxFlg=           0 DoJE=F BraDBF=F KetDBF=F FulRan=T
         wScrn=  0.000000 ICntrl=         0 IOpCl=  1 I1Cent=           0 NGrid=           0
         NMat0=    1 NMatS0=      1 NMatT0=    0 NMatD0=    1 NMtDS0=    0 NMtDT0=    0
 Symmetry not used in FoFCou.
 E= -1356.99925472797    
 DIIS: error= 3.22D-02 at cycle   1 NSaved=   1.
 NSaved= 1 IEnMin= 1 EnMin= -1356.99925472797     IErMin= 1 ErrMin= 3.22D-02
 ErrMax= 3.22D-02  0.00D+00 EMaxC= 1.00D-01 BMatC= 2.86D+00 BMatP= 2.86D+00
 IDIUse=3 WtCom= 6.78D-01 WtEn= 3.22D-01
 Coeff-Com:  0.100D+01
 Coeff-En:   0.100D+01
 Coeff:      0.100D+01
 Gap=     0.037 Goal=   None    Shift=    0.000
 Gap=     0.303 Goal=   None    Shift=    0.000
 GapD=    0.037 DampG=0.250 DampE=0.500 DampFc=0.2500 IDamp=-1.
 Damping current iteration by 2.50D-01
 RMSDP=1.09D+00 MaxDP=2.49D+02              OVMax= 9.96D-01

 Cycle   2  Pass 1  IDiag  1:
 RMSU=  2.69D-01    CP:  1.86D+00
 E= -1357.08653901528     Delta-E=       -0.087284287310 Rises=F Damp=T
 DIIS: error= 1.26D-02 at cycle   2 NSaved=   2.
 NSaved= 2 IEnMin= 2 EnMin= -1357.08653901528     IErMin= 2 ErrMin= 1.26D-02
 ErrMax= 1.26D-02  0.00D+00 EMaxC= 1.00D-01 BMatC= 6.64D-01 BMatP= 2.86D+00
 IDIUse=3 WtCom= 8.74D-01 WtEn= 1.26D-01
 Coeff-Com: -0.344D+00 0.134D+01
 Coeff-En:   0.346D+00 0.654D+00
 Coeff:     -0.258D+00 0.126D+01
 Gap=    -0.359 Goal=   None    Shift=    0.000
 Gap=     0.261 Goal=   None    Shift=    0.000
 RMSDP=2.71D-01 MaxDP=6.09D+01 DE=-8.73D-02 OVMax= 7.88D-01

 Cycle   3  Pass 1  IDiag  1:
 RMSU=  1.65D-02    CP:  1.11D+00  9.28D-03
 E= -1356.59202722921     Delta-E=        0.494511786066 Rises=F Damp=F
 DIIS: error= 3.80D-02 at cycle   3 NSaved=   3.
 NSaved= 3 IEnMin= 2 EnMin= -1357.08653901528     IErMin= 2 ErrMin= 1.26D-02
 ErrMax= 3.80D-02  0.00D+00 EMaxC= 1.00D-01 BMatC= 2.88D+00 BMatP= 6.64D-01
 IDIUse=2 WtCom= 0.00D+00 WtEn= 1.00D+00
 EnCoef did     2 forward-backward iterations
 Coeff-En:   0.418D-01 0.667D+00 0.291D+00
 Coeff:      0.418D-01 0.667D+00 0.291D+00
 Gap=     0.262 Goal=   None    Shift=    0.000
 Gap=    -0.167 Goal=   None    Shift=    0.000
 RMSDP=1.72D-02 MaxDP=2.06D+00 DE= 4.95D-01 OVMax= 9.59D-01

 Cycle   4  Pass 1  IDiag  1:
 RMSU=  1.57D-02    CP:  1.12D+00  1.10D-02  5.81D-01
 E= -1357.38872397945     Delta-E=       -0.796696750242 Rises=F Damp=F
 DIIS: error= 2.30D-02 at cycle   4 NSaved=   4.
 NSaved= 4 IEnMin= 4 EnMin= -1357.38872397945     IErMin= 2 ErrMin= 1.26D-02
 ErrMax= 2.30D-02  0.00D+00 EMaxC= 1.00D-01 BMatC= 7.00D-01 BMatP= 6.64D-01
 IDIUse=3 WtCom= 7.70D-01 WtEn= 2.30D-01
 Coeff-Com: -0.283D-01 0.367D+00 0.234D+00 0.427D+00
 Coeff-En:   0.000D+00 0.000D+00 0.251D+00 0.749D+00
 Coeff:     -0.218D-01 0.283D+00 0.238D+00 0.501D+00
 Gap=    -0.062 Goal=   None    Shift=    0.000
 Gap=     0.228 Goal=   None    Shift=    0.000
 RMSDP=1.53D-02 MaxDP=2.23D+00 DE=-7.97D-01 OVMax= 9.39D-01

 Cycle   5  Pass 1  IDiag  1:
 RMSU=  5.69D-03    CP:  9.98D-01  4.92D-03  5.27D-01  2.14D-01
 E= -1357.59819206590     Delta-E=       -0.209468086452 Rises=F Damp=F
 DIIS: error= 8.66D-03 at cycle   5 NSaved=   5.
 NSaved= 5 IEnMin= 5 EnMin= -1357.59819206590     IErMin= 5 ErrMin= 8.66D-03
 ErrMax= 8.66D-03  0.00D+00 EMaxC= 1.00D-01 BMatC= 1.48D-01 BMatP= 6.64D-01
 IDIUse=3 WtCom= 9.13D-01 WtEn= 8.66D-02
 Coeff-Com: -0.748D-02 0.966D-01 0.831D-01 0.319D+00 0.509D+00
 Coeff-En:   0.000D+00 0.000D+00 0.000D+00 0.192D+00 0.808D+00
 Coeff:     -0.683D-02 0.883D-01 0.759D-01 0.308D+00 0.535D+00
 Gap=     0.070 Goal=   None    Shift=    0.000
 Gap=     0.140 Goal=   None    Shift=    0.000
 RMSDP=6.38D-03 MaxDP=6.59D-01 DE=-2.09D-01 OVMax= 1.21D-01

 Cycle   6  Pass 1  IDiag  1:
 RMSU=  5.18D-03    CP:  1.02D+00  4.76D-03  4.74D-01  4.23D-01  8.11D-01
 E= -1357.63338960545     Delta-E=       -0.035197539547 Rises=F Damp=F
 DIIS: error= 7.49D-03 at cycle   6 NSaved=   6.
 NSaved= 6 IEnMin= 6 EnMin= -1357.63338960545     IErMin= 6 ErrMin= 7.49D-03
 ErrMax= 7.49D-03  0.00D+00 EMaxC= 1.00D-01 BMatC= 3.56D-02 BMatP= 1.48D-01
 IDIUse=3 WtCom= 9.25D-01 WtEn= 7.49D-02
 Coeff-Com: -0.183D-01 0.511D-01-0.682D-02 0.142D+00 0.317D+00 0.514D+00
 Coeff-En:   0.000D+00 0.000D+00 0.000D+00 0.000D+00 0.000D+00 0.100D+01
 Coeff:     -0.169D-01 0.473D-01-0.631D-02 0.132D+00 0.294D+00 0.551D+00
 Gap=     0.048 Goal=   None    Shift=    0.000
 Gap=     0.152 Goal=   None    Shift=    0.000
 RMSDP=2.54D-03 MaxDP=3.74D-01 DE=-3.52D-02 OVMax= 8.15D-02

 Cycle   7  Pass 1  IDiag  1:
 RMSU=  1.82D-03    CP:  1.01D+00  5.18D-03  4.13D-01  4.11D-01  7.45D-01
                    CP:  7.49D-01
 E= -1357.64103173670     Delta-E=       -0.007642131254 Rises=F Damp=F
 DIIS: error= 3.30D-03 at cycle   7 NSaved=   7.
 NSaved= 7 IEnMin= 7 EnMin= -1357.64103173670     IErMin= 7 ErrMin= 3.30D-03
 ErrMax= 3.30D-03  0.00D+00 EMaxC= 1.00D-01 BMatC= 8.83D-03 BMatP= 3.56D-02
 IDIUse=3 WtCom= 9.67D-01 WtEn= 3.30D-02
 Coeff-Com: -0.142D-01 0.357D-01-0.149D-01 0.625D-01 0.954D-01 0.358D+00
 Coeff-Com:  0.477D+00
 Coeff-En:   0.000D+00 0.000D+00 0.000D+00 0.000D+00 0.000D+00 0.102D+00
 Coeff-En:   0.898D+00
 Coeff:     -0.137D-01 0.346D-01-0.144D-01 0.604D-01 0.922D-01 0.350D+00
 Coeff:      0.491D+00
 Gap=     0.048 Goal=   None    Shift=    0.000
 Gap=     0.141 Goal=   None    Shift=    0.000
 RMSDP=1.42D-03 MaxDP=1.27D-01 DE=-7.64D-03 OVMax= 2.03D-02

 Cycle   8  Pass 1  IDiag  1:
 RMSU=  7.33D-04    CP:  1.02D+00  5.24D-03  4.33D-01  4.51D-01  7.83D-01
                    CP:  8.63D-01  7.76D-01
 E= -1357.64311677605     Delta-E=       -0.002085039346 Rises=F Damp=F
 DIIS: error= 1.30D-03 at cycle   8 NSaved=   8.
 NSaved= 8 IEnMin= 8 EnMin= -1357.64311677605     IErMin= 8 ErrMin= 1.30D-03
 ErrMax= 1.30D-03  0.00D+00 EMaxC= 1.00D-01 BMatC= 1.80D-03 BMatP= 8.83D-03
 IDIUse=3 WtCom= 9.87D-01 WtEn= 1.30D-02
 Coeff-Com: -0.365D-02 0.125D-01-0.491D-02 0.126D-01-0.545D-01-0.153D-01
 Coeff-Com:  0.242D+00 0.811D+00
 Coeff-En:   0.000D+00 0.000D+00 0.000D+00 0.000D+00 0.000D+00 0.000D+00
 Coeff-En:   0.000D+00 0.100D+01
 Coeff:     -0.360D-02 0.124D-01-0.485D-02 0.124D-01-0.538D-01-0.151D-01
 Coeff:      0.239D+00 0.814D+00
 Gap=     0.046 Goal=   None    Shift=    0.000
 Gap=     0.131 Goal=   None    Shift=    0.000
 RMSDP=1.02D-03 MaxDP=1.09D-01 DE=-2.09D-03 OVMax= 1.38D-02

 Cycle   9  Pass 1  IDiag  1:
 RMSU=  3.73D-04    CP:  1.03D+00  5.32D-03  4.09D-01  4.79D-01  7.21D-01
                    CP:  9.07D-01  1.05D+00  9.27D-01
 E= -1357.64372511713     Delta-E=       -0.000608341079 Rises=F Damp=F
 DIIS: error= 3.85D-04 at cycle   9 NSaved=   9.
 NSaved= 9 IEnMin= 9 EnMin= -1357.64372511713     IErMin= 9 ErrMin= 3.85D-04
 ErrMax= 3.85D-04  0.00D+00 EMaxC= 1.00D-01 BMatC= 3.43D-04 BMatP= 1.80D-03
 IDIUse=3 WtCom= 9.96D-01 WtEn= 3.85D-03
 Coeff-Com: -0.397D-03 0.248D-02 0.164D-02-0.109D-02-0.559D-01-0.957D-01
 Coeff-Com:  0.419D-01 0.539D+00 0.568D+00
 Coeff-En:   0.000D+00 0.000D+00 0.000D+00 0.000D+00 0.000D+00 0.000D+00
 Coeff-En:   0.000D+00 0.000D+00 0.100D+01
 Coeff:     -0.396D-03 0.247D-02 0.164D-02-0.109D-02-0.557D-01-0.953D-01
 Coeff:      0.418D-01 0.537D+00 0.569D+00
 Gap=     0.045 Goal=   None    Shift=    0.000
 Gap=     0.128 Goal=   None    Shift=    0.000
 RMSDP=2.83D-04 MaxDP=2.87D-02 DE=-6.08D-04 OVMax= 7.59D-03

 Cycle  10  Pass 1  IDiag  1:
 RMSU=  1.35D-04    CP:  1.03D+00  5.36D-03  4.10D-01  4.88D-01  7.18D-01
                    CP:  9.29D-01  1.08D+00  1.07D+00  9.56D-01
 E= -1357.64383764800     Delta-E=       -0.000112530870 Rises=F Damp=F
 DIIS: error= 1.20D-04 at cycle  10 NSaved=  10.
 NSaved=10 IEnMin=10 EnMin= -1357.64383764800     IErMin=10 ErrMin= 1.20D-04
 ErrMax= 1.20D-04  0.00D+00 EMaxC= 1.00D-01 BMatC= 4.16D-05 BMatP= 3.43D-04
 IDIUse=3 WtCom= 9.99D-01 WtEn= 1.20D-03
 Coeff-Com:  0.801D-03-0.158D-02 0.171D-02-0.784D-03-0.159D-01-0.368D-01
 Coeff-Com: -0.109D-01 0.142D+00 0.286D+00 0.635D+00
 Coeff-En:   0.000D+00 0.000D+00 0.000D+00 0.000D+00 0.000D+00 0.000D+00
 Coeff-En:   0.000D+00 0.000D+00 0.000D+00 0.100D+01
 Coeff:      0.800D-03-0.158D-02 0.171D-02-0.783D-03-0.159D-01-0.367D-01
 Coeff:     -0.109D-01 0.142D+00 0.286D+00 0.636D+00
 Gap=     0.046 Goal=   None    Shift=    0.000
 Gap=     0.128 Goal=   None    Shift=    0.000
 RMSDP=1.05D-04 MaxDP=9.42D-03 DE=-1.13D-04 OVMax= 1.57D-03

 Cycle  11  Pass 1  IDiag  1:
 RMSU=  7.46D-05    CP:  1.03D+00  5.28D-03  4.08D-01  4.87D-01  7.13D-01
                    CP:  9.39D-01  1.08D+00  1.05D+00  1.00D+00  9.82D-01
 E= -1357.64385070404     Delta-E=       -0.000013056043 Rises=F Damp=F
 DIIS: error= 8.02D-05 at cycle  11 NSaved=  11.
 NSaved=11 IEnMin=11 EnMin= -1357.64385070404     IErMin=11 ErrMin= 8.02D-05
 ErrMax= 8.02D-05  0.00D+00 EMaxC= 1.00D-01 BMatC= 1.54D-05 BMatP= 4.16D-05
 IDIUse=1 WtCom= 1.00D+00 WtEn= 0.00D+00
 Coeff-Com:  0.729D-03-0.159D-02 0.569D-03-0.357D-03 0.803D-02 0.139D-01
 Coeff-Com: -0.135D-01-0.710D-01-0.175D-01 0.325D+00 0.756D+00
 Coeff:      0.729D-03-0.159D-02 0.569D-03-0.357D-03 0.803D-02 0.139D-01
 Coeff:     -0.135D-01-0.710D-01-0.175D-01 0.325D+00 0.756D+00
 Gap=     0.046 Goal=   None    Shift=    0.000
 Gap=     0.128 Goal=   None    Shift=    0.000
 RMSDP=7.65D-05 MaxDP=1.00D-02 DE=-1.31D-05 OVMax= 1.26D-03

 Cycle  12  Pass 1  IDiag  1:
 RMSU=  4.01D-05    CP:  1.03D+00  5.29D-03  4.09D-01  4.85D-01  7.15D-01
                    CP:  9.34D-01  1.07D+00  1.06D+00  1.01D+00  1.01D+00
                    CP:  1.01D+00
 E= -1357.64385667488     Delta-E=       -0.000005970837 Rises=F Damp=F
 DIIS: error= 5.71D-05 at cycle  12 NSaved=  12.
 NSaved=12 IEnMin=12 EnMin= -1357.64385667488     IErMin=12 ErrMin= 5.71D-05
 ErrMax= 5.71D-05  0.00D+00 EMaxC= 1.00D-01 BMatC= 4.07D-06 BMatP= 1.54D-05
 IDIUse=1 WtCom= 1.00D+00 WtEn= 0.00D+00
 Coeff-Com:  0.467D-03-0.783D-03 0.995D-07-0.440D-03 0.742D-02 0.177D-01
 Coeff-Com: -0.384D-02-0.711D-01-0.954D-01-0.303D-01 0.393D+00 0.783D+00
 Coeff:      0.467D-03-0.783D-03 0.995D-07-0.440D-03 0.742D-02 0.177D-01
 Coeff:     -0.384D-02-0.711D-01-0.954D-01-0.303D-01 0.393D+00 0.783D+00
 Gap=     0.046 Goal=   None    Shift=    0.000
 Gap=     0.128 Goal=   None    Shift=    0.000
 RMSDP=3.07D-05 MaxDP=3.43D-03 DE=-5.97D-06 OVMax= 9.06D-04

 Cycle  13  Pass 1  IDiag  1:
 RMSU=  2.07D-05    CP:  1.03D+00  5.29D-03  4.09D-01  4.84D-01  7.14D-01
                    CP:  9.36D-01  1.07D+00  1.05D+00  1.02D+00  1.03D+00
                    CP:  1.14D+00  1.08D+00
 E= -1357.64385825171     Delta-E=       -0.000001576829 Rises=F Damp=F
 DIIS: error= 2.16D-05 at cycle  13 NSaved=  13.
 NSaved=13 IEnMin=13 EnMin= -1357.64385825171     IErMin=13 ErrMin= 2.16D-05
 ErrMax= 2.16D-05  0.00D+00 EMaxC= 1.00D-01 BMatC= 1.22D-06 BMatP= 4.07D-06
 IDIUse=1 WtCom= 1.00D+00 WtEn= 0.00D+00
 Coeff-Com:  0.390D-03-0.574D-03-0.515D-04-0.178D-04 0.267D-02 0.755D-02
 Coeff-Com:  0.299D-03-0.263D-01-0.558D-01-0.855D-01 0.798D-01 0.497D+00
 Coeff-Com:  0.581D+00
 Coeff:      0.390D-03-0.574D-03-0.515D-04-0.178D-04 0.267D-02 0.755D-02
 Coeff:      0.299D-03-0.263D-01-0.558D-01-0.855D-01 0.798D-01 0.497D+00
 Coeff:      0.581D+00
 Gap=     0.046 Goal=   None    Shift=    0.000
 Gap=     0.128 Goal=   None    Shift=    0.000
 RMSDP=1.77D-05 MaxDP=2.60D-03 DE=-1.58D-06 OVMax= 5.14D-04

 Cycle  14  Pass 1  IDiag  1:
 RMSU=  9.89D-06    CP:  1.03D+00  5.29D-03  4.10D-01  4.84D-01  7.14D-01
                    CP:  9.36D-01  1.07D+00  1.05D+00  1.01D+00  1.03D+00
                    CP:  1.16D+00  1.31D+00  8.60D-01
 E= -1357.64385859990     Delta-E=       -0.000000348190 Rises=F Damp=F
 DIIS: error= 1.19D-05 at cycle  14 NSaved=  14.
 NSaved=14 IEnMin=14 EnMin= -1357.64385859990     IErMin=14 ErrMin= 1.19D-05
 ErrMax= 1.19D-05  0.00D+00 EMaxC= 1.00D-01 BMatC= 1.97D-07 BMatP= 1.22D-06
 IDIUse=1 WtCom= 1.00D+00 WtEn= 0.00D+00
 Coeff-Com:  0.195D-03-0.274D-03 0.688D-05 0.310D-04-0.217D-03 0.692D-03
 Coeff-Com:  0.939D-03 0.592D-03-0.131D-01-0.375D-01-0.282D-01 0.121D+00
 Coeff-Com:  0.327D+00 0.629D+00
 Coeff:      0.195D-03-0.274D-03 0.688D-05 0.310D-04-0.217D-03 0.692D-03
 Coeff:      0.939D-03 0.592D-03-0.131D-01-0.375D-01-0.282D-01 0.121D+00
 Coeff:      0.327D+00 0.629D+00
 Gap=     0.046 Goal=   None    Shift=    0.000
 Gap=     0.128 Goal=   None    Shift=    0.000
 RMSDP=9.06D-06 MaxDP=8.71D-04 DE=-3.48D-07 OVMax= 2.03D-04

 Cycle  15  Pass 1  IDiag  1:
 RMSU=  5.36D-06    CP:  1.03D+00  5.29D-03  4.10D-01  4.84D-01  7.14D-01
                    CP:  9.36D-01  1.07D+00  1.05D+00  1.01D+00  1.03D+00
                    CP:  1.18D+00  1.28D+00  1.02D+00  6.72D-01
 E= -1357.64385865692     Delta-E=       -0.000000057023 Rises=F Damp=F
 DIIS: error= 4.04D-06 at cycle  15 NSaved=  15.
 NSaved=15 IEnMin=15 EnMin= -1357.64385865692     IErMin=15 ErrMin= 4.04D-06
 ErrMax= 4.04D-06  0.00D+00 EMaxC= 1.00D-01 BMatC= 3.96D-08 BMatP= 1.97D-07
 IDIUse=1 WtCom= 1.00D+00 WtEn= 0.00D+00
 Coeff-Com:  0.842D-04-0.117D-03 0.972D-05 0.104D-04-0.539D-03-0.556D-03
 Coeff-Com:  0.578D-03 0.437D-02 0.116D-03-0.832D-02-0.272D-01-0.987D-02
 Coeff-Com:  0.106D+00 0.349D+00 0.586D+00
 Coeff:      0.842D-04-0.117D-03 0.972D-05 0.104D-04-0.539D-03-0.556D-03
 Coeff:      0.578D-03 0.437D-02 0.116D-03-0.832D-02-0.272D-01-0.987D-02
 Coeff:      0.106D+00 0.349D+00 0.586D+00
 Gap=     0.046 Goal=   None    Shift=    0.000
 Gap=     0.128 Goal=   None    Shift=    0.000
 RMSDP=2.68D-06 MaxDP=2.85D-04 DE=-5.70D-08 OVMax= 1.39D-04

 Cycle  16  Pass 1  IDiag  1:
 RMSU=  1.82D-06    CP:  1.03D+00  5.29D-03  4.10D-01  4.84D-01  7.14D-01
                    CP:  9.36D-01  1.07D+00  1.06D+00  1.01D+00  1.03D+00
                    CP:  1.17D+00  1.29D+00  1.02D+00  7.90D-01  9.17D-01
 E= -1357.64385867059     Delta-E=       -0.000000013671 Rises=F Damp=F
 DIIS: error= 2.69D-06 at cycle  16 NSaved=  16.
 NSaved=16 IEnMin=16 EnMin= -1357.64385867059     IErMin=16 ErrMin= 2.69D-06
 ErrMax= 2.69D-06  0.00D+00 EMaxC= 1.00D-01 BMatC= 7.67D-09 BMatP= 3.96D-08
 IDIUse=1 WtCom= 1.00D+00 WtEn= 0.00D+00
 Coeff-Com:  0.201D-04-0.269D-04 0.399D-05 0.422D-05-0.238D-03-0.324D-03
 Coeff-Com:  0.177D-03 0.232D-02 0.221D-02 0.227D-02-0.902D-02-0.282D-01
 Coeff-Com:  0.265D-02 0.605D-01 0.315D+00 0.652D+00
 Coeff:      0.201D-04-0.269D-04 0.399D-05 0.422D-05-0.238D-03-0.324D-03
 Coeff:      0.177D-03 0.232D-02 0.221D-02 0.227D-02-0.902D-02-0.282D-01
 Coeff:      0.265D-02 0.605D-01 0.315D+00 0.652D+00
 Gap=     0.046 Goal=   None    Shift=    0.000
 Gap=     0.128 Goal=   None    Shift=    0.000
 RMSDP=1.68D-06 MaxDP=2.67D-04 DE=-1.37D-08 OVMax= 9.29D-05

 Cycle  17  Pass 1  IDiag  1:
 RMSU=  9.64D-07    CP:  1.03D+00  5.29D-03  4.10D-01  4.84D-01  7.14D-01
                    CP:  9.36D-01  1.07D+00  1.06D+00  1.01D+00  1.03D+00
                    CP:  1.17D+00  1.30D+00  1.05D+00  7.94D-01  1.01D+00
                    CP:  1.26D+00
 E= -1357.64385867418     Delta-E=       -0.000000003586 Rises=F Damp=F
 DIIS: error= 1.58D-06 at cycle  17 NSaved=  17.
 NSaved=17 IEnMin=17 EnMin= -1357.64385867418     IErMin=17 ErrMin= 1.58D-06
 ErrMax= 1.58D-06  0.00D+00 EMaxC= 1.00D-01 BMatC= 2.40D-09 BMatP= 7.67D-09
 IDIUse=1 WtCom= 1.00D+00 WtEn= 0.00D+00
 Coeff-Com: -0.317D-05 0.329D-05-0.115D-05 0.472D-05 0.120D-04-0.195D-04
 Coeff-Com: -0.862D-04 0.171D-03 0.118D-02 0.378D-02 0.219D-02-0.142D-01
 Coeff-Com: -0.262D-01-0.704D-01 0.124D-01 0.426D+00 0.665D+00
 Coeff:     -0.317D-05 0.329D-05-0.115D-05 0.472D-05 0.120D-04-0.195D-04
 Coeff:     -0.862D-04 0.171D-03 0.118D-02 0.378D-02 0.219D-02-0.142D-01
 Coeff:     -0.262D-01-0.704D-01 0.124D-01 0.426D+00 0.665D+00
 Gap=     0.046 Goal=   None    Shift=    0.000
 Gap=     0.128 Goal=   None    Shift=    0.000
 RMSDP=8.16D-07 MaxDP=6.05D-05 DE=-3.59D-09 OVMax= 5.94D-05

 Cycle  18  Pass 1  IDiag  1:
 RMSU=  4.34D-07    CP:  1.03D+00  5.29D-03  4.10D-01  4.84D-01  7.14D-01
                    CP:  9.36D-01  1.07D+00  1.06D+00  1.01D+00  1.02D+00
                    CP:  1.17D+00  1.30D+00  1.06D+00  8.09D-01  1.07D+00
                    CP:  1.44D+00  1.18D+00
 E= -1357.64385867562     Delta-E=       -0.000000001445 Rises=F Damp=F
 DIIS: error= 7.84D-07 at cycle  18 NSaved=  18.
 NSaved=18 IEnMin=18 EnMin= -1357.64385867562     IErMin=18 ErrMin= 7.84D-07
 ErrMax= 7.84D-07  0.00D+00 EMaxC= 1.00D-01 BMatC= 4.79D-10 BMatP= 2.40D-09
 IDIUse=1 WtCom= 1.00D+00 WtEn= 0.00D+00
 Coeff-Com: -0.504D-05 0.679D-05-0.152D-05-0.671D-06 0.486D-04 0.572D-04
 Coeff-Com: -0.107D-03-0.477D-03-0.460D-04 0.139D-02 0.348D-02 0.165D-04
 Coeff-Com: -0.120D-01-0.501D-01-0.722D-01 0.454D-01 0.303D+00 0.781D+00
 Coeff:     -0.504D-05 0.679D-05-0.152D-05-0.671D-06 0.486D-04 0.572D-04
 Coeff:     -0.107D-03-0.477D-03-0.460D-04 0.139D-02 0.348D-02 0.165D-04
 Coeff:     -0.120D-01-0.501D-01-0.722D-01 0.454D-01 0.303D+00 0.781D+00
 Gap=     0.046 Goal=   None    Shift=    0.000
 Gap=     0.128 Goal=   None    Shift=    0.000
 RMSDP=5.65D-07 MaxDP=5.05D-05 DE=-1.45D-09 OVMax= 2.65D-05

 Cycle  19  Pass 1  IDiag  1:
 RMSU=  2.91D-07    CP:  1.03D+00  5.29D-03  4.10D-01  4.84D-01  7.14D-01
                    CP:  9.36D-01  1.07D+00  1.06D+00  1.01D+00  1.02D+00
                    CP:  1.17D+00  1.30D+00  1.06D+00  8.18D-01  1.10D+00
                    CP:  1.53D+00  1.27D+00  1.31D+00
 E= -1357.64385867610     Delta-E=       -0.000000000477 Rises=F Damp=F
 DIIS: error= 4.86D-07 at cycle  19 NSaved=  19.
 NSaved=19 IEnMin=19 EnMin= -1357.64385867610     IErMin=19 ErrMin= 4.86D-07
 ErrMax= 4.86D-07  0.00D+00 EMaxC= 1.00D-01 BMatC= 1.93D-10 BMatP= 4.79D-10
 IDIUse=1 WtCom= 1.00D+00 WtEn= 0.00D+00
 Coeff-Com: -0.365D-05 0.591D-05-0.405D-06-0.255D-05 0.197D-04 0.401D-04
 Coeff-Com: -0.341D-04-0.335D-03-0.435D-03-0.418D-03 0.136D-02 0.427D-02
 Coeff-Com:  0.192D-02-0.595D-02-0.431D-01-0.119D+00-0.631D-01 0.451D+00
 Coeff-Com:  0.774D+00
 Coeff:     -0.365D-05 0.591D-05-0.405D-06-0.255D-05 0.197D-04 0.401D-04
 Coeff:     -0.341D-04-0.335D-03-0.435D-03-0.418D-03 0.136D-02 0.427D-02
 Coeff:      0.192D-02-0.595D-02-0.431D-01-0.119D+00-0.631D-01 0.451D+00
 Coeff:      0.774D+00
 Gap=     0.046 Goal=   None    Shift=    0.000
 Gap=     0.128 Goal=   None    Shift=    0.000
 RMSDP=3.10D-07 MaxDP=4.67D-05 DE=-4.77D-10 OVMax= 1.23D-05

 Cycle  20  Pass 1  IDiag  1:
 RMSU=  1.60D-07    CP:  1.03D+00  5.29D-03  4.10D-01  4.84D-01  7.14D-01
                    CP:  9.36D-01  1.07D+00  1.06D+00  1.01D+00  1.02D+00
                    CP:  1.17D+00  1.30D+00  1.06D+00  8.14D-01  1.12D+00
                    CP:  1.60D+00  1.38D+00  1.36D+00  7.89D-01
 E= -1357.64385867629     Delta-E=       -0.000000000187 Rises=F Damp=F
 DIIS: error= 2.68D-07 at cycle  20 NSaved=  20.
 NSaved=20 IEnMin=20 EnMin= -1357.64385867629     IErMin=20 ErrMin= 2.68D-07
 ErrMax= 2.68D-07  0.00D+00 EMaxC= 1.00D-01 BMatC= 5.91D-11 BMatP= 1.93D-10
 IDIUse=1 WtCom= 1.00D+00 WtEn= 0.00D+00
 Coeff-Com: -0.184D-05 0.268D-05 0.137D-08-0.146D-05 0.207D-05 0.176D-04
 Coeff-Com:  0.150D-04-0.774D-04-0.246D-03-0.728D-03-0.312D-03 0.237D-02
 Coeff-Com:  0.493D-02 0.140D-01 0.158D-02-0.811D-01-0.147D+00-0.275D-01
 Coeff-Com:  0.412D+00 0.822D+00
 Coeff:     -0.184D-05 0.268D-05 0.137D-08-0.146D-05 0.207D-05 0.176D-04
 Coeff:      0.150D-04-0.774D-04-0.246D-03-0.728D-03-0.312D-03 0.237D-02
 Coeff:      0.493D-02 0.140D-01 0.158D-02-0.811D-01-0.147D+00-0.275D-01
 Coeff:      0.412D+00 0.822D+00
 Gap=     0.046 Goal=   None    Shift=    0.000
 Gap=     0.128 Goal=   None    Shift=    0.000
 RMSDP=1.60D-07 MaxDP=1.99D-05 DE=-1.87D-10 OVMax= 9.11D-06

 Cycle  21  Pass 1  IDiag  1:
 Restarting incremental Fock formation.
 E= -1357.64385867634     Delta-E=       -0.000000000051 Rises=F Damp=F
 DIIS: error= 1.91D-07 at cycle  21 NSaved=  20.
 NSaved=20 IEnMin=20 EnMin= -1357.64385867634     IErMin=20 ErrMin= 1.91D-07
 ErrMax= 1.91D-07  0.00D+00 EMaxC= 1.00D-01 BMatC= 2.68D-11 BMatP= 5.91D-11
 IDIUse=1 WtCom= 1.00D+00 WtEn= 0.00D+00
 Coeff-Com: -0.815D-06 0.982D-06 0.174D-06-0.325D-05-0.109D-07 0.259D-04
 Coeff-Com:  0.728D-04 0.256D-04-0.339D-03-0.758D-03 0.545D-04 0.204D-02
 Coeff-Com:  0.109D-01 0.161D-01-0.335D-02-0.648D-01-0.171D+00-0.330D-01
 Coeff-Com:  0.511D+00 0.733D+00
 Coeff:     -0.815D-06 0.982D-06 0.174D-06-0.325D-05-0.109D-07 0.259D-04
 Coeff:      0.728D-04 0.256D-04-0.339D-03-0.758D-03 0.545D-04 0.204D-02
 Coeff:      0.109D-01 0.161D-01-0.335D-02-0.648D-01-0.171D+00-0.330D-01
 Coeff:      0.511D+00 0.733D+00
 Gap=     0.046 Goal=   None    Shift=    0.000
 Gap=     0.128 Goal=   None    Shift=    0.000
 RMSDP=1.26D-07 MaxDP=1.49D-05 DE=-5.09D-11 OVMax= 5.18D-06

 Cycle  22  Pass 1  IDiag  1:
 RMSU=  1.12D-07    CP:  1.00D+00
 E= -1357.64385867641     Delta-E=       -0.000000000067 Rises=F Damp=F
 DIIS: error= 8.24D-08 at cycle  22 NSaved=  20.
 NSaved=20 IEnMin=20 EnMin= -1357.64385867641     IErMin=20 ErrMin= 8.24D-08
 ErrMax= 8.24D-08  0.00D+00 EMaxC= 1.00D-01 BMatC= 6.52D-12 BMatP= 2.68D-11
 IDIUse=1 WtCom= 1.00D+00 WtEn= 0.00D+00
 Coeff-Com: -0.123D-06 0.168D-06-0.235D-05-0.821D-05 0.758D-05 0.637D-04
 Coeff-Com:  0.103D-03 0.475D-04-0.399D-03-0.611D-03-0.399D-03 0.235D-02
 Coeff-Com:  0.845D-02 0.227D-01 0.993D-02-0.848D-01-0.151D+00 0.172D-01
 Coeff-Com:  0.368D+00 0.808D+00
 Coeff:     -0.123D-06 0.168D-06-0.235D-05-0.821D-05 0.758D-05 0.637D-04
 Coeff:      0.103D-03 0.475D-04-0.399D-03-0.611D-03-0.399D-03 0.235D-02
 Coeff:      0.845D-02 0.227D-01 0.993D-02-0.848D-01-0.151D+00 0.172D-01
 Coeff:      0.368D+00 0.808D+00
 Gap=     0.046 Goal=   None    Shift=    0.000
 Gap=     0.128 Goal=   None    Shift=    0.000
 RMSDP=5.90D-08 MaxDP=5.92D-06 DE=-6.68D-11 OVMax= 3.16D-06

 Cycle  23  Pass 1  IDiag  1:
 RMSU=  5.15D-08    CP:  1.00D+00  1.25D+00
 E= -1357.64385867640     Delta-E=        0.000000000009 Rises=F Damp=F
 DIIS: error= 4.88D-08 at cycle  23 NSaved=  20.
 NSaved=20 IEnMin=19 EnMin= -1357.64385867641     IErMin=20 ErrMin= 4.88D-08
 ErrMax= 4.88D-08  0.00D+00 EMaxC= 1.00D-01 BMatC= 2.69D-12 BMatP= 6.52D-12
 IDIUse=1 WtCom= 1.00D+00 WtEn= 0.00D+00
 Coeff-Com:  0.913D-07-0.923D-06-0.680D-05-0.113D-05 0.238D-04 0.655D-04
 Coeff-Com:  0.136D-03-0.529D-04-0.421D-03-0.923D-03-0.160D-02 0.749D-03
 Coeff-Com:  0.140D-01 0.232D-01-0.627D-02-0.783D-01-0.127D+00 0.889D-02
 Coeff-Com:  0.515D+00 0.652D+00
 Coeff:      0.913D-07-0.923D-06-0.680D-05-0.113D-05 0.238D-04 0.655D-04
 Coeff:      0.136D-03-0.529D-04-0.421D-03-0.923D-03-0.160D-02 0.749D-03
 Coeff:      0.140D-01 0.232D-01-0.627D-02-0.783D-01-0.127D+00 0.889D-02
 Coeff:      0.515D+00 0.652D+00
 Gap=     0.046 Goal=   None    Shift=    0.000
 Gap=     0.128 Goal=   None    Shift=    0.000
 RMSDP=2.78D-08 MaxDP=1.57D-06 DE= 9.09D-12 OVMax= 1.43D-06

 Cycle  24  Pass 1  IDiag  1:
 RMSU=  2.19D-08    CP:  1.00D+00  1.33D+00  1.26D+00
 E= -1357.64385867642     Delta-E=       -0.000000000019 Rises=F Damp=F
 DIIS: error= 2.31D-08 at cycle  24 NSaved=  20.
 NSaved=20 IEnMin=20 EnMin= -1357.64385867642     IErMin=20 ErrMin= 2.31D-08
 ErrMax= 2.31D-08  0.00D+00 EMaxC= 1.00D-01 BMatC= 5.06D-13 BMatP= 2.69D-12
 IDIUse=1 WtCom= 1.00D+00 WtEn= 0.00D+00
 Coeff-Com: -0.315D-06-0.265D-05-0.270D-05-0.273D-05 0.845D-05 0.672D-04
 Coeff-Com:  0.976D-04-0.856D-04-0.426D-03-0.161D-02-0.204D-02 0.584D-03
 Coeff-Com:  0.937D-02 0.212D-01 0.706D-02-0.689D-01-0.104D+00 0.289D-01
 Coeff-Com:  0.290D+00 0.819D+00
 Coeff:     -0.315D-06-0.265D-05-0.270D-05-0.273D-05 0.845D-05 0.672D-04
 Coeff:      0.976D-04-0.856D-04-0.426D-03-0.161D-02-0.204D-02 0.584D-03
 Coeff:      0.937D-02 0.212D-01 0.706D-02-0.689D-01-0.104D+00 0.289D-01
 Coeff:      0.290D+00 0.819D+00
 Gap=     0.046 Goal=   None    Shift=    0.000
 Gap=     0.128 Goal=   None    Shift=    0.000
 RMSDP=1.40D-08 MaxDP=1.83D-06 DE=-1.91D-11 OVMax= 7.13D-07

 Cycle  25  Pass 1  IDiag  1:
 RMSU=  1.36D-08    CP:  1.00D+00  1.31D+00  1.29D+00  1.03D+00
 E= -1357.64385867641     Delta-E=        0.000000000003 Rises=F Damp=F
 DIIS: error= 1.35D-08 at cycle  25 NSaved=  20.
 NSaved=20 IEnMin=19 EnMin= -1357.64385867642     IErMin=20 ErrMin= 1.35D-08
 ErrMax= 1.35D-08  0.00D+00 EMaxC= 1.00D-01 BMatC= 1.91D-13 BMatP= 5.06D-13
 IDIUse=1 WtCom= 1.00D+00 WtEn= 0.00D+00
 Coeff-Com:  0.203D-06-0.993D-06-0.591D-05-0.131D-04-0.284D-05 0.653D-04
 Coeff-Com:  0.469D-04 0.378D-04-0.374D-03-0.969D-03-0.286D-02-0.802D-03
 Coeff-Com:  0.108D-01 0.233D-01-0.571D-02-0.600D-01-0.111D+00-0.280D-01
 Coeff-Com:  0.469D+00 0.707D+00
 Coeff:      0.203D-06-0.993D-06-0.591D-05-0.131D-04-0.284D-05 0.653D-04
 Coeff:      0.469D-04 0.378D-04-0.374D-03-0.969D-03-0.286D-02-0.802D-03
 Coeff:      0.108D-01 0.233D-01-0.571D-02-0.600D-01-0.111D+00-0.280D-01
 Coeff:      0.469D+00 0.707D+00
 Gap=     0.046 Goal=   None    Shift=    0.000
 Gap=     0.128 Goal=   None    Shift=    0.000
 RMSDP=6.98D-09 MaxDP=5.40D-07 DE= 2.73D-12 OVMax= 3.74D-07

 SCF Done:  E(UB3LYP) =  -1357.64385868     A.U. after   25 cycles
            NFock= 25  Conv=0.70D-08     -V/T= 2.0031
 <Sx>= 0.0000 <Sy>= 0.0000 <Sz>= 0.5000 <S**2>= 0.7580 S= 0.5040
 <L.S>=  0.00000000000    
 KE= 1.353397622949D+03 PE=-7.191790436772D+03 EE= 2.485593042248D+03
 Annihilation of the first spin contaminant:
 S**2 before annihilation     0.7580,   after     0.7500
 Leave Link  502 at Thu Dec 28 20:03:36 2023, MaxMem=  4026531840 cpu:            8412.8 elap:            1056.5
 (Enter /sysapps/ubuntu-applications/gaussian/Gaussian/AVX2/g16/l601.exe)
 Copying SCF densities to generalized density rwf, IOpCl= 1 IROHF=0.

 **********************************************************************

            Population analysis using the SCF density.

 **********************************************************************

 Alpha  occ. eigenvalues --  -88.72493 -18.95026 -18.94852 -10.10711 -10.10319
 Alpha  occ. eigenvalues --  -10.10117 -10.10084 -10.10052 -10.10024 -10.10002
 Alpha  occ. eigenvalues --  -10.09966 -10.09569 -10.09006 -10.08780 -10.08449
 Alpha  occ. eigenvalues --  -10.06540 -10.06303 -10.06223 -10.05784 -10.05692
 Alpha  occ. eigenvalues --  -10.05580 -10.05123 -10.05032 -10.04407  -7.81214
 Alpha  occ. eigenvalues --   -5.77624  -5.77243  -5.76545  -0.89274  -0.89004
 Alpha  occ. eigenvalues --   -0.80111  -0.74947  -0.74434  -0.71256  -0.69604
 Alpha  occ. eigenvalues --   -0.67534  -0.64832  -0.63811  -0.63220  -0.61490
 Alpha  occ. eigenvalues --   -0.57071  -0.54548  -0.53110  -0.52212  -0.51875
 Alpha  occ. eigenvalues --   -0.49281  -0.46761  -0.43943  -0.43676  -0.42292
 Alpha  occ. eigenvalues --   -0.40396  -0.39480  -0.37678  -0.36984  -0.36082
 Alpha  occ. eigenvalues --   -0.35073  -0.33860  -0.33520  -0.33062  -0.32015
 Alpha  occ. eigenvalues --   -0.31486  -0.31069  -0.30705  -0.30017  -0.29397
 Alpha  occ. eigenvalues --   -0.28791  -0.28317  -0.27320  -0.26808  -0.25960
 Alpha  occ. eigenvalues --   -0.25627  -0.25515  -0.24923  -0.23947  -0.23304
 Alpha  occ. eigenvalues --   -0.22744  -0.22136  -0.20732  -0.16727  -0.15265
 Alpha  occ. eigenvalues --   -0.13812  -0.13745  -0.13400  -0.12147  -0.11736
 Alpha  occ. eigenvalues --   -0.10414  -0.01749
 Alpha virt. eigenvalues --    0.02899   0.05652   0.06276   0.07172   0.07777
 Alpha virt. eigenvalues --    0.07962   0.08267   0.08681   0.09359   0.09777
 Alpha virt. eigenvalues --    0.09952   0.10432   0.11250   0.11838   0.12128
 Alpha virt. eigenvalues --    0.12316   0.12881   0.13270   0.13627   0.14065
 Alpha virt. eigenvalues --    0.14395   0.15039   0.15098   0.15463   0.15882
 Alpha virt. eigenvalues --    0.16425   0.16631   0.16775   0.17019   0.17355
 Alpha virt. eigenvalues --    0.17498   0.17801   0.17927   0.18370   0.18848
 Alpha virt. eigenvalues --    0.18934   0.19110   0.19293   0.19357   0.19649
 Alpha virt. eigenvalues --    0.20147   0.20213   0.20582   0.20703   0.21032
 Alpha virt. eigenvalues --    0.21297   0.21534   0.21903   0.22179   0.22303
 Alpha virt. eigenvalues --    0.22637   0.22919   0.23166   0.23639   0.24086
 Alpha virt. eigenvalues --    0.24208   0.24461   0.24529   0.25136   0.25229
 Alpha virt. eigenvalues --    0.25647   0.25747   0.26055   0.26313   0.26460
 Alpha virt. eigenvalues --    0.26891   0.27158   0.27500   0.27905   0.28019
 Alpha virt. eigenvalues --    0.28187   0.28794   0.29245   0.29547   0.29601
 Alpha virt. eigenvalues --    0.30094   0.30175   0.30718   0.31098   0.31379
 Alpha virt. eigenvalues --    0.31476   0.31879   0.32283   0.32408   0.32892
 Alpha virt. eigenvalues --    0.33070   0.33234   0.33533   0.33777   0.34045
 Alpha virt. eigenvalues --    0.34375   0.34611   0.34707   0.35104   0.35282
 Alpha virt. eigenvalues --    0.35603   0.36022   0.36346   0.36561   0.36941
 Alpha virt. eigenvalues --    0.37027   0.37378   0.37594   0.37836   0.37872
 Alpha virt. eigenvalues --    0.38163   0.38566   0.38825   0.39324   0.39458
 Alpha virt. eigenvalues --    0.39641   0.40266   0.40620   0.40826   0.41197
 Alpha virt. eigenvalues --    0.41591   0.41849   0.42321   0.42507   0.42678
 Alpha virt. eigenvalues --    0.43082   0.43897   0.44418   0.44756   0.45026
 Alpha virt. eigenvalues --    0.45462   0.46078   0.46325   0.46623   0.46925
 Alpha virt. eigenvalues --    0.47333   0.47507   0.48178   0.49245   0.49611
 Alpha virt. eigenvalues --    0.49973   0.50719   0.51749   0.52059   0.52850
 Alpha virt. eigenvalues --    0.53069   0.54252   0.55030   0.56129   0.56220
 Alpha virt. eigenvalues --    0.57679   0.58358   0.58912   0.60027   0.60263
 Alpha virt. eigenvalues --    0.61808   0.62107   0.62522   0.63595   0.63834
 Alpha virt. eigenvalues --    0.64135   0.64367   0.65168   0.65446   0.65699
 Alpha virt. eigenvalues --    0.66128   0.66398   0.66789   0.67222   0.67551
 Alpha virt. eigenvalues --    0.68660   0.69085   0.69483   0.69887   0.70244
 Alpha virt. eigenvalues --    0.70734   0.70973   0.71748   0.71825   0.72394
 Alpha virt. eigenvalues --    0.72802   0.73304   0.73769   0.74071   0.74784
 Alpha virt. eigenvalues --    0.75570   0.76640   0.77042   0.77853   0.78222
 Alpha virt. eigenvalues --    0.78532   0.79285   0.79798   0.80201   0.80788
 Alpha virt. eigenvalues --    0.81221   0.81505   0.82058   0.82773   0.82857
 Alpha virt. eigenvalues --    0.83161   0.83240   0.84298   0.84483   0.85170
 Alpha virt. eigenvalues --    0.85791   0.86230   0.86538   0.87389   0.87884
 Alpha virt. eigenvalues --    0.88132   0.88662   0.88963   0.89352   0.90295
 Alpha virt. eigenvalues --    0.91132   0.92861   0.93229   0.93759   0.94370
 Alpha virt. eigenvalues --    0.94705   0.95056   0.95838   0.96196   0.96686
 Alpha virt. eigenvalues --    0.97263   0.98000   0.99172   0.99695   0.99839
 Alpha virt. eigenvalues --    1.00944   1.01865   1.02794   1.02856   1.03299
 Alpha virt. eigenvalues --    1.03732   1.05172   1.05649   1.06341   1.06958
 Alpha virt. eigenvalues --    1.07495   1.07671   1.08157   1.08924   1.09591
 Alpha virt. eigenvalues --    1.10161   1.11175   1.11424   1.12893   1.13132
 Alpha virt. eigenvalues --    1.13671   1.14376   1.15339   1.15396   1.16049
 Alpha virt. eigenvalues --    1.16656   1.16975   1.18194   1.18420   1.18867
 Alpha virt. eigenvalues --    1.19518   1.20291   1.20600   1.22079   1.22449
 Alpha virt. eigenvalues --    1.23085   1.23667   1.24155   1.24846   1.25663
 Alpha virt. eigenvalues --    1.27480   1.27528   1.29055   1.30075   1.32024
 Alpha virt. eigenvalues --    1.34709   1.37191   1.37726   1.39807   1.42173
 Alpha virt. eigenvalues --    1.43283   1.43336   1.44617   1.45090   1.46859
 Alpha virt. eigenvalues --    1.47414   1.48748   1.50180   1.50748   1.52054
 Alpha virt. eigenvalues --    1.52905   1.55414   1.56520   1.58037   1.58863
 Alpha virt. eigenvalues --    1.59277   1.59336   1.60419   1.60579   1.61082
 Alpha virt. eigenvalues --    1.63236   1.63522   1.63987   1.64346   1.64626
 Alpha virt. eigenvalues --    1.65924   1.66286   1.67389   1.68459   1.69201
 Alpha virt. eigenvalues --    1.69550   1.70325   1.71968   1.73534   1.74244
 Alpha virt. eigenvalues --    1.74407   1.74930   1.75336   1.76671   1.78498
 Alpha virt. eigenvalues --    1.79422   1.79691   1.80072   1.81493   1.82738
 Alpha virt. eigenvalues --    1.83496   1.83762   1.84438   1.84936   1.86329
 Alpha virt. eigenvalues --    1.86846   1.87765   1.88699   1.89788   1.90667
 Alpha virt. eigenvalues --    1.92243   1.93544   1.94195   1.95247   1.95631
 Alpha virt. eigenvalues --    1.96483   1.97545   1.97804   1.98235   1.99632
 Alpha virt. eigenvalues --    2.00505   2.00961   2.01542   2.03107   2.03892
 Alpha virt. eigenvalues --    2.04209   2.05183   2.05401   2.05470   2.06014
 Alpha virt. eigenvalues --    2.06519   2.07246   2.08220   2.09403   2.09985
 Alpha virt. eigenvalues --    2.10717   2.11179   2.11877   2.12091   2.14022
 Alpha virt. eigenvalues --    2.15288   2.15792   2.17194   2.19020   2.20015
 Alpha virt. eigenvalues --    2.21979   2.22371   2.23547   2.24356   2.24763
 Alpha virt. eigenvalues --    2.25704   2.26270   2.27447   2.29555   2.31848
 Alpha virt. eigenvalues --    2.33185   2.34905   2.36180   2.37920   2.39527
[...]
 00013706,0.00048543,0.00583599,0.00317506,-0.00451057,-0.00234564,-0.0
 0535254,-0.01194287,-0.10056387,-0.03900254,-0.11346960,-0.00050356,-0
 .00014864,0.00032718,0.00018895,0.00010569,-0.00002364,-0.00060175,0.0
 0009545,0.00013067,0.00015083,-0.00043763,-0.00044994,0.00003508,-0.00
 004332,0.00004254,-0.00002099,0.00007097,0.00007908,-0.00001211,-0.000
 00803,-0.00001220,0.00002088,0.00016080,0.00018995,-0.00346525,-0.0006
 8147,0.00279794,0.09594913,0.00005759,-0.00003690,-0.00010957,-0.00017
 615,-0.00003792,-0.00003564,0.00017124,0.00000753,0.00004369,-0.000409
 34,-0.00002349,0.00023340,0.00021449,0.00027105,0.00036386,-0.00000173
 ,-0.00009634,-0.00010211,0.00047608,-0.00001240,-0.00009121,0.00130208
 ,0.00023834,0.00043257,-0.00085644,0.00025154,-0.00080744,-0.00027475,
 -0.00044750,0.00099587,-0.00048978,-0.00010586,-0.00012329,0.00026833,
 0.00020191,-0.00006355,-0.00002039,0.00001007,0.00000031,-0.00000700,-
 0.00000741,-0.00002825,0.00002066,-0.00000118,-0.00002641,0.00001662,0
 .00002652,0.00000538,-0.00004038,0.00006794,0.00007172,-0.00068578,-0.
 00032862,-0.00091911,-0.01396381,-0.00645756,-0.02536297,0.00130499,-0
 .00570997,-0.00048663,0.00045247,-0.00065703,0.00068764,0.00300168,-0.
 00238776,0.00186618,0.01026159,0.01008937,0.01834054,-0.03977774,-0.08
 674718,-0.07808916,-0.00029683,0.00017005,-0.00023486,0.00006556,-0.00
 032047,0.00000130,0.00011703,0.00001812,0.00036131,0.00016443,0.000726
 90,0.00037253,-0.00007274,0.00001396,-0.00000396,-0.00001254,-0.000033
 32,0.00000039,-0.00003318,-0.00000221,0.00000267,-0.00081422,-0.000422
 93,-0.00135313,-0.00088780,0.00083475,0.00014159,0.04083260,0.09085891
 ,-0.00002424,0.00000664,0.00005967,0.00007839,0.00001327,0.00000616,-0
 .00007843,0.00000138,0.00000465,0.00014097,-0.00002352,-0.00021811,-0.
 00011878,-0.00023453,-0.00012853,0.00004997,-0.00001651,-0.00000399,-0
 .00038654,0.00005568,0.00001800,-0.00066612,0.00014216,-0.00011012,0.0
 0026662,0.00098701,0.00030698,0.00048734,0.00115929,-0.00092402,0.0004
 4473,0.00007227,0.00005853,-0.00036540,0.00007479,-0.00024665,0.000009
 33,-0.00000199,-0.00000026,0.00000471,0.00000757,0.00001902,-0.0000130
 2,0.00000759,0.00001398,-0.00000354,-0.00000056,-0.00000383,0.00009008
 ,-0.00009881,0.00007168,0.00004059,0.00088659,-0.00142976,-0.00233811,
 -0.00284253,-0.00173607,-0.00164803,-0.00085823,0.00161852,0.00061116,
 0.00010664,0.00026420,-0.00427167,0.00219044,0.00233229,-0.00781529,-0
 .00693890,-0.01046824,-0.11435575,-0.07882092,-0.24572343,0.00024394,-
 0.00001096,-0.00030887,-0.00001558,-0.00001295,0.00016376,0.00016033,0
 .00031148,-0.00030758,-0.00027168,-0.00054601,-0.00031393,0.00003708,0
 .00000685,-0.00006018,0.00008642,-0.00007424,-0.00009274,0.00002403,0.
 00001759,0.00001046,-0.00005596,0.00014613,-0.00008242,0.00261136,0.00
 049031,-0.00062880,0.12716868,0.08380859,0.25784939,-0.00000382,0.0000
 0108,0.00000100,0.00000451,0.00000139,0.00000256,-0.00000553,0.0000007
 0,-0.00000140,0.00001122,-0.00000259,0.00000123,-0.00001484,-0.0000083
 2,-0.00001065,0.00000375,0.00000239,0.00000542,0.00000494,0.00000405,0
 .00000104,-0.00000704,-0.00000299,0.00001156,0.00002905,0.00001854,-0.
 00003508,0.00005483,0.00000701,0.00000520,-0.00000426,0.00000270,0.000
 00955,-0.00006139,0.00000251,-0.00000143,0.00000060,-0.00000032,-0.000
 00073,0.00000005,0.00000017,0.00000087,-0.00000099,0.00000092,0.000002
 06,-0.00000076,-0.00000038,0.00000026,-0.00000164,0.00000610,-0.000004
 85,0.00003874,-0.00003884,-0.00003925,-0.00015924,0.00026886,0.0002431
 1,-0.00153907,-0.00116583,0.00158867,0.00353329,-0.01408650,-0.0028711
 6,0.00243644,0.00018248,-0.00442494,0.00002065,-0.00077033,-0.00001987
 ,0.00000395,-0.00015671,0.00012856,-0.04128633,0.00437816,-0.00992290,
 0.00331043,0.01506324,0.00378353,0.00450044,0.00227001,-0.00525031,-0.
 00091191,0.00001767,-0.00013233,-0.00000345,0.00000403,-0.00000067,-0.
 00000099,-0.00000667,0.00000475,-0.00000045,-0.00000063,-0.00000100,0.
 00011720,0.00048865,-0.00012298,0.00001003,-0.00007440,-0.00027260,0.0
 0001952,0.00003689,-0.00001533,0.03359942,0.00000557,-0.00000045,-0.00
 000611,-0.00001118,-0.00000046,-0.00000402,0.00000989,0.00000432,0.000
 00150,-0.00002385,0.00000474,0.00001129,0.00002201,0.00000280,0.000018
 24,-0.00000697,-0.00000056,-0.00000960,0.00003954,0.00000141,0.0000161
 8,0.00006223,0.00000331,-0.00002342,-0.00004253,0.00005496,-0.00001530
 ,-0.00000906,-0.00001749,0.00000032,-0.00005438,-0.00000682,-0.0000221
 0,0.00000621,0.00003642,-0.00003846,-0.00000232,-0.00000106,0.00000091
 ,-0.00000111,-0.00000314,-0.00000395,0.00000316,-0.00000294,-0.0000029
 6,0.00000044,-0.00000229,0.00000455,-0.00000461,-0.00000162,0.00000468
 ,-0.00004245,0.00002747,-0.00004570,-0.00014986,-0.00007105,-0.0002074
 2,0.00048501,0.00073671,0.00160641,0.00126785,-0.00833333,-0.00067568,
 -0.00062899,0.00164641,-0.00182409,0.00035110,-0.00063896,0.00043108,-
 0.00011311,0.00030432,-0.00002881,0.00465512,-0.31527406,-0.05950206,-
 0.00141846,-0.01613887,-0.00692218,0.00299718,0.00013589,0.00299414,-0
 .00016402,0.00059200,0.00007019,-0.00000267,0.00000708,-0.00000005,0.0
 0000878,-0.00000344,-0.00000326,-0.00000381,-0.00000324,-0.00000410,-0
 .00038162,0.00055949,-0.00055965,-0.00007538,-0.00007131,-0.00018469,-
 0.00000137,0.00002924,-0.00000037,-0.00623484,0.33663768,-0.00000015,0
 .00000278,0.00000139,0.00000265,0.00000066,0.00000100,-0.00000246,0.00
 000084,-0.00000046,0.00000703,-0.00000094,-0.00000246,-0.00000503,0.00
 000401,-0.00000100,-0.00000042,0.00000238,0.00000194,-0.00001079,-0.00
 000878,-0.00000219,-0.00000937,0.00001073,0.00001085,-0.00001752,0.000
 00290,-0.00001965,-0.00000069,0.00000669,0.00001925,0.00001759,0.00000
 675,0.00000360,0.00002151,0.00002238,-0.00000560,0.00000066,-0.0000003
 4,0.00000034,0.00000028,0.,0.00000118,-0.00000058,-0.00000068,0.000000
 60,-0.00000046,-0.00000225,-0.00000009,0.00000278,-0.00000324,0.000002
 69,-0.00006417,0.00000904,-0.00002873,0.00017759,0.00047419,0.00012693
 ,0.00193518,-0.00115308,0.00025458,0.00078385,-0.02569116,-0.00167358,
 -0.00461481,-0.00057466,-0.00244415,0.00025164,-0.00136420,-0.00000610
 ,0.00013051,-0.00018112,0.00008535,-0.00985713,-0.05975251,-0.06479155
 ,-0.00014668,0.01980404,0.00770135,-0.00507594,0.00175765,0.00025194,-
 0.00017557,0.00036470,-0.00103095,-0.00000086,0.00000101,-0.00000311,-
 0.00000224,-0.00000317,-0.00000412,0.00000237,0.00000079,0.00000243,-0
 .00030911,0.00088601,-0.00008383,-0.00027344,-0.00016644,-0.00031501,-
 0.00002360,0.00005848,0.00001226,0.01428489,0.06452623,0.06248001,0.00
 000466,-0.00000115,-0.00000590,-0.00001021,-0.00000087,-0.00000374,0.0
 0000829,0.00000192,0.00000167,-0.00002173,0.00000381,0.00000917,0.0000
 1930,0.00000058,0.00001159,-0.00000417,-0.00000192,-0.00000830,0.00003
 637,0.00000249,0.00001793,0.00005600,-0.00000413,-0.00002728,-0.000034
 11,0.00003355,-0.00000122,0.00000092,-0.00001447,-0.00000158,-0.000054
 67,-0.00001099,-0.00002139,-0.00000756,0.00001629,-0.00003371,-0.00000
 256,0.00000017,0.00000042,-0.00000103,-0.00000249,-0.00000404,0.000002
 83,-0.00000156,-0.00000260,0.00000059,-0.00000008,0.00000397,-0.000004
 88,-0.00000117,0.00000185,-0.00007064,0.00002232,-0.00003112,-0.000466
 25,-0.00003445,0.00012534,0.00001640,-0.00055649,-0.00051946,0.0053220
 6,0.00341736,-0.00430170,-0.00043843,0.00026091,0.00030108,-0.00045429
 ,-0.00014855,0.00049133,0.00000870,0.00019066,-0.00006330,-0.00359123,
 -0.00653700,-0.01216486,-0.09788987,-0.03852608,-0.11355449,0.00207357
 ,0.00120440,0.00122858,0.00427037,0.00060602,-0.00151215,-0.00000042,0
 .00000379,0.00000249,0.00000722,0.00000179,0.00000011,-0.00000508,-0.0
 0000326,-0.00000525,0.00013047,0.00005103,-0.00007345,0.00002017,-0.00
 001865,-0.00003073,0.00002743,-0.00000119,-0.00002085,-0.00321969,-0.0
 0039661,0.00264478,0.09575745,0.00000122,-0.00000216,-0.00000130,-0.00
 000221,0.00000080,-0.00000018,0.00000172,0.00000078,0.00000009,-0.0000
 0443,0.00000271,0.00000243,0.00000454,0.00000123,-0.00000113,-0.000001
 70,0.00000015,-0.00000132,0.00001196,0.00000484,0.00000198,0.00000684,
 0.00000242,0.00000454,0.00002302,-0.00001729,0.00001061,0.00000770,0.0
 0000029,-0.00000037,-0.00001351,-0.00000229,-0.00000575,-0.00001155,0.
 00000132,-0.00000897,-0.00000071,-0.00000008,0.00000030,-0.00000040,-0
 .00000088,-0.00000138,0.00000100,-0.00000073,-0.00000065,-0.00000006,-
 0.00000037,0.00000139,-0.00000233,-0.00000310,0.00000229,-0.00003287,0
 .00006646,0.00001998,0.00019177,0.00003123,0.00042858,0.00008672,0.000
 74357,0.00023633,0.00284873,-0.00243055,0.00203489,0.00045152,-0.00061
 443,0.00071465,-0.00030326,0.00015159,-0.00026220,0.00006705,-0.000272
 17,0.00002787,0.00993915,0.01039025,0.01792773,-0.03884753,-0.08793981
 ,-0.07614442,-0.01513134,-0.00487019,-0.02610118,0.00129852,-0.0056830
 7,-0.00053294,0.00000080,0.00000007,0.00000047,0.00000156,0.00000146,-
 0.00000168,-0.00000058,-0.00000069,-0.00000170,0.00001624,-0.00002301,
 -0.00002455,0.00003775,0.00004248,0.00006428,-0.00000003,0.00000656,-0
 .00000647,-0.00085894,0.00083827,-0.00001656,0.04097847,0.08911551,0.0
 0001042,-0.00000095,-0.00001125,-0.00001976,-0.00000396,-0.00000655,0.
 00001896,0.00000565,0.00000320,-0.00004350,0.00000269,0.00001781,0.000
 04220,0.00000833,0.00003098,-0.00001156,-0.00000467,-0.00001761,0.0000
 5187,0.00000627,0.00001501,0.00007981,0.00000196,-0.00003799,-0.000050
 75,0.00005423,0.00001317,-0.00006380,-0.00003545,-0.00002252,-0.000070
 24,-0.00001576,-0.00003626,0.00004071,0.00001663,-0.00002987,-0.000003
 72,-0.00000068,0.00000143,-0.00000185,-0.00000376,-0.00000653,0.000005
 14,-0.00000381,-0.00000614,0.00000153,0.,0.00000559,-0.00000617,-0.000
 00602,0.00000817,-0.00008499,0.00006580,-0.00008579,0.00021253,0.00013
 217,-0.00022790,-0.00039208,-0.00079503,-0.00056367,-0.00444225,0.0029
 0335,0.00199010,0.00033440,0.00044464,0.00006934,0.00045046,-0.0000125
 2,-0.00004907,-0.00010562,0.00020514,0.00000004,-0.00821333,-0.0088535
 1,-0.01253549,-0.11358643,-0.07553440,-0.23628224,-0.00273394,0.000369
 09,-0.00284239,-0.00133611,-0.00168062,0.00272333,0.00000117,0.0000031
 0,0.00000303,0.00001164,0.00000560,-0.00000674,-0.00000472,-0.00000342
 ,-0.00000568,-0.00008275,0.00003968,0.00005871,-0.00001447,-0.00003039
 ,-0.00000077,-0.00001979,-0.00001777,0.00000612,0.00253419,0.00072427,
 -0.00061807,0.12623012,0.08220029,0.24882285,0.00000300,-0.00000088,-0
 .00000400,-0.00000572,-0.00000296,-0.00000147,0.00000524,0.00000145,-0
 .00000180,-0.00001331,0.00000211,0.00000748,0.00001402,0.00000335,-0.0
 0000548,-0.00000557,-0.00000185,-0.00000163,0.00003357,0.00000776,0.00
 001854,0.00003870,0.00000058,-0.00001941,0.00000354,0.00003986,0.00000
 965,0.00002260,-0.00002417,0.00001789,-0.00004671,-0.00001163,-0.00001
 771,-0.00003501,0.00000944,-0.00003739,-0.00000228,0.00000011,0.000000
 09,-0.00000093,-0.00000156,-0.00000398,0.00000244,-0.00000125,-0.00000
 233,0.00000013,0.00000071,0.00000360,-0.00000319,-0.00000145,0.0000058
 7,-0.00002420,0.00002220,-0.00000519,0.00009441,-0.00013759,-0.0000561
 2,-0.00046623,-0.00004023,0.00041516,-0.00035016,-0.00037780,0.0001809
 5,0.00518505,-0.00121132,-0.00509937,0.00019189,0.00078809,-0.00029513
 ,-0.00051899,-0.00015092,-0.00001571,0.00414260,0.00028051,-0.00150469
 ,0.00141202,-0.00132420,0.00032756,-0.09971585,0.08464835,-0.08967529,
 -0.00402962,0.01063598,-0.00764701,0.00000010,0.00000232,0.00000150,0.
 00000612,0.00000150,-0.00000202,-0.00000371,-0.00000194,-0.00000486,0.
 00003483,0.00002865,-0.00002560,0.00011946,-0.00002208,-0.00007897,-0.
 00009254,0.00003601,0.00000133,0.00026180,-0.00002284,-0.00021225,-0.0
 0169093,-0.00006926,0.00156543,0.09855712,-0.00000528,0.00000207,0.000
 00547,0.00001004,0.00000085,0.00000351,-0.00000923,-0.00000106,-0.0000
 0210,0.00002171,-0.00000127,-0.00000922,-0.00001971,-0.00000483,-0.000
 01242,0.00000560,0.00000217,0.00000807,-0.00002859,-0.00000615,-0.0000
 0875,-0.00004019,0.00000153,0.00001713,0.00002520,-0.00001521,-0.00001
 033,0.00001286,0.00001195,0.00000867,0.00003828,0.00000939,0.00001966,
 -0.00000643,-0.00000537,0.00002321,0.00000211,0.00000007,-0.00000080,0
 .00000109,0.00000203,0.00000387,-0.00000287,0.00000147,0.00000344,-0.0
 0000074,-0.00000030,-0.00000341,0.00000230,0.00000207,-0.00000462,0.00
 002387,0.00000184,0.00000547,-0.00009243,-0.00014828,-0.00018264,0.000
 10420,0.00002300,0.00035015,-0.00054884,-0.00014171,-0.00079487,-0.000
 53238,0.00021234,-0.00282077,0.00002839,0.00035961,0.00001464,-0.00013
 340,0.00018295,-0.00007203,-0.00044655,-0.00489741,-0.00315198,0.01506
 425,-0.01418808,0.02078423,0.08492935,-0.16929253,0.10463311,-0.005878
 13,0.00990871,-0.00769392,-0.00000095,-0.00000102,-0.00000166,-0.00000
 519,-0.00000320,0.00000276,0.00000259,0.00000193,0.00000274,-0.0000252
 1,0.00004926,-0.00004453,0.00002420,-0.00000318,-0.00000104,-0.0000330
 8,0.00003797,-0.00002144,0.00078438,-0.00090856,0.00096065,-0.00065359
 ,0.00094086,-0.00018922,-0.09226463,0.17706156,0.00000885,-0.00000368,
 -0.00000945,-0.00001796,-0.00000259,-0.00000557,0.00001660,0.00000126,
 0.00000451,-0.00003702,0.00000245,0.00001681,0.00003081,0.00001157,0.0
 0002877,-0.00000894,-0.00000549,-0.00001297,0.00004691,0.00000703,0.00
 000844,0.00006988,0.00000273,-0.00001481,-0.00005463,0.00002109,0.0000
 0287,-0.00002433,-0.00000942,-0.00001286,-0.00005689,-0.00001407,-0.00
 002845,0.00001912,0.00001189,-0.00003125,-0.00000322,0.00000038,0.0000
 0099,-0.00000167,-0.00000252,-0.00000592,0.00000449,-0.00000184,-0.000
 00610,0.00000146,0.00000175,0.00000447,-0.00000353,-0.00000309,0.00000
 658,-0.00003284,0.00007145,-0.00000722,-0.00000199,-0.00035217,-0.0000
 0689,0.00043133,0.00010931,0.00000718,0.00014204,-0.00054370,-0.000415
 91,-0.00495535,-0.00391398,-0.00087632,-0.00043793,0.00122135,0.000088
 75,-0.00007193,0.00000700,-0.00060976,-0.00167616,-0.00196102,0.001919
 33,0.00429598,-0.00580473,0.00658756,-0.08956837,0.10410996,-0.1521673
 0,-0.01169081,0.01915291,-0.01207164,0.00000068,0.00000137,0.00000137,
 0.00000888,0.00000238,-0.00000427,-0.00000332,-0.00000250,-0.00000319,
 -0.00003773,0.00004986,0.00000310,-0.00007617,-0.00006893,0.00002540,-
 0.00000710,0.00008952,-0.00006788,-0.00001610,-0.00035234,0.00028069,0
 .00142247,0.00075828,-0.00017565,0.09970261,-0.11260821,0.15810272,-0.
 00000323,-0.00000209,0.00000097,0.00000347,0.00000048,0.00000156,-0.00
 000280,0.00000027,-0.00000252,0.00000427,0.00000126,-0.00000082,-0.000
 00447,-0.00000899,-0.00000713,0.00000362,0.00000155,0.00000309,0.00000
 888,0.00000755,0.00000507,-0.00000194,-0.00001315,-0.00001006,0.000003
 88,0.00000699,0.00001509,0.00003260,0.00000428,-0.00000412,-0.00001616
 ,-0.00000676,0.00000216,-0.00003954,0.00000194,-0.00000466,-0.00000023
 ,0.00000074,-0.00000103,0.00000011,0.00000035,0.00000010,-0.00000093,0
 .00000071,0.00000230,-0.00000040,-0.00000217,0.00000047,-0.00000293,0.
 00000275,-0.00000493,-0.00000913,-0.00003533,-0.00001456,0.00002683,0.
 00007093,0.00016245,0.00010367,0.00066358,0.00032105,0.00253768,0.0018
 6882,-0.00426177,0.00312489,0.01429536,0.00359991,-0.00175863,0.000260
 78,0.00213596,-0.00007567,-0.00027652,0.00005980,-0.00089751,0.0000078
 1,-0.00007015,0.00451397,0.00022829,-0.00568053,0.00377819,-0.01481698
 ,-0.00291340,-0.04165190,0.00602231,-0.00947207,-0.00000055,-0.0000011
 6,0.00000304,0.00000162,0.00000408,0.00000563,-0.00000348,-0.00000046,
 -0.00000340,-0.00001157,0.00016652,-0.00020696,0.00008878,-0.00042184,
 -0.00031092,0.00013280,0.00002145,-0.00009274,-0.00073948,-0.00012204,
 0.00053994,0.00020494,-0.00069557,-0.00030275,-0.00312367,-0.00035296,
 0.00258187,0.03377402,-0.00001093,0.00000686,0.00001011,0.00002241,0.0
 0000807,0.00000826,-0.00002293,0.00000056,-0.00000417,0.00004851,-0.00
 000791,-0.00001464,-0.00004883,-0.00000888,-0.00003371,0.00001196,0.00
 001414,0.00001758,-0.00004768,-0.00000748,-0.00001522,-0.00008462,0.00
 000260,0.00003510,0.00002645,-0.00004059,-0.00003516,0.00007410,0.0000
 3140,0.00003112,0.00006731,0.00002464,0.00003653,-0.00005034,0.0000103
 9,0.00003095,0.00000402,-0.00000173,-0.00000030,0.00000160,0.00000120,
 0.00000687,-0.00000473,0.00000050,0.00000837,-0.00000277,-0.00000667,-
 0.00000311,0.00001011,0.00000606,-0.00000561,0.00012459,-0.00011120,0.
 00008650,-0.00020702,0.00039111,-0.00018192,-0.00029166,-0.00088813,-0
 .00065963,0.00253930,0.00018187,0.00278948,-0.00088713,-0.01723454,-0.
 00643739,-0.00150444,0.00086485,-0.00153549,0.00027034,-0.00002938,0.0
 0041889,0.00015798,0.00047522,0.00059659,-0.00049755,0.00184939,-0.002
 36017,0.00162176,-0.00703850,0.00007971,0.00572687,-0.31451522,-0.0594
 4057,-0.00000332,0.00000364,-0.00000572,-0.00001459,-0.00001144,0.0000
 0462,0.00000714,0.00000188,0.00000822,0.00018304,-0.00023667,0.0002017
 2,0.00047680,0.00056760,0.00089064,0.00004200,-0.00002469,0.00001666,-
 0.00013365,-0.00014286,0.00001622,0.00011911,-0.00048204,0.00000304,-0
 .00084041,0.00080452,0.00001676,-0.00688278,0.33554141,-0.00000097,-0.
 00000027,0.00000363,0.00000259,-0.00000044,-0.00000061,-0.00000132,-0.
 00000208,0.,0.00000598,0.00000040,-0.00000773,-0.00000329,0.00000067,0
 .00000154,0.00000152,-0.00000363,0.00000057,-0.00002929,-0.00000586,-0
 .00000897,-0.00002050,0.00000206,0.00000409,0.00000914,-0.00001562,0.0
 0000176,-0.00004044,-0.00000084,-0.00000752,0.00003576,0.00000566,0.00
 000922,0.00004338,-0.00001697,0.00002284,0.00000128,0.00000026,-0.0000
 0014,0.00000079,0.00000152,0.00000260,-0.00000151,0.00000129,0.0000001
 3,0.00000072,0.00000278,-0.00000323,0.00000212,-0.00000045,-0.00000075
 ,0.00001809,-0.00005484,-0.00000523,0.00009956,0.00025260,0.00016024,0
 .00008499,0.00087371,0.00034776,-0.00411582,0.00174331,-0.00081177,-0.
 00008099,0.01830724,0.00739442,0.00164875,0.00142459,0.00005093,0.0002
 1812,-0.00046316,0.00007345,-0.00004474,0.00034195,-0.00084427,-0.0058
 4841,-0.00112031,-0.00177051,0.00113569,-0.02662292,-0.00135992,-0.009
 56707,-0.05911154,-0.06504045,0.00000080,-0.00000208,-0.00000113,-0.00
 000335,-0.00000059,-0.00000068,0.00000228,0.00000186,0.00000311,-0.000
 19750,0.00017634,-0.00013980,-0.00008231,-0.00060022,-0.00008542,-0.00
 008717,-0.00002249,0.00003973,0.00053510,0.00002630,-0.00020774,-0.000
 10579,-0.00132425,-0.00020070,0.00245977,0.00078715,-0.00055611,0.0139
 2404,0.06541886,0.06293669\\0.00000255,-0.00000005,0.00000091,0.000000
 34,-0.00000020,-0.00000007,-0.00000008,-0.00000069,-0.00000235,-0.0000
 0884,0.00000029,-0.00000114,0.00000463,0.00000060,0.00000186,-0.000002
 44,-0.00000053,0.00000241,0.00000457,0.00000039,0.00000156,-0.00000451
 ,-0.00000384,-0.00000588,0.00001092,0.00001140,0.00001806,0.00000795,-
 0.00000174,-0.00000425,-0.00000305,-0.00000024,-0.00000125,-0.00000809
 ,-0.00000077,-0.00000125,-0.00000037,0.00000024,0.00000016,-0.00000067
 ,0.00000003,0.00000018,-0.00000027,-0.00000042,0.00000049,-0.00000020,
 0.00000016,-0.00000029,0.00000395,0.00000923,0.00000501,-0.00000595,-0
 .00000509,-0.00001296,-0.00000179,-0.00001288,-0.00000606,0.00000761,-
 0.00000384,0.00001061,-0.00000759,0.00001241,-0.00000857,-0.00000489,-
 0.00000958,-0.00001213,0.00000724,-0.00000031,0.00001184,-0.00000189,0
 .00001536,-0.00000193,0.00000623,-0.00000429,0.00000823,-0.00000246,0.
 00001008,-0.00000159,-0.00000153,-0.00000838,-0.00000568,0.00000545,0.
 00000200,0.00000913,-0.00000144,-0.00000387,-0.00000167,-0.00000077,-0
 .00000418,-0.00000075,-0.00000182,-0.00000134,0.00000040,-0.00000129,0
 .00000041,-0.00000054,-0.00000040,0.00000018,-0.00000113,-0.00000116,-
 0.00000174,0.00000100,-0.00000032,0.00000063,-0.00000104,0.00000041,-0
 .00000015,-0.00000024,0.00000035,0.00000070,0.00000009,-0.00000039,0.0
 0000002,-0.00000115\\\@


 THE PROBLEM WITH THE LADDER OF SUCCESS IS YOU CAN'T
 CLIMB IT WHILE YOU'RE TWIDDLING YOUR THUMBS.
 Job cpu time:       1 days  1 hours 23 minutes 34.3 seconds.
 Elapsed time:       0 days  3 hours 10 minutes 33.7 seconds.
 File lengths (MBytes):  RWF=   2783 Int=      0 D2E=      0 Chk=     48 Scr=      1
 Normal termination of Gaussian 16 at Fri Dec 29 07:12:36 2023.
