 Entering Gaussian System, Link 0=g16
 Input=164-an.com
 Output=164-an.log
 Initial command:
 /sysapps/ubuntu-applications/gaussian/Gaussian/AVX2/g16/l1.exe "/scratch/selhajj1/4223457/Gau-1355807.inp" -scrdir="/scratch/selhajj1/4223457/"
 Entering Link 1 = /sysapps/ubuntu-applications/gaussian/Gaussian/AVX2/g16/l1.exe PID=   1355810.
  
 Copyright (c) 1988,1990,1992,1993,1995,1998,2003,2009,2016,
            Gaussian, Inc.  All Rights Reserved.
  
 This is part of the Gaussian(R) 16 program.  It is based on
 the Gaussian(R) 09 system (copyright 2009, Gaussian, Inc.),
 the Gaussian(R) 03 system (copyright 2003, Gaussian, Inc.),
 the Gaussian(R) 98 system (copyright 1998, Gaussian, Inc.),
 the Gaussian(R) 94 system (copyright 1995, Gaussian, Inc.),
 the Gaussian 92(TM) system (copyright 1992, Gaussian, Inc.),
 the Gaussian 90(TM) system (copyright 1990, Gaussian, Inc.),
 the Gaussian 88(TM) system (copyright 1988, Gaussian, Inc.),
 the Gaussian 86(TM) system (copyright 1986, Carnegie Mellon
 University), and the Gaussian 82(TM) system (copyright 1983,
 Carnegie Mellon University). Gaussian is a federally registered
 trademark of Gaussian, Inc.
  
 This software contains proprietary and confidential information,
 including trade secrets, belonging to Gaussian, Inc.
  
 This software is provided under written license and may be
 used, copied, transmitted, or stored only in accord with that
 written license.
  
 The following legend is applicable only to US Government
 contracts under FAR:
  
                    RESTRICTED RIGHTS LEGEND
  
 Use, reproduction and disclosure by the US Government is
 subject to restrictions as set forth in subparagraphs (a)
 and (c) of the Commercial Computer Software - Restricted
 Rights clause in FAR 52.227-19.
  
 Gaussian, Inc.
 340 Quinnipiac St., Bldg. 40, Wallingford CT 06492
  
  
 ---------------------------------------------------------------
 Warning -- This program may not be used in any manner that
 competes with the business of Gaussian, Inc. or will provide
 assistance to any competitor of Gaussian, Inc.  The licensee
 of this program is prohibited from giving any competitor of
 Gaussian, Inc. access to this program.  By using this program,
 the user acknowledges that Gaussian, Inc. is engaged in the
 business of creating and licensing software in the field of
 computational chemistry and represents and warrants to the
 licensee that it is not a competitor of Gaussian, Inc. and that
 it will not use this program in any manner prohibited above.
 ---------------------------------------------------------------
  

 Cite this work as:
 Gaussian 16, Revision A.03,
 M. J. Frisch, G. W. Trucks, H. B. Schlegel, G. E. Scuseria, 
 M. A. Robb, J. R. Cheeseman, G. Scalmani, V. Barone, 
 G. A. Petersson, H. Nakatsuji, X. Li, M. Caricato, A. V. Marenich, 
 J. Bloino, B. G. Janesko, R. Gomperts, B. Mennucci, H. P. Hratchian, 
 J. V. Ortiz, A. F. Izmaylov, J. L. Sonnenberg, D. Williams-Young, 
 F. Ding, F. Lipparini, F. Egidi, J. Goings, B. Peng, A. Petrone, 
 T. Henderson, D. Ranasinghe, V. G. Zakrzewski, J. Gao, N. Rega, 
 G. Zheng, W. Liang, M. Hada, M. Ehara, K. Toyota, R. Fukuda, 
 J. Hasegawa, M. Ishida, T. Nakajima, Y. Honda, O. Kitao, H. Nakai, 
 T. Vreven, K. Throssell, J. A. Montgomery, Jr., J. E. Peralta, 
 F. Ogliaro, M. J. Bearpark, J. J. Heyd, E. N. Brothers, K. N. Kudin, 
 V. N. Staroverov, T. A. Keith, R. Kobayashi, J. Normand, 
 K. Raghavachari, A. P. Rendell, J. C. Burant, S. S. Iyengar, 
 J. Tomasi, M. Cossi, J. M. Millam, M. Klene, C. Adamo, R. Cammi, 
 J. W. Ochterski, R. L. Martin, K. Morokuma, O. Farkas, 
 J. B. Foresman, and D. J. Fox, Gaussian, Inc., Wallingford CT, 2016.
 
 ******************************************
 Gaussian 16:  ES64L-G16RevA.03 25-Dec-2016
                22-Dec-2023 
 ******************************************
 %chk=164-an.chk
 %nproc=8
 Will use up to    8 processors via shared memory.
 %mem=30GB
 --------------------------------------
 #P UB3LYP/6-311++G(d,p) nosym opt freq
 --------------------------------------
 1/18=20,19=15,26=3,38=1/1,3;
 2/9=110,12=2,15=1,17=6,18=5,40=1/2;
 3/5=4,6=6,7=1111,11=2,25=1,30=1,71=1,74=-5,116=2/1,2,3;
 4//1;
 5/5=2,38=5/2;
 6/7=2,8=2,9=2,10=2,28=1/1;
 7/30=1/1,2,3,16;
 1/18=20,19=15,26=3/3(2);
 2/9=110,15=1/2;
 99//99;
 2/9=110,15=1/2;
 3/5=4,6=6,7=1111,11=2,25=1,30=1,71=1,74=-5,116=2/1,2,3;
 4/5=5,16=3,69=1/1;
 5/5=2,38=5/2;
 7/30=1/1,2,3,16;
 1/18=20,19=15,26=3/3(-5);
 2/9=110,15=1/2;
 6/7=2,8=2,9=2,10=2,19=2,28=1/1;
 99/9=1/99;
 Leave Link    1 at Fri Dec 22 22:23:18 2023, MaxMem=  4026531840 cpu:               0.6 elap:               0.1
 (Enter /sysapps/ubuntu-applications/gaussian/Gaussian/AVX2/g16/l101.exe)
 -------
 Reduced
 -------
 Symbolic Z-matrix:
 Charge = -4 Multiplicity = 1
 N                     3.04574  -1.3745   -3.34467 
 C                     2.45492  -0.11598  -2.98027 
 C                     1.80853   0.12114  -1.74593 
 C                     2.56938   0.9436   -3.88723 
 C                     1.2397    1.38491  -1.43509 
 C                     2.03908   2.19228  -3.59935 
 C                     1.37336   2.42785  -2.3949 
 S                     0.71014   4.09093  -2.14612 
 O                    -0.75      4.16971  -1.67435 
 O                     1.47324   4.95379  -1.13019 
 O                     0.70418   4.96821  -3.40747 
 N                     0.53628   1.64993  -0.20384 
 C                     0.06648   0.72468   0.77973 
 N                     0.33088  -0.60424   0.72184 
 C                    -0.16305  -1.44473   1.66403 
 N                    -0.94406  -0.96146   2.66113 
 C                    -1.23357   0.36417   2.72699 
 N                    -0.71866   1.19352   1.78601 
 Cl                    0.19584  -3.15524   1.587 
 N                    -2.0911    0.83091   3.77038 
 C                    -2.59745   2.15946   3.98746 
 C                    -2.28575   3.27764   3.17688 
 C                    -3.47122   2.35699   5.07631 
 C                    -2.83269   4.53412   3.45731 
 C                    -4.01714   3.61617   5.35072 
 C                    -3.69489   4.70458   4.53898 
 S                    -5.12879   3.8294    6.74152 
 O                    -6.07884   2.64952   6.99578 
 O                    -4.4463    4.04257   8.10051 
 O                    -6.08545   5.02603   6.62869 
 H                     3.63346  -1.34359  -4.18502 
 H                     1.78572  -0.67449  -1.03784 
 H                     3.07432   0.80096  -4.83477 
 H                     2.14619   2.98335  -4.3303 
 H                     0.24855   2.61844  -0.01922 
 H                    -2.40842   0.10423   4.43084 
 H                    -1.63439   3.23029   2.32668 
 H                    -3.73316   1.52304   5.71596 
 H                    -2.58685   5.38134   2.82959 
 H                    -4.11136   5.68286   4.74277 
 C                     2.8013   -2.67072  -2.76844 
 C                     3.77172  -3.73236  -2.84199 
 C                     1.55177  -2.94087  -2.1981 
 C                     1.24506  -4.1846   -1.68748 
 C                     3.44401  -5.03407  -2.3286 
 C                     2.15382  -5.2401   -1.73196 
 C                     4.4691   -6.13539  -2.4506 
 C                     5.77754  -5.90322  -3.10322 
 C                     6.10783  -4.62735  -3.57446 
 C                     5.14747  -3.51346  -3.425 
 C                     6.70307  -6.95789  -3.25364 
 C                     7.93716  -6.73818  -3.8677 
 C                     8.26582  -5.4677   -4.33444 
 C                     7.36046  -4.41615  -4.18838 
 O                     4.24239  -7.25837  -2.03662 
 O                     5.52382  -2.40068  -3.75449 
 N                     1.70417  -6.47485  -1.17251 
 H                     0.76899  -2.1987   -2.17003 
 H                     0.26079  -4.33311  -1.25953 
 H                     6.47368  -7.95486  -2.899 
 H                     8.63927  -7.55417  -3.98124 
 H                     9.22268  -5.2966   -4.81084 
 H                     7.63994  -3.43873  -4.56146 
 H                     2.25227  -7.33497  -1.11571 
 H                     0.75872  -6.53872  -0.76623 
 
 ITRead=  0  0  0  0  0  0  0  0  0  0  0  0  0  0  0  0  0  0  0  0
 ITRead=  0  0  0  0  0  0  0  0  0  0  0  0  0  0  0  0  0  0  0  0
 ITRead=  0  0  0  0  0  0  0  0  0  0  0  0  0  0  0  0  0  0  0  0
 ITRead=  0  0  0  0  0
 MicOpt= -1 -1 -1 -1 -1 -1 -1 -1 -1 -1 -1 -1 -1 -1 -1 -1 -1 -1 -1 -1
 MicOpt= -1 -1 -1 -1 -1 -1 -1 -1 -1 -1 -1 -1 -1 -1 -1 -1 -1 -1 -1 -1
 MicOpt= -1 -1 -1 -1 -1 -1 -1 -1 -1 -1 -1 -1 -1 -1 -1 -1 -1 -1 -1 -1
 MicOpt= -1 -1 -1 -1 -1
 NAtoms=     65 NQM=       65 NQMF=       0 NMMI=      0 NMMIF=      0
                NMic=       0 NMicF=      0.
                    Isotopes and Nuclear Properties:
 (Nuclear quadrupole moments (NQMom) in fm**2, nuclear magnetic moments (NMagM)
  in nuclear magnetons)

  Atom         1           2           3           4           5           6           7           8           9          10
 IAtWgt=          14          12          12          12          12          12          12          32          16          16
 AtmWgt=  14.0030740  12.0000000  12.0000000  12.0000000  12.0000000  12.0000000  12.0000000  31.9720718  15.9949146  15.9949146
 NucSpn=           2           0           0           0           0           0           0           0           0           0
 AtZEff=  -0.0000000  -0.0000000  -0.0000000  -0.0000000  -0.0000000  -0.0000000  -0.0000000  -0.0000000  -0.0000000  -0.0000000
 NQMom=    2.0440000   0.0000000   0.0000000   0.0000000   0.0000000   0.0000000   0.0000000   0.0000000   0.0000000   0.0000000
 NMagM=    0.4037610   0.0000000   0.0000000   0.0000000   0.0000000   0.0000000   0.0000000   0.0000000   0.0000000   0.0000000
 AtZNuc=   7.0000000   6.0000000   6.0000000   6.0000000   6.0000000   6.0000000   6.0000000  16.0000000   8.0000000   8.0000000

  Atom        11          12          13          14          15          16          17          18          19          20
 IAtWgt=          16          14          12          14          12          14          12          14          35          14
 AtmWgt=  15.9949146  14.0030740  12.0000000  14.0030740  12.0000000  14.0030740  12.0000000  14.0030740  34.9688527  14.0030740
 NucSpn=           0           2           0           2           0           2           0           2           3           2
 AtZEff=  -0.0000000  -0.0000000  -0.0000000  -0.0000000  -0.0000000  -0.0000000  -0.0000000  -0.0000000  -0.0000000  -0.0000000
 NQMom=    0.0000000   2.0440000   0.0000000   2.0440000   0.0000000   2.0440000   0.0000000   2.0440000  -8.1650000   2.0440000
 NMagM=    0.0000000   0.4037610   0.0000000   0.4037610   0.0000000   0.4037610   0.0000000   0.4037610   0.8218740   0.4037610
 AtZNuc=   8.0000000   7.0000000   6.0000000   7.0000000   6.0000000   7.0000000   6.0000000   7.0000000  17.0000000   7.0000000

  Atom        21          22          23          24          25          26          27          28          29          30
 IAtWgt=          12          12          12          12          12          12          32          16          16          16
 AtmWgt=  12.0000000  12.0000000  12.0000000  12.0000000  12.0000000  12.0000000  31.9720718  15.9949146  15.9949146  15.9949146
 NucSpn=           0           0           0           0           0           0           0           0           0           0
 AtZEff=  -0.0000000  -0.0000000  -0.0000000  -0.0000000  -0.0000000  -0.0000000  -0.0000000  -0.0000000  -0.0000000  -0.0000000
 NQMom=    0.0000000   0.0000000   0.0000000   0.0000000   0.0000000   0.0000000   0.0000000   0.0000000   0.0000000   0.0000000
 NMagM=    0.0000000   0.0000000   0.0000000   0.0000000   0.0000000   0.0000000   0.0000000   0.0000000   0.0000000   0.0000000
 AtZNuc=   6.0000000   6.0000000   6.0000000   6.0000000   6.0000000   6.0000000  16.0000000   8.0000000   8.0000000   8.0000000

  Atom        31          32          33          34          35          36          37          38          39          40
 IAtWgt=           1           1           1           1           1           1           1           1           1           1
 AtmWgt=   1.0078250   1.0078250   1.0078250   1.0078250   1.0078250   1.0078250   1.0078250   1.0078250   1.0078250   1.0078250
 NucSpn=           1           1           1           1           1           1           1           1           1           1
 AtZEff=  -0.0000000  -0.0000000  -0.0000000  -0.0000000  -0.0000000  -0.0000000  -0.0000000  -0.0000000  -0.0000000  -0.0000000
 NQMom=    0.0000000   0.0000000   0.0000000   0.0000000   0.0000000   0.0000000   0.0000000   0.0000000   0.0000000   0.0000000
 NMagM=    2.7928460   2.7928460   2.7928460   2.7928460   2.7928460   2.7928460   2.7928460   2.7928460   2.7928460   2.7928460
 AtZNuc=   1.0000000   1.0000000   1.0000000   1.0000000   1.0000000   1.0000000   1.0000000   1.0000000   1.0000000   1.0000000

  Atom        41          42          43          44          45          46          47          48          49          50
 IAtWgt=          12          12          12          12          12          12          12          12          12          12
 AtmWgt=  12.0000000  12.0000000  12.0000000  12.0000000  12.0000000  12.0000000  12.0000000  12.0000000  12.0000000  12.0000000
 NucSpn=           0           0           0           0           0           0           0           0           0           0
 AtZEff=  -0.0000000  -0.0000000  -0.0000000  -0.0000000  -0.0000000  -0.0000000  -0.0000000  -0.0000000  -0.0000000  -0.0000000
 NQMom=    0.0000000   0.0000000   0.0000000   0.0000000   0.0000000   0.0000000   0.0000000   0.0000000   0.0000000   0.0000000
 NMagM=    0.0000000   0.0000000   0.0000000   0.0000000   0.0000000   0.0000000   0.0000000   0.0000000   0.0000000   0.0000000
 AtZNuc=   6.0000000   6.0000000   6.0000000   6.0000000   6.0000000   6.0000000   6.0000000   6.0000000   6.0000000   6.0000000

  Atom        51          52          53          54          55          56          57          58          59          60
 IAtWgt=          12          12          12          12          16          16          14           1           1           1
 AtmWgt=  12.0000000  12.0000000  12.0000000  12.0000000  15.9949146  15.9949146  14.0030740   1.0078250   1.0078250   1.0078250
 NucSpn=           0           0           0           0           0           0           2           1           1           1
 AtZEff=  -0.0000000  -0.0000000  -0.0000000  -0.0000000  -0.0000000  -0.0000000  -0.0000000  -0.0000000  -0.0000000  -0.0000000
 NQMom=    0.0000000   0.0000000   0.0000000   0.0000000   0.0000000   0.0000000   2.0440000   0.0000000   0.0000000   0.0000000
 NMagM=    0.0000000   0.0000000   0.0000000   0.0000000   0.0000000   0.0000000   0.4037610   2.7928460   2.7928460   2.7928460
 AtZNuc=   6.0000000   6.0000000   6.0000000   6.0000000   8.0000000   8.0000000   7.0000000   1.0000000   1.0000000   1.0000000

  Atom        61          62          63          64          65
 IAtWgt=           1           1           1           1           1
 AtmWgt=   1.0078250   1.0078250   1.0078250   1.0078250   1.0078250
 NucSpn=           1           1           1           1           1
 AtZEff=  -0.0000000  -0.0000000  -0.0000000  -0.0000000  -0.0000000
 NQMom=    0.0000000   0.0000000   0.0000000   0.0000000   0.0000000
 NMagM=    2.7928460   2.7928460   2.7928460   2.7928460   2.7928460
 AtZNuc=   1.0000000   1.0000000   1.0000000   1.0000000   1.0000000
 Leave Link  101 at Fri Dec 22 22:23:19 2023, MaxMem=  4026531840 cpu:               6.5 elap:               0.9
 (Enter /sysapps/ubuntu-applications/gaussian/Gaussian/AVX2/g16/l103.exe)

 GradGradGradGradGradGradGradGradGradGradGradGradGradGradGradGradGradGrad
 Berny optimization.
 Initialization pass.
                           ----------------------------
                           !    Initial Parameters    !
                           ! (Angstroms and Degrees)  !
 --------------------------                            --------------------------
 ! Name  Definition              Value          Derivative Info.                !
 --------------------------------------------------------------------------------
 ! R1    R(1,2)                  1.4373         estimate D2E/DX2                !
 ! R2    R(1,31)                 1.0259         estimate D2E/DX2                !
 ! R3    R(1,41)                 1.4394         estimate D2E/DX2                !
 ! R4    R(2,3)                  1.4134         estimate D2E/DX2                !
 ! R5    R(2,4)                  1.3994         estimate D2E/DX2                !
 ! R6    R(3,5)                  1.4203         estimate D2E/DX2                !
 ! R7    R(3,32)                 1.0653         estimate D2E/DX2                !
 ! R8    R(4,6)                  1.3868         estimate D2E/DX2                !
 ! R9    R(4,33)                 1.0831         estimate D2E/DX2                !
 ! R10   R(5,7)                  1.4237         estimate D2E/DX2                !
 ! R11   R(5,12)                 1.4426         estimate D2E/DX2                !
 ! R12   R(6,7)                  1.3962         estimate D2E/DX2                !
 ! R13   R(6,34)                 1.0824         estimate D2E/DX2                !
 ! R14   R(7,8)                  1.8076         estimate D2E/DX2                !
 ! R15   R(8,9)                  1.5365         estimate D2E/DX2                !
 ! R16   R(8,10)                 1.5359         estimate D2E/DX2                !
 ! R17   R(8,11)                 1.5364         estimate D2E/DX2                !
 ! R18   R(12,13)                1.4298         estimate D2E/DX2                !
 ! R19   R(12,35)                1.0271         estimate D2E/DX2                !
 ! R20   R(13,14)                1.3562         estimate D2E/DX2                !
 ! R21   R(13,18)                1.3597         estimate D2E/DX2                !
 ! R22   R(14,15)                1.3558         estimate D2E/DX2                !
 ! R23   R(15,16)                1.3556         estimate D2E/DX2                !
 ! R24   R(15,19)                1.7495         estimate D2E/DX2                !
 ! R25   R(16,17)                1.3585         estimate D2E/DX2                !
 ! R26   R(17,18)                1.3559         estimate D2E/DX2                !
 ! R27   R(17,20)                1.4289         estimate D2E/DX2                !
 ! R28   R(20,21)                1.4382         estimate D2E/DX2                !
 ! R29   R(20,36)                1.032          estimate D2E/DX2                !
 ! R30   R(21,22)                1.4158         estimate D2E/DX2                !
 ! R31   R(21,23)                1.41           estimate D2E/DX2                !
 ! R32   R(22,24)                1.3988         estimate D2E/DX2                !
 ! R33   R(22,37)                1.0721         estimate D2E/DX2                !
 ! R34   R(23,25)                1.3996         estimate D2E/DX2                !
 ! R35   R(23,38)                1.0832         estimate D2E/DX2                !
 ! R36   R(24,26)                1.3937         estimate D2E/DX2                !
 ! R37   R(24,39)                1.0827         estimate D2E/DX2                !
 ! R38   R(25,26)                1.3955         estimate D2E/DX2                !
 ! R39   R(25,27)                1.7932         estimate D2E/DX2                !
 ! R40   R(26,40)                1.0826         estimate D2E/DX2                !
 ! R41   R(27,28)                1.536          estimate D2E/DX2                !
 ! R42   R(27,29)                1.5356         estimate D2E/DX2                !
 ! R43   R(27,30)                1.5362         estimate D2E/DX2                !
 ! R44   R(41,42)                1.4402         estimate D2E/DX2                !
 ! R45   R(41,43)                1.3999         estimate D2E/DX2                !
 ! R46   R(42,45)                1.4372         estimate D2E/DX2                !
 ! R47   R(42,50)                1.5101         estimate D2E/DX2                !
 ! R48   R(43,44)                1.379          estimate D2E/DX2                !
 ! R49   R(43,58)                1.079          estimate D2E/DX2                !
 ! R50   R(44,46)                1.3935         estimate D2E/DX2                !
 ! R51   R(44,59)                1.0835         estimate D2E/DX2                !
 ! R52   R(45,46)                1.4363         estimate D2E/DX2                !
 ! R53   R(45,47)                1.5095         estimate D2E/DX2                !
 ! R54   R(46,57)                1.4282         estimate D2E/DX2                !
 ! R55   R(47,48)                1.4805         estimate D2E/DX2                !
 ! R56   R(47,55)                1.2181         estimate D2E/DX2                !
 ! R57   R(48,49)                1.3996         estimate D2E/DX2                !
 ! R58   R(48,51)                1.4112         estimate D2E/DX2                !
 ! R59   R(49,50)                1.4783         estimate D2E/DX2                !
 ! R60   R(49,54)                1.4109         estimate D2E/DX2                !
 ! R61   R(50,56)                1.22           estimate D2E/DX2                !
 ! R62   R(51,52)                1.3958         estimate D2E/DX2                !
 ! R63   R(51,60)                1.0827         estimate D2E/DX2                !
 ! R64   R(52,53)                1.3928         estimate D2E/DX2                !
 ! R65   R(52,61)                1.0824         estimate D2E/DX2                !
 ! R66   R(53,54)                1.3953         estimate D2E/DX2                !
 ! R67   R(53,62)                1.0825         estimate D2E/DX2                !
 ! R68   R(54,63)                1.0829         estimate D2E/DX2                !
 ! R69   R(57,64)                1.0215         estimate D2E/DX2                !
 ! R70   R(57,65)                1.031          estimate D2E/DX2                !
 ! A1    A(2,1,31)             114.6313         estimate D2E/DX2                !
 ! A2    A(2,1,41)             128.1129         estimate D2E/DX2                !
 ! A3    A(31,1,41)            116.892          estimate D2E/DX2                !
 ! A4    A(1,2,3)              123.8019         estimate D2E/DX2                !
 ! A5    A(1,2,4)              117.7137         estimate D2E/DX2                !
 ! A6    A(3,2,4)              118.4491         estimate D2E/DX2                !
 ! A7    A(2,3,5)              121.5718         estimate D2E/DX2                !
 ! A8    A(2,3,32)             117.708          estimate D2E/DX2                !
 ! A9    A(5,3,32)             120.6958         estimate D2E/DX2                !
 ! A10   A(2,4,6)              121.0591         estimate D2E/DX2                !
 ! A11   A(2,4,33)             120.3572         estimate D2E/DX2                !
 ! A12   A(6,4,33)             118.5834         estimate D2E/DX2                !
 ! A13   A(3,5,7)              117.8192         estimate D2E/DX2                !
 ! A14   A(3,5,12)             123.0619         estimate D2E/DX2                !
 ! A15   A(7,5,12)             119.1185         estimate D2E/DX2                !
 ! A16   A(4,6,7)              120.8846         estimate D2E/DX2                !
 ! A17   A(4,6,34)             118.6875         estimate D2E/DX2                !
 ! A18   A(7,6,34)             120.4271         estimate D2E/DX2                !
 ! A19   A(5,7,6)              120.1824         estimate D2E/DX2                !
 ! A20   A(5,7,8)              123.1447         estimate D2E/DX2                !
 ! A21   A(6,7,8)              116.6727         estimate D2E/DX2                !
 ! A22   A(7,8,9)              115.9825         estimate D2E/DX2                !
 ! A23   A(7,8,10)             115.1893         estimate D2E/DX2                !
 ! A24   A(7,8,11)             114.4409         estimate D2E/DX2                !
 ! A25   A(9,8,10)             103.9016         estimate D2E/DX2                !
 ! A26   A(9,8,11)             102.6566         estimate D2E/DX2                !
 ! A27   A(10,8,11)            102.9546         estimate D2E/DX2                !
 ! A28   A(5,12,13)            128.9388         estimate D2E/DX2                !
 ! A29   A(5,12,35)            117.5978         estimate D2E/DX2                !
 ! A30   A(13,12,35)           113.2365         estimate D2E/DX2                !
 ! A31   A(12,13,14)           122.7309         estimate D2E/DX2                !
 ! A32   A(12,13,18)           118.4054         estimate D2E/DX2                !
 ! A33   A(14,13,18)           118.8181         estimate D2E/DX2                !
 ! A34   A(13,14,15)           120.4492         estimate D2E/DX2                !
 ! A35   A(14,15,16)           120.0028         estimate D2E/DX2                !
 ! A36   A(14,15,19)           120.0529         estimate D2E/DX2                !
 ! A37   A(16,15,19)           119.9424         estimate D2E/DX2                !
 ! A38   A(15,16,17)           120.4184         estimate D2E/DX2                !
 ! A39   A(16,17,18)           118.836          estimate D2E/DX2                !
 ! A40   A(16,17,20)           118.8181         estimate D2E/DX2                !
 ! A41   A(18,17,20)           122.3343         estimate D2E/DX2                !
 ! A42   A(13,18,17)           121.4652         estimate D2E/DX2                !
 ! A43   A(17,20,21)           128.5507         estimate D2E/DX2                !
 ! A44   A(17,20,36)           114.9509         estimate D2E/DX2                !
 ! A45   A(21,20,36)           116.4622         estimate D2E/DX2                !
 ! A46   A(20,21,22)           124.4454         estimate D2E/DX2                !
 ! A47   A(20,21,23)           117.6542         estimate D2E/DX2                !
 ! A48   A(22,21,23)           117.8986         estimate D2E/DX2                !
 ! A49   A(21,22,24)           120.5692         estimate D2E/DX2                !
 ! A50   A(21,22,37)           123.5668         estimate D2E/DX2                !
 ! A51   A(24,22,37)           115.864          estimate D2E/DX2                !
 ! A52   A(21,23,25)           121.2761         estimate D2E/DX2                !
 ! A53   A(21,23,38)           119.8702         estimate D2E/DX2                !
 ! A54   A(25,23,38)           118.8534         estimate D2E/DX2                !
 ! A55   A(22,24,26)           120.488          estimate D2E/DX2                !
 ! A56   A(22,24,39)           119.8604         estimate D2E/DX2                !
 ! A57   A(26,24,39)           119.6515         estimate D2E/DX2                !
 ! A58   A(23,25,26)           119.8399         estimate D2E/DX2                !
 ! A59   A(23,25,27)           120.0565         estimate D2E/DX2                !
 ! A60   A(26,25,27)           120.1036         estimate D2E/DX2                !
 ! A61   A(24,26,25)           119.9281         estimate D2E/DX2                !
 ! A62   A(24,26,40)           119.6435         estimate D2E/DX2                !
 ! A63   A(25,26,40)           120.4284         estimate D2E/DX2                !
 ! A64   A(25,27,28)           114.8648         estimate D2E/DX2                !
 ! A65   A(25,27,29)           115.3013         estimate D2E/DX2                !
 ! A66   A(25,27,30)           114.9433         estimate D2E/DX2                !
 ! A67   A(28,27,29)           103.5936         estimate D2E/DX2                !
 ! A68   A(28,27,30)           103.0224         estimate D2E/DX2                !
 ! A69   A(29,27,30)           103.5117         estimate D2E/DX2                !
 ! A70   A(1,41,42)            121.9334         estimate D2E/DX2                !
 ! A71   A(1,41,43)            119.2397         estimate D2E/DX2                !
 ! A72   A(42,41,43)           118.6852         estimate D2E/DX2                !
 ! A73   A(41,42,45)           119.7213         estimate D2E/DX2                !
 ! A74   A(41,42,50)           121.7833         estimate D2E/DX2                !
 ! A75   A(45,42,50)           118.4858         estimate D2E/DX2                !
 ! A76   A(41,43,44)           121.5636         estimate D2E/DX2                !
 ! A77   A(41,43,58)           121.695          estimate D2E/DX2                !
 ! A78   A(44,43,58)           116.7019         estimate D2E/DX2                !
 ! A79   A(43,44,46)           121.7536         estimate D2E/DX2                !
 ! A80   A(43,44,59)           118.1584         estimate D2E/DX2                !
 ! A81   A(46,44,59)           120.0791         estimate D2E/DX2                !
 ! A82   A(42,45,46)           118.8908         estimate D2E/DX2                !
 ! A83   A(42,45,47)           118.4967         estimate D2E/DX2                !
 ! A84   A(46,45,47)           122.6101         estimate D2E/DX2                !
 ! A85   A(44,46,45)           119.3665         estimate D2E/DX2                !
 ! A86   A(44,46,57)           115.9138         estimate D2E/DX2                !
 ! A87   A(45,46,57)           124.7177         estimate D2E/DX2                !
 ! A88   A(45,47,48)           121.4254         estimate D2E/DX2                !
 ! A89   A(45,47,55)           121.248          estimate D2E/DX2                !
 ! A90   A(48,47,55)           117.3138         estimate D2E/DX2                !
 ! A91   A(47,48,49)           119.9952         estimate D2E/DX2                !
 ! A92   A(47,48,51)           120.6244         estimate D2E/DX2                !
 ! A93   A(49,48,51)           119.3802         estimate D2E/DX2                !
 ! A94   A(48,49,50)           119.9681         estimate D2E/DX2                !
 ! A95   A(48,49,54)           119.5032         estimate D2E/DX2                !
 ! A96   A(50,49,54)           120.5287         estimate D2E/DX2                !
 ! A97   A(42,50,49)           121.4421         estimate D2E/DX2                !
 ! A98   A(42,50,56)           121.1646         estimate D2E/DX2                !
 ! A99   A(49,50,56)           117.3582         estimate D2E/DX2                !
 ! A100  A(48,51,52)           120.6038         estimate D2E/DX2                !
 ! A101  A(48,51,60)           120.9494         estimate D2E/DX2                !
 ! A102  A(52,51,60)           118.4466         estimate D2E/DX2                !
 ! A103  A(51,52,53)           119.975          estimate D2E/DX2                !
 ! A104  A(51,52,61)           120.0637         estimate D2E/DX2                !
 ! A105  A(53,52,61)           119.9612         estimate D2E/DX2                !
 ! A106  A(52,53,54)           119.951          estimate D2E/DX2                !
 ! A107  A(52,53,62)           120.015          estimate D2E/DX2                !
 ! A108  A(54,53,62)           120.034          estimate D2E/DX2                !
 ! A109  A(49,54,53)           120.586          estimate D2E/DX2                !
 ! A110  A(49,54,63)           120.9418         estimate D2E/DX2                !
 ! A111  A(53,54,63)           118.4714         estimate D2E/DX2                !
 ! A112  A(46,57,64)           125.5081         estimate D2E/DX2                !
 ! A113  A(46,57,65)           119.7764         estimate D2E/DX2                !
 ! A114  A(64,57,65)           114.7058         estimate D2E/DX2                !
 ! D1    D(31,1,2,3)          -168.5845         estimate D2E/DX2                !
 ! D2    D(31,1,2,4)             9.2145         estimate D2E/DX2                !
 ! D3    D(41,1,2,3)            18.6245         estimate D2E/DX2                !
 ! D4    D(41,1,2,4)          -163.5765         estimate D2E/DX2                !
 ! D5    D(2,1,41,42)         -155.7768         estimate D2E/DX2                !
 ! D6    D(2,1,41,43)           28.6081         estimate D2E/DX2                !
 ! D7    D(31,1,41,42)          31.5717         estimate D2E/DX2                !
 ! D8    D(31,1,41,43)        -144.0435         estimate D2E/DX2                !
 ! D9    D(1,2,3,5)           -179.9659         estimate D2E/DX2                !
 ! D10   D(1,2,3,32)             1.8191         estimate D2E/DX2                !
 ! D11   D(4,2,3,5)              2.2502         estimate D2E/DX2                !
 ! D12   D(4,2,3,32)          -175.9648         estimate D2E/DX2                !
 ! D13   D(1,2,4,6)           -179.2238         estimate D2E/DX2                !
 ! D14   D(1,2,4,33)             0.9931         estimate D2E/DX2                !
 ! D15   D(3,2,4,6)             -1.3038         estimate D2E/DX2                !
 ! D16   D(3,2,4,33)           178.913          estimate D2E/DX2                !
 ! D17   D(2,3,5,7)             -1.777          estimate D2E/DX2                !
 ! D18   D(2,3,5,12)           177.9801         estimate D2E/DX2                !
 ! D19   D(32,3,5,7)           176.3852         estimate D2E/DX2                !
 ! D20   D(32,3,5,12)           -3.8578         estimate D2E/DX2                !
 ! D21   D(2,4,6,7)             -0.073          estimate D2E/DX2                !
 ! D22   D(2,4,6,34)          -179.753          estimate D2E/DX2                !
 ! D23   D(33,4,6,7)           179.7139         estimate D2E/DX2                !
 ! D24   D(33,4,6,34)            0.034          estimate D2E/DX2                !
 ! D25   D(3,5,7,6)              0.3584         estimate D2E/DX2                !
 ! D26   D(3,5,7,8)           -179.8089         estimate D2E/DX2                !
 ! D27   D(12,5,7,6)          -179.4085         estimate D2E/DX2                !
 ! D28   D(12,5,7,8)             0.4242         estimate D2E/DX2                !
 ! D29   D(3,5,12,13)          -12.4578         estimate D2E/DX2                !
 ! D30   D(3,5,12,35)          173.4301         estimate D2E/DX2                !
 ! D31   D(7,5,12,13)          167.2962         estimate D2E/DX2                !
 ! D32   D(7,5,12,35)           -6.8159         estimate D2E/DX2                !
 ! D33   D(4,6,7,5)              0.5529         estimate D2E/DX2                !
 ! D34   D(4,6,7,8)           -179.2903         estimate D2E/DX2                !
 ! D35   D(34,6,7,5)          -179.7727         estimate D2E/DX2                !
 ! D36   D(34,6,7,8)             0.3841         estimate D2E/DX2                !
 ! D37   D(5,7,8,9)            -48.5546         estimate D2E/DX2                !
 ! D38   D(5,7,8,10)            73.0851         estimate D2E/DX2                !
 ! D39   D(5,7,8,11)          -167.8445         estimate D2E/DX2                !
 ! D40   D(6,7,8,9)            131.2836         estimate D2E/DX2                !
 ! D41   D(6,7,8,10)          -107.0767         estimate D2E/DX2                !
 ! D42   D(6,7,8,11)            11.9936         estimate D2E/DX2                !
 ! D43   D(5,12,13,14)           5.4715         estimate D2E/DX2                !
 ! D44   D(5,12,13,18)        -172.04           estimate D2E/DX2                !
 ! D45   D(35,12,13,14)        179.7936         estimate D2E/DX2                !
 ! D46   D(35,12,13,18)          2.2821         estimate D2E/DX2                !
 ! D47   D(12,13,14,15)       -178.5256         estimate D2E/DX2                !
 ! D48   D(18,13,14,15)         -1.0239         estimate D2E/DX2                !
 ! D49   D(12,13,18,17)        177.844          estimate D2E/DX2                !
 ! D50   D(14,13,18,17)          0.2332         estimate D2E/DX2                !
 ! D51   D(13,14,15,16)          1.024          estimate D2E/DX2                !
 ! D52   D(13,14,15,19)       -179.4762         estimate D2E/DX2                !
 ! D53   D(14,15,16,17)         -0.2186         estimate D2E/DX2                !
 ! D54   D(19,15,16,17)       -179.7189         estimate D2E/DX2                !
 ! D55   D(15,16,17,18)         -0.5586         estimate D2E/DX2                !
 ! D56   D(15,16,17,20)        178.2367         estimate D2E/DX2                !
 ! D57   D(16,17,18,13)          0.5524         estimate D2E/DX2                !
 ! D58   D(20,17,18,13)       -178.1984         estimate D2E/DX2                !
 ! D59   D(16,17,20,21)       -175.771          estimate D2E/DX2                !
 ! D60   D(16,17,20,36)          1.9421         estimate D2E/DX2                !
 ! D61   D(18,17,20,21)          2.98           estimate D2E/DX2                !
 ! D62   D(18,17,20,36)       -179.3069         estimate D2E/DX2                !
 ! D63   D(17,20,21,22)         -1.5634         estimate D2E/DX2                !
 ! D64   D(17,20,21,23)        177.9463         estimate D2E/DX2                !
 ! D65   D(36,20,21,22)       -179.2472         estimate D2E/DX2                !
 ! D66   D(36,20,21,23)          0.2625         estimate D2E/DX2                !
 ! D67   D(20,21,22,24)        179.542          estimate D2E/DX2                !
 ! D68   D(20,21,22,37)         -0.3771         estimate D2E/DX2                !
 ! D69   D(23,21,22,24)          0.0334         estimate D2E/DX2                !
 ! D70   D(23,21,22,37)       -179.8857         estimate D2E/DX2                !
 ! D71   D(20,21,23,25)       -179.4716         estimate D2E/DX2                !
 ! D72   D(20,21,23,38)          0.3146         estimate D2E/DX2                !
 ! D73   D(22,21,23,25)          0.0709         estimate D2E/DX2                !
 ! D74   D(22,21,23,38)        179.8571         estimate D2E/DX2                !
 ! D75   D(21,22,24,26)         -0.0746         estimate D2E/DX2                !
 ! D76   D(21,22,24,39)       -179.9742         estimate D2E/DX2                !
 ! D77   D(37,22,24,26)        179.8506         estimate D2E/DX2                !
 ! D78   D(37,22,24,39)         -0.049          estimate D2E/DX2                !
 ! D79   D(21,23,25,26)         -0.1346         estimate D2E/DX2                !
 ! D80   D(21,23,25,27)        179.8242         estimate D2E/DX2                !
 ! D81   D(38,23,25,26)       -179.9229         estimate D2E/DX2                !
 ! D82   D(38,23,25,27)          0.036          estimate D2E/DX2                !
 ! D83   D(22,24,26,25)          0.0111         estimate D2E/DX2                !
 ! D84   D(22,24,26,40)       -179.9232         estimate D2E/DX2                !
 ! D85   D(39,24,26,25)        179.9109         estimate D2E/DX2                !
 ! D86   D(39,24,26,40)         -0.0234         estimate D2E/DX2                !
 ! D87   D(23,25,26,24)          0.0923         estimate D2E/DX2                !
 ! D88   D(23,25,26,40)       -179.9739         estimate D2E/DX2                !
 ! D89   D(27,25,26,24)       -179.8665         estimate D2E/DX2                !
 ! D90   D(27,25,26,40)          0.0673         estimate D2E/DX2                !
 ! D91   D(23,25,27,28)        -36.9032         estimate D2E/DX2                !
 ! D92   D(23,25,27,29)         83.4687         estimate D2E/DX2                !
 ! D93   D(23,25,27,30)       -156.2075         estimate D2E/DX2                !
 ! D94   D(26,25,27,28)        143.0555         estimate D2E/DX2                !
 ! D95   D(26,25,27,29)        -96.5726         estimate D2E/DX2                !
 ! D96   D(26,25,27,30)         23.7512         estimate D2E/DX2                !
 ! D97   D(1,41,42,45)        -175.8946         estimate D2E/DX2                !
 ! D98   D(1,41,42,50)           5.2485         estimate D2E/DX2                !
 ! D99   D(43,41,42,45)         -0.256          estimate D2E/DX2                !
 ! D100  D(43,41,42,50)       -179.1129         estimate D2E/DX2                !
 ! D101  D(1,41,43,44)         177.009          estimate D2E/DX2                !
 ! D102  D(1,41,43,58)          -0.6272         estimate D2E/DX2                !
 ! D103  D(42,41,43,44)          1.2506         estimate D2E/DX2                !
 ! D104  D(42,41,43,58)       -176.3856         estimate D2E/DX2                !
 ! D105  D(41,42,45,46)         -0.9342         estimate D2E/DX2                !
 ! D106  D(41,42,45,47)        178.514          estimate D2E/DX2                !
 ! D107  D(50,42,45,46)        177.9603         estimate D2E/DX2                !
 ! D108  D(50,42,45,47)         -2.5915         estimate D2E/DX2                !
 ! D109  D(41,42,50,49)       -176.1231         estimate D2E/DX2                !
 ! D110  D(41,42,50,56)          6.0895         estimate D2E/DX2                !
 ! D111  D(45,42,50,49)          5.0064         estimate D2E/DX2                !
 ! D112  D(45,42,50,56)       -172.781          estimate D2E/DX2                !
 ! D113  D(41,43,44,46)         -1.0283         estimate D2E/DX2                !
 ! D114  D(41,43,44,59)       -179.9422         estimate D2E/DX2                !
 ! D115  D(58,43,44,46)        176.7204         estimate D2E/DX2                !
 ! D116  D(58,43,44,59)         -2.1935         estimate D2E/DX2                !
 ! D117  D(43,44,46,45)         -0.2234         estimate D2E/DX2                !
 ! D118  D(43,44,46,57)       -179.7297         estimate D2E/DX2                !
 ! D119  D(59,44,46,45)        178.67           estimate D2E/DX2                !
 ! D120  D(59,44,46,57)         -0.8362         estimate D2E/DX2                !
 ! D121  D(42,45,46,44)          1.1803         estimate D2E/DX2                !
 ! D122  D(42,45,46,57)       -179.36           estimate D2E/DX2                !
 ! D123  D(47,45,46,44)       -178.2439         estimate D2E/DX2                !
 ! D124  D(47,45,46,57)          1.2157         estimate D2E/DX2                !
 ! D125  D(42,45,47,48)         -1.0915         estimate D2E/DX2                !
 ! D126  D(42,45,47,55)       -179.7556         estimate D2E/DX2                !
 ! D127  D(46,45,47,48)        178.3349         estimate D2E/DX2                !
 ! D128  D(46,45,47,55)         -0.3292         estimate D2E/DX2                !
 ! D129  D(44,46,57,64)       -179.0623         estimate D2E/DX2                !
 ! D130  D(44,46,57,65)         -0.261          estimate D2E/DX2                !
 ! D131  D(45,46,57,64)          1.4612         estimate D2E/DX2                !
 ! D132  D(45,46,57,65)       -179.7375         estimate D2E/DX2                !
 ! D133  D(45,47,48,49)          2.6138         estimate D2E/DX2                !
 ! D134  D(45,47,48,51)       -177.5664         estimate D2E/DX2                !
 ! D135  D(55,47,48,49)       -178.6716         estimate D2E/DX2                !
 ! D136  D(55,47,48,51)          1.1482         estimate D2E/DX2                !
 ! D137  D(47,48,49,50)         -0.2449         estimate D2E/DX2                !
 ! D138  D(47,48,49,54)        179.6655         estimate D2E/DX2                !
 ! D139  D(51,48,49,50)        179.933          estimate D2E/DX2                !
 ! D140  D(51,48,49,54)         -0.1565         estimate D2E/DX2                !
 ! D141  D(47,48,51,52)       -179.9296         estimate D2E/DX2                !
 ! D142  D(47,48,51,60)          0.2152         estimate D2E/DX2                !
 ! D143  D(49,48,51,52)         -0.1087         estimate D2E/DX2                !
 ! D144  D(49,48,51,60)       -179.9639         estimate D2E/DX2                !
 ! D145  D(48,49,50,42)         -3.5723         estimate D2E/DX2                !
 ! D146  D(48,49,50,56)        174.296          estimate D2E/DX2                !
 ! D147  D(54,49,50,42)        176.5182         estimate D2E/DX2                !
 ! D148  D(54,49,50,56)         -5.6135         estimate D2E/DX2                !
 ! D149  D(48,49,54,53)          0.3245         estimate D2E/DX2                !
 ! D150  D(48,49,54,63)        179.9869         estimate D2E/DX2                !
 ! D151  D(50,49,54,53)       -179.7655         estimate D2E/DX2                !
 ! D152  D(50,49,54,63)         -0.1032         estimate D2E/DX2                !
 ! D153  D(48,51,52,53)          0.2107         estimate D2E/DX2                !
 ! D154  D(48,51,52,61)       -179.8112         estimate D2E/DX2                !
 ! D155  D(60,51,52,53)       -179.9306         estimate D2E/DX2                !
 ! D156  D(60,51,52,61)          0.0475         estimate D2E/DX2                !
 ! D157  D(51,52,53,54)         -0.0435         estimate D2E/DX2                !
 ! D158  D(51,52,53,62)       -179.9947         estimate D2E/DX2                !
 ! D159  D(61,52,53,54)        179.9784         estimate D2E/DX2                !
 ! D160  D(61,52,53,62)          0.0272         estimate D2E/DX2                !
 ! D161  D(52,53,54,49)         -0.2246         estimate D2E/DX2                !
 ! D162  D(52,53,54,63)       -179.8952         estimate D2E/DX2                !
 ! D163  D(62,53,54,49)        179.7266         estimate D2E/DX2                !
 ! D164  D(62,53,54,63)          0.056          estimate D2E/DX2                !
 --------------------------------------------------------------------------------
 Trust Radius=3.00D-01 FncErr=1.00D-07 GrdErr=1.00D-06 EigMax=2.50D+02 EigMin=1.00D-04
 Number of steps in this run=    358 maximum allowed number of steps=    390.
 GradGradGradGradGradGradGradGradGradGradGradGradGradGradGradGradGradGrad

 Leave Link  103 at Fri Dec 22 22:23:19 2023, MaxMem=  4026531840 cpu:               0.3 elap:               0.1
 (Enter /sysapps/ubuntu-applications/gaussian/Gaussian/AVX2/g16/l202.exe)
 Symmetry turned off by external request.
 Stoichiometry    C29H18ClN7O8S2(4-)
 Framework group  C1[X(C29H18ClN7O8S2)]
 Deg. of freedom   189
 Full point group                 C1      NOp   1
                          Input orientation:                          
 ---------------------------------------------------------------------
 Center     Atomic      Atomic             Coordinates (Angstroms)
 Number     Number       Type             X           Y           Z
 ---------------------------------------------------------------------
      1          7           0        3.045740   -1.374500   -3.344670
      2          6           0        2.454920   -0.115980   -2.980270
      3          6           0        1.808530    0.121140   -1.745930
      4          6           0        2.569380    0.943600   -3.887230
      5          6           0        1.239700    1.384910   -1.435090
      6          6           0        2.039080    2.192280   -3.599350
      7          6           0        1.373360    2.427850   -2.394900
      8         16           0        0.710140    4.090930   -2.146120
      9          8           0       -0.750000    4.169710   -1.674350
     10          8           0        1.473240    4.953790   -1.130190
     11          8           0        0.704180    4.968210   -3.407470
     12          7           0        0.536280    1.649930   -0.203840
     13          6           0        0.066480    0.724680    0.779730
     14          7           0        0.330880   -0.604240    0.721840
     15          6           0       -0.163050   -1.444730    1.664030
     16          7           0       -0.944060   -0.961460    2.661130
     17          6           0       -1.233570    0.364170    2.726990
     18          7           0       -0.718660    1.193520    1.786010
     19         17           0        0.195840   -3.155240    1.587000
     20          7           0       -2.091100    0.830910    3.770380
     21          6           0       -2.597450    2.159460    3.987460
     22          6           0       -2.285750    3.277640    3.176880
     23          6           0       -3.471220    2.356990    5.076310
     24          6           0       -2.832690    4.534120    3.457310
     25          6           0       -4.017140    3.616170    5.350720
     26          6           0       -3.694890    4.704580    4.538980
     27         16           0       -5.128790    3.829400    6.741520
     28          8           0       -6.078840    2.649520    6.995780
     29          8           0       -4.446300    4.042570    8.100510
     30          8           0       -6.085450    5.026030    6.628690
     31          1           0        3.633460   -1.343590   -4.185020
     32          1           0        1.785720   -0.674490   -1.037840
     33          1           0        3.074320    0.800960   -4.834770
     34          1           0        2.146190    2.983350   -4.330300
     35          1           0        0.248550    2.618440   -0.019220
     36          1           0       -2.408420    0.104230    4.430840
     37          1           0       -1.634390    3.230290    2.326680
     38          1           0       -3.733160    1.523040    5.715960
     39          1           0       -2.586850    5.381340    2.829590
     40          1           0       -4.111360    5.682860    4.742770
     41          6           0        2.801300   -2.670720   -2.768440
     42          6           0        3.771720   -3.732360   -2.841990
     43          6           0        1.551770   -2.940870   -2.198100
     44          6           0        1.245060   -4.184600   -1.687480
     45          6           0        3.444010   -5.034070   -2.328600
     46          6           0        2.153820   -5.240100   -1.731960
     47          6           0        4.469100   -6.135390   -2.450600
     48          6           0        5.777540   -5.903220   -3.103220
     49          6           0        6.107830   -4.627350   -3.574460
     50          6           0        5.147470   -3.513460   -3.425000
     51          6           0        6.703070   -6.957890   -3.253640
     52          6           0        7.937160   -6.738180   -3.867700
     53          6           0        8.265820   -5.467700   -4.334440
     54          6           0        7.360460   -4.416150   -4.188380
     55          8           0        4.242390   -7.258370   -2.036620
     56          8           0        5.523820   -2.400680   -3.754490
     57          7           0        1.704170   -6.474850   -1.172510
     58          1           0        0.768990   -2.198700   -2.170030
     59          1           0        0.260790   -4.333110   -1.259530
     60          1           0        6.473680   -7.954860   -2.899000
     61          1           0        8.639270   -7.554170   -3.981240
     62          1           0        9.222680   -5.296600   -4.810840
     63          1           0        7.639940   -3.438730   -4.561460
     64          1           0        2.252270   -7.334970   -1.115710
     65          1           0        0.758720   -6.538720   -0.766230
 ---------------------------------------------------------------------
 Rotational constants (GHZ):           0.0974678           0.0210679           0.0178524
 Leave Link  202 at Fri Dec 22 22:23:20 2023, MaxMem=  4026531840 cpu:               0.5 elap:               0.1
 (Enter /sysapps/ubuntu-applications/gaussian/Gaussian/AVX2/g16/l301.exe)
 Standard basis: 6-311++G(d,p) (5D, 7F)
 Ernie: Thresh=  0.10000D-02 Tol=  0.10000D-05 Strict=F.
  1184 basis functions,  1899 primitive gaussians,  1231 cartesian basis functions
   179 alpha electrons      179 beta electrons
       nuclear repulsion energy      5902.9953478756 Hartrees.
 IExCor=  402 DFT=T Ex+Corr=B3LYP ExCW=0 ScaHFX=  0.200000
 ScaDFX=  0.800000  0.720000  1.000000  0.810000 ScalE2=  1.000000  1.000000
 IRadAn=      5 IRanWt=     -1 IRanGd=            0 ICorTp=0 IEmpDi=  4
 NAtoms=   65 NActive=   65 NUniq=   65 SFac= 1.00D+00 NAtFMM=   60 NAOKFM=T Big=T
 Integral buffers will be    131072 words long.
 Raffenetti 2 integral format.
 Two-electron integral symmetry is turned off.
 Leave Link  301 at Fri Dec 22 22:23:20 2023, MaxMem=  4026531840 cpu:               0.6 elap:               0.1
 (Enter /sysapps/ubuntu-applications/gaussian/Gaussian/AVX2/g16/l302.exe)
 NPDir=0 NMtPBC=     1 NCelOv=     1 NCel=       1 NClECP=     1 NCelD=      1
         NCelK=      1 NCelE2=     1 NClLst=     1 CellRange=     0.0.
 One-electron integrals computed using PRISM.
 NBasis=  1184 RedAO= T EigKep=  1.09D-06  NBF=  1184
 NBsUse=  1169 1.00D-06 EigRej=  9.34D-07 NBFU=  1169
 Precomputing XC quadrature grid using
 IXCGrd= 4 IRadAn=           5 IRanWt=          -1 IRanGd=           0 AccXCQ= 0.00D+00.
 Generated NRdTot=       0 NPtTot=           0 NUsed=           0 NTot=          32
 NSgBfM=  1077  1077  1077  1077  1077 MxSgAt=    65 MxSgA2=    65.
 Leave Link  302 at Fri Dec 22 22:23:22 2023, MaxMem=  4026531840 cpu:              19.6 elap:               2.5
 (Enter /sysapps/ubuntu-applications/gaussian/Gaussian/AVX2/g16/l303.exe)
 DipDrv:  MaxL=1.
 Leave Link  303 at Fri Dec 22 22:23:23 2023, MaxMem=  4026531840 cpu:               2.1 elap:               0.4
 (Enter /sysapps/ubuntu-applications/gaussian/Gaussian/AVX2/g16/l401.exe)
 ExpMin= 3.60D-02 ExpMax= 1.06D+05 ExpMxC= 3.62D+03 IAcc=3 IRadAn=         5 AccDes= 0.00D+00
 Harris functional with IExCor=  402 and IRadAn=       5 diagonalized for initial guess.
 HarFok:  IExCor=  402 AccDes= 0.00D+00 IRadAn=         5 IDoV= 1 UseB2=F ITyADJ=14
 ICtDFT=  3500011 ScaDFX=  1.000000  1.000000  1.000000  1.000000
 FoFCou: FMM=F IPFlag=           0 FMFlag=      100000 FMFlg1=        2001
         NFxFlg=           0 DoJE=T BraDBF=F KetDBF=T FulRan=T
         wScrn=  0.000000 ICntrl=       500 IOpCl=  0 I1Cent=   200000004 NGrid=           0
         NMat0=    1 NMatS0=      1 NMatT0=    0 NMatD0=    1 NMtDS0=    0 NMtDT0=    0
 Symmetry not used in FoFCou.
 Harris En= -3358.96172133621    
 JPrj=0 DoOrth=F DoCkMO=F.
 Initial guess <Sx>= 0.0000 <Sy>= 0.0000 <Sz>= 0.0000 <S**2>=-0.0000 S=-0.0000
 Leave Link  401 at Fri Dec 22 22:23:35 2023, MaxMem=  4026531840 cpu:              91.4 elap:              12.1
 (Enter /sysapps/ubuntu-applications/gaussian/Gaussian/AVX2/g16/l502.exe)
 Two-electron integral symmetry not used.
 UHF open shell SCF:
 Using DIIS extrapolation, IDIIS=  1040.
 NGot=  4026531840 LenX=  4023482928 LenY=  4021966336
 Requested convergence on RMS density matrix=1.00D-08 within 128 cycles.
 Requested convergence on MAX density matrix=1.00D-06.
 Requested convergence on             energy=1.00D-06.
 No special actions if energy rises.
 Fock matrices will be formed incrementally for  20 cycles.

 Cycle   1  Pass 1  IDiag  1:
 FoFJK:  IHMeth= 1 ICntrl=       0 DoSepK=F KAlg= 0 I1Cent=           0 FoldK=F
 IRaf= 680000000 NMat=       1 IRICut=       1 DoRegI=T DoRafI=F ISym2E= 0 IDoP0=0 IntGTp=1.
 FoFCou: FMM=T IPFlag=           0 FMFlag=      100000 FMFlg1=        2001
         NFxFlg=           0 DoJE=F BraDBF=F KetDBF=F FulRan=T
         wScrn=  0.000000 ICntrl=         0 IOpCl=  1 I1Cent=           0 NGrid=           0
         NMat0=    1 NMatS0=      1 NMatT0=    0 NMatD0=    1 NMtDS0=    0 NMtDT0=    0
 Symmetry not used in FoFCou.
 FMM levels:  10  Number of levels for PrismC:   9
 E= -3356.03041679843    
 DIIS: error= 6.22D-02 at cycle   1 NSaved=   1.
 NSaved= 1 IEnMin= 1 EnMin= -3356.03041679843     IErMin= 1 ErrMin= 6.22D-02
 ErrMax= 6.22D-02  0.00D+00 EMaxC= 1.00D-01 BMatC= 9.86D+00 BMatP= 9.86D+00
 IDIUse=3 WtCom= 3.78D-01 WtEn= 6.22D-01
 Coeff-Com:  0.100D+01
 Coeff-En:   0.100D+01
 Coeff:      0.100D+01
 Gap=     0.038 Goal=   None    Shift=    0.000
 Gap=     0.038 Goal=   None    Shift=    0.000
 GapD=    0.038 DampG=0.250 DampE=0.500 DampFc=0.2500 IDamp=-1.
 Damping current iteration by 2.50D-01
 RMSDP=1.71D+00 MaxDP=2.65D+02              OVMax= 9.95D-01

 Cycle   2  Pass 1  IDiag  1:
 RMSU=  3.97D-01    CP:  3.00D+00
 E= -3355.88459059891     Delta-E=        0.145826199521 Rises=F Damp=T
 DIIS: error= 1.56D-02 at cycle   2 NSaved=   2.
 NSaved= 2 IEnMin= 1 EnMin= -3356.03041679843     IErMin= 2 ErrMin= 1.56D-02
 ErrMax= 1.56D-02  0.00D+00 EMaxC= 1.00D-01 BMatC= 1.69D+00 BMatP= 9.86D+00
 IDIUse=3 WtCom= 8.44D-01 WtEn= 1.56D-01
 Coeff-Com: -0.108D+00 0.111D+01
 Coeff-En:   0.542D+00 0.458D+00
 Coeff:     -0.617D-02 0.101D+01
 Gap=     0.109 Goal=   None    Shift=    0.000
 Gap=     0.109 Goal=   None    Shift=    0.000
 RMSDP=5.47D-01 MaxDP=5.18D+01 DE= 1.46D-01 OVMax= 9.75D-01

 Cycle   3  Pass 1  IDiag  1:
 RMSU=  4.28D-01    CP:  3.00D+00  1.41D-01
 E= -3340.35090198129     Delta-E=       15.533688617623 Rises=F Damp=F
 DIIS: error= 7.84D-02 at cycle   3 NSaved=   3.
 NSaved= 3 IEnMin= 1 EnMin= -3356.03041679843     IErMin= 2 ErrMin= 1.56D-02
 ErrMax= 7.84D-02  0.00D+00 EMaxC= 1.00D-01 BMatC= 2.63D+01 BMatP= 1.69D+00
 IDIUse=2 WtCom= 0.00D+00 WtEn= 1.00D+00
 EnCoef did     9 forward-backward iterations
 Coeff-En:   0.497D+00 0.481D+00 0.228D-01
 Coeff:      0.497D+00 0.481D+00 0.228D-01
 Gap=     0.160 Goal=   None    Shift=    0.000
 Gap=     0.160 Goal=   None    Shift=    0.000
 RMSDP=4.87D-01 MaxDP=6.86D+01 DE= 1.55D+01 OVMax= 9.62D-01

 Cycle   4  Pass 1  IDiag  1:
 RMSU=  3.36D-01    CP:  3.00D+00  1.10D-01  1.76D-01
 E= -3356.28798763053     Delta-E=      -15.937085649242 Rises=F Damp=F
 DIIS: error= 5.57D-02 at cycle   4 NSaved=   4.
 NSaved= 4 IEnMin= 4 EnMin= -3356.28798763053     IErMin= 2 ErrMin= 1.56D-02
 ErrMax= 5.57D-02  0.00D+00 EMaxC= 1.00D-01 BMatC= 7.81D+00 BMatP= 1.69D+00
 IDIUse=2 WtCom= 0.00D+00 WtEn= 1.00D+00
 EnCoef did   100 forward-backward iterations
 Coeff-En:   0.467D+00 0.759D-02 0.000D+00 0.525D+00
 Coeff:      0.467D+00 0.759D-02 0.000D+00 0.525D+00
 Gap=    -0.016 Goal=   None    Shift=    0.000
 Gap=    -0.016 Goal=   None    Shift=    0.000
 RMSDP=3.60D-01 MaxDP=5.36D+01 DE=-1.59D+01 OVMax= 7.59D-01

 Cycle   5  Pass 1  IDiag  1:
 RMSU=  2.34D-02    CP:  1.62D+00  6.31D-04 -1.75D-02  5.21D-03
 E= -3356.97901845628     Delta-E=       -0.691030825743 Rises=F Damp=F
 DIIS: error= 3.23D-02 at cycle   5 NSaved=   5.
 NSaved= 5 IEnMin= 5 EnMin= -3356.97901845628     IErMin= 2 ErrMin= 1.56D-02
 ErrMax= 3.23D-02  0.00D+00 EMaxC= 1.00D-01 BMatC= 2.30D+00 BMatP= 1.69D+00
 IDIUse=2 WtCom= 0.00D+00 WtEn= 1.00D+00
 EnCoef did   100 forward-backward iterations
 Coeff-En:   0.246D+00 0.000D+00 0.346D-02 0.334D+00 0.416D+00
 Coeff:      0.246D+00 0.000D+00 0.346D-02 0.334D+00 0.416D+00
 Gap=     0.118 Goal=   None    Shift=    0.000
 Gap=     0.118 Goal=   None    Shift=    0.000
 RMSDP=1.68D-02 MaxDP=1.83D+00 DE=-6.91D-01 OVMax= 9.32D-01

 Cycle   6  Pass 1  IDiag  1:
 RMSU=  1.54D-02    CP:  1.55D+00  2.13D-04 -8.62D-03  7.30D-03  8.25D-01
 E= -3357.48780060178     Delta-E=       -0.508782145507 Rises=F Damp=F
 DIIS: error= 1.67D-02 at cycle   6 NSaved=   6.
 NSaved= 6 IEnMin= 6 EnMin= -3357.48780060178     IErMin= 2 ErrMin= 1.56D-02
 ErrMax= 1.67D-02  0.00D+00 EMaxC= 1.00D-01 BMatC= 1.39D+00 BMatP= 1.69D+00
 IDIUse=3 WtCom= 8.33D-01 WtEn= 1.67D-01
 Coeff-Com:  0.814D-01 0.529D-01-0.534D-02 0.164D+00 0.319D+00 0.388D+00
 Coeff-En:   0.000D+00 0.000D+00 0.000D+00 0.000D+00 0.381D+00 0.619D+00
 Coeff:      0.678D-01 0.441D-01-0.445D-02 0.137D+00 0.329D+00 0.427D+00
 Gap=     0.164 Goal=   None    Shift=    0.000
 Gap=     0.164 Goal=   None    Shift=    0.000
 RMSDP=9.00D-03 MaxDP=7.87D-01 DE=-5.09D-01 OVMax= 1.41D-01

 Cycle   7  Pass 1  IDiag  1:
 RMSU=  7.03D-03    CP:  1.59D+00 -1.17D-03 -8.33D-03  6.83D-03  9.01D-01
                    CP:  6.86D-01
 E= -3357.87172211718     Delta-E=       -0.383921515395 Rises=F Damp=F
 DIIS: error= 5.51D-03 at cycle   7 NSaved=   7.
 NSaved= 7 IEnMin= 7 EnMin= -3357.87172211718     IErMin= 7 ErrMin= 5.51D-03
 ErrMax= 5.51D-03  0.00D+00 EMaxC= 1.00D-01 BMatC= 1.45D-01 BMatP= 1.39D+00
 IDIUse=3 WtCom= 9.45D-01 WtEn= 5.51D-02
 Coeff-Com: -0.316D-01 0.897D-01-0.607D-02 0.227D-01 0.172D+00 0.115D+00
 Coeff-Com:  0.639D+00
 Coeff-En:   0.000D+00 0.000D+00 0.000D+00 0.000D+00 0.153D+00 0.000D+00
 Coeff-En:   0.847D+00
 Coeff:     -0.298D-01 0.848D-01-0.573D-02 0.215D-01 0.171D+00 0.108D+00
 Coeff:      0.650D+00
 Gap=     0.006 Goal=   None    Shift=    0.000
 Gap=     0.006 Goal=   None    Shift=    0.000
 RMSDP=3.49D-03 MaxDP=6.36D-01 DE=-3.84D-01 OVMax= 6.95D-02

 Cycle   8  Pass 1  IDiag  1:
 RMSU=  3.00D-03    CP:  1.58D+00 -8.75D-04 -6.50D-03  7.78D-03  8.61D-01
                    CP:  6.17D-01  1.04D+00
 E= -3357.88815813177     Delta-E=       -0.016436014595 Rises=F Damp=F
 DIIS: error= 7.47D-03 at cycle   8 NSaved=   8.
 NSaved= 8 IEnMin= 8 EnMin= -3357.88815813177     IErMin= 7 ErrMin= 5.51D-03
 ErrMax= 7.47D-03  0.00D+00 EMaxC= 1.00D-01 BMatC= 1.22D-01 BMatP= 1.45D-01
 IDIUse=3 WtCom= 9.45D-01 WtEn= 5.51D-02
 EnCoef did     7 forward-backward iterations
 Coeff-Com: -0.777D-01 0.126D+00-0.412D-02-0.343D-01 0.515D-01-0.900D-01
 Coeff-Com:  0.466D+00 0.562D+00
 Coeff-En:   0.000D+00 0.000D+00 0.000D+00 0.000D+00 0.131D+00 0.000D+00
 Coeff-En:   0.305D+00 0.564D+00
 Coeff:     -0.734D-01 0.119D+00-0.389D-02-0.324D-01 0.559D-01-0.850D-01
 Coeff:      0.457D+00 0.562D+00
 Gap=    -0.001 Goal=   None    Shift=    0.000
 Gap=    -0.001 Goal=   None    Shift=    0.000
 RMSDP=3.11D-01 MaxDP=5.17D+01 DE=-1.64D-02 OVMax= 9.87D-01

 Cycle   9  Pass 1  IDiag  1:
 RMSU=  6.88D-02    CP:  2.37D+00  1.20D-01  1.64D-01  8.50D-01 -9.42D-01
                    CP: -1.09D+00 -3.22D-01 -7.40D-01
 E= -3357.74720073779     Delta-E=        0.140957393984 Rises=F Damp=F
 DIIS: error= 8.32D-03 at cycle   9 NSaved=   9.
 NSaved= 9 IEnMin= 8 EnMin= -3357.88815813177     IErMin= 7 ErrMin= 5.51D-03
 ErrMax= 8.32D-03  0.00D+00 EMaxC= 1.00D-01 BMatC= 2.65D-01 BMatP= 1.22D-01
 IDIUse=3 WtCom= 9.45D-01 WtEn= 5.51D-02
 EnCoef did     9 forward-backward iterations
 Coeff-Com: -0.742D-01 0.120D+00-0.324D-02-0.335D-01 0.526D-01-0.794D-01
 Coeff-Com:  0.435D+00 0.543D+00 0.394D-01
 Coeff-En:   0.000D+00 0.000D+00 0.000D+00 0.000D+00 0.871D-01 0.000D+00
 Coeff-En:   0.546D-01 0.651D+00 0.207D+00
 Coeff:     -0.701D-01 0.114D+00-0.306D-02-0.317D-01 0.545D-01-0.750D-01
 Coeff:      0.414D+00 0.549D+00 0.486D-01
 Gap=    -0.008 Goal=   None    Shift=    0.000
 Gap=    -0.008 Goal=   None    Shift=    0.000
 RMSDP=3.10D-01 MaxDP=5.15D+01 DE= 1.41D-01 OVMax= 9.84D-01

 Cycle  10  Pass 1  IDiag  1:
 RMSU=  1.78D-03    CP:  1.61D+00 -6.75D-04 -6.30D-03  1.03D-02  9.03D-01
                    CP:  5.24D-01  1.16D+00  1.07D+00  3.17D-03
 E= -3357.91564362642     Delta-E=       -0.168442888629 Rises=F Damp=F
 DIIS: error= 4.01D-03 at cycle  10 NSaved=  10.
 NSaved=10 IEnMin=10 EnMin= -3357.91564362642     IErMin=10 ErrMin= 4.01D-03
 ErrMax= 4.01D-03  0.00D+00 EMaxC= 1.00D-01 BMatC= 4.18D-02 BMatP= 1.22D-01
 IDIUse=3 WtCom= 9.60D-01 WtEn= 4.01D-02
 EnCoef did     2 forward-backward iterations
 Coeff-Com: -0.676D-01 0.102D+00-0.146D-02-0.333D-01 0.211D-01-0.702D-01
 Coeff-Com:  0.137D+00 0.301D+00 0.725D-01 0.538D+00
 Coeff-En:   0.000D+00 0.000D+00 0.000D+00 0.000D+00 0.439D-01 0.000D+00
 Coeff-En:   0.000D+00 0.000D+00 0.179D+00 0.777D+00
 Coeff:     -0.649D-01 0.983D-01-0.140D-02-0.320D-01 0.220D-01-0.674D-01
 Coeff:      0.131D+00 0.289D+00 0.767D-01 0.548D+00
 Gap=     0.007 Goal=   None    Shift=    0.000
 Gap=     0.007 Goal=   None    Shift=    0.000
 RMSDP=5.42D-03 MaxDP=6.35D-01 DE=-1.68D-01 OVMax= 2.84D-01

 Cycle  11  Pass 1  IDiag  1:
 RMSU=  3.58D-03    CP:  1.64D+00  9.91D-04 -3.39D-03  1.95D-02  8.90D-01
                    CP:  4.83D-01  1.16D+00  1.36D+00  1.32D-02  1.79D+00
 E= -3357.93308818081     Delta-E=       -0.017444554393 Rises=F Damp=F
 DIIS: error= 1.64D-03 at cycle  11 NSaved=  11.
 NSaved=11 IEnMin=11 EnMin= -3357.93308818081     IErMin=11 ErrMin= 1.64D-03
 ErrMax= 1.64D-03  0.00D+00 EMaxC= 1.00D-01 BMatC= 9.91D-03 BMatP= 4.18D-02
 IDIUse=3 WtCom= 9.84D-01 WtEn= 1.64D-02
 Coeff-Com: -0.523D-01 0.738D-01 0.268D-03-0.239D-01 0.120D-01-0.294D-01
 Coeff-Com:  0.667D-01 0.925D-01 0.603D-01 0.331D+00 0.469D+00
 Coeff-En:   0.000D+00 0.000D+00 0.000D+00 0.000D+00 0.000D+00 0.000D+00
 Coeff-En:   0.000D+00 0.000D+00 0.117D+00 0.000D+00 0.883D+00
 Coeff:     -0.515D-01 0.726D-01 0.263D-03-0.235D-01 0.118D-01-0.289D-01
 Coeff:      0.656D-01 0.910D-01 0.612D-01 0.326D+00 0.476D+00
 Gap=     0.009 Goal=   None    Shift=    0.000
 Gap=     0.009 Goal=   None    Shift=    0.000
 RMSDP=2.08D-02 MaxDP=3.09D+00 DE=-1.74D-02 OVMax= 1.63D-01

 Cycle  12  Pass 1  IDiag  1:
 RMSU=  5.61D-03    CP:  1.70D+00  8.62D-03  1.52D-02  6.79D-02  7.76D-01
                    CP:  4.02D-01  1.41D+00  2.07D+00  7.38D-02  3.00D+00
                    CP:  1.95D+00
 E= -3357.93374807424     Delta-E=       -0.000659893427 Rises=F Damp=F
 DIIS: error= 1.90D-03 at cycle  12 NSaved=  12.
 NSaved=12 IEnMin=12 EnMin= -3357.93374807424     IErMin=11 ErrMin= 1.64D-03
 ErrMax= 1.90D-03  0.00D+00 EMaxC= 1.00D-01 BMatC= 9.13D-03 BMatP= 9.91D-03
 IDIUse=3 WtCom= 9.84D-01 WtEn= 1.64D-02
 EnCoef did     9 forward-backward iterations
 Coeff-Com: -0.362D-01 0.522D-01-0.316D-03-0.131D-01 0.541D-02-0.105D-01
 Coeff-Com:  0.266D-01 0.374D-02 0.434D-01 0.927D-01 0.381D+00 0.455D+00
 Coeff-En:   0.000D+00 0.000D+00 0.000D+00 0.000D+00 0.000D+00 0.000D+00
 Coeff-En:   0.000D+00 0.000D+00 0.113D+00 0.000D+00 0.300D+00 0.587D+00
 Coeff:     -0.356D-01 0.513D-01-0.311D-03-0.129D-01 0.532D-02-0.103D-01
 Coeff:      0.262D-01 0.368D-02 0.446D-01 0.912D-01 0.380D+00 0.457D+00
 Gap=     0.002 Goal=   None    Shift=    0.000
 Gap=     0.002 Goal=   None    Shift=    0.000
 RMSDP=1.61D-01 MaxDP=3.58D+01 DE=-6.60D-04 OVMax= 5.39D-01

 Cycle  13  Pass 1  IDiag  1:
 RMSU=  2.52D-02    CP:  2.07D+00  9.39D-02  1.04D-01  4.77D-01  7.89D-05
                    CP: -5.61D-01  1.58D+00  1.44D+00  8.31D-01  3.00D+00
                    CP:  2.88D+00  1.96D+00
 E= -3357.91717221612     Delta-E=        0.016575858121 Rises=F Damp=F
 DIIS: error= 3.91D-03 at cycle  13 NSaved=  13.
 NSaved=13 IEnMin=12 EnMin= -3357.93374807424     IErMin=11 ErrMin= 1.64D-03
 ErrMax= 3.91D-03  0.00D+00 EMaxC= 1.00D-01 BMatC= 5.08D-02 BMatP= 9.13D-03
 IDIUse=3 WtCom= 9.84D-01 WtEn= 1.64D-02
 Coeff-Com: -0.272D-01 0.399D-01-0.518D-03-0.818D-02 0.375D-02-0.109D-02
 Coeff-Com:  0.282D-02-0.291D-01-0.484D-01 0.989D-01 0.324D+00 0.428D+00
 Coeff-Com:  0.217D+00
 Coeff-En:   0.000D+00 0.000D+00 0.000D+00 0.000D+00 0.000D+00 0.000D+00
 Coeff-En:   0.000D+00 0.000D+00 0.000D+00 0.000D+00 0.000D+00 0.670D+00
 Coeff-En:   0.330D+00
 Coeff:     -0.268D-01 0.393D-01-0.510D-03-0.805D-02 0.369D-02-0.107D-02
 Coeff:      0.278D-02-0.287D-01-0.476D-01 0.973D-01 0.319D+00 0.432D+00
 Coeff:      0.219D+00
 Gap=     0.006 Goal=   None    Shift=    0.000
 Gap=     0.006 Goal=   None    Shift=    0.000
 RMSDP=4.05D-02 MaxDP=1.13D+01 DE= 1.66D-02 OVMax= 1.15D-01

 Cycle  14  Pass 1  IDiag  1:
 RMSU=  9.84D-03    CP:  2.13D+00  1.15D-01  1.22D-01  5.64D-01 -1.22D-01
                    CP: -8.77D-01  1.71D+00  4.65D-01  1.07D+00  3.00D+00
                    CP:  1.51D+00  9.23D-01  1.55D+00
 E= -3357.89473026940     Delta-E=        0.022441946716 Rises=F Damp=F
 DIIS: error= 5.16D-03 at cycle  14 NSaved=  14.
 NSaved=14 IEnMin=12 EnMin= -3357.93374807424     IErMin=11 ErrMin= 1.64D-03
 ErrMax= 5.16D-03  0.00D+00 EMaxC= 1.00D-01 BMatC= 8.46D-02 BMatP= 9.13D-03
 IDIUse=3 WtCom= 9.84D-01 WtEn= 1.64D-02
 Rare condition: small coef for last iteration:  0.000D+00
 Coeff-Com: -0.272D-01 0.405D-01-0.495D-03-0.756D-02 0.538D-02 0.331D-02
 Coeff-Com:  0.451D-03-0.312D-01-0.392D-01 0.101D+00 0.299D+00 0.354D+00
 Coeff-Com:  0.730D+00-0.428D+00
 Coeff-En:   0.000D+00 0.000D+00 0.000D+00 0.000D+00 0.000D+00 0.000D+00
 Coeff-En:   0.000D+00 0.000D+00 0.000D+00 0.000D+00 0.000D+00 0.749D+00
 Coeff-En:   0.000D+00 0.251D+00
 Coeff:     -0.272D-01 0.405D-01-0.495D-03-0.756D-02 0.538D-02 0.331D-02
 Coeff:      0.451D-03-0.312D-01-0.392D-01 0.101D+00 0.299D+00 0.354D+00
 Coeff:      0.730D+00-0.428D+00
 Gap=     0.008 Goal=   None    Shift=    0.000
 Gap=     0.008 Goal=   None    Shift=    0.000
 RMSDP=3.44D-02 MaxDP=1.06D+01 DE= 2.24D-02 OVMax= 1.14D-01

 Cycle  15  Pass 1  IDiag  1:
 RMSU=  3.59D-03    CP:  2.17D+00  1.34D-01  1.34D-01  6.25D-01 -2.22D-01
                    CP: -1.11D+00  1.84D+00 -5.63D-01  1.31D+00  3.00D+00
                    CP: -2.66D-01 -1.20D-01  2.12D+00  1.91D+00
 E= -3357.86817546539     Delta-E=        0.026554804010 Rises=F Damp=F
 DIIS: error= 6.08D-03 at cycle  15 NSaved=  15.
 NSaved=15 IEnMin=12 EnMin= -3357.93374807424     IErMin=11 ErrMin= 1.64D-03
 ErrMax= 6.08D-03  0.00D+00 EMaxC= 1.00D-01 BMatC= 1.19D-01 BMatP= 9.13D-03
 IDIUse=3 WtCom= 9.84D-01 WtEn= 1.64D-02
 EnCoef did   100 forward-backward iterations
 Rare condition: small coef for last iteration:  0.000D+00
 Coeff-Com: -0.234D-01 0.346D-01-0.176D-03-0.617D-02 0.402D-02 0.651D-02
 Coeff-Com:  0.219D-01-0.210D-01-0.909D-02-0.387D-02 0.237D+00 0.550D+00
 Coeff-Com: -0.234D+00 0.136D+01-0.915D+00
 Coeff-En:   0.000D+00 0.000D+00 0.000D+00 0.000D+00 0.000D+00 0.000D+00
 Coeff-En:   0.000D+00 0.000D+00 0.000D+00 0.000D+00 0.178D-01 0.784D+00
 Coeff-En:   0.000D+00 0.000D+00 0.198D+00
 Coeff:     -0.234D-01 0.346D-01-0.176D-03-0.617D-02 0.402D-02 0.651D-02
 Coeff:      0.219D-01-0.210D-01-0.909D-02-0.387D-02 0.237D+00 0.550D+00
 Coeff:     -0.234D+00 0.136D+01-0.915D+00
 Gap=     0.009 Goal=   None    Shift=    0.000
 Gap=     0.009 Goal=   None    Shift=    0.000
 RMSDP=3.13D-02 MaxDP=1.06D+01 DE= 2.66D-02 OVMax= 9.22D-02

 Cycle  16  Pass 1  IDiag  1:
 RMSU=  4.42D-03    CP:  2.17D+00  1.59D-01  1.34D-01  6.66D-01 -2.74D-01
                    CP: -1.26D+00  1.89D+00 -1.88D+00  1.56D+00  1.75D+00
                    CP: -1.73D+00 -1.10D+00  2.75D+00  2.11D+00  2.50D+00
 E= -3357.84109653145     Delta-E=        0.027078933943 Rises=F Damp=F
 DIIS: error= 6.42D-03 at cycle  16 NSaved=  16.
 NSaved=16 IEnMin=12 EnMin= -3357.93374807424     IErMin=11 ErrMin= 1.64D-03
 ErrMax= 6.42D-03  0.00D+00 EMaxC= 1.00D-01 BMatC= 1.51D-01 BMatP= 9.13D-03
 IDIUse=3 WtCom= 9.84D-01 WtEn= 1.64D-02
 EnCoef did   100 forward-backward iterations
 Rare condition: small coef for last iteration:  0.304D-16
 Coeff-Com: -0.209D-01 0.308D-01-0.246D-03-0.538D-02 0.164D-02 0.779D-02
 Coeff-Com:  0.200D-01-0.263D-01-0.253D-01-0.581D-02 0.227D+00 0.583D+00
 Coeff-Com: -0.383D+00 0.189D+01-0.173D+01 0.444D+00
 Coeff-En:   0.000D+00 0.000D+00 0.000D+00 0.000D+00 0.000D+00 0.000D+00
 Coeff-En:   0.000D+00 0.000D+00 0.000D+00 0.000D+00 0.371D-01 0.796D+00
 Coeff-En:   0.000D+00 0.000D+00 0.000D+00 0.167D+00
 Coeff:     -0.209D-01 0.308D-01-0.246D-03-0.538D-02 0.164D-02 0.779D-02
 Coeff:      0.200D-01-0.263D-01-0.253D-01-0.581D-02 0.227D+00 0.583D+00
 Coeff:     -0.383D+00 0.189D+01-0.173D+01 0.444D+00
 Gap=     0.009 Goal=   None    Shift=    0.000
 Gap=     0.009 Goal=   None    Shift=    0.000
 RMSDP=7.62D-03 MaxDP=2.21D+00 DE= 2.71D-02 OVMax= 2.14D-02

 Cycle  17  Pass 1  IDiag  1:
 RMSU=  1.17D-03    CP:  2.18D+00  1.51D-01  1.36D-01  6.63D-01 -2.65D-01
                    CP: -1.27D+00  1.87D+00 -1.67D+00  1.51D+00  2.15D+00
                    CP: -1.53D+00 -1.12D+00  2.61D+00  2.43D+00  1.72D+00
                    CP:  7.40D-01
 E= -3357.84629564265     Delta-E=       -0.005199111201 Rises=F Damp=F
 DIIS: error= 6.38D-03 at cycle  17 NSaved=  17.
 NSaved=17 IEnMin=12 EnMin= -3357.93374807424     IErMin=11 ErrMin= 1.64D-03
 ErrMax= 6.38D-03  0.00D+00 EMaxC= 1.00D-01 BMatC= 1.45D-01 BMatP= 9.13D-03
 IDIUse=3 WtCom= 9.84D-01 WtEn= 1.64D-02
 EnCoef did   100 forward-backward iterations
 Coeff-Com: -0.205D-01 0.304D-01-0.304D-03-0.569D-02 0.124D-02 0.670D-02
 Coeff-Com:  0.170D-01-0.269D-01-0.436D-01 0.300D-01 0.245D+00 0.498D+00
 Coeff-Com: -0.253D-01 0.152D+01-0.212D+01 0.104D-01 0.882D+00
 Coeff-En:   0.000D+00 0.000D+00 0.000D+00 0.000D+00 0.000D+00 0.000D+00
 Coeff-En:   0.000D+00 0.000D+00 0.000D+00 0.000D+00 0.732D-02 0.667D+00
 Coeff-En:   0.321D+00 0.723D-03 0.281D-02 0.000D+00 0.171D-02
 Coeff:     -0.202D-01 0.299D-01-0.299D-03-0.559D-02 0.122D-02 0.659D-02
 Coeff:      0.167D-01-0.265D-01-0.429D-01 0.296D-01 0.241D+00 0.500D+00
 Coeff:     -0.196D-01 0.149D+01-0.208D+01 0.103D-01 0.868D+00
 Gap=     0.008 Goal=   None    Shift=    0.000
 Gap=     0.008 Goal=   None    Shift=    0.000
 RMSDP=1.06D-02 MaxDP=3.34D+00 DE=-5.20D-03 OVMax= 3.63D-02

 Cycle  18  Pass 1  IDiag  1:
 RMSU=  9.02D-04    CP:  2.17D+00  1.45D-01  1.34D-01  6.47D-01 -2.40D-01
                    CP: -1.20D+00  1.86D+00 -1.24D+00  1.43D+00  2.85D+00
                    CP: -8.92D-01 -6.89D-01  2.42D+00  2.14D+00  1.43D+00
                    CP:  5.61D-01  1.69D-01
 E= -3357.85740679356     Delta-E=       -0.011111150907 Rises=F Damp=F
 DIIS: error= 6.23D-03 at cycle  18 NSaved=  18.
 NSaved=18 IEnMin=12 EnMin= -3357.93374807424     IErMin=11 ErrMin= 1.64D-03
 ErrMax= 6.23D-03  0.00D+00 EMaxC= 1.00D-01 BMatC= 1.32D-01 BMatP= 9.13D-03
 IDIUse=3 WtCom= 9.84D-01 WtEn= 1.64D-02
 EnCoef did   100 forward-backward iterations
 Rare condition: small coef for last iteration: -0.142D-15
 Coeff-Com: -0.205D-01 0.304D-01-0.303D-03-0.571D-02 0.129D-02 0.662D-02
 Coeff-Com:  0.169D-01-0.268D-01-0.426D-01 0.308D-01 0.246D+00 0.494D+00
 Coeff-Com: -0.134D-01 0.149D+01-0.212D+01-0.120D-01 0.866D+00 0.591D-01
 Coeff-En:   0.000D+00 0.000D+00 0.000D+00 0.000D+00 0.000D+00 0.000D+00
 Coeff-En:   0.000D+00 0.000D+00 0.000D+00 0.000D+00 0.250D-01 0.790D+00
 Coeff-En:   0.000D+00 0.000D+00 0.000D+00 0.000D+00 0.000D+00 0.185D+00
 Coeff:     -0.205D-01 0.304D-01-0.303D-03-0.571D-02 0.129D-02 0.662D-02
 Coeff:      0.169D-01-0.268D-01-0.426D-01 0.308D-01 0.246D+00 0.494D+00
 Coeff:     -0.134D-01 0.149D+01-0.212D+01-0.120D-01 0.866D+00 0.591D-01
 Gap=     0.009 Goal=   None    Shift=    0.000
 Gap=     0.009 Goal=   None    Shift=    0.000
 RMSDP=3.80D-03 MaxDP=1.17D+00 DE=-1.11D-02 OVMax= 1.50D-02

 Cycle  19  Pass 1  IDiag  1:
 RMSU=  1.89D-04    CP:  2.18D+00  1.48D-01  1.35D-01  6.54D-01 -2.55D-01
                    CP: -1.22D+00  1.87D+00 -1.37D+00  1.46D+00  2.62D+00
                    CP: -1.07D+00 -7.78D-01  2.48D+00  2.18D+00  1.58D+00
                    CP:  6.01D-01  1.69D-01  8.43D-01
 E= -3357.85296092664     Delta-E=        0.004445866918 Rises=F Damp=F
 DIIS: error= 6.31D-03 at cycle  19 NSaved=  19.
 NSaved=19 IEnMin=12 EnMin= -3357.93374807424     IErMin=11 ErrMin= 1.64D-03
 ErrMax= 6.31D-03  0.00D+00 EMaxC= 1.00D-01 BMatC= 1.37D-01 BMatP= 9.13D-03
 IDIUse=3 WtCom= 9.84D-01 WtEn= 1.64D-02
 EnCoef did   100 forward-backward iterations
 Rare condition: small coef for last iteration:  0.000D+00
 Coeff-Com: -0.187D-01 0.274D-01-0.213D-03-0.569D-02 0.133D-02 0.876D-02
 Coeff-Com:  0.216D-01-0.197D-01 0.941D-02-0.791D-03 0.190D+00 0.561D+00
 Coeff-Com: -0.133D+00 0.133D+01-0.166D+01 0.363D+00 0.943D+00 0.448D+01
 Coeff-Com: -0.510D+01
 Coeff-En:   0.000D+00 0.000D+00 0.000D+00 0.000D+00 0.000D+00 0.000D+00
 Coeff-En:   0.000D+00 0.000D+00 0.000D+00 0.000D+00 0.300D-01 0.791D+00
 Coeff-En:   0.000D+00 0.000D+00 0.000D+00 0.000D+00 0.000D+00 0.000D+00
 Coeff-En:   0.179D+00
 Coeff:     -0.187D-01 0.274D-01-0.213D-03-0.569D-02 0.133D-02 0.876D-02
 Coeff:      0.216D-01-0.197D-01 0.941D-02-0.791D-03 0.190D+00 0.561D+00
 Coeff:     -0.133D+00 0.133D+01-0.166D+01 0.363D+00 0.943D+00 0.448D+01
 Coeff:     -0.510D+01
 Gap=     0.009 Goal=   None    Shift=    0.000
 Gap=     0.009 Goal=   None    Shift=    0.000
 RMSDP=5.93D-03 MaxDP=9.80D-01 DE= 4.45D-03 OVMax= 3.11D-02

 Cycle  20  Pass 1  IDiag  1:
 RMSU=  3.82D-04    CP:  2.17D+00  1.46D-01  1.32D-01  6.39D-01 -2.19D-01
                    CP: -1.19D+00  1.88D+00 -1.23D+00  1.43D+00  2.90D+00
                    CP: -8.44D-01 -6.85D-01  2.48D+00  2.08D+00  1.54D+00
                    CP:  6.71D-01  3.67D-02  9.77D-01 -2.64D+00
 E= -3357.86192252841     Delta-E=       -0.008961601769 Rises=F Damp=F
 DIIS: error= 6.09D-03 at cycle  20 NSaved=  20.
 NSaved=20 IEnMin=12 EnMin= -3357.93374807424     IErMin=11 ErrMin= 1.64D-03
 ErrMax= 6.09D-03  0.00D+00 EMaxC= 1.00D-01 BMatC= 1.26D-01 BMatP= 9.13D-03
 IDIUse=3 WtCom= 9.84D-01 WtEn= 1.64D-02
 EnCoef did   100 forward-backward iterations
 Coeff-Com: -0.187D-01 0.274D-01-0.240D-03-0.604D-02 0.128D-02 0.855D-02
 Coeff-Com:  0.245D-01-0.150D-01 0.298D-01-0.101D-02 0.181D+00 0.550D+00
 Coeff-Com: -0.244D-01 0.951D+00-0.139D+01 0.409D+00 0.106D+01 0.575D+01
 Coeff-Com: -0.702D+01 0.476D+00
 Coeff-En:   0.000D+00 0.000D+00 0.000D+00 0.000D+00 0.000D+00 0.000D+00
 Coeff-En:   0.000D+00 0.000D+00 0.000D+00 0.000D+00 0.274D-02 0.672D+00
 Coeff-En:   0.317D+00 0.479D-02 0.000D+00 0.000D+00 0.000D+00 0.000D+00
 Coeff-En:   0.000D+00 0.425D-02
 Coeff:     -0.184D-01 0.270D-01-0.236D-03-0.594D-02 0.126D-02 0.841D-02
 Coeff:      0.241D-01-0.148D-01 0.293D-01-0.998D-03 0.178D+00 0.552D+00
 Coeff:     -0.188D-01 0.935D+00-0.136D+01 0.403D+00 0.104D+01 0.566D+01
 Coeff:     -0.691D+01 0.468D+00
 Gap=     0.008 Goal=   None    Shift=    0.000
 Gap=     0.008 Goal=   None    Shift=    0.000
 RMSDP=1.41D-02 MaxDP=4.41D+00 DE=-8.96D-03 OVMax= 4.94D-02

 Cycle  21  Pass 1  IDiag  1:
 Restarting incremental Fock formation.
 E= -3357.87618915351     Delta-E=       -0.014266625101 Rises=F Damp=F
 DIIS: error= 5.73D-03 at cycle  21 NSaved=  20.
 NSaved=20 IEnMin=11 EnMin= -3357.93374807424     IErMin=10 ErrMin= 1.64D-03
 ErrMax= 5.73D-03  0.00D+00 EMaxC= 1.00D-01 BMatC= 1.07D-01 BMatP= 9.13D-03
 IDIUse=3 WtCom= 9.84D-01 WtEn= 1.64D-02
 EnCoef did   100 forward-backward iterations
 Rare condition: small coef for last iteration:  0.430D-15
 Coeff-Com: -0.189D-01 0.283D-01-0.576D-02 0.170D-02 0.564D-02 0.243D-01
 Coeff-Com: -0.118D-01 0.483D-01 0.149D-01 0.205D+00 0.457D+00 0.257D-01
 Coeff-Com:  0.255D+00-0.126D+01 0.518D+00 0.851D+00-0.117D+01-0.695D+00
 Coeff-Com: -0.192D+01 0.365D+01
 Coeff-En:   0.000D+00 0.000D+00 0.000D+00 0.000D+00 0.000D+00 0.000D+00
 Coeff-En:   0.000D+00 0.000D+00 0.000D+00 0.173D-02 0.783D+00 0.000D+00
 Coeff-En:   0.000D+00 0.000D+00 0.000D+00 0.000D+00 0.000D+00 0.000D+00
 Coeff-En:   0.000D+00 0.215D+00
 Coeff:     -0.189D-01 0.283D-01-0.576D-02 0.170D-02 0.564D-02 0.243D-01
 Coeff:     -0.118D-01 0.483D-01 0.149D-01 0.205D+00 0.457D+00 0.257D-01
 Coeff:      0.255D+00-0.126D+01 0.518D+00 0.851D+00-0.117D+01-0.695D+00
 Coeff:     -0.192D+01 0.365D+01
 Gap=     0.008 Goal=   None    Shift=    0.000
 Gap=     0.008 Goal=   None    Shift=    0.000
 RMSDP=3.43D-02 MaxDP=1.04D+01 DE=-1.43D-02 OVMax= 1.11D-01

 Cycle  22  Pass 1  IDiag  1:
 RMSU=  1.68D-02    CP:  8.90D-01
 E= -3357.90535064960     Delta-E=       -0.029161496088 Rises=F Damp=F
 DIIS: error= 4.60D-03 at cycle  22 NSaved=  20.
 NSaved=20 IEnMin=10 EnMin= -3357.93374807424     IErMin= 9 ErrMin= 1.64D-03
 ErrMax= 4.60D-03  0.00D+00 EMaxC= 1.00D-01 BMatC= 6.39D-02 BMatP= 9.13D-03
 IDIUse=3 WtCom= 9.84D-01 WtEn= 1.64D-02
 Large coefficients: NSaved= 20 BigCof=   10.78 CofMax=   10.00 Det=-1.65D-07
 Inversion failed.  Reducing to 19 matrices.
 Large coefficients: NSaved= 19 BigCof=   10.55 CofMax=   10.00 Det=-1.68D-07
 Inversion failed.  Reducing to 18 matrices.
 EnCoef did   100 forward-backward iterations
 Coeff-Com: -0.361D-02 0.165D-02-0.104D-01-0.198D-01 0.133D+00-0.421D-01
 Coeff-Com:  0.108D+00 0.556D+00-0.152D+01 0.188D+01-0.274D+01 0.182D+01
 Coeff-Com:  0.118D+01 0.528D-02-0.246D+01-0.429D+01 0.485D+01 0.156D+01
 Coeff-En:   0.000D+00 0.000D+00 0.000D+00 0.000D+00 0.000D+00 0.000D+00
 Coeff-En:   0.000D+00 0.671D+00 0.322D+00 0.000D+00 0.000D+00 0.000D+00
 Coeff-En:   0.000D+00 0.000D+00 0.000D+00 0.000D+00 0.000D+00 0.676D-02
 Coeff:     -0.355D-02 0.162D-02-0.102D-01-0.195D-01 0.131D+00-0.414D-01
 Coeff:      0.106D+00 0.558D+00-0.149D+01 0.185D+01-0.270D+01 0.179D+01
 Coeff:      0.116D+01 0.519D-02-0.242D+01-0.422D+01 0.477D+01 0.153D+01
 Gap=     0.009 Goal=   None    Shift=    0.000
 Gap=     0.009 Goal=   None    Shift=    0.000
 RMSDP=8.24D-02 MaxDP=2.20D+01 DE=-2.92D-02 OVMax= 2.81D-01

 Cycle  23  Pass 1  IDiag  1:
 RMSU=  1.76D-02    CP:  6.08D-01  2.51D+00
 E= -3357.93760795395     Delta-E=       -0.032257304350 Rises=F Damp=F
 DIIS: error= 2.27D-03 at cycle  23 NSaved=  19.
 NSaved=19 IEnMin=19 EnMin= -3357.93760795395     IErMin= 7 ErrMin= 1.64D-03
 ErrMax= 2.27D-03  0.00D+00 EMaxC= 1.00D-01 BMatC= 1.53D-02 BMatP= 9.13D-03
 IDIUse=3 WtCom= 9.84D-01 WtEn= 1.64D-02
 Coeff-Com: -0.359D-02 0.495D-02-0.119D-01-0.307D-01-0.468D-02 0.119D-02
[...]
 004165,-0.00001424,0.00000116,-0.00000344,0.00000134,0.00001180,0.0000
 2641,-0.00000251,-0.00000311,0.00000808,0.00000037,-0.00001797,0.00000
 509,0.00001524,0.00000482,0.00000393,-0.00000351,0.00000206,-0.0000046
 8,-0.00001046,0.00001250,-0.00000947,0.00000198,0.00008450,-0.00003044
 ,-0.00018934,-0.00000895,0.00000672,0.00000367,-0.00000390,-0.00000139
 ,-0.00000147,-0.00000145,-0.00000328,0.00000075,-0.00000192,0.00000937
 ,-0.00000417,0.00000216,0.00000322,0.00000360,-0.00000172,0.00000326,0
 .00000045,-0.00000138,-0.00000039,-0.00000039,0.,-0.00000117,0.0000001
 1,0.00000084,-0.00000123,-0.00000106,0.00017765,-0.00003310,-0.0003393
 1,-0.00054637,-0.00002822,0.00071358,-0.00013227,-0.00025619,0.0002752
 8,-0.00005302,0.00034900,0.00003850,-0.00019102,0.00027432,0.00034540,
 0.00011152,-0.00021874,-0.00024920,-0.00007876,-0.00076268,-0.00014103
 ,-0.00003327,0.00155924,0.00040499,-0.00187767,-0.00503889,0.00362875,
 0.00079909,-0.00149070,-0.00091477,-0.00011466,0.00081901,0.00008083,0
 .00245675,-0.00030103,-0.00327090,-0.00393577,-0.01565496,0.00715215,-
 0.02930980,-0.30751582,0.07196602,-0.00001025,0.00037551,0.00008409,0.
 00141539,-0.00122975,-0.00212807,0.00006286,0.00010068,0.00000042,-0.0
 0000606,-0.00000980,0.00001116,0.00001274,0.00000968,-0.00000250,-0.00
 010257,-0.00014688,-0.00002151,-0.00006422,-0.00046552,0.00063441,0.00
 004693,0.00091091,-0.00059412,0.03139527,0.32895763,-0.00037233,-0.000
 07278,0.00058002,-0.00004736,-0.00002590,0.00012766,0.00000329,0.00002
 670,-0.00003692,0.00002767,-0.00003416,-0.00002179,-0.00000302,0.00002
 143,-0.00000025,-0.00002344,0.00000714,0.00001686,0.00000988,-0.000030
 89,0.00000257,0.00001701,0.00002020,-0.00000415,-0.00001523,-0.0000038
 4,0.00000092,-0.00000855,-0.00000775,-0.00000451,-0.00001175,-0.000003
 34,0.00000705,-0.00001862,-0.00000965,0.00002957,0.00001820,0.00003206
 ,-0.00003403,-0.00000237,-0.00003146,0.00001810,-0.00000852,0.00003608
 ,-0.00001836,0.00000372,-0.00001512,0.00000740,0.00000102,0.00000744,-
 0.00001439,-0.00001322,-0.00000331,0.00001884,0.00000531,-0.00001545,0
 .00000481,-0.00000176,-0.00000050,0.00000280,0.00000839,0.00000460,0.0
 0000706,-0.00000092,-0.00000062,-0.00000361,-0.00001116,-0.00002293,-0
 .00000568,0.00000240,-0.00000525,0.00000056,0.00000623,0.00001519,-0.0
 0000162,-0.00000601,0.00000712,0.00000167,0.00000445,0.00000011,-0.000
 00032,-0.00000205,0.00000089,0.00000205,-0.00000245,0.00000042,-0.0000
 0113,-0.00000140,-0.00000373,0.00000141,0.00048316,-0.00048626,-0.0007
 9937,-0.00000458,0.00000293,0.00000546,-0.00000681,-0.00001811,0.00000
 572,0.00000445,-0.00000329,0.00000278,-0.00000241,0.00000413,-0.000001
 74,0.00000279,0.00000283,0.00000096,0.00000112,0.00000012,0.00000026,0
 .,-0.00000038,-0.00000072,0.00000058,-0.00000022,-0.00000040,0.0000000
 8,0.00000019,-0.00000074,0.00033666,0.00015181,-0.00046539,-0.00076793
 ,-0.00052955,0.00111245,-0.00016204,-0.00019502,0.00032364,0.00006962,
 0.00019156,-0.00021327,0.,0.00042962,0.00000091,0.00001682,-0.00002015
 ,0.00005502,-0.00033209,0.00149710,-0.00002576,0.00493343,-0.00055542,
 -0.00196266,0.00294307,0.02627563,-0.00294630,-0.00038188,0.00381501,-
 0.00233850,0.00007605,-0.00051400,-0.00124551,0.00498243,-0.00217087,0
 .00145509,-0.00148366,-0.01728175,0.00690588,0.01641006,0.07004329,-0.
 06871681,0.00033489,0.00002856,-0.00050552,-0.00180016,-0.00251908,0.0
 0217074,-0.00002198,-0.00012688,-0.00001099,-0.00000260,-0.00000749,-0
 .00000727,0.00001337,-0.00000203,0.00000617,-0.00046815,0.00005830,-0.
 00019889,0.00004797,-0.00075831,0.00034238,-0.00309046,0.00041056,-0.0
 0064054,-0.02164021,-0.07763611,0.06691664,-0.00020774,-0.00083986,0.0
 0023322,-0.00023829,0.00060033,0.00024601,0.00019498,-0.00016884,-0.00
 017321,-0.00000729,-0.00023510,0.00003611,-0.00004082,0.00017871,0.000
 04373,-0.00006673,0.00007566,0.00007194,0.00007179,-0.00022363,-0.0000
 1495,-0.00002756,0.00037973,0.00000149,0.00004319,-0.00010409,-0.00000
 623,-0.00003865,-0.00013610,-0.00007224,-0.00002572,-0.00013742,0.0000
 8636,0.00003276,-0.00004753,-0.00001243,-0.00007496,0.00009769,0.00002
 074,0.00004467,-0.00011730,0.00000660,-0.00017220,0.00023929,-0.000021
 64,0.00014777,-0.00017366,-0.00003154,-0.00016456,0.00012412,0.0000851
 4,0.00008795,-0.00005101,-0.00005928,0.00004525,-0.00012457,0.00004303
 ,0.00013119,-0.00010901,-0.00005928,-0.00005862,0.00009816,-0.00000278
 ,0.00000697,-0.00002583,0.00000640,0.00001369,-0.00003493,-0.00001976,
 -0.00000174,0.00000856,-0.00000498,0.00000441,0.00001584,-0.00000274,0
 .00000917,-0.00000935,-0.00000278,-0.00006466,0.00004823,0.00005323,0.
 00002062,-0.00001176,-0.00001786,0.00001096,-0.00003417,-0.00003632,0.
 00004216,-0.00002224,-0.00000248,0.00017436,-0.00019589,-0.00033722,-0
 .00003177,0.00001300,0.00000474,-0.00000725,-0.00000453,0.00001195,-0.
 00000475,-0.00000914,0.00000597,-0.00000885,0.00005077,-0.00001320,-0.
 00000267,0.00001082,0.00000970,-0.00000628,0.00001270,0.00000051,-0.00
 000410,0.00000021,0.00000591,-0.00000022,-0.00000342,0.00000336,0.0000
 0265,-0.00000308,0.00000019,0.00006573,0.00046171,-0.00002076,-0.00024
 847,0.00034884,-0.00008072,0.00127347,0.00017118,0.00006407,0.00010344
 ,-0.00475293,0.00197361,-0.00109333,0.00200951,0.00244762,0.00546521,-
 0.00384035,-0.01103593,-0.00129915,-0.01893622,0.00573759,0.00293010,0
 .00293592,-0.00416735,0.00017565,-0.00155553,0.00002366,-0.00043110,-0
 .00025999,0.00051960,-0.00075212,0.00087501,0.00101624,0.00049844,0.00
 074456,-0.00083286,-0.00033148,-0.00064901,0.00049266,0.00027969,0.000
 37667,-0.00038914,-0.00309826,0.01217552,-0.01107333,-0.00004742,0.000
 58262,0.00005002,-0.13614391,0.13974699,0.11090477,-0.00003336,-0.0002
 8082,0.00002615,-0.00083603,0.00019389,-0.00013044,-0.00021362,0.00022
 400,0.00032268,0.00004711,0.00001633,-0.00013125,0.00001980,-0.0000543
 8,-0.00001741,0.00008670,-0.00001641,-0.00006724,0.13105230,-0.0000301
 4,0.00058699,-0.00006685,0.00018179,-0.00036973,-0.00020654,-0.0000966
 9,0.00006778,0.00011586,0.00000403,0.00017744,-0.00002132,0.00002102,-
 0.00008457,-0.00001145,0.00007263,-0.00007416,-0.00006801,-0.00007787,
 0.00012283,0.00003462,0.00003402,-0.00021121,-0.00000575,-0.00003852,0
 .00005302,0.00000959,0.00001403,0.00007493,0.00003852,0.00000842,0.000
 07079,-0.00004200,-0.00002083,0.00001916,0.00001559,0.00004832,-0.0000
 4004,-0.00002541,-0.00002419,0.00005413,-0.00001796,0.00009951,-0.0001
 5110,0.00003361,-0.00008836,0.00010148,0.00001631,0.00009682,-0.000071
 33,-0.00004639,-0.00005264,0.00002800,0.00003518,-0.00002711,0.0000731
 9,-0.00003339,-0.00007705,0.00006190,0.00003318,0.00003195,-0.00005605
 ,0.00000203,-0.00000349,0.00001496,-0.00000361,-0.00000794,0.00001683,
 0.00001076,0.00000188,-0.00000597,0.00000137,-0.00000298,-0.00000742,0
 .00000063,-0.00000732,0.00000531,0.00000263,0.00004160,-0.00001723,-0.
 00002858,-0.00001351,0.00000065,0.00001090,-0.00000860,0.00001434,0.00
 001804,-0.00002595,0.00000958,0.00000044,-0.00011806,0.00009457,0.0002
 0494,-0.00001274,0.00000164,0.00000329,0.00000447,0.00000498,-0.000005
 95,0.00000310,0.00000361,-0.00000415,0.00000603,-0.00001992,0.00000438
 ,0.00000310,-0.00000476,-0.00000521,0.00000429,-0.00000655,-0.00000006
 ,0.00000286,-0.00000016,-0.00000262,0.00000048,0.00000197,-0.00000157,
 -0.00000123,0.00000202,-0.00000005,0.00036363,-0.00006912,-0.00032641,
 -0.00033876,-0.00063993,-0.00017234,0.00040755,-0.00131258,-0.00101873
 ,-0.00156933,-0.00254286,0.00382423,0.00014595,0.00043104,-0.00150960,
 0.02054212,-0.03301550,-0.01709303,-0.00357538,0.00654794,0.00449709,-
 0.00063860,-0.00217234,0.00213840,-0.00007486,0.00065186,0.00004391,0.
 00030185,0.00051826,-0.00038142,0.00042686,-0.00034078,-0.00075471,-0.
 00020143,-0.00026465,0.00036108,0.00017115,0.00020326,-0.00019322,-0.0
 0017516,-0.00020317,0.00021200,0.00043898,-0.01511279,-0.00067649,-0.0
 0001292,-0.00051451,-0.00000246,0.11359709,-0.17665025,-0.08445266,-0.
 00014408,-0.00033355,0.00008886,0.00025071,0.00001156,-0.00023142,0.00
 006511,-0.00002177,-0.00010399,-0.00001171,-0.00004939,-0.00000800,-0.
 00002250,0.00000420,0.00001953,-0.00002124,0.00000276,0.00004448,-0.11
 946870,0.21539690,0.00004030,0.00215416,-0.00044795,0.00064365,-0.0014
 7234,-0.00071729,-0.00046608,0.00024630,0.00043920,0.00000890,0.000623
 50,-0.00008905,0.00017458,-0.00028719,-0.00008654,0.00026897,-0.000248
 38,-0.00022464,-0.00028925,0.00045287,0.00013086,0.00013591,-0.0007742
 6,-0.00004721,-0.00015373,0.00018785,0.00004424,0.00005209,0.00026961,
 0.00014592,0.00002734,0.00026524,-0.00014816,-0.00011028,0.00001647,0.
 00013566,0.00020443,-0.00003928,-0.00020171,-0.00010186,0.00005633,0.0
 0010417,0.00027199,-0.00022423,-0.00010297,-0.00025122,0.00021787,0.00
 009999,0.00029980,-0.00015443,-0.00020358,-0.00021623,0.00006402,0.000
 18023,-0.00004484,0.00011690,-0.00003152,-0.00023409,0.00017457,0.0001
 1272,0.00010124,-0.00016076,0.00000781,-0.00001100,0.00004175,-0.00001
 330,-0.00002988,0.00004142,0.00002774,0.00000395,-0.00001804,0.0000063
 7,-0.00000729,-0.00001556,0.00000257,-0.00002104,0.00001877,0.00000735
 ,0.00012252,-0.00005317,-0.00008624,-0.00003953,0.00000318,0.00003342,
 -0.00002532,0.00004443,0.00005391,-0.00007579,0.00002693,0.00000275,-0
 .00038653,0.00037507,0.00068833,0.00001757,-0.00000463,-0.00003269,0.0
 0001699,0.00001586,-0.00001973,0.00001104,0.00001316,-0.00001349,0.000
 01473,-0.00005853,0.00001084,0.00000883,-0.00000876,-0.00001384,0.0000
 1417,-0.00001987,-0.00000087,0.00000800,-0.00000006,-0.00000810,0.0000
 0192,0.00000494,-0.00000449,-0.00000346,0.00000549,-0.00000035,0.00042
 197,-0.00091818,-0.00067595,-0.00071520,-0.00023243,0.00013556,0.00025
 777,-0.00184570,0.00167289,0.00230987,0.00867015,0.00020573,0.00238695
 ,-0.00140255,-0.00455039,-0.01226364,-0.00816006,0.01391207,0.00293269
 ,0.02771473,-0.00935858,-0.00301065,-0.00380974,0.00670636,0.00009297,
 0.00210281,-0.00015177,0.00070306,0.00075046,-0.00084046,0.00106793,-0
 .00118400,-0.00144189,-0.00072222,-0.00101901,0.00119575,0.00049106,0.
 00080371,-0.00061173,-0.00052680,-0.00049134,0.00058606,-0.01009187,-0
 .01783109,0.00890298,0.00000117,-0.00135265,-0.00003456,0.08934645,-0.
 07430766,-0.12495295,-0.00011150,0.00038010,-0.00009272,-0.00014857,-0
 .00026171,-0.00030195,0.00026904,-0.00034567,-0.00049970,-0.00009910,-
 0.00009387,0.00009174,-0.00004413,0.00004681,0.00005122,-0.00007458,0.
 00003713,0.00010430,-0.08619691,0.08840215,0.12130970,0.00007538,0.001
 57404,-0.00002492,0.00047571,-0.00108127,-0.00052243,-0.00028295,0.000
 16506,0.00032467,-0.00000330,0.00047500,-0.00008503,0.00016483,-0.0001
 7073,-0.00013849,0.00021757,-0.00021919,-0.00018378,-0.00026021,0.0002
 9113,0.00014194,0.00019091,-0.00040336,-0.00009518,-0.00015764,0.00005
 824,0.00007144,0.00000259,0.00014258,0.00010456,-0.00001824,0.00011075
 ,-0.00002962,-0.00013723,-0.00014669,0.00026941,0.00016774,0.00028006,
 -0.00038694,-0.00003790,-0.00030479,0.00027377,-0.00003080,0.00036856,
 -0.00031382,-0.00000813,-0.00015479,0.00011022,0.00006844,0.00013267,-
 0.00015793,-0.00015961,-0.00005055,0.00019895,0.00006159,-0.00018744,0
 .00007933,-0.00004620,-0.00000955,0.00003656,0.00000391,-0.00000677,0.
 00000011,0.00000050,-0.00000031,-0.00000408,0.00000076,0.00000828,-0.0
 0000038,0.00000003,-0.00000042,-0.00000143,-0.00000673,-0.00000840,0.0
 0000362,-0.00000421,-0.00000097,0.00000167,0.00002773,0.00003858,-0.00
 001986,-0.00000894,-0.00003028,0.00001282,-0.00000935,-0.00001375,0.00
 000303,-0.00001161,-0.00000848,0.00000206,-0.00011566,0.00017625,0.000
 34869,0.00000628,0.00001144,-0.00001086,0.00000646,0.00000735,-0.00000
 348,0.00000576,-0.00000135,-0.00000645,-0.00000383,0.00004162,-0.00002
 266,0.00000222,0.00001513,0.00000090,0.00000657,0.00000020,-0.00000175
 ,0.00000182,0.00000072,0.00000318,0.00000206,-0.00000232,0.00000208,0.
 00000104,0.00000053,0.00000055,-0.00038451,-0.00017069,0.00019380,-0.0
 0039035,-0.00010583,0.00130653,-0.00083109,-0.00070199,-0.00068790,-0.
 00033517,0.00328602,0.00070441,0.00281759,-0.00226902,-0.00115572,-0.0
 0654212,-0.01400486,0.01195955,-0.00063926,0.00183860,0.00050332,0.000
 39286,-0.00008316,-0.00070964,-0.00007272,-0.00041703,0.00007254,-0.00
 002701,-0.00003897,0.00005988,-0.00026394,0.00019172,0.00033794,0.0001
 7337,0.00012475,-0.00028063,-0.00009457,-0.00020659,0.00015904,0.00006
 636,-0.00002939,-0.00006442,-0.00315657,0.00085945,0.00372708,-0.00002
 226,-0.00052688,0.00004767,-0.00672094,0.02504344,-0.02996903,0.000030
 89,-0.00000598,0.00003273,0.00030336,0.00040435,0.00089060,0.00006800,
 -0.00001163,-0.00007579,0.00000267,0.00001250,-0.00002647,-0.00000646,
 -0.00004164,0.00001622,-0.00000250,-0.00001956,0.00001827,0.00270148,-
 0.01040146,0.01374276,0.01274552,0.00010651,-0.00067388,-0.00001283,-0
 .00016033,0.00039016,0.00019185,0.00005209,-0.00000175,-0.00009676,0.0
 0000180,-0.00015513,0.00002174,-0.00004717,0.00000138,0.00003120,-0.00
 007210,0.00006763,0.00005193,0.00008430,-0.00005547,-0.00005703,-0.000
 02981,0.00011308,0.00002671,0.00003334,-0.00002001,-0.00001755,-0.0000
 0715,-0.00003738,-0.00002875,0.00000047,-0.00003423,0.00001157,0.00002
 919,0.00003357,-0.00007095,-0.00003293,-0.00008483,0.00010603,0.000001
 80,0.00009722,-0.00008139,0.00004500,-0.00015878,0.00009640,-0.0000348
 1,0.00006829,-0.00002342,0.00000390,-0.00004148,0.00003350,0.00002824,
 0.00001887,-0.00004729,-0.00002662,0.00007862,-0.00004184,-0.00000731,
 0.00000995,-0.00000555,-0.00000326,-0.00000825,-0.00000098,-0.00000042
 ,0.00000204,0.00000151,0.00000690,0.00001563,0.00000310,-0.00000060,0.
 00000152,-0.00000111,-0.00000325,-0.00001108,0.00000099,0.00000134,-0.
 00000229,-0.00000086,0.00000026,0.00000615,-0.00000029,-0.00000007,-0.
 00000443,-0.00000032,0.00000003,-0.00000333,-0.00000046,-0.00000028,0.
 00000061,-0.00000116,-0.00001397,0.00001529,-0.00003992,0.00001338,-0.
 00000128,0.00001606,0.00000133,0.00000293,0.00000121,-0.00000149,-0.00
 000118,0.00000143,0.00000321,-0.00000795,0.00000657,0.00000139,-0.0000
 0148,-0.00000072,-0.00000072,-0.00000038,0.00000081,0.00000052,0.00000
 032,0.00000067,-0.00000045,0.00000072,0.00000036,-0.00000003,0.0000002
 1,0.00000051,0.00052777,0.00042979,-0.00037749,-0.00145349,0.00016009,
 0.00094030,-0.00075181,-0.00073947,0.00005617,-0.00175652,0.00181377,0
 .00046828,0.00096213,-0.00508508,0.00042655,-0.00145048,-0.00534917,0.
 03961118,0.00026000,-0.00241310,0.00039053,-0.00008963,0.00035839,-0.0
 0049531,-0.00000942,-0.00008645,-0.00007837,0.00023735,-0.00042624,-0.
 00035412,-0.00000933,0.00006855,0.00000653,0.00003557,0.00005421,-0.00
 000279,-0.00002287,-0.00002564,0.00000499,0.00006039,0.00004025,0.0000
 1010,0.00381888,0.00093656,-0.00330527,-0.00019153,-0.00009075,0.00024
 124,0.01255094,-0.06363738,0.03498096,-0.00004573,0.00003194,-0.000031
 02,0.00135182,-0.00021349,-0.00090015,-0.00000977,0.00004154,0.0000424
 0,0.00000525,0.00000110,-0.00003192,0.00000105,-0.00001371,0.00000353,
 0.00000988,-0.00001450,-0.00002394,-0.01017976,0.00893358,-0.01754961,
 -0.00382294,0.06560557,-0.00018540,0.00022101,-0.00017012,0.00003840,-
 0.00007915,-0.00001089,0.00000878,-0.00000035,0.00000126,0.00000252,0.
 00001255,0.00001058,0.00001568,0.00002189,-0.00002235,-0.00000056,0.00
 000376,0.00001464,-0.00000151,-0.00000864,-0.00000137,0.00000690,-0.00
 002233,-0.00001425,-0.00001351,0.00000984,0.00000287,0.00000073,0.0000
 0465,0.00000904,-0.00000424,0.00001058,0.00000195,-0.00001646,0.000000
 03,0.00002473,0.00003120,0.00001160,-0.00003216,-0.00002067,-0.0000138
 2,0.00001873,0.00003108,0.00001638,-0.00001932,-0.00003338,0.00001195,
 0.00001452,0.00001991,-0.00002109,-0.00002545,-0.00002058,0.00000823,0
 .00002330,0.00000868,-0.00001746,-0.00000251,-0.00001575,0.00001740,0.
 00001377,0.00003248,0.00000334,0.00001342,-0.00000377,0.00000188,-0.00
 000860,-0.00003742,-0.00006684,-0.00001381,0.00000488,-0.00001415,0.00
 000309,0.00001493,0.00004822,-0.00000647,-0.00001347,0.00002094,0.0000
 0750,0.00001481,-0.00000354,-0.00001055,-0.00000677,0.00000271,0.00001
 033,-0.00000616,0.00000640,0.00000265,-0.00000471,-0.00001052,0.000007
 76,-0.00004842,-0.00002526,-0.00002370,0.00001502,-0.00001444,-0.00000
 330,-0.00000336,-0.00000209,-0.00000322,0.00000129,0.00000002,-0.00000
 073,-0.00000092,-0.00000255,-0.00000575,0.00000806,0.00000573,0.000000
 93,0.00000173,-0.00000137,0.00000020,0.00000030,-0.00000106,-0.0000033
 9,0.00000083,-0.00000108,-0.00000139,0.00000052,-0.00000037,-0.0000029
 0,-0.00033696,-0.00034037,0.00115620,0.00085192,-0.00079266,-0.0002770
 8,0.00151913,0.00152557,-0.00030384,-0.00000796,-0.00393870,0.00285916
 ,-0.00171345,0.00158449,0.00196389,-0.00054886,-0.00035232,-0.01015181
 ,-0.00045265,-0.00225363,0.00086419,0.00017506,0.00029161,-0.00086789,
 0.00013403,-0.00038190,-0.00007496,-0.00035003,0.00029431,0.00027978,-
 0.00012679,0.00014429,0.00016087,0.00010719,0.00016934,-0.00019502,-0.
 00003428,-0.00017551,0.00003462,0.00001988,0.00006666,0.00001902,0.003
 18315,0.00047913,-0.00214968,0.00012151,0.00001555,-0.00011015,0.00962
 854,0.04979759,-0.42473550,-0.00010153,-0.00004228,-0.00006654,-0.0016
 0358,0.00055189,-0.00062663,-0.00000946,0.00005238,0.00006437,0.000027
 43,-0.00000980,-0.00001285,0.00000041,-0.00000751,-0.00000537,-0.00000
 041,-0.00000108,-0.00001057,-0.00952076,0.00729773,-0.01110206,-0.0007
 8320,-0.05410780,0.44348880\\-0.00000335,0.00000018,0.00000953,-0.0000
 0230,-0.00000468,0.00000154,0.00000495,-0.00000607,-0.00000195,-0.0000
 0025,0.00000498,-0.00000053,-0.00000155,0.00000459,-0.00000135,0.00000
 374,-0.00000100,-0.00000253,-0.00000222,-0.00000179,0.00000163,-0.0000
 0318,0.00000419,0.00000497,0.00000249,0.00000035,0.00000007,-0.0000004
 3,-0.00000201,-0.00000215,0.00000189,0.00000023,-0.00000227,-0.0000007
 0,-0.00000550,0.00000288,0.00000800,0.00000306,0.00000146,-0.00000255,
 0.00000079,-0.00000287,0.00000228,-0.00000511,0.00000682,0.00000136,-0
 .00000215,-0.00000049,-0.00000137,-0.00000211,-0.00000458,-0.00000786,
 0.00000415,0.00000365,-0.00000184,0.00000263,-0.00000217,0.00000003,0.
 00000532,-0.00000155,0.00000120,-0.00000144,-0.00000202,0.00000187,-0.
 00000350,0.00000353,-0.00000205,0.00000051,0.00000058,0.00000092,-0.00
 000052,-0.00000006,0.00000095,-0.00000185,0.00000030,0.,0.00000117,0.0
 0000070,0.00000537,-0.00000140,-0.00000384,-0.00000230,0.00000146,0.00
 000170,-0.00000292,-0.00000035,0.00000099,-0.00000061,0.00000069,0.000
 00305,0.00000204,-0.00000051,-0.00000164,-0.00000197,0.00000364,-0.000
 00025,-0.00000061,-0.00000067,-0.00000075,-0.00000041,-0.00000008,0.00
 000079,-0.00000122,0.00000194,-0.00000048,0.00000046,0.00000012,0.0000
 0031,0.00000178,-0.00000131,-0.00000246,-0.00000033,0.00000055,-0.0000
 0003,0.00000027,0.00000008,-0.00000009,0.00000020,-0.00000060,-0.00000
 053,0.00000233,0.00000409,-0.00000406,-0.00000012,0.00000156,-0.000000
 15,-0.00000303,0.00000027,0.00000006,0.00000185,-0.00000035,0.00000210
 ,-0.00000060,-0.00000318,0.00000004,-0.00000001,-0.00000471,0.00000047
 ,-0.00000245,-0.00000081,-0.00000273,0.00000003,-0.00000027,0.00000254
 ,-0.00000026,0.00000387,0.00000144,-0.00000323,-0.00000683,-0.00000065
 ,-0.00000053,0.00000001,0.00000024,0.00000062,0.00000008,-0.00000027,-
 0.00000026,0.00000029,-0.00000028,-0.00000007,0.00000029,0.00000012,-0
 .00000143,-0.00000003,0.00000225,0.00000452,0.00000325,-0.00000560,0.0
 0000523,0.00000191,-0.00000407,0.00000086,-0.00000165,0.00000082,-0.00
 000029,0.00000036,0.00000023,-0.00000001,0.00000039,-0.00000050,-0.000
 00030,-0.00000005,-0.00000073,0.00000027,0.00000005,-0.00000043,-0.000
 00004,0.,-0.00000014,0.00000075,0.00000322,0.00000158,-0.00000363,0.00
 000023,-0.00000216\\\@


 "MATHEMATICS IS THE ART OF GIVING THE SAME NAME
 TO DIFFERENT THINGS."
                    - H. POINCARE
 Job cpu time:      12 days 14 hours 39 minutes  3.3 seconds.
 Elapsed time:       1 days 14 hours 41 minutes 41.9 seconds.
 File lengths (MBytes):  RWF=  58044 Int=      0 D2E=      0 Chk=    175 Scr=      1
 Normal termination of Gaussian 16 at Tue Dec 26 03:53:11 2023.
