 Entering Gaussian System, Link 0=g16
 Input=073-an-PCM.com
 Output=073-an-PCM.log
 Initial command:
 /sysapps/ubuntu-applications/gaussian/Gaussian/AVX2/g16/l1.exe "/scratch/selhajj1/4332929/Gau-4191252.inp" -scrdir="/scratch/selhajj1/4332929/"
 Entering Link 1 = /sysapps/ubuntu-applications/gaussian/Gaussian/AVX2/g16/l1.exe PID=   4191261.
  
 Copyright (c) 1988,1990,1992,1993,1995,1998,2003,2009,2016,
            Gaussian, Inc.  All Rights Reserved.
  
 This is part of the Gaussian(R) 16 program.  It is based on
 the Gaussian(R) 09 system (copyright 2009, Gaussian, Inc.),
 the Gaussian(R) 03 system (copyright 2003, Gaussian, Inc.),
 the Gaussian(R) 98 system (copyright 1998, Gaussian, Inc.),
 the Gaussian(R) 94 system (copyright 1995, Gaussian, Inc.),
 the Gaussian 92(TM) system (copyright 1992, Gaussian, Inc.),
 the Gaussian 90(TM) system (copyright 1990, Gaussian, Inc.),
 the Gaussian 88(TM) system (copyright 1988, Gaussian, Inc.),
 the Gaussian 86(TM) system (copyright 1986, Carnegie Mellon
 University), and the Gaussian 82(TM) system (copyright 1983,
 Carnegie Mellon University). Gaussian is a federally registered
 trademark of Gaussian, Inc.
  
 This software contains proprietary and confidential information,
 including trade secrets, belonging to Gaussian, Inc.
  
 This software is provided under written license and may be
 used, copied, transmitted, or stored only in accord with that
 written license.
  
 The following legend is applicable only to US Government
 contracts under FAR:
  
                    RESTRICTED RIGHTS LEGEND
  
 Use, reproduction and disclosure by the US Government is
 subject to restrictions as set forth in subparagraphs (a)
 and (c) of the Commercial Computer Software - Restricted
 Rights clause in FAR 52.227-19.
  
 Gaussian, Inc.
 340 Quinnipiac St., Bldg. 40, Wallingford CT 06492
  
  
 ---------------------------------------------------------------
 Warning -- This program may not be used in any manner that
 competes with the business of Gaussian, Inc. or will provide
 assistance to any competitor of Gaussian, Inc.  The licensee
 of this program is prohibited from giving any competitor of
 Gaussian, Inc. access to this program.  By using this program,
 the user acknowledges that Gaussian, Inc. is engaged in the
 business of creating and licensing software in the field of
 computational chemistry and represents and warrants to the
 licensee that it is not a competitor of Gaussian, Inc. and that
 it will not use this program in any manner prohibited above.
 ---------------------------------------------------------------
  

 Cite this work as:
 Gaussian 16, Revision A.03,
 M. J. Frisch, G. W. Trucks, H. B. Schlegel, G. E. Scuseria, 
 M. A. Robb, J. R. Cheeseman, G. Scalmani, V. Barone, 
 G. A. Petersson, H. Nakatsuji, X. Li, M. Caricato, A. V. Marenich, 
 J. Bloino, B. G. Janesko, R. Gomperts, B. Mennucci, H. P. Hratchian, 
 J. V. Ortiz, A. F. Izmaylov, J. L. Sonnenberg, D. Williams-Young, 
 F. Ding, F. Lipparini, F. Egidi, J. Goings, B. Peng, A. Petrone, 
 T. Henderson, D. Ranasinghe, V. G. Zakrzewski, J. Gao, N. Rega, 
 G. Zheng, W. Liang, M. Hada, M. Ehara, K. Toyota, R. Fukuda, 
 J. Hasegawa, M. Ishida, T. Nakajima, Y. Honda, O. Kitao, H. Nakai, 
 T. Vreven, K. Throssell, J. A. Montgomery, Jr., J. E. Peralta, 
 F. Ogliaro, M. J. Bearpark, J. J. Heyd, E. N. Brothers, K. N. Kudin, 
 V. N. Staroverov, T. A. Keith, R. Kobayashi, J. Normand, 
 K. Raghavachari, A. P. Rendell, J. C. Burant, S. S. Iyengar, 
 J. Tomasi, M. Cossi, J. M. Millam, M. Klene, C. Adamo, R. Cammi, 
 J. W. Ochterski, R. L. Martin, K. Morokuma, O. Farkas, 
 J. B. Foresman, and D. J. Fox, Gaussian, Inc., Wallingford CT, 2016.
 
 ******************************************
 Gaussian 16:  ES64L-G16RevA.03 25-Dec-2016
                24-Jan-2024 
 ******************************************
 %chk=073-an-PCM.chk
 %nproc=8
 Will use up to    8 processors via shared memory.
 %mem=30GB
 ----------------------------------------------------------------
 #P UB3LYP/6-311++G(d,p) SCRF=(PCM,Solvent=n,n-DiMethylFormamide)
 ----------------------------------------------------------------
 1/38=1,172=1/1;
 2/12=2,17=6,18=5,40=1/2;
 3/5=4,6=6,7=1111,11=2,25=1,30=1,70=2201,72=148,74=-5,116=2/1,2,3;
 4//1;
 5/5=2,38=5,53=148/2;
 6/7=2,8=2,9=2,10=2,28=1/1;
 99/5=1,9=1/99;
 Leave Link    1 at Wed Jan 24 22:47:51 2024, MaxMem=  4026531840 cpu:               0.6 elap:               0.1
 (Enter /sysapps/ubuntu-applications/gaussian/Gaussian/AVX2/g16/l101.exe)
 -------
 Reduced
 -------
 Symbolic Z-matrix:
 Charge = -2 Multiplicity = 1
 C                     0.90346   1.1663   -1.45386 
 C                    -0.46467   1.0718   -1.89644 
 C                    -1.38127   0.34315  -1.11694 
 C                    -1.06123  -0.38774   0.08583 
 C                     0.30217  -0.2768    0.53903 
 C                     1.20521   0.49944  -0.20986 
 O                     1.79789   1.80591  -2.11768 
 O                    -1.93894  -1.08627   0.71156 
 S                     2.90685   0.74443   0.33119 
 C                     3.18992   2.55133   0.35852 
 C                     3.69079   3.21693  -0.75968 
 C                     2.93757   3.23346   1.54598 
 C                     3.18628   4.60481   1.62124 
 C                     3.94927   4.58548  -0.67162 
 C                     3.69496   5.28185   0.51107 
 O                     3.90423   0.16362  -0.59206 
 O                     3.04204   0.35918   1.75986 
 H                     3.8449    2.65777  -1.67026 
 H                     2.55989   2.6824    2.39839 
 H                     4.33449   5.11306  -1.53916 
 H                     2.98465   5.14021   2.54426 
 H                     3.88508   6.35029   0.56549 
 S                    -3.12333   0.23984  -1.56718 
 C                    -4.07462   0.75972  -0.09396 
 C                    -4.40401   2.10715   0.02817 
 C                    -4.50076  -0.17243   0.8514 
 C                    -5.27806   0.26209   1.92585 
 C                    -5.17036   2.5354    1.11329 
 C                    -5.61005   1.61094   2.06284 
 H                    -4.06612   2.80161  -0.73108 
 H                    -4.19913  -1.20268   0.73646 
 H                    -5.61013  -0.45613   2.66966 
 H                    -5.4235    3.5866    1.2141 
 H                    -6.20294   1.94235   2.91097 
 O                    -3.56086  -1.13136  -1.90328 
 O                    -3.44844   1.2893   -2.56757 
 C                    -0.75848   1.74729  -3.21505 
 C                     0.63006  -1.07149   1.78095 
 H                     0.20277   2.01803  -3.65515 
 H                    -1.3567    2.65681  -3.09119 
 H                    -1.31964   1.10461  -3.89726 
 H                    -0.22179  -1.72562   1.97443 
 H                     0.78591  -0.4297    2.65515 
 H                     1.54277  -1.66147   1.67011 
 
 ITRead=  0  0  0  0  0  0  0  0  0  0  0  0  0  0  0  0  0  0  0  0
 ITRead=  0  0  0  0  0  0  0  0  0  0  0  0  0  0  0  0  0  0  0  0
 ITRead=  0  0  0  0
 MicOpt= -1 -1 -1 -1 -1 -1 -1 -1 -1 -1 -1 -1 -1 -1 -1 -1 -1 -1 -1 -1
 MicOpt= -1 -1 -1 -1 -1 -1 -1 -1 -1 -1 -1 -1 -1 -1 -1 -1 -1 -1 -1 -1
 MicOpt= -1 -1 -1 -1
 NAtoms=     44 NQM=       44 NQMF=       0 NMMI=      0 NMMIF=      0
                NMic=       0 NMicF=      0.
                    Isotopes and Nuclear Properties:
 (Nuclear quadrupole moments (NQMom) in fm**2, nuclear magnetic moments (NMagM)
  in nuclear magnetons)

  Atom         1           2           3           4           5           6           7           8           9          10
 IAtWgt=          12          12          12          12          12          12          16          16          32          12
 AtmWgt=  12.0000000  12.0000000  12.0000000  12.0000000  12.0000000  12.0000000  15.9949146  15.9949146  31.9720718  12.0000000
 NucSpn=           0           0           0           0           0           0           0           0           0           0
 AtZEff=  -0.0000000  -0.0000000  -0.0000000  -0.0000000  -0.0000000  -0.0000000  -0.0000000  -0.0000000  -0.0000000  -0.0000000
 NQMom=    0.0000000   0.0000000   0.0000000   0.0000000   0.0000000   0.0000000   0.0000000   0.0000000   0.0000000   0.0000000
 NMagM=    0.0000000   0.0000000   0.0000000   0.0000000   0.0000000   0.0000000   0.0000000   0.0000000   0.0000000   0.0000000
 AtZNuc=   6.0000000   6.0000000   6.0000000   6.0000000   6.0000000   6.0000000   8.0000000   8.0000000  16.0000000   6.0000000

  Atom        11          12          13          14          15          16          17          18          19          20
 IAtWgt=          12          12          12          12          12          16          16           1           1           1
 AtmWgt=  12.0000000  12.0000000  12.0000000  12.0000000  12.0000000  15.9949146  15.9949146   1.0078250   1.0078250   1.0078250
 NucSpn=           0           0           0           0           0           0           0           1           1           1
 AtZEff=  -0.0000000  -0.0000000  -0.0000000  -0.0000000  -0.0000000  -0.0000000  -0.0000000  -0.0000000  -0.0000000  -0.0000000
 NQMom=    0.0000000   0.0000000   0.0000000   0.0000000   0.0000000   0.0000000   0.0000000   0.0000000   0.0000000   0.0000000
 NMagM=    0.0000000   0.0000000   0.0000000   0.0000000   0.0000000   0.0000000   0.0000000   2.7928460   2.7928460   2.7928460
 AtZNuc=   6.0000000   6.0000000   6.0000000   6.0000000   6.0000000   8.0000000   8.0000000   1.0000000   1.0000000   1.0000000

  Atom        21          22          23          24          25          26          27          28          29          30
 IAtWgt=           1           1          32          12          12          12          12          12          12           1
 AtmWgt=   1.0078250   1.0078250  31.9720718  12.0000000  12.0000000  12.0000000  12.0000000  12.0000000  12.0000000   1.0078250
 NucSpn=           1           1           0           0           0           0           0           0           0           1
 AtZEff=  -0.0000000  -0.0000000  -0.0000000  -0.0000000  -0.0000000  -0.0000000  -0.0000000  -0.0000000  -0.0000000  -0.0000000
 NQMom=    0.0000000   0.0000000   0.0000000   0.0000000   0.0000000   0.0000000   0.0000000   0.0000000   0.0000000   0.0000000
 NMagM=    2.7928460   2.7928460   0.0000000   0.0000000   0.0000000   0.0000000   0.0000000   0.0000000   0.0000000   2.7928460
 AtZNuc=   1.0000000   1.0000000  16.0000000   6.0000000   6.0000000   6.0000000   6.0000000   6.0000000   6.0000000   1.0000000

  Atom        31          32          33          34          35          36          37          38          39          40
 IAtWgt=           1           1           1           1          16          16          12          12           1           1
 AtmWgt=   1.0078250   1.0078250   1.0078250   1.0078250  15.9949146  15.9949146  12.0000000  12.0000000   1.0078250   1.0078250
 NucSpn=           1           1           1           1           0           0           0           0           1           1
 AtZEff=  -0.0000000  -0.0000000  -0.0000000  -0.0000000  -0.0000000  -0.0000000  -0.0000000  -0.0000000  -0.0000000  -0.0000000
 NQMom=    0.0000000   0.0000000   0.0000000   0.0000000   0.0000000   0.0000000   0.0000000   0.0000000   0.0000000   0.0000000
 NMagM=    2.7928460   2.7928460   2.7928460   2.7928460   0.0000000   0.0000000   0.0000000   0.0000000   2.7928460   2.7928460
 AtZNuc=   1.0000000   1.0000000   1.0000000   1.0000000   8.0000000   8.0000000   6.0000000   6.0000000   1.0000000   1.0000000

  Atom        41          42          43          44
 IAtWgt=           1           1           1           1
 AtmWgt=   1.0078250   1.0078250   1.0078250   1.0078250
 NucSpn=           1           1           1           1
 AtZEff=  -0.0000000  -0.0000000  -0.0000000  -0.0000000
 NQMom=    0.0000000   0.0000000   0.0000000   0.0000000
 NMagM=    2.7928460   2.7928460   2.7928460   2.7928460
 AtZNuc=   1.0000000   1.0000000   1.0000000   1.0000000
 Leave Link  101 at Wed Jan 24 22:47:52 2024, MaxMem=  4026531840 cpu:               1.7 elap:               0.3
 (Enter /sysapps/ubuntu-applications/gaussian/Gaussian/AVX2/g16/l202.exe)
                          Input orientation:                          
 ---------------------------------------------------------------------
 Center     Atomic      Atomic             Coordinates (Angstroms)
 Number     Number       Type             X           Y           Z
 ---------------------------------------------------------------------
      1          6           0        0.903455    1.166296   -1.453864
      2          6           0       -0.464669    1.071804   -1.896438
      3          6           0       -1.381271    0.343150   -1.116935
      4          6           0       -1.061231   -0.387742    0.085832
      5          6           0        0.302166   -0.276797    0.539025
      6          6           0        1.205210    0.499440   -0.209855
      7          8           0        1.797892    1.805911   -2.117682
      8          8           0       -1.938938   -1.086270    0.711557
      9         16           0        2.906848    0.744431    0.331191
     10          6           0        3.189920    2.551329    0.358516
     11          6           0        3.690791    3.216931   -0.759675
     12          6           0        2.937566    3.233455    1.545981
     13          6           0        3.186276    4.604813    1.621236
     14          6           0        3.949271    4.585484   -0.671621
     15          6           0        3.694962    5.281847    0.511067
     16          8           0        3.904230    0.163616   -0.592063
     17          8           0        3.042042    0.359178    1.759863
     18          1           0        3.844897    2.657773   -1.670263
     19          1           0        2.559887    2.682396    2.398387
     20          1           0        4.334492    5.113058   -1.539158
     21          1           0        2.984652    5.140210    2.544259
     22          1           0        3.885084    6.350289    0.565489
     23         16           0       -3.123333    0.239840   -1.567181
     24          6           0       -4.074616    0.759719   -0.093955
     25          6           0       -4.404010    2.107147    0.028166
     26          6           0       -4.500756   -0.172433    0.851402
     27          6           0       -5.278062    0.262090    1.925854
     28          6           0       -5.170358    2.535395    1.113292
     29          6           0       -5.610047    1.610944    2.062842
     30          1           0       -4.066119    2.801608   -0.731081
     31          1           0       -4.199131   -1.202675    0.736457
     32          1           0       -5.610129   -0.456130    2.669657
     33          1           0       -5.423504    3.586597    1.214100
     34          1           0       -6.202938    1.942345    2.910974
     35          8           0       -3.560856   -1.131361   -1.903281
     36          8           0       -3.448437    1.289298   -2.567574
     37          6           0       -0.758478    1.747294   -3.215049
     38          6           0        0.630060   -1.071485    1.780949
     39          1           0        0.202765    2.018034   -3.655153
     40          1           0       -1.356697    2.656809   -3.091187
     41          1           0       -1.319644    1.104614   -3.897261
     42          1           0       -0.221790   -1.725619    1.974433
     43          1           0        0.785908   -0.429702    2.655149
     44          1           0        1.542771   -1.661470    1.670110
 ---------------------------------------------------------------------
                    Distance matrix (angstroms):
                    1          2          3          4          5
     1  C    0.000000
     2  C    1.441029   0.000000
     3  C    2.451747   1.406670   0.000000
     4  C    2.940355   2.532895   1.443356   0.000000
     5  C    2.532918   2.887601   2.441413   1.441022   0.000000
     6  C    1.443368   2.441446   2.745379   2.451791   1.406717
     7  O    1.284437   2.388942   3.639813   4.223999   3.692284
     8  O    4.224015   3.692207   2.386968   1.284462   2.389050
     9  S    2.716243   4.054212   4.543794   4.133723   2.805436
    10  C    3.229700   4.542008   5.286662   5.175401   4.045986
    11  C    3.529340   4.812655   5.840553   6.024140   5.037414
    12  C    4.172508   5.300772   5.839293   5.588871   4.503461
    13  C    5.146932   6.179448   6.820692   6.732339   5.772295
    14  C    4.645400   5.773127   6.827180   7.100130   6.197485
    15  C    5.347076   6.389294   7.266998   7.412586   6.512324
    16  O    3.279134   4.649030   5.314531   5.041760   3.801077
    17  O    3.943734   5.115994   5.276544   4.494120   3.066240
    18  H    3.305059   4.597696   5.742515   6.035654   5.103293
    19  H    4.458942   5.494312   5.776010   5.280734   4.160692
    20  H    5.230317   6.284213   7.456557   7.874847   7.044788
    21  H    6.009023   6.940427   7.448316   7.278138   6.368725
    22  H    6.312027   7.269377   8.163992   8.372405   7.533676
    23  S    4.133544   2.805186   1.802269   2.716353   4.054265
    24  C    5.176471   4.046982   2.911035   3.229470   4.542164
    25  C    5.590241   4.504935   3.682376   4.171567   5.300213
    26  C    6.025939   5.038725   3.724428   3.530267   4.814201
    27  C    7.102903   6.199541   4.944706   4.646464   5.775174
    28  C    6.734681   5.774434   4.912945   5.146390   6.179541
    29  C    7.415567   6.514713   5.440664   5.347433   6.390606
    30  H    5.281413   4.161817   3.660780   4.457427   5.492874
    31  H    6.037045   5.104077   3.710117   3.306637   4.599772
    32  H    7.877974   7.046954   5.732396   5.231950   6.287049
    33  H    7.280542   6.371003   5.682721   6.008143   6.940089
    34  H    8.375851   7.536364   6.483051   6.312518   7.270977
    35  O    5.040960   3.800047   2.746473   3.279888   4.649524
    36  O    4.493823   3.066040   2.696799   3.943574   5.115724
    37  C    2.490252   1.510412   2.600303   3.942823   4.394881
    38  C    3.942895   4.394917   3.800576   2.490259   1.510437
    39  H    2.462133   2.105682   3.428842   4.623896   4.781972
    40  H    3.163976   2.176093   3.041594   4.410220   4.953414
    41  H    3.303962   2.176086   2.883373   4.261330   4.921300
    42  H    4.624129   4.782072   3.896249   2.461989   2.105709
    43  H    4.409650   4.953323   4.418437   3.164660   2.176090
    44  H    4.261948   4.921470   4.509561   3.303505   2.176183
                    6          7          8          9         10
     6  C    0.000000
     7  O    2.387036   0.000000
     8  O    3.639937   5.507559   0.000000
     9  S    1.802311   2.890243   5.194014   0.000000
    10  C    2.910733   2.936826   6.297773   1.829141   0.000000
    11  C    3.723597   2.723642   7.237120   2.813861   1.394363
    12  C    3.682235   4.093796   6.567844   2.769819   1.392498
    13  C    4.912393   4.872471   7.712572   4.079809   2.410658
    14  C    4.943567   3.800730   8.291742   4.104384   2.403244
    15  C    5.439670   4.753033   8.504936   4.608864   2.781019
    16  O    2.746556   3.075924   6.115902   1.478010   2.667398
    17  O    2.696927   4.321609   5.291354   1.485867   2.605987
    18  H    3.709332   2.261876   7.289971   2.923462   2.134542
    19  H    3.661062   4.663019   6.106363   2.854714   2.138970
    20  H    5.731049   4.207880   9.102379   4.961983   3.387280
    21  H    5.682280   5.853174   8.146753   4.922052   3.394394
    22  H    6.481922   5.675134   9.446850   5.695392   3.867582
    23  S    4.543788   5.193658   2.890330   6.342043   6.993458
    24  C    5.287508   6.298916   2.935583   6.994414   7.495871
    25  C    5.839925   6.569551   4.091640   7.442947   7.614079
    26  C    5.842579   7.238941   2.723521   7.482236   8.173635
    27  C    6.830110   8.294739   3.800308   8.352745   8.910886
    28  C    6.822294   7.715429   4.870310   8.310264   8.394295
    29  C    7.269685   8.508370   4.751629   8.734241   9.012684
    30  H    5.775687   6.107430   4.660654   7.347290   7.341659
    31  H    5.744528   7.291227   2.263326   7.379051   8.296593
    32  H    7.460131   9.105725   4.208191   8.913398   9.582643
    33  H    7.449700   8.149857   5.850678   8.846027   8.717504
    34  H    8.167142   9.450888   5.673768   9.543505   9.752522
    35  O    5.314376   6.114713   3.077341   7.095256   8.015666
    36  O    5.276281   5.290866   4.321413   7.006380   7.363593
    37  C    3.800579   2.782567   4.984055   5.197708   5.385786
    38  C    2.600366   4.984231   2.782727   3.253170   4.658431
    39  H    3.896293   2.225588   5.769900   4.982476   5.031604
    40  H    4.418108   3.409277   5.367542   5.792036   5.708179
    41  H    4.509777   3.657561   5.140496   5.989388   6.367165
    42  H    3.429042   5.770288   2.225358   4.311585   5.704668
    43  H    3.040948   5.366749   3.410780   3.358237   4.465461
    44  H    2.884051   5.141516   3.656771   3.072746   4.709677
                   11         12         13         14         15
    11  C    0.000000
    12  C    2.425628   0.000000
    13  C    2.801694   1.395759   0.000000
    14  C    1.395530   2.787344   2.416553   0.000000
    15  C    2.424599   2.416734   1.396285   1.395831   0.000000
    16  O    3.065352   3.863882   5.013819   4.422813   5.239941
    17  O    3.864673   2.884117   4.250346   4.959520   5.120397
    18  H    1.079619   3.391001   3.880556   2.173534   3.415618
    19  H    3.396767   1.083007   2.166106   3.870023   3.406981
    20  H    2.148777   3.873292   3.400706   1.085979   2.154277
    21  H    3.887623   2.152787   1.085944   3.402954   2.158349
    22  H    3.407601   3.402030   2.156298   2.156177   1.086589
    23  S    7.479801   7.442312   8.308439   8.349154   8.730985
    24  C    8.172063   7.614424   8.393282   8.908027   9.010107
    25  C    8.208417   7.580968   8.147923   8.741233   8.712363
    26  C    9.010261   8.210429   9.083236   9.816330   9.850624
    27  C    9.817509   8.744705   9.518248  10.515811  10.378571
    28  C    9.082536   8.149413   8.624026   9.516113   9.300515
    29  C    9.851466   8.715582   9.302342  10.378137  10.122585
    30  H    7.768073   7.377202   7.834678   8.211713   8.241899
    31  H    9.166362   8.441980   9.436842  10.093658  10.218441
    32  H   10.571604   9.377568  10.202405  11.312124  11.143097
    33  H    9.332889   8.375103   8.679334   9.612629   9.301320
    34  H   10.629398   9.331612   9.844262  11.085509  10.718221
    35  O    8.532401   8.554444   9.531511   9.518472   9.980241
    36  O    7.612677   7.841053   8.518109   8.317786   8.743376
    37  C    5.290056   6.207803   6.864121   6.057000   6.797804
    38  C    5.849218   4.890021   6.227368   7.002397   7.167360
    39  H    4.689080   6.000682   6.590375   5.434112   6.340765
    40  H    5.588096   6.346380   6.829367   6.142262   6.736937
    41  H    6.277801   7.230815   7.937790   7.091028   7.875843
    42  H    6.871131   5.895551   7.198196   8.014323   8.160084
    43  H    5.779040   4.390741   5.672485   6.798997   6.758807
    44  H    5.858041   5.091282   6.478410   7.092206   7.361043
                   16         17         18         19         20
    16  O    0.000000
    17  O    2.512602   0.000000
    18  H    2.717877   4.206409   0.000000
    19  H    4.134526   2.457138   4.266822   0.000000
    20  H    5.057578   5.929025   2.507053   4.955966   0.000000
    21  H    5.953875   4.845290   4.966358   2.498510   4.300825
    22  H    6.294062   6.166900   4.316813   4.309188   2.482387
    23  S    7.095302   7.006805   7.376534   7.347843   8.908883
    24  C    8.016572   7.365046   8.294941   7.343370   9.578793
    25  C    8.555048   7.842057   8.439924   7.378667   9.373016
    26  C    8.534653   7.615886   9.166176   7.771479  10.569428
    27  C    9.521769   8.322326  10.094540   8.216728  11.311030
    28  C    9.533190   8.520416   9.435994   7.837714  10.199118
    29  C    9.983223   8.747420  10.218997   8.246722  11.141502
    30  H    8.396713   7.918094   7.967868   7.328829   8.750203
    31  H    8.324432   7.478057   9.241307   7.971205  10.857699
    32  H   10.077000   8.737993  10.859503   8.756317  12.150122
    33  H   10.098794   9.076319   9.751180   8.121247  10.253243
    34  H   10.843892   9.449927  11.066099   8.808946  11.869900
    35  O    7.689198   7.696661   8.322080   8.397177  10.072829
    36  O    7.696201   7.856090   7.474665   7.918425   8.732283
    37  C    5.579331   6.412532   4.940283   6.587612   6.330507
    38  C    4.228102   2.804443   6.012770   4.265804   7.936907
    39  H    5.149974   6.335274   4.196925   6.530141   5.579227
    40  H    6.335534   6.939791   5.392180   6.743568   6.389960
    41  H    6.252893   7.182133   5.834750   7.561438   7.321033
    42  H    5.213459   3.878791   7.002562   5.229537   8.937143
    43  H    4.540963   2.552256   6.131811   3.591390   7.804284
    44  H    3.744977   2.517715   5.925684   4.520408   7.999209
                   21         22         23         24         25
    21  H    0.000000
    22  H    2.488092   0.000000
    23  S    8.844492   9.539590   0.000000
    24  C    8.716773   9.749162   1.829100   0.000000
    25  C    8.373919   9.327489   2.769856   1.392471   0.000000
    26  C    9.333878  10.627792   2.813682   1.394347   2.425606
    27  C    9.615140  11.085125   4.104223   2.403236   2.787368
    28  C    8.679684   9.841470   4.079806   2.410627   1.395774
    29  C    9.303566  10.717321   4.608768   2.780990   2.416743
    30  H    8.118515   8.803173   2.854919   2.138998   1.083006
    31  H    9.752286  11.064856   2.923173   2.134497   3.390955
    32  H   10.256949  11.870717   4.961786   3.387276   3.873317
    33  H    8.653330   9.731829   4.922103   3.394370   2.152807
    34  H    9.735124  11.256085   5.695293   3.867552   3.402041
    35  O   10.097370  10.840292   1.478033   2.667170   3.863849
    36  O    9.074414   9.445117   1.485880   2.606021   2.884417
    37  C    7.661105   7.552662   3.252757   4.659754   4.892631
    38  C    6.686696   8.194831   5.197837   5.385402   6.206272
    39  H    7.477940   7.081082   4.310978   5.706266   5.898911
    40  H    7.534776   7.381690   3.359365   4.468717   4.395294
    41  H    8.735341   8.632638   3.070896   4.708923   5.091892
    42  H    7.599051   9.169069   4.982470   5.029851   5.997417
    43  H    5.989215   7.742083   5.792972   5.709377   6.346014
    44  H    7.007568   8.419911   5.988953   6.366248   7.229292
                   26         27         28         29         30
    26  C    0.000000
    27  C    1.395515   0.000000
    28  C    2.801658   2.416562   0.000000
    29  C    2.424571   1.395846   1.396274   0.000000
    30  H    3.396775   3.870047   2.166085   3.406963   0.000000
    31  H    1.079624   2.173544   3.880522   3.415616   4.266807
    32  H    2.148777   1.085979   3.400719   2.154303   4.955991
    33  H    3.887585   3.402954   1.085942   2.158325   2.498486
    34  H    3.407572   2.156180   2.156291   1.086588   4.309164
    35  O    3.064512   4.421852   5.013513   5.239232   4.134923
    36  O    3.864380   4.959191   4.250476   5.120231   2.457910
    37  C    5.850301   7.004381   6.230596   7.170247   4.268743
    38  C    5.291278   6.058492   6.862958   6.798075   6.585229
    39  H    6.872430   8.016885   7.202512   8.163943   5.233312
    40  H    5.782190   6.803123   5.677710   6.763788   3.596114
    41  H    5.856631   7.091374   6.479257   7.361165   4.521903
    42  H    4.688618   5.433161   6.586815   6.338279   6.526443
    43  H    5.591825   6.146721   6.829804   6.739681   6.741668
    44  H    6.277876   7.091491   7.936613   7.875642   7.559394
                   31         32         33         34         35
    31  H    0.000000
    32  H    2.507091   0.000000
    33  H    4.966322   4.300827   0.000000
    34  H    4.316818   2.482406   2.488064   0.000000
    35  O    2.716744   5.056404   5.953709   6.293276   0.000000
    36  O    4.205959   5.928577   4.845568   6.166704   2.512671
    37  C    6.012887   7.938725   6.690506   8.198070   4.226194
    38  C    4.942596   6.333121   7.659287   7.553144   5.580404
    39  H    7.002563   8.939488   7.604270   9.173483   5.210814
    40  H    6.133996   7.808290   5.994908   7.747416   4.540889
    41  H    5.923375   7.998037   7.009131   8.420239   3.741467
    42  H    4.198249   5.579349   7.473659   7.078503   5.151618
    43  H    5.397173   6.396108   7.534194   7.384851   6.337663
    44  H    5.835378   7.322289   8.733793   8.632684   6.252771
                   36         37         38         39         40
    36  O    0.000000
    37  C    2.804436   0.000000
    38  C    6.412261   5.901995   0.000000
    39  H    3.878809   1.091320   6.267289   0.000000
    40  H    2.553357   1.095639   6.448650   1.777080   0.000000
    41  H    2.516731   1.092409   6.385830   1.791837   1.749411
    42  H    6.334888   6.267366   1.091318   6.774026   6.793688
    43  H    6.939847   6.448540   1.095628   6.793481   6.865689
    44  H    7.181724   6.385937   1.092433   6.610052   7.051553
                   41         42         43         44
    41  H    0.000000
    42  H    6.610015   0.000000
    43  H    7.051351   1.777141   0.000000
    44  H    6.843994   1.791760   1.749399   0.000000
 Stoichiometry    C20H16O6S2(2-)
 Framework group  C1[X(C20H16O6S2)]
 Deg. of freedom   126
 Full point group                 C1      NOp   1
 Largest Abelian subgroup         C1      NOp   1
 Largest concise Abelian subgroup C1      NOp   1
                         Standard orientation:                         
 ---------------------------------------------------------------------
 Center     Atomic      Atomic             Coordinates (Angstroms)
 Number     Number       Type             X           Y           Z
 ---------------------------------------------------------------------
      1          6           0        1.127694   -1.003672   -0.934351
      2          6           0       -0.230498   -0.998006   -1.415856
      3          6           0       -1.281501   -0.959365   -0.481715
      4          6           0       -1.126820   -0.984624    0.953106
      5          6           0        0.231362   -0.970146    1.434433
      6          6           0        1.282445   -0.950603    0.499716
      7          8           0        2.137606   -1.047617   -1.726768
      8          8           0       -2.136890   -1.012799    1.746080
      9         16           0        3.004391   -0.859150    1.023989
     10          6           0        3.745338    0.557132    0.134663
     11          6           0        4.368904    0.383144   -1.100303
     12          6           0        3.711925    1.804918    0.751887
     13          6           0        4.308541    2.901063    0.126860
     14          6           0        4.974597    1.481575   -1.711931
     15          6           0        4.942837    2.738828   -1.106412
     16          8           0        3.790968   -2.057121    0.662500
     17          8           0        3.076353   -0.439774    2.447628
     18          1           0        4.347152   -0.593818   -1.559269
     19          1           0        3.229291    1.901117    1.716622
     20          1           0        5.458012    1.356452   -2.676298
     21          1           0        4.278626    3.876454    0.603297
     22          1           0        5.404022    3.591448   -1.597353
     23         16           0       -3.003275   -0.877763   -1.008035
     24          6           0       -3.745318    0.554001   -0.144883
     25          6           0       -3.711772    1.790576   -0.784206
     26          6           0       -4.370540    0.401648    1.092084
     27          6           0       -4.978069    1.510308    1.683052
     28          6           0       -4.310035    2.897291   -0.179683
     29          6           0       -4.946231    2.756594    1.055242
     30          1           0       -3.227840    1.869943   -1.749821
     31          1           0       -4.348748   -0.566975    1.568407
     32          1           0       -5.462959    1.402027    2.648717
     33          1           0       -4.280005    3.864075   -0.673339
     34          1           0       -5.408813    3.617486    1.530170
     35          8           0       -3.789649   -2.069210   -0.625082
     36          8           0       -3.074742   -0.484365   -2.439108
     37          6           0       -0.377484   -1.085801   -2.916534
     38          6           0        0.378268   -1.028121    2.936590
     39          1           0        0.608049   -1.325342   -3.319429
     40          1           0       -0.716610   -0.141309   -3.356254
     41          1           0       -1.104953   -1.841708   -3.221084
     42          1           0       -0.607753   -1.257361    3.344251
     43          1           0        0.719624   -0.075779    3.357211
     44          1           0        1.104001   -1.779444    3.256331
 ---------------------------------------------------------------------
 Rotational constants (GHZ):           0.2791835           0.0932730           0.0926330
 Leave Link  202 at Wed Jan 24 22:47:52 2024, MaxMem=  4026531840 cpu:               0.4 elap:               0.1
 (Enter /sysapps/ubuntu-applications/gaussian/Gaussian/AVX2/g16/l301.exe)
 Standard basis: 6-311++G(d,p) (5D, 7F)
 Ernie: Thresh=  0.10000D-02 Tol=  0.10000D-05 Strict=F.
 There are   772 symmetry adapted cartesian basis functions of A   symmetry.
 There are   744 symmetry adapted basis functions of A   symmetry.
   744 basis functions,  1180 primitive gaussians,   772 cartesian basis functions
   109 alpha electrons      109 beta electrons
       nuclear repulsion energy      3018.8012119676 Hartrees.
 IExCor=  402 DFT=T Ex+Corr=B3LYP ExCW=0 ScaHFX=  0.200000
 ScaDFX=  0.800000  0.720000  1.000000  0.810000 ScalE2=  1.000000  1.000000
 IRadAn=      5 IRanWt=     -1 IRanGd=            0 ICorTp=0 IEmpDi=  4
 NAtoms=   44 NActive=   44 NUniq=   44 SFac= 1.00D+00 NAtFMM=   60 NAOKFM=F Big=F
 Integral buffers will be    131072 words long.
 Raffenetti 2 integral format.
 Two-electron integral symmetry is turned on.
 ------------------------------------------------------------------------------
 Polarizable Continuum Model (PCM)
 =================================
 Model                : PCM.
 Atomic radii         : UFF (Universal Force Field).
 Polarization charges : Total charges.
 Charge compensation  : None.
 Solution method      : On-the-fly selection.
 Cavity type          : Scaled VdW (van der Waals Surface) (Alpha=1.100).
 Cavity algorithm     : GePol (No added spheres)
                        Default sphere list used, NSphG=   44.
                        Lebedev-Laikov grids with approx.  5.0 points / Ang**2.
                        Smoothing algorithm: York/Karplus (Gamma=1.0000).
                        Polarization charges: spherical gaussians, with
                                              point-specific exponents (IZeta= 3).
                        Self-potential: point-specific (ISelfS= 7).
                        Self-field    : sphere-specific E.n sum rule (ISelfD= 2).
 Solvent              : n,n-DiMethylFormamide, Eps=  37.219000 Eps(inf)=   2.046330
 ------------------------------------------------------------------------------
 GePol: Number of generator spheres                  =      44
 GePol: Total number of spheres                      =      44
 GePol: Number of exposed spheres                    =      44 (100.00%)
 GePol: Number of points                             =    3429
 GePol: Average weight of points                     =       0.13
 GePol: Minimum weight of points                     =   0.78D-11
 GePol: Maximum weight of points                     =    0.20577
 GePol: Number of points with low weight             =     221
 GePol: Fraction of low-weight points (<1% of avg)   =       6.45%
 GePol: Cavity surface area                          =    440.855 Ang**2
 GePol: Cavity volume                                =    504.733 Ang**3
 Leave Link  301 at Wed Jan 24 22:47:52 2024, MaxMem=  4026531840 cpu:               0.9 elap:               0.2
 (Enter /sysapps/ubuntu-applications/gaussian/Gaussian/AVX2/g16/l302.exe)
 NPDir=0 NMtPBC=     1 NCelOv=     1 NCel=       1 NClECP=     1 NCelD=      1
         NCelK=      1 NCelE2=     1 NClLst=     1 CellRange=     0.0.
 One-electron integrals computed using PRISM.
 One-electron integral symmetry used in STVInt
 NBasis=   744 RedAO= T EigKep=  1.14D-06  NBF=   744
 NBsUse=   738 1.00D-06 EigRej=  6.88D-07 NBFU=   738
 Precomputing XC quadrature grid using
 IXCGrd= 4 IRadAn=           5 IRanWt=          -1 IRanGd=           0 AccXCQ= 0.00D+00.
 Generated NRdTot=       0 NPtTot=           0 NUsed=           0 NTot=          32
 NSgBfM=   759   759   759   759   759 MxSgAt=    44 MxSgA2=    44.
 Leave Link  302 at Wed Jan 24 22:47:54 2024, MaxMem=  4026531840 cpu:              15.8 elap:               2.3
 (Enter /sysapps/ubuntu-applications/gaussian/Gaussian/AVX2/g16/l303.exe)
 DipDrv:  MaxL=1.
 Leave Link  303 at Wed Jan 24 22:47:55 2024, MaxMem=  4026531840 cpu:               1.7 elap:               0.5
 (Enter /sysapps/ubuntu-applications/gaussian/Gaussian/AVX2/g16/l401.exe)
 ExpMin= 3.60D-02 ExpMax= 9.34D+04 ExpMxC= 3.17D+03 IAcc=3 IRadAn=         5 AccDes= 0.00D+00
 Harris functional with IExCor=  402 and IRadAn=       5 diagonalized for initial guess.
 HarFok:  IExCor=  402 AccDes= 0.00D+00 IRadAn=         5 IDoV= 1 UseB2=F ITyADJ=14
 ICtDFT=  3500011 ScaDFX=  1.000000  1.000000  1.000000  1.000000
 FoFCou: FMM=F IPFlag=           0 FMFlag=      100000 FMFlg1=           0
         NFxFlg=           0 DoJE=T BraDBF=F KetDBF=T FulRan=T
         wScrn=  0.000000 ICntrl=       500 IOpCl=  0 I1Cent=   200000004 NGrid=           0
         NMat0=    1 NMatS0=      1 NMatT0=    0 NMatD0=    1 NMtDS0=    0 NMtDT0=    0
 Petite list used in FoFCou.
 Harris En= -2020.32772798256    
 JPrj=0 DoOrth=F DoCkMO=F.
 Initial guess <Sx>= 0.0000 <Sy>= 0.0000 <Sz>= 0.0000 <S**2>=-0.0000 S=-0.0000
 Leave Link  401 at Wed Jan 24 22:48:05 2024, MaxMem=  4026531840 cpu:              76.5 elap:               9.9
 (Enter /sysapps/ubuntu-applications/gaussian/Gaussian/AVX2/g16/l502.exe)
 Integral symmetry usage will be decided dynamically.
 UHF open shell SCF:
 Using DIIS extrapolation, IDIIS=  1040.
 NGot=  4026531840 LenX=  4025326522 LenY=  4024729766
 Requested convergence on RMS density matrix=1.00D-08 within 128 cycles.
 Requested convergence on MAX density matrix=1.00D-06.
 Requested convergence on             energy=1.00D-06.
 No special actions if energy rises.
 Fock matrices will be formed incrementally for  20 cycles.

 Cycle   1  Pass 1  IDiag  1:
 FoFJK:  IHMeth= 1 ICntrl=       0 DoSepK=F KAlg= 0 I1Cent=           0 FoldK=F
 IRaf= 780000000 NMat=       1 IRICut=       1 DoRegI=T DoRafI=F ISym2E= 0 IDoP0=0 IntGTp=1.
 FoFCou: FMM=F IPFlag=           0 FMFlag=      100000 FMFlg1=           0
         NFxFlg=           0 DoJE=F BraDBF=F KetDBF=F FulRan=T
         wScrn=  0.000000 ICntrl=         0 IOpCl=  1 I1Cent=           0 NGrid=           0
         NMat0=    1 NMatS0=      1 NMatT0=    0 NMatD0=    1 NMtDS0=    0 NMtDT0=    0
 Symmetry not used in FoFCou.
 Inv3:  Mode=1 IEnd=    35274123.
 Iteration    1 A*A^-1 deviation from unit magnitude is 3.11D-15 for   1893.
 Iteration    1 A*A^-1 deviation from orthogonality  is 2.22D-15 for   1970    756.
 Iteration    1 A^-1*A deviation from unit magnitude is 3.22D-15 for   1897.
 Iteration    1 A^-1*A deviation from orthogonality  is 2.11D-15 for   2442    535.
 E= -2018.78800548235    
 DIIS: error= 4.04D-02 at cycle   1 NSaved=   1.
 NSaved= 1 IEnMin= 1 EnMin= -2018.78800548235     IErMin= 1 ErrMin= 4.04D-02
 ErrMax= 4.04D-02  0.00D+00 EMaxC= 1.00D-01 BMatC= 6.30D+00 BMatP= 6.30D+00
 IDIUse=3 WtCom= 5.96D-01 WtEn= 4.04D-01
 Coeff-Com:  0.100D+01
 Coeff-En:   0.100D+01
 Coeff:      0.100D+01
 Gap=     0.043 Goal=   None    Shift=    0.000
 Gap=     0.043 Goal=   None    Shift=    0.000
 GapD=    0.043 DampG=0.250 DampE=0.500 DampFc=0.2500 IDamp=-1.
 Damping current iteration by 2.50D-01
 RMSDP=4.22D-01 MaxDP=6.26D+01              OVMax= 5.49D-01

 Cycle   2  Pass 1  IDiag  1:
 RMSU=  5.52D-02    CP:  1.68D+00
 E= -2019.18322371841     Delta-E=       -0.395218236055 Rises=F Damp=T
 DIIS: error= 1.04D-02 at cycle   2 NSaved=   2.
 NSaved= 2 IEnMin= 2 EnMin= -2019.18322371841     IErMin= 2 ErrMin= 1.04D-02
 ErrMax= 1.04D-02  0.00D+00 EMaxC= 1.00D-01 BMatC= 1.01D+00 BMatP= 6.30D+00
 IDIUse=3 WtCom= 8.96D-01 WtEn= 1.04D-01
 Coeff-Com: -0.447D+00 0.145D+01
 Coeff-En:   0.000D+00 0.100D+01
 Coeff:     -0.400D+00 0.140D+01
 Gap=     0.075 Goal=   None    Shift=    0.000
 Gap=     0.075 Goal=   None    Shift=    0.000
 RMSDP=7.29D-02 MaxDP=1.15D+01 DE=-3.95D-01 OVMax= 4.82D-01

 Cycle   3  Pass 1  IDiag  1:
 RMSU=  1.83D-02    CP:  1.22D+00  3.53D-01
 E= -2019.79751722517     Delta-E=       -0.614293506760 Rises=F Damp=F
 DIIS: error= 2.15D-02 at cycle   3 NSaved=   3.
 NSaved= 3 IEnMin= 3 EnMin= -2019.79751722517     IErMin= 2 ErrMin= 1.04D-02
 ErrMax= 2.15D-02  0.00D+00 EMaxC= 1.00D-01 BMatC= 8.80D-01 BMatP= 1.01D+00
 IDIUse=3 WtCom= 7.85D-01 WtEn= 2.15D-01
 Coeff-Com: -0.356D+00 0.923D+00 0.433D+00
 Coeff-En:   0.000D+00 0.000D+00 0.100D+01
 Coeff:     -0.279D+00 0.724D+00 0.555D+00
 Gap=     0.094 Goal=   None    Shift=    0.000
 Gap=     0.094 Goal=   None    Shift=    0.000
 RMSDP=3.30D-02 MaxDP=5.63D+00 DE=-6.14D-01 OVMax= 1.66D-01

 Cycle   4  Pass 1  IDiag  1:
 RMSU=  1.23D-02    CP:  1.43D+00  5.56D-01  9.58D-01
 E= -2019.95158905074     Delta-E=       -0.154071825576 Rises=F Damp=F
 DIIS: error= 1.28D-02 at cycle   4 NSaved=   4.
 NSaved= 4 IEnMin= 4 EnMin= -2019.95158905074     IErMin= 2 ErrMin= 1.04D-02
 ErrMax= 1.28D-02  0.00D+00 EMaxC= 1.00D-01 BMatC= 2.29D-01 BMatP= 8.80D-01
 IDIUse=3 WtCom= 8.72D-01 WtEn= 1.28D-01
 Coeff-Com: -0.108D+00 0.258D+00 0.347D+00 0.503D+00
 Coeff-En:   0.000D+00 0.000D+00 0.223D+00 0.777D+00
 Coeff:     -0.944D-01 0.225D+00 0.331D+00 0.538D+00
 Gap=     0.095 Goal=   None    Shift=    0.000
 Gap=     0.095 Goal=   None    Shift=    0.000
 RMSDP=6.47D-03 MaxDP=9.75D-01 DE=-1.54D-01 OVMax= 6.61D-02

 Cycle   5  Pass 1  IDiag  1:
 RMSU=  2.65D-03    CP:  1.41D+00  5.33D-01  1.04D+00  6.43D-01
 E= -2019.99545697066     Delta-E=       -0.043867919916 Rises=F Damp=F
 DIIS: error= 3.76D-03 at cycle   5 NSaved=   5.
 NSaved= 5 IEnMin= 5 EnMin= -2019.99545697066     IErMin= 5 ErrMin= 3.76D-03
 ErrMax= 3.76D-03  0.00D+00 EMaxC= 1.00D-01 BMatC= 1.89D-02 BMatP= 2.29D-01
 IDIUse=3 WtCom= 9.62D-01 WtEn= 3.76D-02
 Coeff-Com: -0.259D-01 0.470D-01 0.136D+00 0.326D+00 0.517D+00
 Coeff-En:   0.000D+00 0.000D+00 0.000D+00 0.304D-01 0.970D+00
 Coeff:     -0.249D-01 0.452D-01 0.131D+00 0.315D+00 0.534D+00
 Gap=     0.092 Goal=   None    Shift=    0.000
 Gap=     0.092 Goal=   None    Shift=    0.000
 RMSDP=4.70D-03 MaxDP=6.54D-01 DE=-4.39D-02 OVMax= 1.81D-02

 Cycle   6  Pass 1  IDiag  1:
 RMSU=  1.02D-03    CP:  1.37D+00  5.17D-01  9.97D-01  6.33D-01  6.54D-01
 E= -2019.99879618728     Delta-E=       -0.003339216617 Rises=F Damp=F
 DIIS: error= 7.04D-04 at cycle   6 NSaved=   6.
 NSaved= 6 IEnMin= 6 EnMin= -2019.99879618728     IErMin= 6 ErrMin= 7.04D-04
 ErrMax= 7.04D-04  0.00D+00 EMaxC= 1.00D-01 BMatC= 1.89D-03 BMatP= 1.89D-02
 IDIUse=3 WtCom= 9.93D-01 WtEn= 7.04D-03
 Coeff-Com: -0.671D-02 0.769D-02 0.356D-01 0.114D+00 0.315D+00 0.535D+00
 Coeff-En:   0.000D+00 0.000D+00 0.000D+00 0.000D+00 0.506D-01 0.949D+00
 Coeff:     -0.667D-02 0.764D-02 0.353D-01 0.113D+00 0.313D+00 0.538D+00
 Gap=     0.092 Goal=   None    Shift=    0.000
 Gap=     0.092 Goal=   None    Shift=    0.000
 RMSDP=9.64D-04 MaxDP=1.30D-01 DE=-3.34D-03 OVMax= 3.40D-03

 Cycle   7  Pass 1  IDiag  1:
 RMSU=  4.79D-04    CP:  1.38D+00  5.19D-01  1.01D+00  6.68D-01  7.18D-01
                    CP:  9.06D-01
 E= -2019.99914070079     Delta-E=       -0.000344513510 Rises=F Damp=F
 DIIS: error= 1.80D-04 at cycle   7 NSaved=   7.
 NSaved= 7 IEnMin= 7 EnMin= -2019.99914070079     IErMin= 7 ErrMin= 1.80D-04
 ErrMax= 1.80D-04  0.00D+00 EMaxC= 1.00D-01 BMatC= 1.72D-04 BMatP= 1.89D-03
 IDIUse=3 WtCom= 9.98D-01 WtEn= 1.80D-03
 Coeff-Com:  0.534D-04-0.277D-02 0.352D-02 0.265D-01 0.123D+00 0.304D+00
 Coeff-Com:  0.546D+00
 Coeff-En:   0.000D+00 0.000D+00 0.000D+00 0.000D+00 0.000D+00 0.235D-01
 Coeff-En:   0.976D+00
 Coeff:      0.533D-04-0.277D-02 0.351D-02 0.265D-01 0.122D+00 0.303D+00
 Coeff:      0.547D+00
 Gap=     0.092 Goal=   None    Shift=    0.000
 Gap=     0.092 Goal=   None    Shift=    0.000
 RMSDP=2.02D-04 MaxDP=2.25D-02 DE=-3.45D-04 OVMax= 1.50D-03

 Cycle   8  Pass 1  IDiag  1:
 RMSU=  1.17D-04    CP:  1.38D+00  5.18D-01  1.01D+00  6.59D-01  7.29D-01
                    CP:  8.89D-01  7.66D-01
 E= -2019.99917644605     Delta-E=       -0.000035745261 Rises=F Damp=F
 DIIS: error= 6.34D-05 at cycle   8 NSaved=   8.
 NSaved= 8 IEnMin= 8 EnMin= -2019.99917644605     IErMin= 8 ErrMin= 6.34D-05
 ErrMax= 6.34D-05  0.00D+00 EMaxC= 1.00D-01 BMatC= 1.24D-05 BMatP= 1.72D-04
 IDIUse=1 WtCom= 1.00D+00 WtEn= 0.00D+00
 Coeff-Com:  0.389D-03-0.135D-02-0.123D-02 0.246D-02 0.341D-01 0.101D+00
 Coeff-Com:  0.279D+00 0.585D+00
 Coeff:      0.389D-03-0.135D-02-0.123D-02 0.246D-02 0.341D-01 0.101D+00
 Coeff:      0.279D+00 0.585D+00
 Gap=     0.092 Goal=   None    Shift=    0.000
 Gap=     0.092 Goal=   None    Shift=    0.000
 RMSDP=9.73D-05 MaxDP=1.81D-02 DE=-3.57D-05 OVMax= 5.34D-04

 Cycle   9  Pass 1  IDiag  1:
 RMSU=  3.10D-05    CP:  1.38D+00  5.19D-01  1.01D+00  6.61D-01  7.33D-01
                    CP:  8.88D-01  7.89D-01  5.66D-01
 E= -2019.99917939693     Delta-E=       -0.000002950886 Rises=F Damp=F
 DIIS: error= 1.97D-05 at cycle   9 NSaved=   9.
 NSaved= 9 IEnMin= 9 EnMin= -2019.99917939693     IErMin= 9 ErrMin= 1.97D-05
 ErrMax= 1.97D-05  0.00D+00 EMaxC= 1.00D-01 BMatC= 1.42D-06 BMatP= 1.24D-05
 IDIUse=1 WtCom= 1.00D+00 WtEn= 0.00D+00
 Coeff-Com:  0.125D-03-0.240D-03-0.888D-03-0.148D-02 0.516D-02 0.204D-01
 Coeff-Com:  0.839D-01 0.312D+00 0.581D+00
 Coeff:      0.125D-03-0.240D-03-0.888D-03-0.148D-02 0.516D-02 0.204D-01
 Coeff:      0.839D-01 0.312D+00 0.581D+00
 Gap=     0.092 Goal=   None    Shift=    0.000
 Gap=     0.092 Goal=   None    Shift=    0.000
 RMSDP=3.83D-05 MaxDP=5.64D-03 DE=-2.95D-06 OVMax= 1.51D-04

 Cycle  10  Pass 1  IDiag  1:
 RMSU=  2.05D-05    CP:  1.38D+00  5.18D-01  1.01D+00  6.61D-01  7.34D-01
                    CP:  8.94D-01  7.80D-01  7.19D-01  6.39D-01
 E= -2019.99917970768     Delta-E=       -0.000000310751 Rises=F Damp=F
 DIIS: error= 7.09D-06 at cycle  10 NSaved=  10.
 NSaved=10 IEnMin=10 EnMin= -2019.99917970768     IErMin=10 ErrMin= 7.09D-06
 ErrMax= 7.09D-06  0.00D+00 EMaxC= 1.00D-01 BMatC= 1.64D-07 BMatP= 1.42D-06
 IDIUse=1 WtCom= 1.00D+00 WtEn= 0.00D+00
 Coeff-Com:  0.598D-04-0.110D-03-0.467D-03-0.933D-03 0.991D-03 0.600D-02
 Coeff-Com:  0.291D-01 0.138D+00 0.329D+00 0.499D+00
 Coeff:      0.598D-04-0.110D-03-0.467D-03-0.933D-03 0.991D-03 0.600D-02
 Coeff:      0.291D-01 0.138D+00 0.329D+00 0.499D+00
 Gap=     0.092 Goal=   None    Shift=    0.000
 Gap=     0.092 Goal=   None    Shift=    0.000
 RMSDP=1.84D-05 MaxDP=1.89D-03 DE=-3.11D-07 OVMax= 6.02D-05

 Cycle  11  Pass 1  IDiag  1:
 RMSU=  3.74D-06    CP:  1.38D+00  5.18D-01  1.01D+00  6.61D-01  7.34D-01
                    CP:  8.95D-01  7.93D-01  6.67D-01  7.78D-01  4.83D-01
 E= -2019.99917973792     Delta-E=       -0.000000030236 Rises=F Damp=F
 DIIS: error= 2.80D-06 at cycle  11 NSaved=  11.
 NSaved=11 IEnMin=11 EnMin= -2019.99917973792     IErMin=11 ErrMin= 2.80D-06
 ErrMax= 2.80D-06  0.00D+00 EMaxC= 1.00D-01 BMatC= 2.78D-08 BMatP= 1.64D-07
 IDIUse=1 WtCom= 1.00D+00 WtEn= 0.00D+00
 Coeff-Com: -0.728D-05 0.174D-04-0.112D-03-0.314D-03-0.874D-03-0.117D-02
 Coeff-Com: -0.174D-02 0.165D-01 0.742D-01 0.296D+00 0.617D+00
 Coeff:     -0.728D-05 0.174D-04-0.112D-03-0.314D-03-0.874D-03-0.117D-02
 Coeff:     -0.174D-02 0.165D-01 0.742D-01 0.296D+00 0.617D+00
 Gap=     0.092 Goal=   None    Shift=    0.000
 Gap=     0.092 Goal=   None    Shift=    0.000
 RMSDP=7.36D-06 MaxDP=6.82D-04 DE=-3.02D-08 OVMax= 4.24D-05

 Cycle  12  Pass 1  IDiag  1:
 RMSU=  1.33D-06    CP:  1.38D+00  5.18D-01  1.01D+00  6.61D-01  7.34D-01
                    CP:  8.95D-01  7.88D-01  7.01D-01  7.34D-01  6.93D-01
                    CP:  6.93D-01
 E= -2019.99917974327     Delta-E=       -0.000000005352 Rises=F Damp=F
 DIIS: error= 1.34D-06 at cycle  12 NSaved=  12.
 NSaved=12 IEnMin=12 EnMin= -2019.99917974327     IErMin=12 ErrMin= 1.34D-06
 ErrMax= 1.34D-06  0.00D+00 EMaxC= 1.00D-01 BMatC= 4.32D-09 BMatP= 2.78D-08
 IDIUse=1 WtCom= 1.00D+00 WtEn= 0.00D+00
 Coeff-Com: -0.131D-04 0.269D-04-0.308D-04-0.114D-03-0.649D-03-0.116D-02
 Coeff-Com: -0.340D-02-0.106D-02 0.161D-01 0.128D+00 0.376D+00 0.487D+00
 Coeff:     -0.131D-04 0.269D-04-0.308D-04-0.114D-03-0.649D-03-0.116D-02
 Coeff:     -0.340D-02-0.106D-02 0.161D-01 0.128D+00 0.376D+00 0.487D+00
 Gap=     0.092 Goal=   None    Shift=    0.000
 Gap=     0.092 Goal=   None    Shift=    0.000
 RMSDP=2.14D-06 MaxDP=2.56D-04 DE=-5.35D-09 OVMax= 1.64D-05

 Cycle  13  Pass 1  IDiag  1:
 RMSU=  5.05D-07    CP:  1.38D+00  5.18D-01  1.01D+00  6.61D-01  7.34D-01
                    CP:  8.95D-01  7.90D-01  6.95D-01  7.55D-01  6.57D-01
                    CP:  8.55D-01  6.20D-01
 E= -2019.99917974418     Delta-E=       -0.000000000905 Rises=F Damp=F
 DIIS: error= 2.62D-07 at cycle  13 NSaved=  13.
 NSaved=13 IEnMin=13 EnMin= -2019.99917974418     IErMin=13 ErrMin= 2.62D-07
 ErrMax= 2.62D-07  0.00D+00 EMaxC= 1.00D-01 BMatC= 3.30D-10 BMatP= 4.32D-09
 IDIUse=1 WtCom= 1.00D+00 WtEn= 0.00D+00
 Coeff-Com: -0.414D-05 0.674D-05-0.225D-05-0.538D-05-0.175D-03-0.320D-03
 Coeff-Com: -0.127D-02-0.292D-02-0.457D-02 0.111D-01 0.872D-01 0.247D+00
 Coeff-Com:  0.664D+00
 Coeff:     -0.414D-05 0.674D-05-0.225D-05-0.538D-05-0.175D-03-0.320D-03
 Coeff:     -0.127D-02-0.292D-02-0.457D-02 0.111D-01 0.872D-01 0.247D+00
 Coeff:      0.664D+00
 Gap=     0.092 Goal=   None    Shift=    0.000
 Gap=     0.092 Goal=   None    Shift=    0.000
 RMSDP=5.78D-07 MaxDP=1.24D-04 DE=-9.05D-10 OVMax= 6.51D-06

 Cycle  14  Pass 1  IDiag  1:
 RMSU=  2.02D-07    CP:  1.38D+00  5.18D-01  1.01D+00  6.61D-01  7.34D-01
                    CP:  8.95D-01  7.90D-01  6.94D-01  7.56D-01  6.61D-01
                    CP:  8.14D-01  8.27D-01  4.10D-01
 E= -2019.99917974428     Delta-E=       -0.000000000100 Rises=F Damp=F
 DIIS: error= 1.88D-07 at cycle  14 NSaved=  14.
 NSaved=14 IEnMin=14 EnMin= -2019.99917974428     IErMin=14 ErrMin= 1.88D-07
 ErrMax= 1.88D-07  0.00D+00 EMaxC= 1.00D-01 BMatC= 6.66D-11 BMatP= 3.30D-10
 IDIUse=1 WtCom= 1.00D+00 WtEn= 0.00D+00
 Coeff-Com: -0.146D-05 0.210D-05 0.178D-05 0.709D-05-0.483D-04-0.962D-04
 Coeff-Com: -0.473D-03-0.173D-02-0.458D-02-0.650D-02 0.153D-01 0.106D+00
 Coeff-Com:  0.415D+00 0.478D+00
 Coeff:     -0.146D-05 0.210D-05 0.178D-05 0.709D-05-0.483D-04-0.962D-04
 Coeff:     -0.473D-03-0.173D-02-0.458D-02-0.650D-02 0.153D-01 0.106D+00
 Coeff:      0.415D+00 0.478D+00
 Gap=     0.092 Goal=   None    Shift=    0.000
 Gap=     0.092 Goal=   None    Shift=    0.000
 RMSDP=2.75D-07 MaxDP=4.24D-05 DE=-1.00D-10 OVMax= 3.35D-06

 Cycle  15  Pass 1  IDiag  1:
 RMSU=  1.57D-07    CP:  1.38D+00  5.18D-01  1.01D+00  6.61D-01  7.34D-01
                    CP:  8.95D-01  7.90D-01  6.95D-01  7.56D-01  6.64D-01
                    CP:  8.29D-01  7.63D-01  6.93D-01  4.86D-01
 E= -2019.99917974430     Delta-E=       -0.000000000026 Rises=F Damp=F
 DIIS: error= 7.81D-08 at cycle  15 NSaved=  15.
 NSaved=15 IEnMin=15 EnMin= -2019.99917974430     IErMin=15 ErrMin= 7.81D-08
 ErrMax= 7.81D-08  0.00D+00 EMaxC= 1.00D-01 BMatC= 9.73D-12 BMatP= 6.66D-11
 IDIUse=1 WtCom= 1.00D+00 WtEn= 0.00D+00
 Coeff-Com: -0.273D-06 0.439D-06 0.134D-05 0.422D-05-0.262D-05-0.137D-04
 Coeff-Com: -0.889D-04-0.546D-03-0.188D-02-0.508D-02-0.419D-02 0.247D-01
 Coeff-Com:  0.144D+00 0.302D+00 0.542D+00
 Coeff:     -0.273D-06 0.439D-06 0.134D-05 0.422D-05-0.262D-05-0.137D-04
 Coeff:     -0.889D-04-0.546D-03-0.188D-02-0.508D-02-0.419D-02 0.247D-01
 Coeff:      0.144D+00 0.302D+00 0.542D+00
 Gap=     0.092 Goal=   None    Shift=    0.000
 Gap=     0.092 Goal=   None    Shift=    0.000
 RMSDP=1.10D-07 MaxDP=1.44D-05 DE=-2.64D-11 OVMax= 1.23D-06

 Cycle  16  Pass 1  IDiag  1:
 RMSU=  1.76D-08    CP:  1.38D+00  5.18D-01  1.01D+00  6.61D-01  7.34D-01
                    CP:  8.95D-01  7.90D-01  6.95D-01  7.56D-01  6.63D-01
                    CP:  8.30D-01  7.92D-01  6.15D-01  7.04D-01  5.55D-01
 E= -2019.99917974442     Delta-E=       -0.000000000114 Rises=F Damp=F
 DIIS: error= 1.83D-08 at cycle  16 NSaved=  16.
 NSaved=16 IEnMin=16 EnMin= -2019.99917974442     IErMin=16 ErrMin= 1.83D-08
 ErrMax= 1.83D-08  0.00D+00 EMaxC= 1.00D-01 BMatC= 1.54D-12 BMatP= 9.73D-12
 IDIUse=1 WtCom= 1.00D+00 WtEn= 0.00D+00
 Coeff-Com:  0.131D-06-0.206D-06 0.512D-06 0.162D-05 0.721D-05 0.801D-05
 Coeff-Com:  0.222D-04-0.679D-04-0.466D-03-0.218D-02-0.514D-02-0.665D-04
 Coeff-Com:  0.303D-01 0.124D+00 0.344D+00 0.510D+00
 Coeff:      0.131D-06-0.206D-06 0.512D-06 0.162D-05 0.721D-05 0.801D-05
 Coeff:      0.222D-04-0.679D-04-0.466D-03-0.218D-02-0.514D-02-0.665D-04
 Coeff:      0.303D-01 0.124D+00 0.344D+00 0.510D+00
 Gap=     0.092 Goal=   None    Shift=    0.000
 Gap=     0.092 Goal=   None    Shift=    0.000
 RMSDP=2.55D-08 MaxDP=3.88D-06 DE=-1.14D-10 OVMax= 2.73D-07

 Cycle  17  Pass 1  IDiag  1:
 RMSU=  7.37D-09    CP:  1.38D+00  5.18D-01  1.01D+00  6.61D-01  7.34D-01
                    CP:  8.95D-01  7.90D-01  6.95D-01  7.56D-01  6.63D-01
                    CP:  8.32D-01  7.89D-01  6.35D-01  6.59D-01  6.27D-01
                    CP:  8.53D-01
 E= -2019.99917974437     Delta-E=        0.000000000047 Rises=F Damp=F
 DIIS: error= 4.49D-09 at cycle  17 NSaved=  17.
 NSaved=17 IEnMin=16 EnMin= -2019.99917974442     IErMin=17 ErrMin= 4.49D-09
 ErrMax= 4.49D-09  0.00D+00 EMaxC= 1.00D-01 BMatC= 3.64D-14 BMatP= 1.54D-12
 IDIUse=1 WtCom= 1.00D+00 WtEn= 0.00D+00
 Coeff-Com:  0.832D-07-0.126D-06 0.150D-06 0.305D-06 0.284D-05 0.324D-05
 Coeff-Com:  0.120D-04 0.112D-04-0.230D-04-0.334D-03-0.137D-02-0.196D-02
 Coeff-Com: -0.223D-02 0.151D-01 0.589D-01 0.152D+00 0.780D+00
 Coeff:      0.832D-07-0.126D-06 0.150D-06 0.305D-06 0.284D-05 0.324D-05
 Coeff:      0.120D-04 0.112D-04-0.230D-04-0.334D-03-0.137D-02-0.196D-02
 Coeff:     -0.223D-02 0.151D-01 0.589D-01 0.152D+00 0.780D+00
 Gap=     0.092 Goal=   None    Shift=    0.000
 Gap=     0.092 Goal=   None    Shift=    0.000
 RMSDP=8.52D-09 MaxDP=1.66D-06 DE= 4.73D-11 OVMax= 6.77D-08

 Cycle  18  Pass 1  IDiag  1:
 RMSU=  1.93D-09    CP:  1.38D+00  5.18D-01  1.01D+00  6.61D-01  7.34D-01
                    CP:  8.95D-01  7.90D-01  6.95D-01  7.56D-01  6.63D-01
                    CP:  8.31D-01  7.89D-01  6.32D-01  6.71D-01  6.49D-01
                    CP:  8.74D-01  8.65D-01
 E= -2019.99917974427     Delta-E=        0.000000000097 Rises=F Damp=F
 DIIS: error= 8.17D-10 at cycle  18 NSaved=  18.
 NSaved=18 IEnMin=16 EnMin= -2019.99917974442     IErMin=18 ErrMin= 8.17D-10
 ErrMax= 8.17D-10  0.00D+00 EMaxC= 1.00D-01 BMatC= 3.11D-15 BMatP= 3.64D-14
 IDIUse=1 WtCom= 1.00D+00 WtEn= 0.00D+00
 Coeff-Com:  0.282D-07-0.404D-07 0.233D-07-0.384D-08 0.592D-06 0.715D-06
 Coeff-Com:  0.335D-05 0.105D-04 0.246D-04 0.410D-04-0.131D-03-0.685D-03
 Coeff-Com: -0.294D-02-0.202D-02 0.179D-03 0.269D-01 0.308D+00 0.670D+00
 Coeff:      0.282D-07-0.404D-07 0.233D-07-0.384D-08 0.592D-06 0.715D-06
 Coeff:      0.335D-05 0.105D-04 0.246D-04 0.410D-04-0.131D-03-0.685D-03
 Coeff:     -0.294D-02-0.202D-02 0.179D-03 0.269D-01 0.308D+00 0.670D+00
 Gap=     0.092 Goal=   None    Shift=    0.000
 Gap=     0.092 Goal=   None    Shift=    0.000
 RMSDP=1.82D-09 MaxDP=2.74D-07 DE= 9.73D-11 OVMax= 1.51D-08

 Error on total polarization charges =  0.02536
 SCF Done:  E(UB3LYP) =  -2019.99917974     A.U. after   18 cycles
            NFock= 18  Conv=0.18D-08     -V/T= 2.0030
 <Sx>= 0.0000 <Sy>= 0.0000 <Sz>= 0.0000 <S**2>=-0.0000 S=-0.0000
 <L.S>=  0.00000000000    
 KE= 2.013889090562D+03 PE=-1.084167443787D+04 EE= 3.788984955596D+03
 Annihilation of the first spin contaminant:
 S**2 before annihilation    -0.0000,   after     0.0000
 Leave Link  502 at Wed Jan 24 23:10:23 2024, MaxMem=  4026531840 cpu:           10650.7 elap:            1337.7
 (Enter /sysapps/ubuntu-applications/gaussian/Gaussian/AVX2/g16/l601.exe)
 Copying SCF densities to generalized density rwf, IOpCl= 1 IROHF=0.

 **********************************************************************

            Population analysis using the SCF density.

 **********************************************************************

 Orbital symmetries:
 Alpha Orbitals:
       Occupied  (A) (A) (A) (A) (A) (A) (A) (A) (A) (A) (A) (A)
                 (A) (A) (A) (A) (A) (A) (A) (A) (A) (A) (A) (A)
                 (A) (A) (A) (A) (A) (A) (A) (A) (A) (A) (A) (A)
                 (A) (A) (A) (A) (A) (A) (A) (A) (A) (A) (A) (A)
                 (A) (A) (A) (A) (A) (A) (A) (A) (A) (A) (A) (A)
                 (A) (A) (A) (A) (A) (A) (A) (A) (A) (A) (A) (A)
                 (A) (A) (A) (A) (A) (A) (A) (A) (A) (A) (A) (A)
                 (A) (A) (A) (A) (A) (A) (A) (A) (A) (A) (A) (A)
                 (A) (A) (A) (A) (A) (A) (A) (A) (A) (A) (A) (A)
                 (A)
       Virtual   (A) (A) (A) (A) (A) (A) (A) (A) (A) (A) (A) (A)
                 (A) (A) (A) (A) (A) (A) (A) (A) (A) (A) (A) (A)
                 (A) (A) (A) (A) (A) (A) (A) (A) (A) (A) (A) (A)
                 (A) (A) (A) (A) (A) (A) (A) (A) (A) (A) (A) (A)
                 (A) (A) (A) (A) (A) (A) (A) (A) (A) (A) (A) (A)
                 (A) (A) (A) (A) (A) (A) (A) (A) (A) (A) (A) (A)
                 (A) (A) (A) (A) (A) (A) (A) (A) (A) (A) (A) (A)
                 (A) (A) (A) (A) (A) (A) (A) (A) (A) (A) (A) (A)
                 (A) (A) (A) (A) (A) (A) (A) (A) (A) (A) (A) (A)
                 (A) (A) (A) (A) (A) (A) (A) (A) (A) (A) (A) (A)
                 (A) (A) (A) (A) (A) (A) (A) (A) (A) (A) (A) (A)
                 (A) (A) (A) (A) (A) (A) (A) (A) (A) (A) (A) (A)
                 (A) (A) (A) (A) (A) (A) (A) (A) (A) (A) (A) (A)
                 (A) (A) (A) (A) (A) (A) (A) (A) (A) (A) (A) (A)
                 (A) (A) (A) (A) (A) (A) (A) (A) (A) (A) (A) (A)
                 (A) (A) (A) (A) (A) (A) (A) (A) (A) (A) (A) (A)
                 (A) (A) (A) (A) (A) (A) (A) (A) (A) (A) (A) (A)
                 (A) (A) (A) (A) (A) (A) (A) (A) (A) (A) (A) (A)
                 (A) (A) (A) (A) (A) (A) (A) (A) (A) (A) (A) (A)
                 (A) (A) (A) (A) (A) (A) (A) (A) (A) (A) (A) (A)
                 (A) (A) (A) (A) (A) (A) (A) (A) (A) (A) (A) (A)
                 (A) (A) (A) (A) (A) (A) (A) (A) (A) (A) (A) (A)
                 (A) (A) (A) (A) (A) (A) (A) (A) (A) (A) (A) (A)
                 (A) (A) (A) (A) (A) (A) (A) (A) (A) (A) (A) (A)
                 (A) (A) (A) (A) (A) (A) (A) (A) (A) (A) (A) (A)
                 (A) (A) (A) (A) (A) (A) (A) (A) (A) (A) (A) (A)
                 (A) (A) (A) (A) (A) (A) (A) (A) (A) (A) (A) (A)
                 (A) (A) (A) (A) (A) (A) (A) (A) (A) (A) (A) (A)
                 (A) (A) (A) (A) (A) (A) (A) (A) (A) (A) (A) (A)
                 (A) (A) (A) (A) (A) (A) (A) (A) (A) (A) (A) (A)
                 (A) (A) (A) (A) (A) (A) (A) (A) (A) (A) (A) (A)
                 (A) (A) (A) (A) (A) (A) (A) (A) (A) (A) (A) (A)
                 (A) (A) (A) (A) (A) (A) (A) (A) (A) (A) (A) (A)
                 (A) (A) (A) (A) (A) (A) (A) (A) (A) (A) (A) (A)
                 (A) (A) (A) (A) (A) (A) (A) (A) (A) (A) (A) (A)
                 (A) (A) (A) (A) (A) (A) (A) (A) (A) (A) (A) (A)
                 (A) (A) (A) (A) (A) (A) (A) (A) (A) (A) (A) (A)
                 (A) (A) (A) (A) (A) (A) (A) (A) (A) (A) (A) (A)
                 (A) (A) (A) (A) (A) (A) (A) (A) (A) (A) (A) (A)
                 (A) (A) (A) (A) (A) (A) (A) (A) (A) (A) (A) (A)
                 (A) (A) (A) (A) (A) (A) (A) (A) (A) (A) (A) (A)
                 (A) (A) (A) (A) (A) (A) (A) (A) (A) (A) (A) (A)
                 (A) (A) (A) (A) (A) (A) (A) (A) (A) (A) (A) (A)
                 (A) (A) (A) (A) (A) (A) (A) (A) (A) (A) (A) (A)
                 (A) (A) (A) (A) (A) (A) (A) (A) (A) (A) (A) (A)
                 (A) (A) (A) (A) (A) (A) (A) (A) (A) (A) (A) (A)
                 (A) (A) (A) (A) (A) (A) (A) (A) (A) (A) (A) (A)
                 (A) (A) (A) (A) (A) (A) (A) (A) (A) (A) (A) (A)
                 (A) (A) (A) (A) (A) (A) (A) (A) (A) (A) (A) (A)
                 (A) (A) (A) (A) (A) (A) (A) (A) (A) (A) (A) (A)
                 (A) (A) (A) (A) (A) (A) (A) (A) (A) (A) (A) (A)
                 (A) (A) (A) (A) (A) (A) (A) (A) (A) (A) (A) (A)
                 (A) (A) (A) (A) (A)
 Beta  Orbitals:
       Occupied  (A) (A) (A) (A) (A) (A) (A) (A) (A) (A) (A) (A)
                 (A) (A) (A) (A) (A) (A) (A) (A) (A) (A) (A) (A)
                 (A) (A) (A) (A) (A) (A) (A) (A) (A) (A) (A) (A)
                 (A) (A) (A) (A) (A) (A) (A) (A) (A) (A) (A) (A)
                 (A) (A) (A) (A) (A) (A) (A) (A) (A) (A) (A) (A)
                 (A) (A) (A) (A) (A) (A) (A) (A) (A) (A) (A) (A)
                 (A) (A) (A) (A) (A) (A) (A) (A) (A) (A) (A) (A)
                 (A) (A) (A) (A) (A) (A) (A) (A) (A) (A) (A) (A)
                 (A) (A) (A) (A) (A) (A) (A) (A) (A) (A) (A) (A)
                 (A)
       Virtual   (A) (A) (A) (A) (A) (A) (A) (A) (A) (A) (A) (A)
                 (A) (A) (A) (A) (A) (A) (A) (A) (A) (A) (A) (A)
                 (A) (A) (A) (A) (A) (A) (A) (A) (A) (A) (A) (A)
                 (A) (A) (A) (A) (A) (A) (A) (A) (A) (A) (A) (A)
                 (A) (A) (A) (A) (A) (A) (A) (A) (A) (A) (A) (A)
                 (A) (A) (A) (A) (A) (A) (A) (A) (A) (A) (A) (A)
                 (A) (A) (A) (A) (A) (A) (A) (A) (A) (A) (A) (A)
                 (A) (A) (A) (A) (A) (A) (A) (A) (A) (A) (A) (A)
                 (A) (A) (A) (A) (A) (A) (A) (A) (A) (A) (A) (A)
                 (A) (A) (A) (A) (A) (A) (A) (A) (A) (A) (A) (A)
                 (A) (A) (A) (A) (A) (A) (A) (A) (A) (A) (A) (A)
                 (A) (A) (A) (A) (A) (A) (A) (A) (A) (A) (A) (A)
                 (A) (A) (A) (A) (A) (A) (A) (A) (A) (A) (A) (A)
                 (A) (A) (A) (A) (A) (A) (A) (A) (A) (A) (A) (A)
                 (A) (A) (A) (A) (A) (A) (A) (A) (A) (A) (A) (A)
                 (A) (A) (A) (A) (A) (A) (A) (A) (A) (A) (A) (A)
                 (A) (A) (A) (A) (A) (A) (A) (A) (A) (A) (A) (A)
                 (A) (A) (A) (A) (A) (A) (A) (A) (A) (A) (A) (A)
                 (A) (A) (A) (A) (A) (A) (A) (A) (A) (A) (A) (A)
                 (A) (A) (A) (A) (A) (A) (A) (A) (A) (A) (A) (A)
                 (A) (A) (A) (A) (A) (A) (A) (A) (A) (A) (A) (A)
                 (A) (A) (A) (A) (A) (A) (A) (A) (A) (A) (A) (A)
                 (A) (A) (A) (A) (A) (A) (A) (A) (A) (A) (A) (A)
                 (A) (A) (A) (A) (A) (A) (A) (A) (A) (A) (A) (A)
                 (A) (A) (A) (A) (A) (A) (A) (A) (A) (A) (A) (A)
                 (A) (A) (A) (A) (A) (A) (A) (A) (A) (A) (A) (A)
                 (A) (A) (A) (A) (A) (A) (A) (A) (A) (A) (A) (A)
                 (A) (A) (A) (A) (A) (A) (A) (A) (A) (A) (A) (A)
                 (A) (A) (A) (A) (A) (A) (A) (A) (A) (A) (A) (A)
                 (A) (A) (A) (A) (A) (A) (A) (A) (A) (A) (A) (A)
                 (A) (A) (A) (A) (A) (A) (A) (A) (A) (A) (A) (A)
                 (A) (A) (A) (A) (A) (A) (A) (A) (A) (A) (A) (A)
                 (A) (A) (A) (A) (A) (A) (A) (A) (A) (A) (A) (A)
                 (A) (A) (A) (A) (A) (A) (A) (A) (A) (A) (A) (A)
                 (A) (A) (A) (A) (A) (A) (A) (A) (A) (A) (A) (A)
                 (A) (A) (A) (A) (A) (A) (A) (A) (A) (A) (A) (A)
                 (A) (A) (A) (A) (A) (A) (A) (A) (A) (A) (A) (A)
                 (A) (A) (A) (A) (A) (A) (A) (A) (A) (A) (A) (A)
                 (A) (A) (A) (A) (A) (A) (A) (A) (A) (A) (A) (A)
                 (A) (A) (A) (A) (A) (A) (A) (A) (A) (A) (A) (A)
                 (A) (A) (A) (A) (A) (A) (A) (A) (A) (A) (A) (A)
                 (A) (A) (A) (A) (A) (A) (A) (A) (A) (A) (A) (A)
                 (A) (A) (A) (A) (A) (A) (A) (A) (A) (A) (A) (A)
                 (A) (A) (A) (A) (A) (A) (A) (A) (A) (A) (A) (A)
                 (A) (A) (A) (A) (A) (A) (A) (A) (A) (A) (A) (A)
                 (A) (A) (A) (A) (A) (A) (A) (A) (A) (A) (A) (A)
                 (A) (A) (A) (A) (A) (A) (A) (A) (A) (A) (A) (A)
                 (A) (A) (A) (A) (A) (A) (A) (A) (A) (A) (A) (A)
                 (A) (A) (A) (A) (A) (A) (A) (A) (A) (A) (A) (A)
                 (A) (A) (A) (A) (A) (A) (A) (A) (A) (A) (A) (A)
                 (A) (A) (A) (A) (A) (A) (A) (A) (A) (A) (A) (A)
                 (A) (A) (A) (A) (A) (A) (A) (A) (A) (A) (A) (A)
                 (A) (A) (A) (A) (A)
 The electronic state is 1-A.
 Alpha  occ. eigenvalues --  -89.03421 -89.03421 -19.10265 -19.10264 -19.09707
 Alpha  occ. eigenvalues --  -19.09707 -19.02821 -19.02819 -10.19918 -10.19917
 Alpha  occ. eigenvalues --  -10.19586 -10.19585 -10.18373 -10.18372 -10.18131
 Alpha  occ. eigenvalues --  -10.18131 -10.17926 -10.17925 -10.17921 -10.17921
 Alpha  occ. eigenvalues --  -10.17757 -10.17757 -10.17633 -10.17632 -10.15957
 Alpha  occ. eigenvalues --  -10.15956 -10.13937 -10.13936  -8.09779  -8.09779
 Alpha  occ. eigenvalues --   -6.06078  -6.06077  -6.05962  -6.05961  -6.05846
 Alpha  occ. eigenvalues --   -6.05845  -1.08993  -1.08986  -0.98458  -0.98454
 Alpha  occ. eigenvalues --   -0.95621  -0.95238  -0.86515  -0.86514  -0.81473
 Alpha  occ. eigenvalues --   -0.77944  -0.76732  -0.76044  -0.75285  -0.75277
 Alpha  occ. eigenvalues --   -0.71397  -0.70881  -0.67261  -0.63926  -0.62374
 Alpha  occ. eigenvalues --   -0.61330  -0.61232  -0.60911  -0.58047  -0.55464
 Alpha  occ. eigenvalues --   -0.53270  -0.53025  -0.52144  -0.48887  -0.48309
 Alpha  occ. eigenvalues --   -0.47163  -0.46703  -0.46583  -0.46005  -0.45865
 Alpha  occ. eigenvalues --   -0.44688  -0.44544  -0.43724  -0.43688  -0.42819
 Alpha  occ. eigenvalues --   -0.42750  -0.40822  -0.39712  -0.39360  -0.38392
 Alpha  occ. eigenvalues --   -0.38078  -0.37898  -0.37400  -0.37215  -0.36740
 Alpha  occ. eigenvalues --   -0.36687  -0.35363  -0.35340  -0.35170  -0.34801
 Alpha  occ. eigenvalues --   -0.33605  -0.33541  -0.32269  -0.31985  -0.31023
 Alpha  occ. eigenvalues --   -0.30998  -0.29243  -0.29124  -0.28436  -0.27752
 Alpha  occ. eigenvalues --   -0.26518  -0.26293  -0.26150  -0.26015  -0.24041
 Alpha  occ. eigenvalues --   -0.23358  -0.21258  -0.20502  -0.13557
 Alpha virt. eigenvalues --   -0.04376  -0.02990  -0.01612  -0.01469  -0.01115
 Alpha virt. eigenvalues --   -0.00378   0.00263   0.00949   0.01167   0.01773
 Alpha virt. eigenvalues --    0.02142   0.02809   0.03091   0.03427   0.03791
 Alpha virt. eigenvalues --    0.03795   0.04070   0.04548   0.04898   0.05186
 Alpha virt. eigenvalues --    0.05288   0.05464   0.06076   0.06222   0.06668
 Alpha virt. eigenvalues --    0.06764   0.07128   0.07435   0.07736   0.08242
 Alpha virt. eigenvalues --    0.08316   0.08499   0.08605   0.09187   0.09294
 Alpha virt. eigenvalues --    0.09444   0.09810   0.09853   0.10399   0.10808
 Alpha virt. eigenvalues --    0.10973   0.11036   0.11251   0.11627   0.11763
 Alpha virt. eigenvalues --    0.11933   0.11935   0.12338   0.12438   0.12702
 Alpha virt. eigenvalues --    0.12903   0.12933   0.13339   0.13530   0.13766
 Alpha virt. eigenvalues --    0.13943   0.14146   0.14327   0.14588   0.14767
 Alpha virt. eigenvalues --    0.14983   0.15335   0.15487   0.15701   0.15972
 Alpha virt. eigenvalues --    0.16131   0.16310   0.16478   0.16722   0.16964
 Alpha virt. eigenvalues --    0.17320   0.17408   0.17802   0.17818   0.18163
 Alpha virt. eigenvalues --    0.18462   0.18609   0.18912   0.19028   0.19171
 Alpha virt. eigenvalues --    0.19648   0.19722   0.19898   0.20642   0.20756
 Alpha virt. eigenvalues --    0.20819   0.21309   0.21383   0.21560   0.21925
 Alpha virt. eigenvalues --    0.22338   0.22473   0.22681   0.23357   0.23432
 Alpha virt. eigenvalues --    0.23623   0.24247   0.24371   0.24535   0.24949
 Alpha virt. eigenvalues --    0.25214   0.25594   0.25681   0.25752   0.26521
 Alpha virt. eigenvalues --    0.26597   0.26679   0.26849   0.27532   0.27545
 Alpha virt. eigenvalues --    0.27639   0.27837   0.28053   0.28372   0.28421
 Alpha virt. eigenvalues --    0.29168   0.29403   0.29644   0.29793   0.29889
 Alpha virt. eigenvalues --    0.30365   0.30590   0.30781   0.30912   0.31253
 Alpha virt. eigenvalues --    0.31353   0.31752   0.31873   0.31988   0.33515
 Alpha virt. eigenvalues --    0.33663   0.33983   0.34066   0.34594   0.34896
 Alpha virt. eigenvalues --    0.35048   0.35248   0.35255   0.35867   0.36063
 Alpha virt. eigenvalues --    0.36153   0.36300   0.36930   0.37275   0.37280
 Alpha virt. eigenvalues --    0.37403   0.38090   0.38539   0.38883   0.38894
 Alpha virt. eigenvalues --    0.39601   0.40265   0.40544   0.40710   0.41129
 Alpha virt. eigenvalues --    0.41448   0.41795   0.41904   0.42652   0.43602
 Alpha virt. eigenvalues --    0.43631   0.43841   0.44679   0.45075   0.45528
 Alpha virt. eigenvalues --    0.45729   0.46688   0.47243   0.47893   0.48594
 Alpha virt. eigenvalues --    0.48715   0.49109   0.49988   0.50162   0.50708
 Alpha virt. eigenvalues --    0.50874   0.51482   0.53005   0.53118   0.53380
 Alpha virt. eigenvalues --    0.54427   0.54698   0.55300   0.55449   0.56078
 Alpha virt. eigenvalues --    0.56144   0.56409   0.56717   0.57166   0.57201
 Alpha virt. eigenvalues --    0.57392   0.57677   0.58420   0.58734   0.59233
 Alpha virt. eigenvalues --    0.59548   0.59568   0.60777   0.60975   0.61348
 Alpha virt. eigenvalues --    0.62499   0.62607   0.63380   0.63390   0.64051
 Alpha virt. eigenvalues --    0.65319   0.66509   0.67612   0.68651   0.68756
 Alpha virt. eigenvalues --    0.69342   0.69528   0.70094   0.70220   0.70688
 Alpha virt. eigenvalues --    0.70950   0.71095   0.71580   0.72585   0.72691
 Alpha virt. eigenvalues --    0.72750   0.72996   0.73625   0.73831   0.74239
 Alpha virt. eigenvalues --    0.74885   0.75482   0.75625   0.76345   0.76764
 Alpha virt. eigenvalues --    0.77665   0.78391   0.78416   0.78632   0.79859
 Alpha virt. eigenvalues --    0.80049   0.81068   0.81250   0.83127   0.83140
 Alpha virt. eigenvalues --    0.84084   0.84275   0.84876   0.85065   0.85464
 Alpha virt. eigenvalues --    0.85943   0.86496   0.86797   0.87496   0.87640
 Alpha virt. eigenvalues --    0.88075   0.88813   0.89533   0.89597   0.90294
 Alpha virt. eigenvalues --    0.90560   0.91398   0.91904   0.92485   0.92976
 Alpha virt. eigenvalues --    0.93729   0.94058   0.95483   0.96035   0.96574
 Alpha virt. eigenvalues --    0.97318   0.97716   0.98625   0.98996   1.00045
 Alpha virt. eigenvalues --    1.00194   1.01535   1.01905   1.01974   1.02706
 Alpha virt. eigenvalues --    1.03919   1.04663   1.04839   1.05873   1.05898
 Alpha virt. eigenvalues --    1.06977   1.07265   1.07950   1.08059   1.09498
 Alpha virt. eigenvalues --    1.09802   1.10397   1.10412   1.11026   1.13264
 Alpha virt. eigenvalues --    1.13294   1.13987   1.14446   1.15892   1.16097
 Alpha virt. eigenvalues --    1.16575   1.17368   1.18636   1.18998   1.19327
 Alpha virt. eigenvalues --    1.22014   1.22217   1.22595   1.23757   1.23862
 Alpha virt. eigenvalues --    1.25514   1.25617   1.26011   1.26174   1.26755
 Alpha virt. eigenvalues --    1.27375   1.28905   1.29384   1.30134   1.30275
 Alpha virt. eigenvalues --    1.31454   1.32491   1.33711   1.34768   1.35287
 Alpha virt. eigenvalues --    1.35786   1.37162   1.38381   1.39027   1.39942
 Alpha virt. eigenvalues --    1.39966   1.42235   1.42798   1.43587   1.44189
 Alpha virt. eigenvalues --    1.45492   1.48734   1.49858   1.51964   1.52020
 Alpha virt. eigenvalues --    1.52720   1.52761   1.53170   1.53720   1.53996
 Alpha virt. eigenvalues --    1.55029   1.55738   1.56798   1.57096   1.57558
 Alpha virt. eigenvalues --    1.58032   1.58378   1.59012   1.59895   1.61120
 Alpha virt. eigenvalues --    1.61188   1.62533   1.62994   1.63327   1.65092
 Alpha virt. eigenvalues --    1.65659   1.65802   1.66028   1.67011   1.68875
 Alpha virt. eigenvalues --    1.69333   1.70248   1.71067   1.72295   1.72664
 Alpha virt. eigenvalues --    1.73073   1.74658   1.74758   1.74926   1.76020
 Alpha virt. eigenvalues --    1.76766   1.77761   1.78420   1.78672   1.80058
 Alpha virt. eigenvalues --    1.80703   1.82296   1.82739   1.83838   1.84802
 Alpha virt. eigenvalues --    1.85318   1.85725   1.86755   1.87300   1.87899
 Alpha virt. eigenvalues --    1.88843   1.90013   1.91087   1.91533   1.92058
 Alpha virt. eigenvalues --    1.93025   1.93360   1.94096   1.94753   1.94824
 Alpha virt. eigenvalues --    1.95152   1.96058   1.96120   1.96860   1.97611
 Alpha virt. eigenvalues --    1.98336   1.98496   1.99303   1.99852   2.00759
 Alpha virt. eigenvalues --    2.00941   2.02466   2.02804   2.04086   2.06284
 Alpha virt. eigenvalues --    2.07828   2.08308   2.08575   2.09479   2.09934
 Alpha virt. eigenvalues --    2.10352   2.10426   2.12443   2.12509   2.13014
 Alpha virt. eigenvalues --    2.15799   2.17733   2.18745   2.21963   2.24172
 Alpha virt. eigenvalues --    2.26672   2.27689   2.27906   2.30482   2.31695
 Alpha virt. eigenvalues --    2.31958   2.34271   2.34350   2.34588   2.36656
 Alpha virt. eigenvalues --    2.37080   2.39152   2.39623   2.43831   2.43839
 Alpha virt. eigenvalues --    2.45234   2.46582   2.46854   2.47931   2.48443
 Alpha virt. eigenvalues --    2.49131   2.52445   2.53159   2.53307   2.58763
 Alpha virt. eigenvalues --    2.59387   2.61172   2.61618   2.62765   2.63160
 Alpha virt. eigenvalues --    2.64589   2.65761   2.66541   2.67074   2.67435
 Alpha virt. eigenvalues --    2.69157   2.69950   2.70386   2.70666   2.71410
 Alpha virt. eigenvalues --    2.72277   2.73310   2.73569   2.73774   2.74888
 Alpha virt. eigenvalues --    2.75534   2.76497   2.76610   2.78003   2.78351
 Alpha virt. eigenvalues --    2.78675   2.79288   2.81597   2.81704   2.82475
 Alpha virt. eigenvalues --    2.82536   2.82947   2.83132   2.83996   2.84148
 Alpha virt. eigenvalues --    2.84775   2.87200   2.87416   2.87627   2.88029
 Alpha virt. eigenvalues --    2.88669   2.89122   2.89191   2.90006   2.91178
 Alpha virt. eigenvalues --    2.91783   2.91849   2.93725   2.94154   2.94288
 Alpha virt. eigenvalues --    2.95044   2.95639   2.96517   2.97131   2.97352
 Alpha virt. eigenvalues --    2.98407   3.01514   3.02371   3.02981   3.03878
 Alpha virt. eigenvalues --    3.04283   3.04612   3.07457   3.10486   3.11537
 Alpha virt. eigenvalues --    3.11693   3.12377   3.13328   3.13919   3.16116
 Alpha virt. eigenvalues --    3.16663   3.20237   3.21084   3.21846   3.21979
 Alpha virt. eigenvalues --    3.23779   3.26519   3.27587   3.28891   3.29994
 Alpha virt. eigenvalues --    3.33106   3.36002   3.36450   3.38295   3.38714
 Alpha virt. eigenvalues --    3.39144   3.39484   3.47991   3.48942   3.50798
 Alpha virt. eigenvalues --    3.51077   3.52841   3.53451   3.55162   3.55207
 Alpha virt. eigenvalues --    3.59223   3.60632   3.62461   3.63055   3.64812
 Alpha virt. eigenvalues --    3.65264   3.66081   3.79772   3.80298   3.81067
 Alpha virt. eigenvalues --    3.81361   3.83373   3.90819   3.92587   3.99829
 Alpha virt. eigenvalues --    4.00973   4.01014   4.04675   4.04715   4.10868
 Alpha virt. eigenvalues --    4.15760   4.15986   4.17812   4.17918   4.32521
 Alpha virt. eigenvalues --    4.33589   4.39077   4.84326   4.84439   4.85376
 Alpha virt. eigenvalues --    5.11181   5.11325   5.14226   5.14724   5.14828
 Alpha virt. eigenvalues --    5.15422   5.17598   5.19601   5.19976   5.20041
 Alpha virt. eigenvalues --    5.20449   5.21780   5.34166   5.34977   5.39343
 Alpha virt. eigenvalues --    5.41625   5.80141   5.89349   8.23520   8.25123
 Alpha virt. eigenvalues --   17.45090  17.45654  17.48873  17.50268  17.58639
 Alpha virt. eigenvalues --   17.62060  23.57267  23.61470  23.61480  23.86797
 Alpha virt. eigenvalues --   23.94469  23.95475  23.95814  23.96466  23.97842
 Alpha virt. eigenvalues --   23.98441  23.99179  24.01176  24.06686  24.07577
 Alpha virt. eigenvalues --   24.07646  24.08956  24.09515  24.09806  24.18932
 Alpha virt. eigenvalues --   24.18952  49.93835  49.94423  49.97033  49.97354
 Alpha virt. eigenvalues --   50.09883  50.13250 189.35985 189.37490
  Beta  occ. eigenvalues --  -89.03421 -89.03421 -19.10265 -19.10264 -19.09707
  Beta  occ. eigenvalues --  -19.09707 -19.02821 -19.02819 -10.19918 -10.19917
  Beta  occ. eigenvalues --  -10.19586 -10.19585 -10.18373 -10.18372 -10.18131
  Beta  occ. eigenvalues --  -10.18131 -10.17926 -10.17925 -10.17921 -10.17921
  Beta  occ. eigenvalues --  -10.17757 -10.17757 -10.17633 -10.17632 -10.15957
  Beta  occ. eigenvalues --  -10.15956 -10.13937 -10.13936  -8.09779  -8.09779
  Beta  occ. eigenvalues --   -6.06078  -6.06077  -6.05962  -6.05961  -6.05846
  Beta  occ. eigenvalues --   -6.05845  -1.08993  -1.08986  -0.98458  -0.98454
  Beta  occ. eigenvalues --   -0.95621  -0.95238  -0.86515  -0.86514  -0.81473
  Beta  occ. eigenvalues --   -0.77944  -0.76732  -0.76044  -0.75285  -0.75277
  Beta  occ. eigenvalues --   -0.71397  -0.70881  -0.67261  -0.63926  -0.62374
  Beta  occ. eigenvalues --   -0.61330  -0.61232  -0.60911  -0.58047  -0.55464
  Beta  occ. eigenvalues --   -0.53270  -0.53025  -0.52144  -0.48887  -0.48309
  Beta  occ. eigenvalues --   -0.47163  -0.46703  -0.46583  -0.46005  -0.45865
  Beta  occ. eigenvalues --   -0.44688  -0.44544  -0.43724  -0.43688  -0.42819
  Beta  occ. eigenvalues --   -0.42750  -0.40822  -0.39712  -0.39360  -0.38392
  Beta  occ. eigenvalues --   -0.38078  -0.37898  -0.37400  -0.37215  -0.36740
  Beta  occ. eigenvalues --   -0.36687  -0.35363  -0.35340  -0.35170  -0.34801
  Beta  occ. eigenvalues --   -0.33605  -0.33541  -0.32269  -0.31985  -0.31023
  Beta  occ. eigenvalues --   -0.30998  -0.29243  -0.29124  -0.28436  -0.27752
  Beta  occ. eigenvalues --   -0.26518  -0.26293  -0.26150  -0.26015  -0.24041
  Beta  occ. eigenvalues --   -0.23358  -0.21258  -0.20502  -0.13557
  Beta virt. eigenvalues --   -0.04376  -0.02990  -0.01612  -0.01469  -0.01115
  Beta virt. eigenvalues --   -0.00378   0.00263   0.00949   0.01167   0.01773
  Beta virt. eigenvalues --    0.02142   0.02809   0.03091   0.03427   0.03791
  Beta virt. eigenvalues --    0.03795   0.04070   0.04548   0.04898   0.05186
  Beta virt. eigenvalues --    0.05288   0.05464   0.06076   0.06222   0.06668
  Beta virt. eigenvalues --    0.06764   0.07128   0.07435   0.07736   0.08242
  Beta virt. eigenvalues --    0.08316   0.08499   0.08605   0.09187   0.09294
  Beta virt. eigenvalues --    0.09444   0.09810   0.09853   0.10399   0.10808
  Beta virt. eigenvalues --    0.10973   0.11036   0.11251   0.11627   0.11763
  Beta virt. eigenvalues --    0.11933   0.11935   0.12338   0.12438   0.12702
  Beta virt. eigenvalues --    0.12903   0.12933   0.13339   0.13530   0.13766
  Beta virt. eigenvalues --    0.13943   0.14146   0.14327   0.14588   0.14767
  Beta virt. eigenvalues --    0.14983   0.15335   0.15487   0.15701   0.15972
  Beta virt. eigenvalues --    0.16131   0.16310   0.16478   0.16722   0.16964
  Beta virt. eigenvalues --    0.17320   0.17408   0.17802   0.17818   0.18163
  Beta virt. eigenvalues --    0.18462   0.18609   0.18912   0.19028   0.19171
[...]
    40  H(1)               0.00000       0.00000       0.00000       0.00000
    41  H(1)              -0.00000      -0.00000      -0.00000      -0.00000
    42  H(1)              -0.00000      -0.00000      -0.00000      -0.00000
    43  H(1)               0.00000       0.00000       0.00000       0.00000
    44  H(1)               0.00000       0.00000       0.00000       0.00000
 --------------------------------------------------------
       Center         ----  Spin Dipole Couplings  ----
                      3XX-RR        3YY-RR        3ZZ-RR
 --------------------------------------------------------
     1   Atom       -0.000000      0.000000     -0.000000
     2   Atom       -0.000000      0.000000      0.000000
     3   Atom        0.000000      0.000000     -0.000000
     4   Atom       -0.000000      0.000000     -0.000000
     5   Atom       -0.000000     -0.000000      0.000000
     6   Atom       -0.000000     -0.000000      0.000000
     7   Atom       -0.000000     -0.000000      0.000000
     8   Atom        0.000000      0.000000     -0.000000
     9   Atom       -0.000000     -0.000000      0.000000
    10   Atom        0.000000     -0.000000      0.000000
    11   Atom        0.000000     -0.000000     -0.000000
    12   Atom       -0.000000      0.000000      0.000000
    13   Atom        0.000000      0.000000     -0.000000
    14   Atom        0.000000     -0.000000     -0.000000
    15   Atom       -0.000000      0.000000     -0.000000
    16   Atom       -0.000000     -0.000000      0.000000
    17   Atom        0.000000     -0.000000     -0.000000
    18   Atom        0.000000      0.000000     -0.000000
    19   Atom       -0.000000     -0.000000      0.000000
    20   Atom        0.000000      0.000000     -0.000000
    21   Atom        0.000000     -0.000000      0.000000
    22   Atom       -0.000000     -0.000000      0.000000
    23   Atom        0.000000      0.000000     -0.000000
    24   Atom       -0.000000      0.000000      0.000000
    25   Atom        0.000000     -0.000000     -0.000000
    26   Atom       -0.000000      0.000000     -0.000000
    27   Atom        0.000000      0.000000     -0.000000
    28   Atom        0.000000     -0.000000     -0.000000
    29   Atom        0.000000     -0.000000      0.000000
    30   Atom       -0.000000      0.000000     -0.000000
    31   Atom       -0.000000      0.000000     -0.000000
    32   Atom       -0.000000     -0.000000      0.000000
    33   Atom        0.000000     -0.000000     -0.000000
    34   Atom        0.000000     -0.000000     -0.000000
    35   Atom        0.000000     -0.000000     -0.000000
    36   Atom       -0.000000      0.000000     -0.000000
    37   Atom        0.000000     -0.000000     -0.000000
    38   Atom       -0.000000      0.000000      0.000000
    39   Atom        0.000000     -0.000000     -0.000000
    40   Atom        0.000000      0.000000     -0.000000
    41   Atom        0.000000      0.000000     -0.000000
    42   Atom        0.000000      0.000000     -0.000000
    43   Atom        0.000000      0.000000     -0.000000
    44   Atom        0.000000      0.000000     -0.000000
 --------------------------------------------------------
                        XY            XZ            YZ
 --------------------------------------------------------
     1   Atom        0.000000     -0.000000     -0.000000
     2   Atom       -0.000000     -0.000000     -0.000000
     3   Atom       -0.000000     -0.000000     -0.000000
     4   Atom       -0.000000      0.000000      0.000000
     5   Atom       -0.000000      0.000000      0.000000
     6   Atom       -0.000000     -0.000000      0.000000
     7   Atom       -0.000000     -0.000000     -0.000000
     8   Atom       -0.000000     -0.000000     -0.000000
     9   Atom       -0.000000      0.000000     -0.000000
    10   Atom       -0.000000      0.000000      0.000000
    11   Atom       -0.000000      0.000000     -0.000000
    12   Atom       -0.000000     -0.000000     -0.000000
    13   Atom       -0.000000     -0.000000      0.000000
    14   Atom        0.000000     -0.000000     -0.000000
    15   Atom        0.000000     -0.000000      0.000000
    16   Atom       -0.000000      0.000000     -0.000000
    17   Atom       -0.000000      0.000000     -0.000000
    18   Atom        0.000000      0.000000      0.000000
    19   Atom        0.000000      0.000000     -0.000000
    20   Atom       -0.000000      0.000000      0.000000
    21   Atom        0.000000      0.000000     -0.000000
    22   Atom       -0.000000      0.000000      0.000000
    23   Atom       -0.000000     -0.000000     -0.000000
    24   Atom        0.000000     -0.000000     -0.000000
    25   Atom       -0.000000      0.000000      0.000000
    26   Atom        0.000000     -0.000000      0.000000
    27   Atom        0.000000      0.000000     -0.000000
    28   Atom       -0.000000      0.000000      0.000000
    29   Atom        0.000000      0.000000     -0.000000
    30   Atom        0.000000      0.000000      0.000000
    31   Atom       -0.000000     -0.000000      0.000000
    32   Atom       -0.000000     -0.000000     -0.000000
    33   Atom        0.000000     -0.000000     -0.000000
    34   Atom       -0.000000      0.000000      0.000000
    35   Atom       -0.000000     -0.000000     -0.000000
    36   Atom        0.000000     -0.000000      0.000000
    37   Atom        0.000000     -0.000000     -0.000000
    38   Atom       -0.000000      0.000000      0.000000
    39   Atom        0.000000     -0.000000      0.000000
    40   Atom       -0.000000      0.000000     -0.000000
    41   Atom        0.000000     -0.000000     -0.000000
    42   Atom        0.000000     -0.000000     -0.000000
    43   Atom        0.000000     -0.000000      0.000000
    44   Atom        0.000000     -0.000000      0.000000
 --------------------------------------------------------


 ---------------------------------------------------------------------------------
              Anisotropic Spin Dipole Couplings in Principal Axis System
 ---------------------------------------------------------------------------------

       Atom             a.u.   MegaHertz   Gauss  10(-4) cm-1        Axes

              Baa    -0.0000    -0.000    -0.000    -0.000  0.9608 -0.2758  0.0298
     1 C(13)  Bbb    -0.0000    -0.000    -0.000    -0.000 -0.0024  0.0992  0.9951
              Bcc     0.0000     0.000     0.000     0.000  0.2773  0.9561 -0.0946
 
              Baa    -0.0000    -0.000    -0.000    -0.000  0.8521  0.4323  0.2952
     2 C(13)  Bbb     0.0000     0.000     0.000     0.000 -0.2781 -0.1040  0.9549
              Bcc     0.0000     0.000     0.000     0.000 -0.4435  0.8957 -0.0316
 
              Baa    -0.0000    -0.000    -0.000    -0.000  0.4565  0.3699  0.8092
     3 C(13)  Bbb     0.0000     0.000     0.000     0.000  0.4898  0.6548 -0.5756
              Bcc     0.0000     0.000     0.000     0.000  0.7428 -0.6591 -0.1177
 
              Baa    -0.0000    -0.000    -0.000    -0.000 -0.5614 -0.2279  0.7956
     4 C(13)  Bbb     0.0000     0.000     0.000     0.000  0.8153  0.0123  0.5789
              Bcc     0.0000     0.000     0.000     0.000 -0.1417  0.9736  0.1789
 
              Baa    -0.0000    -0.000    -0.000    -0.000  0.2713  0.9252 -0.2654
     5 C(13)  Bbb    -0.0000    -0.000    -0.000    -0.000  0.9554 -0.2922 -0.0418
              Bcc     0.0000     0.000     0.000     0.000  0.1162  0.2422  0.9632
 
              Baa    -0.0000    -0.000    -0.000    -0.000  0.6588  0.7279  0.1902
     6 C(13)  Bbb     0.0000     0.000     0.000     0.000  0.2983 -0.4849  0.8221
              Bcc     0.0000     0.000     0.000     0.000  0.6907 -0.4848 -0.5366
 
              Baa    -0.0000     0.000     0.000     0.000  0.9013  0.3524  0.2520
     7 O(17)  Bbb    -0.0000     0.000     0.000     0.000 -0.3711  0.9281  0.0294
              Bcc     0.0000    -0.000    -0.000    -0.000 -0.2236 -0.1200  0.9673
 
              Baa    -0.0000     0.000     0.000     0.000  0.5074  0.2388  0.8279
     8 O(17)  Bbb     0.0000    -0.000    -0.000    -0.000 -0.3718  0.9275 -0.0397
              Bcc     0.0000    -0.000    -0.000    -0.000  0.7774  0.2877 -0.5594
 
              Baa    -0.0000    -0.000    -0.000    -0.000 -0.1272  0.9726  0.1947
     9 S(33)  Bbb    -0.0000    -0.000    -0.000    -0.000  0.8620  0.2055 -0.4634
              Bcc     0.0000     0.000     0.000     0.000  0.4907 -0.1089  0.8645
 
              Baa    -0.0000    -0.000    -0.000    -0.000  0.1248  0.8890 -0.4406
    10 C(13)  Bbb     0.0000     0.000     0.000     0.000 -0.3505  0.4550  0.8186
              Bcc     0.0000     0.000     0.000     0.000  0.9282  0.0522  0.3684
 
              Baa    -0.0000    -0.000    -0.000    -0.000 -0.0696  0.5535  0.8299
    11 C(13)  Bbb    -0.0000    -0.000    -0.000    -0.000  0.4446  0.7620 -0.4709
              Bcc     0.0000     0.000     0.000     0.000  0.8930 -0.3362  0.2991
 
              Baa    -0.0000    -0.000    -0.000    -0.000  0.7540  0.4783  0.4502
    12 C(13)  Bbb     0.0000     0.000     0.000     0.000 -0.6367  0.7008  0.3217
              Bcc     0.0000     0.000     0.000     0.000 -0.1616 -0.5292  0.8330
 
              Baa    -0.0000    -0.000    -0.000    -0.000  0.0501 -0.5567  0.8292
    13 C(13)  Bbb    -0.0000    -0.000    -0.000    -0.000  0.7633  0.5567  0.3277
              Bcc     0.0000     0.000     0.000     0.000  0.6440 -0.6165 -0.4529
 
              Baa    -0.0000    -0.000    -0.000    -0.000 -0.0308  0.9158  0.4005
    14 C(13)  Bbb    -0.0000    -0.000    -0.000    -0.000  0.2101 -0.3858  0.8984
              Bcc     0.0000     0.000     0.000     0.000  0.9772  0.1118 -0.1805
 
              Baa    -0.0000    -0.000    -0.000    -0.000  0.7417 -0.2325  0.6292
    15 C(13)  Bbb     0.0000     0.000     0.000     0.000 -0.6219  0.1133  0.7749
              Bcc     0.0000     0.000     0.000     0.000  0.2515  0.9660  0.0606
 
              Baa    -0.0000     0.000     0.000     0.000  0.7522  0.6527  0.0901
    16 O(17)  Bbb    -0.0000     0.000     0.000     0.000 -0.6199  0.6547  0.4325
              Bcc     0.0000    -0.000    -0.000    -0.000  0.2233 -0.3812  0.8971
 
              Baa    -0.0000     0.000     0.000     0.000  0.2042  0.6886  0.6959
    17 O(17)  Bbb    -0.0000     0.000     0.000     0.000 -0.3778 -0.6003  0.7049
              Bcc     0.0000    -0.000    -0.000    -0.000  0.9031 -0.4068  0.1376
 
              Baa    -0.0000    -0.000    -0.000    -0.000 -0.2078 -0.3300  0.9208
    18 H(1)   Bbb     0.0000     0.000     0.000     0.000 -0.3828  0.8937  0.2339
              Bcc     0.0000     0.000     0.000     0.000  0.9001  0.3039  0.3120
 
              Baa    -0.0000    -0.000    -0.000    -0.000 -0.3788  0.6929  0.6136
    19 H(1)   Bbb     0.0000     0.000     0.000     0.000  0.9181  0.3650  0.1546
              Bcc     0.0000     0.000     0.000     0.000  0.1168 -0.6218  0.7744
 
              Baa    -0.0000    -0.000    -0.000    -0.000 -0.3282 -0.1677  0.9296
    20 H(1)   Bbb     0.0000     0.000     0.000     0.000  0.9422 -0.1282  0.3095
              Bcc     0.0000     0.000     0.000     0.000  0.0673  0.9775  0.2001
 
              Baa    -0.0000    -0.000    -0.000    -0.000 -0.4477  0.8382  0.3115
    21 H(1)   Bbb     0.0000     0.000     0.000     0.000  0.8193  0.2450  0.5185
              Bcc     0.0000     0.000     0.000     0.000 -0.3582 -0.4873  0.7964
 
              Baa    -0.0000    -0.000    -0.000    -0.000  0.4667  0.7998 -0.3774
    22 H(1)   Bbb     0.0000     0.000     0.000     0.000  0.8699 -0.3382  0.3591
              Bcc     0.0000     0.000     0.000     0.000 -0.1596  0.4959  0.8536
 
              Baa    -0.0000    -0.000    -0.000    -0.000  0.6016  0.1973  0.7740
    23 S(33)  Bbb     0.0000     0.000     0.000     0.000  0.1545  0.9219 -0.3552
              Bcc     0.0000     0.000     0.000     0.000  0.7837 -0.3333 -0.5242
 
              Baa    -0.0000    -0.000    -0.000    -0.000  0.8528 -0.5157  0.0823
    24 C(13)  Bbb     0.0000     0.000     0.000     0.000  0.0349  0.2135  0.9763
              Bcc     0.0000     0.000     0.000     0.000  0.5210  0.8298 -0.2001
 
              Baa    -0.0000    -0.000    -0.000    -0.000 -0.3122 -0.4569  0.8330
    25 C(13)  Bbb    -0.0000    -0.000    -0.000    -0.000  0.2721  0.7970  0.5392
              Bcc     0.0000     0.000     0.000     0.000  0.9102 -0.3950  0.1245
 
              Baa    -0.0000    -0.000    -0.000    -0.000  0.6980 -0.2110  0.6844
    26 C(13)  Bbb     0.0000     0.000     0.000     0.000 -0.2873  0.7929  0.5374
              Bcc     0.0000     0.000     0.000     0.000  0.6560  0.5717 -0.4928
 
              Baa    -0.0000    -0.000    -0.000    -0.000 -0.0612  0.2180  0.9740
    27 C(13)  Bbb     0.0000     0.000     0.000     0.000 -0.6391  0.7410 -0.2060
              Bcc     0.0000     0.000     0.000     0.000  0.7666  0.6352 -0.0939
 
              Baa    -0.0000    -0.000    -0.000    -0.000  0.1786  0.7340 -0.6553
    28 C(13)  Bbb     0.0000     0.000     0.000     0.000 -0.3312  0.6720  0.6624
              Bcc     0.0000     0.000     0.000     0.000  0.9265  0.0987  0.3631
 
              Baa    -0.0000    -0.000    -0.000    -0.000 -0.2611  0.8914  0.3704
    29 C(13)  Bbb     0.0000     0.000     0.000     0.000  0.8054  0.4127 -0.4254
              Bcc     0.0000     0.000     0.000     0.000  0.5321 -0.1873  0.8257
 
              Baa    -0.0000    -0.000    -0.000    -0.000 -0.0811 -0.0870  0.9929
    30 H(1)   Bbb    -0.0000    -0.000    -0.000    -0.000  0.9908 -0.1151  0.0708
              Bcc     0.0000     0.000     0.000     0.000  0.1081  0.9895  0.0955
 
              Baa    -0.0000    -0.000    -0.000    -0.000  0.8074  0.3179  0.4970
    31 H(1)   Bbb    -0.0000    -0.000    -0.000    -0.000 -0.2497 -0.5791  0.7761
              Bcc     0.0000     0.000     0.000     0.000 -0.5345  0.7507  0.3882
 
              Baa    -0.0000    -0.000    -0.000    -0.000  0.3191  0.9063  0.2771
    32 H(1)   Bbb    -0.0000    -0.000    -0.000    -0.000  0.8999 -0.3815  0.2114
              Bcc     0.0000     0.000     0.000     0.000 -0.2973 -0.1819  0.9373
 
              Baa    -0.0000    -0.000    -0.000    -0.000 -0.5577  0.7859  0.2670
    33 H(1)   Bbb    -0.0000    -0.000    -0.000    -0.000  0.4558  0.0211  0.8898
              Bcc     0.0000     0.000     0.000     0.000  0.6937  0.6180 -0.3700
 
              Baa    -0.0000    -0.000    -0.000    -0.000  0.1865  0.7534 -0.6306
    34 H(1)   Bbb     0.0000     0.000     0.000     0.000  0.8584 -0.4371 -0.2683
              Bcc     0.0000     0.000     0.000     0.000  0.4778  0.4912  0.7283
 
              Baa    -0.0000     0.000     0.000     0.000  0.4373  0.6426  0.6292
    35 O(17)  Bbb    -0.0000     0.000     0.000     0.000 -0.0933 -0.6634  0.7424
              Bcc     0.0000    -0.000    -0.000    -0.000  0.8945 -0.3833 -0.2302
 
              Baa    -0.0000     0.000     0.000     0.000  0.7797 -0.1429  0.6096
    36 O(17)  Bbb     0.0000    -0.000    -0.000    -0.000 -0.5622  0.2688  0.7821
              Bcc     0.0000    -0.000    -0.000    -0.000  0.2756  0.9525 -0.1293
 
              Baa    -0.0000    -0.000    -0.000    -0.000 -0.5219  0.8407  0.1441
    37 C(13)  Bbb    -0.0000    -0.000    -0.000    -0.000  0.1863 -0.0525  0.9811
              Bcc     0.0000     0.000     0.000     0.000  0.8324  0.5389 -0.1293
 
              Baa    -0.0000    -0.000    -0.000    -0.000  0.8300  0.5361 -0.1540
    38 C(13)  Bbb     0.0000     0.000     0.000     0.000  0.4510 -0.4825  0.7509
              Bcc     0.0000     0.000     0.000     0.000 -0.3283  0.6927  0.6422
 
              Baa    -0.0000    -0.000    -0.000    -0.000  0.0207 -0.1579  0.9872
    39 H(1)   Bbb    -0.0000    -0.000    -0.000    -0.000 -0.1878  0.9693  0.1590
              Bcc     0.0000     0.000     0.000     0.000  0.9820  0.1887  0.0096
 
              Baa    -0.0000    -0.000    -0.000    -0.000  0.2229  0.5855  0.7794
    40 H(1)   Bbb     0.0000     0.000     0.000     0.000  0.6488  0.5076 -0.5669
              Bcc     0.0000     0.000     0.000     0.000  0.7275 -0.6321  0.2667
 
              Baa    -0.0000    -0.000    -0.000    -0.000  0.0421  0.4058  0.9130
    41 H(1)   Bbb     0.0000     0.000     0.000     0.000  0.9924 -0.1230  0.0089
              Bcc     0.0000     0.000     0.000     0.000  0.1159  0.9056 -0.4079
 
              Baa    -0.0000    -0.000    -0.000    -0.000  0.1269  0.0283  0.9915
    42 H(1)   Bbb     0.0000     0.000     0.000     0.000 -0.3014  0.9534  0.0113
              Bcc     0.0000     0.000     0.000     0.000  0.9450  0.3003 -0.1295
 
              Baa    -0.0000    -0.000    -0.000    -0.000  0.1113 -0.3472  0.9312
    43 H(1)   Bbb     0.0000     0.000     0.000     0.000  0.9529 -0.2288 -0.1992
              Bcc     0.0000     0.000     0.000     0.000  0.2822  0.9095  0.3054
 
              Baa    -0.0000    -0.000    -0.000    -0.000  0.0832 -0.3676  0.9263
    44 H(1)   Bbb     0.0000     0.000     0.000     0.000  0.9854  0.1688 -0.0215
              Bcc     0.0000     0.000     0.000     0.000 -0.1484  0.9145  0.3763
 

 ---------------------------------------------------------------------------------

 No NMR shielding tensors so no spin-rotation constants.
 Leave Link  601 at Wed Jan 24 23:10:25 2024, MaxMem=  4026531840 cpu:              16.8 elap:               2.5
 (Enter /sysapps/ubuntu-applications/gaussian/Gaussian/AVX2/g16/l9999.exe)
 1\1\GINC-ACIDSCN003\SP\UB3LYP\6-311++G(d,p)\C20H16O6S2(2-)\SELHAJJ1\24
 -Jan-2024\0\\#P UB3LYP/6-311++G(d,p) SCRF=(PCM,Solvent=n,n-DiMethylFor
 mamide)\\Reduced\\-2,1\C,0,0.903455,1.166296,-1.453864\C,0,-0.464669,1
 .071804,-1.896438\C,0,-1.381271,0.34315,-1.116935\C,0,-1.061231,-0.387
 742,0.085832\C,0,0.302166,-0.276797,0.539025\C,0,1.20521,0.49944,-0.20
 9855\O,0,1.797892,1.805911,-2.117682\O,0,-1.938938,-1.08627,0.711557\S
 ,0,2.906848,0.744431,0.331191\C,0,3.18992,2.551329,0.358516\C,0,3.6907
 91,3.216931,-0.759675\C,0,2.937566,3.233455,1.545981\C,0,3.186276,4.60
 4813,1.621236\C,0,3.949271,4.585484,-0.671621\C,0,3.694962,5.281847,0.
 511067\O,0,3.90423,0.163616,-0.592063\O,0,3.042042,0.359178,1.759863\H
 ,0,3.844897,2.657773,-1.670263\H,0,2.559887,2.682396,2.398387\H,0,4.33
 4492,5.113058,-1.539158\H,0,2.984652,5.14021,2.544259\H,0,3.885084,6.3
 50289,0.565489\S,0,-3.123333,0.23984,-1.567181\C,0,-4.074616,0.759719,
 -0.093955\C,0,-4.40401,2.107147,0.028166\C,0,-4.500756,-0.172433,0.851
 402\C,0,-5.278062,0.26209,1.925854\C,0,-5.170358,2.535395,1.113292\C,0
 ,-5.610047,1.610944,2.062842\H,0,-4.066119,2.801608,-0.731081\H,0,-4.1
 99131,-1.202675,0.736457\H,0,-5.610129,-0.45613,2.669657\H,0,-5.423504
 ,3.586597,1.2141\H,0,-6.202938,1.942345,2.910974\O,0,-3.560856,-1.1313
 61,-1.903281\O,0,-3.448437,1.289298,-2.567574\C,0,-0.758478,1.747294,-
 3.215049\C,0,0.63006,-1.071485,1.780949\H,0,0.202765,2.018034,-3.65515
 3\H,0,-1.356697,2.656809,-3.091187\H,0,-1.319644,1.104614,-3.897261\H,
 0,-0.22179,-1.725619,1.974433\H,0,0.785908,-0.429702,2.655149\H,0,1.54
 2771,-1.66147,1.67011\\Version=ES64L-G16RevA.03\State=1-A\HF=-2019.999
 1797\S2=0.\S2-1=0.\S2A=0.\RMSD=1.820e-09\Dipole=-1.4350176,4.9911053,3
 .2186655\Quadrupole=-30.3585822,19.5803263,10.7782559,-5.3137296,-15.6
 450636,3.6785097\PG=C01 [X(C20H16O6S2)]\\@


 NOT WHAT WE DID SHALL BE THE TEST
 WHEN ACT AND WILL ARE DONE,
 BUT WHAT OUR LORD INFERS WE WOULD-
 HAD WE DIVINER BEEN.
           EMILY DICKINSON  POEMS NO. CLXXV
 Job cpu time:       0 days  2 hours 59 minutes 26.1 seconds.
 Elapsed time:       0 days  0 hours 22 minutes 33.9 seconds.
 File lengths (MBytes):  RWF=    715 Int=      0 D2E=      0 Chk=     41 Scr=      1
 Normal termination of Gaussian 16 at Wed Jan 24 23:10:25 2024.
