 Entering Gaussian System, Link 0=g16
 Input=312-an-PCM.com
 Output=312-an-PCM.log
 Initial command:
 /sysapps/ubuntu-applications/gaussian/Gaussian/AVX2/g16/l1.exe "/scratch/selhajj1/4334770/Gau-4007556.inp" -scrdir="/scratch/selhajj1/4334770/"
 Entering Link 1 = /sysapps/ubuntu-applications/gaussian/Gaussian/AVX2/g16/l1.exe PID=   4007574.
  
 Copyright (c) 1988,1990,1992,1993,1995,1998,2003,2009,2016,
            Gaussian, Inc.  All Rights Reserved.
  
 This is part of the Gaussian(R) 16 program.  It is based on
 the Gaussian(R) 09 system (copyright 2009, Gaussian, Inc.),
 the Gaussian(R) 03 system (copyright 2003, Gaussian, Inc.),
 the Gaussian(R) 98 system (copyright 1998, Gaussian, Inc.),
 the Gaussian(R) 94 system (copyright 1995, Gaussian, Inc.),
 the Gaussian 92(TM) system (copyright 1992, Gaussian, Inc.),
 the Gaussian 90(TM) system (copyright 1990, Gaussian, Inc.),
 the Gaussian 88(TM) system (copyright 1988, Gaussian, Inc.),
 the Gaussian 86(TM) system (copyright 1986, Carnegie Mellon
 University), and the Gaussian 82(TM) system (copyright 1983,
 Carnegie Mellon University). Gaussian is a federally registered
 trademark of Gaussian, Inc.
  
 This software contains proprietary and confidential information,
 including trade secrets, belonging to Gaussian, Inc.
  
 This software is provided under written license and may be
 used, copied, transmitted, or stored only in accord with that
 written license.
  
 The following legend is applicable only to US Government
 contracts under FAR:
  
                    RESTRICTED RIGHTS LEGEND
  
 Use, reproduction and disclosure by the US Government is
 subject to restrictions as set forth in subparagraphs (a)
 and (c) of the Commercial Computer Software - Restricted
 Rights clause in FAR 52.227-19.
  
 Gaussian, Inc.
 340 Quinnipiac St., Bldg. 40, Wallingford CT 06492
  
  
 ---------------------------------------------------------------
 Warning -- This program may not be used in any manner that
 competes with the business of Gaussian, Inc. or will provide
 assistance to any competitor of Gaussian, Inc.  The licensee
 of this program is prohibited from giving any competitor of
 Gaussian, Inc. access to this program.  By using this program,
 the user acknowledges that Gaussian, Inc. is engaged in the
 business of creating and licensing software in the field of
 computational chemistry and represents and warrants to the
 licensee that it is not a competitor of Gaussian, Inc. and that
 it will not use this program in any manner prohibited above.
 ---------------------------------------------------------------
  

 Cite this work as:
 Gaussian 16, Revision A.03,
 M. J. Frisch, G. W. Trucks, H. B. Schlegel, G. E. Scuseria, 
 M. A. Robb, J. R. Cheeseman, G. Scalmani, V. Barone, 
 G. A. Petersson, H. Nakatsuji, X. Li, M. Caricato, A. V. Marenich, 
 J. Bloino, B. G. Janesko, R. Gomperts, B. Mennucci, H. P. Hratchian, 
 J. V. Ortiz, A. F. Izmaylov, J. L. Sonnenberg, D. Williams-Young, 
 F. Ding, F. Lipparini, F. Egidi, J. Goings, B. Peng, A. Petrone, 
 T. Henderson, D. Ranasinghe, V. G. Zakrzewski, J. Gao, N. Rega, 
 G. Zheng, W. Liang, M. Hada, M. Ehara, K. Toyota, R. Fukuda, 
 J. Hasegawa, M. Ishida, T. Nakajima, Y. Honda, O. Kitao, H. Nakai, 
 T. Vreven, K. Throssell, J. A. Montgomery, Jr., J. E. Peralta, 
 F. Ogliaro, M. J. Bearpark, J. J. Heyd, E. N. Brothers, K. N. Kudin, 
 V. N. Staroverov, T. A. Keith, R. Kobayashi, J. Normand, 
 K. Raghavachari, A. P. Rendell, J. C. Burant, S. S. Iyengar, 
 J. Tomasi, M. Cossi, J. M. Millam, M. Klene, C. Adamo, R. Cammi, 
 J. W. Ochterski, R. L. Martin, K. Morokuma, O. Farkas, 
 J. B. Foresman, and D. J. Fox, Gaussian, Inc., Wallingford CT, 2016.
 
 ******************************************
 Gaussian 16:  ES64L-G16RevA.03 25-Dec-2016
                25-Jan-2024 
 ******************************************
 %chk=312-an-PCM.chk
 %nproc=8
 Will use up to    8 processors via shared memory.
 %mem=30GB
 ----------------------------------------------------------------
 #P UB3LYP/6-311++G(d,p) SCRF=(PCM,Solvent=n,n-DiMethylFormamide)
 ----------------------------------------------------------------
 1/38=1,172=1/1;
 2/12=2,17=6,18=5,40=1/2;
 3/5=4,6=6,7=1111,11=2,25=1,30=1,70=2201,72=148,74=-5,116=2/1,2,3;
 4//1;
 5/5=2,38=5,53=148/2;
 6/7=2,8=2,9=2,10=2,28=1/1;
 99/5=1,9=1/99;
 Leave Link    1 at Thu Jan 25 05:43:06 2024, MaxMem=  4026531840 cpu:               0.8 elap:               0.1
 (Enter /sysapps/ubuntu-applications/gaussian/Gaussian/AVX2/g16/l101.exe)
 -------
 Reduced
 -------
 Symbolic Z-matrix:
 Charge = -2 Multiplicity = 1
 C                     3.76559   0.13979  -0.19797 
 C                     2.73658   0.12707   0.95512 
 C                     1.29991   0.2457    0.52576 
 C                     0.58547  -0.98388   0.31458 
 O                     1.16747  -2.10908   0.4509 
 C                    -0.8407   -0.85781  -0.0523 
 C                    -1.67017  -1.99361  -0.28654 
 O                    -1.2107   -3.30458  -0.19399 
 C                    -3.00209  -1.82114  -0.63013 
 O                    -3.80114  -2.96005  -0.85979 
 C                    -3.55418  -0.55223  -0.76467 
 O                    -4.88994  -0.39179  -1.12611 
 C                    -2.81596   0.60899  -0.56011 
 C                    -1.43339   0.45665  -0.18765 
 C                    -0.65443   1.63468   0.03862 
 C                     0.67213   1.50638   0.38818 
 O                     1.39988   2.68677   0.60103 
 O                    -1.21892   2.88888  -0.1031 
 O                    -3.45201   1.76344  -0.72439 
 H                     3.55808  -0.69198  -0.87613 
 H                     3.7111    1.06852  -0.77747 
 H                     4.79678   0.0344    0.17931 
 H                     2.83188  -0.83268   1.47507 
 H                     3.01954   0.90977   1.68649 
 H                    -1.95973  -3.84844  -0.46585 
 H                     2.27403   2.41361   0.89355 
 H                    -2.16539   2.70782  -0.36481 
 H                    -4.65132  -2.6177   -1.15896 
 H                    -4.9342    0.59335  -1.13779 
 
 ITRead=  0  0  0  0  0  0  0  0  0  0  0  0  0  0  0  0  0  0  0  0
 ITRead=  0  0  0  0  0  0  0  0  0
 MicOpt= -1 -1 -1 -1 -1 -1 -1 -1 -1 -1 -1 -1 -1 -1 -1 -1 -1 -1 -1 -1
 MicOpt= -1 -1 -1 -1 -1 -1 -1 -1 -1
 NAtoms=     29 NQM=       29 NQMF=       0 NMMI=      0 NMMIF=      0
                NMic=       0 NMicF=      0.
                    Isotopes and Nuclear Properties:
 (Nuclear quadrupole moments (NQMom) in fm**2, nuclear magnetic moments (NMagM)
  in nuclear magnetons)

  Atom         1           2           3           4           5           6           7           8           9          10
 IAtWgt=          12          12          12          12          16          12          12          16          12          16
 AtmWgt=  12.0000000  12.0000000  12.0000000  12.0000000  15.9949146  12.0000000  12.0000000  15.9949146  12.0000000  15.9949146
 NucSpn=           0           0           0           0           0           0           0           0           0           0
 AtZEff=  -0.0000000  -0.0000000  -0.0000000  -0.0000000  -0.0000000  -0.0000000  -0.0000000  -0.0000000  -0.0000000  -0.0000000
 NQMom=    0.0000000   0.0000000   0.0000000   0.0000000   0.0000000   0.0000000   0.0000000   0.0000000   0.0000000   0.0000000
 NMagM=    0.0000000   0.0000000   0.0000000   0.0000000   0.0000000   0.0000000   0.0000000   0.0000000   0.0000000   0.0000000
 AtZNuc=   6.0000000   6.0000000   6.0000000   6.0000000   8.0000000   6.0000000   6.0000000   8.0000000   6.0000000   8.0000000

  Atom        11          12          13          14          15          16          17          18          19          20
 IAtWgt=          12          16          12          12          12          12          16          16          16           1
 AtmWgt=  12.0000000  15.9949146  12.0000000  12.0000000  12.0000000  12.0000000  15.9949146  15.9949146  15.9949146   1.0078250
 NucSpn=           0           0           0           0           0           0           0           0           0           1
 AtZEff=  -0.0000000  -0.0000000  -0.0000000  -0.0000000  -0.0000000  -0.0000000  -0.0000000  -0.0000000  -0.0000000  -0.0000000
 NQMom=    0.0000000   0.0000000   0.0000000   0.0000000   0.0000000   0.0000000   0.0000000   0.0000000   0.0000000   0.0000000
 NMagM=    0.0000000   0.0000000   0.0000000   0.0000000   0.0000000   0.0000000   0.0000000   0.0000000   0.0000000   2.7928460
 AtZNuc=   6.0000000   8.0000000   6.0000000   6.0000000   6.0000000   6.0000000   8.0000000   8.0000000   8.0000000   1.0000000

  Atom        21          22          23          24          25          26          27          28          29
 IAtWgt=           1           1           1           1           1           1           1           1           1
 AtmWgt=   1.0078250   1.0078250   1.0078250   1.0078250   1.0078250   1.0078250   1.0078250   1.0078250   1.0078250
 NucSpn=           1           1           1           1           1           1           1           1           1
 AtZEff=  -0.0000000  -0.0000000  -0.0000000  -0.0000000  -0.0000000  -0.0000000  -0.0000000  -0.0000000  -0.0000000
 NQMom=    0.0000000   0.0000000   0.0000000   0.0000000   0.0000000   0.0000000   0.0000000   0.0000000   0.0000000
 NMagM=    2.7928460   2.7928460   2.7928460   2.7928460   2.7928460   2.7928460   2.7928460   2.7928460   2.7928460
 AtZNuc=   1.0000000   1.0000000   1.0000000   1.0000000   1.0000000   1.0000000   1.0000000   1.0000000   1.0000000
 Leave Link  101 at Thu Jan 25 05:43:06 2024, MaxMem=  4026531840 cpu:               1.3 elap:               0.3
 (Enter /sysapps/ubuntu-applications/gaussian/Gaussian/AVX2/g16/l202.exe)
                          Input orientation:                          
 ---------------------------------------------------------------------
 Center     Atomic      Atomic             Coordinates (Angstroms)
 Number     Number       Type             X           Y           Z
 ---------------------------------------------------------------------
      1          6           0        3.765589    0.139792   -0.197973
      2          6           0        2.736584    0.127069    0.955120
      3          6           0        1.299913    0.245695    0.525761
      4          6           0        0.585466   -0.983880    0.314580
      5          8           0        1.167467   -2.109078    0.450901
      6          6           0       -0.840704   -0.857805   -0.052299
      7          6           0       -1.670168   -1.993609   -0.286537
      8          8           0       -1.210696   -3.304577   -0.193985
      9          6           0       -3.002094   -1.821136   -0.630131
     10          8           0       -3.801137   -2.960049   -0.859787
     11          6           0       -3.554184   -0.552231   -0.764667
     12          8           0       -4.889941   -0.391792   -1.126114
     13          6           0       -2.815959    0.608986   -0.560105
     14          6           0       -1.433394    0.456654   -0.187645
     15          6           0       -0.654429    1.634682    0.038621
     16          6           0        0.672125    1.506382    0.388179
     17          8           0        1.399884    2.686768    0.601032
     18          8           0       -1.218922    2.888880   -0.103098
     19          8           0       -3.452007    1.763442   -0.724387
     20          1           0        3.558076   -0.691982   -0.876130
     21          1           0        3.711104    1.068519   -0.777470
     22          1           0        4.796777    0.034398    0.179309
     23          1           0        2.831879   -0.832681    1.475071
     24          1           0        3.019541    0.909772    1.686488
     25          1           0       -1.959726   -3.848440   -0.465853
     26          1           0        2.274028    2.413614    0.893548
     27          1           0       -2.165386    2.707818   -0.364807
     28          1           0       -4.651321   -2.617701   -1.158958
     29          1           0       -4.934196    0.593346   -1.137790
 ---------------------------------------------------------------------
                    Distance matrix (angstroms):
                    1          2          3          4          5
     1  C    0.000000
     2  C    1.545521   0.000000
     3  C    2.571880   1.504143   0.000000
     4  C    3.411529   2.504358   1.437667   0.000000
     5  O    3.496955   2.777898   2.359683   1.274119   0.000000
     6  C    4.715332   3.844718   2.476713   1.477991   2.419017
     7  C    5.840094   5.045637   3.807321   2.543379   2.934164
     8  O    6.052033   5.355152   4.407451   2.978334   2.738751
     9  C    7.059287   6.264260   4.910717   3.803165   4.317034
    10  O    8.203801   7.454259   6.182010   4.952441   5.208558
    11  C    7.374220   6.556895   5.085681   4.299744   5.118141
    12  O    8.721366   7.922413   6.438119   5.692649   6.490627
    13  C    6.608181   5.775715   4.272176   3.856422   4.927239
    14  C    5.208640   4.336272   2.832741   2.530447   3.708800
    15  C    4.671962   3.822543   2.446639   2.910388   4.183900
    16  C    3.432297   2.546746   1.415054   2.492856   3.649774
    17  O    3.566799   2.909331   2.444278   3.770807   4.803821
    18  O    5.693139   4.938973   3.704918   4.292848   5.566089
    19  O    7.416673   6.617939   5.142681   4.992837   6.141437
    20  H    1.093072   2.167757   2.818481   3.215495   3.079640
    21  H    1.096047   2.199519   2.861694   3.895450   4.251601
    22  H    1.103086   2.203376   3.520331   4.334781   4.223759
    23  H    2.148626   1.095696   2.100239   2.532977   2.334177
    24  H    2.168098   1.107966   2.178395   3.375318   3.751041
    25  H    6.982620   6.314995   5.326395   3.910599   3.693935
    26  H    2.930263   2.333675   2.405003   3.837891   4.677088
    27  H    6.465219   5.694891   4.343208   4.653750   5.914032
    28  H    8.909076   8.159916   6.815754   5.680196   6.058765
    29  H    8.762147   7.964832   6.461608   5.921460   6.859834
                    6          7          8          9         10
     6  C    0.000000
     7  C    1.425808   0.000000
     8  O    2.478641   1.392235   0.000000
     9  C    2.435878   1.386301   2.366417   0.000000
    10  O    3.719628   2.409077   2.696734   1.410083   0.000000
    11  C    2.822024   2.419854   3.659648   1.390332   2.422317
    12  O    4.215041   3.692918   4.784352   2.419295   2.802208
    13  C    2.512165   2.856777   4.245808   2.438246   3.714619
    14  C    1.448241   2.463662   3.767823   2.800882   4.210919
    15  C    2.501091   3.781792   4.975924   4.231009   5.640963
    16  C    2.841136   4.265151   5.198967   5.060555   6.443330
    17  O    4.243946   5.667356   6.583570   6.419842   7.814804
    18  O    3.766069   4.906727   6.194129   5.063765   6.438197
    19  O    3.760524   4.181160   5.566832   3.613932   4.738311
    20  H    4.478332   5.419999   5.480161   6.661181   7.700806
    21  H    4.995553   6.210936   6.609731   7.310188   8.524664
    22  H    5.712343   6.793468   6.883156   8.057331   9.163545
    23  H    3.977607   4.971865   5.023786   6.280459   7.346711
    24  H    4.587941   5.857971   6.260337   7.006045   8.245040
    25  H    3.219804   1.885841   0.964751   2.285493   2.082118
    26  H    4.615015   6.030995   6.784080   6.934852   8.298076
    27  H    3.816557   4.728084   6.090115   4.613231   5.919916
    28  H    4.340821   3.168262   3.638801   1.906338   0.964115
    29  H    4.476696   4.250982   5.472570   3.133761   3.740017
                   11         12         13         14         15
    11  C    0.000000
    12  O    1.393065   0.000000
    13  C    1.391131   2.371355   0.000000
    14  C    2.418378   3.680802   1.439937   0.000000
    15  C    3.719736   4.837641   2.466321   1.430291   0.000000
    16  C    4.840313   6.068997   3.724418   2.422130   1.377823
    17  O    6.074458   7.212660   4.841358   3.690919   2.375583
    18  O    4.210982   5.028494   2.820869   2.443127   1.382660
    19  O    2.318276   2.621845   1.328275   2.463856   2.902620
    20  H    7.114506   8.457044   6.513118   5.167993   4.898503
    21  H    7.443884   8.731096   6.546829   5.214224   4.477100
    22  H    8.424593   9.783572   7.670113   6.255237   5.682988
    23  H    6.773247   8.160089   6.174012   4.756003   4.506175
    24  H    7.166552   8.494981   6.260249   4.852455   4.091334
    25  H    3.673769   4.579358   4.539897   4.346063   5.658880
    26  H    6.746404   7.954357   5.592652   4.329394   3.148570
    27  H    3.566030   4.196471   2.206010   2.373802   1.896672
    28  H    2.371780   2.238904   3.760145   4.555235   5.957525
    29  H    1.831939   0.986201   2.195653   3.630024   4.559027
                   16         17         18         19         20
    16  C    0.000000
    17  O    1.402944   0.000000
    18  O    2.393473   2.719337   0.000000
    19  O    4.279293   5.113718   2.576680   0.000000
    20  H    3.841874   4.272675   6.019955   7.429226   0.000000
    21  H    3.284183   3.140181   5.298457   7.196936   1.769891
    22  H    4.384418   4.330335   6.664567   8.476361   1.782122
    23  H    3.364088   3.898856   5.722729   7.145956   2.464813
    24  H    2.748074   2.638033   5.008398   6.958592   3.069633
    25  H    6.027448   7.425238   6.787626   5.812655   6.370062
    26  H    1.909073   0.961409   3.663316   5.985642   3.798061
    27  H    3.172051   3.693838   0.998534   1.636013   6.676684
    28  H    6.909470   8.237235   6.574088   4.563071   8.436977
    29  H    5.881586   6.893946   4.488132   1.933109   8.592975
                   21         22         23         24         25
    21  H    0.000000
    22  H    1.778628   0.000000
    23  H    3.075961   2.508316   0.000000
    24  H    2.564088   2.489264   1.765236   0.000000
    25  H    7.512117   7.819399   5.985104   7.215695   0.000000
    26  H    2.582009   3.540490   3.344817   1.856363   7.680232
    27  H    6.114796   7.477630   6.394759   5.858690   6.560261
    28  H    9.146797   9.904097   8.131586   8.909644   3.039703
    29  H    8.665843   9.835599   8.317002   8.446218   5.387804
                   26         27         28         29
    26  H    0.000000
    27  H    4.623679   0.000000
    28  H    8.802691   5.930573   0.000000
    29  H    7.707023   3.568586   3.223552   0.000000
 Stoichiometry    C12H10O7(2-)
 Framework group  C1[X(C12H10O7)]
 Deg. of freedom    81
 Full point group                 C1      NOp   1
 Largest Abelian subgroup         C1      NOp   1
 Largest concise Abelian subgroup C1      NOp   1
                         Standard orientation:                         
 ---------------------------------------------------------------------
 Center     Atomic      Atomic             Coordinates (Angstroms)
 Number     Number       Type             X           Y           Z
 ---------------------------------------------------------------------
      1          6           0       -4.406587   -1.071706    0.969667
      2          6           0       -3.663267   -0.820220   -0.361824
      3          6           0       -2.269182   -0.274133   -0.217742
      4          6           0       -1.199880   -1.234490   -0.183184
      5          8           0       -1.442609   -2.484251   -0.233765
      6          6           0        0.170059   -0.686323   -0.098112
      7          6           0        1.324147   -1.522755   -0.060837
      8          8           0        1.258937   -2.912981   -0.097410
      9          6           0        2.587754   -0.958461    0.021031
     10          8           0        3.713374   -1.806885    0.059660
     11          6           0        2.760139    0.419900    0.079574
     12          8           0        4.034317    0.974372    0.177875
     13          6           0        1.689829    1.308181    0.054295
     14          6           0        0.367311    0.747456   -0.045459
     15          6           0       -0.750277    1.639237   -0.083622
     16          6           0       -2.022917    1.118550   -0.171192
     17          8           0       -3.090638    2.027947   -0.206123
     18          8           0       -0.560585    3.007384   -0.020851
     19          8           0        1.980053    2.602564    0.122543
     20          1           0       -3.837510   -1.784859    1.571640
     21          1           0       -4.514348   -0.149613    1.552290
     22          1           0       -5.414716   -1.485213    0.797951
     23          1           0       -3.573090   -1.781990   -0.878948
     24          1           0       -4.298991   -0.177671   -1.002584
     25          1           0        2.172065   -3.205798    0.008426
     26          1           0       -3.886225    1.502560   -0.329878
     27          1           0        0.429451    3.118669    0.046333
     28          1           0        4.467600   -1.222127    0.196479
     29          1           0        3.790195    1.929427    0.207301
 ---------------------------------------------------------------------
 Rotational constants (GHZ):           0.5991428           0.2984657           0.2031572
 Leave Link  202 at Thu Jan 25 05:43:07 2024, MaxMem=  4026531840 cpu:               0.5 elap:               0.2
 (Enter /sysapps/ubuntu-applications/gaussian/Gaussian/AVX2/g16/l301.exe)
 Standard basis: 6-311++G(d,p) (5D, 7F)
 Ernie: Thresh=  0.10000D-02 Tol=  0.10000D-05 Strict=F.
 There are   507 symmetry adapted cartesian basis functions of A   symmetry.
 There are   488 symmetry adapted basis functions of A   symmetry.
   488 basis functions,   774 primitive gaussians,   507 cartesian basis functions
    70 alpha electrons       70 beta electrons
       nuclear repulsion energy      1462.9062315593 Hartrees.
 IExCor=  402 DFT=T Ex+Corr=B3LYP ExCW=0 ScaHFX=  0.200000
 ScaDFX=  0.800000  0.720000  1.000000  0.810000 ScalE2=  1.000000  1.000000
 IRadAn=      5 IRanWt=     -1 IRanGd=            0 ICorTp=0 IEmpDi=  4
 NAtoms=   29 NActive=   29 NUniq=   29 SFac= 1.00D+00 NAtFMM=   60 NAOKFM=F Big=F
 Integral buffers will be    131072 words long.
 Raffenetti 2 integral format.
 Two-electron integral symmetry is turned on.
 ------------------------------------------------------------------------------
 Polarizable Continuum Model (PCM)
 =================================
 Model                : PCM.
 Atomic radii         : UFF (Universal Force Field).
 Polarization charges : Total charges.
 Charge compensation  : None.
 Solution method      : On-the-fly selection.
 Cavity type          : Scaled VdW (van der Waals Surface) (Alpha=1.100).
 Cavity algorithm     : GePol (No added spheres)
                        Default sphere list used, NSphG=   29.
                        Lebedev-Laikov grids with approx.  5.0 points / Ang**2.
                        Smoothing algorithm: York/Karplus (Gamma=1.0000).
                        Polarization charges: spherical gaussians, with
                                              point-specific exponents (IZeta= 3).
                        Self-potential: point-specific (ISelfS= 7).
                        Self-field    : sphere-specific E.n sum rule (ISelfD= 2).
 Solvent              : n,n-DiMethylFormamide, Eps=  37.219000 Eps(inf)=   2.046330
 ------------------------------------------------------------------------------
 GePol: Number of generator spheres                  =      29
 GePol: Total number of spheres                      =      29
 GePol: Number of exposed spheres                    =      29 (100.00%)
 GePol: Number of points                             =    2319
 GePol: Average weight of points                     =       0.12
 GePol: Minimum weight of points                     =   0.17D-11
 GePol: Maximum weight of points                     =    0.20577
 GePol: Number of points with low weight             =     128
 GePol: Fraction of low-weight points (<1% of avg)   =       5.52%
 GePol: Cavity surface area                          =    288.509 Ang**2
 GePol: Cavity volume                                =    317.185 Ang**3
 Leave Link  301 at Thu Jan 25 05:43:07 2024, MaxMem=  4026531840 cpu:               0.8 elap:               0.2
 (Enter /sysapps/ubuntu-applications/gaussian/Gaussian/AVX2/g16/l302.exe)
 NPDir=0 NMtPBC=     1 NCelOv=     1 NCel=       1 NClECP=     1 NCelD=      1
         NCelK=      1 NCelE2=     1 NClLst=     1 CellRange=     0.0.
 One-electron integrals computed using PRISM.
 One-electron integral symmetry used in STVInt
 NBasis=   488 RedAO= T EigKep=  1.93D-06  NBF=   488
 NBsUse=   482 1.00D-06 EigRej=  9.58D-07 NBFU=   482
 Precomputing XC quadrature grid using
 IXCGrd= 4 IRadAn=           5 IRanWt=          -1 IRanGd=           0 AccXCQ= 0.00D+00.
 Generated NRdTot=       0 NPtTot=           0 NUsed=           0 NTot=          32
 NSgBfM=   506   506   506   506   506 MxSgAt=    29 MxSgA2=    29.
 Leave Link  302 at Thu Jan 25 05:43:08 2024, MaxMem=  4026531840 cpu:               6.2 elap:               1.0
 (Enter /sysapps/ubuntu-applications/gaussian/Gaussian/AVX2/g16/l303.exe)
 DipDrv:  MaxL=1.
 Leave Link  303 at Thu Jan 25 05:43:08 2024, MaxMem=  4026531840 cpu:               1.4 elap:               0.4
 (Enter /sysapps/ubuntu-applications/gaussian/Gaussian/AVX2/g16/l401.exe)
 ExpMin= 3.60D-02 ExpMax= 8.59D+03 ExpMxC= 1.30D+03 IAcc=3 IRadAn=         5 AccDes= 0.00D+00
 Harris functional with IExCor=  402 and IRadAn=       5 diagonalized for initial guess.
 HarFok:  IExCor=  402 AccDes= 0.00D+00 IRadAn=         5 IDoV= 1 UseB2=F ITyADJ=14
 ICtDFT=  3500011 ScaDFX=  1.000000  1.000000  1.000000  1.000000
 FoFCou: FMM=F IPFlag=           0 FMFlag=      100000 FMFlg1=           0
         NFxFlg=           0 DoJE=T BraDBF=F KetDBF=T FulRan=T
         wScrn=  0.000000 ICntrl=       500 IOpCl=  0 I1Cent=   200000004 NGrid=           0
         NMat0=    1 NMatS0=      1 NMatT0=    0 NMatD0=    1 NMtDS0=    0 NMtDT0=    0
 Petite list used in FoFCou.
 Harris En= -990.610813642961    
 JPrj=0 DoOrth=F DoCkMO=F.
 Initial guess <Sx>= 0.0000 <Sy>= 0.0000 <Sz>= 0.0000 <S**2>=-0.0000 S=-0.0000
 Leave Link  401 at Thu Jan 25 05:43:12 2024, MaxMem=  4026531840 cpu:              31.5 elap:               4.0
 (Enter /sysapps/ubuntu-applications/gaussian/Gaussian/AVX2/g16/l502.exe)
 Integral symmetry usage will be decided dynamically.
 UHF open shell SCF:
 Using DIIS extrapolation, IDIIS=  1040.
 NGot=  4026531840 LenX=  4026008921 LenY=  4025751365
 Requested convergence on RMS density matrix=1.00D-08 within 128 cycles.
 Requested convergence on MAX density matrix=1.00D-06.
 Requested convergence on             energy=1.00D-06.
 No special actions if energy rises.
 Fock matrices will be formed incrementally for  20 cycles.

 Cycle   1  Pass 1  IDiag  1:
 FoFJK:  IHMeth= 1 ICntrl=       0 DoSepK=F KAlg= 0 I1Cent=           0 FoldK=F
 IRaf= 840000000 NMat=       1 IRICut=       1 DoRegI=T DoRafI=F ISym2E= 0 IDoP0=0 IntGTp=1.
 FoFCou: FMM=F IPFlag=           0 FMFlag=      100000 FMFlg1=           0
         NFxFlg=           0 DoJE=F BraDBF=F KetDBF=F FulRan=T
         wScrn=  0.000000 ICntrl=         0 IOpCl=  1 I1Cent=           0 NGrid=           0
         NMat0=    1 NMatS0=      1 NMatT0=    0 NMatD0=    1 NMtDS0=    0 NMtDT0=    0
 Symmetry not used in FoFCou.
 Inv3:  Mode=1 IEnd=    16133283.
 Iteration    1 A*A^-1 deviation from unit magnitude is 3.11D-15 for     30.
 Iteration    1 A*A^-1 deviation from orthogonality  is 2.32D-15 for   1465    389.
 Iteration    1 A^-1*A deviation from unit magnitude is 3.00D-15 for     30.
 Iteration    1 A^-1*A deviation from orthogonality  is 1.50D-15 for   1580   1262.
 E= -989.848680897714    
 DIIS: error= 3.06D-02 at cycle   1 NSaved=   1.
 NSaved= 1 IEnMin= 1 EnMin= -989.848680897714     IErMin= 1 ErrMin= 3.06D-02
 ErrMax= 3.06D-02  0.00D+00 EMaxC= 1.00D-01 BMatC= 2.95D+00 BMatP= 2.95D+00
 IDIUse=3 WtCom= 6.94D-01 WtEn= 3.06D-01
 Coeff-Com:  0.100D+01
 Coeff-En:   0.100D+01
 Coeff:      0.100D+01
 Gap=     0.136 Goal=   None    Shift=    0.000
 Gap=     0.136 Goal=   None    Shift=    0.000
 GapD=    0.136 DampG=1.000 DampE=0.500 DampFc=0.5000 IDamp=-1.
 Damping current iteration by 5.00D-01
 RMSDP=1.04D+00 MaxDP=7.34D+01              OVMax= 9.58D-01

 Cycle   2  Pass 1  IDiag  1:
 RMSU=  4.68D-01    CP:  3.00D+00
 E= -989.643672960392     Delta-E=        0.205007937322 Rises=F Damp=T
 DIIS: error= 1.74D-02 at cycle   2 NSaved=   2.
 NSaved= 2 IEnMin= 1 EnMin= -989.848680897714     IErMin= 2 ErrMin= 1.74D-02
 ErrMax= 1.74D-02  0.00D+00 EMaxC= 1.00D-01 BMatC= 8.51D-01 BMatP= 2.95D+00
 IDIUse=3 WtCom= 8.26D-01 WtEn= 1.74D-01
 Coeff-Com:  0.299D+00 0.701D+00
 Coeff-En:   0.620D+00 0.380D+00
 Coeff:      0.355D+00 0.645D+00
 Gap=    -0.155 Goal=   None    Shift=    0.000
 Gap=    -0.155 Goal=   None    Shift=    0.000
 RMSDP=5.22D-01 MaxDP=3.76D+01 DE= 2.05D-01 OVMax= 4.80D-01

 Cycle   3  Pass 1  IDiag  1:
 RMSU=  7.82D-03    CP:  8.98D-01  7.77D-04
 E= -990.126537378296     Delta-E=       -0.482864417905 Rises=F Damp=F
 DIIS: error= 2.17D-02 at cycle   3 NSaved=   3.
 NSaved= 3 IEnMin= 3 EnMin= -990.126537378296     IErMin= 2 ErrMin= 1.74D-02
 ErrMax= 2.17D-02  0.00D+00 EMaxC= 1.00D-01 BMatC= 1.35D+00 BMatP= 8.51D-01
 IDIUse=2 WtCom= 0.00D+00 WtEn= 1.00D+00
 EnCoef did     2 forward-backward iterations
 Coeff-En:   0.815D-01 0.176D+00 0.742D+00
 Coeff:      0.815D-01 0.176D+00 0.742D+00
 Gap=     0.120 Goal=   None    Shift=    0.000
 Gap=     0.120 Goal=   None    Shift=    0.000
 RMSDP=9.96D-02 MaxDP=6.54D+00 DE=-4.83D-01 OVMax= 5.93D-01

 Cycle   4  Pass 1  IDiag  1:
 RMSU=  8.20D-02    CP:  1.55D+00  4.52D-02  3.00D+00
 E= -989.597850953460     Delta-E=        0.528686424836 Rises=F Damp=F
 DIIS: error= 4.16D-02 at cycle   4 NSaved=   4.
 NSaved= 4 IEnMin= 3 EnMin= -990.126537378296     IErMin= 2 ErrMin= 1.74D-02
 ErrMax= 4.16D-02  0.00D+00 EMaxC= 1.00D-01 BMatC= 3.55D+00 BMatP= 8.51D-01
 IDIUse=2 WtCom= 0.00D+00 WtEn= 1.00D+00
 Coeff-En:   0.000D+00 0.000D+00 0.684D+00 0.316D+00
 Coeff:      0.000D+00 0.000D+00 0.684D+00 0.316D+00
 Gap=     0.123 Goal=   None    Shift=    0.000
 Gap=     0.123 Goal=   None    Shift=    0.000
 RMSDP=9.97D-02 MaxDP=6.65D+00 DE= 5.29D-01 OVMax= 3.89D-01

 Cycle   5  Pass 1  IDiag  1:
 RMSU=  5.86D-03    CP:  8.80D-01  5.90D-04  8.19D-01  1.73D-02
 E= -990.390188157769     Delta-E=       -0.792337204309 Rises=F Damp=F
 DIIS: error= 7.99D-03 at cycle   5 NSaved=   5.
 NSaved= 5 IEnMin= 5 EnMin= -990.390188157769     IErMin= 5 ErrMin= 7.99D-03
 ErrMax= 7.99D-03  0.00D+00 EMaxC= 1.00D-01 BMatC= 1.26D-01 BMatP= 8.51D-01
 IDIUse=3 WtCom= 9.20D-01 WtEn= 7.99D-02
 Coeff-Com: -0.156D-01 0.701D-01 0.237D+00-0.150D-02 0.710D+00
 Coeff-En:   0.000D+00 0.000D+00 0.727D-01 0.000D+00 0.927D+00
 Coeff:     -0.144D-01 0.645D-01 0.223D+00-0.138D-02 0.728D+00
 Gap=     0.116 Goal=   None    Shift=    0.000
 Gap=     0.116 Goal=   None    Shift=    0.000
 RMSDP=3.64D-03 MaxDP=2.95D-01 DE=-7.92D-01 OVMax= 8.28D-02

 Cycle   6  Pass 1  IDiag  1:
 RMSU=  1.64D-03    CP:  8.54D-01  5.75D-04  8.75D-01  4.74D-03  5.68D-01
 E= -990.408640933314     Delta-E=       -0.018452775544 Rises=F Damp=F
 DIIS: error= 3.95D-03 at cycle   6 NSaved=   6.
 NSaved= 6 IEnMin= 6 EnMin= -990.408640933314     IErMin= 6 ErrMin= 3.95D-03
 ErrMax= 3.95D-03  0.00D+00 EMaxC= 1.00D-01 BMatC= 3.61D-02 BMatP= 1.26D-01
 IDIUse=3 WtCom= 9.61D-01 WtEn= 3.95D-02
 Coeff-Com: -0.212D-01 0.447D-01 0.985D-01-0.307D-01 0.492D+00 0.416D+00
 Coeff-En:   0.000D+00 0.000D+00 0.000D+00 0.000D+00 0.233D+00 0.767D+00
 Coeff:     -0.204D-01 0.430D-01 0.946D-01-0.295D-01 0.482D+00 0.430D+00
 Gap=     0.108 Goal=   None    Shift=    0.000
 Gap=     0.108 Goal=   None    Shift=    0.000
 RMSDP=1.17D-03 MaxDP=1.06D-01 DE=-1.85D-02 OVMax= 3.69D-02

 Cycle   7  Pass 1  IDiag  1:
 RMSU=  7.71D-04    CP:  8.58D-01  6.62D-04  8.35D-01  4.69D-03  6.72D-01
                    CP:  6.94D-01
 E= -990.416922449461     Delta-E=       -0.008281516148 Rises=F Damp=F
 DIIS: error= 7.17D-04 at cycle   7 NSaved=   7.
 NSaved= 7 IEnMin= 7 EnMin= -990.416922449461     IErMin= 7 ErrMin= 7.17D-04
 ErrMax= 7.17D-04  0.00D+00 EMaxC= 1.00D-01 BMatC= 1.16D-03 BMatP= 3.61D-02
 IDIUse=3 WtCom= 9.93D-01 WtEn= 7.17D-03
 Coeff-Com: -0.986D-02 0.146D-01 0.272D-01-0.110D-01 0.178D+00 0.212D+00
 Coeff-Com:  0.588D+00
 Coeff-En:   0.000D+00 0.000D+00 0.000D+00 0.000D+00 0.000D+00 0.000D+00
 Coeff-En:   0.100D+01
 Coeff:     -0.979D-02 0.145D-01 0.270D-01-0.109D-01 0.177D+00 0.211D+00
 Coeff:      0.591D+00
 Gap=     0.108 Goal=   None    Shift=    0.000
 Gap=     0.108 Goal=   None    Shift=    0.000
 RMSDP=3.20D-04 MaxDP=3.32D-02 DE=-8.28D-03 OVMax= 6.04D-03

 Cycle   8  Pass 1  IDiag  1:
 RMSU=  1.48D-04    CP:  8.54D-01  6.30D-04  8.40D-01  4.60D-03  6.87D-01
                    CP:  7.02D-01  9.41D-01
 E= -990.417109393554     Delta-E=       -0.000186944093 Rises=F Damp=F
 DIIS: error= 2.94D-04 at cycle   8 NSaved=   8.
 NSaved= 8 IEnMin= 8 EnMin= -990.417109393554     IErMin= 8 ErrMin= 2.94D-04
 ErrMax= 2.94D-04  0.00D+00 EMaxC= 1.00D-01 BMatC= 2.58D-04 BMatP= 1.16D-03
 IDIUse=3 WtCom= 9.97D-01 WtEn= 2.94D-03
 Coeff-Com: -0.150D-02 0.129D-02-0.427D-02 0.421D-03-0.243D-03 0.386D-01
 Coeff-Com:  0.375D+00 0.591D+00
 Coeff-En:   0.000D+00 0.000D+00 0.000D+00 0.000D+00 0.000D+00 0.000D+00
 Coeff-En:   0.162D+00 0.838D+00
 Coeff:     -0.149D-02 0.129D-02-0.426D-02 0.419D-03-0.242D-03 0.385D-01
 Coeff:      0.375D+00 0.591D+00
 Gap=     0.108 Goal=   None    Shift=    0.000
 Gap=     0.108 Goal=   None    Shift=    0.000
 RMSDP=1.20D-04 MaxDP=1.22D-02 DE=-1.87D-04 OVMax= 2.33D-03

 Cycle   9  Pass 1  IDiag  1:
 RMSU=  7.03D-05    CP:  8.52D-01  6.11D-04  8.41D-01  4.52D-03  6.87D-01
                    CP:  7.15D-01  9.35D-01  8.45D-01
 E= -990.417157598213     Delta-E=       -0.000048204659 Rises=F Damp=F
 DIIS: error= 9.39D-05 at cycle   9 NSaved=   9.
 NSaved= 9 IEnMin= 9 EnMin= -990.417157598213     IErMin= 9 ErrMin= 9.39D-05
 ErrMax= 9.39D-05  0.00D+00 EMaxC= 1.00D-01 BMatC= 1.19D-05 BMatP= 2.58D-04
 IDIUse=1 WtCom= 1.00D+00 WtEn= 0.00D+00
 Coeff-Com: -0.381D-03 0.568D-03-0.349D-02 0.573D-03-0.699D-02 0.132D-01
 Coeff-Com:  0.172D+00 0.308D+00 0.517D+00
 Coeff:     -0.381D-03 0.568D-03-0.349D-02 0.573D-03-0.699D-02 0.132D-01
 Coeff:      0.172D+00 0.308D+00 0.517D+00
 Gap=     0.108 Goal=   None    Shift=    0.000
 Gap=     0.108 Goal=   None    Shift=    0.000
 RMSDP=4.74D-05 MaxDP=4.49D-03 DE=-4.82D-05 OVMax= 7.62D-04

 Cycle  10  Pass 1  IDiag  1:
 RMSU=  2.21D-05    CP:  8.53D-01  6.11D-04  8.41D-01  4.48D-03  6.87D-01
                    CP:  7.14D-01  9.49D-01  8.37D-01  8.71D-01
 E= -990.417159889220     Delta-E=       -0.000002291007 Rises=F Damp=F
 DIIS: error= 2.59D-05 at cycle  10 NSaved=  10.
 NSaved=10 IEnMin=10 EnMin= -990.417159889220     IErMin=10 ErrMin= 2.59D-05
 ErrMax= 2.59D-05  0.00D+00 EMaxC= 1.00D-01 BMatC= 2.03D-06 BMatP= 1.19D-05
 IDIUse=1 WtCom= 1.00D+00 WtEn= 0.00D+00
 Coeff-Com: -0.321D-04 0.213D-03-0.134D-02 0.223D-03-0.285D-02 0.210D-02
 Coeff-Com:  0.286D-01 0.631D-01 0.271D+00 0.639D+00
 Coeff:     -0.321D-04 0.213D-03-0.134D-02 0.223D-03-0.285D-02 0.210D-02
 Coeff:      0.286D-01 0.631D-01 0.271D+00 0.639D+00
 Gap=     0.108 Goal=   None    Shift=    0.000
 Gap=     0.108 Goal=   None    Shift=    0.000
 RMSDP=1.35D-05 MaxDP=1.92D-03 DE=-2.29D-06 OVMax= 2.97D-04

 Cycle  11  Pass 1  IDiag  1:
 RMSU=  8.34D-06    CP:  8.53D-01  6.10D-04  8.41D-01  4.48D-03  6.86D-01
                    CP:  7.18D-01  9.46D-01  8.38D-01  8.59D-01  9.63D-01
 E= -990.417160288966     Delta-E=       -0.000000399747 Rises=F Damp=F
 DIIS: error= 2.08D-05 at cycle  11 NSaved=  11.
 NSaved=11 IEnMin=11 EnMin= -990.417160288966     IErMin=11 ErrMin= 2.08D-05
 ErrMax= 2.08D-05  0.00D+00 EMaxC= 1.00D-01 BMatC= 2.98D-07 BMatP= 2.03D-06
 IDIUse=1 WtCom= 1.00D+00 WtEn= 0.00D+00
 Coeff-Com: -0.135D-04 0.985D-05-0.356D-03 0.798D-04-0.446D-03-0.170D-03
 Coeff-Com: -0.545D-02-0.326D-02 0.841D-01 0.351D+00 0.575D+00
 Coeff:     -0.135D-04 0.985D-05-0.356D-03 0.798D-04-0.446D-03-0.170D-03
 Coeff:     -0.545D-02-0.326D-02 0.841D-01 0.351D+00 0.575D+00
 Gap=     0.108 Goal=   None    Shift=    0.000
 Gap=     0.108 Goal=   None    Shift=    0.000
 RMSDP=5.52D-06 MaxDP=4.18D-04 DE=-4.00D-07 OVMax= 1.84D-04

 Cycle  12  Pass 1  IDiag  1:
 RMSU=  2.22D-06    CP:  8.53D-01  6.09D-04  8.41D-01  4.47D-03  6.87D-01
                    CP:  7.18D-01  9.46D-01  8.43D-01  8.72D-01  1.01D+00
                    CP:  9.41D-01
 E= -990.417160359699     Delta-E=       -0.000000070732 Rises=F Damp=F
 DIIS: error= 3.16D-06 at cycle  12 NSaved=  12.
 NSaved=12 IEnMin=12 EnMin= -990.417160359699     IErMin=12 ErrMin= 3.16D-06
 ErrMax= 3.16D-06  0.00D+00 EMaxC= 1.00D-01 BMatC= 2.80D-08 BMatP= 2.98D-07
 IDIUse=1 WtCom= 1.00D+00 WtEn= 0.00D+00
 Coeff-Com: -0.119D-04 0.194D-04-0.258D-04-0.213D-05 0.976D-04-0.377D-03
 Coeff-Com: -0.567D-02-0.833D-02 0.814D-02 0.892D-01 0.302D+00 0.615D+00
 Coeff:     -0.119D-04 0.194D-04-0.258D-04-0.213D-05 0.976D-04-0.377D-03
 Coeff:     -0.567D-02-0.833D-02 0.814D-02 0.892D-01 0.302D+00 0.615D+00
 Gap=     0.108 Goal=   None    Shift=    0.000
 Gap=     0.108 Goal=   None    Shift=    0.000
 RMSDP=1.95D-06 MaxDP=1.91D-04 DE=-7.07D-08 OVMax= 2.57D-05

 Cycle  13  Pass 1  IDiag  1:
 RMSU=  8.35D-07    CP:  8.53D-01  6.09D-04  8.41D-01  4.46D-03  6.87D-01
                    CP:  7.18D-01  9.47D-01  8.46D-01  8.83D-01  1.00D+00
                    CP:  9.08D-01  8.47D-01
 E= -990.417160365683     Delta-E=       -0.000000005985 Rises=F Damp=F
 DIIS: error= 1.03D-06 at cycle  13 NSaved=  13.
 NSaved=13 IEnMin=13 EnMin= -990.417160365683     IErMin=13 ErrMin= 1.03D-06
 ErrMax= 1.03D-06  0.00D+00 EMaxC= 1.00D-01 BMatC= 2.38D-09 BMatP= 2.80D-08
 IDIUse=1 WtCom= 1.00D+00 WtEn= 0.00D+00
 Coeff-Com: -0.827D-05 0.135D-04 0.217D-04-0.871D-05 0.873D-04-0.218D-03
 Coeff-Com: -0.257D-02-0.407D-02-0.299D-02 0.152D-01 0.108D+00 0.299D+00
 Coeff-Com:  0.587D+00
 Coeff:     -0.827D-05 0.135D-04 0.217D-04-0.871D-05 0.873D-04-0.218D-03
 Coeff:     -0.257D-02-0.407D-02-0.299D-02 0.152D-01 0.108D+00 0.299D+00
 Coeff:      0.587D+00
 Gap=     0.108 Goal=   None    Shift=    0.000
 Gap=     0.108 Goal=   None    Shift=    0.000
 RMSDP=6.17D-07 MaxDP=5.19D-05 DE=-5.98D-09 OVMax= 1.32D-05

 Cycle  14  Pass 1  IDiag  1:
 RMSU=  2.88D-07    CP:  8.53D-01  6.09D-04  8.41D-01  4.46D-03  6.87D-01
                    CP:  7.18D-01  9.47D-01  8.45D-01  8.82D-01  1.02D+00
                    CP:  9.24D-01  9.09D-01  8.45D-01
 E= -990.417160366158     Delta-E=       -0.000000000475 Rises=F Damp=F
 DIIS: error= 3.33D-07 at cycle  14 NSaved=  14.
 NSaved=14 IEnMin=14 EnMin= -990.417160366158     IErMin=14 ErrMin= 3.33D-07
 ErrMax= 3.33D-07  0.00D+00 EMaxC= 1.00D-01 BMatC= 3.45D-10 BMatP= 2.38D-09
 IDIUse=1 WtCom= 1.00D+00 WtEn= 0.00D+00
 Coeff-Com: -0.283D-05 0.111D-05 0.143D-04-0.306D-05 0.201D-04-0.894D-04
 Coeff-Com: -0.605D-03-0.104D-02-0.290D-02-0.546D-02 0.129D-01 0.567D-01
 Coeff-Com:  0.308D+00 0.632D+00
 Coeff:     -0.283D-05 0.111D-05 0.143D-04-0.306D-05 0.201D-04-0.894D-04
 Coeff:     -0.605D-03-0.104D-02-0.290D-02-0.546D-02 0.129D-01 0.567D-01
 Coeff:      0.308D+00 0.632D+00
 Gap=     0.108 Goal=   None    Shift=    0.000
 Gap=     0.108 Goal=   None    Shift=    0.000
 RMSDP=2.34D-07 MaxDP=2.38D-05 DE=-4.75D-10 OVMax= 3.26D-06

 Cycle  15  Pass 1  IDiag  1:
 RMSU=  1.11D-07    CP:  8.53D-01  6.09D-04  8.41D-01  4.46D-03  6.87D-01
                    CP:  7.18D-01  9.47D-01  8.46D-01  8.82D-01  1.02D+00
                    CP:  9.31D-01  9.12D-01  8.99D-01  8.77D-01
 E= -990.417160366251     Delta-E=       -0.000000000093 Rises=F Damp=F
 DIIS: error= 9.82D-08 at cycle  15 NSaved=  15.
 NSaved=15 IEnMin=15 EnMin= -990.417160366251     IErMin=15 ErrMin= 9.82D-08
 ErrMax= 9.82D-08  0.00D+00 EMaxC= 1.00D-01 BMatC= 3.57D-11 BMatP= 3.45D-10
 IDIUse=1 WtCom= 1.00D+00 WtEn= 0.00D+00
 Coeff-Com: -0.714D-06-0.177D-06 0.548D-05-0.844D-06 0.182D-05-0.283D-04
 Coeff-Com: -0.922D-04-0.179D-03-0.996D-03-0.329D-02-0.710D-03 0.482D-02
 Coeff-Com:  0.106D+00 0.310D+00 0.585D+00
 Coeff:     -0.714D-06-0.177D-06 0.548D-05-0.844D-06 0.182D-05-0.283D-04
 Coeff:     -0.922D-04-0.179D-03-0.996D-03-0.329D-02-0.710D-03 0.482D-02
 Coeff:      0.106D+00 0.310D+00 0.585D+00
 Gap=     0.108 Goal=   None    Shift=    0.000
 Gap=     0.108 Goal=   None    Shift=    0.000
 RMSDP=6.77D-08 MaxDP=4.94D-06 DE=-9.28D-11 OVMax= 1.58D-06

 Cycle  16  Pass 1  IDiag  1:
 RMSU=  3.24D-08    CP:  8.53D-01  6.09D-04  8.41D-01  4.46D-03  6.87D-01
                    CP:  7.18D-01  9.47D-01  8.46D-01  8.82D-01  1.02D+00
                    CP:  9.31D-01  9.22D-01  9.08D-01  9.34D-01  9.30D-01
 E= -990.417160366261     Delta-E=       -0.000000000010 Rises=F Damp=F
 DIIS: error= 4.40D-08 at cycle  16 NSaved=  16.
 NSaved=16 IEnMin=16 EnMin= -990.417160366261     IErMin=16 ErrMin= 4.40D-08
 ErrMax= 4.40D-08  0.00D+00 EMaxC= 1.00D-01 BMatC= 7.87D-12 BMatP= 3.57D-11
 IDIUse=1 WtCom= 1.00D+00 WtEn= 0.00D+00
 Coeff-Com:  0.451D-06-0.445D-06 0.863D-06-0.695D-07-0.299D-05 0.441D-06
 Coeff-Com:  0.625D-04 0.867D-04-0.425D-04-0.893D-03-0.316D-02-0.998D-02
 Coeff-Com: -0.519D-02 0.430D-01 0.326D+00 0.650D+00
 Coeff:      0.451D-06-0.445D-06 0.863D-06-0.695D-07-0.299D-05 0.441D-06
 Coeff:      0.625D-04 0.867D-04-0.425D-04-0.893D-03-0.316D-02-0.998D-02
 Coeff:     -0.519D-02 0.430D-01 0.326D+00 0.650D+00
 Gap=     0.108 Goal=   None    Shift=    0.000
 Gap=     0.108 Goal=   None    Shift=    0.000
 RMSDP=2.61D-08 MaxDP=2.18D-06 DE=-1.05D-11 OVMax= 5.15D-07

 Cycle  17  Pass 1  IDiag  1:
 RMSU=  1.23D-08    CP:  8.53D-01  6.09D-04  8.41D-01  4.46D-03  6.87D-01
                    CP:  7.18D-01  9.47D-01  8.46D-01  8.82D-01  1.02D+00
                    CP:  9.31D-01  9.23D-01  9.18D-01  9.46D-01  9.51D-01
                    CP:  9.67D-01
 E= -990.417160366262     Delta-E=       -0.000000000001 Rises=F Damp=F
 DIIS: error= 1.55D-08 at cycle  17 NSaved=  17.
 NSaved=17 IEnMin=17 EnMin= -990.417160366262     IErMin=17 ErrMin= 1.55D-08
 ErrMax= 1.55D-08  0.00D+00 EMaxC= 1.00D-01 BMatC= 4.47D-13 BMatP= 7.87D-12
 IDIUse=1 WtCom= 1.00D+00 WtEn= 0.00D+00
 Coeff-Com:  0.248D-06-0.200D-06 0.178D-06-0.767D-08-0.122D-05 0.148D-05
 Coeff-Com:  0.314D-04 0.447D-04 0.334D-04-0.164D-03-0.101D-02-0.396D-02
 Coeff-Com: -0.619D-02 0.313D-02 0.994D-01 0.251D+00 0.658D+00
 Coeff:      0.248D-06-0.200D-06 0.178D-06-0.767D-08-0.122D-05 0.148D-05
 Coeff:      0.314D-04 0.447D-04 0.334D-04-0.164D-03-0.101D-02-0.396D-02
 Coeff:     -0.619D-02 0.313D-02 0.994D-01 0.251D+00 0.658D+00
 Gap=     0.108 Goal=   None    Shift=    0.000
 Gap=     0.108 Goal=   None    Shift=    0.000
 RMSDP=5.57D-09 MaxDP=3.25D-07 DE=-6.82D-13 OVMax= 1.19D-07

 Error on total polarization charges =  0.02422
 SCF Done:  E(UB3LYP) =  -990.417160366     A.U. after   17 cycles
            NFock= 17  Conv=0.56D-08     -V/T= 2.0038
 <Sx>= 0.0000 <Sy>= 0.0000 <Sz>= 0.0000 <S**2>=-0.0000 S=-0.0000
 <L.S>=  0.00000000000    
 KE= 9.866489089508D+02 PE=-5.288599485184D+03 EE= 1.848627184308D+03
 Annihilation of the first spin contaminant:
 S**2 before annihilation    -0.0000,   after    -0.0000
 Leave Link  502 at Thu Jan 25 05:49:27 2024, MaxMem=  4026531840 cpu:            2980.1 elap:             374.4
 (Enter /sysapps/ubuntu-applications/gaussian/Gaussian/AVX2/g16/l601.exe)
 Copying SCF densities to generalized density rwf, IOpCl= 1 IROHF=0.

 **********************************************************************

            Population analysis using the SCF density.

 **********************************************************************

 Orbital symmetries:
 Alpha Orbitals:
       Occupied  (A) (A) (A) (A) (A) (A) (A) (A) (A) (A) (A) (A)
                 (A) (A) (A) (A) (A) (A) (A) (A) (A) (A) (A) (A)
                 (A) (A) (A) (A) (A) (A) (A) (A) (A) (A) (A) (A)
                 (A) (A) (A) (A) (A) (A) (A) (A) (A) (A) (A) (A)
                 (A) (A) (A) (A) (A) (A) (A) (A) (A) (A) (A) (A)
                 (A) (A) (A) (A) (A) (A) (A) (A) (A) (A)
       Virtual   (A) (A) (A) (A) (A) (A) (A) (A) (A) (A) (A) (A)
                 (A) (A) (A) (A) (A) (A) (A) (A) (A) (A) (A) (A)
                 (A) (A) (A) (A) (A) (A) (A) (A) (A) (A) (A) (A)
                 (A) (A) (A) (A) (A) (A) (A) (A) (A) (A) (A) (A)
                 (A) (A) (A) (A) (A) (A) (A) (A) (A) (A) (A) (A)
                 (A) (A) (A) (A) (A) (A) (A) (A) (A) (A) (A) (A)
                 (A) (A) (A) (A) (A) (A) (A) (A) (A) (A) (A) (A)
                 (A) (A) (A) (A) (A) (A) (A) (A) (A) (A) (A) (A)
                 (A) (A) (A) (A) (A) (A) (A) (A) (A) (A) (A) (A)
                 (A) (A) (A) (A) (A) (A) (A) (A) (A) (A) (A) (A)
                 (A) (A) (A) (A) (A) (A) (A) (A) (A) (A) (A) (A)
                 (A) (A) (A) (A) (A) (A) (A) (A) (A) (A) (A) (A)
                 (A) (A) (A) (A) (A) (A) (A) (A) (A) (A) (A) (A)
                 (A) (A) (A) (A) (A) (A) (A) (A) (A) (A) (A) (A)
                 (A) (A) (A) (A) (A) (A) (A) (A) (A) (A) (A) (A)
                 (A) (A) (A) (A) (A) (A) (A) (A) (A) (A) (A) (A)
                 (A) (A) (A) (A) (A) (A) (A) (A) (A) (A) (A) (A)
                 (A) (A) (A) (A) (A) (A) (A) (A) (A) (A) (A) (A)
                 (A) (A) (A) (A) (A) (A) (A) (A) (A) (A) (A) (A)
                 (A) (A) (A) (A) (A) (A) (A) (A) (A) (A) (A) (A)
                 (A) (A) (A) (A) (A) (A) (A) (A) (A) (A) (A) (A)
                 (A) (A) (A) (A) (A) (A) (A) (A) (A) (A) (A) (A)
                 (A) (A) (A) (A) (A) (A) (A) (A) (A) (A) (A) (A)
                 (A) (A) (A) (A) (A) (A) (A) (A) (A) (A) (A) (A)
                 (A) (A) (A) (A) (A) (A) (A) (A) (A) (A) (A) (A)
                 (A) (A) (A) (A) (A) (A) (A) (A) (A) (A) (A) (A)
                 (A) (A) (A) (A) (A) (A) (A) (A) (A) (A) (A) (A)
                 (A) (A) (A) (A) (A) (A) (A) (A) (A) (A) (A) (A)
                 (A) (A) (A) (A) (A) (A) (A) (A) (A) (A) (A) (A)
                 (A) (A) (A) (A) (A) (A) (A) (A) (A) (A) (A) (A)
                 (A) (A) (A) (A) (A) (A) (A) (A) (A) (A) (A) (A)
                 (A) (A) (A) (A) (A) (A) (A) (A) (A) (A) (A) (A)
                 (A) (A) (A) (A) (A) (A) (A) (A) (A) (A) (A) (A)
                 (A) (A) (A) (A) (A) (A) (A) (A) (A) (A) (A) (A)
                 (A) (A) (A) (A)
 Beta  Orbitals:
       Occupied  (A) (A) (A) (A) (A) (A) (A) (A) (A) (A) (A) (A)
                 (A) (A) (A) (A) (A) (A) (A) (A) (A) (A) (A) (A)
                 (A) (A) (A) (A) (A) (A) (A) (A) (A) (A) (A) (A)
                 (A) (A) (A) (A) (A) (A) (A) (A) (A) (A) (A) (A)
                 (A) (A) (A) (A) (A) (A) (A) (A) (A) (A) (A) (A)
                 (A) (A) (A) (A) (A) (A) (A) (A) (A) (A)
       Virtual   (A) (A) (A) (A) (A) (A) (A) (A) (A) (A) (A) (A)
                 (A) (A) (A) (A) (A) (A) (A) (A) (A) (A) (A) (A)
                 (A) (A) (A) (A) (A) (A) (A) (A) (A) (A) (A) (A)
                 (A) (A) (A) (A) (A) (A) (A) (A) (A) (A) (A) (A)
                 (A) (A) (A) (A) (A) (A) (A) (A) (A) (A) (A) (A)
                 (A) (A) (A) (A) (A) (A) (A) (A) (A) (A) (A) (A)
                 (A) (A) (A) (A) (A) (A) (A) (A) (A) (A) (A) (A)
                 (A) (A) (A) (A) (A) (A) (A) (A) (A) (A) (A) (A)
                 (A) (A) (A) (A) (A) (A) (A) (A) (A) (A) (A) (A)
                 (A) (A) (A) (A) (A) (A) (A) (A) (A) (A) (A) (A)
                 (A) (A) (A) (A) (A) (A) (A) (A) (A) (A) (A) (A)
                 (A) (A) (A) (A) (A) (A) (A) (A) (A) (A) (A) (A)
                 (A) (A) (A) (A) (A) (A) (A) (A) (A) (A) (A) (A)
                 (A) (A) (A) (A) (A) (A) (A) (A) (A) (A) (A) (A)
                 (A) (A) (A) (A) (A) (A) (A) (A) (A) (A) (A) (A)
                 (A) (A) (A) (A) (A) (A) (A) (A) (A) (A) (A) (A)
                 (A) (A) (A) (A) (A) (A) (A) (A) (A) (A) (A) (A)
                 (A) (A) (A) (A) (A) (A) (A) (A) (A) (A) (A) (A)
                 (A) (A) (A) (A) (A) (A) (A) (A) (A) (A) (A) (A)
                 (A) (A) (A) (A) (A) (A) (A) (A) (A) (A) (A) (A)
                 (A) (A) (A) (A) (A) (A) (A) (A) (A) (A) (A) (A)
                 (A) (A) (A) (A) (A) (A) (A) (A) (A) (A) (A) (A)
                 (A) (A) (A) (A) (A) (A) (A) (A) (A) (A) (A) (A)
                 (A) (A) (A) (A) (A) (A) (A) (A) (A) (A) (A) (A)
                 (A) (A) (A) (A) (A) (A) (A) (A) (A) (A) (A) (A)
                 (A) (A) (A) (A) (A) (A) (A) (A) (A) (A) (A) (A)
                 (A) (A) (A) (A) (A) (A) (A) (A) (A) (A) (A) (A)
                 (A) (A) (A) (A) (A) (A) (A) (A) (A) (A) (A) (A)
                 (A) (A) (A) (A) (A) (A) (A) (A) (A) (A) (A) (A)
                 (A) (A) (A) (A) (A) (A) (A) (A) (A) (A) (A) (A)
                 (A) (A) (A) (A) (A) (A) (A) (A) (A) (A) (A) (A)
                 (A) (A) (A) (A) (A) (A) (A) (A) (A) (A) (A) (A)
                 (A) (A) (A) (A) (A) (A) (A) (A) (A) (A) (A) (A)
                 (A) (A) (A) (A) (A) (A) (A) (A) (A) (A) (A) (A)
                 (A) (A) (A) (A)
 The electronic state is 1-A.
 Alpha  occ. eigenvalues --  -19.14577 -19.13084 -19.12953 -19.12618 -19.09720
 Alpha  occ. eigenvalues --  -19.04965 -19.01744 -10.20263 -10.19993 -10.19187
 Alpha  occ. eigenvalues --  -10.18907 -10.18632 -10.18358 -10.17882 -10.15209
 Alpha  occ. eigenvalues --  -10.14928 -10.14745 -10.14613 -10.12486  -1.05783
 Alpha  occ. eigenvalues --   -1.03624  -1.03460  -1.02200  -1.00556  -0.94472
 Alpha  occ. eigenvalues --   -0.94242  -0.81790  -0.77939  -0.74908  -0.70131
 Alpha  occ. eigenvalues --   -0.69512  -0.66095  -0.61939  -0.60047  -0.57750
 Alpha  occ. eigenvalues --   -0.55377  -0.54507  -0.51805  -0.51240  -0.48060
 Alpha  occ. eigenvalues --   -0.47867  -0.45549  -0.43793  -0.42676  -0.42462
 Alpha  occ. eigenvalues --   -0.41178  -0.40463  -0.39918  -0.39195  -0.38093
 Alpha  occ. eigenvalues --   -0.37517  -0.36759  -0.36155  -0.35961  -0.35368
 Alpha  occ. eigenvalues --   -0.35242  -0.34934  -0.33639  -0.32988  -0.32248
 Alpha  occ. eigenvalues --   -0.31928  -0.31554  -0.30865  -0.26139  -0.23494
 Alpha  occ. eigenvalues --   -0.22566  -0.19290  -0.18972  -0.17274  -0.11648
 Alpha virt. eigenvalues --   -0.00816  -0.00066   0.01240   0.01990   0.02504
 Alpha virt. eigenvalues --    0.02723   0.02800   0.03089   0.04402   0.04922
 Alpha virt. eigenvalues --    0.05136   0.05757   0.05889   0.06701   0.07853
 Alpha virt. eigenvalues --    0.08112   0.08482   0.08761   0.09135   0.09609
 Alpha virt. eigenvalues --    0.09747   0.10041   0.10940   0.11426   0.12296
 Alpha virt. eigenvalues --    0.12311   0.12708   0.12850   0.12921   0.13423
 Alpha virt. eigenvalues --    0.13897   0.14641   0.15084   0.15143   0.15329
 Alpha virt. eigenvalues --    0.15547   0.15744   0.16015   0.16303   0.16901
 Alpha virt. eigenvalues --    0.17494   0.17874   0.18030   0.18868   0.19475
 Alpha virt. eigenvalues --    0.19815   0.19965   0.20324   0.20948   0.21271
 Alpha virt. eigenvalues --    0.21566   0.22480   0.22651   0.23359   0.23789
 Alpha virt. eigenvalues --    0.24244   0.24553   0.24991   0.25583   0.25750
 Alpha virt. eigenvalues --    0.26321   0.26884   0.27099   0.27468   0.27796
 Alpha virt. eigenvalues --    0.28115   0.28524   0.29047   0.29299   0.29640
 Alpha virt. eigenvalues --    0.29860   0.30560   0.30648   0.30930   0.31248
 Alpha virt. eigenvalues --    0.31820   0.32150   0.32502   0.32738   0.32926
 Alpha virt. eigenvalues --    0.33588   0.34171   0.34628   0.34821   0.35537
 Alpha virt. eigenvalues --    0.36153   0.36339   0.36664   0.37287   0.37556
 Alpha virt. eigenvalues --    0.37778   0.38324   0.38941   0.39260   0.40439
 Alpha virt. eigenvalues --    0.41120   0.41385   0.42299   0.42885   0.43403
 Alpha virt. eigenvalues --    0.43733   0.44316   0.45087   0.46345   0.47077
 Alpha virt. eigenvalues --    0.47888   0.48816   0.49769   0.50214   0.51005
 Alpha virt. eigenvalues --    0.53240   0.53722   0.53918   0.55559   0.56215
 Alpha virt. eigenvalues --    0.56899   0.58870   0.59479   0.60418   0.60988
 Alpha virt. eigenvalues --    0.62034   0.62992   0.63200   0.63377   0.64270
 Alpha virt. eigenvalues --    0.65295   0.65968   0.66244   0.66795   0.67668
 Alpha virt. eigenvalues --    0.67865   0.68464   0.68829   0.69923   0.70131
 Alpha virt. eigenvalues --    0.72214   0.72578   0.73053   0.73569   0.74119
 Alpha virt. eigenvalues --    0.75642   0.76419   0.77810   0.78712   0.80281
 Alpha virt. eigenvalues --    0.81659   0.82922   0.84499   0.86284   0.86727
 Alpha virt. eigenvalues --    0.88263   0.89461   0.90575   0.91770   0.92362
 Alpha virt. eigenvalues --    0.93563   0.95565   0.96150   0.98508   0.99733
 Alpha virt. eigenvalues --    1.00579   1.00874   1.01692   1.01927   1.02443
 Alpha virt. eigenvalues --    1.04262   1.05738   1.06297   1.07549   1.09082
 Alpha virt. eigenvalues --    1.09619   1.10285   1.11689   1.12459   1.13609
 Alpha virt. eigenvalues --    1.14659   1.15429   1.17372   1.18183   1.18781
 Alpha virt. eigenvalues --    1.19651   1.20616   1.21515   1.21966   1.23169
 Alpha virt. eigenvalues --    1.23889   1.24124   1.24500   1.25047   1.26108
 Alpha virt. eigenvalues --    1.26534   1.26832   1.27163   1.28926   1.29186
 Alpha virt. eigenvalues --    1.29878   1.30739   1.30858   1.32136   1.33337
 Alpha virt. eigenvalues --    1.34214   1.35656   1.38047   1.41375   1.41725
 Alpha virt. eigenvalues --    1.42180   1.43640   1.44443   1.44759   1.46587
 Alpha virt. eigenvalues --    1.47036   1.50515   1.52225   1.53223   1.53992
 Alpha virt. eigenvalues --    1.54486   1.54829   1.58583   1.59208   1.61057
 Alpha virt. eigenvalues --    1.61234   1.62490   1.63838   1.64668   1.66177
 Alpha virt. eigenvalues --    1.66590   1.67190   1.68772   1.69170   1.72298
 Alpha virt. eigenvalues --    1.73068   1.74249   1.76420   1.77141   1.78235
 Alpha virt. eigenvalues --    1.79923   1.81134   1.81914   1.82085   1.83242
 Alpha virt. eigenvalues --    1.83717   1.85609   1.85943   1.88275   1.90069
 Alpha virt. eigenvalues --    1.90894   1.91564   1.93084   1.94188   1.94674
 Alpha virt. eigenvalues --    1.95432   1.97739   1.99973   2.00907   2.01944
 Alpha virt. eigenvalues --    2.03303   2.04468   2.07305   2.10149   2.12427
 Alpha virt. eigenvalues --    2.12796   2.14611   2.15267   2.18354   2.18709
 Alpha virt. eigenvalues --    2.19906   2.22258   2.24260   2.24703   2.26377
 Alpha virt. eigenvalues --    2.28494   2.29440   2.31220   2.33315   2.34892
 Alpha virt. eigenvalues --    2.36369   2.37164   2.40844   2.43987   2.46153
 Alpha virt. eigenvalues --    2.48256   2.49961   2.52760   2.55115   2.58324
 Alpha virt. eigenvalues --    2.60376   2.61400   2.61702   2.63551   2.64161
 Alpha virt. eigenvalues --    2.66809   2.69858   2.71094   2.71809   2.74022
 Alpha virt. eigenvalues --    2.75885   2.76150   2.78170   2.79763   2.80331
 Alpha virt. eigenvalues --    2.81649   2.86147   2.86802   2.87561   2.89157
 Alpha virt. eigenvalues --    2.90203   2.93732   2.94783   2.95216   3.00444
 Alpha virt. eigenvalues --    3.02200   3.03125   3.04997   3.07768   3.07846
 Alpha virt. eigenvalues --    3.09190   3.10428   3.10866   3.12486   3.13034
 Alpha virt. eigenvalues --    3.14548   3.15044   3.15309   3.15656   3.16721
 Alpha virt. eigenvalues --    3.17455   3.19126   3.19593   3.20224   3.21047
 Alpha virt. eigenvalues --    3.22919   3.23438   3.25558   3.28480   3.31406
 Alpha virt. eigenvalues --    3.33100   3.34563   3.38336   3.41485   3.44124
 Alpha virt. eigenvalues --    3.44644   3.46760   3.47708   3.50617   3.51988
 Alpha virt. eigenvalues --    3.56057   3.59583   3.61797   3.64197   3.77097
 Alpha virt. eigenvalues --    3.78781   3.80647   3.81112   3.82410   3.86576
 Alpha virt. eigenvalues --    3.87634   3.90858   3.92597   3.93910   3.96455
 Alpha virt. eigenvalues --    3.98874   4.00072   4.18415   4.19916   4.21156
 Alpha virt. eigenvalues --    4.24014   4.29322   4.32740   4.34665   4.46314
 Alpha virt. eigenvalues --    4.88896   4.90931   4.97735   5.02263   5.02960
 Alpha virt. eigenvalues --    5.07223   5.08993   5.14350   5.16756   5.32961
 Alpha virt. eigenvalues --    5.35961   5.42154   5.47562   5.49643   5.53882
 Alpha virt. eigenvalues --    5.59548   5.64852   5.71172   5.74186   5.78491
 Alpha virt. eigenvalues --    5.82234   5.85080   5.87536  23.50803  23.74038
 Alpha virt. eigenvalues --   23.90134  23.91758  23.93654  23.96066  24.00339
 Alpha virt. eigenvalues --   24.00594  24.03968  24.04674  24.14095  24.16134
 Alpha virt. eigenvalues --   49.90446  49.95569  49.97188  50.00507  50.03863
 Alpha virt. eigenvalues --   50.11033  50.14611
  Beta  occ. eigenvalues --  -19.14577 -19.13084 -19.12953 -19.12618 -19.09720
  Beta  occ. eigenvalues --  -19.04965 -19.01744 -10.20263 -10.19993 -10.19187
  Beta  occ. eigenvalues --  -10.18907 -10.18632 -10.18358 -10.17882 -10.15209
  Beta  occ. eigenvalues --  -10.14928 -10.14745 -10.14613 -10.12486  -1.05783
  Beta  occ. eigenvalues --   -1.03624  -1.03460  -1.02200  -1.00556  -0.94472
  Beta  occ. eigenvalues --   -0.94242  -0.81790  -0.77939  -0.74908  -0.70131
  Beta  occ. eigenvalues --   -0.69512  -0.66095  -0.61939  -0.60047  -0.57750
  Beta  occ. eigenvalues --   -0.55377  -0.54507  -0.51805  -0.51240  -0.48060
  Beta  occ. eigenvalues --   -0.47867  -0.45549  -0.43793  -0.42676  -0.42462
  Beta  occ. eigenvalues --   -0.41178  -0.40463  -0.39918  -0.39195  -0.38093
  Beta  occ. eigenvalues --   -0.37517  -0.36759  -0.36155  -0.35961  -0.35368
  Beta  occ. eigenvalues --   -0.35242  -0.34934  -0.33639  -0.32988  -0.32248
  Beta  occ. eigenvalues --   -0.31928  -0.31554  -0.30865  -0.26139  -0.23494
  Beta  occ. eigenvalues --   -0.22566  -0.19290  -0.18972  -0.17274  -0.11648
  Beta virt. eigenvalues --   -0.00816  -0.00066   0.01240   0.01990   0.02504
  Beta virt. eigenvalues --    0.02723   0.02800   0.03089   0.04402   0.04922
  Beta virt. eigenvalues --    0.05136   0.05757   0.05889   0.06701   0.07853
  Beta virt. eigenvalues --    0.08112   0.08482   0.08761   0.09135   0.09609
  Beta virt. eigenvalues --    0.09747   0.10041   0.10940   0.11426   0.12296
  Beta virt. eigenvalues --    0.12311   0.12708   0.12850   0.12921   0.13423
  Beta virt. eigenvalues --    0.13897   0.14641   0.15084   0.15143   0.15329
  Beta virt. eigenvalues --    0.15547   0.15744   0.16015   0.16303   0.16901
  Beta virt. eigenvalues --    0.17494   0.17874   0.18030   0.18868   0.19475
  Beta virt. eigenvalues --    0.19815   0.19965   0.20324   0.20948   0.21271
  Beta virt. eigenvalues --    0.21566   0.22480   0.22651   0.23359   0.23789
  Beta virt. eigenvalues --    0.24244   0.24553   0.24991   0.25583   0.25750
  Beta virt. eigenvalues --    0.26321   0.26884   0.27099   0.27468   0.27796
  Beta virt. eigenvalues --    0.28115   0.28524   0.29047   0.29299   0.29640
  Beta virt. eigenvalues --    0.29860   0.30560   0.30648   0.30930   0.31248
  Beta virt. eigenvalues --    0.31820   0.32150   0.32502   0.32738   0.32926
  Beta virt. eigenvalues --    0.33588   0.34171   0.34628   0.34821   0.35537
  Beta virt. eigenvalues --    0.36153   0.36339   0.36664   0.37287   0.37556
  Beta virt. eigenvalues --    0.37778   0.38324   0.38941   0.39260   0.40439
  Beta virt. eigenvalues --    0.41120   0.41385   0.42299   0.42885   0.43403
  Beta virt. eigenvalues --    0.43733   0.44316   0.45087   0.46345   0.47077
  Beta virt. eigenvalues --    0.47888   0.48816   0.49769   0.50214   0.51005
  Beta virt. eigenvalues --    0.53240   0.53722   0.53918   0.55559   0.56215
  Beta virt. eigenvalues --    0.56899   0.58870   0.59479   0.60418   0.60988
  Beta virt. eigenvalues --    0.62034   0.62992   0.63200   0.63377   0.64270
  Beta virt. eigenvalues --    0.65295   0.65968   0.66244   0.66795   0.67668
  Beta virt. eigenvalues --    0.67865   0.68464   0.68829   0.69923   0.70131
  Beta virt. eigenvalues --    0.72214   0.72578   0.73053   0.73569   0.74119
  Beta virt. eigenvalues --    0.75642   0.76419   0.77810   0.78712   0.80281
  Beta virt. eigenvalues --    0.81659   0.82922   0.84499   0.86284   0.86727
  Beta virt. eigenvalues --    0.88263   0.89461   0.90575   0.91770   0.92362
  Beta virt. eigenvalues --    0.93563   0.95565   0.96150   0.98508   0.99733
  Beta virt. eigenvalues --    1.00579   1.00874   1.01692   1.01927   1.02443
  Beta virt. eigenvalues --    1.04262   1.05738   1.06297   1.07549   1.09082
  Beta virt. eigenvalues --    1.09619   1.10285   1.11689   1.12459   1.13609
  Beta virt. eigenvalues --    1.14659   1.15429   1.17372   1.18183   1.18781
  Beta virt. eigenvalues --    1.19651   1.20616   1.21515   1.21966   1.23169
  Beta virt. eigenvalues --    1.23889   1.24124   1.24500   1.25047   1.26108
  Beta virt. eigenvalues --    1.26534   1.26832   1.27163   1.28926   1.29186
  Beta virt. eigenvalues --    1.29878   1.30739   1.30858   1.32136   1.33337
  Beta virt. eigenvalues --    1.34214   1.35656   1.38047   1.41375   1.41725
  Beta virt. eigenvalues --    1.42180   1.43640   1.44443   1.44759   1.46587
  Beta virt. eigenvalues --    1.47036   1.50515   1.52225   1.53223   1.53992
  Beta virt. eigenvalues --    1.54486   1.54829   1.58583   1.59208   1.61057
  Beta virt. eigenvalues --    1.61234   1.62490   1.63838   1.64668   1.66177
  Beta virt. eigenvalues --    1.66590   1.67190   1.68772   1.69170   1.72298
  Beta virt. eigenvalues --    1.73068   1.74249   1.76420   1.77141   1.78235
  Beta virt. eigenvalues --    1.79923   1.81134   1.81914   1.82085   1.83242
  Beta virt. eigenvalues --    1.83717   1.85609   1.85943   1.88275   1.90069
  Beta virt. eigenvalues --    1.90894   1.91564   1.93084   1.94188   1.94674
  Beta virt. eigenvalues --    1.95432   1.97739   1.99973   2.00907   2.01944
  Beta virt. eigenvalues --    2.03303   2.04468   2.07305   2.10149   2.12427
  Beta virt. eigenvalues --    2.12796   2.14611   2.15267   2.18354   2.18709
  Beta virt. eigenvalues --    2.19906   2.22258   2.24260   2.24703   2.26377
  Beta virt. eigenvalues --    2.28494   2.29440   2.31220   2.33315   2.34892
  Beta virt. eigenvalues --    2.36369   2.37164   2.40844   2.43987   2.46153
  Beta virt. eigenvalues --    2.48256   2.49961   2.52760   2.55115   2.58324
  Beta virt. eigenvalues --    2.60376   2.61400   2.61702   2.63551   2.64161
  Beta virt. eigenvalues --    2.66809   2.69858   2.71094   2.71809   2.74022
  Beta virt. eigenvalues --    2.75885   2.76150   2.78170   2.79763   2.80331
  Beta virt. eigenvalues --    2.81649   2.86147   2.86802   2.87561   2.89157
  Beta virt. eigenvalues --    2.90203   2.93732   2.94783   2.95216   3.00444
  Beta virt. eigenvalues --    3.02200   3.03125   3.04997   3.07768   3.07846
  Beta virt. eigenvalues --    3.09190   3.10428   3.10866   3.12486   3.13034
  Beta virt. eigenvalues --    3.14548   3.15044   3.15309   3.15656   3.16721
  Beta virt. eigenvalues --    3.17455   3.19126   3.19593   3.20224   3.21047
  Beta virt. eigenvalues --    3.22919   3.23438   3.25558   3.28480   3.31406
  Beta virt. eigenvalues --    3.33100   3.34563   3.38336   3.41485   3.44124
  Beta virt. eigenvalues --    3.44644   3.46760   3.47708   3.50617   3.51988
  Beta virt. eigenvalues --    3.56057   3.59583   3.61797   3.64197   3.77097
  Beta virt. eigenvalues --    3.78781   3.80647   3.81112   3.82410   3.86576
  Beta virt. eigenvalues --    3.87634   3.90858   3.92597   3.93910   3.96455
  Beta virt. eigenvalues --    3.98874   4.00072   4.18415   4.19916   4.21156
  Beta virt. eigenvalues --    4.24014   4.29322   4.32740   4.34665   4.46314
  Beta virt. eigenvalues --    4.88896   4.90931   4.97735   5.02263   5.02960
  Beta virt. eigenvalues --    5.07223   5.08993   5.14350   5.16756   5.32961
  Beta virt. eigenvalues --    5.35961   5.42154   5.47562   5.49643   5.53882
  Beta virt. eigenvalues --    5.59548   5.64852   5.71172   5.74186   5.78491
  Beta virt. eigenvalues --    5.82234   5.85080   5.87536  23.50803  23.74038
  Beta virt. eigenvalues --   23.90134  23.91758  23.93654  23.96066  24.00339
  Beta virt. eigenvalues --   24.00594  24.03968  24.04674  24.14095  24.16134
  Beta virt. eigenvalues --   49.90446  49.95569  49.97188  50.00507  50.03863
  Beta virt. eigenvalues --   50.11033  50.14611
          Condensed to atoms (all electrons):
               1          2          3          4          5          6
     1  C    5.676156  -0.417351   0.031090   0.201787  -0.025030  -0.026147
     2  C   -0.417351  11.223219   0.268309  -0.912758   0.059512  -1.084919
     3  C    0.031090   0.268309  20.511712   1.066751  -0.404435  -4.112532
     4  C    0.201787  -0.912758   1.066751  10.297313   0.800951  -0.186139
     5  O   -0.025030   0.059512  -0.404435   0.800951   8.616261  -0.322973
     6  C   -0.026147  -1.084919  -4.112532  -0.186139  -0.322973  15.416062
     7  C    0.010460  -0.253528  -0.697931  -1.967611  -0.055404   0.888059
     8  O   -0.000232   0.003321   0.067700  -0.079596  -0.022108  -0.441000
     9  C   -0.008139  -0.149590  -0.061902   0.030966   0.056209  -4.066740
    10  O    0.000004   0.000236   0.010392   0.030756   0.000460  -0.094606
    11  C   -0.005251  -0.156699  -0.356615  -1.053655   0.006495  -3.188884
    12  O    0.000007  -0.000362  -0.005451  -0.011758  -0.000018  -0.036084
    13  C   -0.018521  -0.520713  -2.018069  -1.041006  -0.012117   0.124626
    14  C    0.028838  -1.330209  -3.545487   0.161662   0.001565   3.917119
    15  C    0.041253  -0.701141  -4.179848   0.179181  -0.036641  -0.023520
    16  C    0.123159  -0.938869  -1.136390  -1.040145  -0.048199  -1.603413
    17  O   -0.046822   0.142314   0.357893   0.004907  -0.001779  -0.022832
    18  O   -0.001216  -0.012990  -0.212444   0.006527  -0.000191   0.090191
    19  O   -0.000009  -0.002690  -0.031011   0.009649   0.000063   0.060070
    20  H    0.449852  -0.008769  -0.076663  -0.007046   0.007782  -0.018305
    21  H    0.370366   0.057730  -0.010674  -0.023335  -0.003727   0.007138
    22  H    0.319930   0.021052  -0.000636  -0.007079   0.000352  -0.001700
    23  H   -0.098901   0.457800  -0.091650   0.057716   0.002406   0.048511
    24  H   -0.045279   0.536509  -0.297542  -0.034157   0.010180  -0.043640
    25  H    0.000024  -0.001632  -0.022054  -0.017476  -0.001872   0.160912
    26  H    0.015062  -0.146702  -0.388404   0.017611  -0.001457   0.018003
    27  H   -0.000706   0.007403   0.077432   0.005883  -0.000230  -0.041516
    28  H   -0.000040  -0.000318  -0.002724  -0.003498   0.000130   0.007647
    29  H    0.000004  -0.000813  -0.005037  -0.006662  -0.000051   0.003830
               7          8          9         10         11         12
     1  C    0.010460  -0.000232  -0.008139   0.000004  -0.005251   0.000007
     2  C   -0.253528   0.003321  -0.149590   0.000236  -0.156699  -0.000362
     3  C   -0.697931   0.067700  -0.061902   0.010392  -0.356615  -0.005451
     4  C   -1.967611  -0.079596   0.030966   0.030756  -1.053655  -0.011758
     5  O   -0.055404  -0.022108   0.056209   0.000460   0.006495  -0.000018
     6  C    0.888059  -0.441000  -4.066740  -0.094606  -3.188884  -0.036084
     7  C   13.937629   0.310945   0.718579  -0.676578  -6.391401  -0.164018
     8  O    0.310945   8.227942   0.113161   0.014514   0.025271  -0.001637
     9  C    0.718579   0.113161  19.046992   0.409751  -0.564529  -0.858398
    10  O   -0.676578   0.014514   0.409751   8.215419   0.227671   0.012084
    11  C   -6.391401   0.025271  -0.564529   0.227671  22.702399   1.026050
    12  O   -0.164018  -0.001637  -0.858398   0.012084   1.026050   8.246186
    13  C   -0.824110   0.000790  -4.289258   0.044789   1.480950   0.031372
    14  C    1.450463  -0.065844  -3.666779  -0.048035  -6.059699  -0.057897
    15  C   -0.202236  -0.012613  -0.853719   0.000652  -1.222967  -0.012919
    16  C   -0.220476   0.001000   0.481248  -0.002464   0.841726   0.001107
    17  O   -0.007698  -0.000057  -0.002706   0.000004  -0.001314  -0.000005
    18  O    0.025440   0.000042  -0.006323   0.000032  -0.129314  -0.002116
    19  O   -0.014173  -0.000008  -0.176511  -0.001454  -0.627656  -0.024924
    20  H    0.003287  -0.000505   0.000732  -0.000014  -0.000286   0.000002
    21  H   -0.003121   0.000163   0.000518   0.000002   0.000827   0.000003
    22  H   -0.002374   0.000009  -0.000510  -0.000001  -0.000462  -0.000001
    23  H   -0.028942   0.000572  -0.000844  -0.000044  -0.000894   0.000003
    24  H    0.019577   0.000264  -0.000215   0.000025  -0.000070  -0.000013
    25  H    0.251350   0.168709  -0.305884   0.011249  -0.090341  -0.000263
    26  H   -0.003291  -0.000110  -0.000057  -0.000012   0.000284   0.000029
    27  H   -0.004301   0.000168   0.034310  -0.000102   0.100439  -0.000784
    28  H    0.159173   0.003687   0.264034   0.226064  -0.315213   0.015982
    29  H    0.027508   0.000195   0.189088   0.002331  -0.067607   0.231875
              13         14         15         16         17         18
     1  C   -0.018521   0.028838   0.041253   0.123159  -0.046822  -0.001216
     2  C   -0.520713  -1.330209  -0.701141  -0.938869   0.142314  -0.012990
     3  C   -2.018069  -3.545487  -4.179848  -1.136390   0.357893  -0.212444
     4  C   -1.041006   0.161662   0.179181  -1.040145   0.004907   0.006527
     5  O   -0.012117   0.001565  -0.036641  -0.048199  -0.001779  -0.000191
     6  C    0.124626   3.917119  -0.023520  -1.603413  -0.022832   0.090191
     7  C   -0.824110   1.450463  -0.202236  -0.220476  -0.007698   0.025440
     8  O    0.000790  -0.065844  -0.012613   0.001000  -0.000057   0.000042
     9  C   -4.289258  -3.666779  -0.853719   0.481248  -0.002706  -0.006323
    10  O    0.044789  -0.048035   0.000652  -0.002464   0.000004   0.000032
    11  C    1.480950  -6.059699  -1.222967   0.841726  -0.001314  -0.129314
    12  O    0.031372  -0.057897  -0.012919   0.001107  -0.000005  -0.002116
    13  C   14.985320   1.283632  -2.962405  -0.314364  -0.004209  -0.125982
    14  C    1.283632  16.604052   1.197930  -4.843829  -0.099038   0.487096
    15  C   -2.962405   1.197930  14.870060   0.487498  -0.683449   0.560348
    16  C   -0.314364  -4.843829   0.487498  15.100155   0.316984  -0.842610
    17  O   -0.004209  -0.099038  -0.683449   0.316984   8.159984   0.037354
    18  O   -0.125982   0.487096   0.560348  -0.842610   0.037354   8.470874
    19  O    0.865290   0.011841  -0.151634  -0.039905   0.000650  -0.012484
    20  H   -0.003687  -0.002634   0.003905   0.008380  -0.004522  -0.000421
    21  H    0.003429  -0.010540  -0.015770  -0.035605   0.009031   0.000700
    22  H   -0.000416  -0.007508  -0.002147   0.006452   0.002514   0.000133
    23  H    0.000880  -0.016492  -0.014883  -0.047676   0.005310  -0.000472
    24  H   -0.007257  -0.006569   0.010059   0.102925  -0.026412  -0.000290
    25  H    0.000836   0.059869  -0.000661  -0.002347  -0.000018   0.000091
    26  H    0.006768   0.049624   0.254540   0.193407   0.196771  -0.001091
    27  H   -0.040766  -0.354413  -0.024589   0.246858  -0.001397   0.182822
    28  H   -0.078448  -0.010797  -0.004182   0.001740  -0.000003   0.000014
    29  H   -0.130880  -0.002954  -0.002780  -0.006277  -0.000018   0.000787
              19         20         21         22         23         24
     1  C   -0.000009   0.449852   0.370366   0.319930  -0.098901  -0.045279
     2  C   -0.002690  -0.008769   0.057730   0.021052   0.457800   0.536509
     3  C   -0.031011  -0.076663  -0.010674  -0.000636  -0.091650  -0.297542
     4  C    0.009649  -0.007046  -0.023335  -0.007079   0.057716  -0.034157
     5  O    0.000063   0.007782  -0.003727   0.000352   0.002406   0.010180
     6  C    0.060070  -0.018305   0.007138  -0.001700   0.048511  -0.043640
     7  C   -0.014173   0.003287  -0.003121  -0.002374  -0.028942   0.019577
     8  O   -0.000008  -0.000505   0.000163   0.000009   0.000572   0.000264
     9  C   -0.176511   0.000732   0.000518  -0.000510  -0.000844  -0.000215
    10  O   -0.001454  -0.000014   0.000002  -0.000001  -0.000044   0.000025
    11  C   -0.627656  -0.000286   0.000827  -0.000462  -0.000894  -0.000070
    12  O   -0.024924   0.000002   0.000003  -0.000001   0.000003  -0.000013
    13  C    0.865290  -0.003687   0.003429  -0.000416   0.000880  -0.007257
    14  C    0.011841  -0.002634  -0.010540  -0.007508  -0.016492  -0.006569
    15  C   -0.151634   0.003905  -0.015770  -0.002147  -0.014883   0.010059
    16  C   -0.039905   0.008380  -0.035605   0.006452  -0.047676   0.102925
    17  O    0.000650  -0.004522   0.009031   0.002514   0.005310  -0.026412
    18  O   -0.012484  -0.000421   0.000700   0.000133  -0.000472  -0.000290
    19  O    8.721470   0.000043   0.000006  -0.000011   0.000053  -0.000118
    20  H    0.000043   0.581979  -0.058749  -0.033137  -0.027125   0.020272
    21  H    0.000006  -0.058749   0.603404  -0.022047   0.020320  -0.016950
    22  H   -0.000011  -0.033137  -0.022047   0.595458   0.015238  -0.002321
    23  H    0.000053  -0.027125   0.020320   0.015238   0.608333  -0.065086
    24  H   -0.000118   0.020272  -0.016950  -0.002321  -0.065086   0.737598
    25  H   -0.000063  -0.000051   0.000010   0.000007   0.000018  -0.000001
    26  H    0.000537   0.001155  -0.006667  -0.003049  -0.000400   0.002307
    27  H    0.061017  -0.000082   0.000151   0.000074   0.000526  -0.000260
    28  H   -0.000821  -0.000004   0.000007  -0.000001   0.000041  -0.000019
    29  H    0.064264   0.000001  -0.000004  -0.000002  -0.000025   0.000013
              25         26         27         28         29
     1  C    0.000024   0.015062  -0.000706  -0.000040   0.000004
     2  C   -0.001632  -0.146702   0.007403  -0.000318  -0.000813
     3  C   -0.022054  -0.388404   0.077432  -0.002724  -0.005037
     4  C   -0.017476   0.017611   0.005883  -0.003498  -0.006662
     5  O   -0.001872  -0.001457  -0.000230   0.000130  -0.000051
     6  C    0.160912   0.018003  -0.041516   0.007647   0.003830
     7  C    0.251350  -0.003291  -0.004301   0.159173   0.027508
     8  O    0.168709  -0.000110   0.000168   0.003687   0.000195
     9  C   -0.305884  -0.000057   0.034310   0.264034   0.189088
    10  O    0.011249  -0.000012  -0.000102   0.226064   0.002331
    11  C   -0.090341   0.000284   0.100439  -0.315213  -0.067607
    12  O   -0.000263   0.000029  -0.000784   0.015982   0.231875
    13  C    0.000836   0.006768  -0.040766  -0.078448  -0.130880
    14  C    0.059869   0.049624  -0.354413  -0.010797  -0.002954
    15  C   -0.000661   0.254540  -0.024589  -0.004182  -0.002780
    16  C   -0.002347   0.193407   0.246858   0.001740  -0.006277
    17  O   -0.000018   0.196771  -0.001397  -0.000003  -0.000018
    18  O    0.000091  -0.001091   0.182822   0.000014   0.000787
    19  O   -0.000063   0.000537   0.061017  -0.000821   0.064264
    20  H   -0.000051   0.001155  -0.000082  -0.000004   0.000001
    21  H    0.000010  -0.006667   0.000151   0.000007  -0.000004
    22  H    0.000007  -0.003049   0.000074  -0.000001  -0.000002
    23  H    0.000018  -0.000400   0.000526   0.000041  -0.000025
    24  H   -0.000001   0.002307  -0.000260  -0.000019   0.000013
    25  H    0.502165  -0.000000   0.000086  -0.000942  -0.000171
    26  H   -0.000000   0.507735  -0.000618   0.000004  -0.000003
    27  H    0.000086  -0.000618   0.363679   0.000090   0.000704
    28  H   -0.000942   0.000004   0.000090   0.434454  -0.001527
    29  H   -0.000171  -0.000003   0.000704  -0.001527   0.407887
          Atomic-Atomic Spin Densities.
               1          2          3          4          5          6
     1  C   -0.000000   0.000000  -0.000000  -0.000000  -0.000000  -0.000000
     2  C    0.000000   0.000000   0.000000  -0.000000  -0.000000  -0.000000
     3  C   -0.000000   0.000000  -0.000000  -0.000000   0.000000  -0.000000
     4  C   -0.000000  -0.000000  -0.000000  -0.000000  -0.000000   0.000000
     5  O   -0.000000  -0.000000   0.000000  -0.000000  -0.000000  -0.000000
     6  C   -0.000000  -0.000000  -0.000000   0.000000  -0.000000  -0.000000
     7  C    0.000000   0.000000   0.000000   0.000000   0.000000   0.000000
     8  O    0.000000   0.000000   0.000000  -0.000000   0.000000   0.000000
     9  C    0.000000   0.000000   0.000000   0.000000   0.000000   0.000000
    10  O    0.000000   0.000000   0.000000  -0.000000   0.000000  -0.000000
    11  C    0.000000   0.000000   0.000000  -0.000000   0.000000  -0.000000
    12  O    0.000000   0.000000   0.000000  -0.000000   0.000000   0.000000
    13  C    0.000000   0.000000   0.000000  -0.000000  -0.000000  -0.000000
    14  C    0.000000  -0.000000  -0.000000  -0.000000  -0.000000  -0.000000
    15  C    0.000000  -0.000000   0.000000   0.000000   0.000000   0.000000
    16  C    0.000000  -0.000000   0.000000   0.000000   0.000000   0.000000
    17  O   -0.000000   0.000000  -0.000000  -0.000000  -0.000000  -0.000000
    18  O    0.000000   0.000000   0.000000   0.000000  -0.000000  -0.000000
    19  O   -0.000000  -0.000000  -0.000000  -0.000000  -0.000000  -0.000000
    20  H   -0.000000  -0.000000   0.000000   0.000000   0.000000   0.000000
    21  H    0.000000   0.000000  -0.000000  -0.000000   0.000000  -0.000000
    22  H    0.000000  -0.000000   0.000000  -0.000000  -0.000000  -0.000000
    23  H   -0.000000  -0.000000   0.000000  -0.000000  -0.000000  -0.000000
    24  H    0.000000  -0.000000   0.000000   0.000000   0.000000   0.000000
    25  H   -0.000000   0.000000  -0.000000   0.000000   0.000000   0.000000
    26  H    0.000000  -0.000000   0.000000   0.000000  -0.000000   0.000000
    27  H   -0.000000   0.000000  -0.000000   0.000000  -0.000000   0.000000
    28  H    0.000000   0.000000   0.000000   0.000000  -0.000000   0.000000
    29  H    0.000000  -0.000000  -0.000000  -0.000000   0.000000  -0.000000
               7          8          9         10         11         12
     1  C    0.000000   0.000000   0.000000   0.000000   0.000000   0.000000
     2  C    0.000000   0.000000   0.000000   0.000000   0.000000   0.000000
     3  C    0.000000   0.000000   0.000000   0.000000   0.000000   0.000000
     4  C    0.000000  -0.000000   0.000000  -0.000000  -0.000000  -0.000000
     5  O    0.000000   0.000000   0.000000   0.000000   0.000000   0.000000
     6  C    0.000000   0.000000   0.000000  -0.000000  -0.000000   0.000000
     7  C    0.000000  -0.000000  -0.000000  -0.000000  -0.000000  -0.000000
     8  O   -0.000000  -0.000000   0.000000   0.000000   0.000000  -0.000000
     9  C   -0.000000   0.000000   0.000000   0.000000  -0.000000  -0.000000
    10  O   -0.000000   0.000000   0.000000   0.000000   0.000000   0.000000
    11  C   -0.000000   0.000000  -0.000000   0.000000   0.000000   0.000000
    12  O   -0.000000  -0.000000  -0.000000   0.000000   0.000000  -0.000000
    13  C   -0.000000  -0.000000   0.000000  -0.000000   0.000000   0.000000
    14  C    0.000000   0.000000   0.000000  -0.000000   0.000000  -0.000000
    15  C   -0.000000   0.000000   0.000000  -0.000000   0.000000   0.000000
    16  C   -0.000000  -0.000000  -0.000000  -0.000000  -0.000000  -0.000000
    17  O    0.000000  -0.000000   0.000000   0.000000   0.000000   0.000000
    18  O   -0.000000   0.000000   0.000000  -0.000000   0.000000  -0.000000
    19  O    0.000000   0.000000   0.000000  -0.000000   0.000000  -0.000000
    20  H   -0.000000  -0.000000  -0.000000  -0.000000   0.000000  -0.000000
    21  H    0.000000   0.000000   0.000000  -0.000000  -0.000000   0.000000
    22  H    0.000000  -0.000000   0.000000   0.000000  -0.000000   0.000000
    23  H   -0.000000   0.000000   0.000000  -0.000000  -0.000000   0.000000
    24  H    0.000000  -0.000000   0.000000   0.000000   0.000000  -0.000000
[...]
    18  O   -0.000000   0.000000  -0.000000  -0.000000  -0.000000
    19  O    0.000000  -0.000000  -0.000000   0.000000   0.000000
    20  H    0.000000   0.000000  -0.000000   0.000000   0.000000
    21  H   -0.000000   0.000000  -0.000000  -0.000000  -0.000000
    22  H    0.000000  -0.000000   0.000000   0.000000  -0.000000
    23  H    0.000000  -0.000000   0.000000   0.000000  -0.000000
    24  H   -0.000000  -0.000000  -0.000000   0.000000   0.000000
    25  H    0.000000   0.000000   0.000000   0.000000  -0.000000
    26  H    0.000000   0.000000  -0.000000  -0.000000  -0.000000
    27  H    0.000000  -0.000000   0.000000   0.000000  -0.000000
    28  H    0.000000  -0.000000   0.000000  -0.000000  -0.000000
    29  H   -0.000000  -0.000000  -0.000000  -0.000000  -0.000000
 Mulliken charges and spin densities:
               1          2
     1  C   -0.574346   0.000000
     2  C   -0.137348  -0.000000
     3  C    1.266223   0.000000
     4  C   -0.479738   0.000000
     5  O   -0.626132   0.000000
     6  C    0.572784   0.000000
     7  C   -0.285278  -0.000000
     8  O   -0.314745  -0.000000
     9  C   -0.333485   0.000000
    10  O   -0.383124  -0.000000
    11  C   -0.179255  -0.000000
    12  O   -0.388054   0.000000
    13  C   -0.436469  -0.000000
    14  C    0.875036   0.000000
    15  C   -0.497320  -0.000000
    16  C   -0.790070  -0.000000
    17  O   -0.331439   0.000000
    18  O   -0.514509  -0.000000
    19  O   -0.711479   0.000000
    20  H    0.164611   0.000000
    21  H    0.133384   0.000000
    22  H    0.122181  -0.000000
    23  H    0.175710   0.000000
    24  H    0.106471  -0.000000
    25  H    0.288450  -0.000000
    26  H    0.288022   0.000000
    27  H    0.388123   0.000000
    28  H    0.305470   0.000000
    29  H    0.296326  -0.000000
 Sum of Mulliken charges =  -2.00000   0.00000
 Mulliken charges and spin densities with hydrogens summed into heavy atoms:
               1          2
     1  C   -0.154170   0.000000
     2  C    0.144832  -0.000000
     3  C    1.266223   0.000000
     4  C   -0.479738   0.000000
     5  O   -0.626132   0.000000
     6  C    0.572784   0.000000
     7  C   -0.285278  -0.000000
     8  O   -0.026295  -0.000000
     9  C   -0.333485   0.000000
    10  O   -0.077655  -0.000000
    11  C   -0.179255  -0.000000
    12  O   -0.091728  -0.000000
    13  C   -0.436469  -0.000000
    14  C    0.875036   0.000000
    15  C   -0.497320  -0.000000
    16  C   -0.790070  -0.000000
    17  O   -0.043417   0.000000
    18  O   -0.126386  -0.000000
    19  O   -0.711479   0.000000
 Electronic spatial extent (au):  <R**2>=           5162.4267
 Charge=             -2.0000 electrons
 Dipole moment (field-independent basis, Debye):
    X=              0.0683    Y=             -1.3053    Z=              0.7669  Tot=              1.5154
 Quadrupole moment (field-independent basis, Debye-Ang):
   XX=           -143.6428   YY=           -181.6854   ZZ=           -120.6454
   XY=            -11.2416   XZ=              0.7830   YZ=             -2.8961
 Traceless Quadrupole moment (field-independent basis, Debye-Ang):
   XX=              5.0150   YY=            -33.0275   ZZ=             28.0125
   XY=            -11.2416   XZ=              0.7830   YZ=             -2.8961
 Octapole moment (field-independent basis, Debye-Ang**2):
  XXX=            -23.2973  YYY=            -21.3965  ZZZ=              0.7338  XYY=             44.8879
  XXY=            -18.3605  XXZ=             -4.0610  XZZ=              8.7305  YZZ=              1.3171
  YYZ=              8.3291  XYZ=             -1.6695
 Hexadecapole moment (field-independent basis, Debye-Ang**3):
 XXXX=          -4566.6636 YYYY=          -2655.0336 ZZZZ=           -221.6834 XXXY=           -148.4320
 XXXZ=             66.4856 YYYX=            -95.8016 YYYZ=            -19.2554 ZZZX=              8.4922
 ZZZY=             -0.3297 XXYY=          -1281.5852 XXZZ=           -824.9589 YYZZ=           -412.8847
 XXYZ=            -10.1004 YYXZ=             -4.7345 ZZXY=            -17.4421
 N-N= 1.462906231559D+03 E-N=-5.288599487669D+03  KE= 9.866489089508D+02
                          Isotropic Fermi Contact Couplings
        Atom                 a.u.       MegaHertz       Gauss      10(-4) cm-1
     1  C(13)             -0.00000      -0.00000      -0.00000      -0.00000
     2  C(13)              0.00000       0.00000       0.00000       0.00000
     3  C(13)             -0.00000      -0.00000      -0.00000      -0.00000
     4  C(13)             -0.00000      -0.00000      -0.00000      -0.00000
     5  O(17)              0.00000      -0.00000      -0.00000      -0.00000
     6  C(13)              0.00000       0.00000       0.00000       0.00000
     7  C(13)              0.00000       0.00000       0.00000       0.00000
     8  O(17)             -0.00000       0.00000       0.00000       0.00000
     9  C(13)             -0.00000      -0.00000      -0.00000      -0.00000
    10  O(17)             -0.00000       0.00000       0.00000       0.00000
    11  C(13)             -0.00000      -0.00000      -0.00000      -0.00000
    12  O(17)             -0.00000       0.00000       0.00000       0.00000
    13  C(13)              0.00000       0.00000       0.00000       0.00000
    14  C(13)              0.00000       0.00000       0.00000       0.00000
    15  C(13)             -0.00000      -0.00000      -0.00000      -0.00000
    16  C(13)              0.00000       0.00000       0.00000       0.00000
    17  O(17)              0.00000      -0.00000      -0.00000      -0.00000
    18  O(17)              0.00000      -0.00000      -0.00000      -0.00000
    19  O(17)             -0.00000       0.00000       0.00000       0.00000
    20  H(1)               0.00000       0.00000       0.00000       0.00000
    21  H(1)              -0.00000      -0.00000      -0.00000      -0.00000
    22  H(1)               0.00000       0.00000       0.00000       0.00000
    23  H(1)               0.00000       0.00000       0.00000       0.00000
    24  H(1)               0.00000       0.00000       0.00000       0.00000
    25  H(1)               0.00000       0.00000       0.00000       0.00000
    26  H(1)               0.00000       0.00000       0.00000       0.00000
    27  H(1)               0.00000       0.00000       0.00000       0.00000
    28  H(1)              -0.00000      -0.00000      -0.00000      -0.00000
    29  H(1)              -0.00000      -0.00000      -0.00000      -0.00000
 --------------------------------------------------------
       Center         ----  Spin Dipole Couplings  ----
                      3XX-RR        3YY-RR        3ZZ-RR
 --------------------------------------------------------
     1   Atom        0.000000      0.000000     -0.000000
     2   Atom       -0.000000      0.000000     -0.000000
     3   Atom        0.000000     -0.000000      0.000000
     4   Atom       -0.000000      0.000000      0.000000
     5   Atom        0.000000     -0.000000     -0.000000
     6   Atom        0.000000     -0.000000      0.000000
     7   Atom       -0.000000     -0.000000      0.000000
     8   Atom        0.000000      0.000000     -0.000000
     9   Atom       -0.000000      0.000000      0.000000
    10   Atom       -0.000000      0.000000     -0.000000
    11   Atom       -0.000000      0.000000     -0.000000
    12   Atom       -0.000000     -0.000000      0.000000
    13   Atom        0.000000     -0.000000      0.000000
    14   Atom       -0.000000      0.000000     -0.000000
    15   Atom       -0.000000      0.000000     -0.000000
    16   Atom       -0.000000     -0.000000      0.000000
    17   Atom       -0.000000      0.000000     -0.000000
    18   Atom       -0.000000      0.000000      0.000000
    19   Atom       -0.000000     -0.000000      0.000000
    20   Atom       -0.000000      0.000000      0.000000
    21   Atom        0.000000     -0.000000     -0.000000
    22   Atom        0.000000     -0.000000      0.000000
    23   Atom       -0.000000     -0.000000      0.000000
    24   Atom       -0.000000      0.000000     -0.000000
    25   Atom       -0.000000     -0.000000      0.000000
    26   Atom       -0.000000     -0.000000      0.000000
    27   Atom        0.000000     -0.000000     -0.000000
    28   Atom        0.000000      0.000000     -0.000000
    29   Atom        0.000000     -0.000000      0.000000
 --------------------------------------------------------
                        XY            XZ            YZ
 --------------------------------------------------------
     1   Atom       -0.000000      0.000000      0.000000
     2   Atom       -0.000000      0.000000     -0.000000
     3   Atom        0.000000      0.000000      0.000000
     4   Atom       -0.000000      0.000000     -0.000000
     5   Atom        0.000000      0.000000      0.000000
     6   Atom       -0.000000      0.000000     -0.000000
     7   Atom        0.000000      0.000000      0.000000
     8   Atom        0.000000      0.000000      0.000000
     9   Atom        0.000000     -0.000000      0.000000
    10   Atom        0.000000      0.000000     -0.000000
    11   Atom        0.000000      0.000000      0.000000
    12   Atom        0.000000      0.000000     -0.000000
    13   Atom        0.000000      0.000000     -0.000000
    14   Atom        0.000000     -0.000000     -0.000000
    15   Atom       -0.000000     -0.000000     -0.000000
    16   Atom       -0.000000      0.000000      0.000000
    17   Atom       -0.000000     -0.000000      0.000000
    18   Atom       -0.000000      0.000000      0.000000
    19   Atom        0.000000      0.000000     -0.000000
    20   Atom        0.000000     -0.000000      0.000000
    21   Atom       -0.000000      0.000000     -0.000000
    22   Atom        0.000000     -0.000000     -0.000000
    23   Atom        0.000000     -0.000000      0.000000
    24   Atom        0.000000     -0.000000     -0.000000
    25   Atom       -0.000000     -0.000000      0.000000
    26   Atom        0.000000      0.000000      0.000000
    27   Atom        0.000000      0.000000      0.000000
    28   Atom       -0.000000     -0.000000     -0.000000
    29   Atom        0.000000      0.000000     -0.000000
 --------------------------------------------------------


 ---------------------------------------------------------------------------------
              Anisotropic Spin Dipole Couplings in Principal Axis System
 ---------------------------------------------------------------------------------

       Atom             a.u.   MegaHertz   Gauss  10(-4) cm-1        Axes

              Baa    -0.0000    -0.000    -0.000    -0.000 -0.4597 -0.3806  0.8023
     1 C(13)  Bbb     0.0000     0.000     0.000     0.000  0.7801 -0.6049  0.1600
              Bcc     0.0000     0.000     0.000     0.000  0.4245  0.6994  0.5750
 
              Baa    -0.0000    -0.000    -0.000    -0.000 -0.5122  0.1958  0.8363
     2 C(13)  Bbb    -0.0000    -0.000    -0.000    -0.000  0.8437  0.2972  0.4471
              Bcc     0.0000     0.000     0.000     0.000 -0.1610  0.9345 -0.3174
 
              Baa    -0.0000    -0.000    -0.000    -0.000 -0.4100  0.9006 -0.1440
     3 C(13)  Bbb     0.0000     0.000     0.000     0.000  0.8979  0.3708 -0.2373
              Bcc     0.0000     0.000     0.000     0.000  0.1603  0.2266  0.9607
 
              Baa    -0.0000    -0.000    -0.000    -0.000  0.9813  0.0616 -0.1823
     4 C(13)  Bbb     0.0000     0.000     0.000     0.000  0.1616  0.2508  0.9545
              Bcc     0.0000     0.000     0.000     0.000 -0.1045  0.9661 -0.2361
 
              Baa    -0.0000     0.000     0.000     0.000 -0.3339 -0.0111  0.9426
     5 O(17)  Bbb    -0.0000     0.000     0.000     0.000 -0.1299  0.9909 -0.0344
              Bcc     0.0000    -0.000    -0.000    -0.000  0.9336  0.1339  0.3323
 
              Baa    -0.0000    -0.000    -0.000    -0.000  0.5926  0.7815 -0.1953
     6 C(13)  Bbb    -0.0000    -0.000    -0.000    -0.000 -0.4677  0.5312  0.7065
              Bcc     0.0000     0.000     0.000     0.000  0.6558 -0.3274  0.6802
 
              Baa    -0.0000    -0.000    -0.000    -0.000 -0.2211  0.9753 -0.0020
     7 C(13)  Bbb    -0.0000    -0.000    -0.000    -0.000  0.8994  0.2031 -0.3871
              Bcc     0.0000     0.000     0.000     0.000  0.3772  0.0874  0.9220
 
              Baa    -0.0000     0.000     0.000     0.000  0.7550 -0.6489  0.0944
     8 O(17)  Bbb    -0.0000     0.000     0.000     0.000 -0.0966  0.0323  0.9948
              Bcc     0.0000    -0.000    -0.000    -0.000  0.6486  0.7602  0.0383
 
              Baa    -0.0000    -0.000    -0.000    -0.000  0.7615 -0.6101  0.2188
     9 C(13)  Bbb     0.0000     0.000     0.000     0.000 -0.0833  0.2426  0.9665
              Bcc     0.0000     0.000     0.000     0.000  0.6427  0.7543 -0.1340
 
              Baa    -0.0000     0.000     0.000     0.000  0.9395 -0.0335 -0.3408
    10 O(17)  Bbb    -0.0000     0.000     0.000     0.000  0.3424  0.0683  0.9371
              Bcc     0.0000    -0.000    -0.000    -0.000  0.0081  0.9971 -0.0756
 
              Baa    -0.0000    -0.000    -0.000    -0.000  0.8485 -0.2394 -0.4719
    11 C(13)  Bbb    -0.0000    -0.000    -0.000    -0.000  0.4163 -0.2483  0.8746
              Bcc     0.0000     0.000     0.000     0.000  0.3266  0.9386  0.1110
 
              Baa    -0.0000     0.000     0.000     0.000 -0.5719  0.7096  0.4117
    12 O(17)  Bbb     0.0000    -0.000    -0.000    -0.000  0.6571  0.0959  0.7476
              Bcc     0.0000    -0.000    -0.000    -0.000  0.4910  0.6981 -0.5211
 
              Baa    -0.0000    -0.000    -0.000    -0.000 -0.5921  0.6346  0.4966
    13 C(13)  Bbb    -0.0000    -0.000    -0.000    -0.000  0.3120  0.7488 -0.5848
              Bcc     0.0000     0.000     0.000     0.000  0.7430  0.1914  0.6414
 
              Baa    -0.0000    -0.000    -0.000    -0.000  0.9097 -0.2495  0.3319
    14 C(13)  Bbb     0.0000     0.000     0.000     0.000 -0.2166  0.3967  0.8920
              Bcc     0.0000     0.000     0.000     0.000  0.3542  0.8834 -0.3069
 
              Baa    -0.0000    -0.000    -0.000    -0.000  0.9242  0.0482  0.3788
    15 C(13)  Bbb    -0.0000    -0.000    -0.000    -0.000 -0.3813  0.1742  0.9079
              Bcc     0.0000     0.000     0.000     0.000  0.0222  0.9835 -0.1794
 
              Baa    -0.0000    -0.000    -0.000    -0.000  0.7121  0.6644 -0.2271
    16 C(13)  Bbb     0.0000     0.000     0.000     0.000  0.7012 -0.6895  0.1814
              Bcc     0.0000     0.000     0.000     0.000  0.0361  0.2884  0.9568
 
              Baa    -0.0000     0.000     0.000     0.000  0.8871  0.4615 -0.0054
    17 O(17)  Bbb    -0.0000     0.000     0.000     0.000  0.2050 -0.3835  0.9005
              Bcc     0.0000    -0.000    -0.000    -0.000 -0.4136  0.7999  0.4348
 
              Baa    -0.0000     0.000     0.000     0.000  0.9642  0.2581 -0.0616
    18 O(17)  Bbb     0.0000    -0.000    -0.000    -0.000  0.1259 -0.2407  0.9624
              Bcc     0.0000    -0.000    -0.000    -0.000 -0.2336  0.9356  0.2646
 
              Baa    -0.0000     0.000     0.000     0.000  0.7176 -0.6667 -0.2014
    19 O(17)  Bbb     0.0000    -0.000    -0.000    -0.000 -0.3420 -0.5893  0.7320
              Bcc     0.0000    -0.000    -0.000    -0.000  0.6067  0.4563  0.6509
 
              Baa    -0.0000    -0.000    -0.000    -0.000  0.8008 -0.5361  0.2672
    20 H(1)   Bbb     0.0000     0.000     0.000     0.000  0.4909  0.8430  0.2199
              Bcc     0.0000     0.000     0.000     0.000 -0.3432 -0.0449  0.9382
 
              Baa    -0.0000    -0.000    -0.000    -0.000 -0.1408  0.7476  0.6490
    21 H(1)   Bbb     0.0000     0.000     0.000     0.000  0.7419  0.5138 -0.4309
              Bcc     0.0000     0.000     0.000     0.000  0.6556 -0.4208  0.6270
 
              Baa    -0.0000    -0.000    -0.000    -0.000  0.6266  0.0731  0.7759
    22 H(1)   Bbb    -0.0000    -0.000    -0.000    -0.000 -0.1775  0.9828  0.0508
              Bcc     0.0000     0.000     0.000     0.000  0.7588  0.1696 -0.6288
 
              Baa    -0.0000    -0.000    -0.000    -0.000 -0.5406  0.5953 -0.5945
    23 H(1)   Bbb    -0.0000    -0.000    -0.000    -0.000  0.7897  0.6026 -0.1147
              Bcc     0.0000     0.000     0.000     0.000 -0.2900  0.5315  0.7959
 
              Baa    -0.0000    -0.000    -0.000    -0.000  0.7684  0.1347  0.6256
    24 H(1)   Bbb    -0.0000    -0.000    -0.000    -0.000 -0.5728  0.5809  0.5784
              Bcc     0.0000     0.000     0.000     0.000  0.2855  0.8028 -0.5235
 
              Baa    -0.0000    -0.000    -0.000    -0.000  0.2917  0.9565 -0.0045
    25 H(1)   Bbb    -0.0000    -0.000    -0.000    -0.000  0.9151 -0.2777  0.2923
              Bcc     0.0000     0.000     0.000     0.000 -0.2784  0.0894  0.9563
 
              Baa    -0.0000    -0.000    -0.000    -0.000 -0.6819  0.7314  0.0007
    26 H(1)   Bbb     0.0000     0.000     0.000     0.000 -0.2150 -0.2014  0.9556
              Bcc     0.0000     0.000     0.000     0.000  0.6991  0.6515  0.2946
 
              Baa    -0.0000    -0.000    -0.000    -0.000 -0.3959  0.9183  0.0027
    27 H(1)   Bbb    -0.0000    -0.000    -0.000    -0.000 -0.0941 -0.0435  0.9946
              Bcc     0.0000     0.000     0.000     0.000  0.9134  0.3936  0.1036
 
              Baa    -0.0000    -0.000    -0.000    -0.000  0.6555  0.7153  0.2422
    28 H(1)   Bbb    -0.0000    -0.000    -0.000    -0.000 -0.2214 -0.1246  0.9672
              Bcc     0.0000     0.000     0.000     0.000  0.7220 -0.6877  0.0767
 
              Baa    -0.0000    -0.000    -0.000    -0.000 -0.1982  0.9790  0.0477
    29 H(1)   Bbb     0.0000     0.000     0.000     0.000 -0.0852 -0.0657  0.9942
              Bcc     0.0000     0.000     0.000     0.000  0.9765  0.1929  0.0964
 

 ---------------------------------------------------------------------------------

 No NMR shielding tensors so no spin-rotation constants.
 Leave Link  601 at Thu Jan 25 05:49:27 2024, MaxMem=  4026531840 cpu:               3.4 elap:               0.5
 (Enter /sysapps/ubuntu-applications/gaussian/Gaussian/AVX2/g16/l9999.exe)
 1\1\GINC-ACIDSGN005\SP\UB3LYP\6-311++G(d,p)\C12H10O7(2-)\SELHAJJ1\25-J
 an-2024\0\\#P UB3LYP/6-311++G(d,p) SCRF=(PCM,Solvent=n,n-DiMethylForma
 mide)\\Reduced\\-2,1\C,0,3.765589,0.139792,-0.197973\C,0,2.736584,0.12
 7069,0.95512\C,0,1.299913,0.245695,0.525761\C,0,0.585466,-0.98388,0.31
 458\O,0,1.167467,-2.109078,0.450901\C,0,-0.840704,-0.857805,-0.052299\
 C,0,-1.670168,-1.993609,-0.286537\O,0,-1.210696,-3.304577,-0.193985\C,
 0,-3.002094,-1.821136,-0.630131\O,0,-3.801137,-2.960049,-0.859787\C,0,
 -3.554184,-0.552231,-0.764667\O,0,-4.889941,-0.391792,-1.126114\C,0,-2
 .815959,0.608986,-0.560105\C,0,-1.433394,0.456654,-0.187645\C,0,-0.654
 429,1.634682,0.038621\C,0,0.672125,1.506382,0.388179\O,0,1.399884,2.68
 6768,0.601032\O,0,-1.218922,2.88888,-0.103098\O,0,-3.452007,1.763442,-
 0.724387\H,0,3.558076,-0.691982,-0.87613\H,0,3.711104,1.068519,-0.7774
 7\H,0,4.796777,0.034398,0.179309\H,0,2.831879,-0.832681,1.475071\H,0,3
 .019541,0.909772,1.686488\H,0,-1.959726,-3.84844,-0.465853\H,0,2.27402
 8,2.413614,0.893548\H,0,-2.165386,2.707818,-0.364807\H,0,-4.651321,-2.
 617701,-1.158958\H,0,-4.934196,0.593346,-1.13779\\Version=ES64L-G16Rev
 A.03\State=1-A\HF=-990.4171604\S2=0.\S2-1=0.\S2A=0.\RMSD=5.573e-09\Dip
 ole=0.183455,-0.4906274,-0.2847764\Quadrupole=-2.5620594,-17.5590465,2
 0.1211059,14.3148913,-4.3409575,4.0619344\PG=C01 [X(C12H10O7)]\\@


 BULLDOZER: SOMEONE WHO SLEEPS THROUGH SPEECHES.
 Job cpu time:       0 days  0 hours 50 minutes 27.5 seconds.
 Elapsed time:       0 days  0 hours  6 minutes 21.3 seconds.
 File lengths (MBytes):  RWF=    321 Int=      0 D2E=      0 Chk=     19 Scr=      1
 Normal termination of Gaussian 16 at Thu Jan 25 05:49:27 2024.
