
Running Job 1 of 1 206-rad-COSMO.in
qchem 206-rad-COSMO.in_2497689.0 /expanse/lustre/scratch/selhajj/temp_project/qcscratch/28870457/qchem2497689/ 0
/cm/shared/apps/spack/cpu/opt/spack/linux-centos8-zen2/gcc-10.2.0/qchem-5.4-akfmr7b3t57bfs6qan3padb2wnb2i7cl/exe/qcprog.exe_s 206-rad-COSMO.in_2497689.0 /expanse/lustre/scratch/selhajj/temp_project/qcscratch/28870457/qchem2497689/
                  Welcome to Q-Chem
     A Quantum Leap Into The Future Of Chemistry


 Q-Chem 5.4, Q-Chem, Inc., Pleasanton, CA (2021)

 License issued to: University of California, San Diego (site)

 E. Epifanovsky,  A. T. B. Gilbert,  Xintian Feng,  Joonho Lee,  Yuezhi Mao,  
 N. Mardirossian,  P. Pokhilko,  A. White,  M. Wormit,  M. P. Coons,  
 A. L. Dempwolff,  Zhengting Gan,  D. Hait,  P. R. Horn,  L. D. Jacobson,  
 I. Kaliman,  J. Kussmann,  A. W. Lange,  Ka Un Lao,  D. S. Levine,  Jie Liu,  
 S. C. McKenzie,  A. F. Morrison,  K. Nanda,  F. Plasser,  D. R. Rehn,  
 M. L. Vidal,  Zhi-Qiang You,  Ying Zhu,  B. Alam,  B. Albrecht,  
 A. Aldossary,  E. Alguire,  J. H. Andersen,  D. Barton,  K. Begam,  A. Behn,  
 Y. A. Bernard,  E. J. Berquist,  H. Burton,  A. Carreras,  K. Carter-Fenk,  
 R. Chakraborty,  A. D. Chien,  K. D. Closser,  V. Cofer-Shabica,  
 S. Dasgupta,  Jia Deng,  M. de Wergifosse,  M. Diedenhofen,  Hainam Do,  
 S. Ehlert,  Po-Tung Fang,  S. Fatehi,  Qingguo Feng,  J. Gayvert,  
 Qinghui Ge,  G. Gidofalvi,  M. Goldey,  J. Gomes,  C. Gonzalez-Espinoza,  
 S. Gulania,  A. Gunina,  M. W. D. Hanson-Heine,  P. H. P. Harbach,  
 A. W. Hauser,  M. F. Herbst,  M. Hernandez Vera,  M. Hodecker,  
 Z. C. Holden,  S. Houck,  Xunkun Huang,  Kerwin Hui,  B. C. Huynh,  
 M. Ivanov,  Hyunjun Ji,  Hanjie Jiang,  B. Kaduk,  S. Kaehler,  
 K. Khistyaev,  Jaehoon Kim,  P. Klunzinger,  Z. Koczor-Benda,  
 Joong Hoon Koh,  D. Kosenkov,  L. Koulias,  T. Kowalczyk,  C. M. Krauter,  
 K. Kue,  A. Kunitsa,  T. Kus,  A. Landau,  K. V. Lawler,  D. Lefrancois,  
 S. Lehtola,  Rain Li,  Yi-Pei Li,  Jiashu Liang,  M. Liebenthal,  
 Hung-Hsuan Lin,  You-Sheng Lin,  Fenglai Liu,  Kuan-Yu Liu,  
 M. Loipersberger,  A. Luenser,  A. Manjanath,  P. Manohar,  E. Mansoor,  
 S. F. Manzer,  Shan-Ping Mao,  A. V. Marenich,  T. Markovich,  S. Mason,  
 S. A. Maurer,  P. F. McLaughlin,  M. F. S. J. Menger,  J.-M. Mewes,  
 S. A. Mewes,  P. Morgante,  J. W. Mullinax,  T. S. Nguyen-Beck,  
 K. J. Oosterbaan,  G. Paran,  Alexander C. Paul,  Suranjan K. Paul,  
 F. Pavosevic,  Zheng Pei,  S. Prager,  E. I. Proynov,  E. Ramos,  B. Rana,  
 A. E. Rask,  A. Rettig,  R. M. Richard,  F. Rob,  E. Rossomme,  T. Scheele,  
 M. Scheurer,  M. Schneider,  N. Sergueev,  S. M. Sharada,  W. Skomorowski,  
 D. W. Small,  C. J. Stein,  Yu-Chuan Su,  E. J. Sundstrom,  Zhen Tao,  
 J. Thirman,  T. Tsuchimochi,  N. M. Tubman,  S. P. Veccham,  O. Vydrov,  
 J. Wenzel,  J. Witte,  A. Yamada,  Kun Yao,  S. Yeganeh,  S. R. Yost,  
 A. Zech,  Igor Ying Zhang,  Xing Zhang,  Yu Zhang,  D. Zuev,  
 A. Aspuru-Guzik,  A. T. Bell,  N. A. Besley,  K. B. Bravaya,  B. R. Brooks,  
 D. Casanova,  Jeng-Da Chai,  S. Coriani,  C. J. Cramer,  
 A. E. DePrince, III,  R. A. DiStasio Jr.,  A. Dreuw,  B. D. Dunietz,  
 T. R. Furlani,  W. A. Goddard III,  S. Grimme,  S. Hammes-Schiffer,  
 T. Head-Gordon,  W. J. Hehre,  Chao-Ping Hsu,  T.-C. Jagau,  Yousung Jung,  
 A. Klamt,  Jing Kong,  D. S. Lambrecht,  WanZhen Liang,  N. J. Mayhall,  
 C. W. McCurdy,  J. B. Neaton,  C. Ochsenfeld,  J. A. Parkhill,  R. Peverati,  
 V. A. Rassolov,  Yihan Shao,  L. V. Slipchenko,  T. Stauch,  R. P. Steele,  
 J. E. Subotnik,  A. J. W. Thom,  A. Tkatchenko,  D. G. Truhlar,  
 T. Van Voorhis,  T. A. Wesolowski,  K. B. Whaley,  H. L. Woodcock III,  
 P. M. Zimmerman,  S. Faraji,  P. M. W. Gill,  M. Head-Gordon,  
 J. M. Herbert,  A. I. Krylov

 Contributors to earlier versions of Q-Chem not listed above: 
 R. D. Adamson,  B. Austin,  R. Baer,  J. Baker,  G. J. O. Beran,  
 K. Brandhorst,  S. T. Brown,  E. F. C. Byrd,  A. K. Chakraborty,  
 G. K. L. Chan,  Chun-Min Chang,  Yunqing Chen,  C.-L. Cheng,  
 Siu Hung Chien,  D. M. Chipman,  D. L. Crittenden,  H. Dachsel,  
 R. J. Doerksen,  A. D. Dutoi,  R. G. Edgar,  J. Fosso-Tande,  
 L. Fusti-Molnar,  D. Ghosh,  A. Ghysels,  A. Golubeva-Zadorozhnaya,  
 J. Gonthier,  M. S. Gordon,  S. R. Gwaltney,  G. Hawkins,  J. E. Herr,  
 A. Heyden,  S. Hirata,  E. G. Hohenstein,  G. Kedziora,  F. J. Keil,  
 C. Kelley,  Jihan Kim,  R. A. King,  R. Z. Khaliullin,  P. P. Korambath,  
 W. Kurlancheek,  A. Laurent,  A. M. Lee,  M. S. Lee,  S. V. Levchenko,  
 Ching Yeh Lin,  D. Liotard,  E. Livshits,  R. C. Lochan,  I. Lotan,  
 L. A. Martinez-Martinez,  P. E. Maslen,  N. Nair,  D. P. O'Neill,  
 D. Neuhauser,  E. Neuscamman,  C. M. Oana,  R. Olivares-Amaya,  R. Olson,  
 T. M. Perrine,  B. Peters,  P. A. Pieniazek,  A. Prociuk,  Y. M. Rhee,  
 J. Ritchie,  M. A. Rohrdanz,  E. Rosta,  N. J. Russ,  H. F. Schaefer III,  
 M. W. Schmidt,  N. E. Schultz,  S. Sharma,  N. Shenvi,  C. D. Sherrill,  
 A. C. Simmonett,  A. Sodt,  T. Stein,  D. Stuck,  K. S. Thanthiriwatte,  
 V. Vanovschi,  L. Vogt,  Tao Wang,  A. Warshel,  M. A. Watson,  
 C. F. Williams,  Q. Wu,  X. Xu,  Jun Yang,  W. Zhang,  Yan Zhao

 Please cite Q-Chem as follows:
 Y. Shao et al., Mol. Phys. 113, 184-215 (2015)
 DOI: 10.1080/00268976.2014.952696

 Q-Chem 5.4.0 for Intel X86 EM64T Linux

 Parts of Q-Chem use Armadillo 9.800.1 (Horizon Scraper).
 http://arma.sourceforge.net/

 Q-Chem begins on Thu Feb 22 05:16:31 2024  

 Host: 
0

     Scratch files written to /expanse/lustre/scratch/selhajj/temp_project/qcscratch/28870457/qchem2497689//
 May1621 |scratch|qcdevops|jenkins|workspace|build_RNUM    
 Processing $rem in /cm/shared/apps/spack/cpu/opt/spack/linux-centos8-zen2/gcc-10.2.0/qchem-5.4-akfmr7b3t57bfs6qan3padb2wnb2i7cl/config/preferences:
 Processing $rem in /home/selhajj/.qchemrc:

 Checking the input file for inconsistencies... 
 Q-Chem warning in module libgen/CheckREMs.C, line 172:

 Found a $solvent section, which is only used for PCM and Kirkwood-Onsager solvation models

	...done.

--------------------------------------------------------------
User input:
--------------------------------------------------------------
$molecule
-1 2
C                 -4.5513480000      0.8946280000      0.3461130000
C                 -3.1974480000      0.2556570000      0.1795640000
C                 -3.0624850000     -1.1183940000     -0.0598810000
C                 -1.8186820000     -1.7198770000     -0.2151020000
O                 -1.7668570000     -3.0543970000     -0.4442890000
C                 -0.6369440000     -0.9345710000     -0.1318680000
C                  0.6580460000     -1.5440610000     -0.2906450000
O                  0.7613580000     -2.8193370000     -0.5119540000
C                  1.8359660000     -0.7194390000     -0.2005140000
C                  3.1290160000     -1.2947730000     -0.3532430000
O                  3.2909110000     -2.6201560000     -0.5852880000
C                  4.2585870000     -0.4890110000     -0.2643390000
C                  4.1439760000      0.8841950000     -0.0261630000
C                  2.8982920000      1.4817120000      0.1283450000
O                  2.8403430000      2.8162970000      0.3575400000
C                  1.7179180000      0.6894620000      0.0439670000
C                  0.4217910000      1.2971820000      0.2025290000
O                  0.3158150000      2.5735920000      0.4241760000
C                 -0.7570630000      0.4722550000      0.1124590000
C                 -2.0480730000      1.0468030000      0.2651710000
O                 -2.2050600000      2.3745170000      0.4977200000
H                 -4.7150000000      1.6772840000     -0.4020230000
H                 -4.6430280000      1.3801240000      1.3233550000
H                 -5.3465200000      0.1512270000      0.2513280000
H                 -3.9436990000     -1.7476020000     -0.1294270000
H                 -0.7971330000     -3.2711820000     -0.5225300000
H                  2.3695100000     -2.9991730000     -0.6105240000
H                  5.2314480000     -0.9521640000     -0.3843690000
H                  5.0261580000      1.5106680000      0.0427690000
H                  1.8699070000      3.0295290000      0.4351110000
H                 -1.2796990000      2.7490060000      0.5220070000
$end
$rem
MAX_SCF_CYCLES=200
BASIS  =  6-311++G(d,p)
GUI  =  2
JOB_TYPE  =  SP
METHOD  =  B3LYP
SOLVENT_METHOD = COSMO
$end
$solvent
dielectric 37.219
opticaldielectric 1.43
$end





--------------------------------------------------------------
 ----------------------------------------------------------------
             Standard Nuclear Orientation (Angstroms)
    I     Atom           X                Y                Z
 ----------------------------------------------------------------
    1      C       4.8485817141    -0.7956922165     0.0002336237
    2      C       3.4663560142    -0.1969270150    -0.0000238408
    3      C       3.2712166432     1.1906916967    -0.0001064099
    4      C       2.0007698421     1.7553917821    -0.0001015890
    5      O       1.8905197911     3.1059476161    -0.0001872306
    6      C       0.8531007037     0.9169446099    -0.0000650404
    7      C      -0.4688974011     1.4879159812    -0.0000750525
    8      O      -0.6280548547     2.7765776188    -0.0001628697
    9      C      -1.6110244027     0.6097551352     0.0000107178
   10      C      -2.9295794333     1.1461563577     0.0001565655
   11      O      -3.1495144571     2.4834384972     0.0003422356
   12      C      -4.0241743150     0.2888646858     0.0001643205
   13      C      -3.8494417073    -1.0985886262    -0.0000079482
   14      C      -2.5772927692    -1.6591820435    -0.0001297866
   15      O      -2.4609271084    -3.0095392405    -0.0003040021
   16      C      -1.4312873002    -0.8137626498    -0.0000730668
   17      C      -0.1082275496    -1.3829055145    -0.0000260998
   18      O       0.0536457607    -2.6726255657     0.0000930032
   19      C       1.0348238905    -0.5044140127    -0.0000398826
   20      C       2.3513138754    -1.0401259651     0.0000147145
   21      O       2.5664570322    -2.3799997754     0.0001409645
   22      H       5.0034163502    -1.4357936314    -0.8746013779
   23      H       5.0047747956    -1.4319718428     0.8776534055
   24      H       5.6113121869    -0.0132824410    -0.0019848689
   25      H       4.1251139068     1.8601219935    -0.0001970457
   26      H       0.9110545886     3.2906905065    -0.0002773956
   27      H      -2.2444668561     2.9007625726     0.0003123299
   28      H      -5.0175487875     0.7231267794     0.0003024072
   29      H      -4.7044321530    -1.7652643037    -0.0000234746
   30      H      -1.4809098982    -3.1906398851    -0.0003086335
   31      H       1.6572497283    -2.7928761831     0.0001604941
 ----------------------------------------------------------------
 Molecular Point Group                 C1    NOp =  1
 Largest Abelian Subgroup              C1    NOp =  1
 Nuclear Repulsion Energy =        1658.34081159 hartrees
 There are       75 alpha and       74 beta electrons
 Requested basis set is 6-311++G(d,p)
 There are 176 shells and 532 basis functions

 Total QAlloc Memory Limit   8000 MB
 Mega-Array Size       188 MB
 MEM_STATIC part       192 MB
 A cutoff of  1.0D-08 yielded  10394 shell pairs
 There are     99026 function pairs (    105990 Cartesian)
 Smallest overlap matrix eigenvalue = 4.71E-08

 Q-Chem warning in module stvman/mkSTV.C, line 323:

 Overlap eigenvalue is smaller than square root of threshold
 Use THRESH >= 12 to get rid of this warning

 Linear dependence detected in AO basis
 Tighter screening thresholds may be required for diffuse basis sets
 Use S2THRESH > 14 and THRESH = 14 in case of SCF convergence issues
 Number of orthogonalized atomic orbitals = 524
 Maximum deviation from orthogonality = 2.441E-10

 Scale SEOQF with 1.000000e-02/1.000000e-01/1.000000e-01

 Standard Electronic Orientation quadrupole field applied
 Nucleus-field energy     =     0.0000000405 hartrees
 Guess from superposition of atomic densities
 Warning:  Energy on first SCF cycle will be non-variational
 SAD guess density has 148.000000 electrons

 -----------------------------------------------------------------------
  General SCF calculation program by
  Eric Jon Sundstrom, Paul Horn, Yuezhi Mao, Dmitri Zuev, Alec White,
  David Stuck, Shaama M.S., Shane Yost, Joonho Lee, David Small,
  Daniel Levine, Susi Lehtola, Hugh Burton, Evgeny Epifanovsky,
  Bang C. Huynh
 -----------------------------------------------------------------------
 Exchange:     0.2000 Hartree-Fock + 0.0800 Slater + 0.7200 B88
 Correlation:  0.1900 VWN1RPA + 0.8100 LYP
 Using SG-1 standard quadrature grid
 using 8 threads for integral computing
 -------------------------------------------------------
 OpenMP Integral computing Module                
 Release: version 1.0, May 2013, Q-Chem Inc. Pittsburgh 
 -------------------------------------------------------
 A unrestricted SCF calculation will be
 performed using DIIS
 SCF converges when DIIS error is below 1.0e-05
 ---------------------------------------
  Cycle       Energy         DIIS error
 ---------------------------------------
    1   -1034.4741352227      1.48e-02  
    2   -1029.0470278350      1.76e-03  
    3   -1028.8350274640      2.35e-03  
    4   -1029.3623454315      5.56e-04  
    5   -1029.3984363340      1.47e-04  
    6   -1029.4008824986      5.16e-05  
    7   -1029.4011908123      1.68e-05  
    8   -1029.4012249304      9.89e-06  Convergence criterion met
 ---------------------------------------
 SCF time:   CPU 423.64s  wall 54.00s 
<S^2> =          0.758567508
 SCF   energy in the final basis set =    -1029.4012249304
 Total energy in the final basis set =    -1029.4012249304
 Exchange:     0.2000 Hartree-Fock + 0.0800 Slater + 0.7200 B88
 Correlation:  0.1900 VWN1RPA + 0.8100 LYP
 Using SG-1 standard quadrature grid
 in get_qchem_info
 IBasis=      401111
 IBasis=      401111
 USING 1082 GRID
 MICHARGE=          -1
 Set epsilon to    37.2190017700195     
==== cosmo data ====
outfile: 206-rad-COSMO.out.cosmo.0
phsran:    0.00000D+00
ampran:    0.10000D-04
volume:   1950.5736124
area:    940.1629950
routf:      0.8500000
rsolv [a.u]:      2.4566438
disex:     10.0000000
disex2:   4558.5162335
fepsi:      0.9731320
eps :    37.2190018
lcavity:     1
nppa:  1082
nspa:    92
nsph:    32
maxnps:  2252
natoms:    31
Atom   Radius [a.u.] nuc. charge
    1      3.7794520    6
    2      3.7794520    6
    3      3.7794520    6
    4      3.7794520    6
    5      3.2503287    8
    6      3.7794520    6
    7      3.7794520    6
    8      3.2503287    8
    9      3.7794520    6
   10      3.7794520    6
   11      3.2503287    8
   12      3.7794520    6
   13      3.7794520    6
   14      3.7794520    6
   15      3.2503287    8
   16      3.7794520    6
   17      3.7794520    6
   18      3.2503287    8
   19      3.7794520    6
   20      3.7794520    6
   21      3.2503287    8
   22      2.4566438    1
   23      2.4566438    1
   24      2.4566438    1
   25      2.4566438    1
   26      2.4566438    1
   27      2.4566438    1
   28      2.4566438    1
   29      2.4566438    1
   30      2.4566438    1
   31      2.4566438    1
=== end cosmo data ===
 number of segments:         1186
 f_epsilon=  0.973132003749614     
Ediel:   -0.0681985
 A unrestricted SCF calculation will be
 performed using Roothaan-Hall, DIIS
 SCF converges when DIIS error is below 1.0e-05
 ---------------------------------------
  Cycle       Energy         DIIS error
 ---------------------------------------
 number of segments:         1186
 f_epsilon=  0.973132003749614     
Ediel:   -0.0742140
    1   -1029.4694358481      7.31e-05  Roothaan Step
 ---------------------------------------
  Cycle       Energy         DIIS error
 ---------------------------------------
 number of segments:         1186
 f_epsilon=  0.973132003749614     
Ediel:   -0.0728320
    1   -1029.4715662827      5.28e-05  
 number of segments:         1186
 f_epsilon=  0.973132003749614     
Ediel:   -0.0738112
    2   -1029.4710843699      8.46e-05  
    3   -1029.4719494282      9.92e-06  Convergence criterion met
 ---------------------------------------
 SCF time:   CPU 263.77s  wall 36.00s 
<S^2> =          0.758734901
before final oc correction, ETot:     -1029.4719494282
 number of outlayer segments:          508
SCF energy after oc correction:     -1029.4767269854
 SCF   energy in the final basis set =    -1029.4767269854
 Total energy in the final basis set =    -1029.4719494282
 
 --------------------------------------------------------------
 
                    Orbital Energies (a.u.)
 --------------------------------------------------------------
 
 Alpha MOs
 -- Occupied --
-19.1396 -19.1395 -19.1393 -19.1379 -19.1065 -19.1065 -10.2477 -10.2472
-10.2388 -10.2386 -10.2383 -10.2351 -10.1876 -10.1871 -10.1868 -10.1855
-10.1851 -10.1751 -10.1746 -10.1719 -10.1625  -1.0669  -1.0651  -1.0574
 -1.0558  -1.0144  -1.0129  -0.8707  -0.8514  -0.8055  -0.7665  -0.7536
 -0.7389  -0.7073  -0.6787  -0.6546  -0.6318  -0.6084  -0.5979  -0.5582
 -0.5339  -0.5296  -0.5233  -0.5198  -0.5181  -0.4762  -0.4574  -0.4554
 -0.4495  -0.4391  -0.4368  -0.4320  -0.4192  -0.4180  -0.4141  -0.4125
 -0.4067  -0.4046  -0.3943  -0.3788  -0.3769  -0.3724  -0.3704  -0.3686
 -0.3582  -0.3538  -0.3200  -0.3095  -0.2798  -0.2771  -0.2627  -0.2551
 -0.2342  -0.2120  -0.1513
 -- Virtual --
 -0.0510  -0.0307  -0.0022   0.0065   0.0105   0.0144   0.0193   0.0245
  0.0352   0.0387   0.0408   0.0430   0.0488   0.0523   0.0617   0.0621
  0.0661   0.0662   0.0692   0.0796   0.0813   0.0893   0.0926   0.0987
  0.1056   0.1124   0.1138   0.1142   0.1172   0.1204   0.1234   0.1265
  0.1343   0.1385   0.1400   0.1422   0.1436   0.1490   0.1537   0.1550
  0.1550   0.1579   0.1651   0.1669   0.1750   0.1781   0.1809   0.1823
  0.1880   0.1898   0.1915   0.1965   0.2015   0.2060   0.2066   0.2087
  0.2106   0.2187   0.2262   0.2272   0.2310   0.2353   0.2356   0.2443
  0.2480   0.2487   0.2535   0.2539   0.2570   0.2636   0.2724   0.2741
  0.2755   0.2798   0.2801   0.2828   0.2835   0.2872   0.2922   0.2940
  0.2947   0.2995   0.3046   0.3085   0.3115   0.3148   0.3154   0.3208
  0.3245   0.3258   0.3296   0.3315   0.3387   0.3446   0.3470   0.3500
  0.3565   0.3583   0.3615   0.3634   0.3699   0.3704   0.3749   0.3826
  0.3906   0.3989   0.4000   0.4080   0.4142   0.4220   0.4296   0.4350
  0.4469   0.4544   0.4656   0.4667   0.4818   0.4885   0.4974   0.5031
  0.5258   0.5336   0.5453   0.5559   0.5626   0.5652   0.5776   0.5825
  0.5901   0.6002   0.6004   0.6044   0.6050   0.6084   0.6218   0.6270
  0.6401   0.6405   0.6453   0.6514   0.6528   0.6567   0.6584   0.6630
  0.6697   0.6781   0.6782   0.6816   0.6833   0.6871   0.7061   0.7069
  0.7192   0.7277   0.7347   0.7529   0.7595   0.7828   0.7859   0.7927
  0.8087   0.8105   0.8123   0.8226   0.8376   0.8453   0.8508   0.8632
  0.8723   0.9008   0.9099   0.9196   0.9308   0.9345   0.9355   0.9437
  0.9467   0.9535   0.9641   0.9732   0.9820   0.9844   0.9884   0.9954
  1.0083   1.0130   1.0153   1.0429   1.0519   1.0578   1.0749   1.0759
  1.0838   1.0846   1.0892   1.0914   1.0971   1.1043   1.1046   1.1246
  1.1453   1.1570   1.1742   1.1971   1.2063   1.2120   1.2137   1.2206
  1.2245   1.2311   1.2409   1.2532   1.2533   1.2573   1.2652   1.2786
  1.2848   1.3051   1.3121   1.3443   1.3556   1.3559   1.3688   1.3812
  1.3924   1.4036   1.4236   1.4269   1.4487   1.4618   1.4653   1.4747
  1.4764   1.4964   1.5024   1.5028   1.5112   1.5270   1.5310   1.5428
  1.5466   1.5589   1.5714   1.5779   1.5856   1.5898   1.6057   1.6082
  1.6241   1.6396   1.6438   1.6760   1.6777   1.6879   1.7037   1.7207
  1.7252   1.7420   1.7508   1.7680   1.7759   1.8040   1.8054   1.8189
  1.8427   1.8639   1.8762   1.8830   1.8832   1.8936   1.8971   1.9080
  1.9248   1.9302   1.9365   1.9374   1.9444   1.9578   1.9733   1.9754
  1.9825   1.9867   1.9911   2.0002   2.0445   2.0519   2.0731   2.1026
  2.1163   2.1193   2.1196   2.1424   2.1620   2.1726   2.1796   2.1836
  2.2096   2.2328   2.2710   2.2896   2.3113   2.3406   2.3413   2.3487
  2.3614   2.4200   2.4340   2.4487   2.4547   2.4852   2.5136   2.5167
  2.5411   2.5497   2.5660   2.5701   2.5941   2.6123   2.6339   2.6392
  2.6482   2.6791   2.6841   2.7009   2.7036   2.7225   2.7345   2.7453
  2.7633   2.7688   2.7724   2.8006   2.8065   2.8198   2.8291   2.8362
  2.8464   2.8620   2.8622   2.8832   2.8836   2.9142   2.9179   2.9229
  3.0226   3.0265   3.0453   3.0621   3.0912   3.1007   3.1063   3.1080
  3.1126   3.1163   3.1229   3.1277   3.1365   3.1774   3.1808   3.1823
  3.1982   3.1998   3.2011   3.2017   3.2093   3.2145   3.2206   3.2348
  3.2474   3.2661   3.2701   3.2890   3.3438   3.3942   3.4051   3.4432
  3.4610   3.4651   3.4852   3.4996   3.5374   3.5596   3.5939   3.6114
  3.6414   3.6778   3.7040   3.7368   3.7824   3.7904   3.8371   3.8668
  3.8779   3.9141   3.9187   3.9460   3.9563   3.9717   4.0937   4.1524
  4.1627   4.2180   4.2450   4.3032   4.3233   4.3462   4.5299   4.8369
  4.8643   4.8700   5.0053   5.0198   5.0265   5.0348   5.0604   5.0845
  5.3850   5.3912   5.4703   5.5189   5.5250   5.5406   5.6978   5.7944
  5.7959   5.8046   5.8458   5.9023  23.4969  23.6769  23.8580  23.8716
 23.8936  23.9294  23.9512  23.9575  23.9766  24.0010  24.0347  24.0400
 24.0446  24.1491  24.1658  49.9707  49.9968  50.0061  50.0434  50.0464
 50.1023
 
 Beta MOs
 -- Occupied --
-19.1390 -19.1389 -19.1387 -19.1373 -19.1029 -19.1027 -10.2455 -10.2448
-10.2382 -10.2380 -10.2377 -10.2342 -10.1877 -10.1871 -10.1869 -10.1852
-10.1845 -10.1741 -10.1735 -10.1711 -10.1626  -1.0648  -1.0629  -1.0562
 -1.0545  -1.0086  -1.0069  -0.8684  -0.8495  -0.8020  -0.7649  -0.7500
 -0.7364  -0.7048  -0.6741  -0.6526  -0.6299  -0.6074  -0.5965  -0.5560
 -0.5326  -0.5283  -0.5226  -0.5178  -0.5168  -0.4745  -0.4556  -0.4480
 -0.4480  -0.4355  -0.4348  -0.4276  -0.4171  -0.4131  -0.4115  -0.4110
 -0.4037  -0.4018  -0.3892  -0.3763  -0.3720  -0.3690  -0.3672  -0.3575
 -0.3571  -0.3527  -0.3113  -0.3051  -0.2769  -0.2643  -0.2600  -0.2513
 -0.2211  -0.2034
 -- Virtual --
 -0.1017  -0.0358  -0.0214  -0.0019   0.0066   0.0108   0.0195   0.0198
  0.0246   0.0370   0.0389   0.0410   0.0433   0.0529   0.0580   0.0618
  0.0664   0.0681   0.0695   0.0713   0.0803   0.0816   0.0907   0.0927
  0.0991   0.1059   0.1137   0.1142   0.1147   0.1174   0.1207   0.1238
  0.1268   0.1354   0.1388   0.1403   0.1425   0.1461   0.1496   0.1541
  0.1556   0.1575   0.1584   0.1653   0.1693   0.1755   0.1792   0.1819
  0.1833   0.1887   0.1906   0.1920   0.1972   0.2019   0.2064   0.2074
  0.2112   0.2114   0.2192   0.2274   0.2278   0.2316   0.2359   0.2384
  0.2447   0.2487   0.2491   0.2538   0.2552   0.2574   0.2640   0.2739
  0.2752   0.2767   0.2806   0.2822   0.2833   0.2841   0.2880   0.2937
  0.2944   0.2952   0.3000   0.3056   0.3091   0.3124   0.3157   0.3166
  0.3218   0.3254   0.3272   0.3301   0.3325   0.3394   0.3457   0.3475
  0.3510   0.3569   0.3590   0.3632   0.3644   0.3705   0.3707   0.3754
  0.3834   0.3917   0.4001   0.4008   0.4086   0.4148   0.4230   0.4302
  0.4365   0.4479   0.4556   0.4662   0.4677   0.4832   0.4899   0.4987
  0.5045   0.5269   0.5345   0.5484   0.5578   0.5674   0.5675   0.5786
  0.5831   0.5910   0.6010   0.6048   0.6051   0.6086   0.6118   0.6230
  0.6304   0.6407   0.6409   0.6460   0.6522   0.6539   0.6588   0.6621
  0.6635   0.6714   0.6788   0.6800   0.6820   0.6845   0.6883   0.7068
  0.7103   0.7204   0.7282   0.7357   0.7550   0.7597   0.7834   0.7864
  0.7933   0.8093   0.8111   0.8136   0.8235   0.8384   0.8464   0.8533
  0.8641   0.8734   0.9029   0.9117   0.9206   0.9323   0.9353   0.9364
  0.9449   0.9505   0.9546   0.9657   0.9757   0.9835   0.9867   0.9890
  0.9980   1.0089   1.0135   1.0181   1.0437   1.0556   1.0589   1.0767
  1.0780   1.0862   1.0867   1.0931   1.0979   1.1034   1.1057   1.1069
  1.1283   1.1461   1.1612   1.1747   1.1979   1.2084   1.2133   1.2148
  1.2214   1.2271   1.2347   1.2417   1.2538   1.2563   1.2610   1.2667
  1.2801   1.2857   1.3061   1.3129   1.3469   1.3560   1.3572   1.3707
  1.3815   1.3928   1.4047   1.4250   1.4282   1.4503   1.4634   1.4665
  1.4764   1.4775   1.4977   1.5033   1.5061   1.5122   1.5278   1.5322
  1.5465   1.5473   1.5625   1.5726   1.5792   1.5867   1.5917   1.6079
  1.6104   1.6264   1.6412   1.6463   1.6786   1.6794   1.6894   1.7048
  1.7213   1.7270   1.7453   1.7518   1.7694   1.7769   1.8052   1.8085
  1.8204   1.8437   1.8663   1.8784   1.8838   1.8854   1.8966   1.8980
  1.9099   1.9257   1.9336   1.9379   1.9404   1.9465   1.9599   1.9770
  1.9775   1.9838   1.9892   1.9928   2.0014   2.0458   2.0545   2.0765
  2.1034   2.1175   2.1206   2.1229   2.1444   2.1641   2.1734   2.1830
  2.1847   2.2121   2.2334   2.2734   2.2922   2.3124   2.3435   2.3439
  2.3502   2.3639   2.4210   2.4348   2.4503   2.4551   2.4858   2.5148
  2.5182   2.5418   2.5502   2.5674   2.5710   2.5949   2.6176   2.6375
  2.6399   2.6491   2.6798   2.6906   2.7043   2.7070   2.7227   2.7348
  2.7493   2.7638   2.7695   2.7728   2.8021   2.8117   2.8246   2.8353
  2.8421   2.8477   2.8625   2.8701   2.8842   2.8893   2.9144   2.9218
  2.9264   3.0273   3.0290   3.0458   3.0628   3.0943   3.1028   3.1083
  3.1101   3.1144   3.1194   3.1255   3.1306   3.1377   3.1783   3.1830
  3.1847   3.1994   3.2019   3.2025   3.2032   3.2105   3.2159   3.2252
  3.2372   3.2524   3.2718   3.2766   3.2992   3.3450   3.3955   3.4061
  3.4446   3.4620   3.4662   3.4864   3.5006   3.5385   3.5608   3.5952
  3.6129   3.6432   3.6792   3.7051   3.7377   3.7840   3.7908   3.8401
  3.8677   3.8788   3.9151   3.9197   3.9472   3.9585   3.9728   4.0956
  4.1540   4.1639   4.2191   4.2459   4.3049   4.3254   4.3481   4.5326
  4.8388   4.8669   4.8720   5.0082   5.0225   5.0296   5.0382   5.0740
  5.0984   5.3873   5.3937   5.4709   5.5198   5.5257   5.5412   5.7001
  5.7963   5.7978   5.8054   5.8479   5.9030  23.4977  23.6777  23.8593
 23.8733  23.8944  23.9310  23.9523  23.9578  23.9767  24.0012  24.0351
 24.0408  24.0456  24.1500  24.1669  49.9714  49.9973  50.0067  50.0440
 50.0500  50.1060
 --------------------------------------------------------------
 
          Ground-State Mulliken Net Atomic Charges

     Atom                 Charge (a.u.)    Spin (a.u.)
  --------------------------------------------------------
      1 C                    -0.173760       0.002745
      2 C                     0.863702       0.074185
      3 C                    -0.848866       0.044917
      4 C                    -0.360329       0.056722
      5 O                    -0.424823       0.017744
      6 C                     0.576733      -0.019549
      7 C                    -0.513435       0.128010
      8 O                    -0.571015       0.124505
      9 C                     0.427537      -0.004956
     10 C                    -0.317392       0.048638
     11 O                    -0.428025       0.017015
     12 C                    -0.158005       0.072193
     13 C                    -0.193056       0.064968
     14 C                    -0.276384       0.057359
     15 O                    -0.432748       0.018028
     16 C                     0.483382      -0.008490
     17 C                    -0.433223       0.139348
     18 O                    -0.584493       0.131051
     19 C                     0.183975      -0.036252
     20 C                    -0.214188       0.071189
     21 O                    -0.438595       0.020971
     22 H                     0.187575       0.003234
     23 H                     0.187824       0.003259
     24 H                     0.179714       0.000043
     25 H                     0.183941      -0.005540
     26 H                     0.406351      -0.002186
     27 H                     0.406173      -0.002222
     28 H                     0.220342      -0.006447
     29 H                     0.220687      -0.006018
     30 H                     0.407284      -0.002286
     31 H                     0.433117      -0.002177
  --------------------------------------------------------
  Sum of atomic charges =    -1.000000
  Sum of spin   charges =     1.000000

 -----------------------------------------------------------------
                    Cartesian Multipole Moments
 -----------------------------------------------------------------
    Charge (ESU x 10^10)
                -4.8032
    Dipole Moment (Debye)
         X       2.3474      Y      -0.5145      Z      -0.0002
       Tot       2.4031
    Quadrupole Moments (Debye-Ang)
        XX    -140.0380     XY       1.7956     YY    -166.5884
        XZ      -0.0008     YZ       0.0020     ZZ    -126.6136
    Octopole Moments (Debye-Ang^2)
       XXX      36.8340    XXY      -7.5697    XYY      15.3250
       YYY      -6.9164    XXZ       0.0028    XYZ      -0.0021
       YYZ      -0.0034    XZZ       3.7313    YZZ      -1.2457
       ZZZ       0.0038
    Hexadecapole Moments (Debye-Ang^3)
      XXXX   -4956.8459   XXXY     112.9921   XXYY   -1562.6386
      XYYY     -85.4355   YYYY   -2848.0554   XXXZ      -0.0035
      XXYZ      -0.0363   XYYZ      -0.0219   YYYZ       0.0339
      XXZZ    -936.6786   XYZZ     -14.7959   YYZZ    -450.9668
      XZZZ       0.0236   YZZZ      -0.0018   ZZZZ    -144.7802
 -----------------------------------------------------------------
 Total job time:  92.87s(wall), 696.10s(cpu) 
 Thu Feb 22 05:18:04 2024

        *************************************************************
        *                                                           *
        *  Thank you very much for using Q-Chem.  Have a nice day.  *
        *                                                           *
        *************************************************************


