
Running Job 1 of 1 161-an-SM12.in
qchem 161-an-SM12.in_868876.0 /expanse/lustre/scratch/selhajj/temp_project/qcscratch/28445662/qchem868876/ 0
/cm/shared/apps/spack/cpu/opt/spack/linux-centos8-zen2/gcc-10.2.0/qchem-5.4-akfmr7b3t57bfs6qan3padb2wnb2i7cl/exe/qcprog.exe_s 161-an-SM12.in_868876.0 /expanse/lustre/scratch/selhajj/temp_project/qcscratch/28445662/qchem868876/
                  Welcome to Q-Chem
     A Quantum Leap Into The Future Of Chemistry


 Q-Chem 5.4, Q-Chem, Inc., Pleasanton, CA (2021)

 License issued to: University of California, San Diego (site)

 E. Epifanovsky,  A. T. B. Gilbert,  Xintian Feng,  Joonho Lee,  Yuezhi Mao,  
 N. Mardirossian,  P. Pokhilko,  A. White,  M. Wormit,  M. P. Coons,  
 A. L. Dempwolff,  Zhengting Gan,  D. Hait,  P. R. Horn,  L. D. Jacobson,  
 I. Kaliman,  J. Kussmann,  A. W. Lange,  Ka Un Lao,  D. S. Levine,  Jie Liu,  
 S. C. McKenzie,  A. F. Morrison,  K. Nanda,  F. Plasser,  D. R. Rehn,  
 M. L. Vidal,  Zhi-Qiang You,  Ying Zhu,  B. Alam,  B. Albrecht,  
 A. Aldossary,  E. Alguire,  J. H. Andersen,  D. Barton,  K. Begam,  A. Behn,  
 Y. A. Bernard,  E. J. Berquist,  H. Burton,  A. Carreras,  K. Carter-Fenk,  
 R. Chakraborty,  A. D. Chien,  K. D. Closser,  V. Cofer-Shabica,  
 S. Dasgupta,  Jia Deng,  M. de Wergifosse,  M. Diedenhofen,  Hainam Do,  
 S. Ehlert,  Po-Tung Fang,  S. Fatehi,  Qingguo Feng,  J. Gayvert,  
 Qinghui Ge,  G. Gidofalvi,  M. Goldey,  J. Gomes,  C. Gonzalez-Espinoza,  
 S. Gulania,  A. Gunina,  M. W. D. Hanson-Heine,  P. H. P. Harbach,  
 A. W. Hauser,  M. F. Herbst,  M. Hernandez Vera,  M. Hodecker,  
 Z. C. Holden,  S. Houck,  Xunkun Huang,  Kerwin Hui,  B. C. Huynh,  
 M. Ivanov,  Hyunjun Ji,  Hanjie Jiang,  B. Kaduk,  S. Kaehler,  
 K. Khistyaev,  Jaehoon Kim,  P. Klunzinger,  Z. Koczor-Benda,  
 Joong Hoon Koh,  D. Kosenkov,  L. Koulias,  T. Kowalczyk,  C. M. Krauter,  
 K. Kue,  A. Kunitsa,  T. Kus,  A. Landau,  K. V. Lawler,  D. Lefrancois,  
 S. Lehtola,  Rain Li,  Yi-Pei Li,  Jiashu Liang,  M. Liebenthal,  
 Hung-Hsuan Lin,  You-Sheng Lin,  Fenglai Liu,  Kuan-Yu Liu,  
 M. Loipersberger,  A. Luenser,  A. Manjanath,  P. Manohar,  E. Mansoor,  
 S. F. Manzer,  Shan-Ping Mao,  A. V. Marenich,  T. Markovich,  S. Mason,  
 S. A. Maurer,  P. F. McLaughlin,  M. F. S. J. Menger,  J.-M. Mewes,  
 S. A. Mewes,  P. Morgante,  J. W. Mullinax,  T. S. Nguyen-Beck,  
 K. J. Oosterbaan,  G. Paran,  Alexander C. Paul,  Suranjan K. Paul,  
 F. Pavosevic,  Zheng Pei,  S. Prager,  E. I. Proynov,  E. Ramos,  B. Rana,  
 A. E. Rask,  A. Rettig,  R. M. Richard,  F. Rob,  E. Rossomme,  T. Scheele,  
 M. Scheurer,  M. Schneider,  N. Sergueev,  S. M. Sharada,  W. Skomorowski,  
 D. W. Small,  C. J. Stein,  Yu-Chuan Su,  E. J. Sundstrom,  Zhen Tao,  
 J. Thirman,  T. Tsuchimochi,  N. M. Tubman,  S. P. Veccham,  O. Vydrov,  
 J. Wenzel,  J. Witte,  A. Yamada,  Kun Yao,  S. Yeganeh,  S. R. Yost,  
 A. Zech,  Igor Ying Zhang,  Xing Zhang,  Yu Zhang,  D. Zuev,  
 A. Aspuru-Guzik,  A. T. Bell,  N. A. Besley,  K. B. Bravaya,  B. R. Brooks,  
 D. Casanova,  Jeng-Da Chai,  S. Coriani,  C. J. Cramer,  
 A. E. DePrince, III,  R. A. DiStasio Jr.,  A. Dreuw,  B. D. Dunietz,  
 T. R. Furlani,  W. A. Goddard III,  S. Grimme,  S. Hammes-Schiffer,  
 T. Head-Gordon,  W. J. Hehre,  Chao-Ping Hsu,  T.-C. Jagau,  Yousung Jung,  
 A. Klamt,  Jing Kong,  D. S. Lambrecht,  WanZhen Liang,  N. J. Mayhall,  
 C. W. McCurdy,  J. B. Neaton,  C. Ochsenfeld,  J. A. Parkhill,  R. Peverati,  
 V. A. Rassolov,  Yihan Shao,  L. V. Slipchenko,  T. Stauch,  R. P. Steele,  
 J. E. Subotnik,  A. J. W. Thom,  A. Tkatchenko,  D. G. Truhlar,  
 T. Van Voorhis,  T. A. Wesolowski,  K. B. Whaley,  H. L. Woodcock III,  
 P. M. Zimmerman,  S. Faraji,  P. M. W. Gill,  M. Head-Gordon,  
 J. M. Herbert,  A. I. Krylov

 Contributors to earlier versions of Q-Chem not listed above: 
 R. D. Adamson,  B. Austin,  R. Baer,  J. Baker,  G. J. O. Beran,  
 K. Brandhorst,  S. T. Brown,  E. F. C. Byrd,  A. K. Chakraborty,  
 G. K. L. Chan,  Chun-Min Chang,  Yunqing Chen,  C.-L. Cheng,  
 Siu Hung Chien,  D. M. Chipman,  D. L. Crittenden,  H. Dachsel,  
 R. J. Doerksen,  A. D. Dutoi,  R. G. Edgar,  J. Fosso-Tande,  
 L. Fusti-Molnar,  D. Ghosh,  A. Ghysels,  A. Golubeva-Zadorozhnaya,  
 J. Gonthier,  M. S. Gordon,  S. R. Gwaltney,  G. Hawkins,  J. E. Herr,  
 A. Heyden,  S. Hirata,  E. G. Hohenstein,  G. Kedziora,  F. J. Keil,  
 C. Kelley,  Jihan Kim,  R. A. King,  R. Z. Khaliullin,  P. P. Korambath,  
 W. Kurlancheek,  A. Laurent,  A. M. Lee,  M. S. Lee,  S. V. Levchenko,  
 Ching Yeh Lin,  D. Liotard,  E. Livshits,  R. C. Lochan,  I. Lotan,  
 L. A. Martinez-Martinez,  P. E. Maslen,  N. Nair,  D. P. O'Neill,  
 D. Neuhauser,  E. Neuscamman,  C. M. Oana,  R. Olivares-Amaya,  R. Olson,  
 T. M. Perrine,  B. Peters,  P. A. Pieniazek,  A. Prociuk,  Y. M. Rhee,  
 J. Ritchie,  M. A. Rohrdanz,  E. Rosta,  N. J. Russ,  H. F. Schaefer III,  
 M. W. Schmidt,  N. E. Schultz,  S. Sharma,  N. Shenvi,  C. D. Sherrill,  
 A. C. Simmonett,  A. Sodt,  T. Stein,  D. Stuck,  K. S. Thanthiriwatte,  
 V. Vanovschi,  L. Vogt,  Tao Wang,  A. Warshel,  M. A. Watson,  
 C. F. Williams,  Q. Wu,  X. Xu,  Jun Yang,  W. Zhang,  Yan Zhao

 Please cite Q-Chem as follows:
 Y. Shao et al., Mol. Phys. 113, 184-215 (2015)
 DOI: 10.1080/00268976.2014.952696

 Q-Chem 5.4.0 for Intel X86 EM64T Linux

 Parts of Q-Chem use Armadillo 9.800.1 (Horizon Scraper).
 http://arma.sourceforge.net/

 Q-Chem begins on Sat Feb  3 11:23:27 2024  

 Host: 
0

     Scratch files written to /expanse/lustre/scratch/selhajj/temp_project/qcscratch/28445662/qchem868876//
 May1621 |scratch|qcdevops|jenkins|workspace|build_RNUM    
 Processing $rem in /cm/shared/apps/spack/cpu/opt/spack/linux-centos8-zen2/gcc-10.2.0/qchem-5.4-akfmr7b3t57bfs6qan3padb2wnb2i7cl/config/preferences:
 Processing $rem in /home/selhajj/.qchemrc:
 Symmetry turned off for PCM/SM12/SMD calculation
 Method-specific promolecule density matrix will be built for SM12 calculation

 Checking the input file for inconsistencies... 	...done.

--------------------------------------------------------------
User input:
--------------------------------------------------------------
$molecule
-2 1
N                 -4.5579810000      1.0371550000     -0.4993690000
C                 -3.2778340000      0.4628570000     -0.3243410000
C                 -3.1442970000     -0.9581460000     -0.2528790000
Cl                -4.6511820000     -1.9616660000     -0.2023180000
C                 -1.9301130000     -1.5770950000     -0.1953280000
C                 -0.7292000000     -0.8389040000     -0.1413090000
C                  0.5012090000     -1.6015760000     -0.1011250000
O                  0.5266080000     -2.8822730000     -0.1842190000
C                  1.6920820000     -0.8032550000      0.0766340000
C                  2.9577420000     -1.4403860000      0.1299720000
C                  4.1283460000     -0.7322750000      0.3067670000
C                  4.0747980000      0.6827750000      0.4427010000
C                  2.8559830000      1.3283710000      0.4034680000
C                  1.6334620000      0.6318050000      0.2204820000
C                  0.3965330000      1.4012520000      0.2051360000
O                  0.4050510000      2.6673750000      0.3989830000
C                 -0.7916240000      0.6237140000     -0.0547820000
C                 -2.1009410000      1.1836000000     -0.2278220000
Br                -2.3188030000      3.1126970000     -0.6208660000
H                 -4.4877210000      1.9775130000     -0.8727140000
H                 -5.1645660000      0.4558700000     -1.0662160000
H                 -1.8342420000     -2.6566400000     -0.1776620000
H                  2.9585620000     -2.5211090000      0.0261700000
H                  5.0853300000     -1.2500440000      0.3438420000
H                  4.9926790000      1.2526470000      0.5781450000
H                  2.7801190000      2.4057410000      0.5112380000
$end

$rem
BASIS  =  6-311++G(d,p)
GUI  =  2
JOB_TYPE  =  SP
METHOD  =  B3LYP
SCF_CONVERGENCE  = 8
SOLVENT_METHOD = sm12
$end

$smx
solvent dimethylformamide
charges CM5
$end





--------------------------------------------------------------
 ----------------------------------------------------------------
             Standard Nuclear Orientation (Angstroms)
    I     Atom           X                Y                Z
 ----------------------------------------------------------------
    1      N      -4.5579810000     1.0371550000    -0.4993690000
    2      C      -3.2778340000     0.4628570000    -0.3243410000
    3      C      -3.1442970000    -0.9581460000    -0.2528790000
    4      Cl     -4.6511820000    -1.9616660000    -0.2023180000
    5      C      -1.9301130000    -1.5770950000    -0.1953280000
    6      C      -0.7292000000    -0.8389040000    -0.1413090000
    7      C       0.5012090000    -1.6015760000    -0.1011250000
    8      O       0.5266080000    -2.8822730000    -0.1842190000
    9      C       1.6920820000    -0.8032550000     0.0766340000
   10      C       2.9577420000    -1.4403860000     0.1299720000
   11      C       4.1283460000    -0.7322750000     0.3067670000
   12      C       4.0747980000     0.6827750000     0.4427010000
   13      C       2.8559830000     1.3283710000     0.4034680000
   14      C       1.6334620000     0.6318050000     0.2204820000
   15      C       0.3965330000     1.4012520000     0.2051360000
   16      O       0.4050510000     2.6673750000     0.3989830000
   17      C      -0.7916240000     0.6237140000    -0.0547820000
   18      C      -2.1009410000     1.1836000000    -0.2278220000
   19      Br     -2.3188030000     3.1126970000    -0.6208660000
   20      H      -4.4877210000     1.9775130000    -0.8727140000
   21      H      -5.1645660000     0.4558700000    -1.0662160000
   22      H      -1.8342420000    -2.6566400000    -0.1776620000
   23      H       2.9585620000    -2.5211090000     0.0261700000
   24      H       5.0853300000    -1.2500440000     0.3438420000
   25      H       4.9926790000     1.2526470000     0.5781450000
   26      H       2.7801190000     2.4057410000     0.5112380000
 ----------------------------------------------------------------
 Nuclear Repulsion Energy =        1841.77730243 hartrees
 There are       84 alpha and       84 beta electrons
 Requested basis set is 6-311++G(d,p)
 There are 169 shells and 501 basis functions

 Total QAlloc Memory Limit   8000 MB
 Mega-Array Size       188 MB
 MEM_STATIC part       192 MB
 A cutoff of  1.0D-11 yielded  10213 shell pairs
 There are     95936 function pairs (    103360 Cartesian)
 Smallest overlap matrix eigenvalue = 7.66E-08

 Q-Chem warning in module stvman/mkSTV.C, line 323:

 Overlap eigenvalue is smaller than square root of threshold
 Use THRESH >= 12 to get rid of this warning

 Linear dependence detected in AO basis
 Tighter screening thresholds may be required for diffuse basis sets
 Use S2THRESH > 14 and THRESH = 14 in case of SCF convergence issues
 Number of orthogonalized atomic orbitals = 495
 Maximum deviation from orthogonality = 2.447E-10

 Scale SEOQF with 1.000000e-02/1.000000e-01/1.000000e-01

 Standard Electronic Orientation quadrupole field applied
 Nucleus-field energy     =     0.0000000493 hartrees
 ================ Generating on-the-fly Promolecule Density  ================
Attempting to make child job directory: /expanse/lustre/scratch/selhajj/temp_project/qcscratch/28445662/qchem868876//Frg1/
Attempting to make child job directory: /expanse/lustre/scratch/selhajj/temp_project/qcscratch/28445662/qchem868876//Frg2/
Attempting to make child job directory: /expanse/lustre/scratch/selhajj/temp_project/qcscratch/28445662/qchem868876//Frg3/
Attempting to make child job directory: /expanse/lustre/scratch/selhajj/temp_project/qcscratch/28445662/qchem868876//Frg4/
Attempting to make child job directory: /expanse/lustre/scratch/selhajj/temp_project/qcscratch/28445662/qchem868876//Frg5/
Attempting to make child job directory: /expanse/lustre/scratch/selhajj/temp_project/qcscratch/28445662/qchem868876//Frg6/
Creating input file /expanse/lustre/scratch/selhajj/temp_project/qcscratch/28445662/qchem868876/Frg1.input
using default PutDataFrgm: nothing
calling putenv with: QCSCRATCH=/expanse/lustre/scratch/selhajj/temp_project/qcscratch/28445662/qchem868876/ 
Spawning Job For Fragment 0
Done Job For Fragment 0
calling putenv with: QCSCRATCH=/expanse/lustre/scratch/selhajj/temp_project/qcscratch/28445662 
calling putenv with: QCTHREADS=8 
Creating input file /expanse/lustre/scratch/selhajj/temp_project/qcscratch/28445662/qchem868876/Frg2.input
using default PutDataFrgm: nothing
calling putenv with: QCSCRATCH=/expanse/lustre/scratch/selhajj/temp_project/qcscratch/28445662/qchem868876/ 
Spawning Job For Fragment 1
Done Job For Fragment 1
calling putenv with: QCSCRATCH=/expanse/lustre/scratch/selhajj/temp_project/qcscratch/28445662 
calling putenv with: QCTHREADS=8 
Creating input file /expanse/lustre/scratch/selhajj/temp_project/qcscratch/28445662/qchem868876/Frg3.input
using default PutDataFrgm: nothing
calling putenv with: QCSCRATCH=/expanse/lustre/scratch/selhajj/temp_project/qcscratch/28445662/qchem868876/ 
Spawning Job For Fragment 2
Done Job For Fragment 2
calling putenv with: QCSCRATCH=/expanse/lustre/scratch/selhajj/temp_project/qcscratch/28445662 
calling putenv with: QCTHREADS=8 
Creating input file /expanse/lustre/scratch/selhajj/temp_project/qcscratch/28445662/qchem868876/Frg4.input
using default PutDataFrgm: nothing
calling putenv with: QCSCRATCH=/expanse/lustre/scratch/selhajj/temp_project/qcscratch/28445662/qchem868876/ 
Spawning Job For Fragment 3
Done Job For Fragment 3
calling putenv with: QCSCRATCH=/expanse/lustre/scratch/selhajj/temp_project/qcscratch/28445662 
calling putenv with: QCTHREADS=8 
Creating input file /expanse/lustre/scratch/selhajj/temp_project/qcscratch/28445662/qchem868876/Frg5.input
using default PutDataFrgm: nothing
calling putenv with: QCSCRATCH=/expanse/lustre/scratch/selhajj/temp_project/qcscratch/28445662/qchem868876/ 
Spawning Job For Fragment 4
Done Job For Fragment 4
calling putenv with: QCSCRATCH=/expanse/lustre/scratch/selhajj/temp_project/qcscratch/28445662 
calling putenv with: QCTHREADS=8 
Creating input file /expanse/lustre/scratch/selhajj/temp_project/qcscratch/28445662/qchem868876/Frg6.input
using default PutDataFrgm: nothing
calling putenv with: QCSCRATCH=/expanse/lustre/scratch/selhajj/temp_project/qcscratch/28445662/qchem868876/ 
Spawning Job For Fragment 5
Done Job For Fragment 5
calling putenv with: QCSCRATCH=/expanse/lustre/scratch/selhajj/temp_project/qcscratch/28445662 
calling putenv with: QCTHREADS=8 
 Time for running child jobs:  CPU 0.02 s  wall 10.31 s
 ============= Method Specific Promolecule Density Constructed =============
 Guess from superposition of atomic densities
 Warning:  Energy on first SCF cycle will be non-variational
 SAD guess density has 166.000000 electrons

 -----------------------------------------------------------------------
  General SCF calculation program by
  Eric Jon Sundstrom, Paul Horn, Yuezhi Mao, Dmitri Zuev, Alec White,
  David Stuck, Shaama M.S., Shane Yost, Joonho Lee, David Small,
  Daniel Levine, Susi Lehtola, Hugh Burton, Evgeny Epifanovsky,
  Bang C. Huynh
 -----------------------------------------------------------------------
 Exchange:     0.2000 Hartree-Fock + 0.0800 Slater + 0.7200 B88
 Correlation:  0.1900 VWN1RPA + 0.8100 LYP
 Using SG-1 standard quadrature grid
 using 8 threads for integral computing
 -------------------------------------------------------
 OpenMP Integral computing Module                
 Release: version 1.0, May 2013, Q-Chem Inc. Pittsburgh 
 -------------------------------------------------------
 
 SM12 calculation using CM5 charges
 Citation of the SM12 model:
 Marenich, A.V.; Cramer, C.J.; Truhlar, D.G.
 J. Chem. Theory Comput. 2013, 9, 609-612.
 iSolventCode=          91
 Solvent: dimethylformamide                                               
 
Hirshfeld: reading atomic densities from disk.
warning:  vdwdata pointer should have been initialzed before dftman
 Inaccurate integrated density:
   Number of electrons =   168
   Numerical integral  =   165.999765079403
   Relative error      =    -1.1906160242 %

 Charges (in A.U.) from CM5PAC (Nov. 11, 2011)
 -----------------------------------------------
 Center     Atomic      CM5         Hirshfeld
 Number     Number      Charge      Charge
 -----------------------------------------------
    1          7       -0.465753   -0.023491
    2          6        0.048513   -0.002721
    3          6       -0.004170   -0.003826
    4         17        0.018287    0.018672
    5          6       -0.050664   -0.003036
    6          6       -0.002098   -0.000397
    7          6        0.035083    0.006952
    8          8       -0.062309   -0.017279
    9          6       -0.002094   -0.000123
   10          6       -0.051924   -0.000576
   11          6       -0.057483   -0.002800
   12          6       -0.057516   -0.002868
   13          6       -0.051760   -0.000452
   14          6       -0.001930   -0.000028
   15          6        0.034689    0.005588
   16          8       -0.065843   -0.022097
   17          6       -0.000623   -0.001523
   18          6       -0.013443   -0.005534
   19         35        0.046862    0.028832
   20          1        0.193709    0.002369
   21          1        0.194188    0.003963
   22          1        0.066994    0.003581
   23          1        0.066198    0.005416
   24          1        0.058012    0.003027
   25          1        0.058029    0.003033
   26          1        0.067281    0.005553
 -----------------------------------------------

 Dipole moment (in Debye)
 -----------------------------------------------
                 X        Y        Z     Total
 -----------------------------------------------
 CM5          0.3647   0.0634  -0.8767   0.9516
 Hirshfeld   -0.1019   0.0646  -0.0713   0.1401
 -----------------------------------------------

 A restricted SCF calculation will be
 performed using DIIS
 SCF converges when DIIS error is below 1.0e-08
 ---------------------------------------
  Cycle       Energy         DIIS error
 ---------------------------------------
Hirshfeld: reading atomic densities from disk.

 Charges (in A.U.) from CM5PAC (Nov. 11, 2011)
 -----------------------------------------------
 Center     Atomic      CM5         Hirshfeld
 Number     Number      Charge      Charge
 -----------------------------------------------
    1          7       -0.790212   -0.347950
    2          6        0.073058    0.021824
    3          6        0.051347    0.051690
    4         17        0.015129    0.015514
    5          6       -0.279691   -0.232063
    6          6       -0.133354   -0.131654
    7          6        0.101269    0.073138
    8          8       -0.746216   -0.701186
    9          6       -0.135451   -0.133480
   10          6       -0.205856   -0.154508
   11          6       -0.216698   -0.162015
   12          6       -0.218771   -0.164123
   13          6       -0.209875   -0.158567
   14          6       -0.132269   -0.130367
   15          6        0.102613    0.073512
   16          8       -0.761606   -0.717860
   17          6       -0.120753   -0.121653
   18          6       -0.020849   -0.012940
   19         35        0.093911    0.075881
   20          1        0.339341    0.148001
   21          1        0.364300    0.174075
   22          1        0.156829    0.093416
   23          1        0.163698    0.102917
   24          1        0.174908    0.119923
   25          1        0.174211    0.119215
   26          1        0.161123    0.099395
 -----------------------------------------------

 Dipole moment (in Debye)
 -----------------------------------------------
                 X        Y        Z     Total
 -----------------------------------------------
 CM5         -6.5366   2.0597  -2.6582   7.3509
 Hirshfeld   -7.0032   2.0609  -1.8528   7.5316
 -----------------------------------------------

    1   -3781.7601871376      2.87e-02  
Hirshfeld: reading atomic densities from disk.

 Charges (in A.U.) from CM5PAC (Nov. 11, 2011)
 -----------------------------------------------
 Center     Atomic      CM5         Hirshfeld
 Number     Number      Charge      Charge
 -----------------------------------------------
    1          7       -0.448222   -0.005960
    2          6       -0.056304   -0.107538
    3          6       -0.265871   -0.265528
    4         17       -0.704013   -0.703629
    5          6        0.039708    0.087336
    6          6        0.179327    0.181028
    7          6        0.047847    0.019716
    8          8        1.654485    1.699515
    9          6        0.120850    0.122822
   10          6       -0.347534   -0.296186
   11          6       -0.405322   -0.350639
   12          6       -0.404903   -0.350255
   13          6       -0.291689   -0.240382
   14          6        0.147857    0.149759
   15          6        0.072032    0.042931
   16          8        1.875091    1.918838
   17          6        0.157038    0.156138
   18          6       -0.106945   -0.099036
   19         35       -0.668999   -0.687030
   20          1        0.069214   -0.122126
   21          1        0.059299   -0.130926
   22          1       -0.106002   -0.169416
   23          1       -0.720216   -0.780997
   24          1       -0.619602   -0.674586
   25          1       -0.664723   -0.719720
   26          1       -0.607225   -0.668953
 -----------------------------------------------

 Dipole moment (in Debye)
 -----------------------------------------------
                 X        Y        Z     Total
 -----------------------------------------------
 CM5        -28.7408  -0.2399  -0.7347  28.7512
 Hirshfeld  -29.2074  -0.2387   0.0707  29.2085
 -----------------------------------------------

    2   -3776.9832590482      3.83e-03  
Hirshfeld: reading atomic densities from disk.

 Charges (in A.U.) from CM5PAC (Nov. 11, 2011)
 -----------------------------------------------
 Center     Atomic      CM5         Hirshfeld
 Number     Number      Charge      Charge
 -----------------------------------------------
    1          7       -0.464315   -0.022053
    2          6        0.126793    0.075560
    3          6        0.044871    0.045215
    4         17       -0.075741   -0.075356
    5          6       -0.002305    0.045323
    6          6       -0.034672   -0.032971
    7          6       -0.060887   -0.089019
    8          8       -0.789702   -0.744672
    9          6       -0.066585   -0.064613
   10          6       -0.070462   -0.019114
   11          6       -0.063594   -0.008911
   12          6       -0.056372   -0.001724
   13          6       -0.072854   -0.021547
   14          6       -0.067896   -0.065994
   15          6       -0.090829   -0.119930
   16          8       -0.824074   -0.780327
   17          6       -0.046097   -0.046997
   18          6       -0.049519   -0.041610
   19         35       -0.072341   -0.090371
   20          1        0.244360    0.053020
   21          1        0.253723    0.063498
   22          1        0.066192    0.002779
   23          1        0.047200   -0.013582
   24          1        0.038566   -0.016419
   25          1        0.039019   -0.015977
   26          1        0.047790   -0.013938
 -----------------------------------------------

 Dipole moment (in Debye)
 -----------------------------------------------
                 X        Y        Z     Total
 -----------------------------------------------
 CM5         -7.5100  -0.5081  -2.2774   7.8641
 Hirshfeld   -7.9766  -0.5069  -1.4721   8.1271
 -----------------------------------------------

    3   -3771.3676718006      1.05e-02  
Hirshfeld: reading atomic densities from disk.

 Charges (in A.U.) from CM5PAC (Nov. 11, 2011)
 -----------------------------------------------
 Center     Atomic      CM5         Hirshfeld
 Number     Number      Charge      Charge
 -----------------------------------------------
    1          7       -0.656037   -0.213775
    2          6        0.051455    0.000222
    3          6       -0.011838   -0.011495
    4         17       -0.035158   -0.034773
    5          6       -0.138461   -0.090833
    6          6       -0.100273   -0.098573
    7          6        0.028613    0.000482
    8          8       -0.623202   -0.578172
    9          6       -0.109587   -0.107616
   10          6       -0.136362   -0.085014
   11          6       -0.175435   -0.120752
   12          6       -0.180532   -0.125884
   13          6       -0.133155   -0.081847
   14          6       -0.107673   -0.105771
   15          6        0.054600    0.025499
   16          8       -0.606954   -0.563208
   17          6       -0.077572   -0.078472
   18          6       -0.012599   -0.004690
   19         35       -0.009522   -0.027552
   20          1        0.279606    0.088266
   21          1        0.295592    0.105367
   22          1        0.093186    0.029773
   23          1        0.078164    0.017382
   24          1        0.078011    0.023026
   25          1        0.077077    0.022081
   26          1        0.078317    0.016588
 -----------------------------------------------

 Dipole moment (in Debye)
 -----------------------------------------------
                 X        Y        Z     Total
 -----------------------------------------------
 CM5         -6.6863   1.5200  -2.1296   7.1800
 Hirshfeld   -7.1529   1.5211  -1.3243   7.4318
 -----------------------------------------------

    4   -3777.1496847919      3.09e-03  
Hirshfeld: reading atomic densities from disk.

 Charges (in A.U.) from CM5PAC (Nov. 11, 2011)
 -----------------------------------------------
 Center     Atomic      CM5         Hirshfeld
 Number     Number      Charge      Charge
 -----------------------------------------------
    1          7       -0.599827   -0.157565
    2          6        0.087720    0.036487
    3          6        0.010723    0.011066
    4         17       -0.132439   -0.132054
    5          6       -0.113494   -0.065866
    6          6       -0.055990   -0.054290
    7          6        0.036336    0.008205
    8          8       -0.512988   -0.467958
    9          6       -0.059411   -0.057440
   10          6       -0.144054   -0.092706
   11          6       -0.149520   -0.094836
   12          6       -0.134607   -0.079959
   13          6       -0.152907   -0.101600
   14          6       -0.061067   -0.059165
   15          6       -0.037916   -0.067017
   16          8       -0.547408   -0.503661
   17          6       -0.099289   -0.100189
   18          6       -0.096807   -0.088898
   19         35       -0.085170   -0.103200
   20          1        0.259385    0.068045
   21          1        0.274227    0.084002
   22          1        0.081661    0.018248
   23          1        0.059959   -0.000822
   24          1        0.055333    0.000348
   25          1        0.056064    0.001068
   26          1        0.061733    0.000005
 -----------------------------------------------

 Dipole moment (in Debye)
 -----------------------------------------------
                 X        Y        Z     Total
 -----------------------------------------------
 CM5         -3.6946  -0.9127  -1.8364   4.2256
 Hirshfeld   -4.1612  -0.9116  -1.0310   4.3829
 -----------------------------------------------

    5   -3777.4081312219      1.01e-03  
Hirshfeld: reading atomic densities from disk.

 Charges (in A.U.) from CM5PAC (Nov. 11, 2011)
 -----------------------------------------------
 Center     Atomic      CM5         Hirshfeld
 Number     Number      Charge      Charge
 -----------------------------------------------
    1          7       -0.636475   -0.194213
    2          6        0.033036   -0.018197
    3          6       -0.038437   -0.038093
    4         17       -0.105126   -0.104742
    5          6       -0.119797   -0.072169
    6          6       -0.076553   -0.074853
    7          6        0.000972   -0.027160
    8          8       -0.550293   -0.505263
    9          6       -0.090473   -0.088501
   10          6       -0.131073   -0.079725
   11          6       -0.157472   -0.102788
   12          6       -0.167393   -0.112745
   13          6       -0.124016   -0.072708
   14          6       -0.079847   -0.077945
   15          6        0.045774    0.016673
   16          8       -0.489587   -0.445841
   17          6       -0.050765   -0.051665
   18          6       -0.006201    0.001708
   19         35       -0.093465   -0.111495
   20          1        0.259487    0.068147
   21          1        0.272613    0.082388
   22          1        0.078476    0.015063
   23          1        0.058632   -0.002150
   24          1        0.056228    0.001243
   25          1        0.054538   -0.000458
   26          1        0.057447   -0.004281
 -----------------------------------------------

 Dipole moment (in Debye)
 -----------------------------------------------
                 X        Y        Z     Total
 -----------------------------------------------
 CM5         -3.3260   1.5796  -1.5055   3.9779
 Hirshfeld   -3.7926   1.5807  -0.7002   4.1681
 -----------------------------------------------

    6   -3777.4449178023      6.13e-04  
Hirshfeld: reading atomic densities from disk.

 Charges (in A.U.) from CM5PAC (Nov. 11, 2011)
 -----------------------------------------------
 Center     Atomic      CM5         Hirshfeld
 Number     Number      Charge      Charge
 -----------------------------------------------
    1          7       -0.636036   -0.193774
    2          6        0.046659   -0.004574
    3          6       -0.030965   -0.030622
    4         17       -0.105990   -0.105606
    5          6       -0.118518   -0.070890
    6          6       -0.084334   -0.082633
    7          6        0.033558    0.005427
    8          8       -0.504833   -0.459803
    9          6       -0.081528   -0.079557
   10          6       -0.129211   -0.077863
   11          6       -0.164930   -0.110247
   12          6       -0.162014   -0.107366
   13          6       -0.130958   -0.079651
   14          6       -0.082054   -0.080152
   15          6        0.024129   -0.004971
   16          8       -0.508799   -0.465052
   17          6       -0.084144   -0.085045
   18          6       -0.049578   -0.041669
   19         35       -0.077431   -0.095461
   20          1        0.259695    0.068355
   21          1        0.273498    0.083273
   22          1        0.077514    0.014101
   23          1        0.059291   -0.001490
   24          1        0.058655    0.003670
   25          1        0.058463    0.003467
   26          1        0.060101   -0.001627
 -----------------------------------------------

 Dipole moment (in Debye)
 -----------------------------------------------
                 X        Y        Z     Total
 -----------------------------------------------
 CM5         -3.0031   0.2221  -1.6317   3.4249
 Hirshfeld   -3.4697   0.2233  -0.8263   3.5737
 -----------------------------------------------

    7   -3777.4565388020      3.30e-04  
Hirshfeld: reading atomic densities from disk.

 Charges (in A.U.) from CM5PAC (Nov. 11, 2011)
 -----------------------------------------------
 Center     Atomic      CM5         Hirshfeld
 Number     Number      Charge      Charge
 -----------------------------------------------
    1          7       -0.637367   -0.195105
    2          6        0.050682   -0.000551
    3          6       -0.021289   -0.020946
    4         17       -0.113013   -0.112628
    5          6       -0.125310   -0.077682
    6          6       -0.077374   -0.075673
    7          6        0.026697   -0.001434
    8          8       -0.517571   -0.472541
    9          6       -0.081430   -0.079459
   10          6       -0.137509   -0.086161
   11          6       -0.161725   -0.107042
   12          6       -0.161753   -0.107105
   13          6       -0.137132   -0.085824
   14          6       -0.078365   -0.076464
   15          6        0.023005   -0.006096
   16          8       -0.493893   -0.450147
   17          6       -0.078956   -0.079856
   18          6       -0.043645   -0.035736
   19         35       -0.084293   -0.102323
   20          1        0.259043    0.067703
   21          1        0.273071    0.082846
   22          1        0.077477    0.014064
   23          1        0.060711   -0.000071
   24          1        0.060147    0.005162
   25          1        0.059470    0.004474
   26          1        0.060560   -0.001169
 -----------------------------------------------

 Dipole moment (in Debye)
 -----------------------------------------------
                 X        Y        Z     Total
 -----------------------------------------------
 CM5         -3.0053   0.6257  -1.5798   3.4524
 Hirshfeld   -3.4720   0.6268  -0.7744   3.6121
 -----------------------------------------------

    8   -3777.4592055857      1.18e-04  
Hirshfeld: reading atomic densities from disk.

 Charges (in A.U.) from CM5PAC (Nov. 11, 2011)
 -----------------------------------------------
 Center     Atomic      CM5         Hirshfeld
 Number     Number      Charge      Charge
 -----------------------------------------------
    1          7       -0.637041   -0.194779
    2          6        0.045647   -0.005586
    3          6       -0.029699   -0.029356
    4         17       -0.111903   -0.111518
    5          6       -0.123431   -0.075803
    6          6       -0.078914   -0.077214
    7          6        0.026176   -0.001955
    8          8       -0.513264   -0.468234
    9          6       -0.080714   -0.078743
   10          6       -0.134952   -0.083604
   11          6       -0.161419   -0.106736
   12          6       -0.160916   -0.106268
   13          6       -0.134716   -0.083408
   14          6       -0.076764   -0.074862
   15          6        0.024783   -0.004318
   16          8       -0.499648   -0.455902
   17          6       -0.077347   -0.078247
   18          6       -0.041808   -0.033898
   19         35       -0.084511   -0.102542
   20          1        0.259397    0.068057
   21          1        0.273225    0.082999
   22          1        0.078021    0.014608
   23          1        0.060293   -0.000488
   24          1        0.059963    0.004978
   25          1        0.059384    0.004387
   26          1        0.060394   -0.001334
 -----------------------------------------------

 Dipole moment (in Debye)
 -----------------------------------------------
                 X        Y        Z     Total
 -----------------------------------------------
 CM5         -2.7840   0.5329  -1.5722   3.2414
 Hirshfeld   -3.2507   0.5341  -0.7668   3.3823
 -----------------------------------------------

    9   -3777.4598808733      4.62e-05  
Hirshfeld: reading atomic densities from disk.

 Charges (in A.U.) from CM5PAC (Nov. 11, 2011)
 -----------------------------------------------
 Center     Atomic      CM5         Hirshfeld
 Number     Number      Charge      Charge
 -----------------------------------------------
    1          7       -0.636956   -0.194694
    2          6        0.047147   -0.004086
    3          6       -0.027027   -0.026684
    4         17       -0.112266   -0.111881
    5          6       -0.122876   -0.075247
    6          6       -0.079703   -0.078002
    7          6        0.026286   -0.001845
    8          8       -0.514174   -0.469144
    9          6       -0.081636   -0.079664
   10          6       -0.134085   -0.082737
   11          6       -0.161504   -0.106820
   12          6       -0.161238   -0.106590
   13          6       -0.134066   -0.082758
   14          6       -0.078733   -0.076832
   15          6        0.024680   -0.004421
   16          8       -0.497462   -0.453715
   17          6       -0.078623   -0.079523
   18          6       -0.043177   -0.035267
   19         35       -0.084774   -0.102805
   20          1        0.259094    0.067754
   21          1        0.272980    0.082755
   22          1        0.077714    0.014301
   23          1        0.060415   -0.000367
   24          1        0.060162    0.005177
   25          1        0.059590    0.004594
   26          1        0.060468   -0.001261
 -----------------------------------------------

 Dipole moment (in Debye)
 -----------------------------------------------
                 X        Y        Z     Total
 -----------------------------------------------
 CM5         -2.8024   0.5452  -1.5677   3.2570
 Hirshfeld   -3.2690   0.5463  -0.7624   3.4009
 -----------------------------------------------

   10   -3777.4603898730      2.04e-05  
Hirshfeld: reading atomic densities from disk.

 Charges (in A.U.) from CM5PAC (Nov. 11, 2011)
 -----------------------------------------------
 Center     Atomic      CM5         Hirshfeld
 Number     Number      Charge      Charge
 -----------------------------------------------
    1          7       -0.637330   -0.195068
    2          6        0.046910   -0.004324
    3          6       -0.027551   -0.027208
    4         17       -0.112232   -0.111848
    5          6       -0.123448   -0.075820
    6          6       -0.079077   -0.077376
    7          6        0.026769   -0.001362
    8          8       -0.514279   -0.469249
    9          6       -0.081083   -0.079112
   10          6       -0.134757   -0.083409
   11          6       -0.161493   -0.106810
   12          6       -0.161134   -0.106486
   13          6       -0.134551   -0.083243
   14          6       -0.077937   -0.076036
   15          6        0.024719   -0.004382
   16          8       -0.497966   -0.454219
   17          6       -0.078167   -0.079068
   18          6       -0.042606   -0.034696
   19         35       -0.084992   -0.103022
   20          1        0.259065    0.067725
   21          1        0.272916    0.082691
   22          1        0.077609    0.014196
   23          1        0.060448   -0.000333
   24          1        0.060250    0.005265
   25          1        0.059673    0.004677
   26          1        0.060482   -0.001246
 -----------------------------------------------

 Dipole moment (in Debye)
 -----------------------------------------------
                 X        Y        Z     Total
 -----------------------------------------------
 CM5         -2.7806   0.5424  -1.5660   3.2370
 Hirshfeld   -3.2472   0.5436  -0.7607   3.3791
 -----------------------------------------------

   11   -3777.4602555756      6.67e-06  
Hirshfeld: reading atomic densities from disk.

 Charges (in A.U.) from CM5PAC (Nov. 11, 2011)
 -----------------------------------------------
 Center     Atomic      CM5         Hirshfeld
 Number     Number      Charge      Charge
 -----------------------------------------------
    1          7       -0.637241   -0.194979
    2          6        0.046841   -0.004392
    3          6       -0.027527   -0.027183
    4         17       -0.112292   -0.111907
    5          6       -0.123388   -0.075760
    6          6       -0.079402   -0.077701
    7          6        0.026371   -0.001760
    8          8       -0.514114   -0.469084
    9          6       -0.081249   -0.079278
   10          6       -0.134654   -0.083306
   11          6       -0.161295   -0.106612
   12          6       -0.160995   -0.106346
   13          6       -0.134484   -0.083176
   14          6       -0.077967   -0.076065
   15          6        0.024700   -0.004400
   16          8       -0.497652   -0.453906
   17          6       -0.078401   -0.079301
   18          6       -0.042747   -0.034837
   19         35       -0.084879   -0.102910
   20          1        0.259059    0.067719
   21          1        0.272911    0.082686
   22          1        0.077651    0.014238
   23          1        0.060475   -0.000307
   24          1        0.060294    0.005309
   25          1        0.059716    0.004720
   26          1        0.060505   -0.001223
 -----------------------------------------------

 Dipole moment (in Debye)
 -----------------------------------------------
                 X        Y        Z     Total
 -----------------------------------------------
 CM5         -2.7686   0.5482  -1.5645   3.2270
 Hirshfeld   -3.2353   0.5494  -0.7591   3.3682
 -----------------------------------------------

   12   -3777.4603547427      2.86e-06  
Hirshfeld: reading atomic densities from disk.

 Charges (in A.U.) from CM5PAC (Nov. 11, 2011)
 -----------------------------------------------
 Center     Atomic      CM5         Hirshfeld
 Number     Number      Charge      Charge
 -----------------------------------------------
    1          7       -0.637270   -0.195008
    2          6        0.046866   -0.004368
    3          6       -0.027498   -0.027155
    4         17       -0.112371   -0.111986
    5          6       -0.123347   -0.075719
    6          6       -0.079303   -0.077602
    7          6        0.026496   -0.001636
    8          8       -0.514168   -0.469138
    9          6       -0.081234   -0.079263
   10          6       -0.134583   -0.083235
   11          6       -0.161393   -0.106710
   12          6       -0.161071   -0.106423
   13          6       -0.134450   -0.083143
   14          6       -0.078058   -0.076157
   15          6        0.024703   -0.004398
   16          8       -0.497708   -0.453961
   17          6       -0.078316   -0.079216
   18          6       -0.042708   -0.034799
   19         35       -0.084985   -0.103015
   20          1        0.259050    0.067710
   21          1        0.272905    0.082680
   22          1        0.077632    0.014219
   23          1        0.060481   -0.000301
   24          1        0.060315    0.005330
   25          1        0.059743    0.004747
   26          1        0.060512   -0.001216
 -----------------------------------------------

 Dipole moment (in Debye)
 -----------------------------------------------
                 X        Y        Z     Total
 -----------------------------------------------
 CM5         -2.7679   0.5457  -1.5644   3.2259
 Hirshfeld   -3.2346   0.5468  -0.7591   3.3671
 -----------------------------------------------

   13   -3777.4603309491      1.14e-06  
Hirshfeld: reading atomic densities from disk.

 Charges (in A.U.) from CM5PAC (Nov. 11, 2011)
 -----------------------------------------------
 Center     Atomic      CM5         Hirshfeld
 Number     Number      Charge      Charge
 -----------------------------------------------
    1          7       -0.637272   -0.195010
    2          6        0.046866   -0.004367
    3          6       -0.027506   -0.027163
    4         17       -0.112348   -0.111963
    5          6       -0.123376   -0.075748
    6          6       -0.079340   -0.077639
    7          6        0.026486   -0.001646
    8          8       -0.514191   -0.469161
    9          6       -0.081213   -0.079242
   10          6       -0.134613   -0.083265
   11          6       -0.161345   -0.106662
   12          6       -0.161032   -0.106384
   13          6       -0.134443   -0.083135
   14          6       -0.078011   -0.076109
   15          6        0.024719   -0.004382
   16          8       -0.497697   -0.453950
   17          6       -0.078357   -0.079257
   18          6       -0.042727   -0.034818
   19         35       -0.084988   -0.103019
   20          1        0.259046    0.067706
   21          1        0.272902    0.082676
   22          1        0.077634    0.014221
   23          1        0.060480   -0.000301
   24          1        0.060315    0.005330
   25          1        0.059741    0.004745
   26          1        0.060507   -0.001221
 -----------------------------------------------

 Dipole moment (in Debye)
 -----------------------------------------------
                 X        Y        Z     Total
 -----------------------------------------------
 CM5         -2.7656   0.5464  -1.5641   3.2239
 Hirshfeld   -3.2322   0.5475  -0.7587   3.3649
 -----------------------------------------------

   14   -3777.4603458720      4.05e-07  
Hirshfeld: reading atomic densities from disk.

 Charges (in A.U.) from CM5PAC (Nov. 11, 2011)
 -----------------------------------------------
 Center     Atomic      CM5         Hirshfeld
 Number     Number      Charge      Charge
 -----------------------------------------------
    1          7       -0.637273   -0.195011
    2          6        0.046867   -0.004367
    3          6       -0.027503   -0.027160
    4         17       -0.112354   -0.111969
    5          6       -0.123370   -0.075742
    6          6       -0.079327   -0.077626
    7          6        0.026474   -0.001657
    8          8       -0.514183   -0.469153
    9          6       -0.081230   -0.079259
   10          6       -0.134609   -0.083260
   11          6       -0.161347   -0.106664
   12          6       -0.161032   -0.106384
   13          6       -0.134454   -0.083146
   14          6       -0.078028   -0.076126
   15          6        0.024711   -0.004390
   16          8       -0.497698   -0.453952
   17          6       -0.078339   -0.079239
   18          6       -0.042709   -0.034800
   19         35       -0.084997   -0.103027
   20          1        0.259045    0.067705
   21          1        0.272898    0.082673
   22          1        0.077630    0.014217
   23          1        0.060485   -0.000297
   24          1        0.060320    0.005335
   25          1        0.059748    0.004752
   26          1        0.060512   -0.001216
 -----------------------------------------------

 Dipole moment (in Debye)
 -----------------------------------------------
                 X        Y        Z     Total
 -----------------------------------------------
 CM5         -2.7656   0.5462  -1.5641   3.2239
 Hirshfeld   -3.2323   0.5474  -0.7587   3.3649
 -----------------------------------------------

   15   -3777.4603458188      1.83e-07  
Hirshfeld: reading atomic densities from disk.

 Charges (in A.U.) from CM5PAC (Nov. 11, 2011)
 -----------------------------------------------
 Center     Atomic      CM5         Hirshfeld
 Number     Number      Charge      Charge
 -----------------------------------------------
    1          7       -0.637273   -0.195011
    2          6        0.046862   -0.004371
    3          6       -0.027507   -0.027164
    4         17       -0.112355   -0.111970
    5          6       -0.123368   -0.075740
    6          6       -0.079329   -0.077628
    7          6        0.026480   -0.001652
    8          8       -0.514189   -0.469159
    9          6       -0.081222   -0.079250
   10          6       -0.134605   -0.083257
   11          6       -0.161351   -0.106668
   12          6       -0.161036   -0.106388
   13          6       -0.134449   -0.083142
   14          6       -0.078021   -0.076119
   15          6        0.024713   -0.004387
   16          8       -0.497696   -0.453950
   17          6       -0.078345   -0.079245
   18          6       -0.042716   -0.034806
   19         35       -0.084994   -0.103025
   20          1        0.259045    0.067705
   21          1        0.272899    0.082673
   22          1        0.077631    0.014218
   23          1        0.060485   -0.000297
   24          1        0.060320    0.005336
   25          1        0.059748    0.004752
   26          1        0.060512   -0.001217
 -----------------------------------------------

 Dipole moment (in Debye)
 -----------------------------------------------
                 X        Y        Z     Total
 -----------------------------------------------
 CM5         -2.7653   0.5463  -1.5640   3.2236
 Hirshfeld   -3.2320   0.5474  -0.7587   3.3647
 -----------------------------------------------

   16   -3777.4603456123      7.37e-08  
Hirshfeld: reading atomic densities from disk.

 Charges (in A.U.) from CM5PAC (Nov. 11, 2011)
 -----------------------------------------------
 Center     Atomic      CM5         Hirshfeld
 Number     Number      Charge      Charge
 -----------------------------------------------
    1          7       -0.637274   -0.195012
    2          6        0.046864   -0.004370
    3          6       -0.027505   -0.027162
    4         17       -0.112356   -0.111971
    5          6       -0.123371   -0.075743
    6          6       -0.079331   -0.077630
    7          6        0.026479   -0.001652
    8          8       -0.514188   -0.469158
    9          6       -0.081224   -0.079252
   10          6       -0.134606   -0.083258
   11          6       -0.161349   -0.106666
   12          6       -0.161034   -0.106386
   13          6       -0.134448   -0.083141
   14          6       -0.078023   -0.076121
   15          6        0.024715   -0.004386
   16          8       -0.497697   -0.453950
   17          6       -0.078343   -0.079243
   18          6       -0.042712   -0.034803
   19         35       -0.084997   -0.103027
   20          1        0.259045    0.067705
   21          1        0.272899    0.082673
   22          1        0.077631    0.014218
   23          1        0.060485   -0.000297
   24          1        0.060320    0.005335
   25          1        0.059748    0.004752
   26          1        0.060511   -0.001217
 -----------------------------------------------

 Dipole moment (in Debye)
 -----------------------------------------------
                 X        Y        Z     Total
 -----------------------------------------------
 CM5         -2.7653   0.5463  -1.5640   3.2236
 Hirshfeld   -3.2319   0.5474  -0.7587   3.3646
 -----------------------------------------------

   17   -3777.4603464364      2.98e-08  
Hirshfeld: reading atomic densities from disk.

 Charges (in A.U.) from CM5PAC (Nov. 11, 2011)
 -----------------------------------------------
 Center     Atomic      CM5         Hirshfeld
 Number     Number      Charge      Charge
 -----------------------------------------------
    1          7       -0.637274   -0.195012
    2          6        0.046863   -0.004371
    3          6       -0.027506   -0.027163
    4         17       -0.112355   -0.111971
    5          6       -0.123370   -0.075742
    6          6       -0.079330   -0.077629
    7          6        0.026479   -0.001652
    8          8       -0.514188   -0.469158
    9          6       -0.081224   -0.079253
   10          6       -0.134606   -0.083258
   11          6       -0.161350   -0.106666
   12          6       -0.161034   -0.106386
   13          6       -0.134449   -0.083142
   14          6       -0.078023   -0.076121
   15          6        0.024714   -0.004386
   16          8       -0.497696   -0.453949
   17          6       -0.078343   -0.079243
   18          6       -0.042713   -0.034804
   19         35       -0.084997   -0.103027
   20          1        0.259045    0.067705
   21          1        0.272899    0.082673
   22          1        0.077631    0.014218
   23          1        0.060485   -0.000297
   24          1        0.060320    0.005336
   25          1        0.059748    0.004752
   26          1        0.060511   -0.001217
 -----------------------------------------------

 Dipole moment (in Debye)
 -----------------------------------------------
                 X        Y        Z     Total
 -----------------------------------------------
 CM5         -2.7653   0.5463  -1.5640   3.2236
 Hirshfeld   -3.2319   0.5474  -0.7587   3.3646
 -----------------------------------------------

   18   -3777.4603464569      1.17e-08  
   19   -3777.4603465062      4.28e-09  Convergence criterion met
 ---------------------------------------
 SCF time:   CPU 6011.99s  wall 761.00s 
(1)  E-EN(liq) elect-nuc energy of solute              -3777.460346506 a.u.
(2)  G-P(liq) polarization free energy of solvation          -157.7421 kcal/mol
(3)  G-ENP(liq) elect-nuc-pol free energy of system    -3777.711724565 a.u.
(4)  G-CDS(liq) cavity-dispersion-solvent structure 
     free energy                                               -9.5648 kcal/mol
(5)  G-P-CDS(liq) = G-P(liq) + G-CDS(liq) = (2) + (4)        -167.3069 kcal/mol
(6)  G-S(liq) free energy of system = (1) + (5)        -3777.726967096 a.u.
 SCF   energy in the final basis set =    -3777.7269670958
 Total energy in the final basis set =    -3777.7269670958
 
 --------------------------------------------------------------
 
                    Orbital Energies (a.u.)
 --------------------------------------------------------------
 
 Alpha MOs
 -- Occupied --
********-101.5548 -62.4658 -56.2862 -56.2826 -56.2823 -19.0302 -19.0205
-14.3213 -10.2245 -10.2217 -10.2163 -10.1890 -10.1879 -10.1729 -10.1724
-10.1724 -10.1688 -10.1668 -10.1653 -10.1573 -10.1529 -10.1525  -9.4676
 -8.6741  -7.2320  -7.2228  -7.2225  -6.5049  -6.4929  -6.4923  -2.6158
 -2.6125  -2.6120  -2.6025  -2.6025  -0.9492  -0.9433  -0.9298  -0.8628
 -0.8432  -0.8290  -0.7828  -0.7614  -0.7420  -0.7199  -0.7148  -0.6505
 -0.6250  -0.6061  -0.5827  -0.5490  -0.5307  -0.5130  -0.5026  -0.4779
 -0.4514  -0.4499  -0.4417  -0.4217  -0.4135  -0.4111  -0.4033  -0.3940
 -0.3829  -0.3782  -0.3654  -0.3476  -0.3448  -0.3418  -0.3371  -0.3282
 -0.3195  -0.3139  -0.2915  -0.2865  -0.2754  -0.2484  -0.2344  -0.2315
 -0.2118  -0.2081  -0.1931  -0.1150
 -- Virtual --
 -0.0652  -0.0575  -0.0491  -0.0470  -0.0421  -0.0359  -0.0230  -0.0210
 -0.0181  -0.0136  -0.0032   0.0029   0.0071   0.0185   0.0196   0.0223
  0.0269   0.0311   0.0329   0.0394   0.0427   0.0454   0.0475   0.0496
  0.0531   0.0558   0.0596   0.0639   0.0670   0.0708   0.0755   0.0796
  0.0800   0.0825   0.0880   0.0918   0.0937   0.0970   0.1032   0.1062
  0.1091   0.1127   0.1170   0.1215   0.1286   0.1305   0.1380   0.1422
  0.1448   0.1507   0.1538   0.1555   0.1633   0.1645   0.1716   0.1773
  0.1800   0.1837   0.1884   0.1970   0.2036   0.2038   0.2110   0.2133
  0.2184   0.2218   0.2252   0.2303   0.2339   0.2401   0.2430   0.2460
  0.2484   0.2510   0.2562   0.2615   0.2634   0.2685   0.2722   0.2796
  0.2859   0.2869   0.2883   0.2950   0.3006   0.3057   0.3091   0.3119
  0.3145   0.3159   0.3226   0.3279   0.3341   0.3382   0.3460   0.3513
  0.3580   0.3599   0.3723   0.3802   0.3927   0.4072   0.4091   0.4214
  0.4318   0.4373   0.4469   0.4603   0.4663   0.4724   0.4819   0.5010
  0.5212   0.5245   0.5270   0.5397   0.5439   0.5512   0.5561   0.5569
  0.5672   0.5735   0.5770   0.5841   0.5884   0.5954   0.5996   0.6091
  0.6220   0.6247   0.6324   0.6369   0.6479   0.6526   0.6572   0.6634
  0.6679   0.6728   0.6755   0.6823   0.6957   0.6966   0.7035   0.7197
  0.7223   0.7313   0.7398   0.7423   0.7578   0.7631   0.7666   0.7780
  0.7911   0.7936   0.8173   0.8194   0.8223   0.8292   0.8376   0.8437
  0.8505   0.8640   0.8685   0.8789   0.8943   0.8966   0.9065   0.9094
  0.9153   0.9235   0.9352   0.9414   0.9454   0.9503   0.9554   0.9637
  0.9668   0.9699   0.9849   0.9926   1.0058   1.0092   1.0156   1.0200
  1.0258   1.0350   1.0570   1.0639   1.0763   1.0908   1.1002   1.1059
  1.1302   1.1332   1.1445   1.1655   1.1818   1.1839   1.2007   1.2111
  1.2357   1.2578   1.2710   1.2741   1.2895   1.2923   1.3018   1.3078
  1.3255   1.3343   1.3515   1.3761   1.3824   1.4121   1.4136   1.4734
  1.4902   1.5055   1.5092   1.5161   1.5251   1.5344   1.5465   1.5557
  1.5606   1.5685   1.5777   1.5953   1.6057   1.6190   1.6358   1.6401
  1.6528   1.6627   1.6820   1.7064   1.7145   1.7378   1.7436   1.7675
  1.7725   1.7855   1.7940   1.8168   1.8265   1.8427   1.8592   1.8665
  1.8808   1.8930   1.9073   1.9240   1.9310   1.9415   1.9469   1.9591
  1.9704   1.9768   1.9877   1.9963   2.0002   2.0156   2.0327   2.0518
  2.0641   2.0771   2.0847   2.1025   2.1289   2.1511   2.1879   2.1904
  2.1997   2.2232   2.2410   2.2488   2.2660   2.2912   2.2958   2.3208
  2.3389   2.3442   2.3681   2.3995   2.4013   2.4166   2.4469   2.4830
  2.4832   2.5149   2.5250   2.5732   2.5774   2.5999   2.6257   2.6447
  2.6567   2.6615   2.6842   2.7131   2.7155   2.7400   2.7440   2.7491
  2.7617   2.7734   2.7779   2.7873   2.7999   2.8080   2.8160   2.8344
  2.8555   2.8603   2.8691   2.8943   2.9044   2.9122   2.9239   2.9360
  2.9749   2.9894   2.9918   3.0014   3.0238   3.0521   3.0760   3.1041
  3.1251   3.1391   3.1640   3.1782   3.2065   3.2218   3.2327   3.2651
  3.3010   3.3191   3.3299   3.3552   3.3617   3.3832   3.4104   3.4463
  3.4862   3.5223   3.5472   3.5575   3.5782   3.5823   3.6394   3.6867
  3.7502   3.8075   3.8736   3.9296   4.0216   4.0415   4.0616   4.0840
  4.1133   4.1307   4.1502   4.2012   4.2789   4.3078   4.3581   4.4479
  4.4753   4.7504   4.8184   4.8258   4.8483   4.9519   5.1356   5.1563
  5.3177   5.3394   5.7952   5.8654   6.8024   7.6103   7.7364   7.7728
  9.7870  23.4635  23.6701  23.8247  23.8949  23.9260  23.9452  23.9823
 23.9918  23.9958  24.0404  24.0562  24.1248  24.1615  24.1861  25.8603
 26.2343  26.6499  35.6332  48.0554  50.0980  50.1565 215.7811 289.8062
289.9335 289.99371020.8744
 --------------------------------------------------------------
 
          Ground-State Mulliken Net Atomic Charges

     Atom                 Charge (a.u.)
  ----------------------------------------
      1 N                     0.159218
      2 C                     1.469872
      3 C                     4.656874
      4 Cl                    1.351658
      5 C                     0.437931
      6 C                    -2.974653
      7 C                    -3.616107
      8 O                    -0.327341
      9 C                    -2.419998
     10 C                    -0.601601
     11 C                     1.309242
     12 C                     1.214250
     13 C                    -0.449888
     14 C                    -1.600783
     15 C                    -3.988149
     16 O                    -0.174765
     17 C                     0.208871
     18 C                     1.201109
     19 Br                    0.332353
     20 H                     0.268157
     21 H                     0.346274
     22 H                     0.247625
     23 H                     0.101563
     24 H                     0.382310
     25 H                     0.374022
     26 H                     0.091956
  ----------------------------------------
  Sum of atomic charges =    -2.000000

 -----------------------------------------------------------------
                    Cartesian Multipole Moments
 -----------------------------------------------------------------
    Charge (ESU x 10^10)
                -9.6064
    Dipole Moment (Debye)
         X      -2.3470      Y       0.3424      Z      -1.3483
       Tot       2.7283
    Quadrupole Moments (Debye-Ang)
        XX    -185.6322     XY       1.0246     YY    -194.7203
        XZ       1.8946     YZ      -4.9759     ZZ    -143.1613
    Octopole Moments (Debye-Ang^2)
       XXX     273.4780    XXY     -12.3407    XYY      87.2267
       YYY     -74.9679    XXZ     -16.9361    XYZ       3.7577
       YYZ      11.8815    XZZ      72.5640    YZZ     -29.9456
       ZZZ      39.1726
    Hexadecapole Moments (Debye-Ang^3)
      XXXX   -7421.5634   XXXY      65.5392   XXYY   -1740.7491
      XYYY     182.4363   YYYY   -3393.8746   XXXZ    -186.2263
      XXYZ     -11.8961   XYYZ    -117.0453   YYYZ      12.1533
      XXZZ   -1227.2186   XYZZ      49.6438   YYZZ    -572.9906
      XZZZ    -352.4930   YZZZ      53.6946   ZZZZ    -304.0992
 -----------------------------------------------------------------
 Total job time:  801.28s(wall), 6019.05s(cpu) 
 Sat Feb  3 11:36:48 2024

        *************************************************************
        *                                                           *
        *  Thank you very much for using Q-Chem.  Have a nice day.  *
        *                                                           *
        *************************************************************


