
Running Job 1 of 1 109-rad-COSMO.in
qchem 109-rad-COSMO.in_3631332.0 /expanse/lustre/scratch/selhajj/temp_project/qcscratch/28869377/qchem3631332/ 0
/cm/shared/apps/spack/cpu/opt/spack/linux-centos8-zen2/gcc-10.2.0/qchem-5.4-akfmr7b3t57bfs6qan3padb2wnb2i7cl/exe/qcprog.exe_s 109-rad-COSMO.in_3631332.0 /expanse/lustre/scratch/selhajj/temp_project/qcscratch/28869377/qchem3631332/
                  Welcome to Q-Chem
     A Quantum Leap Into The Future Of Chemistry


 Q-Chem 5.4, Q-Chem, Inc., Pleasanton, CA (2021)

 License issued to: University of California, San Diego (site)

 E. Epifanovsky,  A. T. B. Gilbert,  Xintian Feng,  Joonho Lee,  Yuezhi Mao,  
 N. Mardirossian,  P. Pokhilko,  A. White,  M. Wormit,  M. P. Coons,  
 A. L. Dempwolff,  Zhengting Gan,  D. Hait,  P. R. Horn,  L. D. Jacobson,  
 I. Kaliman,  J. Kussmann,  A. W. Lange,  Ka Un Lao,  D. S. Levine,  Jie Liu,  
 S. C. McKenzie,  A. F. Morrison,  K. Nanda,  F. Plasser,  D. R. Rehn,  
 M. L. Vidal,  Zhi-Qiang You,  Ying Zhu,  B. Alam,  B. Albrecht,  
 A. Aldossary,  E. Alguire,  J. H. Andersen,  D. Barton,  K. Begam,  A. Behn,  
 Y. A. Bernard,  E. J. Berquist,  H. Burton,  A. Carreras,  K. Carter-Fenk,  
 R. Chakraborty,  A. D. Chien,  K. D. Closser,  V. Cofer-Shabica,  
 S. Dasgupta,  Jia Deng,  M. de Wergifosse,  M. Diedenhofen,  Hainam Do,  
 S. Ehlert,  Po-Tung Fang,  S. Fatehi,  Qingguo Feng,  J. Gayvert,  
 Qinghui Ge,  G. Gidofalvi,  M. Goldey,  J. Gomes,  C. Gonzalez-Espinoza,  
 S. Gulania,  A. Gunina,  M. W. D. Hanson-Heine,  P. H. P. Harbach,  
 A. W. Hauser,  M. F. Herbst,  M. Hernandez Vera,  M. Hodecker,  
 Z. C. Holden,  S. Houck,  Xunkun Huang,  Kerwin Hui,  B. C. Huynh,  
 M. Ivanov,  Hyunjun Ji,  Hanjie Jiang,  B. Kaduk,  S. Kaehler,  
 K. Khistyaev,  Jaehoon Kim,  P. Klunzinger,  Z. Koczor-Benda,  
 Joong Hoon Koh,  D. Kosenkov,  L. Koulias,  T. Kowalczyk,  C. M. Krauter,  
 K. Kue,  A. Kunitsa,  T. Kus,  A. Landau,  K. V. Lawler,  D. Lefrancois,  
 S. Lehtola,  Rain Li,  Yi-Pei Li,  Jiashu Liang,  M. Liebenthal,  
 Hung-Hsuan Lin,  You-Sheng Lin,  Fenglai Liu,  Kuan-Yu Liu,  
 M. Loipersberger,  A. Luenser,  A. Manjanath,  P. Manohar,  E. Mansoor,  
 S. F. Manzer,  Shan-Ping Mao,  A. V. Marenich,  T. Markovich,  S. Mason,  
 S. A. Maurer,  P. F. McLaughlin,  M. F. S. J. Menger,  J.-M. Mewes,  
 S. A. Mewes,  P. Morgante,  J. W. Mullinax,  T. S. Nguyen-Beck,  
 K. J. Oosterbaan,  G. Paran,  Alexander C. Paul,  Suranjan K. Paul,  
 F. Pavosevic,  Zheng Pei,  S. Prager,  E. I. Proynov,  E. Ramos,  B. Rana,  
 A. E. Rask,  A. Rettig,  R. M. Richard,  F. Rob,  E. Rossomme,  T. Scheele,  
 M. Scheurer,  M. Schneider,  N. Sergueev,  S. M. Sharada,  W. Skomorowski,  
 D. W. Small,  C. J. Stein,  Yu-Chuan Su,  E. J. Sundstrom,  Zhen Tao,  
 J. Thirman,  T. Tsuchimochi,  N. M. Tubman,  S. P. Veccham,  O. Vydrov,  
 J. Wenzel,  J. Witte,  A. Yamada,  Kun Yao,  S. Yeganeh,  S. R. Yost,  
 A. Zech,  Igor Ying Zhang,  Xing Zhang,  Yu Zhang,  D. Zuev,  
 A. Aspuru-Guzik,  A. T. Bell,  N. A. Besley,  K. B. Bravaya,  B. R. Brooks,  
 D. Casanova,  Jeng-Da Chai,  S. Coriani,  C. J. Cramer,  
 A. E. DePrince, III,  R. A. DiStasio Jr.,  A. Dreuw,  B. D. Dunietz,  
 T. R. Furlani,  W. A. Goddard III,  S. Grimme,  S. Hammes-Schiffer,  
 T. Head-Gordon,  W. J. Hehre,  Chao-Ping Hsu,  T.-C. Jagau,  Yousung Jung,  
 A. Klamt,  Jing Kong,  D. S. Lambrecht,  WanZhen Liang,  N. J. Mayhall,  
 C. W. McCurdy,  J. B. Neaton,  C. Ochsenfeld,  J. A. Parkhill,  R. Peverati,  
 V. A. Rassolov,  Yihan Shao,  L. V. Slipchenko,  T. Stauch,  R. P. Steele,  
 J. E. Subotnik,  A. J. W. Thom,  A. Tkatchenko,  D. G. Truhlar,  
 T. Van Voorhis,  T. A. Wesolowski,  K. B. Whaley,  H. L. Woodcock III,  
 P. M. Zimmerman,  S. Faraji,  P. M. W. Gill,  M. Head-Gordon,  
 J. M. Herbert,  A. I. Krylov

 Contributors to earlier versions of Q-Chem not listed above: 
 R. D. Adamson,  B. Austin,  R. Baer,  J. Baker,  G. J. O. Beran,  
 K. Brandhorst,  S. T. Brown,  E. F. C. Byrd,  A. K. Chakraborty,  
 G. K. L. Chan,  Chun-Min Chang,  Yunqing Chen,  C.-L. Cheng,  
 Siu Hung Chien,  D. M. Chipman,  D. L. Crittenden,  H. Dachsel,  
 R. J. Doerksen,  A. D. Dutoi,  R. G. Edgar,  J. Fosso-Tande,  
 L. Fusti-Molnar,  D. Ghosh,  A. Ghysels,  A. Golubeva-Zadorozhnaya,  
 J. Gonthier,  M. S. Gordon,  S. R. Gwaltney,  G. Hawkins,  J. E. Herr,  
 A. Heyden,  S. Hirata,  E. G. Hohenstein,  G. Kedziora,  F. J. Keil,  
 C. Kelley,  Jihan Kim,  R. A. King,  R. Z. Khaliullin,  P. P. Korambath,  
 W. Kurlancheek,  A. Laurent,  A. M. Lee,  M. S. Lee,  S. V. Levchenko,  
 Ching Yeh Lin,  D. Liotard,  E. Livshits,  R. C. Lochan,  I. Lotan,  
 L. A. Martinez-Martinez,  P. E. Maslen,  N. Nair,  D. P. O'Neill,  
 D. Neuhauser,  E. Neuscamman,  C. M. Oana,  R. Olivares-Amaya,  R. Olson,  
 T. M. Perrine,  B. Peters,  P. A. Pieniazek,  A. Prociuk,  Y. M. Rhee,  
 J. Ritchie,  M. A. Rohrdanz,  E. Rosta,  N. J. Russ,  H. F. Schaefer III,  
 M. W. Schmidt,  N. E. Schultz,  S. Sharma,  N. Shenvi,  C. D. Sherrill,  
 A. C. Simmonett,  A. Sodt,  T. Stein,  D. Stuck,  K. S. Thanthiriwatte,  
 V. Vanovschi,  L. Vogt,  Tao Wang,  A. Warshel,  M. A. Watson,  
 C. F. Williams,  Q. Wu,  X. Xu,  Jun Yang,  W. Zhang,  Yan Zhao

 Please cite Q-Chem as follows:
 Y. Shao et al., Mol. Phys. 113, 184-215 (2015)
 DOI: 10.1080/00268976.2014.952696

 Q-Chem 5.4.0 for Intel X86 EM64T Linux

 Parts of Q-Chem use Armadillo 9.800.1 (Horizon Scraper).
 http://arma.sourceforge.net/

 Q-Chem begins on Thu Feb 22 03:56:25 2024  

 Host: 
0

     Scratch files written to /expanse/lustre/scratch/selhajj/temp_project/qcscratch/28869377/qchem3631332//
 May1621 |scratch|qcdevops|jenkins|workspace|build_RNUM    
 Processing $rem in /cm/shared/apps/spack/cpu/opt/spack/linux-centos8-zen2/gcc-10.2.0/qchem-5.4-akfmr7b3t57bfs6qan3padb2wnb2i7cl/config/preferences:
 Processing $rem in /home/selhajj/.qchemrc:

 Checking the input file for inconsistencies... 
 Q-Chem warning in module libgen/CheckREMs.C, line 172:

 Found a $solvent section, which is only used for PCM and Kirkwood-Onsager solvation models

	...done.

--------------------------------------------------------------
User input:
--------------------------------------------------------------
$molecule
-1 2
C                 -1.8525700000     -3.6688570000      1.3200340000
C                 -0.4588360000     -3.9001430000      1.0672240000
C                  0.3584190000     -2.8964670000      0.5890280000
C                 -0.1365610000     -1.5449930000      0.3112500000
C                 -1.5528400000     -1.3069270000      0.5669800000
C                 -2.3354660000     -2.3185440000      1.0396350000
O                 -2.6882490000     -4.5125710000      1.7561980000
O                  0.6048460000     -0.6354300000     -0.1221330000
O                 -3.6644620000     -2.1668040000      1.3006660000
C                 -2.0893130000      0.0701450000      0.2910710000
Br                 0.1659640000     -5.6763570000      1.4381710000
Br                 2.2212690000     -3.1761500000      0.2424130000
H                 -1.5624690000      0.8190660000      0.8916570000
H                 -3.1563330000      0.1224680000      0.5109120000
H                 -1.9238910000      0.3476790000     -0.7550810000
H                 -3.9177630000     -3.0612860000      1.6177270000
$end
$rem
MAX_SCF_CYCLES=200
BASIS  =  6-311++G(d,p)
GUI  =  2
JOB_TYPE  =  SP
METHOD  =  B3LYP
SOLVENT_METHOD = COSMO
$end
$solvent
dielectric 37.219
opticaldielectric 1.43
$end





--------------------------------------------------------------
 ----------------------------------------------------------------
             Standard Nuclear Orientation (Angstroms)
    I     Atom           X                Y                Z
 ----------------------------------------------------------------
    1      C       1.0182697784    -1.4914045390    -0.0000768621
    2      C      -0.1694965535    -0.6857298445    -0.0000863458
    3      C      -0.1000420309     0.6923553239    -0.0000999598
    4      C       1.1751445887     1.4152293604    -0.0001536246
    5      C       2.3841733927     0.5990377585     0.0001274493
    6      C       2.2837298206    -0.7608101158     0.0000425027
    7      O       1.0699999864    -2.7554360745    -0.0001275209
    8      O       1.2375020053     2.6645978183    -0.0003098610
    9      O       3.3700690780    -1.5837679493     0.0000166496
   10      C       3.7073063914     1.3128832517     0.0002972888
   11      Br     -1.8263810037    -1.6540514845     0.0000193765
   12      Br     -1.6677940751     1.7926862579     0.0000582308
   13      H       3.8001460322     1.9576779337    -0.8799137240
   14      H       4.5329901515     0.6003100772     0.0095299100
   15      H       3.7915792246     1.9718922978     0.8706011054
   16      H       2.9563314656    -2.4746149047     0.0001296198
 ----------------------------------------------------------------
 Molecular Point Group                 C1    NOp =  1
 Largest Abelian Subgroup              C1    NOp =  1
 Nuclear Repulsion Energy =        1351.82417728 hartrees
 There are       71 alpha and       70 beta electrons
 Requested basis set is 6-311++G(d,p)
 There are 118 shells and 344 basis functions

 Total QAlloc Memory Limit   8000 MB
 Mega-Array Size       188 MB
 MEM_STATIC part       192 MB
 A cutoff of  1.0D-08 yielded   4919 shell pairs
 There are     44736 function pairs (     48623 Cartesian)
 Smallest overlap matrix eigenvalue = 8.51E-07

 Q-Chem warning in module stvman/mkSTV.C, line 323:

 Overlap eigenvalue is smaller than square root of threshold
 Use THRESH >= 12 to get rid of this warning

 Linear dependence detected in AO basis
 Tighter screening thresholds may be required for diffuse basis sets
 Use S2THRESH > 14 and THRESH = 14 in case of SCF convergence issues
 Number of orthogonalized atomic orbitals = 343
 Maximum deviation from orthogonality = 5.873E-11

 Scale SEOQF with 1.000000e-01/1.000000e-01/1.000000e-01

 Standard Electronic Orientation quadrupole field applied
 Nucleus-field energy     =     0.0000000484 hartrees
 Guess from superposition of atomic densities
 Warning:  Energy on first SCF cycle will be non-variational
 SAD guess density has 140.000000 electrons

 -----------------------------------------------------------------------
  General SCF calculation program by
  Eric Jon Sundstrom, Paul Horn, Yuezhi Mao, Dmitri Zuev, Alec White,
  David Stuck, Shaama M.S., Shane Yost, Joonho Lee, David Small,
  Daniel Levine, Susi Lehtola, Hugh Burton, Evgeny Epifanovsky,
  Bang C. Huynh
 -----------------------------------------------------------------------
 Exchange:     0.2000 Hartree-Fock + 0.0800 Slater + 0.7200 B88
 Correlation:  0.1900 VWN1RPA + 0.8100 LYP
 Using SG-1 standard quadrature grid
 using 8 threads for integral computing
 -------------------------------------------------------
 OpenMP Integral computing Module                
 Release: version 1.0, May 2013, Q-Chem Inc. Pittsburgh 
 -------------------------------------------------------
 A unrestricted SCF calculation will be
 performed using DIIS
 SCF converges when DIIS error is below 1.0e-05
 ---------------------------------------
  Cycle       Energy         DIIS error
 ---------------------------------------
    1   -5645.5860968767      1.67e-02  
    2   -5643.0654049935      2.28e-03  
    3   -5642.2166413723      4.67e-03  
    4   -5643.2435079571      1.16e-03  
    5   -5643.3108837399      4.09e-04  
    6   -5643.3174955406      2.23e-04  
    7   -5643.3197039800      8.01e-05  
    8   -5643.3200854612      2.96e-05  
    9   -5643.3201325581      1.32e-05  
   10   -5643.3201488561      7.66e-06  Convergence criterion met
 ---------------------------------------
 SCF time:   CPU 149.09s  wall 19.00s 
<S^2> =          0.760095329
 SCF   energy in the final basis set =    -5643.3201488561
 Total energy in the final basis set =    -5643.3201488561
 Exchange:     0.2000 Hartree-Fock + 0.0800 Slater + 0.7200 B88
 Correlation:  0.1900 VWN1RPA + 0.8100 LYP
 Using SG-1 standard quadrature grid
 in get_qchem_info
 IBasis=      401111
 IBasis=      401111
 USING 1082 GRID
 MICHARGE=          -1
 Set epsilon to    37.2190017700195     
==== cosmo data ====
outfile: 109-rad-COSMO.out.cosmo.0
phsran:    0.00000D+00
ampran:    0.10000D-04
volume:   1430.0302993
area:    724.0743604
routf:      0.8500000
rsolv [a.u]:      2.4566438
disex:     10.0000000
disex2:   5064.3444237
fepsi:      0.9731320
eps :    37.2190018
lcavity:     1
nppa:  1082
nspa:    92
nsph:    32
maxnps:  1232
natoms:    16
Atom   Radius [a.u.] nuc. charge
    1      3.7794520    6
    2      3.7794520    6
    3      3.7794520    6
    4      3.7794520    6
    5      3.7794520    6
    6      3.7794520    6
    7      3.2503287    8
    8      3.2503287    8
    9      3.2503287    8
   10      3.7794520    6
   11      4.0818081   35
   12      4.0818081   35
   13      2.4566438    1
   14      2.4566438    1
   15      2.4566438    1
   16      2.4566438    1
=== end cosmo data ===
 number of segments:          685
 f_epsilon=  0.973132003749614     
Ediel:   -0.0750484
 A unrestricted SCF calculation will be
 performed using Roothaan-Hall, DIIS
 SCF converges when DIIS error is below 1.0e-05
 ---------------------------------------
  Cycle       Energy         DIIS error
 ---------------------------------------
 number of segments:          685
 f_epsilon=  0.973132003749614     
Ediel:   -0.0818889
    1   -5643.3952021841      1.22e-04  Roothaan Step
 ---------------------------------------
  Cycle       Energy         DIIS error
 ---------------------------------------
 number of segments:          685
 f_epsilon=  0.973132003749614     
Ediel:   -0.0788658
    1   -5643.3969941342      1.34e-04  
 number of segments:          685
 f_epsilon=  0.973132003749614     
Ediel:   -0.0807710
    2   -5643.3948843300      2.62e-04  
 number of segments:          685
 f_epsilon=  0.973132003749614     
Ediel:   -0.0809390
    3   -5643.3978706472      2.33e-05  
 number of segments:          685
 f_epsilon=  0.973132003749614     
Ediel:   -0.0809660
    4   -5643.3978989984      1.00e-05  
    5   -5643.3979033188      3.68e-06  Convergence criterion met
 ---------------------------------------
 SCF time:   CPU 117.87s  wall 15.00s 
<S^2> =          0.759100559
before final oc correction, ETot:     -5643.3979033188
 number of outlayer segments:          342
SCF energy after oc correction:     -5643.4032204093
 SCF   energy in the final basis set =    -5643.4032204093
 Total energy in the final basis set =    -5643.3979033188
 
 --------------------------------------------------------------
 
                    Orbital Energies (a.u.)
 --------------------------------------------------------------
 
 Alpha MOs
 -- Occupied --
********-482.8318 -62.4861 -62.4846 -56.3065 -56.3050 -56.3028 -56.3024
-56.3014 -56.3009 -19.1514 -19.1042 -19.0925 -10.2454 -10.2443 -10.2343
-10.2341 -10.2333 -10.1766 -10.1591  -8.6948  -8.6933  -6.5262  -6.5246
 -6.5137  -6.5127  -6.5124  -6.5112  -2.6370  -2.6355  -2.6338  -2.6330
 -2.6324  -2.6315  -2.6230  -2.6229  -2.6216  -2.6215  -1.0743  -1.0216
 -1.0170  -0.8662  -0.8092  -0.7973  -0.7462  -0.6953  -0.6700  -0.5981
 -0.5787  -0.5411  -0.5006  -0.4574  -0.4535  -0.4396  -0.4197  -0.4122
 -0.4097  -0.4030  -0.3963  -0.3728  -0.3712  -0.3605  -0.3407  -0.3083
 -0.3080  -0.2845  -0.2760  -0.2742  -0.2562  -0.2324  -0.1770
 -- Virtual --
 -0.0368  -0.0110  -0.0014   0.0097   0.0152   0.0181   0.0197   0.0386
  0.0431   0.0487   0.0526   0.0554   0.0656   0.0689   0.0776   0.0881
  0.0885   0.0898   0.1017   0.1045   0.1076   0.1139   0.1213   0.1242
  0.1303   0.1324   0.1489   0.1537   0.1541   0.1613   0.1639   0.1692
  0.1722   0.1785   0.1937   0.1951   0.1988   0.2082   0.2127   0.2137
  0.2199   0.2283   0.2315   0.2429   0.2461   0.2550   0.2577   0.2604
  0.2651   0.2750   0.2969   0.2978   0.3049   0.3099   0.3172   0.3200
  0.3276   0.3337   0.3477   0.3577   0.3705   0.3759   0.3811   0.4016
  0.4106   0.4159   0.4286   0.4324   0.4427   0.4484   0.4521   0.4529
  0.4723   0.4955   0.5025   0.5219   0.5252   0.5291   0.5557   0.5717
  0.5736   0.5751   0.5807   0.6027   0.6044   0.6110   0.6256   0.6358
  0.6389   0.6618   0.6669   0.6715   0.6765   0.6771   0.6839   0.7019
  0.7184   0.7274   0.7357   0.7745   0.7895   0.7932   0.8396   0.8504
  0.8518   0.8636   0.8880   0.8967   0.9011   0.9426   0.9556   0.9687
  0.9792   1.0030   1.0159   1.0183   1.0483   1.0675   1.0759   1.0986
  1.1222   1.1277   1.1731   1.1818   1.1947   1.2142   1.2226   1.2452
  1.2507   1.2563   1.2652   1.2692   1.2776   1.2931   1.3292   1.3747
  1.4146   1.4449   1.4711   1.4730   1.5069   1.5598   1.5769   1.5827
  1.6147   1.6595   1.6618   1.7048   1.7090   1.7196   1.7548   1.7819
  1.7960   1.7997   1.8087   1.8224   1.8494   1.8736   1.8981   1.9039
  1.9393   1.9645   2.0054   2.0603   2.0650   2.0860   2.1189   2.1356
  2.1532   2.1728   2.1962   2.1991   2.2420   2.2752   2.3100   2.3228
  2.3279   2.3822   2.3998   2.4386   2.5107   2.5484   2.5598   2.5660
  2.5979   2.6729   2.6926   2.7030   2.7518   2.7795   2.8107   2.8309
  2.8498   2.9028   2.9415   2.9600   2.9950   3.0199   3.0603   3.0720
  3.0772   3.1048   3.1074   3.1609   3.1793   3.1963   3.2477   3.3117
  3.3380   3.3806   3.4277   3.4969   3.5273   3.5662   3.6042   3.7588
  3.7931   3.8118   3.8616   3.9088   4.0102   4.0138   4.0139   4.0684
  4.0824   4.0875   4.1223   4.1736   4.2193   4.2278   4.3083   4.3262
  4.3945   4.4792   4.8021   4.9879   5.0644   5.0899   5.2450   5.2861
  5.4863   5.6508   5.7651   5.7943   6.7320   6.8289   7.5579   7.5918
  7.6751   7.7027   7.7451   7.8117  23.4851  23.7466  23.8881  23.9256
 23.9792  24.0261  24.1408  47.9937  48.0746  49.9282  50.0228  50.0634
289.7552 289.7909 289.8731 289.9071 289.9622 290.03481020.80351020.9034
 
 Beta MOs
 -- Occupied --
********-482.8318 -62.4860 -62.4845 -56.3066 -56.3050 -56.3027 -56.3024
-56.3012 -56.3009 -19.1511 -19.0977 -19.0866 -10.2432 -10.2431 -10.2337
-10.2333 -10.2305 -10.1764 -10.1592  -8.6948  -8.6933  -6.5262  -6.5247
 -6.5136  -6.5127  -6.5122  -6.5112  -2.6370  -2.6355  -2.6338  -2.6330
 -2.6323  -2.6315  -2.6229  -2.6228  -2.6215  -2.6214  -1.0721  -1.0113
 -1.0068  -0.8611  -0.8075  -0.7954  -0.7438  -0.6896  -0.6643  -0.5947
 -0.5751  -0.5378  -0.4987  -0.4537  -0.4416  -0.4346  -0.4164  -0.4077
 -0.4017  -0.4011  -0.3846  -0.3712  -0.3589  -0.3572  -0.3243  -0.3076
 -0.3037  -0.2829  -0.2710  -0.2543  -0.2510  -0.2264
 -- Virtual --
 -0.1064  -0.0352  -0.0010   0.0038   0.0113   0.0183   0.0202   0.0385
  0.0406   0.0433   0.0493   0.0532   0.0557   0.0656   0.0697   0.0777
  0.0886   0.0894   0.0901   0.1021   0.1055   0.1080   0.1141   0.1238
  0.1247   0.1305   0.1346   0.1491   0.1540   0.1592   0.1621   0.1670
  0.1696   0.1749   0.1792   0.1937   0.1969   0.1991   0.2086   0.2144
  0.2147   0.2201   0.2295   0.2321   0.2448   0.2477   0.2560   0.2584
  0.2615   0.2679   0.2753   0.2979   0.2995   0.3089   0.3110   0.3180
  0.3210   0.3287   0.3367   0.3488   0.3598   0.3716   0.3768   0.3820
  0.4043   0.4122   0.4168   0.4289   0.4340   0.4447   0.4497   0.4540
  0.4545   0.4730   0.4970   0.5036   0.5246   0.5266   0.5354   0.5561
  0.5723   0.5751   0.5775   0.5825   0.6049   0.6095   0.6118   0.6267
  0.6373   0.6428   0.6632   0.6678   0.6741   0.6775   0.6800   0.6878
  0.7028   0.7197   0.7279   0.7361   0.7751   0.7905   0.7946   0.8414
  0.8516   0.8556   0.8688   0.8896   0.8973   0.9034   0.9439   0.9572
  0.9766   0.9812   1.0046   1.0179   1.0210   1.0496   1.0681   1.0845
  1.1000   1.1304   1.1331   1.1743   1.1919   1.2050   1.2165   1.2259
  1.2508   1.2524   1.2577   1.2713   1.2789   1.2794   1.2961   1.3312
  1.3767   1.4161   1.4492   1.4714   1.4743   1.5085   1.5606   1.5779
  1.5838   1.6161   1.6621   1.6651   1.7120   1.7132   1.7220   1.7575
  1.7859   1.8003   1.8061   1.8108   1.8294   1.8531   1.8780   1.9044
  1.9061   1.9409   1.9673   2.0061   2.0621   2.0668   2.0868   2.1214
  2.1379   2.1546   2.1745   2.1995   2.2053   2.2437   2.2756   2.3118
  2.3243   2.3291   2.3837   2.4045   2.4403   2.5113   2.5493   2.5617
  2.5669   2.6071   2.6753   2.6933   2.7113   2.7604   2.7808   2.8218
  2.8369   2.8601   2.9201   2.9533   2.9730   2.9971   3.0226   3.0680
  3.0759   3.0849   3.1077   3.1087   3.1640   3.1809   3.2007   3.2496
  3.3278   3.3537   3.3828   3.4294   3.4996   3.5326   3.5693   3.6066
  3.7642   3.7933   3.8140   3.8625   3.9099   4.0104   4.0142   4.0173
  4.0686   4.0828   4.0883   4.1226   4.1758   4.2227   4.2280   4.3087
  4.3270   4.3948   4.4796   4.8075   4.9950   5.0881   5.1121   5.2499
  5.2912   5.4870   5.6542   5.7677   5.7994   6.7321   6.8291   7.5583
  7.5922   7.6751   7.7028   7.7451   7.8117  23.4869  23.7477  23.8900
 23.9279  23.9793  24.0279  24.1413  47.9937  48.0747  49.9296  50.0283
 50.0693 289.7553 289.7910 289.8731 289.9071 289.9622 290.03471020.8035
********
 --------------------------------------------------------------
 
          Ground-State Mulliken Net Atomic Charges

     Atom                 Charge (a.u.)    Spin (a.u.)
  --------------------------------------------------------
      1 C                    -0.684735       0.137620
      2 C                     0.940570       0.052686
      3 C                    -0.093198       0.185050
      4 C                    -0.714388       0.070841
      5 C                     2.050041       0.025517
      6 C                    -1.664616       0.040179
      7 O                    -0.468410       0.232298
      8 O                    -0.426351       0.217846
      9 O                    -0.306363       0.012530
     10 C                    -0.137861       0.005823
     11 Br                   -0.159949       0.006056
     12 Br                   -0.188479       0.013931
     13 H                     0.178312       0.001317
     14 H                     0.187026      -0.000160
     15 H                     0.177461       0.001286
     16 H                     0.310941      -0.002818
  --------------------------------------------------------
  Sum of atomic charges =    -1.000000
  Sum of spin   charges =     1.000000

 -----------------------------------------------------------------
                    Cartesian Multipole Moments
 -----------------------------------------------------------------
    Charge (ESU x 10^10)
                -4.8032
    Dipole Moment (Debye)
         X      -2.9441      Y      -0.5975      Z      -0.0000
       Tot       3.0041
    Quadrupole Moments (Debye-Ang)
        XX    -108.2985     XY      -0.6175     YY    -131.8171
        XZ      -0.0016     YZ       0.0005     ZZ     -97.3908
    Octopole Moments (Debye-Ang^2)
       XXX    -138.5105    XXY       5.7887    XYY     -62.0470
       YYY     -15.5185    XXZ      -0.0062    XYZ      -0.0126
       YYZ       0.0201    XZZ     -32.0712    YZZ       0.3876
       ZZZ      -0.0175
    Hexadecapole Moments (Debye-Ang^3)
      XXXX   -2514.0541   XXXY      30.6402   XXYY    -682.6284
      XYYY     -77.8280   YYYY   -2019.2361   XXXZ      -0.0067
      XXYZ      -0.0812   XYYZ       0.0312   YYYZ       0.0801
      XXZZ    -428.0928   XYZZ      -1.9815   YYZZ    -309.0335
      XZZZ      -0.0807   YZZZ      -0.0255   ZZZZ    -119.9425
 -----------------------------------------------------------------
 Total job time:  36.99s(wall), 274.58s(cpu) 
 Thu Feb 22 03:57:02 2024

        *************************************************************
        *                                                           *
        *  Thank you very much for using Q-Chem.  Have a nice day.  *
        *                                                           *
        *************************************************************


