 Entering Gaussian System, Link 0=g16
 Input=022-an-PCM.com
 Output=022-an-PCM.log
 Initial command:
 /sysapps/ubuntu-applications/gaussian/Gaussian/AVX2/g16/l1.exe "/scratch/selhajj1/4304355/Gau-3430679.inp" -scrdir="/scratch/selhajj1/4304355/"
 Entering Link 1 = /sysapps/ubuntu-applications/gaussian/Gaussian/AVX2/g16/l1.exe PID=   3430682.
  
 Copyright (c) 1988,1990,1992,1993,1995,1998,2003,2009,2016,
            Gaussian, Inc.  All Rights Reserved.
  
 This is part of the Gaussian(R) 16 program.  It is based on
 the Gaussian(R) 09 system (copyright 2009, Gaussian, Inc.),
 the Gaussian(R) 03 system (copyright 2003, Gaussian, Inc.),
 the Gaussian(R) 98 system (copyright 1998, Gaussian, Inc.),
 the Gaussian(R) 94 system (copyright 1995, Gaussian, Inc.),
 the Gaussian 92(TM) system (copyright 1992, Gaussian, Inc.),
 the Gaussian 90(TM) system (copyright 1990, Gaussian, Inc.),
 the Gaussian 88(TM) system (copyright 1988, Gaussian, Inc.),
 the Gaussian 86(TM) system (copyright 1986, Carnegie Mellon
 University), and the Gaussian 82(TM) system (copyright 1983,
 Carnegie Mellon University). Gaussian is a federally registered
 trademark of Gaussian, Inc.
  
 This software contains proprietary and confidential information,
 including trade secrets, belonging to Gaussian, Inc.
  
 This software is provided under written license and may be
 used, copied, transmitted, or stored only in accord with that
 written license.
  
 The following legend is applicable only to US Government
 contracts under FAR:
  
                    RESTRICTED RIGHTS LEGEND
  
 Use, reproduction and disclosure by the US Government is
 subject to restrictions as set forth in subparagraphs (a)
 and (c) of the Commercial Computer Software - Restricted
 Rights clause in FAR 52.227-19.
  
 Gaussian, Inc.
 340 Quinnipiac St., Bldg. 40, Wallingford CT 06492
  
  
 ---------------------------------------------------------------
 Warning -- This program may not be used in any manner that
 competes with the business of Gaussian, Inc. or will provide
 assistance to any competitor of Gaussian, Inc.  The licensee
 of this program is prohibited from giving any competitor of
 Gaussian, Inc. access to this program.  By using this program,
 the user acknowledges that Gaussian, Inc. is engaged in the
 business of creating and licensing software in the field of
 computational chemistry and represents and warrants to the
 licensee that it is not a competitor of Gaussian, Inc. and that
 it will not use this program in any manner prohibited above.
 ---------------------------------------------------------------
  

 Cite this work as:
 Gaussian 16, Revision A.03,
 M. J. Frisch, G. W. Trucks, H. B. Schlegel, G. E. Scuseria, 
 M. A. Robb, J. R. Cheeseman, G. Scalmani, V. Barone, 
 G. A. Petersson, H. Nakatsuji, X. Li, M. Caricato, A. V. Marenich, 
 J. Bloino, B. G. Janesko, R. Gomperts, B. Mennucci, H. P. Hratchian, 
 J. V. Ortiz, A. F. Izmaylov, J. L. Sonnenberg, D. Williams-Young, 
 F. Ding, F. Lipparini, F. Egidi, J. Goings, B. Peng, A. Petrone, 
 T. Henderson, D. Ranasinghe, V. G. Zakrzewski, J. Gao, N. Rega, 
 G. Zheng, W. Liang, M. Hada, M. Ehara, K. Toyota, R. Fukuda, 
 J. Hasegawa, M. Ishida, T. Nakajima, Y. Honda, O. Kitao, H. Nakai, 
 T. Vreven, K. Throssell, J. A. Montgomery, Jr., J. E. Peralta, 
 F. Ogliaro, M. J. Bearpark, J. J. Heyd, E. N. Brothers, K. N. Kudin, 
 V. N. Staroverov, T. A. Keith, R. Kobayashi, J. Normand, 
 K. Raghavachari, A. P. Rendell, J. C. Burant, S. S. Iyengar, 
 J. Tomasi, M. Cossi, J. M. Millam, M. Klene, C. Adamo, R. Cammi, 
 J. W. Ochterski, R. L. Martin, K. Morokuma, O. Farkas, 
 J. B. Foresman, and D. J. Fox, Gaussian, Inc., Wallingford CT, 2016.
 
 ******************************************
 Gaussian 16:  ES64L-G16RevA.03 25-Dec-2016
                21-Jan-2024 
 ******************************************
 %chk=022-an-PCM.chk
 %nproc=8
 Will use up to    8 processors via shared memory.
 %mem=30GB
 ----------------------------------------------------------------
 #P UB3LYP/6-311++G(d,p) SCRF=(PCM,Solvent=n,n-DiMethylFormamide)
 ----------------------------------------------------------------
 1/38=1,172=1/1;
 2/12=2,17=6,18=5,40=1/2;
 3/5=4,6=6,7=1111,11=2,25=1,30=1,70=2201,72=148,74=-5,116=2/1,2,3;
 4//1;
 5/5=2,38=5,53=148/2;
 6/7=2,8=2,9=2,10=2,28=1/1;
 99/5=1,9=1/99;
 Leave Link    1 at Sun Jan 21 07:35:50 2024, MaxMem=  4026531840 cpu:               0.7 elap:               0.2
 (Enter /sysapps/ubuntu-applications/gaussian/Gaussian/AVX2/g16/l101.exe)
 -------
 Reduced
 -------
 Symbolic Z-matrix:
 Charge = -2 Multiplicity = 1
 C                    -3.48741   0.17559   0.37457 
 O                    -2.68313   0.63852  -0.699 
 C                    -1.33799   0.28743  -0.58511 
 C                    -0.38028   1.308    -0.52233 
 Cl                   -0.95528   3.00841  -0.51285 
 C                     1.03624   1.11831  -0.48583 
 O                     1.91795   2.06101  -0.45901 
 C                     1.38282  -0.27793  -0.46867 
 C                     0.4242   -1.29871  -0.5108 
 Cl                    0.99751  -2.99946  -0.48221 
 C                    -0.99007  -1.10856  -0.5975 
 O                    -1.86982  -2.05084  -0.66765 
 O                     2.73309  -0.62786  -0.46809 
 C                     3.43725  -0.18622   0.68205 
 H                    -3.20288   0.6723    1.31679 
 H                    -4.52231   0.44793   0.13148 
 H                    -3.39323  -0.91055   0.47387 
 H                     3.33291   0.8978    0.79367 
 H                     3.07023  -0.70129   1.58511 
 H                     4.4902   -0.4539    0.52742 
 
 ITRead=  0  0  0  0  0  0  0  0  0  0  0  0  0  0  0  0  0  0  0  0
 MicOpt= -1 -1 -1 -1 -1 -1 -1 -1 -1 -1 -1 -1 -1 -1 -1 -1 -1 -1 -1 -1
 NAtoms=     20 NQM=       20 NQMF=       0 NMMI=      0 NMMIF=      0
                NMic=       0 NMicF=      0.
                    Isotopes and Nuclear Properties:
 (Nuclear quadrupole moments (NQMom) in fm**2, nuclear magnetic moments (NMagM)
  in nuclear magnetons)

  Atom         1           2           3           4           5           6           7           8           9          10
 IAtWgt=          12          16          12          12          35          12          16          12          12          35
 AtmWgt=  12.0000000  15.9949146  12.0000000  12.0000000  34.9688527  12.0000000  15.9949146  12.0000000  12.0000000  34.9688527
 NucSpn=           0           0           0           0           3           0           0           0           0           3
 AtZEff=  -0.0000000  -0.0000000  -0.0000000  -0.0000000  -0.0000000  -0.0000000  -0.0000000  -0.0000000  -0.0000000  -0.0000000
 NQMom=    0.0000000   0.0000000   0.0000000   0.0000000  -8.1650000   0.0000000   0.0000000   0.0000000   0.0000000  -8.1650000
 NMagM=    0.0000000   0.0000000   0.0000000   0.0000000   0.8218740   0.0000000   0.0000000   0.0000000   0.0000000   0.8218740
 AtZNuc=   6.0000000   8.0000000   6.0000000   6.0000000  17.0000000   6.0000000   8.0000000   6.0000000   6.0000000  17.0000000

  Atom        11          12          13          14          15          16          17          18          19          20
 IAtWgt=          12          16          16          12           1           1           1           1           1           1
 AtmWgt=  12.0000000  15.9949146  15.9949146  12.0000000   1.0078250   1.0078250   1.0078250   1.0078250   1.0078250   1.0078250
 NucSpn=           0           0           0           0           1           1           1           1           1           1
 AtZEff=  -0.0000000  -0.0000000  -0.0000000  -0.0000000  -0.0000000  -0.0000000  -0.0000000  -0.0000000  -0.0000000  -0.0000000
 NQMom=    0.0000000   0.0000000   0.0000000   0.0000000   0.0000000   0.0000000   0.0000000   0.0000000   0.0000000   0.0000000
 NMagM=    0.0000000   0.0000000   0.0000000   0.0000000   2.7928460   2.7928460   2.7928460   2.7928460   2.7928460   2.7928460
 AtZNuc=   6.0000000   8.0000000   8.0000000   6.0000000   1.0000000   1.0000000   1.0000000   1.0000000   1.0000000   1.0000000
 Leave Link  101 at Sun Jan 21 07:35:51 2024, MaxMem=  4026531840 cpu:               1.7 elap:               0.3
 (Enter /sysapps/ubuntu-applications/gaussian/Gaussian/AVX2/g16/l202.exe)
                          Input orientation:                          
 ---------------------------------------------------------------------
 Center     Atomic      Atomic             Coordinates (Angstroms)
 Number     Number       Type             X           Y           Z
 ---------------------------------------------------------------------
      1          6           0       -3.487409    0.175594    0.374565
      2          8           0       -2.683129    0.638517   -0.698995
      3          6           0       -1.337986    0.287433   -0.585113
      4          6           0       -0.380275    1.307995   -0.522325
      5         17           0       -0.955276    3.008414   -0.512849
      6          6           0        1.036242    1.118315   -0.485829
      7          8           0        1.917952    2.061007   -0.459009
      8          6           0        1.382824   -0.277932   -0.468668
      9          6           0        0.424196   -1.298705   -0.510801
     10         17           0        0.997514   -2.999463   -0.482208
     11          6           0       -0.990073   -1.108559   -0.597504
     12          8           0       -1.869821   -2.050835   -0.667650
     13          8           0        2.733087   -0.627860   -0.468087
     14          6           0        3.437245   -0.186224    0.682049
     15          1           0       -3.202877    0.672302    1.316792
     16          1           0       -4.522312    0.447933    0.131481
     17          1           0       -3.393233   -0.910546    0.473866
     18          1           0        3.332907    0.897802    0.793665
     19          1           0        3.070228   -0.701286    1.585106
     20          1           0        4.490196   -0.453902    0.527421
 ---------------------------------------------------------------------
                    Distance matrix (angstroms):
                    1          2          3          4          5
     1  C    0.000000
     2  O    1.419047   0.000000
     3  C    2.356588   1.394862   0.000000
     4  C    3.426518   2.404693   1.400964   0.000000
     5  Cl   3.901803   2.938799   2.748714   1.795032   0.000000
     6  C    4.700257   3.756244   2.517376   1.429626   2.745787
     7  O    5.785115   4.821931   3.709798   2.419273   3.025875
     8  C    4.963456   4.174315   2.781367   2.372037   4.033452
     9  C    4.272948   3.666567   2.372054   2.728038   4.522634
    10  Cl   5.561437   5.179675   4.033464   4.522622   6.317350
    11  C    2.971642   2.434957   1.438746   2.493439   4.117990
    12  O    2.942752   2.809816   2.399408   3.677174   5.143574
    13  O    6.328520   5.567084   4.174337   3.666538   5.179625
    14  C    6.940914   6.328227   4.963152   4.272782   5.561271
    15  H    1.102483   2.081989   2.691317   3.428343   3.722461
    16  H    1.097398   2.026970   3.267904   4.280612   4.437902
    17  H    1.094728   2.068682   2.603964   3.871981   4.719692
    18  H    6.871240   6.203866   4.908240   3.960784   4.954813
    19  H    6.725841   6.333507   5.011962   4.514914   5.862420
    20  H    8.003862   7.358945   5.979550   5.284670   6.536280
                    6          7          8          9         10
     6  C    0.000000
     7  O    1.291046   0.000000
     8  C    1.438721   2.399394   0.000000
     9  C    2.493433   3.677180   1.400971   0.000000
    10  Cl   4.117962   5.143549   2.748705   1.795018   0.000000
    11  C    3.012871   4.303712   2.517376   1.429626   2.745781
    12  O    4.303693   5.594462   3.709781   2.419259   3.025871
    13  O    2.434897   2.809721   1.394869   2.404753   2.938863
    14  C    2.971629   2.942841   2.356524   3.426218   3.901550
    15  H    4.628013   5.595075   5.011932   4.514490   5.861872
    16  H    5.632762   6.665410   5.979773   5.284999   6.536791
    17  H    4.965636   6.157034   4.909103   3.961439   4.955432
    18  H    2.638257   2.219084   2.603586   3.871288   4.719172
    19  H    3.425904   3.624418   2.691570   3.428005   3.721767
    20  H    3.927893   3.730181   3.267862   4.280649   4.438250
                   11         12         13         14         15
    11  C    0.000000
    12  O    1.291031   0.000000
    13  O    3.756293   4.821975   0.000000
    14  C    4.699905   5.784757   1.419047   0.000000
    15  H    3.425273   3.623606   6.333394   6.725413   0.000000
    16  H    3.928206   3.730705   7.359187   8.003738   1.787795
    17  H    2.638602   2.219032   6.204755   6.871929   1.803377
    18  H    4.964775   6.156158   2.068682   1.094741   6.560563
    19  H    4.627710   5.594665   2.081984   1.102498   6.427331
    20  H    5.632706   6.665449   2.027000   1.097391   7.815038
                   16         17         18         19         20
    16  H    0.000000
    17  H    1.799309   0.000000
    18  H    7.895906   6.972328   0.000000
    19  H    7.815395   6.561629   1.803458   0.000000
    20  H    9.066167   7.896825   1.799252   1.787793   0.000000
 Stoichiometry    C8H6Cl2O4(2-)
 Framework group  C1[X(C8H6Cl2O4)]
 Deg. of freedom    54
 Full point group                 C1      NOp   1
 Largest Abelian subgroup         C1      NOp   1
 Largest concise Abelian subgroup C1      NOp   1
                         Standard orientation:                         
 ---------------------------------------------------------------------
 Center     Atomic      Atomic             Coordinates (Angstroms)
 Number     Number       Type             X           Y           Z
 ---------------------------------------------------------------------
      1          6           0        2.933790    1.854187    0.888408
      2          8           0        2.578464    1.048568   -0.224434
      3          6           0        1.274834    0.555658   -0.167621
      4          6           0        1.081039   -0.831800   -0.157449
      5         17           0        2.531884   -1.888599   -0.138286
      6          6           0       -0.185187   -1.495023   -0.182664
      7          8           0       -0.360837   -2.773882   -0.204281
      8          6           0       -1.274851   -0.555697   -0.167858
      9          6           0       -1.081074    0.831768   -0.157354
     10         17           0       -2.531926    1.888536   -0.138409
     11          6           0        0.185151    1.495001   -0.182398
     12          8           0        0.360789    2.773844   -0.204153
     13          8           0       -2.578464   -1.048698   -0.224468
     14          6           0       -2.933621   -1.853883    0.888741
     15          1           0        2.959226    1.253006    1.812206
     16          1           0        3.942880    2.236816    0.689373
     17          1           0        2.226575    2.683163    0.993646
     18          1           0       -2.225902   -2.682357    0.994673
     19          1           0       -2.959804   -1.252124    1.812160
     20          1           0       -3.942363   -2.237367    0.689629
 ---------------------------------------------------------------------
 Rotational constants (GHZ):           0.6774887           0.4856511           0.2942915
 Leave Link  202 at Sun Jan 21 07:35:51 2024, MaxMem=  4026531840 cpu:               0.3 elap:               0.1
 (Enter /sysapps/ubuntu-applications/gaussian/Gaussian/AVX2/g16/l301.exe)
 Standard basis: 6-311++G(d,p) (5D, 7F)
 Ernie: Thresh=  0.10000D-02 Tol=  0.10000D-05 Strict=F.
 There are   380 symmetry adapted cartesian basis functions of A   symmetry.
 There are   366 symmetry adapted basis functions of A   symmetry.
   366 basis functions,   592 primitive gaussians,   380 cartesian basis functions
    61 alpha electrons       61 beta electrons
       nuclear repulsion energy      1115.2050806708 Hartrees.
 IExCor=  402 DFT=T Ex+Corr=B3LYP ExCW=0 ScaHFX=  0.200000
 ScaDFX=  0.800000  0.720000  1.000000  0.810000 ScalE2=  1.000000  1.000000
 IRadAn=      5 IRanWt=     -1 IRanGd=            0 ICorTp=0 IEmpDi=  4
 NAtoms=   20 NActive=   20 NUniq=   20 SFac= 1.00D+00 NAtFMM=   60 NAOKFM=F Big=F
 Integral buffers will be    131072 words long.
 Raffenetti 2 integral format.
 Two-electron integral symmetry is turned on.
 ------------------------------------------------------------------------------
 Polarizable Continuum Model (PCM)
 =================================
 Model                : PCM.
 Atomic radii         : UFF (Universal Force Field).
 Polarization charges : Total charges.
 Charge compensation  : None.
 Solution method      : On-the-fly selection.
 Cavity type          : Scaled VdW (van der Waals Surface) (Alpha=1.100).
 Cavity algorithm     : GePol (No added spheres)
                        Default sphere list used, NSphG=   20.
                        Lebedev-Laikov grids with approx.  5.0 points / Ang**2.
                        Smoothing algorithm: York/Karplus (Gamma=1.0000).
                        Polarization charges: spherical gaussians, with
                                              point-specific exponents (IZeta= 3).
                        Self-potential: point-specific (ISelfS= 7).
                        Self-field    : sphere-specific E.n sum rule (ISelfD= 2).
 Solvent              : n,n-DiMethylFormamide, Eps=  37.219000 Eps(inf)=   2.046330
 ------------------------------------------------------------------------------
 Spheres list:
 ISph  on   Nord     Re0    Alpha      Xe            Ye            Ze
    1   C      1    1.9255  1.100      2.933790      1.854187      0.888408
    2   O      2    1.7500  1.100      2.578464      1.048568     -0.224434
    3   C      3    1.9255  1.100      1.274834      0.555658     -0.167621
    4   C      4    1.9255  1.100      1.081039     -0.831800     -0.157449
    5  Cl      5    1.9735  1.100      2.531884     -1.888599     -0.138286
    6   C      6    1.9255  1.100     -0.185187     -1.495023     -0.182664
    7   O      7    1.7500  1.100     -0.360837     -2.773882     -0.204281
    8   C      8    1.9255  1.100     -1.274851     -0.555697     -0.167858
    9   C      9    1.9255  1.100     -1.081074      0.831768     -0.157354
   10  Cl     10    1.9735  1.100     -2.531926      1.888536     -0.138409
   11   C     11    1.9255  1.100      0.185151      1.495001     -0.182398
   12   O     12    1.7500  1.100      0.360789      2.773844     -0.204153
   13   O     13    1.7500  1.100     -2.578464     -1.048698     -0.224468
   14   C     14    1.9255  1.100     -2.933621     -1.853883      0.888741
   15   H     15    1.4430  1.100      2.959226      1.253006      1.812206
   16   H     16    1.4430  1.100      3.942880      2.236816      0.689373
   17   H     17    1.4430  1.100      2.226575      2.683163      0.993646
   18   H     18    1.4430  1.100     -2.225902     -2.682357      0.994673
   19   H     19    1.4430  1.100     -2.959804     -1.252124      1.812160
   20   H     20    1.4430  1.100     -3.942363     -2.237367      0.689629
 ------------------------------------------------------------------------------
 GePol: Number of generator spheres                  =      20
 GePol: Total number of spheres                      =      20
 GePol: Number of exposed spheres                    =      20 (100.00%)
 GePol: Number of points                             =    1862
 GePol: Average weight of points                     =       0.14
 GePol: Minimum weight of points                     =   0.13D-09
 GePol: Maximum weight of points                     =    0.21616
 GePol: Number of points with low weight             =      94
 GePol: Fraction of low-weight points (<1% of avg)   =       5.05%
 GePol: Cavity surface area                          =    258.473 Ang**2
 GePol: Cavity volume                                =    269.541 Ang**3
 Leave Link  301 at Sun Jan 21 07:35:51 2024, MaxMem=  4026531840 cpu:               0.9 elap:               0.2
 (Enter /sysapps/ubuntu-applications/gaussian/Gaussian/AVX2/g16/l302.exe)
 NPDir=0 NMtPBC=     1 NCelOv=     1 NCel=       1 NClECP=     1 NCelD=      1
         NCelK=      1 NCelE2=     1 NClLst=     1 CellRange=     0.0.
 One-electron integrals computed using PRISM.
 One-electron integral symmetry used in STVInt
 NBasis=   366 RedAO= T EigKep=  1.43D-06  NBF=   366
 NBsUse=   365 1.00D-06 EigRej=  8.66D-07 NBFU=   365
 Precomputing XC quadrature grid using
 IXCGrd= 4 IRadAn=           5 IRanWt=          -1 IRanGd=           0 AccXCQ= 0.00D+00.
 Generated NRdTot=       0 NPtTot=           0 NUsed=           0 NTot=          32
 NSgBfM=   377   377   377   377   377 MxSgAt=    20 MxSgA2=    20.
 Leave Link  302 at Sun Jan 21 07:35:52 2024, MaxMem=  4026531840 cpu:               4.0 elap:               0.7
 (Enter /sysapps/ubuntu-applications/gaussian/Gaussian/AVX2/g16/l303.exe)
 DipDrv:  MaxL=1.
 Leave Link  303 at Sun Jan 21 07:35:52 2024, MaxMem=  4026531840 cpu:               0.8 elap:               0.2
 (Enter /sysapps/ubuntu-applications/gaussian/Gaussian/AVX2/g16/l401.exe)
 ExpMin= 3.60D-02 ExpMax= 1.06D+05 ExpMxC= 3.62D+03 IAcc=3 IRadAn=         5 AccDes= 0.00D+00
 Harris functional with IExCor=  402 and IRadAn=       5 diagonalized for initial guess.
 HarFok:  IExCor=  402 AccDes= 0.00D+00 IRadAn=         5 IDoV= 1 UseB2=F ITyADJ=14
 ICtDFT=  3500011 ScaDFX=  1.000000  1.000000  1.000000  1.000000
 FoFCou: FMM=F IPFlag=           0 FMFlag=      100000 FMFlg1=           0
         NFxFlg=           0 DoJE=T BraDBF=F KetDBF=T FulRan=T
         wScrn=  0.000000 ICntrl=       500 IOpCl=  0 I1Cent=   200000004 NGrid=           0
         NMat0=    1 NMatS0=      1 NMatT0=    0 NMatD0=    1 NMtDS0=    0 NMtDT0=    0
 Petite list used in FoFCou.
 Harris En= -1530.22113640743    
 JPrj=0 DoOrth=F DoCkMO=F.
 Initial guess <Sx>= 0.0000 <Sy>= 0.0000 <Sz>= 0.0000 <S**2>=-0.0000 S=-0.0000
 Leave Link  401 at Sun Jan 21 07:35:53 2024, MaxMem=  4026531840 cpu:               9.3 elap:               1.2
 (Enter /sysapps/ubuntu-applications/gaussian/Gaussian/AVX2/g16/l502.exe)
 Integral symmetry usage will be decided dynamically.
 UHF open shell SCF:
 Using DIIS extrapolation, IDIIS=  1040.
 NGot=  4026531840 LenX=  4026236434 LenY=  4026091593
 Requested convergence on RMS density matrix=1.00D-08 within 128 cycles.
 Requested convergence on MAX density matrix=1.00D-06.
 Requested convergence on             energy=1.00D-06.
 No special actions if energy rises.
 Fock matrices will be formed incrementally for  20 cycles.

 Cycle   1  Pass 1  IDiag  1:
 FoFJK:  IHMeth= 1 ICntrl=       0 DoSepK=F KAlg= 0 I1Cent=           0 FoldK=F
 IRaf= 860000000 NMat=       1 IRICut=       1 DoRegI=T DoRafI=F ISym2E= 0 IDoP0=0 IntGTp=1.
 FoFCou: FMM=F IPFlag=           0 FMFlag=      100000 FMFlg1=           0
         NFxFlg=           0 DoJE=F BraDBF=F KetDBF=F FulRan=T
         wScrn=  0.000000 ICntrl=         0 IOpCl=  1 I1Cent=           0 NGrid=           0
         NMat0=    1 NMatS0=      1 NMatT0=    0 NMatD0=    1 NMtDS0=    0 NMtDT0=    0
 Symmetry not used in FoFCou.
 Inv3:  Mode=1 IEnd=    10401132.
 Iteration    1 A*A^-1 deviation from unit magnitude is 3.33D-15 for   1266.
 Iteration    1 A*A^-1 deviation from orthogonality  is 1.54D-15 for   1561   1324.
 Iteration    1 A^-1*A deviation from unit magnitude is 3.55D-15 for   1266.
 Iteration    1 A^-1*A deviation from orthogonality  is 3.02D-15 for   1175    723.
 E= -1529.74522358997    
 DIIS: error= 2.67D-02 at cycle   1 NSaved=   1.
 NSaved= 1 IEnMin= 1 EnMin= -1529.74522358997     IErMin= 1 ErrMin= 2.67D-02
 ErrMax= 2.67D-02  0.00D+00 EMaxC= 1.00D-01 BMatC= 2.30D+00 BMatP= 2.30D+00
 IDIUse=3 WtCom= 7.33D-01 WtEn= 2.67D-01
 Coeff-Com:  0.100D+01
 Coeff-En:   0.100D+01
 Coeff:      0.100D+01
 Gap=     0.200 Goal=   None    Shift=    0.000
 Gap=     0.200 Goal=   None    Shift=    0.000
 GapD=    0.200 DampG=1.000 DampE=0.500 DampFc=0.5000 IDamp=-1.
 Damping current iteration by 5.00D-01
 RMSDP=6.79D-01 MaxDP=8.21D+01              OVMax= 9.83D-01

 Cycle   2  Pass 1  IDiag  1:
 RMSU=  3.23D-01    CP:  1.68D+00
 E= -1529.49242908506     Delta-E=        0.252794504906 Rises=F Damp=T
 DIIS: error= 2.31D-02 at cycle   2 NSaved=   2.
 NSaved= 2 IEnMin= 1 EnMin= -1529.74522358997     IErMin= 2 ErrMin= 2.31D-02
 ErrMax= 2.31D-02  0.00D+00 EMaxC= 1.00D-01 BMatC= 9.08D-01 BMatP= 2.30D+00
 IDIUse=3 WtCom= 7.69D-01 WtEn= 2.31D-01
 Coeff-Com:  0.350D+00 0.650D+00
 Coeff-En:   0.654D+00 0.346D+00
 Coeff:      0.420D+00 0.580D+00
 Gap=    -0.018 Goal=   None    Shift=    0.000
 Gap=    -0.018 Goal=   None    Shift=    0.000
 RMSDP=3.35D-01 MaxDP=4.00D+01 DE= 2.53D-01 OVMax= 8.99D-01

 Cycle   3  Pass 1  IDiag  1:
 RMSU=  1.16D-02    CP:  1.06D+00  6.46D-03
 E= -1530.10358486037     Delta-E=       -0.611155775312 Rises=F Damp=F
 DIIS: error= 2.29D-02 at cycle   3 NSaved=   3.
 NSaved= 3 IEnMin= 3 EnMin= -1530.10358486037     IErMin= 3 ErrMin= 2.29D-02
 ErrMax= 2.29D-02  0.00D+00 EMaxC= 1.00D-01 BMatC= 4.10D-01 BMatP= 9.08D-01
 IDIUse=3 WtCom= 7.71D-01 WtEn= 2.29D-01
 Coeff-Com:  0.900D-01 0.393D+00 0.517D+00
 Coeff-En:   0.000D+00 0.000D+00 0.100D+01
 Coeff:      0.694D-01 0.303D+00 0.628D+00
 Gap=     0.129 Goal=   None    Shift=    0.000
 Gap=     0.129 Goal=   None    Shift=    0.000
 RMSDP=1.11D-02 MaxDP=8.15D-01 DE=-6.11D-01 OVMax= 1.07D-01

 Cycle   4  Pass 1  IDiag  1:
 RMSU=  8.56D-03    CP:  1.04D+00  2.42D-02  7.92D-01
 E= -1530.16484492358     Delta-E=       -0.061260063208 Rises=F Damp=F
 DIIS: error= 9.33D-03 at cycle   4 NSaved=   4.
 NSaved= 4 IEnMin= 4 EnMin= -1530.16484492358     IErMin= 4 ErrMin= 9.33D-03
 ErrMax= 9.33D-03  0.00D+00 EMaxC= 1.00D-01 BMatC= 1.13D-01 BMatP= 4.10D-01
 IDIUse=3 WtCom= 9.07D-01 WtEn= 9.33D-02
 Coeff-Com: -0.225D-01 0.101D+00 0.371D+00 0.550D+00
 Coeff-En:   0.000D+00 0.000D+00 0.235D+00 0.765D+00
 Coeff:     -0.204D-01 0.919D-01 0.358D+00 0.570D+00
 Gap=     0.124 Goal=   None    Shift=    0.000
 Gap=     0.124 Goal=   None    Shift=    0.000
 RMSDP=9.43D-03 MaxDP=5.09D-01 DE=-6.13D-02 OVMax= 3.91D-02

 Cycle   5  Pass 1  IDiag  1:
 RMSU=  6.47D-03    CP:  1.07D+00  1.31D-02  9.12D-01  1.23D+00
 E= -1530.18813197247     Delta-E=       -0.023287048891 Rises=F Damp=F
 DIIS: error= 3.18D-03 at cycle   5 NSaved=   5.
 NSaved= 5 IEnMin= 5 EnMin= -1530.18813197247     IErMin= 5 ErrMin= 3.18D-03
 ErrMax= 3.18D-03  0.00D+00 EMaxC= 1.00D-01 BMatC= 8.54D-03 BMatP= 1.13D-01
 IDIUse=3 WtCom= 9.68D-01 WtEn= 3.18D-02
 Coeff-Com: -0.186D-01 0.339D-01 0.125D+00 0.294D+00 0.566D+00
 Coeff-En:   0.000D+00 0.000D+00 0.000D+00 0.000D+00 0.100D+01
 Coeff:     -0.180D-01 0.328D-01 0.121D+00 0.284D+00 0.580D+00
 Gap=     0.124 Goal=   None    Shift=    0.000
 Gap=     0.124 Goal=   None    Shift=    0.000
 RMSDP=2.91D-03 MaxDP=1.33D-01 DE=-2.33D-02 OVMax= 1.01D-02

 Cycle   6  Pass 1  IDiag  1:
 RMSU=  6.79D-04    CP:  1.06D+00  1.51D-02  9.09D-01  1.14D+00  7.39D-01
 E= -1530.18988149805     Delta-E=       -0.001749525581 Rises=F Damp=F
 DIIS: error= 5.16D-04 at cycle   6 NSaved=   6.
 NSaved= 6 IEnMin= 6 EnMin= -1530.18988149805     IErMin= 6 ErrMin= 5.16D-04
 ErrMax= 5.16D-04  0.00D+00 EMaxC= 1.00D-01 BMatC= 5.73D-04 BMatP= 8.54D-03
 IDIUse=3 WtCom= 9.95D-01 WtEn= 5.16D-03
 Coeff-Com: -0.517D-02 0.258D-02 0.146D-02 0.547D-01 0.274D+00 0.673D+00
 Coeff-En:   0.000D+00 0.000D+00 0.000D+00 0.000D+00 0.000D+00 0.100D+01
 Coeff:     -0.514D-02 0.256D-02 0.146D-02 0.545D-01 0.272D+00 0.674D+00
 Gap=     0.124 Goal=   None    Shift=    0.000
 Gap=     0.124 Goal=   None    Shift=    0.000
 RMSDP=6.72D-04 MaxDP=4.72D-02 DE=-1.75D-03 OVMax= 2.08D-03

 Cycle   7  Pass 1  IDiag  1:
 RMSU=  2.87D-04    CP:  1.06D+00  1.48D-02  9.27D-01  1.14D+00  7.64D-01
                    CP:  1.35D+00
 E= -1530.19001603393     Delta-E=       -0.000134535873 Rises=F Damp=F
 DIIS: error= 1.17D-04 at cycle   7 NSaved=   7.
 NSaved= 7 IEnMin= 7 EnMin= -1530.19001603393     IErMin= 7 ErrMin= 1.17D-04
 ErrMax= 1.17D-04  0.00D+00 EMaxC= 1.00D-01 BMatC= 2.80D-05 BMatP= 5.73D-04
 IDIUse=3 WtCom= 9.99D-01 WtEn= 1.17D-03
 Coeff-Com: -0.429D-03-0.264D-03-0.435D-02 0.520D-02 0.721D-01 0.258D+00
 Coeff-Com:  0.669D+00
 Coeff-En:   0.000D+00 0.000D+00 0.000D+00 0.000D+00 0.000D+00 0.000D+00
 Coeff-En:   0.100D+01
 Coeff:     -0.429D-03-0.264D-03-0.434D-02 0.519D-02 0.720D-01 0.258D+00
 Coeff:      0.670D+00
 Gap=     0.124 Goal=   None    Shift=    0.000
 Gap=     0.124 Goal=   None    Shift=    0.000
 RMSDP=1.36D-04 MaxDP=7.92D-03 DE=-1.35D-04 OVMax= 4.47D-04

 Cycle   8  Pass 1  IDiag  1:
 RMSU=  5.59D-05    CP:  1.06D+00  1.46D-02  9.27D-01  1.14D+00  7.75D-01
                    CP:  1.37D+00  9.02D-01
 E= -1530.19002039551     Delta-E=       -0.000004361581 Rises=F Damp=F
 DIIS: error= 6.45D-05 at cycle   8 NSaved=   8.
 NSaved= 8 IEnMin= 8 EnMin= -1530.19002039551     IErMin= 8 ErrMin= 6.45D-05
 ErrMax= 6.45D-05  0.00D+00 EMaxC= 1.00D-01 BMatC= 9.49D-06 BMatP= 2.80D-05
 IDIUse=1 WtCom= 1.00D+00 WtEn= 0.00D+00
 Coeff-Com:  0.269D-03-0.559D-03-0.249D-02-0.759D-03 0.243D-01 0.107D+00
 Coeff-Com:  0.409D+00 0.464D+00
 Coeff:      0.269D-03-0.559D-03-0.249D-02-0.759D-03 0.243D-01 0.107D+00
 Coeff:      0.409D+00 0.464D+00
 Gap=     0.124 Goal=   None    Shift=    0.000
 Gap=     0.124 Goal=   None    Shift=    0.000
 RMSDP=6.22D-05 MaxDP=5.86D-03 DE=-4.36D-06 OVMax= 1.84D-04

 Cycle   9  Pass 1  IDiag  1:
 RMSU=  1.83D-05    CP:  1.06D+00  1.46D-02  9.26D-01  1.15D+00  7.82D-01
                    CP:  1.37D+00  9.03D-01  9.88D-01
 E= -1530.19002205108     Delta-E=       -0.000001655570 Rises=F Damp=F
 DIIS: error= 1.71D-05 at cycle   9 NSaved=   9.
 NSaved= 9 IEnMin= 9 EnMin= -1530.19002205108     IErMin= 9 ErrMin= 1.71D-05
 ErrMax= 1.71D-05  0.00D+00 EMaxC= 1.00D-01 BMatC= 4.11D-07 BMatP= 9.49D-06
 IDIUse=1 WtCom= 1.00D+00 WtEn= 0.00D+00
 Coeff-Com:  0.185D-03-0.234D-03 0.113D-04-0.282D-03 0.290D-02 0.128D-01
 Coeff-Com:  0.800D-01 0.168D+00 0.737D+00
 Coeff:      0.185D-03-0.234D-03 0.113D-04-0.282D-03 0.290D-02 0.128D-01
 Coeff:      0.800D-01 0.168D+00 0.737D+00
 Gap=     0.124 Goal=   None    Shift=    0.000
 Gap=     0.124 Goal=   None    Shift=    0.000
 RMSDP=4.92D-05 MaxDP=3.63D-03 DE=-1.66D-06 OVMax= 5.77D-05

 Cycle  10  Pass 1  IDiag  1:
 RMSU=  7.09D-06    CP:  1.06D+00  1.46D-02  9.27D-01  1.14D+00  7.79D-01
                    CP:  1.38D+00  9.09D-01  1.02D+00  9.22D-01
 E= -1530.19002213797     Delta-E=       -0.000000086897 Rises=F Damp=F
 DIIS: error= 3.71D-06 at cycle  10 NSaved=  10.
 NSaved=10 IEnMin=10 EnMin= -1530.19002213797     IErMin=10 ErrMin= 3.71D-06
 ErrMax= 3.71D-06  0.00D+00 EMaxC= 1.00D-01 BMatC= 3.14D-08 BMatP= 4.11D-07
 IDIUse=1 WtCom= 1.00D+00 WtEn= 0.00D+00
 Coeff-Com:  0.550D-04-0.758D-04 0.245D-03 0.144D-03 0.327D-03 0.184D-03
 Coeff-Com:  0.532D-02 0.291D-01 0.244D+00 0.721D+00
 Coeff:      0.550D-04-0.758D-04 0.245D-03 0.144D-03 0.327D-03 0.184D-03
 Coeff:      0.532D-02 0.291D-01 0.244D+00 0.721D+00
 Gap=     0.124 Goal=   None    Shift=    0.000
 Gap=     0.124 Goal=   None    Shift=    0.000
 RMSDP=7.73D-06 MaxDP=3.97D-04 DE=-8.69D-08 OVMax= 1.78D-05

 Cycle  11  Pass 1  IDiag  1:
 RMSU=  1.55D-06    CP:  1.06D+00  1.45D-02  9.27D-01  1.14D+00  7.79D-01
                    CP:  1.38D+00  9.10D-01  1.05D+00  9.53D-01  9.85D-01
 E= -1530.19002214315     Delta-E=       -0.000000005179 Rises=F Damp=F
 DIIS: error= 3.06D-06 at cycle  11 NSaved=  11.
 NSaved=11 IEnMin=11 EnMin= -1530.19002214315     IErMin=11 ErrMin= 3.06D-06
 ErrMax= 3.06D-06  0.00D+00 EMaxC= 1.00D-01 BMatC= 6.75D-09 BMatP= 3.14D-08
 IDIUse=1 WtCom= 1.00D+00 WtEn= 0.00D+00
 Coeff-Com:  0.142D-04-0.226D-04 0.157D-03 0.123D-03-0.176D-03-0.143D-02
 Coeff-Com: -0.745D-02-0.463D-02 0.421D-01 0.409D+00 0.563D+00
 Coeff:      0.142D-04-0.226D-04 0.157D-03 0.123D-03-0.176D-03-0.143D-02
 Coeff:     -0.745D-02-0.463D-02 0.421D-01 0.409D+00 0.563D+00
 Gap=     0.124 Goal=   None    Shift=    0.000
 Gap=     0.124 Goal=   None    Shift=    0.000
 RMSDP=2.17D-06 MaxDP=2.15D-04 DE=-5.18D-09 OVMax= 9.34D-06

 Cycle  12  Pass 1  IDiag  1:
 RMSU=  2.68D-07    CP:  1.06D+00  1.45D-02  9.27D-01  1.14D+00  7.79D-01
                    CP:  1.39D+00  9.10D-01  1.06D+00  9.62D-01  1.05D+00
                    CP:  8.95D-01
 E= -1530.19002214471     Delta-E=       -0.000000001562 Rises=F Damp=F
 DIIS: error= 3.51D-07 at cycle  12 NSaved=  12.
 NSaved=12 IEnMin=12 EnMin= -1530.19002214471     IErMin=12 ErrMin= 3.51D-07
 ErrMax= 3.51D-07  0.00D+00 EMaxC= 1.00D-01 BMatC= 3.28D-10 BMatP= 6.75D-09
 IDIUse=1 WtCom= 1.00D+00 WtEn= 0.00D+00
 Coeff-Com:  0.137D-05-0.353D-05 0.365D-04 0.337D-04-0.649D-04-0.362D-03
 Coeff-Com: -0.277D-02-0.395D-02-0.117D-01 0.603D-01 0.167D+00 0.791D+00
 Coeff:      0.137D-05-0.353D-05 0.365D-04 0.337D-04-0.649D-04-0.362D-03
 Coeff:     -0.277D-02-0.395D-02-0.117D-01 0.603D-01 0.167D+00 0.791D+00
 Gap=     0.124 Goal=   None    Shift=    0.000
 Gap=     0.124 Goal=   None    Shift=    0.000
 RMSDP=1.04D-06 MaxDP=9.98D-05 DE=-1.56D-09 OVMax= 2.19D-06

 Cycle  13  Pass 1  IDiag  1:
 RMSU=  1.15D-07    CP:  1.06D+00  1.45D-02  9.27D-01  1.14D+00  7.79D-01
                    CP:  1.39D+00  9.10D-01  1.06D+00  9.62D-01  1.07D+00
                    CP:  9.41D-01  8.89D-01
 E= -1530.19002214477     Delta-E=       -0.000000000053 Rises=F Damp=F
 DIIS: error= 1.65D-07 at cycle  13 NSaved=  13.
 NSaved=13 IEnMin=13 EnMin= -1530.19002214477     IErMin=13 ErrMin= 1.65D-07
 ErrMax= 1.65D-07  0.00D+00 EMaxC= 1.00D-01 BMatC= 3.69D-11 BMatP= 3.28D-10
 IDIUse=1 WtCom= 1.00D+00 WtEn= 0.00D+00
 Coeff-Com:  0.562D-06-0.150D-05 0.140D-04 0.136D-04-0.172D-04-0.101D-03
 Coeff-Com: -0.107D-02-0.176D-02-0.776D-02 0.147D-01 0.648D-01 0.431D+00
 Coeff-Com:  0.500D+00
 Coeff:      0.562D-06-0.150D-05 0.140D-04 0.136D-04-0.172D-04-0.101D-03
 Coeff:     -0.107D-02-0.176D-02-0.776D-02 0.147D-01 0.648D-01 0.431D+00
 Coeff:      0.500D+00
 Gap=     0.124 Goal=   None    Shift=    0.000
 Gap=     0.124 Goal=   None    Shift=    0.000
 RMSDP=1.26D-07 MaxDP=1.72D-05 DE=-5.32D-11 OVMax= 1.19D-06

 Cycle  14  Pass 1  IDiag  1:
 RMSU=  4.64D-08    CP:  1.06D+00  1.45D-02  9.27D-01  1.14D+00  7.79D-01
                    CP:  1.39D+00  9.10D-01  1.06D+00  9.62D-01  1.07D+00
                    CP:  9.43D-01  1.03D+00  4.04D-01
 E= -1530.19002214478     Delta-E=       -0.000000000012 Rises=F Damp=F
 DIIS: error= 8.66D-08 at cycle  14 NSaved=  14.
 NSaved=14 IEnMin=14 EnMin= -1530.19002214478     IErMin=14 ErrMin= 8.66D-08
 ErrMax= 8.66D-08  0.00D+00 EMaxC= 1.00D-01 BMatC= 6.51D-12 BMatP= 3.69D-11
 IDIUse=1 WtCom= 1.00D+00 WtEn= 0.00D+00
 Coeff-Com:  0.177D-06-0.329D-06 0.250D-05 0.249D-05 0.329D-05 0.592D-05
 Coeff-Com: -0.148D-03-0.360D-03-0.274D-02-0.252D-02 0.839D-02 0.117D+00
 Coeff-Com:  0.312D+00 0.568D+00
 Coeff:      0.177D-06-0.329D-06 0.250D-05 0.249D-05 0.329D-05 0.592D-05
 Coeff:     -0.148D-03-0.360D-03-0.274D-02-0.252D-02 0.839D-02 0.117D+00
 Coeff:      0.312D+00 0.568D+00
 Gap=     0.124 Goal=   None    Shift=    0.000
 Gap=     0.124 Goal=   None    Shift=    0.000
 RMSDP=5.73D-08 MaxDP=5.11D-06 DE=-1.23D-11 OVMax= 5.38D-07

 Cycle  15  Pass 1  IDiag  1:
 RMSU=  1.57D-08    CP:  1.06D+00  1.45D-02  9.27D-01  1.14D+00  7.79D-01
                    CP:  1.39D+00  9.10D-01  1.06D+00  9.62D-01  1.07D+00
                    CP:  9.51D-01  9.98D-01  6.59D-01  5.64D-01
 E= -1530.19002214481     Delta-E=       -0.000000000029 Rises=F Damp=F
 DIIS: error= 2.29D-08 at cycle  15 NSaved=  15.
 NSaved=15 IEnMin=15 EnMin= -1530.19002214481     IErMin=15 ErrMin= 2.29D-08
 ErrMax= 2.29D-08  0.00D+00 EMaxC= 1.00D-01 BMatC= 6.64D-13 BMatP= 6.51D-12
 IDIUse=1 WtCom= 1.00D+00 WtEn= 0.00D+00
 Coeff-Com:  0.399D-07-0.214D-07 0.439D-06 0.416D-06 0.323D-05 0.957D-05
 Coeff-Com: -0.473D-05-0.810D-04-0.103D-02-0.309D-02-0.977D-03 0.305D-01
 Coeff-Com:  0.147D+00 0.353D+00 0.474D+00
 Coeff:      0.399D-07-0.214D-07 0.439D-06 0.416D-06 0.323D-05 0.957D-05
 Coeff:     -0.473D-05-0.810D-04-0.103D-02-0.309D-02-0.977D-03 0.305D-01
 Coeff:      0.147D+00 0.353D+00 0.474D+00
 Gap=     0.124 Goal=   None    Shift=    0.000
 Gap=     0.124 Goal=   None    Shift=    0.000
 RMSDP=1.31D-08 MaxDP=1.41D-06 DE=-2.86D-11 OVMax= 1.41D-07

 Cycle  16  Pass 1  IDiag  1:
 RMSU=  3.26D-09    CP:  1.06D+00  1.45D-02  9.27D-01  1.14D+00  7.79D-01
                    CP:  1.39D+00  9.10D-01  1.06D+00  9.62D-01  1.07D+00
                    CP:  9.51D-01  1.02D+00  6.06D-01  6.59D-01  9.45D-01
 E= -1530.19002214481     Delta-E=       -0.000000000005 Rises=F Damp=F
 DIIS: error= 2.85D-09 at cycle  16 NSaved=  16.
 NSaved=16 IEnMin=16 EnMin= -1530.19002214481     IErMin=16 ErrMin= 2.85D-09
 ErrMax= 2.85D-09  0.00D+00 EMaxC= 1.00D-01 BMatC= 1.70D-14 BMatP= 6.64D-13
 IDIUse=1 WtCom= 1.00D+00 WtEn= 0.00D+00
 Coeff-Com:  0.505D-08 0.207D-07 0.341D-07 0.326D-07 0.968D-06 0.216D-05
 Coeff-Com:  0.100D-04 0.334D-05-0.704D-04-0.784D-03-0.981D-03-0.599D-03
 Coeff-Com:  0.251D-01 0.808D-01 0.188D+00 0.709D+00
 Coeff:      0.505D-08 0.207D-07 0.341D-07 0.326D-07 0.968D-06 0.216D-05
 Coeff:      0.100D-04 0.334D-05-0.704D-04-0.784D-03-0.981D-03-0.599D-03
 Coeff:      0.251D-01 0.808D-01 0.188D+00 0.709D+00
 Gap=     0.124 Goal=   None    Shift=    0.000
 Gap=     0.124 Goal=   None    Shift=    0.000
 RMSDP=1.33D-08 MaxDP=9.26D-07 DE=-5.46D-12 OVMax= 2.31D-08

 Cycle  17  Pass 1  IDiag  1:
 RMSU=  1.12D-09    CP:  1.06D+00  1.45D-02  9.27D-01  1.14D+00  7.79D-01
                    CP:  1.39D+00  9.10D-01  1.06D+00  9.62D-01  1.07D+00
                    CP:  9.51D-01  1.02D+00  6.19D-01  6.70D-01  9.36D-01
                    CP:  9.38D-01
 E= -1530.19002214480     Delta-E=        0.000000000012 Rises=F Damp=F
 DIIS: error= 8.26D-10 at cycle  17 NSaved=  17.
 NSaved=17 IEnMin=16 EnMin= -1530.19002214481     IErMin=17 ErrMin= 8.26D-10
 ErrMax= 8.26D-10  0.00D+00 EMaxC= 1.00D-01 BMatC= 1.34D-15 BMatP= 1.70D-14
 IDIUse=1 WtCom= 1.00D+00 WtEn= 0.00D+00
 Large coefficients: NSaved= 17 BigCof=    0.00 CofMax=   10.00 Det=-5.62D-15
 Inversion failed.  Reducing to 16 matrices.
 Large coefficients: NSaved= 16 BigCof=    0.00 CofMax=   10.00 Det=-5.71D-15
 Inversion failed.  Reducing to 15 matrices.
 Coeff-Com: -0.364D-07-0.149D-07 0.313D-06 0.923D-06 0.518D-05 0.511D-05
 Coeff-Com:  0.192D-04-0.124D-03-0.194D-03-0.119D-02 0.168D-02 0.101D-01
 Coeff-Com:  0.409D-01 0.270D+00 0.679D+00
 Coeff:     -0.364D-07-0.149D-07 0.313D-06 0.923D-06 0.518D-05 0.511D-05
 Coeff:      0.192D-04-0.124D-03-0.194D-03-0.119D-02 0.168D-02 0.101D-01
 Coeff:      0.409D-01 0.270D+00 0.679D+00
 Gap=     0.124 Goal=   None    Shift=    0.000
 Gap=     0.124 Goal=   None    Shift=    0.000
 RMSDP=2.70D-09 MaxDP=2.41D-07 DE= 1.16D-11 OVMax= 6.58D-09

 Error on total polarization charges =  0.02679
 SCF Done:  E(UB3LYP) =  -1530.19002214     A.U. after   17 cycles
            NFock= 17  Conv=0.27D-08     -V/T= 2.0030
 <Sx>= 0.0000 <Sy>= 0.0000 <Sz>= 0.0000 <S**2>=-0.0000 S=-0.0000
 <L.S>=  0.00000000000    
 KE= 1.525612079108D+03 PE=-5.884871862191D+03 EE= 1.713864680267D+03
 Annihilation of the first spin contaminant:
 S**2 before annihilation    -0.0000,   after    -0.0000
 Leave Link  502 at Sun Jan 21 07:37:31 2024, MaxMem=  4026531840 cpu:             783.6 elap:              98.3
 (Enter /sysapps/ubuntu-applications/gaussian/Gaussian/AVX2/g16/l601.exe)
 Copying SCF densities to generalized density rwf, IOpCl= 1 IROHF=0.

 **********************************************************************

            Population analysis using the SCF density.

 **********************************************************************

 Orbital symmetries:
 Alpha Orbitals:
       Occupied  (A) (A) (A) (A) (A) (A) (A) (A) (A) (A) (A) (A)
                 (A) (A) (A) (A) (A) (A) (A) (A) (A) (A) (A) (A)
                 (A) (A) (A) (A) (A) (A) (A) (A) (A) (A) (A) (A)
                 (A) (A) (A) (A) (A) (A) (A) (A) (A) (A) (A) (A)
                 (A) (A) (A) (A) (A) (A) (A) (A) (A) (A) (A) (A)
                 (A)
       Virtual   (A) (A) (A) (A) (A) (A) (A) (A) (A) (A) (A) (A)
                 (A) (A) (A) (A) (A) (A) (A) (A) (A) (A) (A) (A)
                 (A) (A) (A) (A) (A) (A) (A) (A) (A) (A) (A) (A)
                 (A) (A) (A) (A) (A) (A) (A) (A) (A) (A) (A) (A)
                 (A) (A) (A) (A) (A) (A) (A) (A) (A) (A) (A) (A)
                 (A) (A) (A) (A) (A) (A) (A) (A) (A) (A) (A) (A)
                 (A) (A) (A) (A) (A) (A) (A) (A) (A) (A) (A) (A)
                 (A) (A) (A) (A) (A) (A) (A) (A) (A) (A) (A) (A)
                 (A) (A) (A) (A) (A) (A) (A) (A) (A) (A) (A) (A)
                 (A) (A) (A) (A) (A) (A) (A) (A) (A) (A) (A) (A)
                 (A) (A) (A) (A) (A) (A) (A) (A) (A) (A) (A) (A)
                 (A) (A) (A) (A) (A) (A) (A) (A) (A) (A) (A) (A)
                 (A) (A) (A) (A) (A) (A) (A) (A) (A) (A) (A) (A)
                 (A) (A) (A) (A) (A) (A) (A) (A) (A) (A) (A) (A)
                 (A) (A) (A) (A) (A) (A) (A) (A) (A) (A) (A) (A)
                 (A) (A) (A) (A) (A) (A) (A) (A) (A) (A) (A) (A)
                 (A) (A) (A) (A) (A) (A) (A) (A) (A) (A) (A) (A)
                 (A) (A) (A) (A) (A) (A) (A) (A) (A) (A) (A) (A)
                 (A) (A) (A) (A) (A) (A) (A) (A) (A) (A) (A) (A)
                 (A) (A) (A) (A) (A) (A) (A) (A) (A) (A) (A) (A)
                 (A) (A) (A) (A) (A) (A) (A) (A) (A) (A) (A) (A)
                 (A) (A) (A) (A) (A) (A) (A) (A) (A) (A) (A) (A)
                 (A) (A) (A) (A) (A) (A) (A) (A) (A) (A) (A) (A)
                 (A) (A) (A) (A) (A) (A) (A) (A) (A) (A) (A) (A)
                 (A) (A) (A) (A) (A) (A) (A) (A) (A) (A) (A) (A)
                 (A) (A) (A) (A)
 Beta  Orbitals:
       Occupied  (A) (A) (A) (A) (A) (A) (A) (A) (A) (A) (A) (A)
                 (A) (A) (A) (A) (A) (A) (A) (A) (A) (A) (A) (A)
                 (A) (A) (A) (A) (A) (A) (A) (A) (A) (A) (A) (A)
                 (A) (A) (A) (A) (A) (A) (A) (A) (A) (A) (A) (A)
                 (A) (A) (A) (A) (A) (A) (A) (A) (A) (A) (A) (A)
                 (A)
       Virtual   (A) (A) (A) (A) (A) (A) (A) (A) (A) (A) (A) (A)
                 (A) (A) (A) (A) (A) (A) (A) (A) (A) (A) (A) (A)
                 (A) (A) (A) (A) (A) (A) (A) (A) (A) (A) (A) (A)
                 (A) (A) (A) (A) (A) (A) (A) (A) (A) (A) (A) (A)
                 (A) (A) (A) (A) (A) (A) (A) (A) (A) (A) (A) (A)
                 (A) (A) (A) (A) (A) (A) (A) (A) (A) (A) (A) (A)
                 (A) (A) (A) (A) (A) (A) (A) (A) (A) (A) (A) (A)
                 (A) (A) (A) (A) (A) (A) (A) (A) (A) (A) (A) (A)
                 (A) (A) (A) (A) (A) (A) (A) (A) (A) (A) (A) (A)
                 (A) (A) (A) (A) (A) (A) (A) (A) (A) (A) (A) (A)
                 (A) (A) (A) (A) (A) (A) (A) (A) (A) (A) (A) (A)
                 (A) (A) (A) (A) (A) (A) (A) (A) (A) (A) (A) (A)
                 (A) (A) (A) (A) (A) (A) (A) (A) (A) (A) (A) (A)
                 (A) (A) (A) (A) (A) (A) (A) (A) (A) (A) (A) (A)
                 (A) (A) (A) (A) (A) (A) (A) (A) (A) (A) (A) (A)
                 (A) (A) (A) (A) (A) (A) (A) (A) (A) (A) (A) (A)
                 (A) (A) (A) (A) (A) (A) (A) (A) (A) (A) (A) (A)
                 (A) (A) (A) (A) (A) (A) (A) (A) (A) (A) (A) (A)
                 (A) (A) (A) (A) (A) (A) (A) (A) (A) (A) (A) (A)
                 (A) (A) (A) (A) (A) (A) (A) (A) (A) (A) (A) (A)
                 (A) (A) (A) (A) (A) (A) (A) (A) (A) (A) (A) (A)
                 (A) (A) (A) (A) (A) (A) (A) (A) (A) (A) (A) (A)
                 (A) (A) (A) (A) (A) (A) (A) (A) (A) (A) (A) (A)
                 (A) (A) (A) (A) (A) (A) (A) (A) (A) (A) (A) (A)
                 (A) (A) (A) (A) (A) (A) (A) (A) (A) (A) (A) (A)
                 (A) (A) (A) (A)
 The electronic state is 1-A.
 Alpha  occ. eigenvalues -- -101.52841-101.52841 -19.12024 -19.12023 -19.02412
 Alpha  occ. eigenvalues --  -19.02411 -10.19309 -10.19309 -10.19203 -10.19202
 Alpha  occ. eigenvalues --  -10.18918 -10.18916 -10.18797 -10.18797  -9.44267
 Alpha  occ. eigenvalues --   -9.44266  -7.20673  -7.20673  -7.19804  -7.19804
 Alpha  occ. eigenvalues --   -7.19735  -7.19734  -1.03303  -1.03174  -0.94050
 Alpha  occ. eigenvalues --   -0.93859  -0.84037  -0.83065  -0.77213  -0.71425
 Alpha  occ. eigenvalues --   -0.67793  -0.65864  -0.63173  -0.55564  -0.54664
 Alpha  occ. eigenvalues --   -0.49241  -0.47960  -0.46797  -0.44445  -0.43855
 Alpha  occ. eigenvalues --   -0.42937  -0.41030  -0.40237  -0.39291  -0.37560
 Alpha  occ. eigenvalues --   -0.36950  -0.34894  -0.34682  -0.33417  -0.33286
 Alpha  occ. eigenvalues --   -0.30910  -0.30693  -0.29354  -0.29242  -0.27125
 Alpha  occ. eigenvalues --   -0.26106  -0.22886  -0.20628  -0.20616  -0.19769
 Alpha  occ. eigenvalues --   -0.12879
 Alpha virt. eigenvalues --   -0.00462   0.01227   0.01450   0.01831   0.02496
 Alpha virt. eigenvalues --    0.03384   0.04184   0.04434   0.04508   0.04600
 Alpha virt. eigenvalues --    0.05993   0.06626   0.06712   0.06724   0.07510
 Alpha virt. eigenvalues --    0.07918   0.08642   0.09332   0.09491   0.10532
 Alpha virt. eigenvalues --    0.10542   0.10739   0.10776   0.12111   0.12720
 Alpha virt. eigenvalues --    0.13108   0.13315   0.13795   0.13957   0.14114
 Alpha virt. eigenvalues --    0.15513   0.15880   0.16569   0.17142   0.17484
 Alpha virt. eigenvalues --    0.17897   0.18459   0.18618   0.19066   0.19364
 Alpha virt. eigenvalues --    0.19384   0.20144   0.20214   0.21054   0.22480
 Alpha virt. eigenvalues --    0.22759   0.23186   0.23912   0.24320   0.25089
 Alpha virt. eigenvalues --    0.25245   0.26029   0.26517   0.27104   0.27504
 Alpha virt. eigenvalues --    0.28475   0.29871   0.30085   0.30272   0.30668
 Alpha virt. eigenvalues --    0.31013   0.31058   0.32181   0.32419   0.33263
 Alpha virt. eigenvalues --    0.33645   0.33734   0.34728   0.34856   0.35333
 Alpha virt. eigenvalues --    0.37200   0.37775   0.38404   0.38586   0.39278
 Alpha virt. eigenvalues --    0.39952   0.40919   0.41558   0.42347   0.42621
 Alpha virt. eigenvalues --    0.45480   0.45555   0.48097   0.48683   0.49719
 Alpha virt. eigenvalues --    0.50465   0.51069   0.51642   0.51701   0.53075
 Alpha virt. eigenvalues --    0.54277   0.54789   0.58973   0.61515   0.62097
 Alpha virt. eigenvalues --    0.62470   0.64369   0.64387   0.65773   0.66779
 Alpha virt. eigenvalues --    0.66785   0.67427   0.68231   0.68716   0.70038
 Alpha virt. eigenvalues --    0.70325   0.70645   0.72431   0.72541   0.74259
 Alpha virt. eigenvalues --    0.75328   0.75816   0.77089   0.80765   0.87068
 Alpha virt. eigenvalues --    0.87601   0.88270   0.88989   0.89555   0.90251
 Alpha virt. eigenvalues --    0.90382   0.91759   0.92645   0.93780   0.95413
 Alpha virt. eigenvalues --    0.96293   0.97290   0.97871   0.97901   0.99520
 Alpha virt. eigenvalues --    1.00918   1.03690   1.04785   1.06280   1.06633
 Alpha virt. eigenvalues --    1.08142   1.08753   1.12607   1.13156   1.13547
 Alpha virt. eigenvalues --    1.15086   1.19013   1.21022   1.21694   1.22003
 Alpha virt. eigenvalues --    1.23841   1.24942   1.26704   1.26970   1.27530
 Alpha virt. eigenvalues --    1.29413   1.31184   1.31866   1.33226   1.33885
 Alpha virt. eigenvalues --    1.35405   1.35556   1.35811   1.41815   1.42331
 Alpha virt. eigenvalues --    1.43231   1.44275   1.48702   1.49103   1.52263
 Alpha virt. eigenvalues --    1.53505   1.59278   1.59717   1.60474   1.60678
 Alpha virt. eigenvalues --    1.64580   1.69612   1.70108   1.71809   1.72492
 Alpha virt. eigenvalues --    1.74103   1.74878   1.76371   1.77171   1.77807
 Alpha virt. eigenvalues --    1.78683   1.79235   1.81073   1.83137   1.86382
 Alpha virt. eigenvalues --    1.86780   1.87851   1.88587   1.89145   1.94176
 Alpha virt. eigenvalues --    1.94739   2.00003   2.04057   2.04653   2.12271
 Alpha virt. eigenvalues --    2.15788   2.17137   2.18686   2.19694   2.22611
 Alpha virt. eigenvalues --    2.22679   2.25329   2.28143   2.30737   2.31446
 Alpha virt. eigenvalues --    2.32877   2.39513   2.39808   2.42724   2.45196
 Alpha virt. eigenvalues --    2.46337   2.46465   2.53412   2.53462   2.53552
 Alpha virt. eigenvalues --    2.54159   2.56331   2.57196   2.60323   2.60602
 Alpha virt. eigenvalues --    2.62756   2.65782   2.68091   2.69695   2.76998
 Alpha virt. eigenvalues --    2.78334   2.86295   2.86749   2.88665   2.91116
 Alpha virt. eigenvalues --    2.93109   2.97112   2.98293   2.99578   3.03010
 Alpha virt. eigenvalues --    3.05216   3.06659   3.08071   3.10319   3.10958
 Alpha virt. eigenvalues --    3.13126   3.15073   3.16172   3.18264   3.19650
 Alpha virt. eigenvalues --    3.23978   3.29632   3.29691   3.32441   3.36599
 Alpha virt. eigenvalues --    3.38265   3.39666   3.44912   3.53101   3.53210
 Alpha virt. eigenvalues --    3.57933   3.59184   3.79245   3.80097   3.82630
 Alpha virt. eigenvalues --    3.84230   3.86252   3.90968   4.02788   4.05213
 Alpha virt. eigenvalues --    4.05340   4.21341   4.25072   4.30404   4.83004
 Alpha virt. eigenvalues --    5.12196   5.13533   5.17237   5.17851   5.29838
 Alpha virt. eigenvalues --    5.33561   5.39605   5.41887   5.63292   5.76331
 Alpha virt. eigenvalues --    5.83669   5.86882   9.80155   9.81736  23.49675
 Alpha virt. eigenvalues --   23.81036  23.92932  23.93663  23.95141  23.97260
 Alpha virt. eigenvalues --   24.01257  24.07042  25.90120  25.90700  26.18377
 Alpha virt. eigenvalues --   26.31941  26.61076  26.62588  49.94502  49.96277
 Alpha virt. eigenvalues --   50.08299  50.12788 215.79610 215.81351
  Beta  occ. eigenvalues -- -101.52841-101.52841 -19.12024 -19.12023 -19.02412
  Beta  occ. eigenvalues --  -19.02411 -10.19309 -10.19309 -10.19203 -10.19202
  Beta  occ. eigenvalues --  -10.18918 -10.18916 -10.18797 -10.18797  -9.44267
  Beta  occ. eigenvalues --   -9.44266  -7.20673  -7.20673  -7.19804  -7.19804
  Beta  occ. eigenvalues --   -7.19735  -7.19734  -1.03303  -1.03174  -0.94050
  Beta  occ. eigenvalues --   -0.93859  -0.84037  -0.83065  -0.77213  -0.71425
  Beta  occ. eigenvalues --   -0.67793  -0.65864  -0.63173  -0.55564  -0.54664
  Beta  occ. eigenvalues --   -0.49241  -0.47960  -0.46797  -0.44445  -0.43855
  Beta  occ. eigenvalues --   -0.42937  -0.41030  -0.40237  -0.39291  -0.37560
  Beta  occ. eigenvalues --   -0.36950  -0.34894  -0.34682  -0.33417  -0.33286
  Beta  occ. eigenvalues --   -0.30910  -0.30693  -0.29354  -0.29242  -0.27125
  Beta  occ. eigenvalues --   -0.26106  -0.22886  -0.20628  -0.20616  -0.19769
  Beta  occ. eigenvalues --   -0.12879
  Beta virt. eigenvalues --   -0.00462   0.01227   0.01450   0.01831   0.02496
  Beta virt. eigenvalues --    0.03384   0.04184   0.04434   0.04508   0.04600
  Beta virt. eigenvalues --    0.05993   0.06626   0.06712   0.06724   0.07510
  Beta virt. eigenvalues --    0.07918   0.08642   0.09332   0.09491   0.10532
  Beta virt. eigenvalues --    0.10542   0.10739   0.10776   0.12111   0.12720
  Beta virt. eigenvalues --    0.13108   0.13315   0.13795   0.13957   0.14114
  Beta virt. eigenvalues --    0.15513   0.15880   0.16569   0.17142   0.17484
  Beta virt. eigenvalues --    0.17897   0.18459   0.18618   0.19066   0.19364
  Beta virt. eigenvalues --    0.19384   0.20144   0.20214   0.21054   0.22480
  Beta virt. eigenvalues --    0.22759   0.23186   0.23912   0.24320   0.25089
  Beta virt. eigenvalues --    0.25245   0.26029   0.26517   0.27104   0.27504
  Beta virt. eigenvalues --    0.28475   0.29871   0.30085   0.30272   0.30668
  Beta virt. eigenvalues --    0.31013   0.31058   0.32181   0.32419   0.33263
  Beta virt. eigenvalues --    0.33645   0.33734   0.34728   0.34856   0.35333
  Beta virt. eigenvalues --    0.37200   0.37775   0.38404   0.38586   0.39278
  Beta virt. eigenvalues --    0.39952   0.40919   0.41558   0.42347   0.42621
  Beta virt. eigenvalues --    0.45480   0.45555   0.48097   0.48683   0.49719
  Beta virt. eigenvalues --    0.50465   0.51069   0.51642   0.51701   0.53075
  Beta virt. eigenvalues --    0.54277   0.54789   0.58973   0.61515   0.62097
  Beta virt. eigenvalues --    0.62470   0.64369   0.64387   0.65773   0.66779
  Beta virt. eigenvalues --    0.66785   0.67427   0.68231   0.68716   0.70038
  Beta virt. eigenvalues --    0.70325   0.70645   0.72431   0.72541   0.74259
  Beta virt. eigenvalues --    0.75328   0.75816   0.77089   0.80765   0.87068
  Beta virt. eigenvalues --    0.87601   0.88270   0.88989   0.89555   0.90251
  Beta virt. eigenvalues --    0.90382   0.91759   0.92645   0.93780   0.95413
  Beta virt. eigenvalues --    0.96293   0.97290   0.97871   0.97901   0.99520
  Beta virt. eigenvalues --    1.00918   1.03690   1.04785   1.06280   1.06633
  Beta virt. eigenvalues --    1.08142   1.08753   1.12607   1.13156   1.13547
  Beta virt. eigenvalues --    1.15086   1.19013   1.21022   1.21694   1.22003
  Beta virt. eigenvalues --    1.23841   1.24942   1.26704   1.26970   1.27530
  Beta virt. eigenvalues --    1.29413   1.31184   1.31866   1.33226   1.33885
  Beta virt. eigenvalues --    1.35405   1.35556   1.35811   1.41815   1.42331
  Beta virt. eigenvalues --    1.43231   1.44275   1.48702   1.49103   1.52263
  Beta virt. eigenvalues --    1.53505   1.59278   1.59717   1.60474   1.60678
  Beta virt. eigenvalues --    1.64580   1.69612   1.70108   1.71809   1.72492
  Beta virt. eigenvalues --    1.74103   1.74878   1.76371   1.77171   1.77807
  Beta virt. eigenvalues --    1.78683   1.79235   1.81073   1.83137   1.86382
  Beta virt. eigenvalues --    1.86780   1.87851   1.88587   1.89145   1.94176
  Beta virt. eigenvalues --    1.94739   2.00003   2.04057   2.04653   2.12271
  Beta virt. eigenvalues --    2.15788   2.17137   2.18686   2.19694   2.22611
  Beta virt. eigenvalues --    2.22679   2.25329   2.28143   2.30737   2.31446
  Beta virt. eigenvalues --    2.32877   2.39513   2.39808   2.42724   2.45196
  Beta virt. eigenvalues --    2.46337   2.46465   2.53412   2.53462   2.53552
  Beta virt. eigenvalues --    2.54159   2.56331   2.57196   2.60323   2.60602
  Beta virt. eigenvalues --    2.62756   2.65782   2.68091   2.69695   2.76998
  Beta virt. eigenvalues --    2.78334   2.86295   2.86749   2.88665   2.91116
  Beta virt. eigenvalues --    2.93109   2.97112   2.98293   2.99578   3.03010
  Beta virt. eigenvalues --    3.05216   3.06659   3.08071   3.10319   3.10958
  Beta virt. eigenvalues --    3.13126   3.15073   3.16172   3.18264   3.19650
  Beta virt. eigenvalues --    3.23978   3.29632   3.29691   3.32441   3.36599
  Beta virt. eigenvalues --    3.38265   3.39666   3.44912   3.53101   3.53210
  Beta virt. eigenvalues --    3.57933   3.59184   3.79245   3.80097   3.82630
  Beta virt. eigenvalues --    3.84230   3.86252   3.90968   4.02788   4.05213
  Beta virt. eigenvalues --    4.05340   4.21341   4.25072   4.30404   4.83004
  Beta virt. eigenvalues --    5.12196   5.13533   5.17237   5.17851   5.29838
  Beta virt. eigenvalues --    5.33561   5.39605   5.41887   5.63292   5.76331
  Beta virt. eigenvalues --    5.83669   5.86882   9.80155   9.81736  23.49675
  Beta virt. eigenvalues --   23.81036  23.92932  23.93663  23.95141  23.97260
  Beta virt. eigenvalues --   24.01257  24.07042  25.90120  25.90700  26.18377
  Beta virt. eigenvalues --   26.31941  26.61076  26.62588  49.94502  49.96277
  Beta virt. eigenvalues --   50.08299  50.12788 215.79610 215.81351
          Condensed to atoms (all electrons):
               1          2          3          4          5          6
     1  C    5.172175   0.110071  -0.117809   0.226383  -0.023994   0.094505
     2  O    0.110071   8.202984   0.346540  -0.446122  -0.031545   0.097550
     3  C   -0.117809   0.346540  43.616500 -14.675609   1.188350 -14.429714
     4  C    0.226383  -0.446122 -14.675609  41.382681  -2.677527   1.334735
     5  Cl  -0.023994  -0.031545   1.188350  -2.677527  17.717485   0.243816
     6  C    0.094505   0.097550 -14.429714   1.334735   0.243816  29.052702
     7  O   -0.000106  -0.003046   0.168026  -0.222204   0.038117   0.611279
     8  C    0.020814  -0.035158   0.337026 -10.240276   0.070348   2.187610
     9  C   -0.177877   0.097245 -10.249424  -0.109077   0.088868 -10.616197
    10  Cl  -0.000322   0.001209   0.070331   0.088460  -0.010080   0.219659
    11  C   -0.170117  -0.032221   2.219039 -10.659181   0.220344  -1.912275
    12  O   -0.053236   0.035177  -0.479757  -0.010208  -0.000666  -0.079428
    13  O    0.000227   0.000570  -0.035250   0.097192   0.001210  -0.031963
    14  C    0.001624   0.000228   0.020540  -0.177609  -0.000328  -0.170430
    15  H    0.387709  -0.067986   0.004255   0.049520   0.029755  -0.032539
    16  H    0.373329  -0.060924   0.050015  -0.061360   0.002205  -0.008651
    17  H    0.437132  -0.026630  -0.200370   0.039758  -0.006749   0.022223
    18  H   -0.000289  -0.000333  -0.007573   0.012037   0.002705   0.082811
    19  H   -0.000336   0.000186  -0.008386   0.015453  -0.001956  -0.039454
    20  H    0.000094   0.000065   0.005958   0.020964   0.000825   0.027006
               7          8          9         10         11         12
     1  C   -0.000106   0.020814  -0.177877  -0.000322  -0.170117  -0.053236
     2  O   -0.003046  -0.035158   0.097245   0.001209  -0.032221   0.035177
     3  C    0.168026   0.337026 -10.249424   0.070331   2.219039  -0.479757
     4  C   -0.222204 -10.240276  -0.109077   0.088460 -10.659181  -0.010208
     5  Cl   0.038117   0.070348   0.088868  -0.010080   0.220344  -0.000666
     6  C    0.611279   2.187610 -10.616197   0.219659  -1.912275  -0.079428
     7  O    8.642906  -0.479417  -0.011121  -0.000664  -0.079387   0.000295
     8  C   -0.479417  43.615711 -14.695796   1.188564 -14.385745   0.167499
     9  C   -0.011121 -14.695796  41.378602  -2.676291   1.324011  -0.222905
    10  Cl  -0.000664   1.188564  -2.676291  17.717507   0.243270   0.038187
    11  C   -0.079387 -14.385745   1.324011   0.243270  29.030788   0.611988
    12  O    0.000295   0.167499  -0.222905   0.038187   0.611988   8.642878
    13  O    0.035158   0.345757  -0.445504  -0.031600   0.097709  -0.003044
    14  C   -0.053142  -0.118409   0.227450  -0.023946   0.094565  -0.000099
    15  H    0.000622  -0.008426   0.015471  -0.001953  -0.039514   0.010897
    16  H    0.000130   0.005915   0.020916   0.000825   0.027038  -0.002208
    17  H   -0.000157  -0.007395   0.012180   0.002688   0.082587  -0.008453
    18  H   -0.008458  -0.200733   0.040126  -0.006744   0.022262  -0.000158
    19  H    0.010894   0.004713   0.049050   0.029790  -0.032701   0.000622
    20  H   -0.002213   0.050152  -0.061537   0.002201  -0.008658   0.000131
              13         14         15         16         17         18
     1  C    0.000227   0.001624   0.387709   0.373329   0.437132  -0.000289
     2  O    0.000570   0.000228  -0.067986  -0.060924  -0.026630  -0.000333
     3  C   -0.035250   0.020540   0.004255   0.050015  -0.200370  -0.007573
     4  C    0.097192  -0.177609   0.049520  -0.061360   0.039758   0.012037
     5  Cl   0.001210  -0.000328   0.029755   0.002205  -0.006749   0.002705
     6  C   -0.031963  -0.170430  -0.032539  -0.008651   0.022223   0.082811
     7  O    0.035158  -0.053142   0.000622   0.000130  -0.000157  -0.008458
     8  C    0.345757  -0.118409  -0.008426   0.005915  -0.007395  -0.200733
     9  C   -0.445504   0.227450   0.015471   0.020916   0.012180   0.040126
    10  Cl  -0.031600  -0.023946  -0.001953   0.000825   0.002688  -0.006744
    11  C    0.097709   0.094565  -0.039514   0.027038   0.082587   0.022262
    12  O   -0.003044  -0.000099   0.010897  -0.002208  -0.008453  -0.000158
    13  O    8.202928   0.110045   0.000186   0.000065  -0.000331  -0.026606
    14  C    0.110045   5.171957  -0.000337   0.000093  -0.000284   0.437079
    15  H    0.000186  -0.000337   0.636944  -0.031559  -0.064728   0.000298
    16  H    0.000065   0.000093  -0.031559   0.579123  -0.035891   0.000123
    17  H   -0.000331  -0.000284  -0.064728  -0.035891   0.575990  -0.000364
    18  H   -0.026606   0.437079   0.000298   0.000123  -0.000364   0.576104
    19  H   -0.068008   0.387808  -0.000163  -0.000055   0.000297  -0.064750
    20  H   -0.060911   0.373311  -0.000055  -0.000018   0.000123  -0.035921
              19         20
     1  C   -0.000336   0.000094
     2  O    0.000186   0.000065
     3  C   -0.008386   0.005958
     4  C    0.015453   0.020964
     5  Cl  -0.001956   0.000825
     6  C   -0.039454   0.027006
     7  O    0.010894  -0.002213
     8  C    0.004713   0.050152
     9  C    0.049050  -0.061537
    10  Cl   0.029790   0.002201
    11  C   -0.032701  -0.008658
    12  O    0.000622   0.000131
    13  O   -0.068008  -0.060911
    14  C    0.387808   0.373311
    15  H   -0.000163  -0.000055
    16  H   -0.000055  -0.000018
    17  H    0.000297   0.000123
    18  H   -0.064750  -0.035921
    19  H    0.636959  -0.031569
    20  H   -0.031569   0.579147
          Atomic-Atomic Spin Densities.
               1          2          3          4          5          6
     1  C    0.000000   0.000000  -0.000000  -0.000000  -0.000000   0.000000
     2  O    0.000000   0.000000  -0.000000   0.000000  -0.000000   0.000000
     3  C   -0.000000  -0.000000   0.000000   0.000000  -0.000000  -0.000000
     4  C   -0.000000   0.000000   0.000000   0.000000   0.000000  -0.000000
     5  Cl  -0.000000  -0.000000  -0.000000   0.000000  -0.000000   0.000000
     6  C    0.000000   0.000000  -0.000000  -0.000000   0.000000   0.000000
     7  O   -0.000000   0.000000  -0.000000  -0.000000   0.000000   0.000000
     8  C    0.000000   0.000000  -0.000000  -0.000000   0.000000   0.000000
     9  C    0.000000  -0.000000  -0.000000   0.000000   0.000000  -0.000000
    10  Cl   0.000000  -0.000000   0.000000  -0.000000   0.000000   0.000000
    11  C    0.000000  -0.000000   0.000000   0.000000  -0.000000  -0.000000
    12  O   -0.000000  -0.000000  -0.000000   0.000000   0.000000   0.000000
    13  O    0.000000  -0.000000   0.000000   0.000000  -0.000000  -0.000000
    14  C   -0.000000   0.000000  -0.000000  -0.000000  -0.000000   0.000000
    15  H    0.000000  -0.000000  -0.000000   0.000000  -0.000000   0.000000
    16  H   -0.000000  -0.000000  -0.000000  -0.000000  -0.000000   0.000000
    17  H   -0.000000   0.000000  -0.000000  -0.000000   0.000000  -0.000000
    18  H    0.000000  -0.000000  -0.000000   0.000000   0.000000   0.000000
    19  H   -0.000000   0.000000  -0.000000  -0.000000   0.000000  -0.000000
    20  H    0.000000  -0.000000   0.000000   0.000000  -0.000000   0.000000
               7          8          9         10         11         12
     1  C   -0.000000   0.000000   0.000000   0.000000   0.000000  -0.000000
     2  O    0.000000   0.000000  -0.000000  -0.000000  -0.000000  -0.000000
     3  C   -0.000000  -0.000000  -0.000000   0.000000   0.000000  -0.000000
     4  C   -0.000000  -0.000000   0.000000  -0.000000   0.000000   0.000000
     5  Cl   0.000000   0.000000   0.000000   0.000000  -0.000000   0.000000
     6  C    0.000000   0.000000  -0.000000   0.000000  -0.000000   0.000000
     7  O   -0.000000  -0.000000   0.000000  -0.000000   0.000000  -0.000000
     8  C   -0.000000  -0.000000  -0.000000  -0.000000   0.000000  -0.000000
     9  C    0.000000  -0.000000   0.000000   0.000000   0.000000  -0.000000
    10  Cl  -0.000000  -0.000000   0.000000  -0.000000  -0.000000   0.000000
    11  C    0.000000   0.000000   0.000000  -0.000000  -0.000000   0.000000
    12  O   -0.000000  -0.000000  -0.000000   0.000000   0.000000   0.000000
    13  O    0.000000   0.000000  -0.000000   0.000000  -0.000000   0.000000
    14  C    0.000000  -0.000000   0.000000  -0.000000   0.000000  -0.000000
    15  H   -0.000000  -0.000000  -0.000000   0.000000  -0.000000  -0.000000
    16  H   -0.000000   0.000000  -0.000000  -0.000000   0.000000   0.000000
    17  H    0.000000  -0.000000   0.000000  -0.000000   0.000000   0.000000
    18  H   -0.000000   0.000000  -0.000000   0.000000  -0.000000   0.000000
    19  H   -0.000000   0.000000   0.000000  -0.000000   0.000000  -0.000000
    20  H    0.000000  -0.000000   0.000000  -0.000000   0.000000   0.000000
              13         14         15         16         17         18
     1  C    0.000000  -0.000000   0.000000  -0.000000  -0.000000   0.000000
     2  O   -0.000000   0.000000  -0.000000  -0.000000   0.000000  -0.000000
     3  C    0.000000  -0.000000  -0.000000  -0.000000  -0.000000  -0.000000
     4  C    0.000000  -0.000000   0.000000  -0.000000  -0.000000   0.000000
     5  Cl  -0.000000  -0.000000  -0.000000  -0.000000   0.000000   0.000000
     6  C   -0.000000   0.000000   0.000000   0.000000  -0.000000   0.000000
     7  O    0.000000   0.000000  -0.000000  -0.000000   0.000000  -0.000000
     8  C    0.000000  -0.000000  -0.000000   0.000000  -0.000000   0.000000
     9  C   -0.000000   0.000000  -0.000000  -0.000000   0.000000  -0.000000
    10  Cl   0.000000  -0.000000   0.000000  -0.000000  -0.000000   0.000000
    11  C   -0.000000   0.000000  -0.000000   0.000000   0.000000  -0.000000
    12  O    0.000000  -0.000000  -0.000000   0.000000   0.000000   0.000000
    13  O   -0.000000   0.000000   0.000000  -0.000000  -0.000000  -0.000000
    14  C    0.000000   0.000000  -0.000000   0.000000   0.000000   0.000000
    15  H    0.000000  -0.000000   0.000000  -0.000000  -0.000000  -0.000000
    16  H   -0.000000   0.000000  -0.000000  -0.000000   0.000000  -0.000000
    17  H   -0.000000   0.000000  -0.000000   0.000000   0.000000   0.000000
    18  H   -0.000000   0.000000  -0.000000  -0.000000   0.000000  -0.000000
    19  H   -0.000000   0.000000   0.000000   0.000000  -0.000000   0.000000
    20  H    0.000000  -0.000000   0.000000   0.000000  -0.000000   0.000000
              19         20
     1  C   -0.000000   0.000000
     2  O    0.000000  -0.000000
     3  C   -0.000000   0.000000
     4  C   -0.000000   0.000000
     5  Cl   0.000000  -0.000000
     6  C   -0.000000   0.000000
     7  O   -0.000000   0.000000
     8  C    0.000000  -0.000000
     9  C    0.000000   0.000000
    10  Cl  -0.000000  -0.000000
    11  C    0.000000   0.000000
    12  O   -0.000000   0.000000
    13  O   -0.000000   0.000000
    14  C    0.000000  -0.000000
    15  H    0.000000   0.000000
    16  H    0.000000   0.000000
    17  H   -0.000000  -0.000000
    18  H    0.000000   0.000000
    19  H   -0.000000   0.000000
    20  H    0.000000   0.000000
 Mulliken charges and spin densities:
               1          2
     1  C   -0.279977   0.000000
     2  O   -0.187860  -0.000000
     3  C   -1.822688  -0.000000
     4  C    2.011990  -0.000000
     5  Cl   0.148819   0.000000
     6  C   -0.653245   0.000000
     7  O   -0.647513  -0.000000
     8  C   -1.822753   0.000000
     9  C    2.011811  -0.000000
    10  Cl   0.148906  -0.000000
    11  C   -0.653800  -0.000000
    12  O   -0.647511  -0.000000
    13  O   -0.187826  -0.000000
    14  C   -0.280115  -0.000000
    15  H    0.111603  -0.000000
    16  H    0.140889  -0.000000
    17  H    0.178375   0.000000
    18  H    0.178382   0.000000
    19  H    0.111607  -0.000000
    20  H    0.140906  -0.000000
 Sum of Mulliken charges =  -2.00000  -0.00000
 Mulliken charges and spin densities with hydrogens summed into heavy atoms:
               1          2
     1  C    0.150890   0.000000
     2  O   -0.187860  -0.000000
     3  C   -1.822688  -0.000000
     4  C    2.011990  -0.000000
     5  Cl   0.148819   0.000000
     6  C   -0.653245   0.000000
     7  O   -0.647513  -0.000000
     8  C   -1.822753   0.000000
     9  C    2.011811  -0.000000
    10  Cl   0.148906  -0.000000
    11  C   -0.653800  -0.000000
    12  O   -0.647511  -0.000000
    13  O   -0.187826  -0.000000
    14  C    0.150779  -0.000000
 Electronic spatial extent (au):  <R**2>=           3553.4257
 Charge=             -2.0000 electrons
 Dipole moment (field-independent basis, Debye):
    X=              0.0007    Y=              0.0012    Z=              4.4138  Tot=              4.4138
 Quadrupole moment (field-independent basis, Debye-Ang):
   XX=           -124.8217   YY=           -162.2998   ZZ=           -102.8441
   XY=              5.6808   XZ=             -0.0015   YZ=             -0.0020
 Traceless Quadrupole moment (field-independent basis, Debye-Ang):
   XX=              5.1668   YY=            -32.3113   ZZ=             27.1444
   XY=              5.6808   XZ=             -0.0015   YZ=             -0.0020
 Octapole moment (field-independent basis, Debye-Ang**2):
  XXX=              0.0096  YYY=              0.0114  ZZZ=              1.9237  XYY=              0.0053
  XXY=              0.0070  XXZ=             24.1831  XZZ=             -0.0001  YZZ=              0.0006
  YYZ=             21.5701  XYZ=             11.2552
 Hexadecapole moment (field-independent basis, Debye-Ang**3):
 XXXX=          -2721.9881 YYYY=          -2477.8143 ZZZZ=           -233.7862 XXXY=             73.4843
 XXXZ=             -0.0093 YYYX=             -3.6940 YYYZ=             -0.0192 ZZZX=              0.0014
 ZZZY=             -0.0016 XXYY=           -776.2212 XXZZ=           -484.0150 YYZZ=           -379.4458
 XXYZ=             -0.0041 YYXZ=             -0.0053 ZZXY=              0.7563
 N-N= 1.115205080671D+03 E-N=-5.884871861606D+03  KE= 1.525612079108D+03
                          Isotropic Fermi Contact Couplings
        Atom                 a.u.       MegaHertz       Gauss      10(-4) cm-1
     1  C(13)             -0.00000      -0.00000      -0.00000      -0.00000
     2  O(17)              0.00000      -0.00000      -0.00000      -0.00000
     3  C(13)             -0.00000      -0.00000      -0.00000      -0.00000
     4  C(13)              0.00000       0.00000       0.00000       0.00000
     5  Cl(35)             0.00000       0.00000       0.00000       0.00000
     6  C(13)              0.00000       0.00000       0.00000       0.00000
     7  O(17)             -0.00000       0.00000       0.00000       0.00000
     8  C(13)             -0.00000      -0.00000      -0.00000      -0.00000
     9  C(13)             -0.00000      -0.00000      -0.00000      -0.00000
    10  Cl(35)            -0.00000      -0.00000      -0.00000      -0.00000
    11  C(13)              0.00000       0.00000       0.00000       0.00000
    12  O(17)              0.00000      -0.00000      -0.00000      -0.00000
    13  O(17)             -0.00000       0.00000       0.00000       0.00000
    14  C(13)             -0.00000      -0.00000      -0.00000      -0.00000
    15  H(1)               0.00000       0.00000       0.00000       0.00000
    16  H(1)               0.00000       0.00000       0.00000       0.00000
    17  H(1)               0.00000       0.00000       0.00000       0.00000
    18  H(1)              -0.00000      -0.00000      -0.00000      -0.00000
    19  H(1)              -0.00000      -0.00000      -0.00000      -0.00000
    20  H(1)              -0.00000      -0.00000      -0.00000      -0.00000
 --------------------------------------------------------
       Center         ----  Spin Dipole Couplings  ----
                      3XX-RR        3YY-RR        3ZZ-RR
 --------------------------------------------------------
     1   Atom       -0.000000      0.000000     -0.000000
     2   Atom        0.000000      0.000000     -0.000000
     3   Atom       -0.000000      0.000000     -0.000000
     4   Atom        0.000000     -0.000000     -0.000000
     5   Atom       -0.000000      0.000000     -0.000000
     6   Atom       -0.000000      0.000000      0.000000
     7   Atom        0.000000      0.000000     -0.000000
     8   Atom        0.000000     -0.000000     -0.000000
     9   Atom        0.000000     -0.000000     -0.000000
    10   Atom       -0.000000      0.000000      0.000000
    11   Atom        0.000000      0.000000     -0.000000
    12   Atom       -0.000000      0.000000      0.000000
    13   Atom        0.000000      0.000000     -0.000000
    14   Atom       -0.000000      0.000000      0.000000
    15   Atom       -0.000000      0.000000      0.000000
    16   Atom        0.000000     -0.000000      0.000000
    17   Atom        0.000000     -0.000000      0.000000
    18   Atom        0.000000     -0.000000     -0.000000
    19   Atom        0.000000      0.000000     -0.000000
    20   Atom       -0.000000     -0.000000      0.000000
 --------------------------------------------------------
                        XY            XZ            YZ
 --------------------------------------------------------
     1   Atom        0.000000     -0.000000      0.000000
     2   Atom       -0.000000      0.000000      0.000000
     3   Atom        0.000000      0.000000      0.000000
     4   Atom       -0.000000      0.000000     -0.000000
     5   Atom        0.000000      0.000000      0.000000
     6   Atom       -0.000000      0.000000      0.000000
     7   Atom        0.000000      0.000000     -0.000000
     8   Atom       -0.000000     -0.000000      0.000000
     9   Atom        0.000000     -0.000000     -0.000000
    10   Atom       -0.000000      0.000000      0.000000
    11   Atom        0.000000      0.000000      0.000000
    12   Atom       -0.000000     -0.000000      0.000000
    13   Atom       -0.000000     -0.000000     -0.000000
    14   Atom        0.000000     -0.000000      0.000000
    15   Atom       -0.000000      0.000000     -0.000000
    16   Atom       -0.000000      0.000000      0.000000
    17   Atom       -0.000000      0.000000     -0.000000
    18   Atom        0.000000     -0.000000      0.000000
    19   Atom        0.000000      0.000000      0.000000
    20   Atom       -0.000000     -0.000000      0.000000
 --------------------------------------------------------


 ---------------------------------------------------------------------------------
              Anisotropic Spin Dipole Couplings in Principal Axis System
 ---------------------------------------------------------------------------------

       Atom             a.u.   MegaHertz   Gauss  10(-4) cm-1        Axes

              Baa    -0.0000    -0.000    -0.000    -0.000  0.7958 -0.3702  0.4793
     1 C(13)  Bbb     0.0000     0.000     0.000     0.000 -0.3315  0.3961  0.8563
              Bcc     0.0000     0.000     0.000     0.000  0.5068  0.8403 -0.1925
 
              Baa    -0.0000     0.000     0.000     0.000 -0.3269 -0.4818  0.8130
     2 O(17)  Bbb     0.0000    -0.000    -0.000    -0.000  0.6969  0.4582  0.5517
              Bcc     0.0000    -0.000    -0.000    -0.000 -0.6383  0.7470  0.1859
 
              Baa    -0.0000    -0.000    -0.000    -0.000 -0.3750 -0.1890  0.9076
     3 C(13)  Bbb    -0.0000    -0.000    -0.000    -0.000  0.7862 -0.5835  0.2033
              Bcc     0.0000     0.000     0.000     0.000  0.4912  0.7898  0.3674
 
              Baa    -0.0000    -0.000    -0.000    -0.000 -0.1227  0.6467  0.7528
     4 C(13)  Bbb    -0.0000    -0.000    -0.000    -0.000  0.4989  0.6959 -0.5165
              Bcc     0.0000     0.000     0.000     0.000  0.8579 -0.3122  0.4080
 
              Baa    -0.0000    -0.000    -0.000    -0.000  0.9079 -0.3445 -0.2390
     5 Cl(35) Bbb    -0.0000    -0.000    -0.000    -0.000  0.1240 -0.3239  0.9379
              Bcc     0.0000     0.000     0.000     0.000  0.4005  0.8812  0.2513
 
              Baa    -0.0000    -0.000    -0.000    -0.000  0.9886  0.0878 -0.1224
     6 C(13)  Bbb     0.0000     0.000     0.000     0.000  0.1273 -0.0523  0.9905
              Bcc     0.0000     0.000     0.000     0.000 -0.0805  0.9948  0.0629
 
              Baa    -0.0000     0.000     0.000     0.000 -0.6396  0.1249  0.7585
     7 O(17)  Bbb     0.0000    -0.000    -0.000    -0.000  0.0855  0.9922 -0.0912
              Bcc     0.0000    -0.000    -0.000    -0.000  0.7639 -0.0065  0.6453
 
              Baa    -0.0000    -0.000    -0.000    -0.000  0.5535  0.8178  0.1576
     8 C(13)  Bbb    -0.0000    -0.000    -0.000    -0.000  0.0090 -0.1952  0.9807
              Bcc     0.0000     0.000     0.000     0.000  0.8328 -0.5415 -0.1154
 
              Baa    -0.0000    -0.000    -0.000    -0.000 -0.0604  0.9640  0.2591
     9 C(13)  Bbb    -0.0000    -0.000    -0.000    -0.000  0.1944 -0.2432  0.9503
              Bcc     0.0000     0.000     0.000     0.000  0.9791  0.1078 -0.1727
 
              Baa    -0.0000    -0.000    -0.000    -0.000  0.8697  0.4371 -0.2291
    10 Cl(35) Bbb     0.0000     0.000     0.000     0.000  0.0927  0.3112  0.9458
              Bcc     0.0000     0.000     0.000     0.000 -0.4847  0.8438 -0.2302
 
              Baa    -0.0000    -0.000    -0.000    -0.000 -0.0192 -0.1690  0.9854
    11 C(13)  Bbb     0.0000     0.000     0.000     0.000 -0.2554  0.9537  0.1586
              Bcc     0.0000     0.000     0.000     0.000  0.9666  0.2486  0.0615
 
              Baa    -0.0000     0.000     0.000     0.000  0.7899  0.1983  0.5803
    12 O(17)  Bbb     0.0000    -0.000    -0.000    -0.000  0.1019  0.8907 -0.4431
              Bcc     0.0000    -0.000    -0.000    -0.000 -0.6047  0.4091  0.6833
 
              Baa    -0.0000     0.000     0.000     0.000  0.5696  0.4129  0.7107
    13 O(17)  Bbb    -0.0000     0.000     0.000     0.000  0.2726  0.7209 -0.6372
              Bcc     0.0000    -0.000    -0.000    -0.000  0.7754 -0.5567 -0.2981
 
              Baa    -0.0000    -0.000    -0.000    -0.000  0.9458 -0.2902  0.1458
    14 C(13)  Bbb     0.0000     0.000     0.000     0.000 -0.1994 -0.1643  0.9660
              Bcc     0.0000     0.000     0.000     0.000  0.2564  0.9428  0.2133
 
              Baa    -0.0000    -0.000    -0.000    -0.000  0.8438  0.5340  0.0537
    15 H(1)   Bbb     0.0000     0.000     0.000     0.000 -0.2159  0.2462  0.9449
              Bcc     0.0000     0.000     0.000     0.000 -0.4913  0.8088 -0.3231
 
              Baa    -0.0000    -0.000    -0.000    -0.000  0.3530  0.8575 -0.3744
    16 H(1)   Bbb     0.0000     0.000     0.000     0.000  0.5506  0.1331  0.8241
              Bcc     0.0000     0.000     0.000     0.000  0.7564 -0.4970 -0.4252
 
              Baa    -0.0000    -0.000    -0.000    -0.000 -0.0189  0.8529  0.5218
    17 H(1)   Bbb     0.0000     0.000     0.000     0.000  0.8902  0.2520 -0.3796
              Bcc     0.0000     0.000     0.000     0.000  0.4553 -0.4573  0.7639
 
              Baa    -0.0000    -0.000    -0.000    -0.000 -0.4804  0.7112 -0.5133
    18 H(1)   Bbb     0.0000     0.000     0.000     0.000 -0.4624  0.2919  0.8373
              Bcc     0.0000     0.000     0.000     0.000  0.7452  0.6396  0.1886
 
              Baa    -0.0000    -0.000    -0.000    -0.000 -0.1593 -0.1787  0.9709
    19 H(1)   Bbb    -0.0000    -0.000    -0.000    -0.000  0.7940 -0.6076  0.0185
              Bcc     0.0000     0.000     0.000     0.000  0.5867  0.7739  0.2387
 
              Baa    -0.0000    -0.000    -0.000    -0.000 -0.0913  0.7786 -0.6208
    20 H(1)   Bbb    -0.0000    -0.000    -0.000    -0.000  0.9571  0.2408  0.1613
              Bcc     0.0000     0.000     0.000     0.000 -0.2751  0.5794  0.7672
 

 ---------------------------------------------------------------------------------

 No NMR shielding tensors so no spin-rotation constants.
 Leave Link  601 at Sun Jan 21 07:37:34 2024, MaxMem=  4026531840 cpu:               8.6 elap:               2.2
 (Enter /sysapps/ubuntu-applications/gaussian/Gaussian/AVX2/g16/l9999.exe)
 1\1\GINC-ACIDSCN021\SP\UB3LYP\6-311++G(d,p)\C8H6Cl2O4(2-)\SELHAJJ1\21-
 Jan-2024\0\\#P UB3LYP/6-311++G(d,p) SCRF=(PCM,Solvent=n,n-DiMethylForm
 amide)\\Reduced\\-2,1\C,0,-3.487409,0.175594,0.374565\O,0,-2.683129,0.
 638517,-0.698995\C,0,-1.337986,0.287433,-0.585113\C,0,-0.380275,1.3079
 95,-0.522325\Cl,0,-0.955276,3.008414,-0.512849\C,0,1.036242,1.118315,-
 0.485829\O,0,1.917952,2.061007,-0.459009\C,0,1.382824,-0.277932,-0.468
 668\C,0,0.424196,-1.298705,-0.510801\Cl,0,0.997514,-2.999463,-0.482208
 \C,0,-0.990073,-1.108559,-0.597504\O,0,-1.869821,-2.050835,-0.66765\O,
 0,2.733087,-0.62786,-0.468087\C,0,3.437245,-0.186224,0.682049\H,0,-3.2
 02877,0.672302,1.316792\H,0,-4.522312,0.447933,0.131481\H,0,-3.393233,
 -0.910546,0.473866\H,0,3.332907,0.897802,0.793665\H,0,3.070228,-0.7012
 86,1.585106\H,0,4.490196,-0.453902,0.527421\\Version=ES64L-G16RevA.03\
 State=1-A\HF=-1530.1900221\S2=0.\S2-1=0.\S2A=0.\RMSD=2.702e-09\Dipole=
 -0.0783039,-0.0166311,1.7346613\Quadrupole=-1.4178583,-18.7066874,20.1
 245457,-11.7034039,-1.0776329,-0.8921221\PG=C01 [X(C8H6Cl2O4)]\\@


 VIRTUE IS LEARNED AT YOUR MOTHER'S KNEE,
 VICES ARE PICKED UP AT SOME OTHER JOINT.
 Job cpu time:       0 days  0 hours 13 minutes 30.9 seconds.
 Elapsed time:       0 days  0 hours  1 minutes 43.5 seconds.
 File lengths (MBytes):  RWF=    191 Int=      0 D2E=      0 Chk=     11 Scr=      1
 Normal termination of Gaussian 16 at Sun Jan 21 07:37:34 2024.
