
Running Job 1 of 1 044-CPCM.in
qchem 044-CPCM.in_1752774.0 /expanse/lustre/scratch/selhajj/temp_project/qcscratch/31246019/qchem1752774/ 0
/cm/shared/apps/spack/cpu/opt/spack/linux-centos8-zen2/gcc-10.2.0/qchem-5.4-akfmr7b3t57bfs6qan3padb2wnb2i7cl/exe/qcprog.exe_s 044-CPCM.in_1752774.0 /expanse/lustre/scratch/selhajj/temp_project/qcscratch/31246019/qchem1752774/
                  Welcome to Q-Chem
     A Quantum Leap Into The Future Of Chemistry


 Q-Chem 5.4, Q-Chem, Inc., Pleasanton, CA (2021)

 License issued to: University of California, San Diego (site)

 E. Epifanovsky,  A. T. B. Gilbert,  Xintian Feng,  Joonho Lee,  Yuezhi Mao,  
 N. Mardirossian,  P. Pokhilko,  A. White,  M. Wormit,  M. P. Coons,  
 A. L. Dempwolff,  Zhengting Gan,  D. Hait,  P. R. Horn,  L. D. Jacobson,  
 I. Kaliman,  J. Kussmann,  A. W. Lange,  Ka Un Lao,  D. S. Levine,  Jie Liu,  
 S. C. McKenzie,  A. F. Morrison,  K. Nanda,  F. Plasser,  D. R. Rehn,  
 M. L. Vidal,  Zhi-Qiang You,  Ying Zhu,  B. Alam,  B. Albrecht,  
 A. Aldossary,  E. Alguire,  J. H. Andersen,  D. Barton,  K. Begam,  A. Behn,  
 Y. A. Bernard,  E. J. Berquist,  H. Burton,  A. Carreras,  K. Carter-Fenk,  
 R. Chakraborty,  A. D. Chien,  K. D. Closser,  V. Cofer-Shabica,  
 S. Dasgupta,  Jia Deng,  M. de Wergifosse,  M. Diedenhofen,  Hainam Do,  
 S. Ehlert,  Po-Tung Fang,  S. Fatehi,  Qingguo Feng,  J. Gayvert,  
 Qinghui Ge,  G. Gidofalvi,  M. Goldey,  J. Gomes,  C. Gonzalez-Espinoza,  
 S. Gulania,  A. Gunina,  M. W. D. Hanson-Heine,  P. H. P. Harbach,  
 A. W. Hauser,  M. F. Herbst,  M. Hernandez Vera,  M. Hodecker,  
 Z. C. Holden,  S. Houck,  Xunkun Huang,  Kerwin Hui,  B. C. Huynh,  
 M. Ivanov,  Hyunjun Ji,  Hanjie Jiang,  B. Kaduk,  S. Kaehler,  
 K. Khistyaev,  Jaehoon Kim,  P. Klunzinger,  Z. Koczor-Benda,  
 Joong Hoon Koh,  D. Kosenkov,  L. Koulias,  T. Kowalczyk,  C. M. Krauter,  
 K. Kue,  A. Kunitsa,  T. Kus,  A. Landau,  K. V. Lawler,  D. Lefrancois,  
 S. Lehtola,  Rain Li,  Yi-Pei Li,  Jiashu Liang,  M. Liebenthal,  
 Hung-Hsuan Lin,  You-Sheng Lin,  Fenglai Liu,  Kuan-Yu Liu,  
 M. Loipersberger,  A. Luenser,  A. Manjanath,  P. Manohar,  E. Mansoor,  
 S. F. Manzer,  Shan-Ping Mao,  A. V. Marenich,  T. Markovich,  S. Mason,  
 S. A. Maurer,  P. F. McLaughlin,  M. F. S. J. Menger,  J.-M. Mewes,  
 S. A. Mewes,  P. Morgante,  J. W. Mullinax,  T. S. Nguyen-Beck,  
 K. J. Oosterbaan,  G. Paran,  Alexander C. Paul,  Suranjan K. Paul,  
 F. Pavosevic,  Zheng Pei,  S. Prager,  E. I. Proynov,  E. Ramos,  B. Rana,  
 A. E. Rask,  A. Rettig,  R. M. Richard,  F. Rob,  E. Rossomme,  T. Scheele,  
 M. Scheurer,  M. Schneider,  N. Sergueev,  S. M. Sharada,  W. Skomorowski,  
 D. W. Small,  C. J. Stein,  Yu-Chuan Su,  E. J. Sundstrom,  Zhen Tao,  
 J. Thirman,  T. Tsuchimochi,  N. M. Tubman,  S. P. Veccham,  O. Vydrov,  
 J. Wenzel,  J. Witte,  A. Yamada,  Kun Yao,  S. Yeganeh,  S. R. Yost,  
 A. Zech,  Igor Ying Zhang,  Xing Zhang,  Yu Zhang,  D. Zuev,  
 A. Aspuru-Guzik,  A. T. Bell,  N. A. Besley,  K. B. Bravaya,  B. R. Brooks,  
 D. Casanova,  Jeng-Da Chai,  S. Coriani,  C. J. Cramer,  
 A. E. DePrince, III,  R. A. DiStasio Jr.,  A. Dreuw,  B. D. Dunietz,  
 T. R. Furlani,  W. A. Goddard III,  S. Grimme,  S. Hammes-Schiffer,  
 T. Head-Gordon,  W. J. Hehre,  Chao-Ping Hsu,  T.-C. Jagau,  Yousung Jung,  
 A. Klamt,  Jing Kong,  D. S. Lambrecht,  WanZhen Liang,  N. J. Mayhall,  
 C. W. McCurdy,  J. B. Neaton,  C. Ochsenfeld,  J. A. Parkhill,  R. Peverati,  
 V. A. Rassolov,  Yihan Shao,  L. V. Slipchenko,  T. Stauch,  R. P. Steele,  
 J. E. Subotnik,  A. J. W. Thom,  A. Tkatchenko,  D. G. Truhlar,  
 T. Van Voorhis,  T. A. Wesolowski,  K. B. Whaley,  H. L. Woodcock III,  
 P. M. Zimmerman,  S. Faraji,  P. M. W. Gill,  M. Head-Gordon,  
 J. M. Herbert,  A. I. Krylov

 Contributors to earlier versions of Q-Chem not listed above: 
 R. D. Adamson,  B. Austin,  R. Baer,  J. Baker,  G. J. O. Beran,  
 K. Brandhorst,  S. T. Brown,  E. F. C. Byrd,  A. K. Chakraborty,  
 G. K. L. Chan,  Chun-Min Chang,  Yunqing Chen,  C.-L. Cheng,  
 Siu Hung Chien,  D. M. Chipman,  D. L. Crittenden,  H. Dachsel,  
 R. J. Doerksen,  A. D. Dutoi,  R. G. Edgar,  J. Fosso-Tande,  
 L. Fusti-Molnar,  D. Ghosh,  A. Ghysels,  A. Golubeva-Zadorozhnaya,  
 J. Gonthier,  M. S. Gordon,  S. R. Gwaltney,  G. Hawkins,  J. E. Herr,  
 A. Heyden,  S. Hirata,  E. G. Hohenstein,  G. Kedziora,  F. J. Keil,  
 C. Kelley,  Jihan Kim,  R. A. King,  R. Z. Khaliullin,  P. P. Korambath,  
 W. Kurlancheek,  A. Laurent,  A. M. Lee,  M. S. Lee,  S. V. Levchenko,  
 Ching Yeh Lin,  D. Liotard,  E. Livshits,  R. C. Lochan,  I. Lotan,  
 L. A. Martinez-Martinez,  P. E. Maslen,  N. Nair,  D. P. O'Neill,  
 D. Neuhauser,  E. Neuscamman,  C. M. Oana,  R. Olivares-Amaya,  R. Olson,  
 T. M. Perrine,  B. Peters,  P. A. Pieniazek,  A. Prociuk,  Y. M. Rhee,  
 J. Ritchie,  M. A. Rohrdanz,  E. Rosta,  N. J. Russ,  H. F. Schaefer III,  
 M. W. Schmidt,  N. E. Schultz,  S. Sharma,  N. Shenvi,  C. D. Sherrill,  
 A. C. Simmonett,  A. Sodt,  T. Stein,  D. Stuck,  K. S. Thanthiriwatte,  
 V. Vanovschi,  L. Vogt,  Tao Wang,  A. Warshel,  M. A. Watson,  
 C. F. Williams,  Q. Wu,  X. Xu,  Jun Yang,  W. Zhang,  Yan Zhao

 Please cite Q-Chem as follows:
 Y. Shao et al., Mol. Phys. 113, 184-215 (2015)
 DOI: 10.1080/00268976.2014.952696

 Q-Chem 5.4.0 for Intel X86 EM64T Linux

 Parts of Q-Chem use Armadillo 9.800.1 (Horizon Scraper).
 http://arma.sourceforge.net/

 Q-Chem begins on Tue Jun 11 17:26:55 2024  

 Host: 
0

     Scratch files written to /expanse/lustre/scratch/selhajj/temp_project/qcscratch/31246019/qchem1752774//
 May1621 |scratch|qcdevops|jenkins|workspace|build_RNUM    
 Processing $rem in /cm/shared/apps/spack/cpu/opt/spack/linux-centos8-zen2/gcc-10.2.0/qchem-5.4-akfmr7b3t57bfs6qan3padb2wnb2i7cl/config/preferences:
 Processing $rem in /home/selhajj/.qchemrc:
 Symmetry turned off for PCM/SM12/SMD calculation

 Checking the input file for inconsistencies... 	...done.

--------------------------------------------------------------
User input:
--------------------------------------------------------------
$molecule
0 1
C                 -0.9266980000      2.0953680000      0.0243730000
C                 -2.1246160000      1.2551420000     -0.0122780000
C                 -2.0833030000     -0.0823910000     -0.0782180000
C                 -0.8358350000     -0.8468660000     -0.1202410000
C                  0.4220010000     -0.0137730000     -0.0539270000
C                  0.3802160000      1.3387710000      0.0121980000
O                 -0.9788690000      3.3116420000      0.0569860000
O                 -0.8129910000     -2.0613800000     -0.2070320000
C                  1.6243350000      2.1802000000      0.0752860000
C                  1.7158180000     -0.7790360000     -0.0696360000
O                 -3.3390790000     -0.6063830000     -0.1682970000
O                 -3.4105370000      1.7071430000     -0.0543090000
C                 -4.2104310000      0.5151360000      0.0803320000
H                  2.2185280000      1.9349850000      0.9614390000
H                  1.3686590000      3.2378940000      0.1098790000
H                  2.2621570000      2.0031900000     -0.7964140000
H                  1.5257110000     -1.8496880000     -0.1229910000
H                  2.3046460000     -0.5718570000      0.8295520000
H                  2.3310140000     -0.4911490000     -0.9280950000
H                 -5.0096460000      0.5268520000     -0.6586490000
H                 -4.5941020000      0.4527930000      1.1049390000
$end
$rem
MAX_SCF_CYCLES=200
BASIS  =  6-311++G(d,p)
GUI  =  2
JOB_TYPE  =  SP
METHOD  =  B3LYP
SOLVENT_METHOD = PCM
$end
$pcm
theory = CPCM
$end
$solvent
dielectric 37.219
opticaldielectric 1.43
$end





--------------------------------------------------------------
 ----------------------------------------------------------------
             Standard Nuclear Orientation (Angstroms)
    I     Atom           X                Y                Z
 ----------------------------------------------------------------
    1      C      -0.9266980000     2.0953680000     0.0243730000
    2      C      -2.1246160000     1.2551420000    -0.0122780000
    3      C      -2.0833030000    -0.0823910000    -0.0782180000
    4      C      -0.8358350000    -0.8468660000    -0.1202410000
    5      C       0.4220010000    -0.0137730000    -0.0539270000
    6      C       0.3802160000     1.3387710000     0.0121980000
    7      O      -0.9788690000     3.3116420000     0.0569860000
    8      O      -0.8129910000    -2.0613800000    -0.2070320000
    9      C       1.6243350000     2.1802000000     0.0752860000
   10      C       1.7158180000    -0.7790360000    -0.0696360000
   11      O      -3.3390790000    -0.6063830000    -0.1682970000
   12      O      -3.4105370000     1.7071430000    -0.0543090000
   13      C      -4.2104310000     0.5151360000     0.0803320000
   14      H       2.2185280000     1.9349850000     0.9614390000
   15      H       1.3686590000     3.2378940000     0.1098790000
   16      H       2.2621570000     2.0031900000    -0.7964140000
   17      H       1.5257110000    -1.8496880000    -0.1229910000
   18      H       2.3046460000    -0.5718570000     0.8295520000
   19      H       2.3310140000    -0.4911490000    -0.9280950000
   20      H      -5.0096460000     0.5268520000    -0.6586490000
   21      H      -4.5941020000     0.4527930000     1.1049390000
 ----------------------------------------------------------------
 Nuclear Repulsion Energy =         791.31751212 hartrees
 There are       47 alpha and       47 beta electrons
 Requested basis set is 6-311++G(d,p)
 There are 118 shells and 342 basis functions

 Total QAlloc Memory Limit   8000 MB
 Mega-Array Size       188 MB
 MEM_STATIC part       192 MB
 Discretize the solute cavity surface with Lebedev spheres
	Using 110 Lebedev grid points for each H atom
	Using 194 Lebedev grid points for other atoms
	Atomic van der Waals radii will be scaled by 1.20
 Remove points where switching function is < 1.0e-08
 Keep 1443 surface tesserae and discard 1959 interior tesserae
 Molecular Surface Area = 205.646 Angst**2
 A cutoff of  1.0D-08 yielded   5371 shell pairs
 There are     46982 function pairs (     50403 Cartesian)
 Smallest overlap matrix eigenvalue = 6.57E-07

 Q-Chem warning in module stvman/mkSTV.C, line 323:

 Overlap eigenvalue is smaller than square root of threshold
 Use THRESH >= 12 to get rid of this warning

 Linear dependence detected in AO basis
 Tighter screening thresholds may be required for diffuse basis sets
 Use S2THRESH > 14 and THRESH = 14 in case of SCF convergence issues
 Number of orthogonalized atomic orbitals = 340
 Maximum deviation from orthogonality = 9.476E-11

 Scale SEOQF with 1.000000e-01/1.000000e-01/1.000000e-01

 Standard Electronic Orientation quadrupole field applied
 Nucleus-field energy     =     0.0000000344 hartrees
 Guess from superposition of atomic densities
 Warning:  Energy on first SCF cycle will be non-variational
 SAD guess density has 94.000000 electrons

 -----------------------------------------------------------------------
  General SCF calculation program by
  Eric Jon Sundstrom, Paul Horn, Yuezhi Mao, Dmitri Zuev, Alec White,
  David Stuck, Shaama M.S., Shane Yost, Joonho Lee, David Small,
  Daniel Levine, Susi Lehtola, Hugh Burton, Evgeny Epifanovsky,
  Bang C. Huynh
 -----------------------------------------------------------------------
 Exchange:     0.2000 Hartree-Fock + 0.0800 Slater + 0.7200 B88
 Correlation:  0.1900 VWN1RPA + 0.8100 LYP
 Using SG-1 standard quadrature grid
 using 8 threads for integral computing
 -------------------------------------------------------
 OpenMP Integral computing Module                
 Release: version 1.0, May 2013, Q-Chem Inc. Pittsburgh 
 -------------------------------------------------------
 A restricted SCF calculation will be
 performed using DIIS
 SCF converges when DIIS error is below 1.0e-05
 ---------------------------------------
  Cycle       Energy         DIIS error
 ---------------------------------------
    1    -651.7250576688      3.57e-02  
    2    -648.5997282036      4.27e-03  
    3    -648.2565167880      7.12e-03  
    4    -648.7866633207      1.43e-03  
    5    -648.8110151970      3.44e-04  
    6    -648.8123602032      1.13e-04  
    7    -648.8124995239      4.17e-05  
    8    -648.8125156730      9.16e-06  Convergence criterion met
 ---------------------------------------
 SCF time:   CPU 147.28s  wall 19.00s 

************** Final PCM Free Energy Summary **************
 G_electrostatic  =      -0.01933331 hartree =     -12.13183590 kcal/mol
 G_cavitation     =       0.00000000 hartree =       0.00000000 kcal/mol
 G_dispersion     =       0.00000000 hartree =       0.00000000 kcal/mol
 G_repulsion      =       0.00000000 hartree =       0.00000000 kcal/mol
 --------------------------------------------------
 Non-electrostatic Free Energy =       0.00000000 hartree =       0.00000000 kcal/mol
 Total                         =      -0.01933331 hartree =     -12.13183590 kcal/mol
 --------------------------------------------------
 SCF Energy (H0 + V/2)                       =    -648.81251567 
 Solute Internal Energy (H0)                 =    -648.79318236 
 Total Free Energy (H0 + V/2 + non-elec)     =    -648.81251567 hartree
                                             = -407135.99848815 kcal/mol
***********************************************************

 SCF   energy in the final basis set =     -648.8125156730
 Total energy in the final basis set =     -648.8125156730
 
 --------------------------------------------------------------
 
                    Orbital Energies (a.u.)
 --------------------------------------------------------------
 
 Alpha MOs
 -- Occupied --
-19.1933 -19.1933 -19.1473 -19.1473 -10.3016 -10.2964 -10.2964 -10.2641
-10.2633 -10.2148 -10.2141 -10.1717 -10.1717  -1.1577  -1.0830  -1.0792
 -1.0597  -0.8720  -0.8170  -0.7522  -0.7222  -0.7069  -0.6733  -0.6191
 -0.6179  -0.5575  -0.5402  -0.5361  -0.4963  -0.4845  -0.4748  -0.4660
 -0.4389  -0.4381  -0.4257  -0.4190  -0.4157  -0.4099  -0.4012  -0.3871
 -0.3851  -0.3805  -0.3756  -0.3009  -0.2904  -0.2877  -0.2371
 -- Virtual --
 -0.1361  -0.0123  -0.0097   0.0024   0.0070   0.0141   0.0280   0.0294
  0.0302   0.0366   0.0392   0.0552   0.0569   0.0621   0.0735   0.0738
  0.0813   0.0933   0.0978   0.1009   0.1106   0.1115   0.1153   0.1182
  0.1266   0.1278   0.1338   0.1360   0.1371   0.1418   0.1443   0.1465
  0.1474   0.1499   0.1552   0.1580   0.1680   0.1761   0.1788   0.1811
  0.1838   0.1923   0.1973   0.2008   0.2045   0.2112   0.2117   0.2373
  0.2428   0.2450   0.2519   0.2546   0.2566   0.2643   0.2708   0.2746
  0.2778   0.2805   0.2907   0.2944   0.2961   0.2979   0.3001   0.3090
  0.3176   0.3247   0.3276   0.3353   0.3371   0.3427   0.3455   0.3610
  0.3872   0.3886   0.4027   0.4059   0.4100   0.4260   0.4352   0.4447
  0.4556   0.4610   0.4706   0.4822   0.4872   0.4988   0.5227   0.5432
  0.5666   0.5716   0.5798   0.5855   0.5912   0.5973   0.5976   0.6269
  0.6373   0.6455   0.6550   0.6674   0.6709   0.6711   0.6831   0.6906
  0.6972   0.7038   0.7220   0.7304   0.7387   0.7483   0.7760   0.8093
  0.8179   0.8562   0.8694   0.8777   0.8946   0.9177   0.9262   0.9322
  0.9336   0.9598   0.9753   0.9887   1.0212   1.0232   1.0293   1.0388
  1.0428   1.0823   1.1069   1.1135   1.1202   1.1532   1.1583   1.1878
  1.1898   1.2018   1.2049   1.2177   1.2296   1.2574   1.2582   1.2836
  1.2994   1.3173   1.3246   1.3450   1.3475   1.3610   1.3634   1.4411
  1.4547   1.4673   1.5281   1.5336   1.5422   1.5571   1.5767   1.5822
  1.5908   1.6051   1.6066   1.6226   1.6241   1.6447   1.6475   1.6906
  1.6938   1.6946   1.7220   1.7369   1.7390   1.7651   1.7698   1.7964
  1.8201   1.8258   1.8343   1.8503   1.8516   1.8648   1.8696   1.8829
  1.8941   1.9298   2.0177   2.0351   2.0395   2.0882   2.0969   2.1131
  2.1696   2.1762   2.1956   2.2321   2.2431   2.2652   2.3028   2.3215
  2.3453   2.3849   2.3911   2.4689   2.4818   2.4951   2.5085   2.5176
  2.5317   2.5371   2.5762   2.5789   2.6150   2.6293   2.6510   2.6608
  2.6720   2.7234   2.7291   2.7920   2.8056   2.8135   2.8248   2.8615
  2.8687   2.8830   2.9005   2.9086   2.9252   2.9368   3.0002   3.0099
  3.0359   3.0451   3.0536   3.0909   3.1084   3.1509   3.1752   3.1945
  3.2005   3.2055   3.2772   3.3159   3.3324   3.3470   3.3648   3.4515
  3.5053   3.5288   3.5579   3.5770   3.7203   3.7516   3.7850   3.7867
  3.8077   3.8274   3.8948   3.9110   3.9658   4.0514   4.1578   4.1588
  4.1961   4.2420   4.3603   4.7230   4.9943   5.0066   5.0375   5.0737
  5.1896   5.2336   5.3495   5.4616   5.5210   5.7259   5.7546   5.8277
 23.5573  23.6901  23.7828  23.8636  23.9092  23.9685  23.9790  24.1305
 24.1712  49.8851  49.9396  50.0178  50.0641
 --------------------------------------------------------------
 
          Ground-State Mulliken Net Atomic Charges

     Atom                 Charge (a.u.)
  ----------------------------------------
      1 C                    -0.991988
      2 C                     0.425899
      3 C                     0.427188
      4 C                    -0.993089
      5 C                     0.728974
      6 C                     0.729396
      7 O                    -0.314684
      8 O                    -0.314762
      9 C                    -0.461643
     10 C                    -0.461923
     11 O                    -0.172131
     12 O                    -0.172426
     13 C                    -0.042203
     14 H                     0.186712
     15 H                     0.196111
     16 H                     0.185077
     17 H                     0.195714
     18 H                     0.185504
     19 H                     0.186409
     20 H                     0.226861
     21 H                     0.251005
  ----------------------------------------
  Sum of atomic charges =     0.000000

 -----------------------------------------------------------------
                    Cartesian Multipole Moments
 -----------------------------------------------------------------
    Charge (ESU x 10^10)
                 0.0000
    Dipole Moment (Debye)
         X       0.8280      Y      -0.0058      Z       0.6501
       Tot       1.0528
    Quadrupole Moments (Debye-Ang)
        XX     -55.9012     XY       2.0226     YY    -100.8658
        XZ      -1.8571     YZ      -1.0318     ZZ     -72.4583
    Octopole Moments (Debye-Ang^2)
       XXX     138.8428    XXY     -39.8130    XYY     121.8484
       YYY    -186.1105    XXZ       8.2515    XYZ       1.2562
       YYZ       3.9017    XZZ      72.1823    YZZ     -44.6625
       ZZZ       7.9155
    Hexadecapole Moments (Debye-Ang^3)
      XXXX   -1660.1159   XXXY      98.6731   XXYY    -659.1725
      XYYY     217.9963   YYYY   -1535.1561   XXXZ     -25.0483
      XXYZ      -8.4840   XYYZ      -5.3868   YYYZ     -27.3729
      XXZZ    -355.4089   XYZZ      41.7121   YYZZ    -222.2592
      XZZZ     -11.7929   YZZZ     -19.1177   ZZZZ     -96.2011
 -----------------------------------------------------------------
 Total job time:  82.56s(wall), 155.45s(cpu) 
 Tue Jun 11 17:28:17 2024

        *************************************************************
        *                                                           *
        *  Thank you very much for using Q-Chem.  Have a nice day.  *
        *                                                           *
        *************************************************************


