 Entering Gaussian System, Link 0=g16
 Input=122.com
 Output=122.log
 Initial command:
 /sysapps/ubuntu-applications/gaussian/Gaussian/AVX2/g16/l1.exe "/scratch/selhajj1/4406728/Gau-54423.inp" -scrdir="/scratch/selhajj1/4406728/"
 Entering Link 1 = /sysapps/ubuntu-applications/gaussian/Gaussian/AVX2/g16/l1.exe PID=     54432.
  
 Copyright (c) 1988,1990,1992,1993,1995,1998,2003,2009,2016,
            Gaussian, Inc.  All Rights Reserved.
  
 This is part of the Gaussian(R) 16 program.  It is based on
 the Gaussian(R) 09 system (copyright 2009, Gaussian, Inc.),
 the Gaussian(R) 03 system (copyright 2003, Gaussian, Inc.),
 the Gaussian(R) 98 system (copyright 1998, Gaussian, Inc.),
 the Gaussian(R) 94 system (copyright 1995, Gaussian, Inc.),
 the Gaussian 92(TM) system (copyright 1992, Gaussian, Inc.),
 the Gaussian 90(TM) system (copyright 1990, Gaussian, Inc.),
 the Gaussian 88(TM) system (copyright 1988, Gaussian, Inc.),
 the Gaussian 86(TM) system (copyright 1986, Carnegie Mellon
 University), and the Gaussian 82(TM) system (copyright 1983,
 Carnegie Mellon University). Gaussian is a federally registered
 trademark of Gaussian, Inc.
  
 This software contains proprietary and confidential information,
 including trade secrets, belonging to Gaussian, Inc.
  
 This software is provided under written license and may be
 used, copied, transmitted, or stored only in accord with that
 written license.
  
 The following legend is applicable only to US Government
 contracts under FAR:
  
                    RESTRICTED RIGHTS LEGEND
  
 Use, reproduction and disclosure by the US Government is
 subject to restrictions as set forth in subparagraphs (a)
 and (c) of the Commercial Computer Software - Restricted
 Rights clause in FAR 52.227-19.
  
 Gaussian, Inc.
 340 Quinnipiac St., Bldg. 40, Wallingford CT 06492
  
  
 ---------------------------------------------------------------
 Warning -- This program may not be used in any manner that
 competes with the business of Gaussian, Inc. or will provide
 assistance to any competitor of Gaussian, Inc.  The licensee
 of this program is prohibited from giving any competitor of
 Gaussian, Inc. access to this program.  By using this program,
 the user acknowledges that Gaussian, Inc. is engaged in the
 business of creating and licensing software in the field of
 computational chemistry and represents and warrants to the
 licensee that it is not a competitor of Gaussian, Inc. and that
 it will not use this program in any manner prohibited above.
 ---------------------------------------------------------------
  

 Cite this work as:
 Gaussian 16, Revision A.03,
 M. J. Frisch, G. W. Trucks, H. B. Schlegel, G. E. Scuseria, 
 M. A. Robb, J. R. Cheeseman, G. Scalmani, V. Barone, 
 G. A. Petersson, H. Nakatsuji, X. Li, M. Caricato, A. V. Marenich, 
 J. Bloino, B. G. Janesko, R. Gomperts, B. Mennucci, H. P. Hratchian, 
 J. V. Ortiz, A. F. Izmaylov, J. L. Sonnenberg, D. Williams-Young, 
 F. Ding, F. Lipparini, F. Egidi, J. Goings, B. Peng, A. Petrone, 
 T. Henderson, D. Ranasinghe, V. G. Zakrzewski, J. Gao, N. Rega, 
 G. Zheng, W. Liang, M. Hada, M. Ehara, K. Toyota, R. Fukuda, 
 J. Hasegawa, M. Ishida, T. Nakajima, Y. Honda, O. Kitao, H. Nakai, 
 T. Vreven, K. Throssell, J. A. Montgomery, Jr., J. E. Peralta, 
 F. Ogliaro, M. J. Bearpark, J. J. Heyd, E. N. Brothers, K. N. Kudin, 
 V. N. Staroverov, T. A. Keith, R. Kobayashi, J. Normand, 
 K. Raghavachari, A. P. Rendell, J. C. Burant, S. S. Iyengar, 
 J. Tomasi, M. Cossi, J. M. Millam, M. Klene, C. Adamo, R. Cammi, 
 J. W. Ochterski, R. L. Martin, K. Morokuma, O. Farkas, 
 J. B. Foresman, and D. J. Fox, Gaussian, Inc., Wallingford CT, 2016.
 
 ******************************************
 Gaussian 16:  ES64L-G16RevA.03 25-Dec-2016
                10-Feb-2024 
 ******************************************
 %chk=122.chk
 %nproc=8
 Will use up to    8 processors via shared memory.
 %mem=30GB
 ----------------------------------------------------------------------
 #P UB3LYP/6-311++G(d,p) nosym opt freq SCRF=(PCM,Solvent=n,n-DiMethylF
 ormamide)
 ----------------------------------------------------------------------
 1/18=20,19=15,26=3,38=1/1,3;
 2/9=110,12=2,15=1,17=6,18=5,40=1/2;
 3/5=4,6=6,7=1111,11=2,25=1,30=1,70=2201,71=1,72=148,74=-5,116=2/1,2,3;
 4//1;
 5/5=2,38=5,53=148/2;
 6/7=2,8=2,9=2,10=2,28=1/1;
 7/30=1/1,2,3,16;
 1/18=20,19=15,26=3/3(2);
 2/9=110,15=1/2;
 99//99;
 2/9=110,15=1/2;
 3/5=4,6=6,7=1111,11=2,25=1,30=1,70=2205,71=1,72=148,74=-5,116=2/1,2,3;
 4/5=5,16=3,69=1/1;
 5/5=2,38=5,53=148/2;
 7/30=1/1,2,3,16;
 1/18=20,19=15,26=3/3(-5);
 2/9=110,15=1/2;
 6/7=2,8=2,9=2,10=2,19=2,28=1/1;
 99/9=1/99;
 Leave Link    1 at Sat Feb 10 15:46:25 2024, MaxMem=  4026531840 cpu:               0.6 elap:               0.1
 (Enter /sysapps/ubuntu-applications/gaussian/Gaussian/AVX2/g16/l101.exe)
 --------
 Oxidized
 --------
 Symbolic Z-matrix:
 Charge =  0 Multiplicity = 1
 Cl                   -2.41699   2.85139   1.6221 
 C                    -2.37905   1.22681   0.97499 
 C                    -3.6144    0.62258   0.74581 
 C                    -3.68346  -0.65881   0.20814 
 C                    -2.51798  -1.33192  -0.13185 
 C                    -1.2807   -0.72038   0.07047 
 C                    -0.05719  -1.45595  -0.36506 
 O                    -0.1165   -2.61818  -0.72762 
 C                     1.22777  -0.69807  -0.41137 
 C                     2.31238  -1.2889   -1.05971 
 C                     3.50925  -0.59489  -1.17314 
 C                     3.62244   0.6867   -0.64349 
 C                     2.54971   1.27038   0.029 
 Cl                    2.797     2.8973    0.6218 
 C                     1.32992   0.58447   0.16666 
 C                     0.17542   1.11566   0.96523 
 O                     0.34122   1.91002   1.86563 
 C                    -1.18346   0.56225   0.64916 
 H                    -4.51676   1.16628   0.99469 
 H                    -4.65062  -1.12051   0.04745 
 H                    -2.53957  -2.32486  -0.56201 
 H                     2.19009  -2.28264  -1.47076 
 H                     4.35583  -1.04043  -1.68222 
 H                     4.54344   1.24649  -0.74449 
 
 ITRead=  0  0  0  0  0  0  0  0  0  0  0  0  0  0  0  0  0  0  0  0
 ITRead=  0  0  0  0
 MicOpt= -1 -1 -1 -1 -1 -1 -1 -1 -1 -1 -1 -1 -1 -1 -1 -1 -1 -1 -1 -1
 MicOpt= -1 -1 -1 -1
 NAtoms=     24 NQM=       24 NQMF=       0 NMMI=      0 NMMIF=      0
                NMic=       0 NMicF=      0.
                    Isotopes and Nuclear Properties:
 (Nuclear quadrupole moments (NQMom) in fm**2, nuclear magnetic moments (NMagM)
  in nuclear magnetons)

  Atom         1           2           3           4           5           6           7           8           9          10
 IAtWgt=          35          12          12          12          12          12          12          16          12          12
 AtmWgt=  34.9688527  12.0000000  12.0000000  12.0000000  12.0000000  12.0000000  12.0000000  15.9949146  12.0000000  12.0000000
 NucSpn=           3           0           0           0           0           0           0           0           0           0
 AtZEff=  -0.0000000  -0.0000000  -0.0000000  -0.0000000  -0.0000000  -0.0000000  -0.0000000  -0.0000000  -0.0000000  -0.0000000
 NQMom=   -8.1650000   0.0000000   0.0000000   0.0000000   0.0000000   0.0000000   0.0000000   0.0000000   0.0000000   0.0000000
 NMagM=    0.8218740   0.0000000   0.0000000   0.0000000   0.0000000   0.0000000   0.0000000   0.0000000   0.0000000   0.0000000
 AtZNuc=  17.0000000   6.0000000   6.0000000   6.0000000   6.0000000   6.0000000   6.0000000   8.0000000   6.0000000   6.0000000

  Atom        11          12          13          14          15          16          17          18          19          20
 IAtWgt=          12          12          12          35          12          12          16          12           1           1
 AtmWgt=  12.0000000  12.0000000  12.0000000  34.9688527  12.0000000  12.0000000  15.9949146  12.0000000   1.0078250   1.0078250
 NucSpn=           0           0           0           3           0           0           0           0           1           1
 AtZEff=  -0.0000000  -0.0000000  -0.0000000  -0.0000000  -0.0000000  -0.0000000  -0.0000000  -0.0000000  -0.0000000  -0.0000000
 NQMom=    0.0000000   0.0000000   0.0000000  -8.1650000   0.0000000   0.0000000   0.0000000   0.0000000   0.0000000   0.0000000
 NMagM=    0.0000000   0.0000000   0.0000000   0.8218740   0.0000000   0.0000000   0.0000000   0.0000000   2.7928460   2.7928460
 AtZNuc=   6.0000000   6.0000000   6.0000000  17.0000000   6.0000000   6.0000000   8.0000000   6.0000000   1.0000000   1.0000000

  Atom        21          22          23          24
 IAtWgt=           1           1           1           1
 AtmWgt=   1.0078250   1.0078250   1.0078250   1.0078250
 NucSpn=           1           1           1           1
 AtZEff=  -0.0000000  -0.0000000  -0.0000000  -0.0000000
 NQMom=    0.0000000   0.0000000   0.0000000   0.0000000
 NMagM=    2.7928460   2.7928460   2.7928460   2.7928460
 AtZNuc=   1.0000000   1.0000000   1.0000000   1.0000000
 Leave Link  101 at Sat Feb 10 15:46:26 2024, MaxMem=  4026531840 cpu:               4.1 elap:               0.7
 (Enter /sysapps/ubuntu-applications/gaussian/Gaussian/AVX2/g16/l103.exe)

 GradGradGradGradGradGradGradGradGradGradGradGradGradGradGradGradGradGrad
 Berny optimization.
 Initialization pass.
                           ----------------------------
                           !    Initial Parameters    !
                           ! (Angstroms and Degrees)  !
 --------------------------                            --------------------------
 ! Name  Definition              Value          Derivative Info.                !
 --------------------------------------------------------------------------------
 ! R1    R(1,2)                  1.7491         estimate D2E/DX2                !
 ! R2    R(2,3)                  1.3942         estimate D2E/DX2                !
 ! R3    R(2,18)                 1.4062         estimate D2E/DX2                !
 ! R4    R(3,4)                  1.3913         estimate D2E/DX2                !
 ! R5    R(3,19)                 1.0825         estimate D2E/DX2                !
 ! R6    R(4,5)                  1.3882         estimate D2E/DX2                !
 ! R7    R(4,20)                 1.0837         estimate D2E/DX2                !
 ! R8    R(5,6)                  1.3949         estimate D2E/DX2                !
 ! R9    R(5,21)                 1.0823         estimate D2E/DX2                !
 ! R10   R(6,7)                  1.4926         estimate D2E/DX2                !
 ! R11   R(6,18)                 1.4105         estimate D2E/DX2                !
 ! R12   R(7,8)                  1.2189         estimate D2E/DX2                !
 ! R13   R(7,9)                  1.4925         estimate D2E/DX2                !
 ! R14   R(9,10)                 1.3949         estimate D2E/DX2                !
 ! R15   R(9,15)                 1.4105         estimate D2E/DX2                !
 ! R16   R(10,11)                1.3882         estimate D2E/DX2                !
 ! R17   R(10,22)                1.0823         estimate D2E/DX2                !
 ! R18   R(11,12)                1.3913         estimate D2E/DX2                !
 ! R19   R(11,23)                1.0837         estimate D2E/DX2                !
 ! R20   R(12,13)                1.3942         estimate D2E/DX2                !
 ! R21   R(12,24)                1.0825         estimate D2E/DX2                !
 ! R22   R(13,14)                1.7491         estimate D2E/DX2                !
 ! R23   R(13,15)                1.4062         estimate D2E/DX2                !
 ! R24   R(15,16)                1.5009         estimate D2E/DX2                !
 ! R25   R(16,17)                1.2121         estimate D2E/DX2                !
 ! R26   R(16,18)                1.5009         estimate D2E/DX2                !
 ! A1    A(1,2,3)              116.3683         estimate D2E/DX2                !
 ! A2    A(1,2,18)             122.8967         estimate D2E/DX2                !
 ! A3    A(3,2,18)             120.6958         estimate D2E/DX2                !
 ! A4    A(2,3,4)              120.4417         estimate D2E/DX2                !
 ! A5    A(2,3,19)             118.8913         estimate D2E/DX2                !
 ! A6    A(4,3,19)             120.6669         estimate D2E/DX2                !
 ! A7    A(3,4,5)              119.9702         estimate D2E/DX2                !
 ! A8    A(3,4,20)             119.6023         estimate D2E/DX2                !
 ! A9    A(5,4,20)             120.4239         estimate D2E/DX2                !
 ! A10   A(4,5,6)              119.7749         estimate D2E/DX2                !
 ! A11   A(4,5,21)             121.6981         estimate D2E/DX2                !
 ! A12   A(6,5,21)             118.5249         estimate D2E/DX2                !
 ! A13   A(5,6,7)              117.9512         estimate D2E/DX2                !
 ! A14   A(5,6,18)             121.2872         estimate D2E/DX2                !
 ! A15   A(7,6,18)             120.7544         estimate D2E/DX2                !
 ! A16   A(6,7,8)              121.1192         estimate D2E/DX2                !
 ! A17   A(6,7,9)              117.6805         estimate D2E/DX2                !
 ! A18   A(8,7,9)              121.1198         estimate D2E/DX2                !
 ! A19   A(7,9,10)             117.9534         estimate D2E/DX2                !
 ! A20   A(7,9,15)             120.754          estimate D2E/DX2                !
 ! A21   A(10,9,15)            121.2855         estimate D2E/DX2                !
 ! A22   A(9,10,11)            119.7758         estimate D2E/DX2                !
 ! A23   A(9,10,22)            118.5253         estimate D2E/DX2                !
 ! A24   A(11,10,22)           121.6968         estimate D2E/DX2                !
 ! A25   A(10,11,12)           119.9709         estimate D2E/DX2                !
 ! A26   A(10,11,23)           120.4234         estimate D2E/DX2                !
 ! A27   A(12,11,23)           119.6023         estimate D2E/DX2                !
 ! A28   A(11,12,13)           120.4416         estimate D2E/DX2                !
 ! A29   A(11,12,24)           120.6666         estimate D2E/DX2                !
 ! A30   A(13,12,24)           118.8917         estimate D2E/DX2                !
 ! A31   A(12,13,14)           116.366          estimate D2E/DX2                !
 ! A32   A(12,13,15)           120.6949         estimate D2E/DX2                !
 ! A33   A(14,13,15)           122.8997         estimate D2E/DX2                !
 ! A34   A(9,15,13)            117.7906         estimate D2E/DX2                !
 ! A35   A(9,15,16)            118.9565         estimate D2E/DX2                !
 ! A36   A(13,15,16)           123.1407         estimate D2E/DX2                !
 ! A37   A(15,16,17)           121.4631         estimate D2E/DX2                !
 ! A38   A(15,16,18)           116.9924         estimate D2E/DX2                !
 ! A39   A(17,16,18)           121.4608         estimate D2E/DX2                !
 ! A40   A(2,18,6)             117.7892         estimate D2E/DX2                !
 ! A41   A(2,18,16)            123.1441         estimate D2E/DX2                !
 ! A42   A(6,18,16)            118.9543         estimate D2E/DX2                !
 ! D1    D(1,2,3,4)            178.7492         estimate D2E/DX2                !
 ! D2    D(1,2,3,19)            -1.3547         estimate D2E/DX2                !
 ! D3    D(18,2,3,4)             0.9622         estimate D2E/DX2                !
 ! D4    D(18,2,3,19)         -179.1417         estimate D2E/DX2                !
 ! D5    D(1,2,18,6)          -176.8278         estimate D2E/DX2                !
 ! D6    D(1,2,18,16)            7.0725         estimate D2E/DX2                !
 ! D7    D(3,2,18,6)             0.8108         estimate D2E/DX2                !
 ! D8    D(3,2,18,16)         -175.2889         estimate D2E/DX2                !
 ! D9    D(2,3,4,5)             -1.458          estimate D2E/DX2                !
 ! D10   D(2,3,4,20)           179.2178         estimate D2E/DX2                !
 ! D11   D(19,3,4,5)           178.6478         estimate D2E/DX2                !
 ! D12   D(19,3,4,20)           -0.6764         estimate D2E/DX2                !
 ! D13   D(3,4,5,6)              0.1471         estimate D2E/DX2                !
 ! D14   D(3,4,5,21)          -179.3134         estimate D2E/DX2                !
 ! D15   D(20,4,5,6)           179.4656         estimate D2E/DX2                !
 ! D16   D(20,4,5,21)            0.0051         estimate D2E/DX2                !
 ! D17   D(4,5,6,7)           -177.3489         estimate D2E/DX2                !
 ! D18   D(4,5,6,18)             1.6802         estimate D2E/DX2                !
 ! D19   D(21,5,6,7)             2.1287         estimate D2E/DX2                !
 ! D20   D(21,5,6,18)         -178.8422         estimate D2E/DX2                !
 ! D21   D(5,6,7,8)             -9.1674         estimate D2E/DX2                !
 ! D22   D(5,6,7,9)            167.6046         estimate D2E/DX2                !
 ! D23   D(18,6,7,8)           171.7981         estimate D2E/DX2                !
 ! D24   D(18,6,7,9)           -11.4299         estimate D2E/DX2                !
 ! D25   D(5,6,18,2)            -2.1349         estimate D2E/DX2                !
 ! D26   D(5,6,18,16)          174.1332         estimate D2E/DX2                !
 ! D27   D(7,6,18,2)           176.8671         estimate D2E/DX2                !
 ! D28   D(7,6,18,16)           -6.8649         estimate D2E/DX2                !
 ! D29   D(6,7,9,10)          -167.6022         estimate D2E/DX2                !
 ! D30   D(6,7,9,15)            11.4438         estimate D2E/DX2                !
 ! D31   D(8,7,9,10)             9.1699         estimate D2E/DX2                !
 ! D32   D(8,7,9,15)          -171.7842         estimate D2E/DX2                !
 ! D33   D(7,9,10,11)          177.3661         estimate D2E/DX2                !
 ! D34   D(7,9,10,22)           -2.1163         estimate D2E/DX2                !
 ! D35   D(15,9,10,11)          -1.6746         estimate D2E/DX2                !
 ! D36   D(15,9,10,22)         178.843          estimate D2E/DX2                !
 ! D37   D(7,9,15,13)         -176.8902         estimate D2E/DX2                !
 ! D38   D(7,9,15,16)            6.8379         estimate D2E/DX2                !
 ! D39   D(10,9,15,13)           2.1237         estimate D2E/DX2                !
 ! D40   D(10,9,15,16)        -174.1482         estimate D2E/DX2                !
 ! D41   D(9,10,11,12)          -0.1436         estimate D2E/DX2                !
 ! D42   D(9,10,11,23)        -179.467          estimate D2E/DX2                !
 ! D43   D(22,10,11,12)        179.3219         estimate D2E/DX2                !
 ! D44   D(22,10,11,23)         -0.0015         estimate D2E/DX2                !
 ! D45   D(10,11,12,13)          1.4512         estimate D2E/DX2                !
 ! D46   D(10,11,12,24)       -178.6533         estimate D2E/DX2                !
 ! D47   D(23,11,12,13)       -179.2197         estimate D2E/DX2                !
 ! D48   D(23,11,12,24)          0.6757         estimate D2E/DX2                !
 ! D49   D(11,12,13,14)       -178.7453         estimate D2E/DX2                !
 ! D50   D(11,12,13,15)         -0.9612         estimate D2E/DX2                !
 ! D51   D(24,12,13,14)          1.3575         estimate D2E/DX2                !
 ! D52   D(24,12,13,15)        179.1415         estimate D2E/DX2                !
 ! D53   D(12,13,15,9)          -0.803          estimate D2E/DX2                !
 ! D54   D(12,13,15,16)        175.301          estimate D2E/DX2                !
 ! D55   D(14,13,15,9)         176.8323         estimate D2E/DX2                !
 ! D56   D(14,13,15,16)         -7.0638         estimate D2E/DX2                !
 ! D57   D(9,15,16,17)         151.7638         estimate D2E/DX2                !
 ! D58   D(9,15,16,18)         -24.9558         estimate D2E/DX2                !
 ! D59   D(13,15,16,17)        -24.2971         estimate D2E/DX2                !
 ! D60   D(13,15,16,18)        158.9834         estimate D2E/DX2                !
 ! D61   D(15,16,18,2)        -158.9743         estimate D2E/DX2                !
 ! D62   D(15,16,18,6)          24.9692         estimate D2E/DX2                !
 ! D63   D(17,16,18,2)          24.3061         estimate D2E/DX2                !
 ! D64   D(17,16,18,6)        -151.7505         estimate D2E/DX2                !
 --------------------------------------------------------------------------------
 Trust Radius=3.00D-01 FncErr=1.00D-07 GrdErr=1.00D-06 EigMax=2.50D+02 EigMin=1.00D-04
 Number of steps in this run=    142 maximum allowed number of steps=    144.
 GradGradGradGradGradGradGradGradGradGradGradGradGradGradGradGradGradGrad

 Leave Link  103 at Sat Feb 10 15:46:26 2024, MaxMem=  4026531840 cpu:               0.3 elap:               0.1
 (Enter /sysapps/ubuntu-applications/gaussian/Gaussian/AVX2/g16/l202.exe)
                          Input orientation:                          
 ---------------------------------------------------------------------
 Center     Atomic      Atomic             Coordinates (Angstroms)
 Number     Number       Type             X           Y           Z
 ---------------------------------------------------------------------
      1         17           0       -2.416986    2.851390    1.622097
      2          6           0       -2.379052    1.226812    0.974991
      3          6           0       -3.614396    0.622578    0.745813
      4          6           0       -3.683459   -0.658807    0.208136
      5          6           0       -2.517984   -1.331924   -0.131851
      6          6           0       -1.280698   -0.720376    0.070469
      7          6           0       -0.057191   -1.455952   -0.365057
      8          8           0       -0.116501   -2.618181   -0.727623
      9          6           0        1.227771   -0.698073   -0.411366
     10          6           0        2.312384   -1.288903   -1.059714
     11          6           0        3.509245   -0.594886   -1.173140
     12          6           0        3.622443    0.686700   -0.643490
     13          6           0        2.549709    1.270380    0.029003
     14         17           0        2.797002    2.897298    0.621803
     15          6           0        1.329915    0.584471    0.166657
     16          6           0        0.175419    1.115659    0.965230
     17          8           0        0.341221    1.910022    1.865627
     18          6           0       -1.183456    0.562248    0.649162
     19          1           0       -4.516756    1.166283    0.994691
     20          1           0       -4.650619   -1.120506    0.047447
     21          1           0       -2.539572   -2.324857   -0.562010
     22          1           0        2.190085   -2.282639   -1.470762
     23          1           0        4.355832   -1.040429   -1.682222
     24          1           0        4.543442    1.246493   -0.744492
 ---------------------------------------------------------------------
                    Distance matrix (angstroms):
                    1          2          3          4          5
     1  Cl   0.000000
     2  C    1.749125   0.000000
     3  C    2.677549   1.394165   0.000000
     4  C    3.990579   2.417665   1.391335   0.000000
     5  C    4.537251   2.791331   2.406760   1.388168   0.000000
     6  C    4.056626   2.411656   2.775925   2.407489   1.394920
     7  C    5.298170   3.792623   4.267086   3.756835   2.474928
     8  O    6.381976   4.775144   4.990872   4.175881   2.788642
     9  C    5.478861   4.316983   5.150705   4.950303   3.809275
    10  C    6.833819   5.698984   6.483858   6.160730   4.918865
    11  C    7.403403   6.527258   7.477357   7.324411   6.160763
    12  C    6.803930   6.239322   7.369268   7.477423   6.483939
    13  C    5.450284   5.018912   6.239363   6.527345   5.699068
    14  Cl   5.309272   5.450395   6.804098   7.403606   6.833988
    15  C    4.614813   3.849992   4.978261   5.165402   4.309061
    16  C    3.188228   2.556907   3.828050   4.314262   3.801140
    17  O    2.924583   2.942770   4.307946   5.054128   4.761847
    18  C    2.776395   1.406151   2.433609   2.817001   2.445165
    19  H    2.764463   2.138652   1.082501   2.154996   3.391935
    20  H    4.821265   3.395623   2.144718   1.083691   2.150576
    21  H    5.619509   3.873305   3.398973   2.162712   1.082321
    22  H    7.559705   6.258991   6.858972   6.320921   4.986227
    23  H    8.481500   7.586819   8.496204   8.267363   7.052515
    24  H    7.524892   7.132877   8.316285   8.498210   7.542367
                    6          7          8          9         10
     6  C    0.000000
     7  C    1.492556   0.000000
     8  O    2.365157   1.218913   0.000000
     9  C    2.554423   1.492532   2.365143   0.000000
    10  C    3.809301   2.474942   2.788682   1.394927   0.000000
    11  C    4.950340   3.756847   4.175912   2.407503   1.388165
    12  C    5.150766   4.267105   4.990894   2.775956   2.406762
    13  C    4.317041   3.792637   4.775151   2.411691   2.791336
    14  Cl   5.478975   5.298216   6.382003   4.056676   4.537249
    15  C    2.920133   2.523907   3.626132   1.410483   2.445151
    16  C    2.508366   2.904644   4.110052   2.508403   3.801176
    17  O    3.573822   4.057643   5.238232   3.573909   4.761956
    18  C    1.410484   2.523934   3.626163   2.920127   4.309050
    19  H    3.858204   5.349089   6.053989   6.201001   7.542259
    20  H    3.393671   4.624096   4.837560   5.911381   7.052487
    21  H    2.135217   2.637423   2.446373   4.106336   4.986220
    22  H    4.106384   2.637469   2.446463   2.135232   1.082326
    23  H    5.911415   4.624106   4.837595   3.393678   2.150566
    24  H    6.201076   5.349112   6.054012   3.858236   3.391934
                   11         12         13         14         15
    11  C    0.000000
    12  C    1.391332   0.000000
    13  C    2.417659   1.394162   0.000000
    14  Cl   3.990546   2.677511   1.749122   0.000000
    15  C    2.816987   2.433613   1.406171   2.776449   0.000000
    16  C    4.314277   3.828049   2.556895   3.188240   1.500913
    17  O    5.054211   4.307970   2.942745   2.924495   2.370886
    18  C    5.165383   4.978263   3.850009   4.614895   2.559363
    19  H    8.498112   8.316261   7.132904   7.525059   5.933608
    20  H    8.267375   8.496290   7.586923   8.481727   6.219963
    21  H    6.320955   6.859048   6.259058   7.559850   4.895720
    22  H    2.162700   3.398971   3.873315   5.619513   3.411943
    23  H    1.083689   2.144714   3.395616   4.821221   3.900619
    24  H    2.154989   1.082501   2.138653   2.764412   3.405176
                   16         17         18         19         20
    16  C    0.000000
    17  O    1.212113   0.000000
    18  C    1.500901   2.370848   0.000000
    19  H    4.692541   4.991154   3.405163   0.000000
    20  H    5.397537   6.116236   3.900633   2.478829   0.000000
    21  H    4.641206   5.668032   3.411944   4.303561   2.505677
    22  H    4.641268   5.668174   4.895737   7.934434   7.102869
    23  H    5.397552   6.116330   6.219939   9.526713   9.171386
    24  H    4.692536   4.991158   5.933618   9.225962   9.526836
                   21         22         23         24
    21  H    0.000000
    22  H    4.816354   0.000000
    23  H    7.102903   2.505646   0.000000
    24  H    7.934540   4.303549   2.478820   0.000000
 Symmetry turned off by external request.
 Stoichiometry    C14H6Cl2O2
 Framework group  C1[X(C14H6Cl2O2)]
 Deg. of freedom    66
 Full point group                 C1      NOp   1
 Rotational constants (GHZ):           0.5192455           0.3088758           0.1972814
 Leave Link  202 at Sat Feb 10 15:46:26 2024, MaxMem=  4026531840 cpu:               0.4 elap:               0.1
 (Enter /sysapps/ubuntu-applications/gaussian/Gaussian/AVX2/g16/l301.exe)
 Standard basis: 6-311++G(d,p) (5D, 7F)
 Ernie: Thresh=  0.10000D-02 Tol=  0.10000D-05 Strict=F.
   454 basis functions,   736 primitive gaussians,   472 cartesian basis functions
    70 alpha electrons       70 beta electrons
       nuclear repulsion energy      1445.6217461927 Hartrees.
 IExCor=  402 DFT=T Ex+Corr=B3LYP ExCW=0 ScaHFX=  0.200000
 ScaDFX=  0.800000  0.720000  1.000000  0.810000 ScalE2=  1.000000  1.000000
 IRadAn=      5 IRanWt=     -1 IRanGd=            0 ICorTp=0 IEmpDi=  4
 NAtoms=   24 NActive=   24 NUniq=   24 SFac= 1.00D+00 NAtFMM=   60 NAOKFM=F Big=F
 Integral buffers will be    131072 words long.
 Raffenetti 2 integral format.
 Two-electron integral symmetry is turned off.
 ------------------------------------------------------------------------------
 Polarizable Continuum Model (PCM)
 =================================
 Model                : PCM.
 Atomic radii         : UFF (Universal Force Field).
 Polarization charges : Total charges.
 Charge compensation  : None.
 Solution method      : On-the-fly selection.
 Cavity type          : Scaled VdW (van der Waals Surface) (Alpha=1.100).
 Cavity algorithm     : GePol (No added spheres)
                        Default sphere list used, NSphG=   24.
                        Lebedev-Laikov grids with approx.  5.0 points / Ang**2.
                        Smoothing algorithm: York/Karplus (Gamma=1.0000).
                        Polarization charges: spherical gaussians, with
                                              point-specific exponents (IZeta= 3).
                        Self-potential: point-specific (ISelfS= 7).
                        Self-field    : sphere-specific E.n sum rule (ISelfD= 2).
 1st derivatives      : Analytical E(r).r(x)/FMM algorithm (CHGder, D1EAlg=3).
                        Cavity 1st derivative terms included.
 Solvent              : n,n-DiMethylFormamide, Eps=  37.219000 Eps(inf)=   2.046330
 ------------------------------------------------------------------------------
 GePol: Number of generator spheres                  =      24
 GePol: Total number of spheres                      =      24
 GePol: Number of exposed spheres                    =      24 (100.00%)
 GePol: Number of points                             =    2090
 GePol: Average weight of points                     =       0.14
 GePol: Minimum weight of points                     =   0.87D-11
 GePol: Maximum weight of points                     =    0.21616
 GePol: Number of points with low weight             =     126
 GePol: Fraction of low-weight points (<1% of avg)   =       6.03%
 GePol: Cavity surface area                          =    287.384 Ang**2
 GePol: Cavity volume                                =    318.026 Ang**3
 Leave Link  301 at Sat Feb 10 15:46:26 2024, MaxMem=  4026531840 cpu:               0.7 elap:               0.2
 (Enter /sysapps/ubuntu-applications/gaussian/Gaussian/AVX2/g16/l302.exe)
 NPDir=0 NMtPBC=     1 NCelOv=     1 NCel=       1 NClECP=     1 NCelD=      1
         NCelK=      1 NCelE2=     1 NClLst=     1 CellRange=     0.0.
 One-electron integrals computed using PRISM.
 NBasis=   454 RedAO= T EigKep=  1.74D-06  NBF=   454
 NBsUse=   448 1.00D-06 EigRej=  8.98D-07 NBFU=   448
 Precomputing XC quadrature grid using
 IXCGrd= 4 IRadAn=           5 IRanWt=          -1 IRanGd=           0 AccXCQ= 0.00D+00.
 Generated NRdTot=       0 NPtTot=           0 NUsed=           0 NTot=          32
 NSgBfM=   471   471   471   471   471 MxSgAt=    24 MxSgA2=    24.
 Leave Link  302 at Sat Feb 10 15:46:27 2024, MaxMem=  4026531840 cpu:               4.8 elap:               0.8
 (Enter /sysapps/ubuntu-applications/gaussian/Gaussian/AVX2/g16/l303.exe)
 DipDrv:  MaxL=1.
 Leave Link  303 at Sat Feb 10 15:46:27 2024, MaxMem=  4026531840 cpu:               1.1 elap:               0.2
 (Enter /sysapps/ubuntu-applications/gaussian/Gaussian/AVX2/g16/l401.exe)
 ExpMin= 3.60D-02 ExpMax= 1.06D+05 ExpMxC= 3.62D+03 IAcc=3 IRadAn=         5 AccDes= 0.00D+00
 Harris functional with IExCor=  402 and IRadAn=       5 diagonalized for initial guess.
 HarFok:  IExCor=  402 AccDes= 0.00D+00 IRadAn=         5 IDoV= 1 UseB2=F ITyADJ=14
 ICtDFT=  3500011 ScaDFX=  1.000000  1.000000  1.000000  1.000000
 FoFCou: FMM=F IPFlag=           0 FMFlag=      100000 FMFlg1=           0
         NFxFlg=           0 DoJE=T BraDBF=F KetDBF=T FulRan=T
         wScrn=  0.000000 ICntrl=       500 IOpCl=  0 I1Cent=   200000004 NGrid=           0
         NMat0=    1 NMatS0=      1 NMatT0=    0 NMatD0=    1 NMtDS0=    0 NMtDT0=    0
 Symmetry not used in FoFCou.
 Harris En= -1608.06003050832    
 JPrj=0 DoOrth=F DoCkMO=F.
 Initial guess <Sx>= 0.0000 <Sy>= 0.0000 <Sz>= 0.0000 <S**2>=-0.0000 S=-0.0000
 Leave Link  401 at Sat Feb 10 15:46:32 2024, MaxMem=  4026531840 cpu:              24.1 elap:               5.0
 (Enter /sysapps/ubuntu-applications/gaussian/Gaussian/AVX2/g16/l502.exe)
 Two-electron integral symmetry not used.
 UHF open shell SCF:
 Using DIIS extrapolation, IDIIS=  1040.
 NGot=  4026531840 LenX=  4026079268 LenY=  4025856012
 Requested convergence on RMS density matrix=1.00D-08 within 128 cycles.
 Requested convergence on MAX density matrix=1.00D-06.
 Requested convergence on             energy=1.00D-06.
 No special actions if energy rises.
 Fock matrices will be formed incrementally for  20 cycles.

 Cycle   1  Pass 1  IDiag  1:
 FoFJK:  IHMeth= 1 ICntrl=       0 DoSepK=F KAlg= 0 I1Cent=           0 FoldK=F
 IRaf= 840000000 NMat=       1 IRICut=       1 DoRegI=T DoRafI=F ISym2E= 0 IDoP0=0 IntGTp=1.
 FoFCou: FMM=F IPFlag=           0 FMFlag=      100000 FMFlg1=           0
         NFxFlg=           0 DoJE=F BraDBF=F KetDBF=F FulRan=T
         wScrn=  0.000000 ICntrl=         0 IOpCl=  1 I1Cent=           0 NGrid=           0
         NMat0=    1 NMatS0=      1 NMatT0=    0 NMatD0=    1 NMtDS0=    0 NMtDT0=    0
 Symmetry not used in FoFCou.
 Inv3:  Mode=1 IEnd=    13104300.
 Iteration    1 A*A^-1 deviation from unit magnitude is 3.11D-15 for    232.
 Iteration    1 A*A^-1 deviation from orthogonality  is 1.79D-15 for   1600    750.
 Iteration    1 A^-1*A deviation from unit magnitude is 2.89D-15 for   1110.
 Iteration    1 A^-1*A deviation from orthogonality  is 3.56D-15 for   1264   1149.
 E= -1607.77449241225    
 DIIS: error= 2.52D-02 at cycle   1 NSaved=   1.
 NSaved= 1 IEnMin= 1 EnMin= -1607.77449241225     IErMin= 1 ErrMin= 2.52D-02
 ErrMax= 2.52D-02  0.00D+00 EMaxC= 1.00D-01 BMatC= 2.11D+00 BMatP= 2.11D+00
 IDIUse=3 WtCom= 7.48D-01 WtEn= 2.52D-01
 Coeff-Com:  0.100D+01
 Coeff-En:   0.100D+01
 Coeff:      0.100D+01
 Gap=     0.274 Goal=   None    Shift=    0.000
 Gap=     0.274 Goal=   None    Shift=    0.000
 GapD=    0.274 DampG=1.000 DampE=0.500 DampFc=0.5000 IDamp=-1.
 Damping current iteration by 5.00D-01
 RMSDP=4.01D-02 MaxDP=3.06D+00              OVMax= 2.76D-01

 Cycle   2  Pass 1  IDiag  1:
 RMSU=  1.72D-02    CP:  1.14D+00
 E= -1607.89799808039     Delta-E=       -0.123505668145 Rises=F Damp=T
 DIIS: error= 1.07D-02 at cycle   2 NSaved=   2.
 NSaved= 2 IEnMin= 2 EnMin= -1607.89799808039     IErMin= 2 ErrMin= 1.07D-02
 ErrMax= 1.07D-02  0.00D+00 EMaxC= 1.00D-01 BMatC= 3.13D-01 BMatP= 2.11D+00
 IDIUse=3 WtCom= 8.93D-01 WtEn= 1.07D-01
 Coeff-Com:  0.174D+00 0.826D+00
 Coeff-En:   0.319D+00 0.681D+00
 Coeff:      0.189D+00 0.811D+00
 Gap=     0.171 Goal=   None    Shift=    0.000
 Gap=     0.171 Goal=   None    Shift=    0.000
 RMSDP=1.55D-02 MaxDP=8.07D-01 DE=-1.24D-01 OVMax= 2.52D-01

 Cycle   3  Pass 1  IDiag  1:
 RMSU=  9.98D-03    CP:  1.05D+00  4.33D-01
 E= -1608.12622255087     Delta-E=       -0.228224470484 Rises=F Damp=F
 DIIS: error= 1.22D-02 at cycle   3 NSaved=   3.
 NSaved= 3 IEnMin= 3 EnMin= -1608.12622255087     IErMin= 2 ErrMin= 1.07D-02
 ErrMax= 1.22D-02  0.00D+00 EMaxC= 1.00D-01 BMatC= 2.80D-01 BMatP= 3.13D-01
 IDIUse=3 WtCom= 8.78D-01 WtEn= 1.22D-01
 Coeff-Com: -0.138D-02 0.484D+00 0.517D+00
 Coeff-En:   0.000D+00 0.000D+00 0.100D+01
 Coeff:     -0.121D-02 0.425D+00 0.576D+00
 Gap=     0.149 Goal=   None    Shift=    0.000
 Gap=     0.149 Goal=   None    Shift=    0.000
 RMSDP=7.36D-03 MaxDP=9.39D-01 DE=-2.28D-01 OVMax= 9.60D-02

 Cycle   4  Pass 1  IDiag  1:
 RMSU=  6.70D-03    CP:  1.08D+00  4.90D-01  7.87D-01
 E= -1608.16356883591     Delta-E=       -0.037346285037 Rises=F Damp=F
 DIIS: error= 7.71D-03 at cycle   4 NSaved=   4.
 NSaved= 4 IEnMin= 4 EnMin= -1608.16356883591     IErMin= 4 ErrMin= 7.71D-03
 ErrMax= 7.71D-03  0.00D+00 EMaxC= 1.00D-01 BMatC= 1.01D-01 BMatP= 2.80D-01
 IDIUse=3 WtCom= 9.23D-01 WtEn= 7.71D-02
 Coeff-Com: -0.201D-01 0.108D+00 0.396D+00 0.516D+00
 Coeff-En:   0.000D+00 0.000D+00 0.315D+00 0.685D+00
 Coeff:     -0.186D-01 0.999D-01 0.390D+00 0.529D+00
 Gap=     0.153 Goal=   None    Shift=    0.000
 Gap=     0.153 Goal=   None    Shift=    0.000
 RMSDP=3.75D-03 MaxDP=6.09D-01 DE=-3.73D-02 OVMax= 3.48D-02

 Cycle   5  Pass 1  IDiag  1:
 RMSU=  9.04D-04    CP:  1.05D+00  4.83D-01  8.26D-01  5.67D-01
 E= -1608.18534098010     Delta-E=       -0.021772144189 Rises=F Damp=F
 DIIS: error= 9.10D-04 at cycle   5 NSaved=   5.
 NSaved= 5 IEnMin= 5 EnMin= -1608.18534098010     IErMin= 5 ErrMin= 9.10D-04
 ErrMax= 9.10D-04  0.00D+00 EMaxC= 1.00D-01 BMatC= 1.90D-03 BMatP= 1.01D-01
 IDIUse=3 WtCom= 9.91D-01 WtEn= 9.10D-03
 Coeff-Com: -0.858D-02 0.217D-01 0.158D+00 0.255D+00 0.574D+00
 Coeff-En:   0.000D+00 0.000D+00 0.000D+00 0.000D+00 0.100D+01
 Coeff:     -0.850D-02 0.215D-01 0.156D+00 0.253D+00 0.578D+00
 Gap=     0.150 Goal=   None    Shift=    0.000
 Gap=     0.150 Goal=   None    Shift=    0.000
 RMSDP=6.31D-04 MaxDP=4.59D-02 DE=-2.18D-02 OVMax= 7.05D-03

 Cycle   6  Pass 1  IDiag  1:
 RMSU=  4.03D-04    CP:  1.05D+00  4.71D-01  8.61D-01  5.59D-01  7.56D-01
 E= -1608.18571837099     Delta-E=       -0.000377390887 Rises=F Damp=F
 DIIS: error= 4.63D-04 at cycle   6 NSaved=   6.
 NSaved= 6 IEnMin= 6 EnMin= -1608.18571837099     IErMin= 6 ErrMin= 4.63D-04
 ErrMax= 4.63D-04  0.00D+00 EMaxC= 1.00D-01 BMatC= 2.58D-04 BMatP= 1.90D-03
 IDIUse=3 WtCom= 9.95D-01 WtEn= 4.63D-03
 Coeff-Com: -0.286D-02 0.364D-02 0.568D-01 0.103D+00 0.332D+00 0.508D+00
 Coeff-En:   0.000D+00 0.000D+00 0.000D+00 0.000D+00 0.709D-01 0.929D+00
 Coeff:     -0.284D-02 0.362D-02 0.565D-01 0.102D+00 0.331D+00 0.510D+00
 Gap=     0.150 Goal=   None    Shift=    0.000
 Gap=     0.150 Goal=   None    Shift=    0.000
 RMSDP=2.22D-04 MaxDP=1.72D-02 DE=-3.77D-04 OVMax= 2.72D-03

 Cycle   7  Pass 1  IDiag  1:
 RMSU=  1.21D-04    CP:  1.05D+00  4.71D-01  8.53D-01  5.71D-01  7.95D-01
                    CP:  6.76D-01
 E= -1608.18578026629     Delta-E=       -0.000061895300 Rises=F Damp=F
 DIIS: error= 1.21D-04 at cycle   7 NSaved=   7.
 NSaved= 7 IEnMin= 7 EnMin= -1608.18578026629     IErMin= 7 ErrMin= 1.21D-04
 ErrMax= 1.21D-04  0.00D+00 EMaxC= 1.00D-01 BMatC= 2.32D-05 BMatP= 2.58D-04
 IDIUse=3 WtCom= 9.99D-01 WtEn= 1.21D-03
 Coeff-Com: -0.445D-03-0.710D-03 0.129D-01 0.273D-01 0.114D+00 0.275D+00
 Coeff-Com:  0.572D+00
 Coeff-En:   0.000D+00 0.000D+00 0.000D+00 0.000D+00 0.000D+00 0.191D-01
 Coeff-En:   0.981D+00
 Coeff:     -0.445D-03-0.709D-03 0.129D-01 0.273D-01 0.113D+00 0.275D+00
 Coeff:      0.573D+00
 Gap=     0.150 Goal=   None    Shift=    0.000
 Gap=     0.150 Goal=   None    Shift=    0.000
 RMSDP=6.84D-05 MaxDP=5.33D-03 DE=-6.19D-05 OVMax= 7.87D-04

 Cycle   8  Pass 1  IDiag  1:
 RMSU=  3.00D-05    CP:  1.05D+00  4.71D-01  8.55D-01  5.77D-01  7.93D-01
                    CP:  6.56D-01  6.73D-01
 E= -1608.18578578342     Delta-E=       -0.000005517129 Rises=F Damp=F
 DIIS: error= 2.76D-05 at cycle   8 NSaved=   8.
 NSaved= 8 IEnMin= 8 EnMin= -1608.18578578342     IErMin= 8 ErrMin= 2.76D-05
 ErrMax= 2.76D-05  0.00D+00 EMaxC= 1.00D-01 BMatC= 1.57D-06 BMatP= 2.32D-05
 IDIUse=1 WtCom= 1.00D+00 WtEn= 0.00D+00
 Coeff-Com:  0.133D-03-0.810D-03 0.853D-03 0.309D-02 0.205D-01 0.751D-01
 Coeff-Com:  0.256D+00 0.645D+00
 Coeff:      0.133D-03-0.810D-03 0.853D-03 0.309D-02 0.205D-01 0.751D-01
 Coeff:      0.256D+00 0.645D+00
 Gap=     0.150 Goal=   None    Shift=    0.000
 Gap=     0.150 Goal=   None    Shift=    0.000
 RMSDP=1.59D-05 MaxDP=1.22D-03 DE=-5.52D-06 OVMax= 2.24D-04

 Cycle   9  Pass 1  IDiag  1:
 RMSU=  8.15D-06    CP:  1.05D+00  4.71D-01  8.55D-01  5.77D-01  7.94D-01
                    CP:  6.55D-01  7.51D-01  9.73D-01
 E= -1608.18578612757     Delta-E=       -0.000000344154 Rises=F Damp=F
 DIIS: error= 1.26D-05 at cycle   9 NSaved=   9.
 NSaved= 9 IEnMin= 9 EnMin= -1608.18578612757     IErMin= 9 ErrMin= 1.26D-05
 ErrMax= 1.26D-05  0.00D+00 EMaxC= 1.00D-01 BMatC= 2.02D-07 BMatP= 1.57D-06
 IDIUse=1 WtCom= 1.00D+00 WtEn= 0.00D+00
 Coeff-Com:  0.127D-03-0.372D-03-0.623D-03-0.834D-03 0.807D-03 0.166D-01
 Coeff-Com:  0.785D-01 0.323D+00 0.582D+00
 Coeff:      0.127D-03-0.372D-03-0.623D-03-0.834D-03 0.807D-03 0.166D-01
 Coeff:      0.785D-01 0.323D+00 0.582D+00
 Gap=     0.150 Goal=   None    Shift=    0.000
 Gap=     0.150 Goal=   None    Shift=    0.000
 RMSDP=5.81D-06 MaxDP=3.00D-04 DE=-3.44D-07 OVMax= 7.29D-05

 Cycle  10  Pass 1  IDiag  1:
 RMSU=  2.42D-06    CP:  1.05D+00  4.71D-01  8.55D-01  5.77D-01  7.95D-01
                    CP:  6.58D-01  7.29D-01  1.03D+00  8.50D-01
 E= -1608.18578617014     Delta-E=       -0.000000042574 Rises=F Damp=F
 DIIS: error= 4.19D-06 at cycle  10 NSaved=  10.
 NSaved=10 IEnMin=10 EnMin= -1608.18578617014     IErMin=10 ErrMin= 4.19D-06
 ErrMax= 4.19D-06  0.00D+00 EMaxC= 1.00D-01 BMatC= 3.45D-08 BMatP= 2.02D-07
 IDIUse=1 WtCom= 1.00D+00 WtEn= 0.00D+00
 Coeff-Com:  0.661D-04-0.152D-03-0.433D-03-0.800D-03-0.151D-02 0.291D-02
 Coeff-Com:  0.198D-01 0.127D+00 0.354D+00 0.499D+00
 Coeff:      0.661D-04-0.152D-03-0.433D-03-0.800D-03-0.151D-02 0.291D-02
 Coeff:      0.198D-01 0.127D+00 0.354D+00 0.499D+00
 Gap=     0.150 Goal=   None    Shift=    0.000
 Gap=     0.150 Goal=   None    Shift=    0.000
 RMSDP=1.43D-06 MaxDP=1.19D-04 DE=-4.26D-08 OVMax= 2.29D-05

 Cycle  11  Pass 1  IDiag  1:
 RMSU=  7.37D-07    CP:  1.05D+00  4.71D-01  8.55D-01  5.77D-01  7.95D-01
                    CP:  6.59D-01  7.35D-01  1.02D+00  8.65D-01  8.54D-01
 E= -1608.18578617718     Delta-E=       -0.000000007032 Rises=F Damp=F
 DIIS: error= 1.25D-06 at cycle  11 NSaved=  11.
 NSaved=11 IEnMin=11 EnMin= -1608.18578617718     IErMin=11 ErrMin= 1.25D-06
 ErrMax= 1.25D-06  0.00D+00 EMaxC= 1.00D-01 BMatC= 3.43D-09 BMatP= 3.45D-08
 IDIUse=1 WtCom= 1.00D+00 WtEn= 0.00D+00
 Coeff-Com:  0.149D-04-0.204D-04-0.124D-03-0.295D-03-0.103D-02-0.113D-02
 Coeff-Com: -0.369D-02 0.126D-01 0.104D+00 0.282D+00 0.607D+00
 Coeff:      0.149D-04-0.204D-04-0.124D-03-0.295D-03-0.103D-02-0.113D-02
 Coeff:     -0.369D-02 0.126D-01 0.104D+00 0.282D+00 0.607D+00
 Gap=     0.150 Goal=   None    Shift=    0.000
 Gap=     0.150 Goal=   None    Shift=    0.000
 RMSDP=8.26D-07 MaxDP=6.26D-05 DE=-7.03D-09 OVMax= 9.51D-06

 Cycle  12  Pass 1  IDiag  1:
 RMSU=  3.12D-07    CP:  1.05D+00  4.71D-01  8.55D-01  5.77D-01  7.95D-01
                    CP:  6.58D-01  7.35D-01  1.04D+00  8.93D-01  8.90D-01
                    CP:  6.96D-01
 E= -1608.18578617778     Delta-E=       -0.000000000602 Rises=F Damp=F
 DIIS: error= 5.54D-07 at cycle  12 NSaved=  12.
 NSaved=12 IEnMin=12 EnMin= -1608.18578617778     IErMin=12 ErrMin= 5.54D-07
 ErrMax= 5.54D-07  0.00D+00 EMaxC= 1.00D-01 BMatC= 5.80D-10 BMatP= 3.43D-09
 IDIUse=1 WtCom= 1.00D+00 WtEn= 0.00D+00
 Coeff-Com:  0.220D-05 0.203D-05-0.231D-04-0.754D-04-0.420D-03-0.724D-03
 Coeff-Com: -0.372D-02-0.448D-02 0.275D-01 0.115D+00 0.358D+00 0.509D+00
 Coeff:      0.220D-05 0.203D-05-0.231D-04-0.754D-04-0.420D-03-0.724D-03
 Coeff:     -0.372D-02-0.448D-02 0.275D-01 0.115D+00 0.358D+00 0.509D+00
 Gap=     0.150 Goal=   None    Shift=    0.000
 Gap=     0.150 Goal=   None    Shift=    0.000
 RMSDP=2.54D-07 MaxDP=2.80D-05 DE=-6.02D-10 OVMax= 5.89D-06

 Cycle  13  Pass 1  IDiag  1:
 RMSU=  1.36D-07    CP:  1.05D+00  4.71D-01  8.55D-01  5.77D-01  7.95D-01
                    CP:  6.58D-01  7.35D-01  1.04D+00  8.99D-01  8.88D-01
                    CP:  7.09D-01  8.69D-01
 E= -1608.18578617787     Delta-E=       -0.000000000096 Rises=F Damp=F
 DIIS: error= 1.47D-07 at cycle  13 NSaved=  13.
 NSaved=13 IEnMin=13 EnMin= -1608.18578617787     IErMin=13 ErrMin= 1.47D-07
 ErrMax= 1.47D-07  0.00D+00 EMaxC= 1.00D-01 BMatC= 3.99D-11 BMatP= 5.80D-10
 IDIUse=1 WtCom= 1.00D+00 WtEn= 0.00D+00
 Coeff-Com: -0.561D-06 0.183D-05 0.236D-05 0.449D-05-0.641D-04-0.119D-03
 Coeff-Com: -0.899D-03-0.302D-02-0.184D-02 0.805D-02 0.543D-01 0.231D+00
 Coeff-Com:  0.713D+00
 Coeff:     -0.561D-06 0.183D-05 0.236D-05 0.449D-05-0.641D-04-0.119D-03
 Coeff:     -0.899D-03-0.302D-02-0.184D-02 0.805D-02 0.543D-01 0.231D+00
 Coeff:      0.713D+00
 Gap=     0.150 Goal=   None    Shift=    0.000
 Gap=     0.150 Goal=   None    Shift=    0.000
 RMSDP=5.30D-08 MaxDP=2.22D-06 DE=-9.62D-11 OVMax= 1.85D-06

 Cycle  14  Pass 1  IDiag  1:
 RMSU=  3.59D-08    CP:  1.05D+00  4.71D-01  8.55D-01  5.77D-01  7.95D-01
                    CP:  6.58D-01  7.35D-01  1.04D+00  9.00D-01  8.96D-01
                    CP:  7.16D-01  9.04D-01  9.67D-01
 E= -1608.18578617790     Delta-E=       -0.000000000030 Rises=F Damp=F
 DIIS: error= 6.73D-08 at cycle  14 NSaved=  14.
 NSaved=14 IEnMin=14 EnMin= -1608.18578617790     IErMin=14 ErrMin= 6.73D-08
 ErrMax= 6.73D-08  0.00D+00 EMaxC= 1.00D-01 BMatC= 8.58D-12 BMatP= 3.99D-11
 IDIUse=1 WtCom= 1.00D+00 WtEn= 0.00D+00
 Coeff-Com: -0.631D-06 0.142D-05 0.376D-05 0.978D-05-0.124D-04-0.405D-04
 Coeff-Com: -0.378D-03-0.204D-02-0.427D-02-0.521D-02 0.456D-02 0.117D+00
 Coeff-Com:  0.470D+00 0.421D+00
 Coeff:     -0.631D-06 0.142D-05 0.376D-05 0.978D-05-0.124D-04-0.405D-04
 Coeff:     -0.378D-03-0.204D-02-0.427D-02-0.521D-02 0.456D-02 0.117D+00
 Coeff:      0.470D+00 0.421D+00
 Gap=     0.150 Goal=   None    Shift=    0.000
 Gap=     0.150 Goal=   None    Shift=    0.000
 RMSDP=2.41D-08 MaxDP=1.67D-06 DE=-2.96D-11 OVMax= 4.38D-07

 Cycle  15  Pass 1  IDiag  1:
 RMSU=  1.10D-08    CP:  1.05D+00  4.71D-01  8.55D-01  5.77D-01  7.95D-01
                    CP:  6.58D-01  7.35D-01  1.04D+00  9.00D-01  8.98D-01
                    CP:  7.16D-01  9.18D-01  9.31D-01  6.42D-01
 E= -1608.18578617791     Delta-E=       -0.000000000007 Rises=F Damp=F
 DIIS: error= 7.67D-09 at cycle  15 NSaved=  15.
 NSaved=15 IEnMin=15 EnMin= -1608.18578617791     IErMin=15 ErrMin= 7.67D-09
 ErrMax= 7.67D-09  0.00D+00 EMaxC= 1.00D-01 BMatC= 1.21D-13 BMatP= 8.58D-12
 IDIUse=1 WtCom= 1.00D+00 WtEn= 0.00D+00
 Coeff-Com: -0.329D-07 0.483D-08 0.889D-06 0.242D-05 0.467D-05 0.608D-05
 Coeff-Com:  0.150D-04-0.175D-03-0.798D-03-0.221D-02-0.595D-02 0.101D-01
 Coeff-Com:  0.509D-01 0.917D-01 0.856D+00
 Coeff:     -0.329D-07 0.483D-08 0.889D-06 0.242D-05 0.467D-05 0.608D-05
 Coeff:      0.150D-04-0.175D-03-0.798D-03-0.221D-02-0.595D-02 0.101D-01
 Coeff:      0.509D-01 0.917D-01 0.856D+00
 Gap=     0.150 Goal=   None    Shift=    0.000
 Gap=     0.150 Goal=   None    Shift=    0.000
 RMSDP=9.57D-09 MaxDP=6.09D-07 DE=-6.82D-12 OVMax= 1.03D-07

 Error on total polarization charges =  0.01819
 SCF Done:  E(UB3LYP) =  -1608.18578618     A.U. after   15 cycles
            NFock= 15  Conv=0.96D-08     -V/T= 2.0031
 <Sx>= 0.0000 <Sy>= 0.0000 <Sz>= 0.0000 <S**2>=-0.0000 S=-0.0000
 <L.S>=  0.00000000000    
 KE= 1.603244593342D+03 PE=-6.681032477741D+03 EE= 2.023980352028D+03
 Annihilation of the first spin contaminant:
 S**2 before annihilation    -0.0000,   after     0.0000
 Leave Link  502 at Sat Feb 10 15:52:16 2024, MaxMem=  4026531840 cpu:            2715.6 elap:             343.4
 (Enter /sysapps/ubuntu-applications/gaussian/Gaussian/AVX2/g16/l601.exe)
 Copying SCF densities to generalized density rwf, IOpCl= 1 IROHF=0.

 **********************************************************************

            Population analysis using the SCF density.

 **********************************************************************

 Alpha  occ. eigenvalues -- -101.56857-101.56857 -19.14099 -19.13899 -10.29792
 Alpha  occ. eigenvalues --  -10.29177 -10.26785 -10.26783 -10.22833 -10.22832
 Alpha  occ. eigenvalues --  -10.22040 -10.22039 -10.21118 -10.21116 -10.20805
 Alpha  occ. eigenvalues --  -10.20803 -10.20511 -10.20509  -9.48342  -9.48342
 Alpha  occ. eigenvalues --   -7.24816  -7.24816  -7.23843  -7.23843  -7.23748
 Alpha  occ. eigenvalues --   -7.23748  -1.08082  -1.07454  -0.92235  -0.91821
 Alpha  occ. eigenvalues --   -0.87239  -0.86248  -0.82315  -0.78490  -0.77150
 Alpha  occ. eigenvalues --   -0.76525  -0.69943  -0.67780  -0.65925  -0.61679
 Alpha  occ. eigenvalues --   -0.58984  -0.57332  -0.56554  -0.51707  -0.50566
 Alpha  occ. eigenvalues --   -0.50424  -0.50074  -0.47243  -0.46791  -0.46494
 Alpha  occ. eigenvalues --   -0.46106  -0.46007  -0.45161  -0.42957  -0.42079
 Alpha  occ. eigenvalues --   -0.41033  -0.39920  -0.39736  -0.39116  -0.38531
 Alpha  occ. eigenvalues --   -0.35740  -0.35209  -0.34192  -0.32978  -0.29992
 Alpha  occ. eigenvalues --   -0.29591  -0.28597  -0.27445  -0.27351  -0.27280
 Alpha virt. eigenvalues --   -0.12271  -0.08443  -0.04654  -0.03876  -0.00744
 Alpha virt. eigenvalues --   -0.00286   0.00062   0.00652   0.01158   0.01427
 Alpha virt. eigenvalues --    0.02091   0.02475   0.02621   0.03966   0.04084
 Alpha virt. eigenvalues --    0.04727   0.04999   0.05593   0.06029   0.06323
 Alpha virt. eigenvalues --    0.07509   0.07743   0.08510   0.08637   0.09152
 Alpha virt. eigenvalues --    0.09696   0.10322   0.10577   0.10871   0.11093
 Alpha virt. eigenvalues --    0.11154   0.11435   0.12049   0.12064   0.12417
 Alpha virt. eigenvalues --    0.12552   0.12935   0.13067   0.13159   0.14512
 Alpha virt. eigenvalues --    0.14583   0.14810   0.15316   0.15671   0.16103
 Alpha virt. eigenvalues --    0.16648   0.16749   0.16808   0.17503   0.18503
 Alpha virt. eigenvalues --    0.18584   0.18863   0.19293   0.19526   0.20169
 Alpha virt. eigenvalues --    0.20529   0.21342   0.21442   0.21577   0.22193
 Alpha virt. eigenvalues --    0.23191   0.23360   0.23502   0.23602   0.24004
 Alpha virt. eigenvalues --    0.24159   0.24804   0.25460   0.25808   0.25954
 Alpha virt. eigenvalues --    0.26425   0.26618   0.26959   0.27912   0.27976
 Alpha virt. eigenvalues --    0.28600   0.28915   0.29302   0.29736   0.29869
 Alpha virt. eigenvalues --    0.30668   0.31078   0.31136   0.31460   0.32398
 Alpha virt. eigenvalues --    0.32400   0.32578   0.32866   0.33288   0.34067
 Alpha virt. eigenvalues --    0.34305   0.35303   0.35776   0.36702   0.36717
 Alpha virt. eigenvalues --    0.37641   0.38063   0.39857   0.40191   0.42640
 Alpha virt. eigenvalues --    0.44786   0.44886   0.45794   0.46168   0.47055
 Alpha virt. eigenvalues --    0.47356   0.47893   0.49472   0.51323   0.52534
 Alpha virt. eigenvalues --    0.52760   0.53236   0.53971   0.54118   0.54605
 Alpha virt. eigenvalues --    0.56472   0.57231   0.57487   0.57685   0.58745
 Alpha virt. eigenvalues --    0.59043   0.59515   0.59707   0.60333   0.62045
 Alpha virt. eigenvalues --    0.62624   0.62835   0.63326   0.64407   0.64682
 Alpha virt. eigenvalues --    0.65836   0.66631   0.67533   0.67917   0.68706
 Alpha virt. eigenvalues --    0.70002   0.71011   0.71557   0.72301   0.73182
 Alpha virt. eigenvalues --    0.74274   0.74757   0.76773   0.77141   0.78273
 Alpha virt. eigenvalues --    0.78335   0.80655   0.81573   0.83275   0.84065
 Alpha virt. eigenvalues --    0.84492   0.84921   0.85715   0.85997   0.86427
 Alpha virt. eigenvalues --    0.87384   0.87444   0.88369   0.88754   0.88893
 Alpha virt. eigenvalues --    0.89398   0.89852   0.90758   0.91010   0.91442
 Alpha virt. eigenvalues --    0.93400   0.94054   0.94370   0.94832   0.95038
 Alpha virt. eigenvalues --    0.96475   0.96496   0.98581   0.99171   0.99727
 Alpha virt. eigenvalues --    1.01286   1.01804   1.03130   1.04158   1.04401
 Alpha virt. eigenvalues --    1.05508   1.05672   1.08828   1.10200   1.13206
 Alpha virt. eigenvalues --    1.15264   1.15447   1.17032   1.18778   1.19488
 Alpha virt. eigenvalues --    1.19605   1.21402   1.23072   1.23175   1.25674
 Alpha virt. eigenvalues --    1.25800   1.28769   1.28861   1.29554   1.29725
 Alpha virt. eigenvalues --    1.31385   1.34111   1.37224   1.39715   1.39977
 Alpha virt. eigenvalues --    1.44000   1.46412   1.47557   1.47584   1.49160
 Alpha virt. eigenvalues --    1.50429   1.50872   1.51298   1.55032   1.55272
 Alpha virt. eigenvalues --    1.55749   1.57394   1.58161   1.59109   1.61504
 Alpha virt. eigenvalues --    1.62605   1.66280   1.66503   1.68700   1.68966
 Alpha virt. eigenvalues --    1.69758   1.71481   1.73388   1.73420   1.73624
 Alpha virt. eigenvalues --    1.76064   1.76709   1.81764   1.83527   1.84458
 Alpha virt. eigenvalues --    1.86877   1.88936   1.89626   1.89674   1.90231
 Alpha virt. eigenvalues --    1.91237   1.92242   1.93020   1.93951   1.95659
 Alpha virt. eigenvalues --    1.96761   1.97921   1.98253   1.99241   2.00264
 Alpha virt. eigenvalues --    2.01192   2.03554   2.04488   2.05497   2.06738
 Alpha virt. eigenvalues --    2.11661   2.14797   2.20355   2.21040   2.21598
 Alpha virt. eigenvalues --    2.24538   2.27714   2.28898   2.30649   2.31817
 Alpha virt. eigenvalues --    2.33554   2.34595   2.36470   2.38404   2.41839
 Alpha virt. eigenvalues --    2.43722   2.45020   2.46026   2.50608   2.53444
 Alpha virt. eigenvalues --    2.53630   2.55729   2.56933   2.57983   2.61999
 Alpha virt. eigenvalues --    2.63306   2.67154   2.69388   2.70352   2.70809
 Alpha virt. eigenvalues --    2.71636   2.72861   2.73308   2.74740   2.76688
 Alpha virt. eigenvalues --    2.76720   2.77037   2.77176   2.77423   2.78876
 Alpha virt. eigenvalues --    2.78880   2.80873   2.81229   2.84353   2.84574
 Alpha virt. eigenvalues --    2.86309   2.87670   2.89607   2.89960   2.93446
 Alpha virt. eigenvalues --    2.95433   2.99005   3.05094   3.07513   3.08089
 Alpha virt. eigenvalues --    3.12324   3.15314   3.16256   3.18013   3.18935
 Alpha virt. eigenvalues --    3.20105   3.22131   3.24978   3.32903   3.34461
 Alpha virt. eigenvalues --    3.34665   3.34774   3.39136   3.41993   3.50961
 Alpha virt. eigenvalues --    3.50967   3.52281   3.53404   3.53967   3.57835
 Alpha virt. eigenvalues --    3.64948   3.71053   3.74630   3.79665   3.86865
 Alpha virt. eigenvalues --    3.93782   4.02624   4.02878   4.11295   4.11861
 Alpha virt. eigenvalues --    4.18531   4.22115   4.38612   4.60537   4.81077
 Alpha virt. eigenvalues --    4.82651   5.04075   5.07277   5.21231   5.24025
 Alpha virt. eigenvalues --    5.71012   5.76419   9.78556   9.80058  23.43949
 Alpha virt. eigenvalues --   23.56710  23.82900  23.87137  23.87810  23.89135
 Alpha virt. eigenvalues --   23.91556  23.92325  23.99384  24.01340  24.04412
 Alpha virt. eigenvalues --   24.05013  24.15171  24.15383  25.84080  25.86500
 Alpha virt. eigenvalues --   26.23820  26.25616  26.66337  26.69776  49.99916
 Alpha virt. eigenvalues --   50.05325 215.78178 215.79929
  Beta  occ. eigenvalues -- -101.56857-101.56857 -19.14099 -19.13899 -10.29792
  Beta  occ. eigenvalues --  -10.29177 -10.26785 -10.26783 -10.22833 -10.22832
  Beta  occ. eigenvalues --  -10.22040 -10.22039 -10.21118 -10.21116 -10.20805
  Beta  occ. eigenvalues --  -10.20803 -10.20511 -10.20509  -9.48342  -9.48342
  Beta  occ. eigenvalues --   -7.24816  -7.24816  -7.23843  -7.23843  -7.23748
  Beta  occ. eigenvalues --   -7.23748  -1.08082  -1.07454  -0.92235  -0.91821
  Beta  occ. eigenvalues --   -0.87239  -0.86248  -0.82315  -0.78490  -0.77150
  Beta  occ. eigenvalues --   -0.76525  -0.69943  -0.67780  -0.65925  -0.61679
  Beta  occ. eigenvalues --   -0.58984  -0.57332  -0.56554  -0.51707  -0.50566
  Beta  occ. eigenvalues --   -0.50424  -0.50074  -0.47243  -0.46791  -0.46494
  Beta  occ. eigenvalues --   -0.46106  -0.46007  -0.45161  -0.42957  -0.42079
  Beta  occ. eigenvalues --   -0.41033  -0.39920  -0.39736  -0.39116  -0.38531
  Beta  occ. eigenvalues --   -0.35740  -0.35209  -0.34192  -0.32978  -0.29992
  Beta  occ. eigenvalues --   -0.29591  -0.28597  -0.27445  -0.27351  -0.27280
  Beta virt. eigenvalues --   -0.12271  -0.08443  -0.04654  -0.03876  -0.00744
  Beta virt. eigenvalues --   -0.00286   0.00062   0.00652   0.01158   0.01427
  Beta virt. eigenvalues --    0.02091   0.02475   0.02621   0.03966   0.04084
  Beta virt. eigenvalues --    0.04727   0.04999   0.05593   0.06029   0.06323
  Beta virt. eigenvalues --    0.07509   0.07743   0.08510   0.08637   0.09152
  Beta virt. eigenvalues --    0.09696   0.10322   0.10577   0.10871   0.11093
  Beta virt. eigenvalues --    0.11154   0.11435   0.12049   0.12064   0.12417
  Beta virt. eigenvalues --    0.12552   0.12935   0.13067   0.13159   0.14512
  Beta virt. eigenvalues --    0.14583   0.14810   0.15316   0.15671   0.16103
  Beta virt. eigenvalues --    0.16648   0.16749   0.16808   0.17503   0.18503
  Beta virt. eigenvalues --    0.18584   0.18863   0.19293   0.19526   0.20169
  Beta virt. eigenvalues --    0.20529   0.21342   0.21442   0.21577   0.22193
  Beta virt. eigenvalues --    0.23191   0.23360   0.23502   0.23602   0.24004
  Beta virt. eigenvalues --    0.24159   0.24804   0.25460   0.25808   0.25954
  Beta virt. eigenvalues --    0.26425   0.26618   0.26959   0.27912   0.27976
  Beta virt. eigenvalues --    0.28600   0.28915   0.29302   0.29736   0.29869
  Beta virt. eigenvalues --    0.30668   0.31078   0.31136   0.31460   0.32398
  Beta virt. eigenvalues --    0.32400   0.32578   0.32866   0.33288   0.34067
  Beta virt. eigenvalues --    0.34305   0.35303   0.35776   0.36702   0.36717
  Beta virt. eigenvalues --    0.37641   0.38063   0.39857   0.40191   0.42640
  Beta virt. eigenvalues --    0.44786   0.44886   0.45794   0.46168   0.47055
  Beta virt. eigenvalues --    0.47356   0.47893   0.49472   0.51323   0.52534
  Beta virt. eigenvalues --    0.52760   0.53236   0.53971   0.54118   0.54605
  Beta virt. eigenvalues --    0.56472   0.57231   0.57487   0.57685   0.58745
  Beta virt. eigenvalues --    0.59043   0.59515   0.59707   0.60333   0.62045
  Beta virt. eigenvalues --    0.62624   0.62835   0.63326   0.64407   0.64682
  Beta virt. eigenvalues --    0.65836   0.66631   0.67533   0.67917   0.68706
  Beta virt. eigenvalues --    0.70002   0.71011   0.71557   0.72301   0.73182
  Beta virt. eigenvalues --    0.74274   0.74757   0.76773   0.77141   0.78273
  Beta virt. eigenvalues --    0.78335   0.80655   0.81573   0.83275   0.84065
  Beta virt. eigenvalues --    0.84492   0.84921   0.85715   0.85997   0.86427
  Beta virt. eigenvalues --    0.87384   0.87444   0.88369   0.88754   0.88893
  Beta virt. eigenvalues --    0.89398   0.89852   0.90758   0.91010   0.91442
  Beta virt. eigenvalues --    0.93400   0.94054   0.94370   0.94832   0.95038
  Beta virt. eigenvalues --    0.96475   0.96496   0.98581   0.99171   0.99727
  Beta virt. eigenvalues --    1.01286   1.01804   1.03130   1.04158   1.04401
  Beta virt. eigenvalues --    1.05508   1.05672   1.08828   1.10200   1.13206
  Beta virt. eigenvalues --    1.15264   1.15447   1.17032   1.18778   1.19488
  Beta virt. eigenvalues --    1.19605   1.21402   1.23072   1.23175   1.25674
  Beta virt. eigenvalues --    1.25800   1.28769   1.28861   1.29554   1.29725
  Beta virt. eigenvalues --    1.31385   1.34111   1.37224   1.39715   1.39977
  Beta virt. eigenvalues --    1.44000   1.46412   1.47557   1.47584   1.49160
  Beta virt. eigenvalues --    1.50429   1.50872   1.51298   1.55032   1.55272
  Beta virt. eigenvalues --    1.55749   1.57394   1.58161   1.59109   1.61504
  Beta virt. eigenvalues --    1.62605   1.66280   1.66503   1.68700   1.68966
  Beta virt. eigenvalues --    1.69758   1.71481   1.73388   1.73420   1.73624
  Beta virt. eigenvalues --    1.76064   1.76709   1.81764   1.83527   1.84458
  Beta virt. eigenvalues --    1.86877   1.88936   1.89626   1.89674   1.90231
  Beta virt. eigenvalues --    1.91237   1.92242   1.93020   1.93951   1.95659
  Beta virt. eigenvalues --    1.96761   1.97921   1.98253   1.99241   2.00264
  Beta virt. eigenvalues --    2.01192   2.03554   2.04488   2.05497   2.06738
  Beta virt. eigenvalues --    2.11661   2.14797   2.20355   2.21040   2.21598
  Beta virt. eigenvalues --    2.24538   2.27714   2.28898   2.30649   2.31817
  Beta virt. eigenvalues --    2.33554   2.34595   2.36470   2.38404   2.41839
  Beta virt. eigenvalues --    2.43722   2.45020   2.46026   2.50608   2.53444
  Beta virt. eigenvalues --    2.53630   2.55729   2.56933   2.57983   2.61999
  Beta virt. eigenvalues --    2.63306   2.67154   2.69388   2.70352   2.70809
  Beta virt. eigenvalues --    2.71636   2.72861   2.73308   2.74740   2.76688
  Beta virt. eigenvalues --    2.76720   2.77037   2.77176   2.77423   2.78876
  Beta virt. eigenvalues --    2.78880   2.80873   2.81229   2.84353   2.84574
  Beta virt. eigenvalues --    2.86309   2.87670   2.89607   2.89960   2.93446
  Beta virt. eigenvalues --    2.95433   2.99005   3.05094   3.07513   3.08089
  Beta virt. eigenvalues --    3.12324   3.15314   3.16256   3.18013   3.18935
  Beta virt. eigenvalues --    3.20105   3.22131   3.24978   3.32903   3.34461
  Beta virt. eigenvalues --    3.34665   3.34774   3.39136   3.41993   3.50961
  Beta virt. eigenvalues --    3.50967   3.52281   3.53404   3.53967   3.57835
  Beta virt. eigenvalues --    3.64948   3.71053   3.74630   3.79665   3.86865
  Beta virt. eigenvalues --    3.93782   4.02624   4.02878   4.11295   4.11861
  Beta virt. eigenvalues --    4.18531   4.22115   4.38612   4.60537   4.81077
  Beta virt. eigenvalues --    4.82651   5.04075   5.07277   5.21231   5.24025
  Beta virt. eigenvalues --    5.71012   5.76419   9.78556   9.80058  23.43949
  Beta virt. eigenvalues --   23.56710  23.82900  23.87137  23.87810  23.89135
  Beta virt. eigenvalues --   23.91556  23.92325  23.99384  24.01340  24.04412
  Beta virt. eigenvalues --   24.05013  24.15171  24.15383  25.84080  25.86500
  Beta virt. eigenvalues --   26.23820  26.25616  26.66337  26.69776  49.99916
  Beta virt. eigenvalues --   50.05325 215.78178 215.79929
          Condensed to atoms (all electrons):
               1          2          3          4          5          6
     1  Cl  17.421190  -0.484482  -0.238522  -0.143779   0.328543  -0.474284
     2  C   -0.484482  15.410100  -4.998864  -1.346028   1.523903  -3.439439
     3  C   -0.238522  -4.998864  13.643417   0.128837  -0.224084   3.657262
     4  C   -0.143779  -1.346028   0.128837   9.068322  -0.507941  -2.069972
     5  C    0.328543   1.523903  -0.224084  -0.507941  12.233475  -0.450044
     6  C   -0.474284  -3.439439   3.657262  -2.069972  -0.450044  17.911463
     7  C   -0.157661  -2.786485  -0.268904  -0.281452  -2.568498   1.975838
     8  O   -0.000641   0.003975   0.007697   0.054507   0.118134  -0.362592
     9  C   -0.068156  -0.668279   0.508775  -0.613120  -0.582520  -1.358529
    10  C   -0.016111   0.211665   0.180536  -0.327397  -0.305862  -0.583243
    11  C   -0.005249  -0.137540  -0.037903  -0.014511  -0.326860  -0.612424
    12  C    0.021188   0.178945   0.092416  -0.037828   0.179882   0.507248
    13  C    0.016678   0.184920   0.179125  -0.137636   0.211626  -0.667509
    14  Cl  -0.000282   0.016643   0.021282  -0.005274  -0.016084  -0.067931
    15  C    0.210473   0.231427  -0.558755   0.042822  -1.320879  -4.623112
    16  C    0.255101  -1.323375  -3.732976   1.222716  -0.282152  -1.566703
    17  O   -0.067424   0.060640   0.212949  -0.002037  -0.010356  -0.018611
    18  C   -0.138312   3.024523  -2.799270   1.396728  -2.812983  -2.219359
    19  H    0.049135  -0.227988   0.611486  -0.063905   0.055504   0.058260
    20  H   -0.014366  -0.025898  -0.079356   0.446516  -0.078261   0.011874
    21  H    0.010837   0.123359  -0.020102  -0.077607   0.448972   0.007736
    22  H   -0.000220  -0.002826   0.002251  -0.005278  -0.030547  -0.090497
    23  H   -0.000038  -0.000717  -0.000560   0.000596   0.001808   0.014005
    24  H    0.000011   0.003186   0.001319  -0.000705   0.001307  -0.000247
               7          8          9         10         11         12
     1  Cl  -0.157661  -0.000641  -0.068156  -0.016111  -0.005249   0.021188
     2  C   -2.786485   0.003975  -0.668279   0.211665  -0.137540   0.178945
     3  C   -0.268904   0.007697   0.508775   0.180536  -0.037903   0.092416
     4  C   -0.281452   0.054507  -0.613120  -0.327397  -0.014511  -0.037828
     5  C   -2.568498   0.118134  -0.582520  -0.305862  -0.326860   0.179882
     6  C    1.975838  -0.362592  -1.358529  -0.583243  -0.612424   0.507248
     7  C   17.779308   0.603870   1.977290  -2.572372  -0.281405  -0.269996
     8  O    0.603870   8.168121  -0.362524   0.118255   0.054501   0.007686
     9  C    1.977290  -0.362524  17.907315  -0.450559  -2.066887   3.649558
    10  C   -2.572372   0.118255  -0.450559  12.237896  -0.507017  -0.223719
    11  C   -0.281405   0.054501  -2.066887  -0.507017   9.067269   0.131522
    12  C   -0.269996   0.007686   3.649558  -0.223719   0.131522  13.632917
    13  C   -2.786614   0.004015  -3.437428   1.525684  -1.347883  -4.991887
    14  Cl  -0.157647  -0.000639  -0.473664   0.328749  -0.143638  -0.237064
    15  C   -3.136545  -0.062261  -2.215779  -2.812636   1.394156  -2.793803
    16  C    3.312423  -0.034384  -1.563918  -0.285983   1.220686  -3.728536
    17  O   -0.123384   0.000293  -0.018409  -0.010303  -0.002043   0.213198
    18  C   -3.140073  -0.062316  -4.625260  -1.320739   0.041940  -0.558537
    19  H   -0.028547  -0.000174  -0.000229   0.001317  -0.000706   0.001316
    20  H    0.059722   0.001596   0.013968   0.001799   0.000595  -0.000557
    21  H   -0.132314  -0.003262  -0.090430  -0.030554  -0.005272   0.002240
    22  H   -0.132393  -0.003280   0.007788   0.449068  -0.077579  -0.020036
    23  H    0.059789   0.001596   0.012107  -0.078238   0.446285  -0.079228
    24  H   -0.028576  -0.000174   0.058075   0.055503  -0.063794   0.611122
              13         14         15         16         17         18
     1  Cl   0.016678  -0.000282   0.210473   0.255101  -0.067424  -0.138312
     2  C    0.184920   0.016643   0.231427  -1.323375   0.060640   3.024523
     3  C    0.179125   0.021282  -0.558755  -3.732976   0.212949  -2.799270
     4  C   -0.137636  -0.005274   0.042822   1.222716  -0.002037   1.396728
     5  C    0.211626  -0.016084  -1.320879  -0.282152  -0.010356  -2.812983
     6  C   -0.667509  -0.067931  -4.623112  -1.566703  -0.018611  -2.219359
     7  C   -2.786614  -0.157647  -3.136545   3.312423  -0.123384  -3.140073
     8  O    0.004015  -0.000639  -0.062261  -0.034384   0.000293  -0.062316
     9  C   -3.437428  -0.473664  -2.215779  -1.563918  -0.018409  -4.625260
    10  C    1.525684   0.328749  -2.812636  -0.285983  -0.010303  -1.320739
    11  C   -1.347883  -0.143638   1.394156   1.220686  -0.002043   0.041940
    12  C   -4.991887  -0.237064  -2.793803  -3.728536   0.213198  -0.558537
    13  C   15.406801  -0.484965   3.019622  -1.324193   0.060572   0.231273
    14  Cl  -0.484965  17.420677  -0.139710   0.254505  -0.067523   0.210633
    15  C    3.019622  -0.139710  21.033742  -6.119949   0.022973   3.452067
    16  C   -1.324193   0.254505  -6.119949  28.782263  -0.427028  -6.125385
    17  O    0.060572  -0.067523   0.022973  -0.427028   8.301701   0.022923
    18  C    0.231273   0.210633   3.452067  -6.125385   0.022923  21.045049
    19  H    0.003185   0.000013  -0.007782  -0.082867   0.003680  -0.073074
    20  H   -0.000718  -0.000038  -0.000655   0.002931  -0.000204  -0.000804
    21  H   -0.002823  -0.000220   0.008954  -0.022136   0.000091   0.099843
    22  H    0.123334   0.010833   0.099808  -0.022156   0.000090   0.008942
    23  H   -0.026005  -0.014368  -0.000896   0.002875  -0.000205  -0.000662
    24  H   -0.227737   0.049162  -0.072986  -0.082725   0.003687  -0.007784
              19         20         21         22         23         24
     1  Cl   0.049135  -0.014366   0.010837  -0.000220  -0.000038   0.000011
     2  C   -0.227988  -0.025898   0.123359  -0.002826  -0.000717   0.003186
     3  C    0.611486  -0.079356  -0.020102   0.002251  -0.000560   0.001319
     4  C   -0.063905   0.446516  -0.077607  -0.005278   0.000596  -0.000705
     5  C    0.055504  -0.078261   0.448972  -0.030547   0.001808   0.001307
     6  C    0.058260   0.011874   0.007736  -0.090497   0.014005  -0.000247
     7  C   -0.028547   0.059722  -0.132314  -0.132393   0.059789  -0.028576
     8  O   -0.000174   0.001596  -0.003262  -0.003280   0.001596  -0.000174
     9  C   -0.000229   0.013968  -0.090430   0.007788   0.012107   0.058075
    10  C    0.001317   0.001799  -0.030554   0.449068  -0.078238   0.055503
    11  C   -0.000706   0.000595  -0.005272  -0.077579   0.446285  -0.063794
    12  C    0.001316  -0.000557   0.002240  -0.020036  -0.079228   0.611122
    13  C    0.003185  -0.000718  -0.002823   0.123334  -0.026005  -0.227737
    14  Cl   0.000013  -0.000038  -0.000220   0.010833  -0.014368   0.049162
    15  C   -0.007782  -0.000655   0.008954   0.099808  -0.000896  -0.072986
    16  C   -0.082867   0.002931  -0.022136  -0.022156   0.002875  -0.082725
    17  O    0.003680  -0.000204   0.000091   0.000090  -0.000205   0.003687
    18  C   -0.073074  -0.000804   0.099843   0.008942  -0.000662  -0.007784
    19  H    0.487192  -0.019129   0.002458  -0.000034  -0.000004  -0.000003
    20  H   -0.019129   0.486322  -0.017924  -0.000012   0.000006  -0.000004
    21  H    0.002458  -0.017924   0.492660  -0.001140  -0.000012  -0.000034
    22  H   -0.000034  -0.000012  -0.001140   0.492639  -0.017926   0.002458
    23  H   -0.000004   0.000006  -0.000012  -0.017926   0.486338  -0.019123
    24  H   -0.000003  -0.000004  -0.000034   0.002458  -0.019123   0.487197
          Atomic-Atomic Spin Densities.
               1          2          3          4          5          6
     1  Cl  -0.000000   0.000000  -0.000000   0.000000  -0.000000  -0.000000
     2  C    0.000000  -0.000000   0.000000   0.000000   0.000000  -0.000000
     3  C   -0.000000   0.000000  -0.000000   0.000000  -0.000000   0.000000
     4  C    0.000000   0.000000   0.000000   0.000000   0.000000  -0.000000
     5  C   -0.000000   0.000000  -0.000000   0.000000  -0.000000  -0.000000
     6  C   -0.000000  -0.000000   0.000000  -0.000000  -0.000000  -0.000000
     7  C    0.000000  -0.000000   0.000000  -0.000000  -0.000000   0.000000
     8  O   -0.000000   0.000000  -0.000000   0.000000  -0.000000   0.000000
     9  C    0.000000  -0.000000  -0.000000   0.000000  -0.000000  -0.000000
    10  C    0.000000  -0.000000  -0.000000   0.000000  -0.000000   0.000000
    11  C   -0.000000   0.000000   0.000000  -0.000000  -0.000000   0.000000
    12  C    0.000000  -0.000000  -0.000000   0.000000  -0.000000  -0.000000
    13  C    0.000000  -0.000000  -0.000000   0.000000  -0.000000   0.000000
    14  Cl   0.000000   0.000000  -0.000000   0.000000   0.000000   0.000000
    15  C    0.000000  -0.000000  -0.000000  -0.000000   0.000000   0.000000
    16  C    0.000000   0.000000  -0.000000   0.000000  -0.000000  -0.000000
    17  O   -0.000000  -0.000000  -0.000000   0.000000  -0.000000  -0.000000
    18  C   -0.000000  -0.000000   0.000000  -0.000000   0.000000   0.000000
    19  H   -0.000000  -0.000000  -0.000000   0.000000  -0.000000   0.000000
    20  H    0.000000  -0.000000   0.000000   0.000000   0.000000  -0.000000
    21  H   -0.000000  -0.000000  -0.000000  -0.000000   0.000000  -0.000000
    22  H    0.000000  -0.000000  -0.000000   0.000000   0.000000   0.000000
    23  H   -0.000000   0.000000   0.000000  -0.000000  -0.000000   0.000000
    24  H    0.000000  -0.000000  -0.000000   0.000000   0.000000  -0.000000
               7          8          9         10         11         12
     1  Cl   0.000000  -0.000000   0.000000   0.000000  -0.000000   0.000000
     2  C   -0.000000   0.000000  -0.000000  -0.000000   0.000000  -0.000000
     3  C    0.000000  -0.000000  -0.000000  -0.000000   0.000000  -0.000000
     4  C   -0.000000   0.000000   0.000000   0.000000  -0.000000   0.000000
     5  C   -0.000000  -0.000000  -0.000000  -0.000000  -0.000000  -0.000000
     6  C    0.000000   0.000000  -0.000000   0.000000   0.000000  -0.000000
     7  C   -0.000000  -0.000000  -0.000000   0.000000   0.000000  -0.000000
     8  O   -0.000000   0.000000  -0.000000  -0.000000   0.000000  -0.000000
     9  C   -0.000000  -0.000000  -0.000000  -0.000000   0.000000  -0.000000
    10  C    0.000000  -0.000000  -0.000000  -0.000000   0.000000  -0.000000
    11  C    0.000000   0.000000   0.000000   0.000000  -0.000000   0.000000
    12  C   -0.000000  -0.000000  -0.000000  -0.000000   0.000000  -0.000000
    13  C    0.000000  -0.000000   0.000000   0.000000   0.000000   0.000000
    14  Cl   0.000000  -0.000000   0.000000  -0.000000   0.000000  -0.000000
    15  C    0.000000   0.000000   0.000000   0.000000  -0.000000   0.000000
    16  C   -0.000000  -0.000000  -0.000000  -0.000000  -0.000000   0.000000
    17  O    0.000000  -0.000000  -0.000000  -0.000000   0.000000  -0.000000
    18  C    0.000000   0.000000   0.000000   0.000000  -0.000000   0.000000
    19  H    0.000000  -0.000000   0.000000   0.000000   0.000000  -0.000000
    20  H   -0.000000   0.000000  -0.000000  -0.000000  -0.000000   0.000000
    21  H    0.000000   0.000000   0.000000   0.000000  -0.000000   0.000000
    22  H    0.000000   0.000000  -0.000000  -0.000000  -0.000000   0.000000
    23  H   -0.000000   0.000000  -0.000000   0.000000  -0.000000  -0.000000
    24  H    0.000000  -0.000000   0.000000  -0.000000   0.000000   0.000000
              13         14         15         16         17         18
     1  Cl   0.000000   0.000000   0.000000   0.000000  -0.000000  -0.000000
     2  C   -0.000000   0.000000  -0.000000   0.000000  -0.000000  -0.000000
     3  C   -0.000000  -0.000000  -0.000000  -0.000000  -0.000000   0.000000
     4  C    0.000000   0.000000  -0.000000   0.000000   0.000000  -0.000000
     5  C   -0.000000   0.000000   0.000000  -0.000000  -0.000000   0.000000
     6  C    0.000000   0.000000   0.000000  -0.000000  -0.000000   0.000000
     7  C    0.000000   0.000000   0.000000  -0.000000   0.000000   0.000000
     8  O   -0.000000  -0.000000   0.000000  -0.000000  -0.000000   0.000000
     9  C    0.000000   0.000000   0.000000  -0.000000  -0.000000   0.000000
    10  C    0.000000  -0.000000   0.000000  -0.000000  -0.000000   0.000000
    11  C    0.000000   0.000000  -0.000000  -0.000000   0.000000  -0.000000
    12  C    0.000000  -0.000000   0.000000   0.000000  -0.000000   0.000000
    13  C   -0.000000  -0.000000  -0.000000   0.000000  -0.000000   0.000000
    14  Cl  -0.000000  -0.000000   0.000000   0.000000   0.000000  -0.000000
    15  C   -0.000000   0.000000  -0.000000   0.000000  -0.000000  -0.000000
    16  C    0.000000   0.000000   0.000000  -0.000000   0.000000   0.000000
    17  O   -0.000000   0.000000  -0.000000   0.000000  -0.000000   0.000000
    18  C    0.000000  -0.000000  -0.000000   0.000000   0.000000  -0.000000
    19  H   -0.000000  -0.000000  -0.000000  -0.000000  -0.000000   0.000000
    20  H    0.000000   0.000000   0.000000   0.000000   0.000000  -0.000000
    21  H    0.000000   0.000000  -0.000000   0.000000  -0.000000  -0.000000
    22  H   -0.000000  -0.000000  -0.000000   0.000000  -0.000000  -0.000000
    23  H    0.000000   0.000000  -0.000000   0.000000   0.000000  -0.000000
    24  H   -0.000000  -0.000000   0.000000  -0.000000  -0.000000   0.000000
              19         20         21         22         23         24
     1  Cl  -0.000000   0.000000  -0.000000   0.000000  -0.000000   0.000000
     2  C   -0.000000  -0.000000  -0.000000  -0.000000   0.000000  -0.000000
     3  C   -0.000000   0.000000  -0.000000  -0.000000   0.000000  -0.000000
     4  C    0.000000   0.000000  -0.000000   0.000000  -0.000000   0.000000
     5  C   -0.000000   0.000000   0.000000   0.000000  -0.000000   0.000000
     6  C    0.000000  -0.000000  -0.000000   0.000000   0.000000  -0.000000
     7  C    0.000000  -0.000000   0.000000   0.000000  -0.000000   0.000000
     8  O   -0.000000   0.000000   0.000000   0.000000   0.000000  -0.000000
     9  C    0.000000  -0.000000   0.000000  -0.000000  -0.000000   0.000000
    10  C    0.000000  -0.000000   0.000000  -0.000000   0.000000  -0.000000
    11  C    0.000000  -0.000000  -0.000000  -0.000000  -0.000000   0.000000
    12  C   -0.000000   0.000000   0.000000   0.000000  -0.000000   0.000000
    13  C   -0.000000   0.000000   0.000000  -0.000000   0.000000  -0.000000
    14  Cl  -0.000000   0.000000   0.000000  -0.000000   0.000000  -0.000000
    15  C   -0.000000   0.000000  -0.000000  -0.000000  -0.000000   0.000000
    16  C   -0.000000   0.000000   0.000000   0.000000   0.000000  -0.000000
    17  O   -0.000000   0.000000  -0.000000  -0.000000   0.000000  -0.000000
    18  C    0.000000  -0.000000  -0.000000  -0.000000  -0.000000   0.000000
    19  H   -0.000000   0.000000  -0.000000  -0.000000   0.000000  -0.000000
    20  H    0.000000  -0.000000   0.000000  -0.000000  -0.000000   0.000000
    21  H   -0.000000   0.000000  -0.000000   0.000000  -0.000000   0.000000
    22  H   -0.000000  -0.000000   0.000000  -0.000000   0.000000  -0.000000
    23  H    0.000000  -0.000000  -0.000000   0.000000  -0.000000  -0.000000
    24  H   -0.000000   0.000000   0.000000  -0.000000  -0.000000   0.000000
 Mulliken charges and spin densities:
               1          2
     1  Cl   0.496372  -0.000000
     2  C    0.468635   0.000000
     3  C   -0.288053   0.000000
     4  C   -0.726574   0.000000
     5  C    0.413917  -0.000000
     6  C    0.460812  -0.000000
     7  C   -0.915375  -0.000000
     8  O   -0.251998   0.000000
     9  C    0.460816   0.000000
    10  C    0.414261   0.000000
    11  C   -0.726243  -0.000000
    12  C   -0.288047  -0.000000
    13  C    0.468562   0.000000
    14  Cl   0.496553  -0.000000
    15  C    0.349705   0.000000
    16  C   -2.329035  -0.000000
    17  O   -0.155268   0.000000
    18  C    0.350635  -0.000000
    19  H    0.230897   0.000000
    20  H    0.212597   0.000000
    21  H    0.206681   0.000000
    22  H    0.206712   0.000000
    23  H    0.212577  -0.000000
    24  H    0.230863   0.000000
 Sum of Mulliken charges =  -0.00000   0.00000
 Mulliken charges and spin densities with hydrogens summed into heavy atoms:
               1          2
     1  Cl   0.496372  -0.000000
     2  C    0.468635   0.000000
     3  C   -0.057157   0.000000
     4  C   -0.513976   0.000000
     5  C    0.620599  -0.000000
     6  C    0.460812  -0.000000
     7  C   -0.915375  -0.000000
     8  O   -0.251998   0.000000
     9  C    0.460816   0.000000
    10  C    0.620973   0.000000
    11  C   -0.513667  -0.000000
    12  C   -0.057184  -0.000000
    13  C    0.468562   0.000000
    14  Cl   0.496553  -0.000000
    15  C    0.349705   0.000000
    16  C   -2.329035  -0.000000
    17  O   -0.155268   0.000000
    18  C    0.350635  -0.000000
 Electronic spatial extent (au):  <R**2>=           5276.7661
 Charge=              0.0000 electrons
 Dipole moment (field-independent basis, Debye):
    X=             -0.5980    Y=             -2.2230    Z=             -3.2105  Tot=              3.9505
 Quadrupole moment (field-independent basis, Debye-Ang):
   XX=            -85.1409   YY=           -130.7342   ZZ=           -122.0379
   XY=             -0.8995   XZ=             -7.2894   YZ=             -6.8576
 Traceless Quadrupole moment (field-independent basis, Debye-Ang):
   XX=             27.4968   YY=            -18.0966   ZZ=             -9.4002
[...]
 07909,0.00043496,-0.01460601,-0.00953933,0.01457892,0.00024552,-0.0039
 2928,-0.00524602,0.00033757,0.00122217,0.00628093,0.01124407,0.0049633
 4,0.00888178,-0.00524345,-0.00245091,-0.00171206,-0.00417358,-0.001618
 94,-0.00164779,-0.00493772,0.00274153,-0.03068873,-0.00020416,0.012102
 26,-0.00098925,0.00625594,0.00210625,-0.16100307,0.01052049,0.03753629
 ,0.47304035,0.00075149,-0.00527156,-0.00127993,0.00579974,0.02068632,0
 .01036258,0.00518449,0.00025707,-0.00350553,0.00011674,-0.00053928,0.0
 0029801,0.00449469,-0.00321213,-0.00494391,-0.02991186,-0.01418526,-0.
 00853712,0.00035677,-0.00430822,0.00104650,0.00000660,0.00279993,0.000
 40683,0.02493107,-0.01350286,-0.01880147,-0.00579015,-0.00337179,-0.00
 301321,-0.00001239,-0.00061658,0.00029490,-0.00615627,0.00008624,-0.00
 131458,-0.00247569,0.02060501,0.01208739,-0.00117133,-0.00523928,-0.00
 081348,-0.00353716,-0.09645552,-0.00881832,0.06224496,0.50501764,-0.00
 114072,-0.00281694,-0.00363879,0.00179937,0.01269115,0.00800830,0.0037
 6771,-0.00309039,0.00441658,-0.00021205,-0.00035231,-0.00115709,0.0015
 3713,-0.00397308,0.00523048,-0.01148572,-0.00717038,-0.00549656,-0.003
 92614,0.00044530,-0.00515522,0.00121528,0.00215508,0.00092300,0.006899
 05,-0.01197691,-0.01196831,-0.00290247,-0.00220762,0.00680454,0.000443
 73,0.00129348,-0.00060365,-0.00127703,-0.00143640,0.00481577,0.0134401
 4,0.01365714,0.00395906,0.00016584,-0.00549421,-0.00484806,0.02863515,
 -0.01476029,-0.08656125,0.01673947,0.32692690,0.57356244,-0.00884005,0
 .00414153,-0.00119039,0.00397923,-0.00039863,-0.00078084,0.00136454,-0
 .00000083,0.00035870,0.00062193,-0.00177203,-0.00086700,-0.00247476,-0
 .00290033,-0.00023670,-0.00607408,0.00199115,0.00026000,-0.00501352,0.
 00053236,0.00111682,0.00169075,-0.00040171,-0.00042158,-0.00339050,-0.
 00082945,0.00282102,-0.00157641,0.00219278,0.00045680,0.00050907,0.001
 44611,0.00057734,0.00136410,0.00006230,-0.00081661,0.00140912,-0.00190
 963,-0.00126916,-0.00700848,-0.00281603,0.00491024,0.01736360,0.023011
 56,0.02253648,-0.10226515,-0.05387212,-0.05951561,0.11211182,0.0061026
 2,0.00369198,0.00166424,0.00395905,-0.00897664,-0.00404687,-0.00013528
 ,-0.00000414,0.00154583,0.00099437,-0.00153864,-0.00091584,-0.00403673
 ,-0.00103593,0.00119128,-0.00046344,0.00529662,0.00195842,-0.00014512,
 0.00259314,-0.00041749,-0.00004073,-0.00141861,-0.00033886,0.00098367,
 0.00529213,0.00168817,0.00417536,-0.00092754,-0.00037925,-0.00122985,-
 0.00153132,-0.00048063,0.00072368,0.00000047,0.00137857,-0.00499548,-0
 .00904733,-0.00236615,-0.00515428,0.00359831,0.00410409,0.01991379,-0.
 01116535,-0.04253517,-0.05442199,-0.30673892,-0.29433780,0.06786130,0.
 33425271,0.00075639,0.00317604,0.00247170,0.00546949,-0.00656645,-0.00
 385196,-0.00085424,0.00005581,0.00027465,0.00082937,-0.00059434,-0.000
 24068,-0.00204382,-0.00133850,-0.00097500,-0.00395141,0.00314369,0.004
 41792,0.00109520,0.00312742,0.00062597,-0.00040795,-0.00225558,-0.0004
 4837,0.00697202,0.00379665,0.00171786,0.00229952,-0.00227207,-0.001976
 31,-0.00112149,-0.00123271,-0.00014279,0.00041982,0.00006164,0.0002659
 5,-0.00743558,-0.00641800,-0.00123915,0.00292641,0.00478781,0.00126701
 ,0.01774483,-0.04116725,-0.03483726,-0.05955126,-0.29151911,-0.4156018
 0,0.06656340,0.36554883,0.46343805,0.00537473,0.00516667,0.00319625,-0
 .24349587,0.08512051,0.03311171,-0.05230674,-0.01617428,-0.00439506,-0
 .01187220,0.02071258,0.00868235,0.01679472,-0.02904517,-0.01209275,-0.
 11729671,-0.03368164,-0.00665849,0.00557115,0.02431330,0.00991532,-0.0
 0461246,0.00480949,0.00173628,-0.00187053,-0.00254875,-0.00119307,0.00
 101954,0.00020591,-0.00049552,-0.00100514,-0.00091532,-0.00011510,-0.0
 0143486,0.00023671,0.00070816,0.00142202,0.00536331,0.00188092,-0.0000
 5420,-0.00091763,-0.00031854,-0.02771552,-0.00788178,0.00052730,-0.173
 16976,-0.00110632,0.00618097,-0.00246812,-0.03398375,-0.02976457,0.615
 74381,0.02024256,-0.02453993,-0.01156695,0.04927989,-0.13721129,-0.033
 39631,0.02311216,0.04794022,0.01608567,0.02426476,-0.04050589,-0.01578
 431,-0.06374340,-0.01705083,-0.01224723,0.00317552,-0.24716052,-0.0850
 0187,0.00898122,-0.02015343,-0.00769968,0.00040454,0.00535193,0.000419
 89,-0.00317014,-0.00046901,0.00089922,0.00042104,-0.00047407,0.0005183
 6,-0.00035769,-0.00025120,-0.00005711,0.00053918,0.00112853,0.00086906
 ,0.00316924,-0.00174724,-0.00304549,-0.00016146,-0.00038201,-0.0001972
 9,0.00673800,0.01909572,-0.00227626,-0.01652443,-0.09664432,-0.0099121
 5,-0.03630957,-0.01215615,-0.03026938,-0.01633784,0.52475212,0.0081130
 5,-0.01143918,-0.00250740,0.01781259,-0.03750164,-0.07745214,0.0110940
 4,0.02072957,0.01594154,0.01181786,-0.01761087,-0.01128219,-0.02930144
 ,-0.00954387,0.00255446,0.00766770,-0.08570517,-0.09776454,0.00386598,
 -0.00911090,-0.00525956,0.00010603,0.00137110,0.00322756,-0.00011984,-
 0.00043286,-0.00004334,-0.00048838,0.00015900,-0.00082814,0.00009183,0
 .00005211,0.00002938,0.00030988,0.00088628,-0.00091173,0.00148706,-0.0
 0273077,-0.00116793,-0.00012858,0.00042528,0.00071009,0.01544679,0.000
 60803,0.01245754,-0.00263442,-0.00954509,-0.07382570,-0.03455518,-0.03
 273438,-0.01411299,-0.00938816,0.19682322,0.24117269,0.00098926,0.0009
 0348,0.00036478,-0.01892037,0.01452544,0.00613670,-0.25734540,0.120058
 35,0.05037807,0.00661599,-0.00312650,-0.00128617,0.00132447,-0.0012009
 4,-0.00051387,0.00024750,-0.00079008,-0.00031409,-0.00004581,-0.000036
 37,-0.00001342,0.00001778,0.00008910,0.00001855,0.00002599,-0.00005712
 ,-0.00002702,-0.00003251,0.00000366,0.00001209,0.00000260,0.00001828,0
 .00001142,-0.00003575,-0.00004238,-0.00000429,0.00000275,0.00020590,0.
 00010813,-0.00001648,-0.00005626,-0.00001531,-0.00040889,-0.00027431,-
 0.00010547,0.00018073,0.00127910,0.00095910,0.00001138,-0.00037831,-0.
 00035606,-0.00343141,-0.00289044,-0.00164576,0.27004829,-0.00152150,0.
 00052789,0.00120412,-0.01336193,0.00754667,0.00177491,0.12277652,-0.12
 726079,-0.03693902,0.02439673,-0.00908288,-0.00586324,-0.00120732,-0.0
 0331351,-0.00437939,-0.00082750,-0.00084777,0.00005163,-0.00007911,-0.
 00016949,0.00024295,0.00023649,0.00002990,-0.00000483,0.00008859,-0.00
 001609,-0.00008566,0.00000309,0.00003122,0.00000046,0.00001152,-0.0000
 0353,0.00000322,-0.00001162,-0.00001746,0.00000528,-0.00000714,0.00002
 488,0.00009186,0.00000545,0.00000504,-0.00000581,-0.00014796,-0.000163
 00,-0.00008808,-0.00070493,0.00057156,0.00018689,0.00015731,0.00001218
 ,0.00007854,-0.00243330,0.00021957,-0.00238914,-0.12828942,0.13180980,
 -0.00058911,0.00127941,-0.00190298,-0.00626881,0.00164716,0.00413678,0
 .05188118,-0.03639529,-0.05330607,0.01023614,-0.00636996,0.00212323,-0
 .00061334,-0.00433989,0.00546580,-0.00011816,0.00019133,-0.00082099,0.
 00004651,0.00031339,-0.00058678,-0.00000372,0.00001119,0.00005254,-0.0
 0002088,-0.00005694,0.00011517,0.00005370,0.00000181,0.00000252,-0.000
 04189,-0.00001307,-0.00002561,-0.00000945,0.00002818,0.00003144,-0.000
 01179,0.00007044,-0.00013496,0.00000049,-0.00000193,0.00000423,-0.0001
 3001,0.00001857,-0.00003852,-0.00006420,-0.00001903,0.00028491,-0.0000
 4143,-0.00004311,0.00001952,-0.00089969,-0.00254312,0.00443245,-0.0537
 0825,0.04438411,0.04374049,0.00004183,0.00007927,0.00004285,0.00162093
 ,0.00060896,0.00034092,0.00299243,0.00183616,0.00077302,-0.28448172,-0
 .10571589,-0.04122166,-0.01774688,-0.01224323,-0.00493479,-0.00268070,
 0.00342667,0.00160608,-0.00013868,-0.00154695,-0.00064273,-0.00006417,
 0.00048474,0.00015868,-0.00035416,0.00030380,0.00019647,-0.00008721,-0
 .00015966,-0.00003071,-0.00002551,0.00003185,0.00002698,-0.00000834,-0
 .00003887,-0.00000951,-0.00002617,0.00008099,0.00003933,-0.00001625,-0
 .00006499,-0.00001500,0.00000243,0.00004796,0.00000910,0.00014185,0.00
 007290,0.00008159,-0.00008467,-0.00009088,-0.00014205,0.00024435,0.000
 45877,0.00022684,0.00061012,-0.00016465,-0.00013648,0.29894702,-0.0007
 2068,-0.00126827,-0.00045562,0.00057186,-0.00199837,-0.00392246,-0.026
 59982,-0.00831991,-0.00507303,-0.10542226,-0.10524922,-0.02624223,0.01
 556247,0.01074505,0.00237709,0.00298400,0.00016571,-0.00292355,0.00062
 189,0.00065632,0.00022473,-0.00009690,-0.00003609,-0.00005939,0.000221
 06,-0.00016592,-0.00007425,0.00005145,0.00004957,0.00005429,0.00001860
 ,-0.00000076,-0.00001929,0.00000843,-0.00001061,0.00001068,-0.00001453
 ,0.00001024,0.00000258,0.00000593,0.00000854,0.00000210,-0.00005493,-0
 .00000392,-0.00008531,-0.00005252,-0.00014874,0.00035755,-0.00001158,0
 .00011461,0.00002792,0.00063484,-0.00100372,-0.00005814,0.00026692,0.0
 0045737,0.00190433,0.11261518,0.10599964,-0.00035645,-0.00048842,-0.00
 039833,0.00022008,-0.00413057,0.00585343,-0.01126350,-0.00517586,0.002
 26893,-0.04126501,-0.02626115,-0.05023882,0.00727838,0.00269982,0.0057
 2223,0.00153395,-0.00325364,0.00560602,0.00040700,0.00033272,0.0001687
 6,-0.00012687,-0.00005978,0.00014451,0.00006467,-0.00010711,-0.0002391
 5,-0.00000967,0.00009857,-0.00009842,0.00001986,-0.00001892,0.00000604
 ,-0.00001503,0.00001301,-0.00003606,0.00001619,-0.00000854,0.00002653,
 -0.00000687,0.00000838,0.00000343,-0.00002839,-0.00014987,0.00021479,0
 .00024912,0.00051812,-0.00082304,-0.00008841,-0.00021008,0.00002370,-0
 .00017504,0.00036851,-0.00095804,0.00011953,0.00187469,-0.00331295,0.0
 4373273,0.03217342,0.03938385,0.00018733,0.00007704,-0.00000003,-0.001
 22564,0.00011057,0.00010499,-0.00400986,0.00217516,0.00115774,0.005159
 36,0.02486083,0.01072566,-0.05801194,-0.01035659,-0.00340728,0.0038084
 2,-0.02581688,-0.01122724,-0.00035244,-0.00169053,-0.00055855,0.000142
 18,0.00138119,0.00062757,0.00039507,0.00027821,-0.00008706,0.00004710,
 0.00014604,0.00003634,-0.00004330,-0.00002690,0.00000936,-0.00002084,0
 .00009540,0.00006811,0.00017414,0.00003505,-0.00003322,0.00000293,0.00
 004626,0.00002013,-0.00010049,0.00001137,-0.00005385,0.00145783,-0.001
 02423,-0.00034116,-0.00079680,-0.00028694,-0.00052208,-0.00513586,-0.0
 0144437,-0.00011121,0.00018390,0.00109548,0.00042838,0.00112459,-0.000
 58840,-0.00032161,0.05705438,-0.00003893,-0.00015171,0.00021464,0.0000
 5131,0.00046451,0.00058653,0.00212397,0.00158823,-0.00251252,-0.002245
 87,-0.00737343,-0.00509155,-0.01097267,-0.29432397,-0.11111559,-0.0016
 0305,-0.00813758,-0.00502193,0.00146695,-0.00328967,0.00057300,0.00251
 469,0.00119281,0.00014079,-0.00027970,-0.00001735,0.00001903,0.0000014
 2,-0.00004615,-0.00004527,-0.00002423,0.00000380,0.00002196,-0.0000199
 6,0.00000093,0.00000813,0.00005058,0.00007201,0.00001601,-0.00001663,-
 0.00003661,-0.00000704,-0.00015302,0.00004828,0.00002410,0.00065259,-0
 .00010141,-0.00032312,-0.00036009,-0.00022866,-0.00011411,-0.00180339,
 0.00137267,-0.00198834,-0.00021973,-0.00037285,-0.00005563,-0.00001902
 ,-0.00000792,0.00178419,0.01090855,0.30932323,0.00002940,0.00012333,-0
 .00054477,0.00045118,0.00045119,-0.00078426,0.00110663,-0.00272959,0.0
 0607538,-0.00139120,-0.00557156,0.00230678,-0.00378783,-0.11128724,-0.
 08786414,-0.00011568,-0.00532980,0.00138592,0.00004736,0.00116268,-0.0
 0356100,0.00081533,0.00051527,0.00029751,0.00005362,-0.00004009,0.0001
 2206,0.00001821,-0.00002288,0.00005451,-0.00002476,0.00004933,-0.00003
 507,0.00000962,0.00001343,0.00001856,0.00005949,0.00001921,0.00000112,
 -0.00000562,-0.00001403,-0.00001310,-0.00004528,0.00001654,-0.00001724
 ,0.00030560,-0.00020470,0.00079837,0.00006228,0.00012225,-0.00034440,-
 0.00083138,-0.00180429,0.00564272,-0.00013367,-0.00013721,-0.00031182,
 -0.00010000,0.00178854,-0.00334212,0.00346688,0.12287965,0.08007933,-0
 .00000452,-0.00004445,-0.00002268,0.00013823,-0.00002748,-0.00002493,-
 0.00004062,-0.00008104,-0.00004236,-0.00003699,0.00004142,-0.00000918,
 0.00003116,-0.00013948,-0.00002482,0.00036138,-0.00025552,-0.00000717,
 -0.00062604,0.00200149,-0.00064644,-0.00024879,-0.00095049,-0.00032718
 ,0.00701353,0.02221545,0.00903645,-0.05849843,-0.02771656,-0.00623949,
 0.00198617,-0.02494578,-0.01047778,-0.00329555,-0.00312603,0.00264737,
 -0.00135595,0.00002719,0.00011046,0.00007609,-0.00001203,-0.00024903,-
 0.00335966,0.00057608,0.00374204,0.00138153,0.00089264,0.00010977,-0.0
 0058818,0.00030941,0.00062394,-0.00005964,-0.00000711,0.00006919,-0.00
 000503,-0.00000760,-0.00000119,0.00001574,-0.00000426,-0.00000032,-0.0
 0005051,-0.00000101,0.00001408,0.05651444,0.00001343,-0.00003525,-0.00
 001215,-0.00004176,0.00006862,0.00003218,0.00002097,0.00000154,0.00000
 020,0.00003064,0.00000442,0.00001135,-0.00001730,-0.00004690,-0.000041
 86,0.00026987,-0.00001125,-0.00008408,-0.00108563,-0.00332536,0.001055
 78,-0.00216959,0.00127549,0.00104131,-0.00010299,-0.00767118,-0.005140
 84,-0.02708756,-0.29422360,-0.10838931,0.00035116,-0.00781555,-0.00581
 701,-0.00300084,0.00150208,-0.00151583,0.00013640,0.00045920,0.0005729
 8,0.00012200,-0.00014850,0.00018236,0.00083788,0.00142786,-0.00246233,
 -0.00069502,-0.00009643,-0.00006633,0.00028545,-0.00021574,-0.00022258
 ,0.00014775,0.00004912,-0.00003299,0.00000526,0.00000018,0.00000112,0.
 00000902,-0.00000443,0.00000057,0.00000023,0.00002537,-0.00000006,0.03
 107702,0.30915501,0.00000236,0.00000437,-0.00000550,-0.00011702,0.0000
 2870,0.00003434,0.00001431,0.00004875,0.00004024,0.00002530,0.00003607
 ,-0.00004142,-0.00000925,0.00003273,0.00007242,-0.00015221,0.00006392,
 0.00014709,-0.00124019,0.00042338,-0.00328553,-0.00053759,0.00095737,0
 .00077935,-0.00205499,-0.01458157,-0.00227979,-0.00581375,-0.10832403,
 -0.08725856,0.00159814,0.00401693,0.00592229,0.00269871,-0.00169794,0.
 00545176,-0.00021453,0.00046091,-0.00065396,-0.00027816,0.00014158,-0.
 00043295,0.00445223,-0.00216156,0.00381008,-0.00053978,-0.00058537,0.0
 0087389,0.00003538,0.00000795,-0.00056810,0.00006162,0.00002040,-0.000
 06244,0.00000562,0.00000333,0.00000335,-0.00000579,0.00000171,-0.00000
 395,0.00002083,0.00000023,0.00003505,0.00356398,0.11939047,0.08042352,
 -0.00000731,0.00006342,0.00001864,-0.00003666,-0.00007962,-0.00001309,
 -0.00000416,0.00004107,-0.00000387,-0.00003642,-0.00003722,-0.00000931
 ,-0.00007771,0.00018287,0.00002029,-0.00041833,-0.00032670,-0.00011981
 ,-0.00003305,0.00154513,0.00071491,-0.00004007,-0.00047186,-0.00008201
 ,-0.00248217,-0.00443944,0.00168903,-0.01527159,0.01185565,0.01328024,
 -0.22658806,0.08572308,0.11219821,0.00618433,-0.00334715,-0.00223717,0
 .00207679,-0.00203989,0.00123984,0.00008435,-0.00023056,-0.00022735,0.
 00007440,-0.00026954,-0.00063796,-0.00011002,0.00012659,-0.00037374,0.
 00000860,0.00000411,0.00014732,0.00003977,-0.00009960,0.00006279,-0.00
 000348,0.00000300,0.00000118,-0.00002268,0.00000447,0.00001652,0.00001
 575,-0.00000816,-0.00000209,0.00062373,0.00070313,-0.00151444,0.235949
 92,-0.00000500,0.00000920,0.00000440,0.00001349,0.00000970,-0.00000299
 ,-0.00000355,-0.00000996,0.00001322,-0.00002494,-0.00000188,-0.0000112
 6,-0.00002989,0.00005186,0.00007058,-0.00023627,-0.00017549,0.00001147
 ,-0.00050601,0.00067338,0.00045293,0.00006737,-0.00004284,-0.00009290,
 -0.00390821,0.00004000,-0.00160789,-0.01400817,0.01067192,0.00824987,0
 .08543437,-0.10163133,-0.06163773,0.02302894,-0.00785406,-0.01467255,-
 0.00192602,-0.00202312,-0.00345327,0.00052150,-0.00125787,-0.00070090,
 -0.00058799,-0.00102313,0.00016840,0.00018030,-0.00014633,0.00031181,0
 .00001989,0.00011474,0.00002384,0.00002023,-0.00000450,-0.00009965,0.0
 0000113,0.00000164,-0.00000024,-0.00000911,0.00000921,-0.00000926,0.00
 000505,-0.00000452,-0.00000004,0.00123403,0.00001461,0.00143206,-0.089
 74325,0.10212786,0.00001112,-0.00001624,-0.00000655,0.00000943,0.00002
 240,0.00003810,0.00000197,-0.00000251,-0.00004077,-0.00000254,-0.00000
 565,0.00001785,-0.00000025,0.00003228,-0.00011049,0.00000953,0.0000127
 9,-0.00016541,-0.00033365,-0.00027078,0.00004452,0.00020231,0.00012985
 ,0.00012718,0.00176888,-0.00173785,0.00552967,0.00109143,-0.00198086,0
 .00333275,0.11226094,-0.06177064,-0.11173396,0.00974253,-0.00401833,-0
 .00134301,0.00135816,-0.00362778,0.00542649,0.00017191,-0.00042322,-0.
 00045186,-0.00024672,0.00051110,-0.00077084,-0.00054090,0.00050041,-0.
 00057370,0.00009743,-0.00022616,-0.00007082,0.00010120,-0.00012012,0.0
 0017894,0.00000211,0.00000012,-0.00000104,0.00000431,-0.00001190,0.000
 02887,-0.00000759,0.00000389,-0.00000318,-0.00127981,0.00164282,-0.002
 86147,-0.12292184,0.06967177,0.10615410,-0.00000992,0.00005090,0.00002
 000,-0.00004735,-0.00016518,-0.00014348,-0.00002226,0.00004977,0.00002
 560,0.00000988,-0.00002162,-0.00002557,-0.00005034,-0.00000433,0.00000
 908,0.00005711,0.00003270,0.00005301,-0.00013978,0.00014840,-0.0001715
 0,0.00002321,-0.00007673,-0.00000566,0.00022792,0.00081868,-0.00011176
 ,0.00229368,-0.00041921,0.00185767,0.00320086,0.00073601,0.00096933,-0
 .26020898,-0.12743920,0.03308219,-0.01570119,-0.01326109,0.00176910,0.
 00068113,-0.00035416,-0.00139677,-0.00151198,0.00169181,0.00406424,-0.
 00010747,-0.00120024,-0.00079967,0.00014660,0.00033542,0.00030282,-0.0
 0028107,0.00025915,0.00020135,-0.00001563,-0.00001022,0.00001083,-0.00
 000415,-0.00000121,-0.00000085,-0.00000530,-0.00000460,-0.00000218,0.0
 0002791,0.00019047,-0.00000078,0.00007406,0.00046211,-0.00149996,0.271
 36308,-0.00000777,0.00000722,-0.00000269,0.00003981,0.00001904,0.00007
 967,0.00001195,-0.00001607,0.00000096,-0.00000974,-0.00000413,0.000007
 14,-0.00000419,0.00003189,0.00000181,-0.00011541,-0.00001646,-0.000045
 50,0.00017703,-0.00015916,0.00019668,-0.00022694,0.00001709,0.00008170
 ,0.00079537,-0.00081736,-0.00025774,-0.00042135,-0.00327821,-0.0045317
 6,-0.02458098,-0.00954089,0.00352306,-0.13013827,-0.13147101,0.0113700
 2,0.01262397,0.00752496,-0.00325334,0.00186418,0.00054718,0.00053204,0
 .00131434,0.00030353,-0.00306015,0.00072234,0.00055486,-0.00010735,-0.
 00011975,0.00001811,0.00014189,0.00009786,-0.00015576,-0.00013160,0.00
 000523,0.00000946,-0.00001283,-0.00000303,0.00000159,0.00000121,0.0000
 0840,0.,0.00000010,-0.00105588,-0.00038929,0.00027960,0.00084047,0.000
 45091,0.00168462,0.13818236,0.13636252,0.00000493,-0.00002109,-0.00000
 316,-0.00002450,0.00013936,-0.00008328,0.00003019,0.00001124,0.0000177
 2,0.00002771,-0.00000468,-0.00003227,-0.00003260,0.00000367,0.00002098
 ,0.00004158,-0.00007381,0.00008723,-0.00021435,0.00028585,-0.00049831,
 0.00000917,0.00003455,0.00005176,-0.00031189,-0.00014142,-0.00083214,0
 .00194965,-0.00449036,0.00445833,-0.01052682,-0.00731895,0.00578543,0.
 03159236,0.01083122,-0.04598370,0.01412360,0.00718906,0.00094919,-0.00
 042862,0.00150533,-0.00161839,0.00332289,-0.00337704,0.00244268,0.0002
 3057,0.00045918,0.00057581,-0.00001295,-0.00017785,-0.00011269,0.00022
 528,-0.00008276,-0.00017124,0.00000728,-0.00000972,0.00002931,-0.00000
 018,0.00000024,-0.00000022,0.00000491,0.00000296,0.00000378,-0.0005649
 1,-0.00014577,-0.00013972,-0.00124629,0.00187836,-0.00274536,-0.038207
 02,-0.00649755,0.03779829\\-0.00000408,0.00000830,0.00000136,0.0000004
 7,-0.00002160,-0.00000195,-0.00000236,0.00000079,0.00000076,0.00000421
 ,0.00000464,0.00000552,0.00000136,0.00000103,0.00000482,-0.00001067,-0
 .00002299,-0.00000928,-0.00000208,0.00000771,-0.00000577,0.00000078,-0
 .00000029,0.00000366,0.00000733,-0.00001985,-0.00000958,-0.00000092,0.
 00000239,-0.00000034,-0.00000198,0.00000562,0.00000097,0.00000272,0.00
 000070,-0.00000377,-0.00000830,-0.00002242,-0.00001138,-0.00000392,0.0
 0000796,0.00000451,0.00000232,0.00003336,0.00001524,0.00000228,-0.0000
 0830,-0.00000987,0.00000912,0.00000109,-0.00000374,0.00000522,0.000027
 80,0.00001741,0.00000238,-0.00000019,0.00000360,-0.00000001,-0.0000033
 1,0.00000160,0.00000358,-0.00000214,0.00000214,-0.00000364,-0.00000091
 ,0.00000044,-0.00000109,-0.00000111,-0.00000464,-0.00000271,0.00000172
 ,-0.00000172\\\@


 IT IS A QUALITY OF REVOLUTIONS NOT TO GO BY OLD LINES OR OLD LAWS,
 BUT TO BREAK UP BOTH, AND MAKE NEW ONES.
                                              -- A. LINCOLN (1848)
 Job cpu time:       0 days  6 hours 39 minutes 52.5 seconds.
 Elapsed time:       0 days  1 hours  1 minutes 20.3 seconds.
 File lengths (MBytes):  RWF=   1068 Int=      0 D2E=      0 Chk=     32 Scr=      1
 Normal termination of Gaussian 16 at Sat Feb 10 17:31:48 2024.
