 Entering Gaussian System, Link 0=g16
 Input=142.com
 Output=142.log
 Initial command:
 /sysapps/ubuntu-applications/gaussian/Gaussian/AVX2/g16/l1.exe "/scratch/selhajj1/4234643/Gau-1315133.inp" -scrdir="/scratch/selhajj1/4234643/"
 Entering Link 1 = /sysapps/ubuntu-applications/gaussian/Gaussian/AVX2/g16/l1.exe PID=   1315138.
  
 Copyright (c) 1988,1990,1992,1993,1995,1998,2003,2009,2016,
            Gaussian, Inc.  All Rights Reserved.
  
 This is part of the Gaussian(R) 16 program.  It is based on
 the Gaussian(R) 09 system (copyright 2009, Gaussian, Inc.),
 the Gaussian(R) 03 system (copyright 2003, Gaussian, Inc.),
 the Gaussian(R) 98 system (copyright 1998, Gaussian, Inc.),
 the Gaussian(R) 94 system (copyright 1995, Gaussian, Inc.),
 the Gaussian 92(TM) system (copyright 1992, Gaussian, Inc.),
 the Gaussian 90(TM) system (copyright 1990, Gaussian, Inc.),
 the Gaussian 88(TM) system (copyright 1988, Gaussian, Inc.),
 the Gaussian 86(TM) system (copyright 1986, Carnegie Mellon
 University), and the Gaussian 82(TM) system (copyright 1983,
 Carnegie Mellon University). Gaussian is a federally registered
 trademark of Gaussian, Inc.
  
 This software contains proprietary and confidential information,
 including trade secrets, belonging to Gaussian, Inc.
  
 This software is provided under written license and may be
 used, copied, transmitted, or stored only in accord with that
 written license.
  
 The following legend is applicable only to US Government
 contracts under FAR:
  
                    RESTRICTED RIGHTS LEGEND
  
 Use, reproduction and disclosure by the US Government is
 subject to restrictions as set forth in subparagraphs (a)
 and (c) of the Commercial Computer Software - Restricted
 Rights clause in FAR 52.227-19.
  
 Gaussian, Inc.
 340 Quinnipiac St., Bldg. 40, Wallingford CT 06492
  
  
 ---------------------------------------------------------------
 Warning -- This program may not be used in any manner that
 competes with the business of Gaussian, Inc. or will provide
 assistance to any competitor of Gaussian, Inc.  The licensee
 of this program is prohibited from giving any competitor of
 Gaussian, Inc. access to this program.  By using this program,
 the user acknowledges that Gaussian, Inc. is engaged in the
 business of creating and licensing software in the field of
 computational chemistry and represents and warrants to the
 licensee that it is not a competitor of Gaussian, Inc. and that
 it will not use this program in any manner prohibited above.
 ---------------------------------------------------------------
  

 Cite this work as:
 Gaussian 16, Revision A.03,
 M. J. Frisch, G. W. Trucks, H. B. Schlegel, G. E. Scuseria, 
 M. A. Robb, J. R. Cheeseman, G. Scalmani, V. Barone, 
 G. A. Petersson, H. Nakatsuji, X. Li, M. Caricato, A. V. Marenich, 
 J. Bloino, B. G. Janesko, R. Gomperts, B. Mennucci, H. P. Hratchian, 
 J. V. Ortiz, A. F. Izmaylov, J. L. Sonnenberg, D. Williams-Young, 
 F. Ding, F. Lipparini, F. Egidi, J. Goings, B. Peng, A. Petrone, 
 T. Henderson, D. Ranasinghe, V. G. Zakrzewski, J. Gao, N. Rega, 
 G. Zheng, W. Liang, M. Hada, M. Ehara, K. Toyota, R. Fukuda, 
 J. Hasegawa, M. Ishida, T. Nakajima, Y. Honda, O. Kitao, H. Nakai, 
 T. Vreven, K. Throssell, J. A. Montgomery, Jr., J. E. Peralta, 
 F. Ogliaro, M. J. Bearpark, J. J. Heyd, E. N. Brothers, K. N. Kudin, 
 V. N. Staroverov, T. A. Keith, R. Kobayashi, J. Normand, 
 K. Raghavachari, A. P. Rendell, J. C. Burant, S. S. Iyengar, 
 J. Tomasi, M. Cossi, J. M. Millam, M. Klene, C. Adamo, R. Cammi, 
 J. W. Ochterski, R. L. Martin, K. Morokuma, O. Farkas, 
 J. B. Foresman, and D. J. Fox, Gaussian, Inc., Wallingford CT, 2016.
 
 ******************************************
 Gaussian 16:  ES64L-G16RevA.03 25-Dec-2016
                27-Dec-2023 
 ******************************************
 %chk=142.chk
 %nproc=8
 Will use up to    8 processors via shared memory.
 %mem=30GB
 --------------------------------------
 #P UB3LYP/6-311++G(d,p) nosym opt freq
 --------------------------------------
 1/18=20,19=15,26=3,38=1/1,3;
 2/9=110,12=2,15=1,17=6,18=5,40=1/2;
 3/5=4,6=6,7=1111,11=2,25=1,30=1,71=1,74=-5,116=2/1,2,3;
 4//1;
 5/5=2,38=5/2;
 6/7=2,8=2,9=2,10=2,28=1/1;
 7/30=1/1,2,3,16;
 1/18=20,19=15,26=3/3(2);
 2/9=110,15=1/2;
 99//99;
 2/9=110,15=1/2;
 3/5=4,6=6,7=1111,11=2,25=1,30=1,71=1,74=-5,116=2/1,2,3;
 4/5=5,16=3,69=1/1;
 5/5=2,38=5/2;
 7/30=1/1,2,3,16;
 1/18=20,19=15,26=3/3(-5);
 2/9=110,15=1/2;
 6/7=2,8=2,9=2,10=2,19=2,28=1/1;
 99/9=1/99;
 Leave Link    1 at Wed Dec 27 19:44:43 2023, MaxMem=  4026531840 cpu:               1.5 elap:               0.2
 (Enter /sysapps/ubuntu-applications/gaussian/Gaussian/AVX2/g16/l101.exe)
 --------
 Oxidized
 --------
 Symbolic Z-matrix:
 Charge =  0 Multiplicity = 1
 C                    -3.26171   3.66207   0.0831 
 C                    -4.50646   3.02472   0.08823 
 C                    -4.57177   1.62379   0.06458 
 C                    -2.09166   2.91347   0.05464 
 C                    -2.14812   1.50444   0.03069 
 C                    -3.39693   0.88162   0.03616 
 C                    -0.78173   3.63388   0.05005 
 C                     0.45703   2.79756   0.01943 
 C                     0.38459   1.38926  -0.00423 
 C                    -0.91714   0.67307   0.00007 
 C                     1.69058   3.43675   0.01463 
 C                     2.87196   2.68894  -0.01376 
 C                     2.80907   1.2879   -0.03745 
 C                     1.57134   0.65557  -0.03245 
 O                    -0.7261    4.85144   0.07068 
 O                    -0.973    -0.54965  -0.02038 
 H                    -3.43128  -0.20094   0.0177 
 H                     1.50663  -0.4256   -0.05054 
 H                    -3.20913   4.74316   0.10131 
 H                     1.73699   4.51812   0.03293 
 O                     4.02425   3.40503  -0.01627 
 C                     5.26873   2.71229  -0.0428 
 O                    -5.58857   3.84251   0.11686 
 H                     3.71057   0.69066  -0.05964 
 H                     6.03527   3.48469  -0.03836 
 H                     5.36764   2.10713  -0.94972 
 H                     5.38849   2.07608   0.84002 
 C                    -6.89115   3.26582   0.12107 
 H                    -5.52404   1.11093   0.06818 
 H                    -7.58395   4.10472   0.1434 
 H                    -7.04694   2.64199   1.00711 
 H                    -7.06656   2.67336  -0.78264 
 
 ITRead=  0  0  0  0  0  0  0  0  0  0  0  0  0  0  0  0  0  0  0  0
 ITRead=  0  0  0  0  0  0  0  0  0  0  0  0
 MicOpt= -1 -1 -1 -1 -1 -1 -1 -1 -1 -1 -1 -1 -1 -1 -1 -1 -1 -1 -1 -1
 MicOpt= -1 -1 -1 -1 -1 -1 -1 -1 -1 -1 -1 -1
 NAtoms=     32 NQM=       32 NQMF=       0 NMMI=      0 NMMIF=      0
                NMic=       0 NMicF=      0.
                    Isotopes and Nuclear Properties:
 (Nuclear quadrupole moments (NQMom) in fm**2, nuclear magnetic moments (NMagM)
  in nuclear magnetons)

  Atom         1           2           3           4           5           6           7           8           9          10
 IAtWgt=          12          12          12          12          12          12          12          12          12          12
 AtmWgt=  12.0000000  12.0000000  12.0000000  12.0000000  12.0000000  12.0000000  12.0000000  12.0000000  12.0000000  12.0000000
 NucSpn=           0           0           0           0           0           0           0           0           0           0
 AtZEff=  -0.0000000  -0.0000000  -0.0000000  -0.0000000  -0.0000000  -0.0000000  -0.0000000  -0.0000000  -0.0000000  -0.0000000
 NQMom=    0.0000000   0.0000000   0.0000000   0.0000000   0.0000000   0.0000000   0.0000000   0.0000000   0.0000000   0.0000000
 NMagM=    0.0000000   0.0000000   0.0000000   0.0000000   0.0000000   0.0000000   0.0000000   0.0000000   0.0000000   0.0000000
 AtZNuc=   6.0000000   6.0000000   6.0000000   6.0000000   6.0000000   6.0000000   6.0000000   6.0000000   6.0000000   6.0000000

  Atom        11          12          13          14          15          16          17          18          19          20
 IAtWgt=          12          12          12          12          16          16           1           1           1           1
 AtmWgt=  12.0000000  12.0000000  12.0000000  12.0000000  15.9949146  15.9949146   1.0078250   1.0078250   1.0078250   1.0078250
 NucSpn=           0           0           0           0           0           0           1           1           1           1
 AtZEff=  -0.0000000  -0.0000000  -0.0000000  -0.0000000  -0.0000000  -0.0000000  -0.0000000  -0.0000000  -0.0000000  -0.0000000
 NQMom=    0.0000000   0.0000000   0.0000000   0.0000000   0.0000000   0.0000000   0.0000000   0.0000000   0.0000000   0.0000000
 NMagM=    0.0000000   0.0000000   0.0000000   0.0000000   0.0000000   0.0000000   2.7928460   2.7928460   2.7928460   2.7928460
 AtZNuc=   6.0000000   6.0000000   6.0000000   6.0000000   8.0000000   8.0000000   1.0000000   1.0000000   1.0000000   1.0000000

  Atom        21          22          23          24          25          26          27          28          29          30
 IAtWgt=          16          12          16           1           1           1           1          12           1           1
 AtmWgt=  15.9949146  12.0000000  15.9949146   1.0078250   1.0078250   1.0078250   1.0078250  12.0000000   1.0078250   1.0078250
 NucSpn=           0           0           0           1           1           1           1           0           1           1
 AtZEff=  -0.0000000  -0.0000000  -0.0000000  -0.0000000  -0.0000000  -0.0000000  -0.0000000  -0.0000000  -0.0000000  -0.0000000
 NQMom=    0.0000000   0.0000000   0.0000000   0.0000000   0.0000000   0.0000000   0.0000000   0.0000000   0.0000000   0.0000000
 NMagM=    0.0000000   0.0000000   0.0000000   2.7928460   2.7928460   2.7928460   2.7928460   0.0000000   2.7928460   2.7928460
 AtZNuc=   8.0000000   6.0000000   8.0000000   1.0000000   1.0000000   1.0000000   1.0000000   6.0000000   1.0000000   1.0000000

  Atom        31          32
 IAtWgt=           1           1
 AtmWgt=   1.0078250   1.0078250
 NucSpn=           1           1
 AtZEff=  -0.0000000  -0.0000000
 NQMom=    0.0000000   0.0000000
 NMagM=    2.7928460   2.7928460
 AtZNuc=   1.0000000   1.0000000
 Leave Link  101 at Wed Dec 27 19:44:44 2023, MaxMem=  4026531840 cpu:               6.6 elap:               0.9
 (Enter /sysapps/ubuntu-applications/gaussian/Gaussian/AVX2/g16/l103.exe)

 GradGradGradGradGradGradGradGradGradGradGradGradGradGradGradGradGradGrad
 Berny optimization.
 Initialization pass.
                           ----------------------------
                           !    Initial Parameters    !
                           ! (Angstroms and Degrees)  !
 --------------------------                            --------------------------
 ! Name  Definition              Value          Derivative Info.                !
 --------------------------------------------------------------------------------
 ! R1    R(1,2)                  1.3984         estimate D2E/DX2                !
 ! R2    R(1,4)                  1.3893         estimate D2E/DX2                !
 ! R3    R(1,19)                 1.0825         estimate D2E/DX2                !
 ! R4    R(2,3)                  1.4026         estimate D2E/DX2                !
 ! R5    R(2,23)                 1.3567         estimate D2E/DX2                !
 ! R6    R(3,6)                  1.3899         estimate D2E/DX2                !
 ! R7    R(3,29)                 1.0816         estimate D2E/DX2                !
 ! R8    R(4,5)                  1.4104         estimate D2E/DX2                !
 ! R9    R(4,7)                  1.495          estimate D2E/DX2                !
 ! R10   R(5,6)                  1.3955         estimate D2E/DX2                !
 ! R11   R(5,10)                 1.4857         estimate D2E/DX2                !
 ! R12   R(6,17)                 1.0833         estimate D2E/DX2                !
 ! R13   R(7,8)                  1.495          estimate D2E/DX2                !
 ! R14   R(7,15)                 1.219          estimate D2E/DX2                !
 ! R15   R(8,9)                  1.4104         estimate D2E/DX2                !
 ! R16   R(8,11)                 1.3893         estimate D2E/DX2                !
 ! R17   R(9,10)                 1.4857         estimate D2E/DX2                !
 ! R18   R(9,14)                 1.3955         estimate D2E/DX2                !
 ! R19   R(10,16)                1.2242         estimate D2E/DX2                !
 ! R20   R(11,12)                1.3985         estimate D2E/DX2                !
 ! R21   R(11,20)                1.0825         estimate D2E/DX2                !
 ! R22   R(12,13)                1.4027         estimate D2E/DX2                !
 ! R23   R(12,21)                1.3567         estimate D2E/DX2                !
 ! R24   R(13,14)                1.3899         estimate D2E/DX2                !
 ! R25   R(13,24)                1.0816         estimate D2E/DX2                !
 ! R26   R(14,18)                1.0833         estimate D2E/DX2                !
 ! R27   R(21,22)                1.4245         estimate D2E/DX2                !
 ! R28   R(22,25)                1.0882         estimate D2E/DX2                !
 ! R29   R(22,26)                1.0948         estimate D2E/DX2                !
 ! R30   R(22,27)                1.0947         estimate D2E/DX2                !
 ! R31   R(23,28)                1.4245         estimate D2E/DX2                !
 ! R32   R(28,30)                1.0882         estimate D2E/DX2                !
 ! R33   R(28,31)                1.0948         estimate D2E/DX2                !
 ! R34   R(28,32)                1.0947         estimate D2E/DX2                !
 ! A1    A(2,1,4)              120.2726         estimate D2E/DX2                !
 ! A2    A(2,1,19)             119.8892         estimate D2E/DX2                !
 ! A3    A(4,1,19)             119.8381         estimate D2E/DX2                !
 ! A4    A(1,2,3)              119.7742         estimate D2E/DX2                !
 ! A5    A(1,2,23)             115.8049         estimate D2E/DX2                !
 ! A6    A(3,2,23)             124.4209         estimate D2E/DX2                !
 ! A7    A(2,3,6)              119.6233         estimate D2E/DX2                !
 ! A8    A(2,3,29)             120.9659         estimate D2E/DX2                !
 ! A9    A(6,3,29)             119.4108         estimate D2E/DX2                !
 ! A10   A(1,4,5)              120.3274         estimate D2E/DX2                !
 ! A11   A(1,4,7)              118.5771         estimate D2E/DX2                !
 ! A12   A(5,4,7)              121.0955         estimate D2E/DX2                !
 ! A13   A(4,5,6)              118.7928         estimate D2E/DX2                !
 ! A14   A(4,5,10)             121.75           estimate D2E/DX2                !
 ! A15   A(6,5,10)             119.4572         estimate D2E/DX2                !
 ! A16   A(3,6,5)              121.2096         estimate D2E/DX2                !
 ! A17   A(3,6,17)             120.4753         estimate D2E/DX2                !
 ! A18   A(5,6,17)             118.3151         estimate D2E/DX2                !
 ! A19   A(4,7,8)              117.1643         estimate D2E/DX2                !
 ! A20   A(4,7,15)             121.4164         estimate D2E/DX2                !
 ! A21   A(8,7,15)             121.4193         estimate D2E/DX2                !
 ! A22   A(7,8,9)              121.0908         estimate D2E/DX2                !
 ! A23   A(7,8,11)             118.5817         estimate D2E/DX2                !
 ! A24   A(9,8,11)             120.3276         estimate D2E/DX2                !
 ! A25   A(8,9,10)             121.7548         estimate D2E/DX2                !
 ! A26   A(8,9,14)             118.7928         estimate D2E/DX2                !
 ! A27   A(10,9,14)            119.4524         estimate D2E/DX2                !
 ! A28   A(5,10,9)             117.1447         estimate D2E/DX2                !
 ! A29   A(5,10,16)            121.4292         estimate D2E/DX2                !
 ! A30   A(9,10,16)            121.4261         estimate D2E/DX2                !
 ! A31   A(8,11,12)            120.2722         estimate D2E/DX2                !
 ! A32   A(8,11,20)            119.8405         estimate D2E/DX2                !
 ! A33   A(12,11,20)           119.8874         estimate D2E/DX2                !
 ! A34   A(11,12,13)           119.7748         estimate D2E/DX2                !
 ! A35   A(11,12,21)           115.8045         estimate D2E/DX2                !
 ! A36   A(13,12,21)           124.4208         estimate D2E/DX2                !
 ! A37   A(12,13,14)           119.6226         estimate D2E/DX2                !
 ! A38   A(12,13,24)           120.9656         estimate D2E/DX2                !
 ! A39   A(14,13,24)           119.4118         estimate D2E/DX2                !
 ! A40   A(9,14,13)            121.2101         estimate D2E/DX2                !
 ! A41   A(9,14,18)            118.3126         estimate D2E/DX2                !
 ! A42   A(13,14,18)           120.4773         estimate D2E/DX2                !
 ! A43   A(12,21,22)           119.0355         estimate D2E/DX2                !
 ! A44   A(21,22,25)           105.6717         estimate D2E/DX2                !
 ! A45   A(21,22,26)           111.2954         estimate D2E/DX2                !
 ! A46   A(21,22,27)           111.2938         estimate D2E/DX2                !
 ! A47   A(25,22,26)           109.396          estimate D2E/DX2                !
 ! A48   A(25,22,27)           109.3985         estimate D2E/DX2                !
 ! A49   A(26,22,27)           109.6891         estimate D2E/DX2                !
 ! A50   A(2,23,28)            119.0367         estimate D2E/DX2                !
 ! A51   A(23,28,30)           105.671          estimate D2E/DX2                !
 ! A52   A(23,28,31)           111.2967         estimate D2E/DX2                !
 ! A53   A(23,28,32)           111.2942         estimate D2E/DX2                !
 ! A54   A(30,28,31)           109.3949         estimate D2E/DX2                !
 ! A55   A(30,28,32)           109.3982         estimate D2E/DX2                !
 ! A56   A(31,28,32)           109.6895         estimate D2E/DX2                !
 ! D1    D(4,1,2,3)              0.0029         estimate D2E/DX2                !
 ! D2    D(4,1,2,23)           179.9951         estimate D2E/DX2                !
 ! D3    D(19,1,2,3)           179.9992         estimate D2E/DX2                !
 ! D4    D(19,1,2,23)           -0.0086         estimate D2E/DX2                !
 ! D5    D(2,1,4,5)             -0.0013         estimate D2E/DX2                !
 ! D6    D(2,1,4,7)            179.9974         estimate D2E/DX2                !
 ! D7    D(19,1,4,5)          -179.9976         estimate D2E/DX2                !
 ! D8    D(19,1,4,7)             0.0011         estimate D2E/DX2                !
 ! D9    D(1,2,3,6)             -0.0033         estimate D2E/DX2                !
 ! D10   D(1,2,3,29)           179.993          estimate D2E/DX2                !
 ! D11   D(23,2,3,6)          -179.9948         estimate D2E/DX2                !
 ! D12   D(23,2,3,29)            0.0015         estimate D2E/DX2                !
 ! D13   D(1,2,23,28)          179.8735         estimate D2E/DX2                !
 ! D14   D(3,2,23,28)           -0.1347         estimate D2E/DX2                !
 ! D15   D(2,3,6,5)              0.0021         estimate D2E/DX2                !
 ! D16   D(2,3,6,17)           179.9981         estimate D2E/DX2                !
 ! D17   D(29,3,6,5)          -179.9942         estimate D2E/DX2                !
 ! D18   D(29,3,6,17)            0.0017         estimate D2E/DX2                !
 ! D19   D(1,4,5,6)              0.0001         estimate D2E/DX2                !
 ! D20   D(1,4,5,10)          -179.9958         estimate D2E/DX2                !
 ! D21   D(7,4,5,6)           -179.9986         estimate D2E/DX2                !
 ! D22   D(7,4,5,10)             0.0056         estimate D2E/DX2                !
 ! D23   D(1,4,7,8)            179.9878         estimate D2E/DX2                !
 ! D24   D(1,4,7,15)             0.0034         estimate D2E/DX2                !
 ! D25   D(5,4,7,8)             -0.0135         estimate D2E/DX2                !
 ! D26   D(5,4,7,15)          -179.9979         estimate D2E/DX2                !
 ! D27   D(4,5,6,3)             -0.0005         estimate D2E/DX2                !
 ! D28   D(4,5,6,17)          -179.9965         estimate D2E/DX2                !
 ! D29   D(10,5,6,3)           179.9954         estimate D2E/DX2                !
 ! D30   D(10,5,6,17)           -0.0006         estimate D2E/DX2                !
 ! D31   D(4,5,10,9)             0.0055         estimate D2E/DX2                !
 ! D32   D(4,5,10,16)          179.987          estimate D2E/DX2                !
 ! D33   D(6,5,10,9)          -179.9904         estimate D2E/DX2                !
 ! D34   D(6,5,10,16)           -0.0088         estimate D2E/DX2                !
 ! D35   D(4,7,8,9)              0.0105         estimate D2E/DX2                !
 ! D36   D(4,7,8,11)          -179.9907         estimate D2E/DX2                !
 ! D37   D(15,7,8,9)           179.995          estimate D2E/DX2                !
 ! D38   D(15,7,8,11)           -0.0062         estimate D2E/DX2                !
 ! D39   D(7,8,9,10)             0.0004         estimate D2E/DX2                !
 ! D40   D(7,8,9,14)           179.997          estimate D2E/DX2                !
 ! D41   D(11,8,9,10)         -179.9984         estimate D2E/DX2                !
 ! D42   D(11,8,9,14)           -0.0018         estimate D2E/DX2                !
 ! D43   D(7,8,11,12)         -179.9974         estimate D2E/DX2                !
 ! D44   D(7,8,11,20)            0.0022         estimate D2E/DX2                !
 ! D45   D(9,8,11,12)            0.0014         estimate D2E/DX2                !
 ! D46   D(9,8,11,20)         -179.999          estimate D2E/DX2                !
 ! D47   D(8,9,10,5)            -0.0085         estimate D2E/DX2                !
 ! D48   D(8,9,10,16)         -179.99           estimate D2E/DX2                !
 ! D49   D(14,9,10,5)          179.9949         estimate D2E/DX2                !
 ! D50   D(14,9,10,16)           0.0134         estimate D2E/DX2                !
 ! D51   D(8,9,14,13)            0.0007         estimate D2E/DX2                !
 ! D52   D(8,9,14,18)         -179.9976         estimate D2E/DX2                !
 ! D53   D(10,9,14,13)         179.9974         estimate D2E/DX2                !
 ! D54   D(10,9,14,18)          -0.0009         estimate D2E/DX2                !
 ! D55   D(8,11,12,13)           0.0002         estimate D2E/DX2                !
 ! D56   D(8,11,12,21)         179.9952         estimate D2E/DX2                !
 ! D57   D(20,11,12,13)       -179.9994         estimate D2E/DX2                !
 ! D58   D(20,11,12,21)         -0.0044         estimate D2E/DX2                !
 ! D59   D(11,12,13,14)         -0.0014         estimate D2E/DX2                !
 ! D60   D(11,12,13,24)        179.9959         estimate D2E/DX2                !
 ! D61   D(21,12,13,14)       -179.9959         estimate D2E/DX2                !
 ! D62   D(21,12,13,24)          0.0014         estimate D2E/DX2                !
 ! D63   D(11,12,21,22)        179.9215         estimate D2E/DX2                !
 ! D64   D(13,12,21,22)         -0.0838         estimate D2E/DX2                !
 ! D65   D(12,13,14,9)           0.0009         estimate D2E/DX2                !
 ! D66   D(12,13,14,18)        179.9991         estimate D2E/DX2                !
 ! D67   D(24,13,14,9)        -179.9964         estimate D2E/DX2                !
 ! D68   D(24,13,14,18)          0.0018         estimate D2E/DX2                !
 ! D69   D(12,21,22,25)       -179.9288         estimate D2E/DX2                !
 ! D70   D(12,21,22,26)         61.415          estimate D2E/DX2                !
 ! D71   D(12,21,22,27)        -61.2705         estimate D2E/DX2                !
 ! D72   D(2,23,28,30)        -179.8847         estimate D2E/DX2                !
 ! D73   D(2,23,28,31)          61.4601         estimate D2E/DX2                !
 ! D74   D(2,23,28,32)         -61.2271         estimate D2E/DX2                !
 --------------------------------------------------------------------------------
 Trust Radius=3.00D-01 FncErr=1.00D-07 GrdErr=1.00D-06 EigMax=2.50D+02 EigMin=1.00D-04
 Number of steps in this run=    174 maximum allowed number of steps=    192.
 GradGradGradGradGradGradGradGradGradGradGradGradGradGradGradGradGradGrad

 Leave Link  103 at Wed Dec 27 19:44:44 2023, MaxMem=  4026531840 cpu:               0.3 elap:               0.1
 (Enter /sysapps/ubuntu-applications/gaussian/Gaussian/AVX2/g16/l202.exe)
                          Input orientation:                          
 ---------------------------------------------------------------------
 Center     Atomic      Atomic             Coordinates (Angstroms)
 Number     Number       Type             X           Y           Z
 ---------------------------------------------------------------------
      1          6           0       -3.261707    3.662073    0.083097
      2          6           0       -4.506461    3.024719    0.088230
      3          6           0       -4.571774    1.623791    0.064577
      4          6           0       -2.091655    2.913471    0.054635
      5          6           0       -2.148124    1.504444    0.030690
      6          6           0       -3.396929    0.881623    0.036156
      7          6           0       -0.781730    3.633880    0.050045
      8          6           0        0.457030    2.797559    0.019428
      9          6           0        0.384592    1.389258   -0.004234
     10          6           0       -0.917140    0.673070    0.000072
     11          6           0        1.690581    3.436748    0.014625
     12          6           0        2.871960    2.688942   -0.013759
     13          6           0        2.809074    1.287901   -0.037452
     14          6           0        1.571335    0.655568   -0.032451
     15          8           0       -0.726101    4.851442    0.070684
     16          8           0       -0.972997   -0.549649   -0.020381
     17          1           0       -3.431275   -0.200935    0.017698
     18          1           0        1.506633   -0.425603   -0.050539
     19          1           0       -3.209130    4.743162    0.101308
     20          1           0        1.736989    4.518120    0.032930
     21          8           0        4.024252    3.405026   -0.016266
     22          6           0        5.268726    2.712286   -0.042804
     23          8           0       -5.588573    3.842513    0.116858
     24          1           0        3.710568    0.690659   -0.059643
     25          1           0        6.035272    3.484693   -0.038358
     26          1           0        5.367641    2.107128   -0.949716
     27          1           0        5.388487    2.076079    0.840016
     28          6           0       -6.891154    3.265821    0.121070
     29          1           0       -5.524043    1.110930    0.068175
     30          1           0       -7.583953    4.104723    0.143400
     31          1           0       -7.046942    2.641991    1.007108
     32          1           0       -7.066563    2.673356   -0.782639
 ---------------------------------------------------------------------
                    Distance matrix (angstroms):
                    1          2          3          4          5
     1  C    0.000000
     2  C    1.398449   0.000000
     3  C    2.423058   1.402649   0.000000
     4  C    1.389330   2.417601   2.795418   0.000000
     5  C    2.428616   2.806475   2.426823   1.410361   0.000000
     6  C    2.784132   2.413842   1.389922   2.415054   1.395511
     7  C    2.480357   3.774408   4.290117   1.494963   2.530199
     8  C    3.818435   4.969163   5.164169   2.551562   2.908453
     9  C    4.297535   5.158070   4.962389   2.908348   2.535574
    10  C    3.799740   4.291998   3.776822   2.530190   1.485746
    11  C    4.957884   6.211161   6.519693   3.818472   4.297640
    12  C    6.211138   7.386761   7.519964   4.969161   5.158125
    13  C    6.519632   7.519933   7.389191   5.164117   4.962393
    14  C    5.693041   6.524342   6.219699   4.303859   3.815620
    15  O    2.800723   4.198612   5.020654   2.370807   3.636777
    16  O    4.794528   5.027253   4.205027   3.640086   2.367030
    17  H    3.867281   3.400859   2.152338   3.390497   2.134236
    18  H    6.282039   6.934066   6.415629   4.910005   4.133876
    19  H    1.082520   2.153203   3.404207   2.144457   3.408814
    20  H    5.071715   6.419811   6.941083   4.151371   4.916945
    21  O    7.291169   8.539825   8.779009   6.136039   6.458533
    22  C    8.584069   9.781056   9.901101   7.363775   7.514915
    23  O    2.334096   1.356677   2.441176   3.618760   4.160611
    24  H    7.580389   8.543376   8.335668   6.214479   5.915630
    25  H    9.299464  10.552523  10.769539   8.147508   8.419865
    26  H    8.828941   9.970817  10.002718   7.569677   7.603364
    27  H    8.826900   9.968706  10.000633   7.567732   7.601466
    28  C    3.651211   2.397075   2.842354   4.812874   5.060331
    29  H    3.409797   2.167594   1.081599   3.876935   3.398983
    30  H    4.345272   3.261964   3.903135   5.620703   6.026806
    31  H    4.027700   2.728527   2.837526   5.053294   5.123068
    32  H    4.025418   2.726901   2.836077   5.050583   5.120440
                    6          7          8          9         10
     6  C    0.000000
     7  C    3.796627   0.000000
     8  C    4.303962   1.494957   0.000000
     9  C    3.815655   2.530135   1.410361   0.000000
    10  C    2.488805   2.964326   2.530251   1.485749   0.000000
    11  C    5.693144   2.480411   1.389329   2.428617   3.799781
    12  C    6.524405   3.774444   2.417599   2.806469   4.291994
    13  C    6.219723   4.290122   2.795427   2.426827   3.776784
    14  C    4.973877   3.796586   2.415055   1.395513   2.488749
    15  O    4.784765   1.219007   2.370836   3.636753   4.183333
    16  O    2.815525   4.188491   3.640105   2.366996   1.224165
    17  H    1.083260   4.661217   4.910182   4.134010   2.661780
    18  H    5.075557   4.661129   3.390477   2.134207   2.661638
    19  H    3.866652   2.669345   4.151241   4.916772   4.672164
    20  H    6.291362   2.669479   2.144483   3.408832   4.672247
    21  O    7.838638   4.811885   3.618752   4.160600   5.646344
    22  C    8.857265   6.120946   4.812854   5.060302   6.513461
    23  O    3.684655   4.811832   6.136020   6.458469   5.646352
    24  H    7.110707   5.371715   3.876956   3.399004   4.628127
    25  H    9.785088   6.819207   5.620701   6.026790   7.499516
    26  H    8.904577   6.414457   5.052726   5.122504   6.515911
    27  H    8.902609   6.412673   5.051056   5.120883   6.514205
    28  C    4.230983   6.120913   7.363790   7.514897   6.513512
    29  H    2.139678   5.371698   6.214526   5.915630   4.628165
    30  H    5.284983   6.819138   8.147481   8.419813   7.499545
    31  H    4.167042   6.415037   7.570291   7.603936   6.516536
    32  H    4.164967   6.412105   7.567245   7.600956   6.513769
                   11         12         13         14         15
    11  C    0.000000
    12  C    1.398455   0.000000
    13  C    2.423073   1.402652   0.000000
    14  C    2.784133   2.413832   1.389916   0.000000
    15  O    2.800867   4.198759   5.020755   4.784789   0.000000
    16  O    4.794500   5.027147   4.204871   2.815372   5.407498
    17  H    6.282209   6.934201   6.415733   5.075650   5.731255
    18  H    3.867278   3.400862   2.152352   1.083256   5.731230
    19  H    5.071627   6.419713   6.940955   6.291197   2.485577
    20  H    1.082522   2.153191   3.404208   3.866655   2.485828
    21  O    2.334091   1.356672   2.441173   3.684642   4.966441
    22  C    3.651200   2.397056   2.842321   4.230945   6.366068
    23  O    7.291171   8.539813   8.778971   7.838571   4.966257
    24  H    3.409819   2.167603   1.081611   2.139694   6.083842
    25  H    4.345279   3.261958   3.903108   5.284952   6.898990
    26  H    4.027234   2.728176   2.837186   4.166574   6.760634
    27  H    4.025817   2.727167   2.836291   4.165297   6.758898
    28  C    8.584097   9.781072   9.901097   8.857241   6.365894
    29  H    7.580442   8.543401   8.335665   7.110687   6.083723
    30  H    9.299449  10.552500  10.769503   9.785034   6.898769
    31  H    8.829551   9.971409  10.003285   8.905125   6.761035
    32  H    8.826436   9.968232  10.000150   8.902108   6.758230
                   16         17         18         19         20
    16  O    0.000000
    17  H    2.483180   0.000000
    18  H    2.482914   4.943487   0.000000
    19  H    5.747082   4.949791   6.998401   0.000000
    20  H    5.747099   6.998619   4.949791   4.951708   0.000000
    21  O    6.372752   8.281847   4.584026   7.357054   2.544203
    22  C    7.042715   9.174995   4.898954   8.718903   3.967359
    23  O    6.372869   4.584020   8.281714   2.544240   7.357129
    24  H    4.845171   7.197697   2.470517   8.020655   4.307324
    25  H    8.086537  10.158864   5.983238   9.330714   4.421345
    26  H    6.937277   9.147894   4.704320   9.034065   4.467674
    27  H    6.935648   9.145994   4.703221   9.032056   4.466362
    28  C    7.042897   4.898964   9.174905   3.967396   8.718995
    29  H    4.845347   2.470469   7.197599   4.307323   8.020771
    30  H    8.086702   5.983245  10.158751   4.421363   9.330759
    31  H    6.937947   4.704701   9.148355   4.468131   9.034729
    32  H    6.935441   4.702915   9.145447   4.466010   9.031657
                   21         22         23         24         25
    21  O    0.000000
    22  C    1.424538   0.000000
    23  O    9.623696  10.917135   0.000000
    24  H    2.732777   2.552472   9.820354   0.000000
    25  H    2.012719   1.088221  11.630387   3.634739   0.000000
    26  H    2.088196   1.094756  11.143956   2.354677   1.781570
    27  H    2.088171   1.094748  11.141772   2.354610   1.781591
    28  C   10.917157  12.173575   1.424538  10.911491  12.929262
    29  H    9.820384  10.911486   2.732779   9.245053  11.801011
    30  H   11.630369  12.929227   2.012710  11.800986  13.634543
    31  H   11.144544  12.360539   2.088214  10.984975  13.150949
    32  H   11.141313  12.357517   2.088176  10.981820  13.148015
                   26         27         28         29         30
    26  H    0.000000
    27  H    1.790123   0.000000
    28  C   12.359903  12.358072   0.000000
    29  H   10.984411  10.982284   2.552518   0.000000
    30  H   13.150250  13.148569   1.088221   3.634788   0.000000
    31  H   12.579233  12.449420   1.094759   2.354775   1.781560
    32  H   12.448211  12.574499   1.094748   2.354661   1.781587
                   31         32
    31  H    0.000000
    32  H    1.790129   0.000000
 Symmetry turned off by external request.
 Stoichiometry    C16H12O4
 Framework group  C1[X(C16H12O4)]
 Deg. of freedom    90
 Full point group                 C1      NOp   1
 Rotational constants (GHZ):           0.9497426           0.1696334           0.1441919
 Leave Link  202 at Wed Dec 27 19:44:44 2023, MaxMem=  4026531840 cpu:               0.3 elap:               0.1
 (Enter /sysapps/ubuntu-applications/gaussian/Gaussian/AVX2/g16/l301.exe)
 Standard basis: 6-311++G(d,p) (5D, 7F)
 Ernie: Thresh=  0.10000D-02 Tol=  0.10000D-05 Strict=F.
   524 basis functions,   828 primitive gaussians,   544 cartesian basis functions
    70 alpha electrons       70 beta electrons
       nuclear repulsion energy      1428.6737971426 Hartrees.
 IExCor=  402 DFT=T Ex+Corr=B3LYP ExCW=0 ScaHFX=  0.200000
 ScaDFX=  0.800000  0.720000  1.000000  0.810000 ScalE2=  1.000000  1.000000
 IRadAn=      5 IRanWt=     -1 IRanGd=            0 ICorTp=0 IEmpDi=  4
 NAtoms=   32 NActive=   32 NUniq=   32 SFac= 1.00D+00 NAtFMM=   60 NAOKFM=F Big=F
 Integral buffers will be    131072 words long.
 Raffenetti 2 integral format.
 Two-electron integral symmetry is turned off.
 Leave Link  301 at Wed Dec 27 19:44:45 2023, MaxMem=  4026531840 cpu:               1.2 elap:               0.2
 (Enter /sysapps/ubuntu-applications/gaussian/Gaussian/AVX2/g16/l302.exe)
 NPDir=0 NMtPBC=     1 NCelOv=     1 NCel=       1 NClECP=     1 NCelD=      1
         NCelK=      1 NCelE2=     1 NClLst=     1 CellRange=     0.0.
 One-electron integrals computed using PRISM.
 NBasis=   524 RedAO= T EigKep=  1.20D-06  NBF=   524
 NBsUse=   517 1.00D-06 EigRej=  8.53D-07 NBFU=   517
 Precomputing XC quadrature grid using
 IXCGrd= 4 IRadAn=           5 IRanWt=          -1 IRanGd=           0 AccXCQ= 0.00D+00.
 Generated NRdTot=       0 NPtTot=           0 NUsed=           0 NTot=          32
 NSgBfM=   534   534   534   534   534 MxSgAt=    32 MxSgA2=    32.
 Leave Link  302 at Wed Dec 27 19:44:45 2023, MaxMem=  4026531840 cpu:               5.5 elap:               0.8
 (Enter /sysapps/ubuntu-applications/gaussian/Gaussian/AVX2/g16/l303.exe)
 DipDrv:  MaxL=1.
 Leave Link  303 at Wed Dec 27 19:44:46 2023, MaxMem=  4026531840 cpu:               1.1 elap:               0.2
 (Enter /sysapps/ubuntu-applications/gaussian/Gaussian/AVX2/g16/l401.exe)
 ExpMin= 3.60D-02 ExpMax= 8.59D+03 ExpMxC= 1.30D+03 IAcc=3 IRadAn=         5 AccDes= 0.00D+00
 Harris functional with IExCor=  402 and IRadAn=       5 diagonalized for initial guess.
 HarFok:  IExCor=  402 AccDes= 0.00D+00 IRadAn=         5 IDoV= 1 UseB2=F ITyADJ=14
 ICtDFT=  3500011 ScaDFX=  1.000000  1.000000  1.000000  1.000000
 FoFCou: FMM=F IPFlag=           0 FMFlag=      100000 FMFlg1=           0
         NFxFlg=           0 DoJE=T BraDBF=F KetDBF=T FulRan=T
         wScrn=  0.000000 ICntrl=       500 IOpCl=  0 I1Cent=   200000004 NGrid=           0
         NMat0=    1 NMatS0=      1 NMatT0=    0 NMatD0=    1 NMtDS0=    0 NMtDT0=    0
 Symmetry not used in FoFCou.
 Harris En= -918.088731926014    
 JPrj=0 DoOrth=F DoCkMO=F.
 Initial guess <Sx>= 0.0000 <Sy>= 0.0000 <Sz>= 0.0000 <S**2>=-0.0000 S=-0.0000
 Leave Link  401 at Wed Dec 27 19:44:49 2023, MaxMem=  4026531840 cpu:              22.1 elap:               2.9
 (Enter /sysapps/ubuntu-applications/gaussian/Gaussian/AVX2/g16/l502.exe)
 Two-electron integral symmetry not used.
 UHF open shell SCF:
 Using DIIS extrapolation, IDIIS=  1040.
 NGot=  4026531840 LenX=  4025931732 LenY=  4025635252
 Requested convergence on RMS density matrix=1.00D-08 within 128 cycles.
 Requested convergence on MAX density matrix=1.00D-06.
 Requested convergence on             energy=1.00D-06.
 No special actions if energy rises.
 Fock matrices will be formed incrementally for  20 cycles.

 Cycle   1  Pass 1  IDiag  1:
 FoFJK:  IHMeth= 1 ICntrl=       0 DoSepK=F KAlg= 0 I1Cent=           0 FoldK=F
 IRaf= 800000000 NMat=       1 IRICut=       1 DoRegI=T DoRafI=F ISym2E= 0 IDoP0=0 IntGTp=1.
 FoFCou: FMM=F IPFlag=           0 FMFlag=      100000 FMFlg1=           0
         NFxFlg=           0 DoJE=F BraDBF=F KetDBF=F FulRan=T
         wScrn=  0.000000 ICntrl=         0 IOpCl=  1 I1Cent=           0 NGrid=           0
         NMat0=    1 NMatS0=      1 NMatT0=    0 NMatD0=    1 NMtDS0=    0 NMtDT0=    0
 Symmetry not used in FoFCou.
 E= -917.653336363551    
 DIIS: error= 3.39D-02 at cycle   1 NSaved=   1.
 NSaved= 1 IEnMin= 1 EnMin= -917.653336363551     IErMin= 1 ErrMin= 3.39D-02
 ErrMax= 3.39D-02  0.00D+00 EMaxC= 1.00D-01 BMatC= 2.08D+00 BMatP= 2.08D+00
 IDIUse=3 WtCom= 6.61D-01 WtEn= 3.39D-01
 Coeff-Com:  0.100D+01
 Coeff-En:   0.100D+01
 Coeff:      0.100D+01
 Gap=     0.136 Goal=   None    Shift=    0.000
 Gap=     0.136 Goal=   None    Shift=    0.000
 GapD=    0.136 DampG=1.000 DampE=0.500 DampFc=0.5000 IDamp=-1.
 Damping current iteration by 5.00D-01
 RMSDP=1.74D-02 MaxDP=7.78D-01              OVMax= 2.68D-01

 Cycle   2  Pass 1  IDiag  1:
 RMSU=  8.66D-03    CP:  1.02D+00
 E= -917.791292829289     Delta-E=       -0.137956465738 Rises=F Damp=T
 DIIS: error= 1.73D-02 at cycle   2 NSaved=   2.
 NSaved= 2 IEnMin= 2 EnMin= -917.791292829289     IErMin= 2 ErrMin= 1.73D-02
 ErrMax= 1.73D-02  0.00D+00 EMaxC= 1.00D-01 BMatC= 3.05D-01 BMatP= 2.08D+00
 IDIUse=3 WtCom= 8.27D-01 WtEn= 1.73D-01
 Coeff-Com:  0.166D+00 0.834D+00
 Coeff-En:   0.273D+00 0.727D+00
 Coeff:      0.184D+00 0.816D+00
 Gap=     0.183 Goal=   None    Shift=    0.000
 Gap=     0.183 Goal=   None    Shift=    0.000
 RMSDP=9.66D-03 MaxDP=1.02D+00 DE=-1.38D-01 OVMax= 2.93D-01

 Cycle   3  Pass 1  IDiag  1:
 RMSU=  8.03D-03    CP:  9.98D-01  3.89D-01
 E= -917.985783854920     Delta-E=       -0.194491025631 Rises=F Damp=F
 DIIS: error= 2.47D-02 at cycle   3 NSaved=   3.
 NSaved= 3 IEnMin= 3 EnMin= -917.985783854920     IErMin= 2 ErrMin= 1.73D-02
 ErrMax= 2.47D-02  0.00D+00 EMaxC= 1.00D-01 BMatC= 4.10D-01 BMatP= 3.05D-01
 IDIUse=2 WtCom= 0.00D+00 WtEn= 1.00D+00
 Coeff-En:   0.000D+00 0.000D+00 0.100D+01
 Coeff:      0.000D+00 0.000D+00 0.100D+01
 Gap=     0.154 Goal=   None    Shift=    0.000
 Gap=     0.154 Goal=   None    Shift=    0.000
 RMSDP=1.40D-02 MaxDP=1.41D+00 DE=-1.94D-01 OVMax= 3.02D-01

 Cycle   4  Pass 1  IDiag  1:
 RMSU=  5.03D-03    CP:  1.03D+00  1.35D+00 -2.44D-01
 E= -917.498726271831     Delta-E=        0.487057583089 Rises=F Damp=F
 DIIS: error= 6.96D-02 at cycle   4 NSaved=   4.
 NSaved= 4 IEnMin= 3 EnMin= -917.985783854920     IErMin= 2 ErrMin= 1.73D-02
 ErrMax= 6.96D-02  0.00D+00 EMaxC= 1.00D-01 BMatC= 2.85D+00 BMatP= 3.05D-01
 IDIUse=2 WtCom= 0.00D+00 WtEn= 1.00D+00
 Coeff-En:   0.000D+00 0.000D+00 0.814D+00 0.186D+00
 Coeff:      0.000D+00 0.000D+00 0.814D+00 0.186D+00
 Gap=     0.132 Goal=   None    Shift=    0.000
 Gap=     0.132 Goal=   None    Shift=    0.000
 RMSDP=7.98D-03 MaxDP=6.78D-01 DE= 4.87D-01 OVMax= 1.49D-01

 Cycle   5  Pass 1  IDiag  1:
 RMSU=  9.91D-04    CP:  9.89D-01  7.72D-01  3.90D-01  4.59D-01
 E= -918.022198499265     Delta-E=       -0.523472227434 Rises=F Damp=F
 DIIS: error= 2.01D-02 at cycle   5 NSaved=   5.
 NSaved= 5 IEnMin= 5 EnMin= -918.022198499265     IErMin= 2 ErrMin= 1.73D-02
 ErrMax= 2.01D-02  0.00D+00 EMaxC= 1.00D-01 BMatC= 2.41D-01 BMatP= 3.05D-01
 IDIUse=3 WtCom= 7.99D-01 WtEn= 2.01D-01
 Coeff-Com:  0.268D-02 0.281D-01 0.336D+00-0.923D-01 0.726D+00
 Coeff-En:   0.000D+00 0.000D+00 0.398D+00 0.000D+00 0.602D+00
 Coeff:      0.214D-02 0.225D-01 0.348D+00-0.737D-01 0.701D+00
 Gap=     0.160 Goal=   None    Shift=    0.000
 Gap=     0.160 Goal=   None    Shift=    0.000
 RMSDP=2.97D-03 MaxDP=2.90D-01 DE=-5.23D-01 OVMax= 6.55D-02

 Cycle   6  Pass 1  IDiag  1:
 RMSU=  3.59D-04    CP:  9.73D-01  5.81D-01  6.45D-01  2.46D-01  7.88D-01
 E= -918.069880062963     Delta-E=       -0.047681563697 Rises=F Damp=F
 DIIS: error= 1.08D-03 at cycle   6 NSaved=   6.
 NSaved= 6 IEnMin= 6 EnMin= -918.069880062963     IErMin= 6 ErrMin= 1.08D-03
 ErrMax= 1.08D-03  0.00D+00 EMaxC= 1.00D-01 BMatC= 1.11D-03 BMatP= 2.41D-01
 IDIUse=3 WtCom= 9.89D-01 WtEn= 1.08D-02
 Coeff-Com: -0.138D-02 0.150D-01 0.169D+00-0.647D-01 0.436D+00 0.446D+00
 Coeff-En:   0.000D+00 0.000D+00 0.000D+00 0.000D+00 0.000D+00 0.100D+01
 Coeff:     -0.137D-02 0.148D-01 0.167D+00-0.640D-01 0.431D+00 0.452D+00
 Gap=     0.139 Goal=   None    Shift=    0.000
 Gap=     0.139 Goal=   None    Shift=    0.000
 RMSDP=2.46D-04 MaxDP=2.22D-02 DE=-4.77D-02 OVMax= 7.16D-03

 Cycle   7  Pass 1  IDiag  1:
 RMSU=  1.67D-04    CP:  9.73D-01  5.91D-01  6.36D-01  2.60D-01  8.30D-01
                    CP:  6.78D-01
 E= -918.070105235951     Delta-E=       -0.000225172988 Rises=F Damp=F
 DIIS: error= 3.87D-04 at cycle   7 NSaved=   7.
 NSaved= 7 IEnMin= 7 EnMin= -918.070105235951     IErMin= 7 ErrMin= 3.87D-04
 ErrMax= 3.87D-04  0.00D+00 EMaxC= 1.00D-01 BMatC= 1.38D-04 BMatP= 1.11D-03
 IDIUse=3 WtCom= 9.96D-01 WtEn= 3.87D-03
 Coeff-Com:  0.554D-04-0.395D-03 0.329D-01-0.131D-01 0.845D-01 0.250D+00
 Coeff-Com:  0.646D+00
 Coeff-En:   0.000D+00 0.000D+00 0.000D+00 0.000D+00 0.000D+00 0.127D+00
 Coeff-En:   0.873D+00
 Coeff:      0.552D-04-0.394D-03 0.327D-01-0.131D-01 0.842D-01 0.249D+00
 Coeff:      0.647D+00
 Gap=     0.139 Goal=   None    Shift=    0.000
 Gap=     0.139 Goal=   None    Shift=    0.000
 RMSDP=9.77D-05 MaxDP=1.22D-02 DE=-2.25D-04 OVMax= 1.73D-03

 Cycle   8  Pass 1  IDiag  1:
 RMSU=  2.48D-05    CP:  9.74D-01  5.87D-01  6.43D-01  2.56D-01  8.07D-01
                    CP:  7.00D-01  7.55D-01
 E= -918.070134108692     Delta-E=       -0.000028872741 Rises=F Damp=F
 DIIS: error= 6.15D-05 at cycle   8 NSaved=   8.
 NSaved= 8 IEnMin= 8 EnMin= -918.070134108692     IErMin= 8 ErrMin= 6.15D-05
 ErrMax= 6.15D-05  0.00D+00 EMaxC= 1.00D-01 BMatC= 5.58D-06 BMatP= 1.38D-04
 IDIUse=1 WtCom= 1.00D+00 WtEn= 0.00D+00
 Coeff-Com:  0.295D-03-0.154D-02 0.808D-02-0.271D-02 0.180D-01 0.105D+00
 Coeff-Com:  0.325D+00 0.548D+00
 Coeff:      0.295D-03-0.154D-02 0.808D-02-0.271D-02 0.180D-01 0.105D+00
 Coeff:      0.325D+00 0.548D+00
 Gap=     0.139 Goal=   None    Shift=    0.000
 Gap=     0.139 Goal=   None    Shift=    0.000
 RMSDP=1.83D-05 MaxDP=1.58D-03 DE=-2.89D-05 OVMax= 3.08D-04

 Cycle   9  Pass 1  IDiag  1:
 RMSU=  9.49D-06    CP:  9.74D-01  5.86D-01  6.43D-01  2.56D-01  8.14D-01
                    CP:  7.05D-01  7.32D-01  5.25D-01
 E= -918.070135302424     Delta-E=       -0.000001193732 Rises=F Damp=F
 DIIS: error= 1.98D-05 at cycle   9 NSaved=   9.
 NSaved= 9 IEnMin= 9 EnMin= -918.070135302424     IErMin= 9 ErrMin= 1.98D-05
 ErrMax= 1.98D-05  0.00D+00 EMaxC= 1.00D-01 BMatC= 4.15D-07 BMatP= 5.58D-06
 IDIUse=1 WtCom= 1.00D+00 WtEn= 0.00D+00
 Coeff-Com:  0.138D-03-0.533D-03 0.151D-02-0.572D-03 0.295D-02 0.303D-01
 Coeff-Com:  0.103D+00 0.275D+00 0.588D+00
 Coeff:      0.138D-03-0.533D-03 0.151D-02-0.572D-03 0.295D-02 0.303D-01
 Coeff:      0.103D+00 0.275D+00 0.588D+00
 Gap=     0.139 Goal=   None    Shift=    0.000
 Gap=     0.139 Goal=   None    Shift=    0.000
 RMSDP=5.96D-06 MaxDP=4.61D-04 DE=-1.19D-06 OVMax= 1.58D-04

 Cycle  10  Pass 1  IDiag  1:
 RMSU=  3.68D-06    CP:  9.74D-01  5.86D-01  6.43D-01  2.56D-01  8.14D-01
                    CP:  7.10D-01  7.30D-01  5.52D-01  9.03D-01
 E= -918.070135370827     Delta-E=       -0.000000068403 Rises=F Damp=F
 DIIS: error= 1.50D-05 at cycle  10 NSaved=  10.
 NSaved=10 IEnMin=10 EnMin= -918.070135370827     IErMin=10 ErrMin= 1.50D-05
 ErrMax= 1.50D-05  0.00D+00 EMaxC= 1.00D-01 BMatC= 1.54D-07 BMatP= 4.15D-07
 IDIUse=1 WtCom= 1.00D+00 WtEn= 0.00D+00
 Coeff-Com:  0.647D-04-0.203D-03-0.370D-03 0.139D-03-0.143D-02 0.674D-02
 Coeff-Com:  0.303D-01 0.129D+00 0.419D+00 0.417D+00
 Coeff:      0.647D-04-0.203D-03-0.370D-03 0.139D-03-0.143D-02 0.674D-02
 Coeff:      0.303D-01 0.129D+00 0.419D+00 0.417D+00
 Gap=     0.139 Goal=   None    Shift=    0.000
 Gap=     0.139 Goal=   None    Shift=    0.000
 RMSDP=2.02D-06 MaxDP=1.53D-04 DE=-6.84D-08 OVMax= 8.19D-05

 Cycle  11  Pass 1  IDiag  1:
 RMSU=  1.45D-06    CP:  9.74D-01  5.86D-01  6.43D-01  2.56D-01  8.14D-01
                    CP:  7.09D-01  7.30D-01  5.42D-01  9.23D-01  8.26D-01
 E= -918.070135402041     Delta-E=       -0.000000031214 Rises=F Damp=F
 DIIS: error= 3.56D-06 at cycle  11 NSaved=  11.
 NSaved=11 IEnMin=11 EnMin= -918.070135402041     IErMin=11 ErrMin= 3.56D-06
 ErrMax= 3.56D-06  0.00D+00 EMaxC= 1.00D-01 BMatC= 7.87D-09 BMatP= 1.54D-07
 IDIUse=1 WtCom= 1.00D+00 WtEn= 0.00D+00
 Coeff-Com:  0.125D-04-0.286D-04-0.289D-03 0.858D-04-0.790D-03 0.640D-03
 Coeff-Com:  0.461D-02 0.370D-01 0.163D+00 0.231D+00 0.565D+00
 Coeff:      0.125D-04-0.286D-04-0.289D-03 0.858D-04-0.790D-03 0.640D-03
 Coeff:      0.461D-02 0.370D-01 0.163D+00 0.231D+00 0.565D+00
 Gap=     0.139 Goal=   None    Shift=    0.000
 Gap=     0.139 Goal=   None    Shift=    0.000
 RMSDP=6.94D-07 MaxDP=3.87D-05 DE=-3.12D-08 OVMax= 2.21D-05

 Cycle  12  Pass 1  IDiag  1:
 RMSU=  2.19D-07    CP:  9.74D-01  5.86D-01  6.43D-01  2.56D-01  8.14D-01
                    CP:  7.09D-01  7.31D-01  5.50D-01  9.16D-01  7.87D-01
                    CP:  7.35D-01
 E= -918.070135403571     Delta-E=       -0.000000001531 Rises=F Damp=F
 DIIS: error= 9.61D-07 at cycle  12 NSaved=  12.
 NSaved=12 IEnMin=12 EnMin= -918.070135403571     IErMin=12 ErrMin= 9.61D-07
 ErrMax= 9.61D-07  0.00D+00 EMaxC= 1.00D-01 BMatC= 1.00D-09 BMatP= 7.87D-09
 IDIUse=1 WtCom= 1.00D+00 WtEn= 0.00D+00
 Coeff-Com: -0.729D-06 0.185D-05-0.134D-03 0.445D-04-0.318D-03-0.232D-03
 Coeff-Com: -0.539D-03 0.666D-02 0.470D-01 0.798D-01 0.302D+00 0.566D+00
 Coeff:     -0.729D-06 0.185D-05-0.134D-03 0.445D-04-0.318D-03-0.232D-03
 Coeff:     -0.539D-03 0.666D-02 0.470D-01 0.798D-01 0.302D+00 0.566D+00
 Gap=     0.139 Goal=   None    Shift=    0.000
 Gap=     0.139 Goal=   None    Shift=    0.000
 RMSDP=1.14D-07 MaxDP=5.86D-06 DE=-1.53D-09 OVMax= 4.56D-06

 Cycle  13  Pass 1  IDiag  1:
 RMSU=  7.51D-08    CP:  9.74D-01  5.86D-01  6.43D-01  2.56D-01  8.14D-01
                    CP:  7.09D-01  7.31D-01  5.51D-01  9.19D-01  7.86D-01
                    CP:  7.23D-01  7.46D-01
 E= -918.070135403796     Delta-E=       -0.000000000224 Rises=F Damp=F
 DIIS: error= 3.07D-07 at cycle  13 NSaved=  13.
 NSaved=13 IEnMin=13 EnMin= -918.070135403796     IErMin=13 ErrMin= 3.07D-07
 ErrMax= 3.07D-07  0.00D+00 EMaxC= 1.00D-01 BMatC= 9.02D-11 BMatP= 1.00D-09
 IDIUse=1 WtCom= 1.00D+00 WtEn= 0.00D+00
 Coeff-Com: -0.253D-05 0.412D-05-0.327D-04 0.118D-04-0.580D-04-0.136D-03
 Coeff-Com: -0.720D-03-0.997D-03 0.448D-02 0.114D-01 0.690D-01 0.221D+00
 Coeff-Com:  0.696D+00
 Coeff:     -0.253D-05 0.412D-05-0.327D-04 0.118D-04-0.580D-04-0.136D-03
 Coeff:     -0.720D-03-0.997D-03 0.448D-02 0.114D-01 0.690D-01 0.221D+00
 Coeff:      0.696D+00
 Gap=     0.139 Goal=   None    Shift=    0.000
 Gap=     0.139 Goal=   None    Shift=    0.000
 RMSDP=6.29D-08 MaxDP=2.62D-06 DE=-2.24D-10 OVMax= 1.36D-06

 Cycle  14  Pass 1  IDiag  1:
 RMSU=  2.92D-08    CP:  9.74D-01  5.86D-01  6.43D-01  2.56D-01  8.14D-01
                    CP:  7.09D-01  7.31D-01  5.50D-01  9.19D-01  7.93D-01
                    CP:  7.42D-01  7.86D-01  8.76D-01
 E= -918.070135403799     Delta-E=       -0.000000000003 Rises=F Damp=F
 DIIS: error= 1.18D-07 at cycle  14 NSaved=  14.
 NSaved=14 IEnMin=14 EnMin= -918.070135403799     IErMin=14 ErrMin= 1.18D-07
 ErrMax= 1.18D-07  0.00D+00 EMaxC= 1.00D-01 BMatC= 1.40D-11 BMatP= 9.02D-11
 IDIUse=1 WtCom= 1.00D+00 WtEn= 0.00D+00
 Coeff-Com: -0.178D-05 0.346D-05-0.524D-05 0.118D-05 0.468D-05-0.636D-04
 Coeff-Com: -0.431D-03-0.154D-02-0.281D-02-0.236D-02 0.720D-02 0.669D-01
 Coeff-Com:  0.437D+00 0.496D+00
 Coeff:     -0.178D-05 0.346D-05-0.524D-05 0.118D-05 0.468D-05-0.636D-04
 Coeff:     -0.431D-03-0.154D-02-0.281D-02-0.236D-02 0.720D-02 0.669D-01
 Coeff:      0.437D+00 0.496D+00
 Gap=     0.139 Goal=   None    Shift=    0.000
 Gap=     0.139 Goal=   None    Shift=    0.000
 RMSDP=1.96D-08 MaxDP=1.44D-06 DE=-3.18D-12 OVMax= 5.62D-07

 Cycle  15  Pass 1  IDiag  1:
 RMSU=  9.34D-09    CP:  9.74D-01  5.86D-01  6.43D-01  2.56D-01  8.14D-01
                    CP:  7.09D-01  7.31D-01  5.50D-01  9.19D-01  7.93D-01
                    CP:  7.43D-01  7.86D-01  8.91D-01  7.90D-01
 E= -918.070135403822     Delta-E=       -0.000000000023 Rises=F Damp=F
 DIIS: error= 2.78D-08 at cycle  15 NSaved=  15.
 NSaved=15 IEnMin=15 EnMin= -918.070135403822     IErMin=15 ErrMin= 2.78D-08
 ErrMax= 2.78D-08  0.00D+00 EMaxC= 1.00D-01 BMatC= 4.94D-13 BMatP= 1.40D-11
 IDIUse=1 WtCom= 1.00D+00 WtEn= 0.00D+00
 Coeff-Com: -0.584D-06 0.130D-05-0.156D-05 0.244D-06 0.204D-05-0.230D-04
 Coeff-Com: -0.145D-03-0.585D-03-0.146D-02-0.172D-02-0.168D-02 0.108D-01
 Coeff-Com:  0.137D+00 0.232D+00 0.626D+00
 Coeff:     -0.584D-06 0.130D-05-0.156D-05 0.244D-06 0.204D-05-0.230D-04
 Coeff:     -0.145D-03-0.585D-03-0.146D-02-0.172D-02-0.168D-02 0.108D-01
 Coeff:      0.137D+00 0.232D+00 0.626D+00
 Gap=     0.139 Goal=   None    Shift=    0.000
 Gap=     0.139 Goal=   None    Shift=    0.000
 RMSDP=6.19D-09 MaxDP=4.39D-07 DE=-2.32D-11 OVMax= 1.68D-07

 SCF Done:  E(UB3LYP) =  -918.070135404     A.U. after   15 cycles
            NFock= 15  Conv=0.62D-08     -V/T= 2.0040
 <Sx>= 0.0000 <Sy>= 0.0000 <Sz>= 0.0000 <S**2>=-0.0000 S=-0.0000
 <L.S>=  0.00000000000    
 KE= 9.144136108871D+02 PE=-4.999837819721D+03 EE= 1.738680276287D+03
 Annihilation of the first spin contaminant:
 S**2 before annihilation    -0.0000,   after    -0.0000
 Leave Link  502 at Wed Dec 27 19:49:17 2023, MaxMem=  4026531840 cpu:            2106.1 elap:             267.8
 (Enter /sysapps/ubuntu-applications/gaussian/Gaussian/AVX2/g16/l601.exe)
 Copying SCF densities to generalized density rwf, IOpCl= 1 IROHF=0.

 **********************************************************************

            Population analysis using the SCF density.

 **********************************************************************

 Alpha  occ. eigenvalues --  -19.17545 -19.17545 -19.12172 -19.11165 -10.27402
 Alpha  occ. eigenvalues --  -10.26649 -10.26021 -10.26021 -10.24148 -10.24148
 Alpha  occ. eigenvalues --  -10.20466 -10.20465 -10.19758 -10.19758 -10.19666
 Alpha  occ. eigenvalues --  -10.19666 -10.19563 -10.19562 -10.19034 -10.19034
 Alpha  occ. eigenvalues --   -1.09163  -1.09162  -1.05605  -1.04534  -0.88854
 Alpha  occ. eigenvalues --   -0.87781  -0.80903  -0.78323  -0.78302  -0.77115
 Alpha  occ. eigenvalues --   -0.73185  -0.72050  -0.67966  -0.65840  -0.63078
 Alpha  occ. eigenvalues --   -0.61911  -0.58476  -0.56557  -0.56454  -0.52528
 Alpha  occ. eigenvalues --   -0.52465  -0.51360  -0.49539  -0.49084  -0.49055
 Alpha  occ. eigenvalues --   -0.47557  -0.46066  -0.44985  -0.44807  -0.44572
 Alpha  occ. eigenvalues --   -0.44412  -0.43981  -0.42678  -0.41855  -0.40602
 Alpha  occ. eigenvalues --   -0.40417  -0.40302  -0.38781  -0.38652  -0.38057
 Alpha  occ. eigenvalues --   -0.35180  -0.34955  -0.34526  -0.33194  -0.28010
 Alpha  occ. eigenvalues --   -0.27844  -0.27508  -0.26236  -0.25100  -0.24382
 Alpha virt. eigenvalues --   -0.10527  -0.06779  -0.02758  -0.01813  -0.01476
 Alpha virt. eigenvalues --   -0.01369   0.00839   0.01076   0.01222   0.02180
 Alpha virt. eigenvalues --    0.02377   0.02551   0.03249   0.03735   0.03940
 Alpha virt. eigenvalues --    0.04263   0.04441   0.04729   0.05593   0.06254
 Alpha virt. eigenvalues --    0.06385   0.06577   0.06864   0.07725   0.08504
 Alpha virt. eigenvalues --    0.08828   0.09466   0.09557   0.09697   0.10103
 Alpha virt. eigenvalues --    0.10807   0.11011   0.11054   0.11483   0.12141
 Alpha virt. eigenvalues --    0.12181   0.12292   0.12888   0.12940   0.13503
 Alpha virt. eigenvalues --    0.13755   0.13788   0.13960   0.14106   0.14367
 Alpha virt. eigenvalues --    0.14465   0.14895   0.15188   0.15306   0.15702
 Alpha virt. eigenvalues --    0.16079   0.16137   0.16307   0.17271   0.17399
 Alpha virt. eigenvalues --    0.17731   0.18262   0.18375   0.19082   0.19692
 Alpha virt. eigenvalues --    0.19904   0.20122   0.20339   0.20684   0.20810
 Alpha virt. eigenvalues --    0.21720   0.22280   0.22799   0.22832   0.23482
 Alpha virt. eigenvalues --    0.23586   0.23932   0.24118   0.24541   0.24772
 Alpha virt. eigenvalues --    0.25283   0.25670   0.26092   0.26345   0.26851
 Alpha virt. eigenvalues --    0.27338   0.27702   0.28527   0.29135   0.29239
 Alpha virt. eigenvalues --    0.29473   0.30178   0.30545   0.30600   0.31346
 Alpha virt. eigenvalues --    0.31534   0.31739   0.31775   0.32228   0.32375
 Alpha virt. eigenvalues --    0.32533   0.32807   0.33196   0.33662   0.33970
 Alpha virt. eigenvalues --    0.34336   0.34913   0.35822   0.36063   0.36380
 Alpha virt. eigenvalues --    0.36848   0.37059   0.38015   0.38420   0.39432
 Alpha virt. eigenvalues --    0.40360   0.40889   0.40967   0.42600   0.42620
 Alpha virt. eigenvalues --    0.43111   0.43575   0.44786   0.45474   0.46478
 Alpha virt. eigenvalues --    0.47025   0.48294   0.48497   0.50683   0.51187
 Alpha virt. eigenvalues --    0.51756   0.53129   0.53356   0.54157   0.54538
 Alpha virt. eigenvalues --    0.54867   0.55060   0.56862   0.57024   0.58587
 Alpha virt. eigenvalues --    0.59130   0.59797   0.60156   0.61135   0.61747
 Alpha virt. eigenvalues --    0.62024   0.62356   0.63280   0.63678   0.63772
 Alpha virt. eigenvalues --    0.64226   0.64951   0.65718   0.65726   0.65798
 Alpha virt. eigenvalues --    0.66073   0.66133   0.66717   0.66954   0.68447
 Alpha virt. eigenvalues --    0.68684   0.69884   0.70108   0.72068   0.72681
 Alpha virt. eigenvalues --    0.72733   0.73787   0.74262   0.74946   0.75176
 Alpha virt. eigenvalues --    0.76235   0.77729   0.78213   0.79222   0.79473
 Alpha virt. eigenvalues --    0.80990   0.81389   0.84871   0.85855   0.87438
 Alpha virt. eigenvalues --    0.87487   0.88181   0.91701   0.91814   0.92231
 Alpha virt. eigenvalues --    0.92436   0.92555   0.92676   0.92923   0.93759
 Alpha virt. eigenvalues --    0.96440   0.96647   0.97164   0.97716   0.98736
 Alpha virt. eigenvalues --    0.98799   0.99180   1.00067   1.00536   1.01144
 Alpha virt. eigenvalues --    1.01314   1.02241   1.03890   1.04620   1.04764
 Alpha virt. eigenvalues --    1.05421   1.05973   1.06980   1.07570   1.09661
 Alpha virt. eigenvalues --    1.10474   1.11202   1.12434   1.12786   1.13268
 Alpha virt. eigenvalues --    1.13934   1.15434   1.16902   1.17133   1.21452
 Alpha virt. eigenvalues --    1.22231   1.23452   1.23669   1.25208   1.27510
 Alpha virt. eigenvalues --    1.27584   1.27657   1.28903   1.31677   1.31995
 Alpha virt. eigenvalues --    1.33229   1.33544   1.35163   1.36226   1.38829
 Alpha virt. eigenvalues --    1.41790   1.41815   1.43598   1.44593   1.46859
 Alpha virt. eigenvalues --    1.47115   1.48650   1.49841   1.50136   1.50498
 Alpha virt. eigenvalues --    1.51242   1.51874   1.51938   1.53623   1.55744
 Alpha virt. eigenvalues --    1.55903   1.57041   1.57043   1.58734   1.58878
 Alpha virt. eigenvalues --    1.59170   1.60258   1.63883   1.66067   1.66492
 Alpha virt. eigenvalues --    1.67670   1.68070   1.68191   1.68315   1.69502
 Alpha virt. eigenvalues --    1.70336   1.71459   1.71895   1.71922   1.72417
 Alpha virt. eigenvalues --    1.73908   1.76890   1.76950   1.77364   1.78146
 Alpha virt. eigenvalues --    1.80951   1.84282   1.84776   1.86661   1.87697
 Alpha virt. eigenvalues --    1.88243   1.90257   1.90963   1.91311   1.92292
 Alpha virt. eigenvalues --    1.92950   1.93742   1.93909   1.94921   1.96623
 Alpha virt. eigenvalues --    1.97748   1.98182   2.02095   2.02863   2.04323
 Alpha virt. eigenvalues --    2.05202   2.05832   2.06319   2.07113   2.07627
 Alpha virt. eigenvalues --    2.09519   2.09776   2.10941   2.13695   2.15647
 Alpha virt. eigenvalues --    2.17769   2.18339   2.18715   2.19579   2.20082
 Alpha virt. eigenvalues --    2.23578   2.25965   2.29107   2.31334   2.32720
 Alpha virt. eigenvalues --    2.33218   2.35796   2.37501   2.39075   2.44705
 Alpha virt. eigenvalues --    2.45266   2.45996   2.46446   2.46563   2.47096
 Alpha virt. eigenvalues --    2.49925   2.50249   2.53747   2.53882   2.55429
 Alpha virt. eigenvalues --    2.55514   2.59339   2.61210   2.63737   2.64219
 Alpha virt. eigenvalues --    2.64241   2.65673   2.66436   2.70067   2.70314
 Alpha virt. eigenvalues --    2.72555   2.74420   2.74740   2.74900   2.76065
 Alpha virt. eigenvalues --    2.76842   2.77301   2.78115   2.78385   2.78998
 Alpha virt. eigenvalues --    2.79974   2.81433   2.83525   2.85638   2.85680
 Alpha virt. eigenvalues --    2.86458   2.86844   2.86914   2.88376   2.89118
 Alpha virt. eigenvalues --    2.93467   2.93926   2.95796   2.96987   3.00695
 Alpha virt. eigenvalues --    3.03525   3.03629   3.05307   3.05913   3.08383
 Alpha virt. eigenvalues --    3.09120   3.09423   3.12453   3.12921   3.15875
 Alpha virt. eigenvalues --    3.19647   3.20466   3.22379   3.23135   3.23222
 Alpha virt. eigenvalues --    3.24077   3.31240   3.32960   3.33571   3.34345
 Alpha virt. eigenvalues --    3.36735   3.40164   3.41129   3.41339   3.43852
 Alpha virt. eigenvalues --    3.53414   3.53719   3.55177   3.56277   3.58642
 Alpha virt. eigenvalues --    3.59769   3.63498   3.64207   3.69800   3.75853
 Alpha virt. eigenvalues --    3.75857   3.78934   3.80809   3.82685   3.83507
 Alpha virt. eigenvalues --    3.86568   4.06534   4.07723   4.09378   4.09829
 Alpha virt. eigenvalues --    4.17338   4.17733   4.19111   4.21520   4.25439
 Alpha virt. eigenvalues --    4.27596   4.50296   4.74779   4.83884   4.85717
 Alpha virt. eigenvalues --    5.01461   5.01968   5.05433   5.07040   5.25257
 Alpha virt. eigenvalues --    5.27825   5.38610   5.39046   5.73310   5.78479
 Alpha virt. eigenvalues --    5.79111   5.82412  23.53810  23.65069  23.87806
 Alpha virt. eigenvalues --   23.90957  23.91075  23.92042  23.92155  23.93846
 Alpha virt. eigenvalues --   23.93871  23.94818  24.02328  24.05006  24.09380
 Alpha virt. eigenvalues --   24.09431  24.16009  24.16175  49.95079  49.95273
 Alpha virt. eigenvalues --   50.04839  50.09589
  Beta  occ. eigenvalues --  -19.17545 -19.17545 -19.12172 -19.11165 -10.27402
  Beta  occ. eigenvalues --  -10.26649 -10.26021 -10.26021 -10.24148 -10.24148
  Beta  occ. eigenvalues --  -10.20466 -10.20465 -10.19758 -10.19758 -10.19666
  Beta  occ. eigenvalues --  -10.19666 -10.19563 -10.19562 -10.19034 -10.19034
  Beta  occ. eigenvalues --   -1.09163  -1.09162  -1.05605  -1.04534  -0.88854
  Beta  occ. eigenvalues --   -0.87781  -0.80903  -0.78323  -0.78302  -0.77115
  Beta  occ. eigenvalues --   -0.73185  -0.72050  -0.67966  -0.65840  -0.63078
  Beta  occ. eigenvalues --   -0.61911  -0.58476  -0.56557  -0.56454  -0.52528
  Beta  occ. eigenvalues --   -0.52465  -0.51360  -0.49539  -0.49084  -0.49055
  Beta  occ. eigenvalues --   -0.47557  -0.46066  -0.44985  -0.44807  -0.44572
  Beta  occ. eigenvalues --   -0.44412  -0.43981  -0.42678  -0.41855  -0.40602
  Beta  occ. eigenvalues --   -0.40417  -0.40302  -0.38781  -0.38652  -0.38057
  Beta  occ. eigenvalues --   -0.35180  -0.34955  -0.34526  -0.33194  -0.28010
  Beta  occ. eigenvalues --   -0.27844  -0.27508  -0.26236  -0.25100  -0.24382
  Beta virt. eigenvalues --   -0.10527  -0.06779  -0.02758  -0.01813  -0.01476
  Beta virt. eigenvalues --   -0.01369   0.00839   0.01076   0.01222   0.02180
  Beta virt. eigenvalues --    0.02377   0.02551   0.03249   0.03735   0.03940
  Beta virt. eigenvalues --    0.04263   0.04441   0.04729   0.05593   0.06254
  Beta virt. eigenvalues --    0.06385   0.06577   0.06864   0.07725   0.08504
  Beta virt. eigenvalues --    0.08828   0.09466   0.09557   0.09697   0.10103
  Beta virt. eigenvalues --    0.10807   0.11011   0.11054   0.11483   0.12141
  Beta virt. eigenvalues --    0.12181   0.12292   0.12888   0.12940   0.13503
  Beta virt. eigenvalues --    0.13755   0.13788   0.13960   0.14106   0.14367
  Beta virt. eigenvalues --    0.14465   0.14895   0.15188   0.15306   0.15702
  Beta virt. eigenvalues --    0.16079   0.16137   0.16307   0.17271   0.17399
  Beta virt. eigenvalues --    0.17731   0.18262   0.18375   0.19082   0.19692
  Beta virt. eigenvalues --    0.19904   0.20122   0.20339   0.20684   0.20810
  Beta virt. eigenvalues --    0.21720   0.22280   0.22799   0.22832   0.23482
  Beta virt. eigenvalues --    0.23586   0.23932   0.24118   0.24541   0.24772
  Beta virt. eigenvalues --    0.25283   0.25670   0.26092   0.26345   0.26851
  Beta virt. eigenvalues --    0.27338   0.27702   0.28527   0.29135   0.29239
  Beta virt. eigenvalues --    0.29473   0.30178   0.30545   0.30600   0.31346
  Beta virt. eigenvalues --    0.31534   0.31739   0.31775   0.32228   0.32375
  Beta virt. eigenvalues --    0.32533   0.32807   0.33196   0.33662   0.33970
  Beta virt. eigenvalues --    0.34336   0.34913   0.35822   0.36063   0.36380
  Beta virt. eigenvalues --    0.36848   0.37059   0.38015   0.38420   0.39432
  Beta virt. eigenvalues --    0.40360   0.40889   0.40967   0.42600   0.42620
  Beta virt. eigenvalues --    0.43111   0.43575   0.44786   0.45474   0.46478
  Beta virt. eigenvalues --    0.47025   0.48294   0.48497   0.50683   0.51187
  Beta virt. eigenvalues --    0.51756   0.53129   0.53356   0.54157   0.54538
  Beta virt. eigenvalues --    0.54867   0.55060   0.56862   0.57024   0.58587
  Beta virt. eigenvalues --    0.59130   0.59797   0.60156   0.61135   0.61747
  Beta virt. eigenvalues --    0.62024   0.62356   0.63280   0.63678   0.63772
  Beta virt. eigenvalues --    0.64226   0.64951   0.65718   0.65726   0.65798
  Beta virt. eigenvalues --    0.66073   0.66133   0.66717   0.66954   0.68447
  Beta virt. eigenvalues --    0.68684   0.69884   0.70108   0.72068   0.72681
  Beta virt. eigenvalues --    0.72733   0.73787   0.74262   0.74946   0.75176
  Beta virt. eigenvalues --    0.76235   0.77729   0.78213   0.79222   0.79473
  Beta virt. eigenvalues --    0.80990   0.81389   0.84871   0.85855   0.87438
  Beta virt. eigenvalues --    0.87487   0.88181   0.91701   0.91814   0.92231
  Beta virt. eigenvalues --    0.92436   0.92555   0.92676   0.92923   0.93759
  Beta virt. eigenvalues --    0.96440   0.96647   0.97164   0.97716   0.98736
  Beta virt. eigenvalues --    0.98799   0.99180   1.00067   1.00536   1.01144
  Beta virt. eigenvalues --    1.01314   1.02241   1.03890   1.04620   1.04764
  Beta virt. eigenvalues --    1.05421   1.05973   1.06980   1.07570   1.09661
  Beta virt. eigenvalues --    1.10474   1.11202   1.12434   1.12786   1.13268
  Beta virt. eigenvalues --    1.13934   1.15434   1.16902   1.17133   1.21452
  Beta virt. eigenvalues --    1.22231   1.23452   1.23669   1.25208   1.27510
  Beta virt. eigenvalues --    1.27584   1.27657   1.28903   1.31677   1.31995
  Beta virt. eigenvalues --    1.33229   1.33544   1.35163   1.36226   1.38829
  Beta virt. eigenvalues --    1.41790   1.41815   1.43598   1.44593   1.46859
  Beta virt. eigenvalues --    1.47115   1.48650   1.49841   1.50136   1.50498
  Beta virt. eigenvalues --    1.51242   1.51874   1.51938   1.53623   1.55744
  Beta virt. eigenvalues --    1.55903   1.57041   1.57043   1.58734   1.58878
  Beta virt. eigenvalues --    1.59170   1.60258   1.63883   1.66067   1.66492
  Beta virt. eigenvalues --    1.67670   1.68070   1.68191   1.68315   1.69502
  Beta virt. eigenvalues --    1.70336   1.71459   1.71895   1.71922   1.72417
  Beta virt. eigenvalues --    1.73908   1.76890   1.76950   1.77364   1.78146
  Beta virt. eigenvalues --    1.80951   1.84282   1.84776   1.86661   1.87697
  Beta virt. eigenvalues --    1.88243   1.90257   1.90963   1.91311   1.92292
  Beta virt. eigenvalues --    1.92950   1.93742   1.93909   1.94921   1.96623
  Beta virt. eigenvalues --    1.97748   1.98182   2.02095   2.02863   2.04323
  Beta virt. eigenvalues --    2.05202   2.05832   2.06319   2.07113   2.07627
  Beta virt. eigenvalues --    2.09519   2.09776   2.10941   2.13695   2.15647
  Beta virt. eigenvalues --    2.17769   2.18339   2.18715   2.19579   2.20082
  Beta virt. eigenvalues --    2.23578   2.25965   2.29107   2.31334   2.32720
  Beta virt. eigenvalues --    2.33218   2.35796   2.37501   2.39075   2.44705
  Beta virt. eigenvalues --    2.45266   2.45996   2.46446   2.46563   2.47096
  Beta virt. eigenvalues --    2.49925   2.50249   2.53747   2.53882   2.55429
  Beta virt. eigenvalues --    2.55514   2.59339   2.61210   2.63737   2.64219
  Beta virt. eigenvalues --    2.64241   2.65673   2.66436   2.70067   2.70314
  Beta virt. eigenvalues --    2.72555   2.74420   2.74740   2.74900   2.76065
  Beta virt. eigenvalues --    2.76842   2.77301   2.78115   2.78385   2.78998
  Beta virt. eigenvalues --    2.79974   2.81433   2.83525   2.85638   2.85680
  Beta virt. eigenvalues --    2.86458   2.86844   2.86914   2.88376   2.89118
  Beta virt. eigenvalues --    2.93467   2.93926   2.95796   2.96987   3.00695
  Beta virt. eigenvalues --    3.03525   3.03629   3.05307   3.05913   3.08383
  Beta virt. eigenvalues --    3.09120   3.09423   3.12453   3.12921   3.15875
  Beta virt. eigenvalues --    3.19647   3.20466   3.22379   3.23135   3.23222
  Beta virt. eigenvalues --    3.24077   3.31240   3.32960   3.33571   3.34345
  Beta virt. eigenvalues --    3.36735   3.40164   3.41129   3.41339   3.43852
  Beta virt. eigenvalues --    3.53414   3.53719   3.55177   3.56277   3.58642
  Beta virt. eigenvalues --    3.59769   3.63498   3.64207   3.69800   3.75853
  Beta virt. eigenvalues --    3.75857   3.78934   3.80809   3.82685   3.83507
  Beta virt. eigenvalues --    3.86568   4.06534   4.07723   4.09378   4.09829
  Beta virt. eigenvalues --    4.17338   4.17733   4.19111   4.21520   4.25439
  Beta virt. eigenvalues --    4.27596   4.50296   4.74779   4.83884   4.85717
  Beta virt. eigenvalues --    5.01461   5.01968   5.05433   5.07040   5.25257
  Beta virt. eigenvalues --    5.27825   5.38610   5.39046   5.73310   5.78479
  Beta virt. eigenvalues --    5.79111   5.82412  23.53810  23.65069  23.87806
  Beta virt. eigenvalues --   23.90957  23.91075  23.92042  23.92155  23.93846
  Beta virt. eigenvalues --   23.93871  23.94818  24.02328  24.05006  24.09380
  Beta virt. eigenvalues --   24.09431  24.16009  24.16175  49.95079  49.95273
  Beta virt. eigenvalues --   50.04839  50.09589
          Condensed to atoms (all electrons):
               1          2          3          4          5          6
     1  C   12.717649  -0.081110  -2.054547   1.181461  -1.559760   2.842903
     2  C   -0.081110  13.236156   0.581030  -3.603298  -1.780366  -1.694856
     3  C   -2.054547   0.581030  10.961738  -1.210144  -3.409452   0.026436
     4  C    1.181461  -3.603298  -1.210144  19.591105  -1.880128  -1.496001
     5  C   -1.559760  -1.780366  -3.409452  -1.880128  18.111865   1.403626
     6  C    2.842903  -1.694856   0.026436  -1.496001   1.403626  11.747187
     7  C   -3.046026   0.966960   0.292180  -2.199351   1.714228  -1.015203
     8  C    0.052851   0.037536  -0.071773   1.722726  -5.713758  -2.140715
     9  C   -1.391846  -0.497015   0.247704  -5.713800   1.732894   0.214686
    10  C   -1.409472  -0.258365   0.639569   1.639500  -1.058840  -2.781690
    11  C   -0.643323  -0.092921  -0.188995   0.052557  -1.391959  -0.560994
    12  C   -0.092921  -0.051395  -0.017464   0.037155  -0.496710  -0.213025
    13  C   -0.189143  -0.017495  -0.035465  -0.072056   0.248075  -0.209601
    14  C   -0.561035  -0.213116  -0.209573  -2.140679   0.214732  -0.587350
    15  O    0.201964   0.113332   0.005268  -0.161128  -0.376730  -0.019930
    16  O   -0.010184  -0.003040   0.092832  -0.367749  -0.203688   0.259855
    17  H    0.042079   0.055648  -0.102908   0.088413   0.044627   0.309647
    18  H   -0.004328  -0.003321  -0.003806   0.004338  -0.079867  -0.037036
    19  H    0.485111  -0.022565  -0.081221  -0.004760   0.092349   0.034174
    20  H   -0.032048  -0.001891  -0.001419  -0.088331   0.011400  -0.007112
    21  O   -0.000427   0.000354   0.000036  -0.003462  -0.001817   0.000082
    22  C   -0.000497  -0.000227   0.000088  -0.023060  -0.012413  -0.002017
    23  O   -0.146882  -0.018381   0.078331  -0.086477   0.027544   0.045448
    24  H   -0.000686  -0.000458  -0.000854  -0.001022   0.021376   0.002720
    25  H   -0.000253  -0.000001  -0.000007  -0.000381  -0.000252  -0.000115
    26  H    0.000124  -0.000026   0.000009   0.000394  -0.000414   0.000056
    27  H    0.000125  -0.000026   0.000009   0.000412  -0.000391   0.000060
    28  C    0.172127   0.250159  -0.234973  -0.083524  -0.131144  -0.148631
    29  H   -0.017512  -0.104584   0.548993  -0.002265  -0.049284  -0.076674
    30  H   -0.013621   0.089090   0.000207   0.008485  -0.006977  -0.014489
    31  H    0.014900  -0.057355   0.006369  -0.019042   0.004046   0.019498
    32  H    0.017100  -0.058151   0.004050  -0.018417   0.004036   0.019939
               7          8          9         10         11         12
     1  C   -3.046026   0.052851  -1.391846  -1.409472  -0.643323  -0.092921
     2  C    0.966960   0.037536  -0.497015  -0.258365  -0.092921  -0.051395
     3  C    0.292180  -0.071773   0.247704   0.639569  -0.188995  -0.017464
     4  C   -2.199351   1.722726  -5.713800   1.639500   0.052557   0.037155
     5  C    1.714228  -5.713758   1.732894  -1.058840  -1.391959  -0.496710
     6  C   -1.015203  -2.140715   0.214686  -2.781690  -0.560994  -0.213025
     7  C   11.607922  -2.198638   1.713772   1.360632  -3.044779   0.966257
     8  C   -2.198638  19.587808  -1.880239   1.639903   1.181366  -3.601424
     9  C    1.713772  -1.880239  18.115055  -1.059312  -1.559563  -1.780387
    10  C    1.360632   1.639903  -1.059312  11.162704  -1.409886  -0.258328
    11  C   -3.044779   1.181366  -1.559563  -1.409886  12.716409  -0.080651
    12  C    0.966257  -3.601424  -1.780387  -0.258328  -0.080651  13.234732
    13  C    0.291978  -1.210430  -3.411492   0.639900  -2.054147   0.581207
    14  C   -1.014704  -1.496041   1.403987  -2.782746   2.842775  -1.695267
    15  O    0.558220  -0.161083  -0.376765  -0.008874   0.201925   0.113286
    16  O   -0.009070  -0.367718  -0.203735   0.544130  -0.010187  -0.003034
    17  H   -0.004118   0.004328  -0.079879   0.022593  -0.004330  -0.003320
    18  H   -0.004122   0.088425   0.044523   0.022618   0.042088   0.055649
    19  H   -0.043112  -0.088322   0.011416  -0.024548  -0.032056  -0.001893
    20  H   -0.043124  -0.004646   0.092331  -0.024547   0.485094  -0.022613
    21  O    0.022857  -0.086512   0.027574  -0.001783  -0.146938  -0.018414
    22  C   -0.013871  -0.083516  -0.131201  -0.024175   0.172138   0.250229
    23  O    0.022851  -0.003462  -0.001817  -0.001787  -0.000427   0.000354
    24  H   -0.010089  -0.002269  -0.049308   0.031371  -0.017524  -0.104579
    25  H   -0.005427   0.008483  -0.006981  -0.000009  -0.013621   0.089103
    26  H    0.006264  -0.018883   0.004010  -0.001917   0.015279  -0.057455
    27  H    0.006273  -0.018560   0.004072  -0.001901   0.016738  -0.058062
    28  C   -0.013858  -0.023057  -0.012416  -0.024181  -0.000496  -0.000227
    29  H   -0.010097  -0.001021   0.021383   0.031377  -0.000685  -0.000458
    30  H   -0.005427  -0.000380  -0.000252  -0.000009  -0.000253  -0.000001
    31  H    0.006296   0.000388  -0.000416  -0.001913   0.000126  -0.000025
    32  H    0.006242   0.000417  -0.000390  -0.001905   0.000123  -0.000026
              13         14         15         16         17         18
     1  C   -0.189143  -0.561035   0.201964  -0.010184   0.042079  -0.004328
     2  C   -0.017495  -0.213116   0.113332  -0.003040   0.055648  -0.003321
     3  C   -0.035465  -0.209573   0.005268   0.092832  -0.102908  -0.003806
     4  C   -0.072056  -2.140679  -0.161128  -0.367749   0.088413   0.004338
     5  C    0.248075   0.214732  -0.376730  -0.203688   0.044627  -0.079867
     6  C   -0.209601  -0.587350  -0.019930   0.259855   0.309647  -0.037036
     7  C    0.291978  -1.014704   0.558220  -0.009070  -0.004118  -0.004122
     8  C   -1.210430  -1.496041  -0.161083  -0.367718   0.004328   0.088425
     9  C   -3.411492   1.403987  -0.376765  -0.203735  -0.079879   0.044523
    10  C    0.639900  -2.782746  -0.008874   0.544130   0.022593   0.022618
    11  C   -2.054147   2.842775   0.201925  -0.010187  -0.004330   0.042088
    12  C    0.581207  -1.695267   0.113286  -0.003034  -0.003320   0.055649
    13  C   10.963476   0.026333   0.005268   0.092904  -0.003803  -0.102839
    14  C    0.026333  11.747978  -0.019932   0.259883  -0.037029   0.309632
    15  O    0.005268  -0.019932   8.130434  -0.000039   0.000500   0.000500
    16  O    0.092904   0.259883  -0.000039   8.179863  -0.012272  -0.012269
    17  H   -0.003803  -0.037029   0.000500  -0.012272   0.503019  -0.000412
    18  H   -0.102839   0.309632   0.000500  -0.012269  -0.000412   0.503009
    19  H   -0.001421  -0.007109  -0.002548   0.000376   0.002811  -0.000232
    20  H   -0.081208   0.034158  -0.002553   0.000376  -0.000232   0.002811
    21  O    0.078381   0.045468  -0.000109  -0.000048   0.000000  -0.000579
    22  C   -0.234944  -0.148696   0.000114  -0.000013  -0.000072   0.006579
    23  O    0.000036   0.000082  -0.000109  -0.000048  -0.000578   0.000000
    24  H    0.549011  -0.076660  -0.000175   0.003936   0.000000  -0.020209
    25  H    0.000208  -0.014496   0.000034  -0.000001  -0.000002   0.000013
    26  H    0.005976   0.019575   0.000003  -0.000035   0.000001   0.000932
    27  H    0.004425   0.019864   0.000003  -0.000035   0.000001   0.000932
    28  C    0.000088  -0.002017   0.000114  -0.000013   0.006578  -0.000072
    29  H   -0.000855   0.002720  -0.000175   0.003936  -0.020213   0.000000
    30  H   -0.000007  -0.000115   0.000034  -0.000001   0.000013  -0.000002
    31  H    0.000009   0.000055   0.000003  -0.000035   0.000933   0.000001
    32  H    0.000009   0.000061   0.000003  -0.000035   0.000931   0.000001
              19         20         21         22         23         24
     1  C    0.485111  -0.032048  -0.000427  -0.000497  -0.146882  -0.000686
     2  C   -0.022565  -0.001891   0.000354  -0.000227  -0.018381  -0.000458
     3  C   -0.081221  -0.001419   0.000036   0.000088   0.078331  -0.000854
     4  C   -0.004760  -0.088331  -0.003462  -0.023060  -0.086477  -0.001022
     5  C    0.092349   0.011400  -0.001817  -0.012413   0.027544   0.021376
     6  C    0.034174  -0.007112   0.000082  -0.002017   0.045448   0.002720
     7  C   -0.043112  -0.043124   0.022857  -0.013871   0.022851  -0.010089
     8  C   -0.088322  -0.004646  -0.086512  -0.083516  -0.003462  -0.002269
     9  C    0.011416   0.092331   0.027574  -0.131201  -0.001817  -0.049308
    10  C   -0.024548  -0.024547  -0.001783  -0.024175  -0.001787   0.031371
    11  C   -0.032056   0.485094  -0.146938   0.172138  -0.000427  -0.017524
    12  C   -0.001893  -0.022613  -0.018414   0.250229   0.000354  -0.104579
    13  C   -0.001421  -0.081208   0.078381  -0.234944   0.000036   0.549011
    14  C   -0.007109   0.034158   0.045468  -0.148696   0.000082  -0.076660
    15  O   -0.002548  -0.002553  -0.000109   0.000114  -0.000109  -0.000175
    16  O    0.000376   0.000376  -0.000048  -0.000013  -0.000048   0.003936
    17  H    0.002811  -0.000232   0.000000  -0.000072  -0.000578   0.000000
    18  H   -0.000232   0.002811  -0.000579   0.006579   0.000000  -0.020209
    19  H    0.494396   0.000060  -0.000043  -0.000076  -0.019020  -0.000020
    20  H    0.000060   0.494399  -0.019019   0.008902  -0.000043  -0.003217
    21  O   -0.000043  -0.019019   8.194097   0.221614  -0.000000  -0.028098
    22  C   -0.000076   0.008902   0.221614   5.153840   0.000000  -0.008745
    23  O   -0.019020  -0.000043  -0.000000   0.000000   8.194089  -0.000001
    24  H   -0.000020  -0.003217  -0.028098  -0.008745  -0.000001   0.538012
    25  H   -0.000004   0.000984  -0.078915   0.384684  -0.000000   0.004499
    26  H    0.000004  -0.000694  -0.027501   0.410585   0.000000  -0.010989
    27  H    0.000004  -0.000703  -0.027291   0.410673   0.000000  -0.011025
    28  C    0.008900  -0.000076   0.000000  -0.000001   0.221624  -0.000001
    29  H   -0.003217  -0.000020  -0.000001  -0.000001  -0.028098  -0.000006
    30  H    0.000983  -0.000004  -0.000000   0.000000  -0.078914  -0.000000
    31  H   -0.000692   0.000004   0.000000  -0.000000  -0.027562   0.000000
    32  H   -0.000704   0.000004   0.000000  -0.000000  -0.027229   0.000000
              25         26         27         28         29         30
     1  C   -0.000253   0.000124   0.000125   0.172127  -0.017512  -0.013621
     2  C   -0.000001  -0.000026  -0.000026   0.250159  -0.104584   0.089090
     3  C   -0.000007   0.000009   0.000009  -0.234973   0.548993   0.000207
[...]
 806,0.00000278,0.00000126,0.00002854,-0.00002262,0.00001973,0.00003406
 ,-0.00000228,0.00000258,0.00000096,0.00003556,0.00004774,-0.00005594,0
 .00073142,0.00082231,0.00035452,0.00002874,-0.00089025,-0.00014944,0.0
 0034665,0.00011741,-0.00014369,-0.00195446,0.00004640,0.00072128,0.006
 20798,0.00402332,-0.00192004,0.00057781,-0.00090526,0.00001988,-0.0007
 1898,-0.00011172,0.00059267,-0.00007020,0.00001198,0.00002346,-0.00010
 449,-0.00017557,0.00002120,0.00000708,-0.00000118,-0.00000061,-0.00003
 750,-0.00001407,-0.00003820,0.00000278,0.00000098,0.00000029,0.0001263
 7,-0.00010948,-0.00016935,-0.01875465,0.02500615,-0.02548483,-0.050758
 57,0.00499811,-0.01006954,-0.00006165,0.00002596,0.00000140,-0.0009695
 3,-0.00071087,-0.00110395,0.00415145,-0.01116293,0.01842760,0.00197305
 ,-0.00227195,0.00019119,0.05924025,0.00005882,0.00002720,-0.00000797,-
 0.00011914,0.00009920,0.00000669,0.00004143,-0.00006793,-0.00000578,0.
 00005260,0.00003720,0.00000451,0.00015771,-0.00004399,0.00000222,-0.00
 007022,-0.00002276,0.00000445,-0.00014015,0.00011849,0.00004742,-0.000
 16780,-0.00002909,-0.00012605,0.00079936,0.00011149,0.00005416,-0.0006
 5780,-0.00030806,-0.00004799,0.00080188,-0.00000967,-0.00013124,-0.003
 67274,-0.00126219,-0.00049009,0.00075384,0.00055898,-0.00023752,-0.000
 56008,0.00004167,0.00025138,0.00009255,-0.00008562,-0.00002327,0.00017
 991,0.00027254,-0.00000012,-0.00001319,0.00000330,0.00000258,0.0000303
 7,0.00002536,-0.00003205,-0.00000488,-0.00000231,0.00000159,-0.0000891
 9,0.00007346,0.00010153,0.01459096,-0.01255041,0.01113632,0.00853176,-
 0.13015121,0.11619218,0.00016865,-0.00007843,-0.00000559,-0.00080713,-
 0.00002057,-0.00056106,0.00146818,-0.01122143,0.01918235,-0.00261803,0
 .01133038,-0.01446378,-0.01876275,0.14316413,-0.00001470,-0.00000211,0
 .00000691,0.00001708,-0.00001221,-0.00000451,-0.00000502,0.00001571,0.
 00000438,0.00000058,-0.00000521,-0.00000848,-0.00001502,0.00002051,-0.
 00000825,0.00002332,-0.00000159,-0.00000239,-0.00010144,0.00007062,0.0
 0002563,0.00031221,0.00005779,-0.00002747,-0.00028518,-0.00003358,-0.0
 0003031,0.00027286,0.00010649,0.00003801,-0.00059570,-0.00015039,-0.00
 024953,0.00167323,0.00104075,0.00071453,-0.00083006,0.00086973,0.00003
 843,0.00048280,-0.00039077,-0.00011002,0.00000784,-0.00007047,0.000000
 76,-0.00004133,-0.00013812,0.00000092,0.00000291,0.00000044,-0.0000016
 7,-0.00005551,-0.00001671,0.00000907,-0.00000014,0.00000045,-0.0000017
 9,0.00007408,-0.00004026,0.00000070,-0.00538676,-0.00136292,0.00772592
 ,-0.01456148,0.11745114,-0.22298095,-0.00002681,0.00001077,0.00000183,
 0.00024039,-0.00070271,-0.00009105,0.00086176,-0.00148317,0.00155185,-
 0.00081561,0.01562072,-0.02033231,0.01875687,-0.13085720,0.23373251,0.
 00524227,0.00335293,0.00002466,-0.05302090,0.00071772,0.00059507,0.006
 77620,-0.00326468,-0.00016101,-0.00196781,0.00045235,0.00005538,0.0044
 5134,-0.00200482,-0.00009384,-0.00348442,-0.00141941,0.00002507,-0.001
 24348,-0.00019122,0.00000690,0.00023685,-0.00038354,-0.00000924,0.0010
 0591,0.00022870,-0.00000738,-0.00433324,0.00246450,0.00009419,0.000371
 21,-0.00018744,-0.00000735,-0.00087695,-0.00056400,0.00000168,0.000290
 27,0.00040426,0.00000251,-0.00042306,0.00018212,0.00000940,0.00070890,
 0.00040232,-0.00000137,0.00105204,-0.00204020,-0.00004885,0.00046768,-
 0.00027127,-0.00001039,-0.00009247,-0.00001089,0.00000105,-0.00030910,
 -0.00038013,-0.00001138,-0.00003685,0.00001561,0.00000087,0.00116923,0
 .00041339,-0.00000788,-0.00046062,0.00021893,0.00000964,-0.17849626,-0
 .03958596,0.00073680,0.00006037,-0.00001353,-0.00000096,0.00005117,0.0
 0002699,-0.00000022,0.00002380,-0.00007020,-0.00001575,0.00002409,-0.0
 0007061,0.00001269,0.47258504,0.00385092,-0.00328212,-0.00016374,0.019
 98729,0.01384072,0.00010615,0.00730911,-0.00215536,-0.00010363,0.00055
 445,0.00068780,-0.00002409,0.00201920,-0.00021036,-0.00002804,-0.00138
 012,0.00013301,0.00001077,-0.00018900,-0.00053736,0.00000078,0.0002189
 7,-0.00004176,-0.00000443,0.00040729,0.00007075,-0.00000611,-0.0015961
 2,0.00100564,0.00004558,0.00014029,-0.00011438,-0.00000356,-0.00030404
 ,-0.00021445,-0.00000035,0.00012762,0.00015591,0.00000233,-0.00018024,
 0.00007362,0.00000211,0.00018743,0.00017015,-0.00000054,0.00036343,-0.
 00080097,-0.00001913,0.00012630,-0.00010255,-0.00000412,-0.00002842,-0
 .00000638,0.00000022,0.00005174,0.00020417,0.00001377,-0.00001628,0.00
 000906,0.00000024,0.00043275,0.00014493,-0.00000303,-0.00016908,0.0000
 8509,0.00000338,-0.06930569,-0.11708663,-0.00023130,0.00002342,-0.0000
 0442,-0.00000043,0.00001886,0.00000969,0.,0.00000852,-0.00002612,-0.00
 000620,0.00000863,-0.00002636,0.00000514,-0.07107383,0.58143546,0.0000
 4639,-0.00015967,0.00305079,0.00096538,0.00034256,-0.00504876,0.000032
 50,0.00001987,-0.00131397,0.00005927,-0.00002232,0.00151538,-0.0000191
 1,0.00002671,-0.00012124,0.00002045,0.00001114,0.00049378,0.00000662,-
 0.00000050,-0.00045154,0.00000176,0.00000346,0.00004459,-0.00000364,-0
 .00000376,0.00012318,0.00002043,-0.00000519,-0.00041997,-0.00000202,0.
 00000003,0.00000509,0.00000577,0.00000234,0.00003571,-0.00000220,-0.00
 000090,-0.00007492,0.00000312,-0.00000243,0.00008719,-0.00000475,-0.00
 000281,0.00006081,-0.00000640,0.00001059,0.00002516,-0.00000273,0.0000
 0053,0.00004371,0.00000068,-0.00000004,0.00000277,-0.00000400,0.000018
 27,-0.00060046,0.00000024,-0.00000016,0.00000761,-0.00000670,-0.000002
 51,-0.00000044,0.00000275,-0.00000133,0.00000943,0.00015609,-0.0005961
 3,-0.05867321,-0.00000029,0.00000003,0.00000334,-0.00000035,-0.0000000
 5,-0.00000467,-0.00000044,-0.00000133,-0.00000167,0.00000013,0.0000021
 8,-0.00000177,-0.00018052,0.00112616,0.56672587,0.00121625,0.00027273,
 0.00006051,0.00219002,0.00021194,0.00002051,-0.27378339,-0.11984948,0.
 00105121,0.00037837,0.00071732,0.00000161,-0.00241781,0.00391324,0.000
 19443,-0.01946428,-0.01396718,0.00004526,-0.00011452,0.00001911,-0.000
 01083,0.00006070,0.00007334,0.00000225,-0.00036418,0.00034507,0.000006
 14,-0.00028879,-0.00162033,-0.00001705,-0.00008002,0.00000020,0.000001
 04,0.00012891,0.00005699,-0.00000082,-0.00005269,-0.00000952,0.0000009
 6,-0.00004049,-0.00014016,-0.00000365,0.00000305,-0.00007772,0.0000009
 2,0.00003506,0.00045660,0.00000857,0.00113042,0.00007814,-0.00007017,0
 .00001783,0.00000584,-0.00000020,0.00003017,0.00022827,-0.00000115,-0.
 00000693,-0.00000319,-0.00000002,-0.00015924,-0.00005931,0.00000099,0.
 00005890,-0.00002919,-0.00000120,-0.00079484,-0.00075486,-0.00003306,-
 0.00002130,-0.00000546,0.00000066,-0.00000629,-0.00000375,0.00000002,-
 0.00000372,0.00000921,0.00000162,-0.00000374,0.00000928,-0.00000125,-0
 .00163167,0.00198728,0.00005074,0.29520407,0.00089492,-0.00600608,-0.0
 0021311,-0.02940532,-0.00724974,0.00019932,-0.11900684,-0.12451093,-0.
 00004068,0.00097804,-0.00103032,-0.00002222,0.00345087,-0.00110571,-0.
 00019053,0.01650115,0.01193898,-0.00005313,0.00012344,-0.00018349,0.00
 001216,-0.00008182,-0.00003739,-0.00000200,0.00023755,-0.00023404,-0.0
 0000102,0.00062369,0.00091861,-0.00000210,-0.00003167,0.00003915,0.000
 00119,0.00003442,-0.00002976,-0.00000087,0.00003050,0.00001257,-0.0000
 0077,0.00001320,0.00007812,0.00000352,-0.00024909,0.00012803,0.0000023
 3,-0.00017866,-0.00015023,-0.00000175,-0.00041977,0.00085584,0.0000965
 1,-0.00000188,-0.00000142,0.00000010,-0.00133970,-0.00030236,0.0000185
 4,0.00001615,-0.00000004,-0.00000015,-0.00001919,0.00000497,0.00000039
 ,0.00000774,-0.00000299,-0.00000020,0.00084964,0.00189313,0.00006232,0
 .00000797,0.00000638,-0.00000063,-0.00000168,-0.00000031,0.,-0.0000008
 8,0.00000093,0.00000025,-0.00000091,0.00000092,-0.00000015,-0.00057530
 ,-0.00126850,-0.00001067,0.12579424,0.12612441,0.00007215,-0.00020503,
 0.00548768,-0.00050185,-0.00018695,0.00330807,0.00106543,-0.00003216,-
 0.03315369,0.00000612,-0.00001935,-0.00045914,0.00018560,-0.00019654,0
 .00723189,0.00057847,0.00034392,0.00267590,-0.00000919,0.00001363,-0.0
 0097139,-0.00000042,-0.00000406,0.00013824,0.00000442,-0.00000252,-0.0
 0034918,0.00002214,0.00002705,0.00057580,0.00000046,0.00000070,-0.0000
 0210,-0.00000119,-0.00000109,-0.00000919,0.00000163,-0.00000026,0.0000
 3422,-0.00000092,0.00000552,-0.00013350,-0.00000192,0.00000014,0.00018
 084,-0.00000252,-0.00000998,0.00008408,-0.00007916,0.00009047,-0.00436
 941,-0.00000033,0.,-0.00000572,-0.00002893,-0.00000175,-0.00038143,0.0
 0000032,0.00000011,-0.00000361,0.00000170,0.00000090,-0.00000307,-0.00
 000058,0.00000026,0.00000335,-0.00000478,0.00008491,-0.00231172,0.0000
 0089,-0.00000047,0.00003667,0.00000005,0.00000004,0.00000026,-0.000000
 42,-0.00000070,-0.00000131,0.00000044,0.00000053,-0.00000127,0.0000092
 0,-0.00004345,-0.00018689,-0.00135913,0.00015253,0.02318674,-0.0012691
 4,0.00119920,0.00004066,-0.00204450,-0.00447877,-0.00005846,-0.0002477
 5,-0.00081826,-0.00000722,-0.00021578,-0.00058393,-0.00000814,-0.00020
 254,0.00017415,0.00000421,0.00017877,0.00029810,0.00000579,0.00013916,
 0.00026428,0.00000250,-0.00006931,-0.00001027,0.00000098,-0.00008614,-
 0.00003282,0.00000051,0.00040070,-0.00018622,-0.00000782,-0.00005137,0
 .00004164,0.00000131,0.00009510,0.00005017,-0.00000028,-0.00002689,-0.
 00003386,0.00000011,0.00003374,-0.00001394,-0.00000121,-0.00008535,-0.
 00014160,-0.00000150,-0.00010972,0.00018331,0.00000457,-0.00005089,0.0
 0002045,0.00000151,0.00000810,0.00000196,-0.00000007,0.00000881,-0.000
 01063,-0.00000053,0.00000591,-0.00000205,-0.00000008,-0.00012554,-0.00
 004293,0.00000085,0.00004665,-0.00002223,-0.00000102,-0.03725111,0.022
 58283,0.00085448,-0.00000575,0.00000218,0.00000011,-0.00000591,-0.0000
 0265,0.00000005,-0.00000269,0.00000735,0.00000118,-0.00000268,0.000007
 39,-0.00000087,-0.14403062,0.12680679,0.00331917,0.00043154,0.00019214
 ,-0.00000738,0.17520999,-0.00063357,0.00057387,0.00001313,-0.00321566,
 -0.00058896,0.00001600,-0.00043309,-0.00094598,-0.00001366,0.00009839,
 -0.00025267,-0.00000236,0.00018780,-0.00000402,-0.00000089,0.00009480,
 0.00040265,0.00000256,-0.00020989,-0.00002604,0.00000258,0.00001669,-0
 .00004033,-0.00000136,0.00006913,-0.00000189,-0.00000095,-0.00009274,0
 .00009258,0.00000161,0.00000947,-0.00000810,-0.00000014,-0.00005600,-0
 .00004293,-0.00000008,0.00002026,0.00002160,-0.00000046,-0.00001644,0.
 00001602,0.00000144,0.00006362,0.00006496,0.00000058,0.00004542,-0.000
 03361,-0.00000111,-0.00004423,0.00001801,0.00000023,-0.00000408,-0.000
 00112,0.00000003,0.00001614,-0.00001904,-0.00000103,-0.00000333,0.0000
 0094,0.,0.00007432,0.00002567,-0.00000048,-0.00003036,0.00001418,0.000
 00070,-0.01584196,0.01439593,0.00043377,0.00000425,-0.00000085,-0.0000
 0008,0.00000336,0.00000192,-0.00000004,0.00000139,-0.00000460,-0.00000
 080,0.00000136,-0.00000463,0.00000062,0.14056949,-0.22299885,-0.004681
 81,0.00061302,0.00046288,0.00000723,-0.14010087,0.23219304,0.00000659,
 -0.00000966,0.00030593,-0.00002153,0.00003170,0.00061344,0.00000006,-0
 .00001123,0.00022864,0.00000283,0.00000436,-0.00015755,0.00000497,0.00
 000038,-0.00010348,0.00000128,-0.00000029,0.00022529,-0.00000575,-0.00
 000336,-0.00002089,0.00000147,-0.00000107,0.00002524,0.00000229,0.0000
 0038,-0.00000136,-0.00000577,0.00000294,0.00005793,0.00000065,-0.00000
 051,-0.00000718,-0.00000205,-0.00000150,0.00000538,0.00000112,0.000000
 29,0.00003140,-0.00000139,0.00000132,-0.00005007,0.00000198,0.00000317
 ,-0.00001459,0.00000208,-0.00000276,-0.00000346,0.00000031,-0.00000060
 ,0.00003853,-0.00000016,-0.00000005,0.00000048,0.00000040,-0.00000046,
 0.00001436,-0.00000009,-0.00000001,0.00000311,0.00000282,0.00000100,-0
 .00000149,-0.00000116,0.00000061,-0.00000465,0.00016427,-0.00002001,0.
 00036100,0.00000015,-0.00000004,0.00000026,0.00000015,0.00000003,0.000
 00195,-0.00000110,-0.00000045,-0.00000054,0.00000120,0.00000013,-0.000
 00050,0.00356272,-0.00451749,-0.05092529,0.00000060,0.00001298,-0.0004
 4433,-0.00397531,0.00490435,0.04688166,-0.00201868,0.00013458,-0.00068
 186,0.00610325,-0.00466945,0.00171716,0.00062091,0.00092087,-0.0000624
 4,0.00064572,-0.00088147,-0.00038385,0.00004776,0.00089338,0.00015277,
 -0.00067705,0.00016652,-0.00055089,0.00004939,-0.00003913,0.00005980,-
 0.00000284,0.00000218,-0.00002827,-0.00003950,-0.00001971,-0.00003301,
 0.00038739,-0.00017826,0.00012887,-0.00005472,0.00001601,0.00006029,0.
 00007126,0.00000764,-0.00002999,-0.00000270,-0.00000918,0.00000758,0.0
 0000313,-0.00000492,-0.00000054,-0.00008100,-0.00001438,-0.00002328,-0
 .00010167,0.00020631,-0.00001803,-0.00003609,0.00001932,0.00003622,0.0
 0000830,0.00000074,0.00000058,0.00014698,0.00010218,0.00017410,0.00000
 308,-0.00000147,-0.00000028,-0.00007889,-0.00002571,0.00000028,0.00002
 904,-0.00001356,-0.00000074,-0.02145140,-0.02419263,0.02709661,-0.0000
 0444,0.00000139,-0.00000031,-0.00000350,-0.00000145,-0.00000110,0.0000
 0052,0.00000445,0.00000148,-0.00000479,0.00000451,-0.00000040,-0.05156
 712,-0.00918105,0.01624748,-0.00082069,0.00075273,0.00107427,0.0044538
 8,0.00967783,-0.01666623,0.06187437,-0.00062221,0.00005186,-0.00004685
 ,0.00298341,-0.00117587,-0.00074262,-0.00076769,0.00054755,-0.00021174
 ,0.00010216,0.00003583,-0.00009646,-0.00079111,0.00010293,0.00006224,0
 .00063111,-0.00002497,0.00028783,0.00014814,0.00010931,0.00003824,-0.0
 0004887,0.00004179,0.00000853,-0.00015799,-0.00002784,0.00000962,0.000
 59269,-0.00035161,-0.00007767,-0.00005156,0.00003116,-0.00001211,0.000
 12188,0.00008764,0.00000607,-0.00004752,-0.00006330,-0.00000530,0.0000
 6792,-0.00002870,0.00000269,-0.00009370,-0.00007594,-0.00001856,-0.000
 14577,0.00027009,0.00000614,-0.00002561,0.00002644,-0.00003481,0.00001
 281,0.00000202,0.00000216,0.00008536,0.00005610,0.00008370,0.00000444,
 -0.00000263,0.00000149,-0.00016877,-0.00006070,-0.00000088,0.00006562,
 -0.00003159,0.00000045,-0.01348812,-0.00901952,0.00908645,-0.00000878,
 0.00000164,0.00000082,-0.00000749,-0.00000383,0.00000043,-0.00000364,0
 .00000977,0.00000164,-0.00000314,0.00001063,-0.00000209,-0.01274356,-0
 .12857729,0.11527990,0.00086215,-0.00015336,-0.00068070,-0.00240984,-0
 .01200443,0.02083064,0.02285111,0.13940768,0.00062231,-0.00020640,-0.0
 0024821,-0.00170118,0.00130694,0.00071124,0.00088842,0.00076938,0.0000
 1385,-0.00032197,0.00010838,-0.00000880,0.00027635,-0.00008137,-0.0000
 4160,-0.00050100,-0.00034967,-0.00008221,0.00010659,0.00006218,0.00002
 143,-0.00000122,-0.00000513,-0.00000773,0.00001729,0.00001955,-0.00000
 792,-0.00026960,0.00013446,0.00004202,0.00001592,-0.00000382,0.0000048
 4,-0.00001989,-0.00001066,-0.00000320,0.00000654,0.00001529,0.00000398
 ,-0.00002336,0.00000062,-0.00000166,-0.00001216,-0.00006919,0.00000166
 ,0.00003098,-0.00014595,0.00000044,0.00005492,-0.00002216,0.00000645,-
 0.00000308,0.00000069,-0.00000161,-0.00008101,-0.00003586,-0.00000155,
 0.00000005,0.00000048,-0.00000179,0.00002948,0.00000883,0.00000107,-0.
 00001286,0.00000658,-0.00000141,0.00596599,-0.00125934,0.00692157,0.00
 000129,-0.00000030,-0.00000129,0.00000099,0.00000057,-0.00000050,0.000
 00120,-0.00000142,-0.00000047,0.00000035,-0.00000221,0.00000121,0.0208
 1990,0.11602803,-0.22368035,-0.00028045,-0.00069893,-0.00011010,-0.001
 06986,-0.00166098,0.00202386,-0.02619746,-0.12935441,0.23478058,-0.002
 01607,0.00011171,0.00073199,0.00610174,-0.00463450,-0.00202818,0.00060
 272,0.00090012,0.00008171,0.00066504,-0.00089803,0.00033567,0.00003895
 ,0.00090193,-0.00012351,-0.00065400,0.00015546,0.00057224,0.00004499,-
 0.00003885,-0.00006115,-0.00000187,0.00000138,0.00002805,-0.00003885,-
 0.00002127,0.00003292,0.00039000,-0.00017634,-0.00014416,-0.00005664,0
 .00001807,-0.00005861,0.00007246,0.00000677,0.00002858,-0.00000301,-0.
 00000915,-0.00000788,0.00000363,-0.00000502,0.00000045,-0.00007984,-0.
 00001350,0.00002494,-0.00010176,0.00020873,0.00002800,-0.00003828,0.00
 002104,-0.00003449,0.00000835,0.00000074,-0.00000081,0.00014399,0.0001
 0887,-0.00017408,0.00000310,-0.00000148,0.00000010,-0.00007940,-0.0000
 2588,0.00000090,0.00002928,-0.00001373,-0.00000049,-0.02223080,-0.0232
 0768,-0.02724073,-0.00000446,0.00000139,0.00000044,-0.00000349,-0.0000
 0150,0.00000113,-0.00000479,0.00000453,0.00000069,0.00000047,0.0000045
 1,-0.00000134,-0.05254184,-0.01120644,-0.02070582,-0.00083070,0.000804
 34,-0.00102460,0.00487135,0.00911551,0.01692259,0.00250013,0.00305658,
 0.00165653,0.06320961,-0.00059771,0.00004168,0.00007385,0.00294121,-0.
 00114825,0.00060758,-0.00072881,0.00056634,0.00024842,0.00009351,0.000
 03667,0.00009540,-0.00078263,0.00010164,-0.00003686,0.00060614,-0.0000
 2777,-0.00030076,0.00015056,0.00011275,-0.00003877,-0.00004900,0.00004
 182,-0.00000546,-0.00015752,-0.00002683,-0.00000620,0.00058451,-0.0003
 4890,0.00004874,-0.00005063,0.00003051,0.00001402,0.00012092,0.0000874
 0,-0.00000598,-0.00004714,-0.00006289,0.00000412,0.00006698,-0.0000285
 4,-0.00000529,-0.00009351,-0.00007897,0.00001818,-0.00014459,0.0002647
 3,0.00000683,-0.00002271,0.00002441,0.00003586,0.00001264,0.00000212,-
 0.00000236,0.00008016,0.00005757,-0.00008351,0.00000438,-0.00000255,-0
 .00000164,-0.00016753,-0.00006042,0.00000306,0.00006505,-0.00003126,-0
 .00000309,-0.01349006,-0.00874637,-0.00934480,-0.00000874,0.00000164,-
 0.00000049,-0.00000746,-0.00000379,-0.00000036,-0.00000309,0.00001047,
 0.00000248,-0.00000362,0.00000975,-0.00000120,-0.01459873,-0.12057212,
 -0.11135217,0.00086618,-0.00019824,0.00065707,-0.00294106,-0.01130618,
 -0.02122478,0.00347061,0.01080915,0.01544582,0.02483169,0.13044441,-0.
 00060427,0.00021386,-0.00023970,0.00167957,-0.00126350,0.00069646,-0.0
 0092847,-0.00076838,0.00001676,0.00031036,-0.00008556,-0.00002635,-0.0
 0030731,0.00006555,-0.00003008,0.00053635,0.00034716,-0.00010687,-0.00
 010235,-0.00005817,0.00002195,-0.00000056,0.00000685,-0.00000844,-0.00
 002227,-0.00001972,-0.00000906,0.00028277,-0.00014445,0.00003535,-0.00
 001630,0.00000428,0.00000745,0.00002238,0.00001373,-0.00000429,-0.0000
 0805,-0.00001749,0.00000401,0.00002567,-0.00000145,-0.00000257,0.00001
 094,0.00006674,0.00000377,-0.00003370,0.00015065,0.00000591,-0.0000546
 2,0.00002233,0.00001088,0.00000331,-0.00000058,-0.00000177,0.00008042,
 0.00003540,-0.00000120,-0.00000003,-0.00000047,-0.00000186,-0.00003353
 ,-0.00001044,0.00000161,0.00001444,-0.00000730,-0.00000208,-0.00575156
 ,0.00124655,0.00741054,-0.00000153,0.00000037,-0.00000128,-0.00000119,
 -0.00000065,-0.00000053,-0.00000032,0.00000244,0.00000137,-0.00000135,
 0.00000167,-0.00000041,-0.02541159,-0.11218503,-0.23072926,0.00033095,
 0.00067678,-0.00004667,0.00090172,0.00098139,0.00091691,-0.00207879,-0
 .01442485,-0.02033379,0.03115893,0.12515230,0.24241325\\0.00001278,0.0
 0000544,-0.00000181,0.00000917,0.00000361,-0.00001017,-0.00000992,0.00
 002233,0.00000274,-0.00000596,-0.00000015,0.00001694,-0.00000765,0.000
 00514,0.00000921,-0.00000026,-0.00001187,-0.00000086,-0.00000122,-0.00
 000981,-0.00005388,0.00000632,-0.00000085,0.00001601,0.00000867,0.0000
 0432,0.00000946,0.00000024,0.00001365,-0.00002469,-0.00001211,0.000006
 58,0.00000207,-0.00000838,0.00000404,0.00000535,0.00001266,0.00002224,
 -0.00000162,-0.00000058,-0.00001102,-0.00000058,0.00000105,0.00002244,
 0.00002048,-0.00000130,-0.00003403,0.00000978,-0.00000313,0.00001934,0
 .00000059,0.00000511,0.00001884,0.00000052,-0.00000351,-0.00001237,-0.
 00000088,0.00000226,-0.00001240,-0.00000044,0.00001156,-0.00000961,-0.
 00001038,-0.00001825,-0.00002698,0.00000547,-0.00001281,-0.00000916,0.
 00001490,0.00001330,-0.00000233,-0.00000003,-0.00000700,0.00000728,0.0
 0000092,-0.00000444,0.00000304,0.00000025,-0.00000589,0.00000178,-0.00
 000119,0.00001473,-0.00002751,-0.00000934,-0.00001309,-0.00000175,0.00
 000077,0.00000726,0.00000613,-0.00000148,0.00000418,0.00000328,0.00000
 017,0.00000623,0.00000038,0.00000174\\\@


 A BIRD IN THE HAND IS SAFER THAN ONE OVERHEAD.

                       -- NEWTON'S SEVENTH LAW
 Job cpu time:       0 days  6 hours 43 minutes 33.0 seconds.
 Elapsed time:       0 days  0 hours 50 minutes 40.4 seconds.
 File lengths (MBytes):  RWF=   1646 Int=      0 D2E=      0 Chk=     31 Scr=      1
 Normal termination of Gaussian 16 at Wed Dec 27 20:47:51 2023.
