 Entering Gaussian System, Link 0=g16
 Input=085.com
 Output=085.log
 Initial command:
 /sysapps/ubuntu-applications/gaussian/Gaussian/AVX2/g16/l1.exe "/scratch/selhajj1/4406519/Gau-3694851.inp" -scrdir="/scratch/selhajj1/4406519/"
 Entering Link 1 = /sysapps/ubuntu-applications/gaussian/Gaussian/AVX2/g16/l1.exe PID=   3694853.
  
 Copyright (c) 1988,1990,1992,1993,1995,1998,2003,2009,2016,
            Gaussian, Inc.  All Rights Reserved.
  
 This is part of the Gaussian(R) 16 program.  It is based on
 the Gaussian(R) 09 system (copyright 2009, Gaussian, Inc.),
 the Gaussian(R) 03 system (copyright 2003, Gaussian, Inc.),
 the Gaussian(R) 98 system (copyright 1998, Gaussian, Inc.),
 the Gaussian(R) 94 system (copyright 1995, Gaussian, Inc.),
 the Gaussian 92(TM) system (copyright 1992, Gaussian, Inc.),
 the Gaussian 90(TM) system (copyright 1990, Gaussian, Inc.),
 the Gaussian 88(TM) system (copyright 1988, Gaussian, Inc.),
 the Gaussian 86(TM) system (copyright 1986, Carnegie Mellon
 University), and the Gaussian 82(TM) system (copyright 1983,
 Carnegie Mellon University). Gaussian is a federally registered
 trademark of Gaussian, Inc.
  
 This software contains proprietary and confidential information,
 including trade secrets, belonging to Gaussian, Inc.
  
 This software is provided under written license and may be
 used, copied, transmitted, or stored only in accord with that
 written license.
  
 The following legend is applicable only to US Government
 contracts under FAR:
  
                    RESTRICTED RIGHTS LEGEND
  
 Use, reproduction and disclosure by the US Government is
 subject to restrictions as set forth in subparagraphs (a)
 and (c) of the Commercial Computer Software - Restricted
 Rights clause in FAR 52.227-19.
  
 Gaussian, Inc.
 340 Quinnipiac St., Bldg. 40, Wallingford CT 06492
  
  
 ---------------------------------------------------------------
 Warning -- This program may not be used in any manner that
 competes with the business of Gaussian, Inc. or will provide
 assistance to any competitor of Gaussian, Inc.  The licensee
 of this program is prohibited from giving any competitor of
 Gaussian, Inc. access to this program.  By using this program,
 the user acknowledges that Gaussian, Inc. is engaged in the
 business of creating and licensing software in the field of
 computational chemistry and represents and warrants to the
 licensee that it is not a competitor of Gaussian, Inc. and that
 it will not use this program in any manner prohibited above.
 ---------------------------------------------------------------
  

 Cite this work as:
 Gaussian 16, Revision A.03,
 M. J. Frisch, G. W. Trucks, H. B. Schlegel, G. E. Scuseria, 
 M. A. Robb, J. R. Cheeseman, G. Scalmani, V. Barone, 
 G. A. Petersson, H. Nakatsuji, X. Li, M. Caricato, A. V. Marenich, 
 J. Bloino, B. G. Janesko, R. Gomperts, B. Mennucci, H. P. Hratchian, 
 J. V. Ortiz, A. F. Izmaylov, J. L. Sonnenberg, D. Williams-Young, 
 F. Ding, F. Lipparini, F. Egidi, J. Goings, B. Peng, A. Petrone, 
 T. Henderson, D. Ranasinghe, V. G. Zakrzewski, J. Gao, N. Rega, 
 G. Zheng, W. Liang, M. Hada, M. Ehara, K. Toyota, R. Fukuda, 
 J. Hasegawa, M. Ishida, T. Nakajima, Y. Honda, O. Kitao, H. Nakai, 
 T. Vreven, K. Throssell, J. A. Montgomery, Jr., J. E. Peralta, 
 F. Ogliaro, M. J. Bearpark, J. J. Heyd, E. N. Brothers, K. N. Kudin, 
 V. N. Staroverov, T. A. Keith, R. Kobayashi, J. Normand, 
 K. Raghavachari, A. P. Rendell, J. C. Burant, S. S. Iyengar, 
 J. Tomasi, M. Cossi, J. M. Millam, M. Klene, C. Adamo, R. Cammi, 
 J. W. Ochterski, R. L. Martin, K. Morokuma, O. Farkas, 
 J. B. Foresman, and D. J. Fox, Gaussian, Inc., Wallingford CT, 2016.
 
 ******************************************
 Gaussian 16:  ES64L-G16RevA.03 25-Dec-2016
                10-Feb-2024 
 ******************************************
 %chk=085.chk
 %nproc=8
 Will use up to    8 processors via shared memory.
 %mem=30GB
 ----------------------------------------------------------------------
 #P UB3LYP/6-311++G(d,p) nosym opt freq SCRF=(PCM,Solvent=n,n-DiMethylF
 ormamide)
 ----------------------------------------------------------------------
 1/18=20,19=15,26=3,38=1/1,3;
 2/9=110,12=2,15=1,17=6,18=5,40=1/2;
 3/5=4,6=6,7=1111,11=2,25=1,30=1,70=2201,71=1,72=148,74=-5,116=2/1,2,3;
 4//1;
 5/5=2,38=5,53=148/2;
 6/7=2,8=2,9=2,10=2,28=1/1;
 7/30=1/1,2,3,16;
 1/18=20,19=15,26=3/3(2);
 2/9=110,15=1/2;
 99//99;
 2/9=110,15=1/2;
 3/5=4,6=6,7=1111,11=2,25=1,30=1,70=2205,71=1,72=148,74=-5,116=2/1,2,3;
 4/5=5,16=3,69=1/1;
 5/5=2,38=5,53=148/2;
 7/30=1/1,2,3,16;
 1/18=20,19=15,26=3/3(-5);
 2/9=110,15=1/2;
 6/7=2,8=2,9=2,10=2,19=2,28=1/1;
 99/9=1/99;
 Leave Link    1 at Sat Feb 10 10:26:01 2024, MaxMem=  4026531840 cpu:               1.0 elap:               0.2
 (Enter /sysapps/ubuntu-applications/gaussian/Gaussian/AVX2/g16/l101.exe)
 --------
 Oxidized
 --------
 Symbolic Z-matrix:
 Charge =  0 Multiplicity = 1
 C                    -3.57423   0.69143  -0.14892 
 O                    -2.79224  -0.49982  -0.03527 
 C                    -1.47098  -0.38715   0.06143 
 C                    -0.75645   0.7618    0.06455 
 C                     0.69672   0.76795   0.19868 
 O                     1.32618   1.81454   0.26307 
 C                     1.39939  -0.57316   0.27055 
 C                     0.67446  -1.71644   0.27815 
 C                    -0.77755  -1.73311   0.17693 
 O                    -1.42834  -2.76249   0.17345 
 O                     2.72864  -0.67352   0.3916 
 C                     3.65872   0.39681   0.12303 
 H                    -4.60719   0.35817  -0.21498 
 H                    -3.30296   1.24739  -1.05092 
 H                    -3.44223   1.32581   0.73221 
 H                    -1.20938   1.74154  -0.0049 
 H                     1.167    -2.67794   0.3522 
 H                     3.45666   0.86193  -0.84156 
 H                     3.62425   1.15236   0.90508 
 H                     4.62953  -0.0961    0.10742 
 
 ITRead=  0  0  0  0  0  0  0  0  0  0  0  0  0  0  0  0  0  0  0  0
 MicOpt= -1 -1 -1 -1 -1 -1 -1 -1 -1 -1 -1 -1 -1 -1 -1 -1 -1 -1 -1 -1
 NAtoms=     20 NQM=       20 NQMF=       0 NMMI=      0 NMMIF=      0
                NMic=       0 NMicF=      0.
                    Isotopes and Nuclear Properties:
 (Nuclear quadrupole moments (NQMom) in fm**2, nuclear magnetic moments (NMagM)
  in nuclear magnetons)

  Atom         1           2           3           4           5           6           7           8           9          10
 IAtWgt=          12          16          12          12          12          16          12          12          12          16
 AtmWgt=  12.0000000  15.9949146  12.0000000  12.0000000  12.0000000  15.9949146  12.0000000  12.0000000  12.0000000  15.9949146
 NucSpn=           0           0           0           0           0           0           0           0           0           0
 AtZEff=  -0.0000000  -0.0000000  -0.0000000  -0.0000000  -0.0000000  -0.0000000  -0.0000000  -0.0000000  -0.0000000  -0.0000000
 NQMom=    0.0000000   0.0000000   0.0000000   0.0000000   0.0000000   0.0000000   0.0000000   0.0000000   0.0000000   0.0000000
 NMagM=    0.0000000   0.0000000   0.0000000   0.0000000   0.0000000   0.0000000   0.0000000   0.0000000   0.0000000   0.0000000
 AtZNuc=   6.0000000   8.0000000   6.0000000   6.0000000   6.0000000   8.0000000   6.0000000   6.0000000   6.0000000   8.0000000

  Atom        11          12          13          14          15          16          17          18          19          20
 IAtWgt=          16          12           1           1           1           1           1           1           1           1
 AtmWgt=  15.9949146  12.0000000   1.0078250   1.0078250   1.0078250   1.0078250   1.0078250   1.0078250   1.0078250   1.0078250
 NucSpn=           0           0           1           1           1           1           1           1           1           1
 AtZEff=  -0.0000000  -0.0000000  -0.0000000  -0.0000000  -0.0000000  -0.0000000  -0.0000000  -0.0000000  -0.0000000  -0.0000000
 NQMom=    0.0000000   0.0000000   0.0000000   0.0000000   0.0000000   0.0000000   0.0000000   0.0000000   0.0000000   0.0000000
 NMagM=    0.0000000   0.0000000   2.7928460   2.7928460   2.7928460   2.7928460   2.7928460   2.7928460   2.7928460   2.7928460
 AtZNuc=   8.0000000   6.0000000   1.0000000   1.0000000   1.0000000   1.0000000   1.0000000   1.0000000   1.0000000   1.0000000
 Leave Link  101 at Sat Feb 10 10:26:02 2024, MaxMem=  4026531840 cpu:               3.3 elap:               0.5
 (Enter /sysapps/ubuntu-applications/gaussian/Gaussian/AVX2/g16/l103.exe)

 GradGradGradGradGradGradGradGradGradGradGradGradGradGradGradGradGradGrad
 Berny optimization.
 Initialization pass.
                           ----------------------------
                           !    Initial Parameters    !
                           ! (Angstroms and Degrees)  !
 --------------------------                            --------------------------
 ! Name  Definition              Value          Derivative Info.                !
 --------------------------------------------------------------------------------
 ! R1    R(1,2)                  1.4295         estimate D2E/DX2                !
 ! R2    R(1,13)                 1.0874         estimate D2E/DX2                !
 ! R3    R(1,14)                 1.0937         estimate D2E/DX2                !
 ! R4    R(1,15)                 1.0937         estimate D2E/DX2                !
 ! R5    R(2,3)                  1.3296         estimate D2E/DX2                !
 ! R6    R(3,4)                  1.353          estimate D2E/DX2                !
 ! R7    R(3,9)                  1.5185         estimate D2E/DX2                !
 ! R8    R(4,5)                  1.4594         estimate D2E/DX2                !
 ! R9    R(4,16)                 1.0816         estimate D2E/DX2                !
 ! R10   R(5,6)                  1.223          estimate D2E/DX2                !
 ! R11   R(5,7)                  1.5158         estimate D2E/DX2                !
 ! R12   R(7,8)                  1.3538         estimate D2E/DX2                !
 ! R13   R(7,11)                 1.3385         estimate D2E/DX2                !
 ! R14   R(8,9)                  1.4556         estimate D2E/DX2                !
 ! R15   R(8,17)                 1.0829         estimate D2E/DX2                !
 ! R16   R(9,10)                 1.2179         estimate D2E/DX2                !
 ! R17   R(11,12)                1.4432         estimate D2E/DX2                !
 ! R18   R(12,18)                1.0898         estimate D2E/DX2                !
 ! R19   R(12,19)                1.088          estimate D2E/DX2                !
 ! R20   R(12,20)                1.0889         estimate D2E/DX2                !
 ! A1    A(2,1,13)             105.6098         estimate D2E/DX2                !
 ! A2    A(2,1,14)             110.7001         estimate D2E/DX2                !
 ! A3    A(2,1,15)             110.6871         estimate D2E/DX2                !
 ! A4    A(13,1,14)            109.9556         estimate D2E/DX2                !
 ! A5    A(13,1,15)            109.9587         estimate D2E/DX2                !
 ! A6    A(14,1,15)            109.8543         estimate D2E/DX2                !
 ! A7    A(1,2,3)              118.6057         estimate D2E/DX2                !
 ! A8    A(2,3,4)              126.65           estimate D2E/DX2                !
 ! A9    A(2,3,9)              112.5956         estimate D2E/DX2                !
 ! A10   A(4,3,9)              120.7543         estimate D2E/DX2                !
 ! A11   A(3,4,5)              121.9822         estimate D2E/DX2                !
 ! A12   A(3,4,16)             123.2243         estimate D2E/DX2                !
 ! A13   A(5,4,16)             114.775          estimate D2E/DX2                !
 ! A14   A(4,5,6)              121.3961         estimate D2E/DX2                !
 ! A15   A(4,5,7)              117.5318         estimate D2E/DX2                !
 ! A16   A(6,5,7)              121.069          estimate D2E/DX2                !
 ! A17   A(5,7,8)              119.9495         estimate D2E/DX2                !
 ! A18   A(5,7,11)             122.0729         estimate D2E/DX2                !
 ! A19   A(8,7,11)             117.9021         estimate D2E/DX2                !
 ! A20   A(7,8,9)              122.9189         estimate D2E/DX2                !
 ! A21   A(7,8,17)             120.4435         estimate D2E/DX2                !
 ! A22   A(9,8,17)             116.635          estimate D2E/DX2                !
 ! A23   A(3,9,8)              116.7861         estimate D2E/DX2                !
 ! A24   A(3,9,10)             120.3285         estimate D2E/DX2                !
 ! A25   A(8,9,10)             122.8836         estimate D2E/DX2                !
 ! A26   A(7,11,12)            124.5802         estimate D2E/DX2                !
 ! A27   A(11,12,18)           111.2087         estimate D2E/DX2                !
 ! A28   A(11,12,19)           111.1531         estimate D2E/DX2                !
 ! A29   A(11,12,20)           103.976          estimate D2E/DX2                !
 ! A30   A(18,12,19)           109.5103         estimate D2E/DX2                !
 ! A31   A(18,12,20)           110.2324         estimate D2E/DX2                !
 ! A32   A(19,12,20)           110.666          estimate D2E/DX2                !
 ! D1    D(13,1,2,3)           179.9208         estimate D2E/DX2                !
 ! D2    D(14,1,2,3)            60.9482         estimate D2E/DX2                !
 ! D3    D(15,1,2,3)           -61.1099         estimate D2E/DX2                !
 ! D4    D(1,2,3,4)             -0.0196         estimate D2E/DX2                !
 ! D5    D(1,2,3,9)            179.9298         estimate D2E/DX2                !
 ! D6    D(2,3,4,5)            178.9648         estimate D2E/DX2                !
 ! D7    D(2,3,4,16)             0.6133         estimate D2E/DX2                !
 ! D8    D(9,3,4,5)             -0.9809         estimate D2E/DX2                !
 ! D9    D(9,3,4,16)          -179.3324         estimate D2E/DX2                !
 ! D10   D(2,3,9,8)            179.5613         estimate D2E/DX2                !
 ! D11   D(2,3,9,10)             0.0398         estimate D2E/DX2                !
 ! D12   D(4,3,9,8)             -0.4859         estimate D2E/DX2                !
 ! D13   D(4,3,9,10)           179.9926         estimate D2E/DX2                !
 ! D14   D(3,4,5,6)           -176.5309         estimate D2E/DX2                !
 ! D15   D(3,4,5,7)              2.8275         estimate D2E/DX2                !
 ! D16   D(16,4,5,6)             1.9504         estimate D2E/DX2                !
 ! D17   D(16,4,5,7)          -178.6912         estimate D2E/DX2                !
 ! D18   D(4,5,7,8)             -3.3367         estimate D2E/DX2                !
 ! D19   D(4,5,7,11)           179.8896         estimate D2E/DX2                !
 ! D20   D(6,5,7,8)            176.0239         estimate D2E/DX2                !
 ! D21   D(6,5,7,11)            -0.7498         estimate D2E/DX2                !
 ! D22   D(5,7,8,9)              2.0092         estimate D2E/DX2                !
 ! D23   D(5,7,8,17)          -178.5914         estimate D2E/DX2                !
 ! D24   D(11,7,8,9)           178.9159         estimate D2E/DX2                !
 ! D25   D(11,7,8,17)           -1.6848         estimate D2E/DX2                !
 ! D26   D(5,7,11,12)          -16.8724         estimate D2E/DX2                !
 ! D27   D(8,7,11,12)          166.2907         estimate D2E/DX2                !
 ! D28   D(7,8,9,3)             -0.0922         estimate D2E/DX2                !
 ! D29   D(7,8,9,10)           179.416          estimate D2E/DX2                !
 ! D30   D(17,8,9,3)          -179.5129         estimate D2E/DX2                !
 ! D31   D(17,8,9,10)           -0.0047         estimate D2E/DX2                !
 ! D32   D(7,11,12,18)         -49.2039         estimate D2E/DX2                !
 ! D33   D(7,11,12,19)          73.0906         estimate D2E/DX2                !
 ! D34   D(7,11,12,20)        -167.8141         estimate D2E/DX2                !
 --------------------------------------------------------------------------------
 Trust Radius=3.00D-01 FncErr=1.00D-07 GrdErr=1.00D-06 EigMax=2.50D+02 EigMin=1.00D-04
 Number of steps in this run=     96 maximum allowed number of steps=    120.
 GradGradGradGradGradGradGradGradGradGradGradGradGradGradGradGradGradGrad

 Leave Link  103 at Sat Feb 10 10:26:02 2024, MaxMem=  4026531840 cpu:               0.3 elap:               0.1
 (Enter /sysapps/ubuntu-applications/gaussian/Gaussian/AVX2/g16/l202.exe)
                          Input orientation:                          
 ---------------------------------------------------------------------
 Center     Atomic      Atomic             Coordinates (Angstroms)
 Number     Number       Type             X           Y           Z
 ---------------------------------------------------------------------
      1          6           0       -3.574230    0.691431   -0.148924
      2          8           0       -2.792235   -0.499820   -0.035267
      3          6           0       -1.470980   -0.387151    0.061432
      4          6           0       -0.756454    0.761795    0.064550
      5          6           0        0.696718    0.767951    0.198679
      6          8           0        1.326177    1.814543    0.263071
      7          6           0        1.399391   -0.573163    0.270549
      8          6           0        0.674456   -1.716435    0.278149
      9          6           0       -0.777546   -1.733111    0.176932
     10          8           0       -1.428343   -2.762490    0.173447
     11          8           0        2.728644   -0.673523    0.391598
     12          6           0        3.658717    0.396814    0.123027
     13          1           0       -4.607186    0.358171   -0.214980
     14          1           0       -3.302958    1.247387   -1.050918
     15          1           0       -3.442230    1.325809    0.732213
     16          1           0       -1.209375    1.741537   -0.004903
     17          1           0        1.166997   -2.677943    0.352200
     18          1           0        3.456656    0.861934   -0.841557
     19          1           0        3.624245    1.152364    0.905078
     20          1           0        4.629534   -0.096101    0.107419
 ---------------------------------------------------------------------
                    Distance matrix (angstroms):
                    1          2          3          4          5
     1  C    0.000000
     2  O    1.429515   0.000000
     3  C    2.373025   1.329571   0.000000
     4  C    2.826727   2.397090   1.353009   0.000000
     5  C    4.285753   3.719512   2.460084   1.459362   0.000000
     6  O    5.044315   4.733561   3.565418   2.342016   1.222996
     7  C    5.148986   4.203407   2.883983   2.544055   1.515751
     8  C    4.902198   3.687320   2.533152   2.869626   2.485756
     9  C    3.715646   2.371710   1.518486   2.497525   2.903315
    10  O    4.079010   2.650177   2.378361   3.589412   4.120744
    11  O    6.471591   5.540080   4.222305   3.783253   2.498757
    12  C    7.244051   6.514890   5.189623   4.430617   2.986119
    13  H    1.087393   2.015563   3.235382   3.881905   5.335769
    14  H    1.093741   2.084494   2.695400   2.822189   4.217672
    15  H    1.093738   2.084332   2.696295   2.824408   4.210315
    16  H    2.591525   2.744093   2.145728   1.081599   2.150001
    17  H    5.838068   4.535402   3.505880   3.951481   3.481223
    18  H    7.066977   6.446171   5.163061   4.310609   2.950963
    19  H    7.289816   6.692173   5.389171   4.477673   3.035982
    20  H    8.245463   7.434111   6.107626   5.454053   4.027649
                    6          7          8          9         10
     6  O    0.000000
     7  C    2.388840   0.000000
     8  C    3.590651   1.353758   0.000000
     9  C    4.125399   2.468461   1.455621   0.000000
    10  O    5.342719   3.577522   2.350948   1.217855   0.000000
    11  O    2.859004   1.338521   2.306561   3.669084   4.657458
    12  C    2.733187   2.463163   3.660013   4.921373   5.988483
    13  H    6.128160   6.097712   5.695868   4.381004   4.471515
    14  H    4.845320   5.212750   5.135220   4.094959   4.592642
    15  H    4.816291   5.221161   5.138923   4.094615   4.591530
    16  H    2.550718   3.498481   3.947975   3.506097   4.512872
    17  H    4.496189   2.119144   1.082856   2.169026   2.602862
    18  H    2.581977   2.743834   3.955043   5.069521   6.166839
    19  H    2.476241   2.886182   4.162247   5.313372   6.433507
    20  H    3.819287   3.269254   4.277531   5.649880   6.619053
                   11         12         13         14         15
    11  O    0.000000
    12  C    1.443187   0.000000
    13  H    7.432814   8.272901   0.000000
    14  H    6.492378   7.111015   1.786199   0.000000
    15  H    6.495616   7.187321   1.786231   1.790280   0.000000
    16  H    4.636564   5.052026   3.674637   2.391949   2.387847
    17  H    2.541258   3.964255   6.548349   6.112074   6.117141
    18  H    2.099595   1.089765   8.103822   6.773831   7.091302
    19  H    2.097529   1.087956   8.345162   7.198687   7.070717
    20  H    2.006877   1.088896   9.253502   8.128415   8.219828
                   16         17         18         19         20
    16  H    0.000000
    17  H    5.030554   0.000000
    18  H    4.821363   4.381589   0.000000
    19  H    4.953693   4.584211   1.778530   0.000000
    20  H    6.122286   4.326082   1.787185   1.790400   0.000000
 Symmetry turned off by external request.
 Stoichiometry    C8H8O4
 Framework group  C1[X(C8H8O4)]
 Deg. of freedom    54
 Full point group                 C1      NOp   1
 Rotational constants (GHZ):           1.8053741           0.6289589           0.4702226
 Leave Link  202 at Sat Feb 10 10:26:02 2024, MaxMem=  4026531840 cpu:               0.4 elap:               0.1
 (Enter /sysapps/ubuntu-applications/gaussian/Gaussian/AVX2/g16/l301.exe)
 Standard basis: 6-311++G(d,p) (5D, 7F)
 Ernie: Thresh=  0.10000D-02 Tol=  0.10000D-05 Strict=F.
   320 basis functions,   504 primitive gaussians,   332 cartesian basis functions
    44 alpha electrons       44 beta electrons
       nuclear repulsion energy       685.9180753693 Hartrees.
 IExCor=  402 DFT=T Ex+Corr=B3LYP ExCW=0 ScaHFX=  0.200000
 ScaDFX=  0.800000  0.720000  1.000000  0.810000 ScalE2=  1.000000  1.000000
 IRadAn=      5 IRanWt=     -1 IRanGd=            0 ICorTp=0 IEmpDi=  4
 NAtoms=   20 NActive=   20 NUniq=   20 SFac= 1.00D+00 NAtFMM=   60 NAOKFM=F Big=F
 Integral buffers will be    131072 words long.
 Raffenetti 2 integral format.
 Two-electron integral symmetry is turned off.
 ------------------------------------------------------------------------------
 Polarizable Continuum Model (PCM)
 =================================
 Model                : PCM.
 Atomic radii         : UFF (Universal Force Field).
 Polarization charges : Total charges.
 Charge compensation  : None.
 Solution method      : On-the-fly selection.
 Cavity type          : Scaled VdW (van der Waals Surface) (Alpha=1.100).
 Cavity algorithm     : GePol (No added spheres)
                        Default sphere list used, NSphG=   20.
                        Lebedev-Laikov grids with approx.  5.0 points / Ang**2.
                        Smoothing algorithm: York/Karplus (Gamma=1.0000).
                        Polarization charges: spherical gaussians, with
                                              point-specific exponents (IZeta= 3).
                        Self-potential: point-specific (ISelfS= 7).
                        Self-field    : sphere-specific E.n sum rule (ISelfD= 2).
 1st derivatives      : Analytical E(r).r(x)/FMM algorithm (CHGder, D1EAlg=3).
                        Cavity 1st derivative terms included.
 Solvent              : n,n-DiMethylFormamide, Eps=  37.219000 Eps(inf)=   2.046330
 ------------------------------------------------------------------------------
 Spheres list:
 ISph  on   Nord     Re0    Alpha      Xe            Ye            Ze
    1   C      1    1.9255  1.100     -3.574230      0.691431     -0.148924
    2   O      2    1.7500  1.100     -2.792235     -0.499820     -0.035267
    3   C      3    1.9255  1.100     -1.470980     -0.387151      0.061432
    4   C      4    1.9255  1.100     -0.756454      0.761795      0.064550
    5   C      5    1.9255  1.100      0.696718      0.767951      0.198679
    6   O      6    1.7500  1.100      1.326177      1.814543      0.263071
    7   C      7    1.9255  1.100      1.399391     -0.573163      0.270549
    8   C      8    1.9255  1.100      0.674456     -1.716435      0.278149
    9   C      9    1.9255  1.100     -0.777546     -1.733111      0.176932
   10   O     10    1.7500  1.100     -1.428343     -2.762490      0.173447
   11   O     11    1.7500  1.100      2.728644     -0.673523      0.391598
   12   C     12    1.9255  1.100      3.658717      0.396814      0.123027
   13   H     13    1.4430  1.100     -4.607186      0.358171     -0.214980
   14   H     14    1.4430  1.100     -3.302958      1.247387     -1.050918
   15   H     15    1.4430  1.100     -3.442230      1.325809      0.732213
   16   H     16    1.4430  1.100     -1.209375      1.741537     -0.004903
   17   H     17    1.4430  1.100      1.166997     -2.677943      0.352200
   18   H     18    1.4430  1.100      3.456656      0.861934     -0.841557
   19   H     19    1.4430  1.100      3.624245      1.152364      0.905078
   20   H     20    1.4430  1.100      4.629534     -0.096101      0.107419
 ------------------------------------------------------------------------------
 GePol: Number of generator spheres                  =      20
 GePol: Total number of spheres                      =      20
 GePol: Number of exposed spheres                    =      20 (100.00%)
 GePol: Number of points                             =    1717
 GePol: Average weight of points                     =       0.13
 GePol: Minimum weight of points                     =   0.58D-10
 GePol: Maximum weight of points                     =    0.20577
 GePol: Number of points with low weight             =      97
 GePol: Fraction of low-weight points (<1% of avg)   =       5.65%
 GePol: Cavity surface area                          =    223.537 Ang**2
 GePol: Cavity volume                                =    226.257 Ang**3
 Leave Link  301 at Sat Feb 10 10:26:02 2024, MaxMem=  4026531840 cpu:               0.7 elap:               0.2
 (Enter /sysapps/ubuntu-applications/gaussian/Gaussian/AVX2/g16/l302.exe)
 NPDir=0 NMtPBC=     1 NCelOv=     1 NCel=       1 NClECP=     1 NCelD=      1
         NCelK=      1 NCelE2=     1 NClLst=     1 CellRange=     0.0.
 One-electron integrals computed using PRISM.
 NBasis=   320 RedAO= T EigKep=  1.02D-06  NBF=   320
 NBsUse=   320 1.00D-06 EigRej= -1.00D+00 NBFU=   320
 Precomputing XC quadrature grid using
 IXCGrd= 4 IRadAn=           5 IRanWt=          -1 IRanGd=           0 AccXCQ= 0.00D+00.
 Generated NRdTot=       0 NPtTot=           0 NUsed=           0 NTot=          32
 NSgBfM=   332   332   332   332   332 MxSgAt=    20 MxSgA2=    20.
 Leave Link  302 at Sat Feb 10 10:26:03 2024, MaxMem=  4026531840 cpu:               3.4 elap:               0.5
 (Enter /sysapps/ubuntu-applications/gaussian/Gaussian/AVX2/g16/l303.exe)
 DipDrv:  MaxL=1.
 Leave Link  303 at Sat Feb 10 10:26:03 2024, MaxMem=  4026531840 cpu:               1.6 elap:               0.3
 (Enter /sysapps/ubuntu-applications/gaussian/Gaussian/AVX2/g16/l401.exe)
 ExpMin= 3.60D-02 ExpMax= 8.59D+03 ExpMxC= 1.30D+03 IAcc=3 IRadAn=         5 AccDes= 0.00D+00
 Harris functional with IExCor=  402 and IRadAn=       5 diagonalized for initial guess.
 HarFok:  IExCor=  402 AccDes= 0.00D+00 IRadAn=         5 IDoV= 1 UseB2=F ITyADJ=14
 ICtDFT=  3500011 ScaDFX=  1.000000  1.000000  1.000000  1.000000
 FoFCou: FMM=F IPFlag=           0 FMFlag=      100000 FMFlg1=           0
         NFxFlg=           0 DoJE=T BraDBF=F KetDBF=T FulRan=T
         wScrn=  0.000000 ICntrl=       500 IOpCl=  0 I1Cent=   200000004 NGrid=           0
         NMat0=    1 NMatS0=      1 NMatT0=    0 NMatD0=    1 NMtDS0=    0 NMtDT0=    0
 Symmetry not used in FoFCou.
 Harris En= -610.710895515516    
 JPrj=0 DoOrth=F DoCkMO=F.
 Initial guess <Sx>= 0.0000 <Sy>= 0.0000 <Sz>= 0.0000 <S**2>=-0.0000 S=-0.0000
 Leave Link  401 at Sat Feb 10 10:26:05 2024, MaxMem=  4026531840 cpu:              15.0 elap:               2.0
 (Enter /sysapps/ubuntu-applications/gaussian/Gaussian/AVX2/g16/l502.exe)
 Two-electron integral symmetry not used.
 UHF open shell SCF:
 Using DIIS extrapolation, IDIIS=  1040.
 NGot=  4026531840 LenX=  4026306284 LenY=  4026195619
 Requested convergence on RMS density matrix=1.00D-08 within 128 cycles.
 Requested convergence on MAX density matrix=1.00D-06.
 Requested convergence on             energy=1.00D-06.
 No special actions if energy rises.
 Fock matrices will be formed incrementally for  20 cycles.

 Cycle   1  Pass 1  IDiag  1:
 FoFJK:  IHMeth= 1 ICntrl=       0 DoSepK=F KAlg= 0 I1Cent=           0 FoldK=F
 IRaf= 900000000 NMat=       1 IRICut=       1 DoRegI=T DoRafI=F ISym2E= 0 IDoP0=0 IntGTp=1.
 FoFCou: FMM=F IPFlag=           0 FMFlag=      100000 FMFlg1=           0
         NFxFlg=           0 DoJE=F BraDBF=F KetDBF=F FulRan=T
         wScrn=  0.000000 ICntrl=         0 IOpCl=  1 I1Cent=           0 NGrid=           0
         NMat0=    1 NMatS0=      1 NMatT0=    0 NMatD0=    1 NMtDS0=    0 NMtDT0=    0
 Symmetry not used in FoFCou.
 Inv3:  Mode=1 IEnd=     8844267.
 Iteration    1 A*A^-1 deviation from unit magnitude is 2.89D-15 for    726.
 Iteration    1 A*A^-1 deviation from orthogonality  is 1.83D-15 for    800    204.
 Iteration    1 A^-1*A deviation from unit magnitude is 3.11D-15 for   1266.
 Iteration    1 A^-1*A deviation from orthogonality  is 2.85D-15 for   1150    560.
 E= -610.410762216076    
 DIIS: error= 3.01D-02 at cycle   1 NSaved=   1.
 NSaved= 1 IEnMin= 1 EnMin= -610.410762216076     IErMin= 1 ErrMin= 3.01D-02
 ErrMax= 3.01D-02  0.00D+00 EMaxC= 1.00D-01 BMatC= 1.52D+00 BMatP= 1.52D+00
 IDIUse=3 WtCom= 6.99D-01 WtEn= 3.01D-01
 Coeff-Com:  0.100D+01
 Coeff-En:   0.100D+01
 Coeff:      0.100D+01
 Gap=     0.095 Goal=   None    Shift=    0.000
 Gap=     0.095 Goal=   None    Shift=    0.000
 GapD=    0.095 DampG=0.500 DampE=0.500 DampFc=0.2500 IDamp=-1.
 Damping current iteration by 2.50D-01
 RMSDP=2.70D-02 MaxDP=2.60D+00              OVMax= 2.87D-01

 Cycle   2  Pass 1  IDiag  1:
 RMSU=  5.82D-03    CP:  1.05D+00
 E= -610.509165354502     Delta-E=       -0.098403138426 Rises=F Damp=T
 DIIS: error= 1.38D-02 at cycle   2 NSaved=   2.
 NSaved= 2 IEnMin= 2 EnMin= -610.509165354502     IErMin= 2 ErrMin= 1.38D-02
 ErrMax= 1.38D-02  0.00D+00 EMaxC= 1.00D-01 BMatC= 3.21D-01 BMatP= 1.52D+00
 IDIUse=3 WtCom= 8.62D-01 WtEn= 1.38D-01
 Coeff-Com: -0.539D+00 0.154D+01
 Coeff-En:   0.000D+00 0.100D+01
 Coeff:     -0.465D+00 0.146D+01
 Gap=     0.159 Goal=   None    Shift=    0.000
 Gap=     0.159 Goal=   None    Shift=    0.000
 RMSDP=7.45D-03 MaxDP=6.42D-01 DE=-9.84D-02 OVMax= 2.45D-01

 Cycle   3  Pass 1  IDiag  1:
 RMSU=  6.06D-03    CP:  9.87D-01  8.80D-01
 E= -610.651756113466     Delta-E=       -0.142590758964 Rises=F Damp=F
 DIIS: error= 1.73D-02 at cycle   3 NSaved=   3.
 NSaved= 3 IEnMin= 3 EnMin= -610.651756113466     IErMin= 2 ErrMin= 1.38D-02
 ErrMax= 1.73D-02  0.00D+00 EMaxC= 1.00D-01 BMatC= 1.85D-01 BMatP= 3.21D-01
 IDIUse=3 WtCom= 8.27D-01 WtEn= 1.73D-01
 Coeff-Com: -0.384D+00 0.885D+00 0.499D+00
 Coeff-En:   0.000D+00 0.000D+00 0.100D+01
 Coeff:     -0.318D+00 0.732D+00 0.586D+00
 Gap=     0.137 Goal=   None    Shift=    0.000
 Gap=     0.137 Goal=   None    Shift=    0.000
 RMSDP=3.30D-03 MaxDP=1.71D-01 DE=-1.43D-01 OVMax= 8.30D-02

 Cycle   4  Pass 1  IDiag  1:
 RMSU=  2.37D-03    CP:  1.00D+00  1.06D+00  7.03D-01
 E= -610.681762936601     Delta-E=       -0.030006823135 Rises=F Damp=F
 DIIS: error= 9.25D-03 at cycle   4 NSaved=   4.
 NSaved= 4 IEnMin= 4 EnMin= -610.681762936601     IErMin= 4 ErrMin= 9.25D-03
 ErrMax= 9.25D-03  0.00D+00 EMaxC= 1.00D-01 BMatC= 5.30D-02 BMatP= 1.85D-01
 IDIUse=3 WtCom= 9.08D-01 WtEn= 9.25D-02
 Coeff-Com: -0.676D-01 0.176D+00 0.355D+00 0.537D+00
 Coeff-En:   0.000D+00 0.000D+00 0.246D+00 0.754D+00
 Coeff:     -0.613D-01 0.160D+00 0.345D+00 0.557D+00
 Gap=     0.127 Goal=   None    Shift=    0.000
 Gap=     0.127 Goal=   None    Shift=    0.000
 RMSDP=2.28D-03 MaxDP=2.27D-01 DE=-3.00D-02 OVMax= 3.17D-02

 Cycle   5  Pass 1  IDiag  1:
 RMSU=  8.39D-04    CP:  9.76D-01  9.43D-01  7.67D-01  5.63D-01
 E= -610.692088344560     Delta-E=       -0.010325407959 Rises=F Damp=F
 DIIS: error= 1.12D-03 at cycle   5 NSaved=   5.
 NSaved= 5 IEnMin= 5 EnMin= -610.692088344560     IErMin= 5 ErrMin= 1.12D-03
 ErrMax= 1.12D-03  0.00D+00 EMaxC= 1.00D-01 BMatC= 1.96D-03 BMatP= 5.30D-02
 IDIUse=3 WtCom= 9.89D-01 WtEn= 1.12D-02
 Coeff-Com: -0.255D-02 0.159D-01 0.145D+00 0.306D+00 0.537D+00
 Coeff-En:   0.000D+00 0.000D+00 0.000D+00 0.000D+00 0.100D+01
 Coeff:     -0.252D-02 0.157D-01 0.143D+00 0.302D+00 0.542D+00
 Gap=     0.129 Goal=   None    Shift=    0.000
 Gap=     0.129 Goal=   None    Shift=    0.000
 RMSDP=4.63D-04 MaxDP=6.03D-02 DE=-1.03D-02 OVMax= 4.78D-03

 Cycle   6  Pass 1  IDiag  1:
 RMSU=  2.74D-04    CP:  9.71D-01  9.47D-01  7.69D-01  5.72D-01  8.97D-01
 E= -610.692481497167     Delta-E=       -0.000393152608 Rises=F Damp=F
 DIIS: error= 2.30D-04 at cycle   6 NSaved=   6.
 NSaved= 6 IEnMin= 6 EnMin= -610.692481497167     IErMin= 6 ErrMin= 2.30D-04
 ErrMax= 2.30D-04  0.00D+00 EMaxC= 1.00D-01 BMatC= 8.30D-05 BMatP= 1.96D-03
 IDIUse=3 WtCom= 9.98D-01 WtEn= 2.30D-03
 Coeff-Com:  0.440D-02-0.724D-02 0.321D-01 0.822D-01 0.239D+00 0.650D+00
 Coeff-En:   0.000D+00 0.000D+00 0.000D+00 0.000D+00 0.000D+00 0.100D+01
 Coeff:      0.439D-02-0.722D-02 0.320D-01 0.820D-01 0.238D+00 0.651D+00
 Gap=     0.129 Goal=   None    Shift=    0.000
 Gap=     0.129 Goal=   None    Shift=    0.000
 RMSDP=1.38D-04 MaxDP=1.46D-02 DE=-3.93D-04 OVMax= 2.38D-03

 Cycle   7  Pass 1  IDiag  1:
 RMSU=  8.11D-05    CP:  9.72D-01  9.48D-01  7.77D-01  5.76D-01  9.16D-01
                    CP:  9.80D-01
 E= -610.692496990812     Delta-E=       -0.000015493644 Rises=F Damp=F
 DIIS: error= 8.00D-05 at cycle   7 NSaved=   7.
 NSaved= 7 IEnMin= 7 EnMin= -610.692496990812     IErMin= 7 ErrMin= 8.00D-05
 ErrMax= 8.00D-05  0.00D+00 EMaxC= 1.00D-01 BMatC= 1.44D-05 BMatP= 8.30D-05
 IDIUse=1 WtCom= 1.00D+00 WtEn= 0.00D+00
 Coeff-Com:  0.293D-02-0.541D-02 0.930D-02 0.268D-01 0.104D+00 0.389D+00
 Coeff-Com:  0.473D+00
 Coeff:      0.293D-02-0.541D-02 0.930D-02 0.268D-01 0.104D+00 0.389D+00
 Coeff:      0.473D+00
 Gap=     0.129 Goal=   None    Shift=    0.000
 Gap=     0.129 Goal=   None    Shift=    0.000
 RMSDP=4.29D-05 MaxDP=5.72D-03 DE=-1.55D-05 OVMax= 5.90D-04

 Cycle   8  Pass 1  IDiag  1:
 RMSU=  1.95D-05    CP:  9.73D-01  9.45D-01  7.77D-01  5.77D-01  9.17D-01
                    CP:  8.97D-01  7.96D-01
 E= -610.692499758035     Delta-E=       -0.000002767223 Rises=F Damp=F
 DIIS: error= 4.26D-05 at cycle   8 NSaved=   8.
 NSaved= 8 IEnMin= 8 EnMin= -610.692499758035     IErMin= 8 ErrMin= 4.26D-05
 ErrMax= 4.26D-05  0.00D+00 EMaxC= 1.00D-01 BMatC= 1.54D-06 BMatP= 1.44D-05
 IDIUse=1 WtCom= 1.00D+00 WtEn= 0.00D+00
 Coeff-Com:  0.134D-02-0.239D-02 0.142D-02 0.458D-02 0.297D-01 0.151D+00
 Coeff-Com:  0.255D+00 0.560D+00
 Coeff:      0.134D-02-0.239D-02 0.142D-02 0.458D-02 0.297D-01 0.151D+00
 Coeff:      0.255D+00 0.560D+00
 Gap=     0.129 Goal=   None    Shift=    0.000
 Gap=     0.129 Goal=   None    Shift=    0.000
 RMSDP=1.65D-05 MaxDP=1.70D-03 DE=-2.77D-06 OVMax= 2.91D-04

 Cycle   9  Pass 1  IDiag  1:
 RMSU=  9.66D-06    CP:  9.73D-01  9.45D-01  7.77D-01  5.75D-01  9.17D-01
                    CP:  8.92D-01  7.25D-01  9.04D-01
 E= -610.692499998310     Delta-E=       -0.000000240275 Rises=F Damp=F
 DIIS: error= 2.46D-05 at cycle   9 NSaved=   9.
 NSaved= 9 IEnMin= 9 EnMin= -610.692499998310     IErMin= 9 ErrMin= 2.46D-05
 ErrMax= 2.46D-05  0.00D+00 EMaxC= 1.00D-01 BMatC= 4.44D-07 BMatP= 1.54D-06
 IDIUse=1 WtCom= 1.00D+00 WtEn= 0.00D+00
 Coeff-Com:  0.373D-03-0.583D-03-0.765D-03-0.238D-02-0.331D-02 0.138D-01
 Coeff-Com:  0.355D-01 0.366D+00 0.591D+00
 Coeff:      0.373D-03-0.583D-03-0.765D-03-0.238D-02-0.331D-02 0.138D-01
 Coeff:      0.355D-01 0.366D+00 0.591D+00
 Gap=     0.129 Goal=   None    Shift=    0.000
 Gap=     0.129 Goal=   None    Shift=    0.000
 RMSDP=4.61D-06 MaxDP=4.83D-04 DE=-2.40D-07 OVMax= 1.77D-04

 Cycle  10  Pass 1  IDiag  1:
 RMSU=  2.49D-06    CP:  9.73D-01  9.44D-01  7.77D-01  5.75D-01  9.17D-01
                    CP:  8.94D-01  7.25D-01  9.91D-01  9.27D-01
 E= -610.692500089369     Delta-E=       -0.000000091059 Rises=F Damp=F
 DIIS: error= 4.86D-06 at cycle  10 NSaved=  10.
 NSaved=10 IEnMin=10 EnMin= -610.692500089369     IErMin=10 ErrMin= 4.86D-06
 ErrMax= 4.86D-06  0.00D+00 EMaxC= 1.00D-01 BMatC= 3.29D-08 BMatP= 4.44D-07
 IDIUse=1 WtCom= 1.00D+00 WtEn= 0.00D+00
 Coeff-Com:  0.120D-03-0.166D-03-0.565D-03-0.184D-02-0.508D-02-0.558D-02
 Coeff-Com: -0.777D-02 0.154D+00 0.313D+00 0.553D+00
 Coeff:      0.120D-03-0.166D-03-0.565D-03-0.184D-02-0.508D-02-0.558D-02
 Coeff:     -0.777D-02 0.154D+00 0.313D+00 0.553D+00
 Gap=     0.129 Goal=   None    Shift=    0.000
 Gap=     0.129 Goal=   None    Shift=    0.000
 RMSDP=1.63D-06 MaxDP=8.86D-05 DE=-9.11D-08 OVMax= 3.16D-05

 Cycle  11  Pass 1  IDiag  1:
 RMSU=  1.01D-06    CP:  9.73D-01  9.44D-01  7.77D-01  5.75D-01  9.17D-01
                    CP:  8.95D-01  7.25D-01  1.01D+00  9.94D-01  8.93D-01
 E= -610.692500095447     Delta-E=       -0.000000006078 Rises=F Damp=F
 DIIS: error= 2.56D-06 at cycle  11 NSaved=  11.
 NSaved=11 IEnMin=11 EnMin= -610.692500095447     IErMin=11 ErrMin= 2.56D-06
 ErrMax= 2.56D-06  0.00D+00 EMaxC= 1.00D-01 BMatC= 8.53D-09 BMatP= 3.29D-08
 IDIUse=1 WtCom= 1.00D+00 WtEn= 0.00D+00
 Coeff-Com:  0.145D-04-0.333D-05-0.106D-03-0.457D-03-0.210D-02-0.423D-02
 Coeff-Com: -0.139D-01 0.131D-01 0.574D-01 0.359D+00 0.592D+00
 Coeff:      0.145D-04-0.333D-05-0.106D-03-0.457D-03-0.210D-02-0.423D-02
 Coeff:     -0.139D-01 0.131D-01 0.574D-01 0.359D+00 0.592D+00
 Gap=     0.129 Goal=   None    Shift=    0.000
 Gap=     0.129 Goal=   None    Shift=    0.000
 RMSDP=5.99D-07 MaxDP=4.56D-05 DE=-6.08D-09 OVMax= 3.70D-05

 Cycle  12  Pass 1  IDiag  1:
 RMSU=  3.75D-07    CP:  9.73D-01  9.44D-01  7.77D-01  5.75D-01  9.17D-01
                    CP:  8.94D-01  7.24D-01  1.01D+00  9.88D-01  9.52D-01
                    CP:  8.72D-01
 E= -610.692500097273     Delta-E=       -0.000000001825 Rises=F Damp=F
 DIIS: error= 7.28D-07 at cycle  12 NSaved=  12.
 NSaved=12 IEnMin=12 EnMin= -610.692500097273     IErMin=12 ErrMin= 7.28D-07
 ErrMax= 7.28D-07  0.00D+00 EMaxC= 1.00D-01 BMatC= 7.03D-10 BMatP= 8.53D-09
 IDIUse=1 WtCom= 1.00D+00 WtEn= 0.00D+00
 Coeff-Com: -0.176D-05 0.100D-04-0.948D-05-0.843D-04-0.717D-03-0.184D-02
 Coeff-Com: -0.686D-02-0.933D-02-0.365D-02 0.963D-01 0.289D+00 0.637D+00
 Coeff:     -0.176D-05 0.100D-04-0.948D-05-0.843D-04-0.717D-03-0.184D-02
 Coeff:     -0.686D-02-0.933D-02-0.365D-02 0.963D-01 0.289D+00 0.637D+00
 Gap=     0.129 Goal=   None    Shift=    0.000
 Gap=     0.129 Goal=   None    Shift=    0.000
 RMSDP=2.58D-07 MaxDP=2.12D-05 DE=-1.83D-09 OVMax= 4.46D-06

 Cycle  13  Pass 1  IDiag  1:
 RMSU=  9.07D-08    CP:  9.73D-01  9.44D-01  7.77D-01  5.75D-01  9.17D-01
                    CP:  8.94D-01  7.23D-01  1.02D+00  9.99D-01  9.75D-01
                    CP:  9.44D-01  9.74D-01
 E= -610.692500097408     Delta-E=       -0.000000000136 Rises=F Damp=F
 DIIS: error= 2.92D-07 at cycle  13 NSaved=  13.
 NSaved=13 IEnMin=13 EnMin= -610.692500097408     IErMin=13 ErrMin= 2.92D-07
 ErrMax= 2.92D-07  0.00D+00 EMaxC= 1.00D-01 BMatC= 1.09D-10 BMatP= 7.03D-10
 IDIUse=1 WtCom= 1.00D+00 WtEn= 0.00D+00
 Coeff-Com:  0.130D-05-0.406D-06 0.149D-04 0.275D-04-0.786D-04-0.188D-03
 Coeff-Com: -0.178D-02-0.641D-02-0.892D-02-0.609D-03 0.881D-01 0.374D+00
 Coeff-Com:  0.556D+00
 Coeff:      0.130D-05-0.406D-06 0.149D-04 0.275D-04-0.786D-04-0.188D-03
 Coeff:     -0.178D-02-0.641D-02-0.892D-02-0.609D-03 0.881D-01 0.374D+00
 Coeff:      0.556D+00
 Gap=     0.129 Goal=   None    Shift=    0.000
 Gap=     0.129 Goal=   None    Shift=    0.000
 RMSDP=1.30D-07 MaxDP=1.54D-05 DE=-1.36D-10 OVMax= 2.35D-06

 Cycle  14  Pass 1  IDiag  1:
 RMSU=  5.51D-08    CP:  9.73D-01  9.44D-01  7.77D-01  5.75D-01  9.17D-01
                    CP:  8.94D-01  7.23D-01  1.02D+00  1.00D+00  9.86D-01
                    CP:  9.39D-01  9.98D-01  8.17D-01
 E= -610.692500097429     Delta-E=       -0.000000000021 Rises=F Damp=F
 DIIS: error= 5.02D-08 at cycle  14 NSaved=  14.
 NSaved=14 IEnMin=14 EnMin= -610.692500097429     IErMin=14 ErrMin= 5.02D-08
 ErrMax= 5.02D-08  0.00D+00 EMaxC= 1.00D-01 BMatC= 5.80D-12 BMatP= 1.09D-10
 IDIUse=1 WtCom= 1.00D+00 WtEn= 0.00D+00
 Coeff-Com:  0.994D-06-0.113D-05 0.788D-05 0.185D-04 0.498D-05 0.612D-05
 Coeff-Com: -0.486D-03-0.260D-02-0.419D-02-0.742D-02 0.230D-01 0.122D+00
 Coeff-Com:  0.260D+00 0.610D+00
 Coeff:      0.994D-06-0.113D-05 0.788D-05 0.185D-04 0.498D-05 0.612D-05
 Coeff:     -0.486D-03-0.260D-02-0.419D-02-0.742D-02 0.230D-01 0.122D+00
 Coeff:      0.260D+00 0.610D+00
 Gap=     0.129 Goal=   None    Shift=    0.000
 Gap=     0.129 Goal=   None    Shift=    0.000
 RMSDP=2.37D-08 MaxDP=2.80D-06 DE=-2.07D-11 OVMax= 2.69D-07

 Cycle  15  Pass 1  IDiag  1:
 RMSU=  8.40D-09    CP:  9.73D-01  9.44D-01  7.77D-01  5.75D-01  9.17D-01
                    CP:  8.94D-01  7.22D-01  1.02D+00  1.00D+00  9.85D-01
                    CP:  9.46D-01  1.01D+00  8.34D-01  9.01D-01
 E= -610.692500097435     Delta-E=       -0.000000000006 Rises=F Damp=F
 DIIS: error= 1.40D-08 at cycle  15 NSaved=  15.
 NSaved=15 IEnMin=15 EnMin= -610.692500097435     IErMin=15 ErrMin= 1.40D-08
 ErrMax= 1.40D-08  0.00D+00 EMaxC= 1.00D-01 BMatC= 4.99D-13 BMatP= 5.80D-12
 IDIUse=1 WtCom= 1.00D+00 WtEn= 0.00D+00
 Coeff-Com:  0.560D-06-0.793D-06 0.145D-05 0.399D-05 0.108D-04 0.337D-04
 Coeff-Com:  0.921D-05-0.210D-03-0.482D-03-0.330D-02-0.823D-03 0.113D-02
 Coeff-Com:  0.475D-01 0.284D+00 0.672D+00
 Coeff:      0.560D-06-0.793D-06 0.145D-05 0.399D-05 0.108D-04 0.337D-04
 Coeff:      0.921D-05-0.210D-03-0.482D-03-0.330D-02-0.823D-03 0.113D-02
 Coeff:      0.475D-01 0.284D+00 0.672D+00
 Gap=     0.129 Goal=   None    Shift=    0.000
 Gap=     0.129 Goal=   None    Shift=    0.000
 RMSDP=1.11D-08 MaxDP=1.25D-06 DE=-6.25D-12 OVMax= 7.10D-08

 Cycle  16  Pass 1  IDiag  1:
 RMSU=  2.95D-09    CP:  9.73D-01  9.44D-01  7.77D-01  5.75D-01  9.17D-01
                    CP:  8.94D-01  7.22D-01  1.02D+00  1.00D+00  9.86D-01
                    CP:  9.47D-01  1.02D+00  8.43D-01  9.61D-01  9.05D-01
 E= -610.692500097426     Delta-E=        0.000000000010 Rises=F Damp=F
 DIIS: error= 2.27D-09 at cycle  16 NSaved=  16.
 NSaved=16 IEnMin=15 EnMin= -610.692500097435     IErMin=16 ErrMin= 2.27D-09
 ErrMax= 2.27D-09  0.00D+00 EMaxC= 1.00D-01 BMatC= 1.14D-14 BMatP= 4.99D-13
 IDIUse=1 WtCom= 1.00D+00 WtEn= 0.00D+00
 Coeff-Com:  0.166D-06-0.243D-06 0.226D-06 0.710D-06 0.315D-05 0.115D-04
 Coeff-Com:  0.217D-04 0.319D-04 0.119D-04-0.664D-03-0.108D-02-0.418D-02
 Coeff-Com:  0.395D-02 0.563D-01 0.204D+00 0.741D+00
 Coeff:      0.166D-06-0.243D-06 0.226D-06 0.710D-06 0.315D-05 0.115D-04
 Coeff:      0.217D-04 0.319D-04 0.119D-04-0.664D-03-0.108D-02-0.418D-02
 Coeff:      0.395D-02 0.563D-01 0.204D+00 0.741D+00
 Gap=     0.129 Goal=   None    Shift=    0.000
 Gap=     0.129 Goal=   None    Shift=    0.000
 RMSDP=2.31D-09 MaxDP=2.21D-07 DE= 9.78D-12 OVMax= 2.72D-08

 Error on total polarization charges =  0.01336
 SCF Done:  E(UB3LYP) =  -610.692500097     A.U. after   16 cycles
            NFock= 16  Conv=0.23D-08     -V/T= 2.0038
 <Sx>= 0.0000 <Sy>= 0.0000 <Sz>= 0.0000 <S**2>=-0.0000 S=-0.0000
 <L.S>=  0.00000000000    
 KE= 6.083992086075D+02 PE=-2.800940692681D+03 EE= 8.959309086069D+02
 Annihilation of the first spin contaminant:
 S**2 before annihilation    -0.0000,   after     0.0000
 Leave Link  502 at Sat Feb 10 10:28:02 2024, MaxMem=  4026531840 cpu:             922.7 elap:             116.8
 (Enter /sysapps/ubuntu-applications/gaussian/Gaussian/AVX2/g16/l601.exe)
 Copying SCF densities to generalized density rwf, IOpCl= 1 IROHF=0.

 **********************************************************************

            Population analysis using the SCF density.

 **********************************************************************

 Alpha  occ. eigenvalues --  -19.19365 -19.18578 -19.14042 -19.13653 -10.29379
 Alpha  occ. eigenvalues --  -10.28767 -10.27958 -10.27792 -10.23608 -10.22973
 Alpha  occ. eigenvalues --  -10.19649 -10.19339  -1.11500  -1.10278  -1.06840
 Alpha  occ. eigenvalues --   -1.06653  -0.86048  -0.79791  -0.75050  -0.73071
 Alpha  occ. eigenvalues --   -0.68163  -0.63418  -0.60601  -0.55542  -0.54748
 Alpha  occ. eigenvalues --   -0.53437  -0.49992  -0.48828  -0.48142  -0.47435
 Alpha  occ. eigenvalues --   -0.45728  -0.45430  -0.44163  -0.43825  -0.42082
 Alpha  occ. eigenvalues --   -0.41471  -0.38150  -0.37380  -0.36790  -0.36247
 Alpha  occ. eigenvalues --   -0.28953  -0.28496  -0.28250  -0.25726
 Alpha virt. eigenvalues --   -0.12819  -0.01620  -0.00648   0.00084   0.00328
 Alpha virt. eigenvalues --    0.01057   0.02308   0.02376   0.03200   0.03669
 Alpha virt. eigenvalues --    0.04209   0.04410   0.05357   0.06543   0.06656
 Alpha virt. eigenvalues --    0.07969   0.08667   0.08936   0.09042   0.10711
 Alpha virt. eigenvalues --    0.11150   0.11420   0.11615   0.11648   0.12328
 Alpha virt. eigenvalues --    0.12537   0.13396   0.13413   0.14116   0.14208
 Alpha virt. eigenvalues --    0.14509   0.14726   0.15528   0.15849   0.16012
 Alpha virt. eigenvalues --    0.16134   0.16557   0.17433   0.18076   0.18215
 Alpha virt. eigenvalues --    0.19070   0.19508   0.19937   0.21707   0.22259
 Alpha virt. eigenvalues --    0.22866   0.23134   0.23504   0.24296   0.24415
 Alpha virt. eigenvalues --    0.25761   0.26670   0.27836   0.28281   0.28441
 Alpha virt. eigenvalues --    0.28872   0.29852   0.30170   0.30781   0.31307
 Alpha virt. eigenvalues --    0.31678   0.32030   0.33280   0.33373   0.33728
 Alpha virt. eigenvalues --    0.34314   0.34655   0.35493   0.36754   0.37562
 Alpha virt. eigenvalues --    0.38274   0.38338   0.39437   0.40379   0.41213
 Alpha virt. eigenvalues --    0.43896   0.44384   0.45408   0.46313   0.47279
 Alpha virt. eigenvalues --    0.49602   0.51064   0.53870   0.54222   0.55874
 Alpha virt. eigenvalues --    0.57427   0.58586   0.59908   0.60224   0.60848
 Alpha virt. eigenvalues --    0.61487   0.63259   0.63816   0.64047   0.65604
 Alpha virt. eigenvalues --    0.65976   0.67065   0.68790   0.69926   0.70768
 Alpha virt. eigenvalues --    0.72669   0.73499   0.75757   0.76773   0.78592
 Alpha virt. eigenvalues --    0.80746   0.84273   0.84951   0.86538   0.87114
 Alpha virt. eigenvalues --    0.89161   0.91385   0.92625   0.93580   0.96171
 Alpha virt. eigenvalues --    0.97133   0.98532   0.99231   1.00099   1.01764
 Alpha virt. eigenvalues --    1.02103   1.02347   1.05679   1.06297   1.07764
 Alpha virt. eigenvalues --    1.09647   1.10006   1.11706   1.13223   1.19849
 Alpha virt. eigenvalues --    1.19985   1.20454   1.21718   1.22713   1.24209
 Alpha virt. eigenvalues --    1.27210   1.28407   1.30245   1.31833   1.33134
 Alpha virt. eigenvalues --    1.36554   1.41854   1.42734   1.44394   1.45298
 Alpha virt. eigenvalues --    1.49777   1.50921   1.52674   1.52848   1.54326
 Alpha virt. eigenvalues --    1.55383   1.56298   1.58147   1.61346   1.63243
 Alpha virt. eigenvalues --    1.64517   1.66049   1.66493   1.68275   1.68831
 Alpha virt. eigenvalues --    1.70134   1.70703   1.72394   1.73892   1.76341
 Alpha virt. eigenvalues --    1.77195   1.79410   1.79901   1.82729   1.84070
 Alpha virt. eigenvalues --    1.86613   1.88889   1.95997   1.96304   1.99828
 Alpha virt. eigenvalues --    2.00528   2.01556   2.03426   2.07718   2.09218
 Alpha virt. eigenvalues --    2.10772   2.11764   2.12503   2.17032   2.18569
 Alpha virt. eigenvalues --    2.19151   2.21686   2.24316   2.30004   2.38431
 Alpha virt. eigenvalues --    2.45460   2.46279   2.47572   2.48536   2.49835
 Alpha virt. eigenvalues --    2.51115   2.53163   2.54303   2.56230   2.57274
 Alpha virt. eigenvalues --    2.59015   2.64412   2.67510   2.68583   2.70092
 Alpha virt. eigenvalues --    2.70737   2.73206   2.77007   2.79329   2.80115
 Alpha virt. eigenvalues --    2.84090   2.84942   2.88533   2.89435   2.91899
 Alpha virt. eigenvalues --    2.92140   2.97181   2.99285   3.00497   3.00902
 Alpha virt. eigenvalues --    3.03150   3.08985   3.12519   3.14041   3.16104
 Alpha virt. eigenvalues --    3.20648   3.21655   3.22654   3.25008   3.32022
 Alpha virt. eigenvalues --    3.32730   3.34993   3.36638   3.43179   3.49984
 Alpha virt. eigenvalues --    3.53315   3.59758   3.64150   3.69425   3.73549
 Alpha virt. eigenvalues --    3.76661   3.77342   3.81966   3.84012   4.02207
 Alpha virt. eigenvalues --    4.06641   4.08385   4.14403   4.17440   4.18754
 Alpha virt. eigenvalues --    4.22882   4.68712   4.97917   5.00542   5.04787
 Alpha virt. eigenvalues --    5.06406   5.17705   5.23300   5.32935   5.40425
 Alpha virt. eigenvalues --    5.64605   5.75749   5.80324   5.83549  23.63277
 Alpha virt. eigenvalues --   23.72666  23.84059  23.91367  23.92032  23.92638
 Alpha virt. eigenvalues --   24.12470  24.17764  49.89850  49.93990  50.01499
 Alpha virt. eigenvalues --   50.03680
  Beta  occ. eigenvalues --  -19.19365 -19.18578 -19.14042 -19.13653 -10.29379
  Beta  occ. eigenvalues --  -10.28767 -10.27958 -10.27792 -10.23608 -10.22973
  Beta  occ. eigenvalues --  -10.19649 -10.19339  -1.11500  -1.10278  -1.06840
  Beta  occ. eigenvalues --   -1.06653  -0.86048  -0.79791  -0.75050  -0.73071
  Beta  occ. eigenvalues --   -0.68163  -0.63418  -0.60601  -0.55542  -0.54748
  Beta  occ. eigenvalues --   -0.53437  -0.49992  -0.48828  -0.48142  -0.47435
  Beta  occ. eigenvalues --   -0.45728  -0.45430  -0.44163  -0.43825  -0.42082
  Beta  occ. eigenvalues --   -0.41471  -0.38150  -0.37380  -0.36790  -0.36247
  Beta  occ. eigenvalues --   -0.28953  -0.28496  -0.28250  -0.25726
  Beta virt. eigenvalues --   -0.12819  -0.01620  -0.00648   0.00084   0.00328
  Beta virt. eigenvalues --    0.01057   0.02308   0.02376   0.03200   0.03669
  Beta virt. eigenvalues --    0.04209   0.04410   0.05357   0.06543   0.06656
  Beta virt. eigenvalues --    0.07969   0.08667   0.08936   0.09042   0.10711
  Beta virt. eigenvalues --    0.11150   0.11420   0.11615   0.11648   0.12328
  Beta virt. eigenvalues --    0.12537   0.13396   0.13413   0.14116   0.14208
  Beta virt. eigenvalues --    0.14509   0.14726   0.15528   0.15849   0.16012
  Beta virt. eigenvalues --    0.16134   0.16557   0.17433   0.18076   0.18215
  Beta virt. eigenvalues --    0.19070   0.19508   0.19937   0.21707   0.22259
  Beta virt. eigenvalues --    0.22866   0.23134   0.23504   0.24296   0.24415
  Beta virt. eigenvalues --    0.25761   0.26670   0.27836   0.28281   0.28441
  Beta virt. eigenvalues --    0.28872   0.29852   0.30170   0.30781   0.31307
  Beta virt. eigenvalues --    0.31678   0.32030   0.33280   0.33373   0.33728
  Beta virt. eigenvalues --    0.34314   0.34655   0.35493   0.36754   0.37562
  Beta virt. eigenvalues --    0.38274   0.38338   0.39437   0.40379   0.41213
  Beta virt. eigenvalues --    0.43896   0.44384   0.45408   0.46313   0.47279
  Beta virt. eigenvalues --    0.49602   0.51064   0.53870   0.54222   0.55874
  Beta virt. eigenvalues --    0.57427   0.58586   0.59908   0.60224   0.60848
  Beta virt. eigenvalues --    0.61487   0.63259   0.63816   0.64047   0.65604
  Beta virt. eigenvalues --    0.65976   0.67065   0.68790   0.69926   0.70768
  Beta virt. eigenvalues --    0.72669   0.73499   0.75757   0.76773   0.78592
  Beta virt. eigenvalues --    0.80746   0.84273   0.84951   0.86538   0.87114
  Beta virt. eigenvalues --    0.89161   0.91385   0.92625   0.93580   0.96171
  Beta virt. eigenvalues --    0.97133   0.98532   0.99231   1.00099   1.01764
  Beta virt. eigenvalues --    1.02103   1.02347   1.05679   1.06297   1.07764
  Beta virt. eigenvalues --    1.09647   1.10006   1.11706   1.13223   1.19849
  Beta virt. eigenvalues --    1.19985   1.20454   1.21718   1.22713   1.24209
  Beta virt. eigenvalues --    1.27210   1.28407   1.30245   1.31833   1.33134
  Beta virt. eigenvalues --    1.36554   1.41854   1.42734   1.44394   1.45298
  Beta virt. eigenvalues --    1.49777   1.50921   1.52674   1.52848   1.54326
  Beta virt. eigenvalues --    1.55383   1.56298   1.58147   1.61346   1.63243
  Beta virt. eigenvalues --    1.64517   1.66049   1.66493   1.68275   1.68831
  Beta virt. eigenvalues --    1.70134   1.70703   1.72394   1.73892   1.76341
  Beta virt. eigenvalues --    1.77195   1.79410   1.79901   1.82729   1.84070
  Beta virt. eigenvalues --    1.86613   1.88889   1.95997   1.96304   1.99828
  Beta virt. eigenvalues --    2.00528   2.01556   2.03426   2.07718   2.09218
  Beta virt. eigenvalues --    2.10772   2.11764   2.12503   2.17032   2.18569
  Beta virt. eigenvalues --    2.19151   2.21686   2.24316   2.30004   2.38431
  Beta virt. eigenvalues --    2.45460   2.46279   2.47572   2.48536   2.49835
  Beta virt. eigenvalues --    2.51115   2.53163   2.54303   2.56230   2.57274
  Beta virt. eigenvalues --    2.59015   2.64412   2.67510   2.68583   2.70092
  Beta virt. eigenvalues --    2.70737   2.73206   2.77007   2.79329   2.80115
  Beta virt. eigenvalues --    2.84090   2.84942   2.88533   2.89435   2.91899
  Beta virt. eigenvalues --    2.92140   2.97181   2.99285   3.00497   3.00902
  Beta virt. eigenvalues --    3.03150   3.08985   3.12519   3.14041   3.16104
  Beta virt. eigenvalues --    3.20648   3.21655   3.22654   3.25008   3.32022
  Beta virt. eigenvalues --    3.32730   3.34993   3.36638   3.43179   3.49984
  Beta virt. eigenvalues --    3.53315   3.59758   3.64150   3.69425   3.73549
  Beta virt. eigenvalues --    3.76661   3.77342   3.81966   3.84012   4.02207
  Beta virt. eigenvalues --    4.06641   4.08385   4.14403   4.17440   4.18754
  Beta virt. eigenvalues --    4.22882   4.68712   4.97917   5.00542   5.04787
  Beta virt. eigenvalues --    5.06406   5.17705   5.23300   5.32935   5.40425
  Beta virt. eigenvalues --    5.64605   5.75749   5.80324   5.83549  23.63277
  Beta virt. eigenvalues --   23.72666  23.84059  23.91367  23.92032  23.92638
  Beta virt. eigenvalues --   24.12470  24.17764  49.89850  49.93990  50.01499
  Beta virt. eigenvalues --   50.03680
          Condensed to atoms (all electrons):
               1          2          3          4          5          6
     1  C    5.248832   0.156224   0.289174  -0.537948  -0.522107   0.007443
     2  O    0.156224   8.054369   0.365304   0.247072   0.024826  -0.000209
     3  C    0.289174   0.365304  14.334158  -3.794165   0.562203  -0.047733
     4  C   -0.537948   0.247072  -3.794165  23.770426  -9.006682   0.012762
     5  C   -0.522107   0.024826   0.562203  -9.006682  18.756653   0.384657
     6  O    0.007443  -0.000209  -0.047733   0.012762   0.384657   8.193984
     7  C    0.067732  -0.022075  -1.015940  -0.286766  -1.393123  -0.057412
     8  C   -0.006332   0.035167  -0.981117  -3.472662   0.769121  -0.177678
     9  C    0.420554  -0.612414  -3.317741  -2.197887  -3.049096   0.025993
    10  O   -0.000518   0.048202   0.004037   0.006541   0.025136   0.000336
    11  O   -0.000260   0.000509  -0.026605  -0.050664  -0.004618  -0.009531
    12  C   -0.002080  -0.000678   0.017330  -0.263626   0.100760  -0.002256
    13  H    0.408640  -0.066137   0.027359  -0.023952  -0.035820   0.000491
    14  H    0.389622  -0.028106  -0.034636   0.043864   0.040757  -0.000077
    15  H    0.387725  -0.028196  -0.033978   0.043886   0.055103  -0.000341
    16  H   -0.000475  -0.022920  -0.068986   0.693538  -0.245266  -0.011879
    17  H   -0.001056  -0.000946  -0.040984   0.007518  -0.044472  -0.001142
    18  H    0.000210   0.000108   0.004349  -0.000825   0.000380  -0.018358
    19  H   -0.000047  -0.000002   0.006741  -0.024716   0.072035  -0.021505
    20  H   -0.000181  -0.000019  -0.000405  -0.013508  -0.001181   0.007168
               7          8          9         10         11         12
     1  C    0.067732  -0.006332   0.420554  -0.000518  -0.000260  -0.002080
     2  O   -0.022075   0.035167  -0.612414   0.048202   0.000509  -0.000678
     3  C   -1.015940  -0.981117  -3.317741   0.004037  -0.026605   0.017330
     4  C   -0.286766  -3.472662  -2.197887   0.006541  -0.050664  -0.263626
     5  C   -1.393123   0.769121  -3.049096   0.025136  -0.004618   0.100760
     6  O   -0.057412  -0.177678   0.025993   0.000336  -0.009531  -0.002256
     7  C   12.011227  -6.376630   2.601728  -0.094791   0.696934  -0.022729
     8  C   -6.376630  19.733929  -3.525951  -0.153209  -0.655632  -0.040788
     9  C    2.601728  -3.525951  15.949436   0.342595   0.059750  -0.015615
    10  O   -0.094791  -0.153209   0.342595   8.156037  -0.001804   0.000593
    11  O    0.696934  -0.655632   0.059750  -0.001804   8.154060   0.195131
    12  C   -0.022729  -0.040788  -0.015615   0.000593   0.195131   5.112079
    13  H    0.008388  -0.009246   0.050665  -0.000858   0.000004  -0.000108
    14  H    0.001054   0.000254  -0.055797   0.000615   0.000045   0.000173
    15  H   -0.005107   0.006710  -0.069647   0.000710   0.000063   0.000147
    16  H   -0.056266  -0.024983   0.029833   0.000308  -0.002403  -0.002515
    17  H   -0.124111   0.613704  -0.081987  -0.009858  -0.023872  -0.003799
    18  H   -0.031182   0.010471   0.005998  -0.000121  -0.025123   0.414561
    19  H   -0.031055  -0.033649  -0.000233  -0.000031  -0.037054   0.409574
    20  H    0.022912   0.020767  -0.004996   0.000045  -0.065166   0.391185
              13         14         15         16         17         18
     1  C    0.408640   0.389622   0.387725  -0.000475  -0.001056   0.000210
     2  O   -0.066137  -0.028106  -0.028196  -0.022920  -0.000946   0.000108
     3  C    0.027359  -0.034636  -0.033978  -0.068986  -0.040984   0.004349
     4  C   -0.023952   0.043864   0.043886   0.693538   0.007518  -0.000825
     5  C   -0.035820   0.040757   0.055103  -0.245266  -0.044472   0.000380
     6  O    0.000491  -0.000077  -0.000341  -0.011879  -0.001142  -0.018358
     7  C    0.008388   0.001054  -0.005107  -0.056266  -0.124111  -0.031182
     8  C   -0.009246   0.000254   0.006710  -0.024983   0.613704   0.010471
     9  C    0.050665  -0.055797  -0.069647   0.029833  -0.081987   0.005998
    10  O   -0.000858   0.000615   0.000710   0.000308  -0.009858  -0.000121
    11  O    0.000004   0.000045   0.000063  -0.002403  -0.023872  -0.025123
    12  C   -0.000108   0.000173   0.000147  -0.002515  -0.003799   0.414561
    13  H    0.474343  -0.024703  -0.023660   0.002202  -0.000084   0.000015
    14  H   -0.024703   0.544203  -0.049084  -0.008277  -0.000156  -0.000028
    15  H   -0.023660  -0.049084   0.545282  -0.009149  -0.000052   0.000029
    16  H    0.002202  -0.008277  -0.009149   0.472188   0.001136  -0.000572
    17  H   -0.000084  -0.000156  -0.000052   0.001136   0.467935  -0.000074
    18  H    0.000015  -0.000028   0.000029  -0.000572  -0.000074   0.531105
    19  H    0.000004   0.000009   0.000000  -0.000475  -0.000234  -0.044495
    20  H   -0.000012   0.000015   0.000017  -0.000068  -0.000334  -0.026229
              19         20
     1  C   -0.000047  -0.000181
     2  O   -0.000002  -0.000019
     3  C    0.006741  -0.000405
     4  C   -0.024716  -0.013508
     5  C    0.072035  -0.001181
     6  O   -0.021505   0.007168
     7  C   -0.031055   0.022912
     8  C   -0.033649   0.020767
     9  C   -0.000233  -0.004996
    10  O   -0.000031   0.000045
    11  O   -0.037054  -0.065166
    12  C    0.409574   0.391185
    13  H    0.000004  -0.000012
    14  H    0.000009   0.000015
    15  H    0.000000   0.000017
    16  H   -0.000475  -0.000068
    17  H   -0.000234  -0.000334
    18  H   -0.044495  -0.026229
    19  H    0.540830  -0.029864
    20  H   -0.029864   0.518890
          Atomic-Atomic Spin Densities.
               1          2          3          4          5          6
     1  C    0.000000   0.000000  -0.000000   0.000000  -0.000000  -0.000000
     2  O    0.000000  -0.000000  -0.000000   0.000000  -0.000000   0.000000
     3  C   -0.000000  -0.000000   0.000000  -0.000000   0.000000  -0.000000
     4  C    0.000000   0.000000  -0.000000   0.000000  -0.000000   0.000000
     5  C   -0.000000  -0.000000   0.000000  -0.000000   0.000000  -0.000000
     6  O   -0.000000   0.000000  -0.000000   0.000000  -0.000000  -0.000000
     7  C    0.000000   0.000000  -0.000000   0.000000  -0.000000   0.000000
     8  C    0.000000  -0.000000   0.000000  -0.000000   0.000000  -0.000000
     9  C    0.000000   0.000000  -0.000000   0.000000  -0.000000   0.000000
    10  O   -0.000000   0.000000  -0.000000  -0.000000  -0.000000  -0.000000
    11  O   -0.000000  -0.000000   0.000000  -0.000000   0.000000  -0.000000
    12  C   -0.000000  -0.000000   0.000000  -0.000000   0.000000  -0.000000
    13  H   -0.000000   0.000000  -0.000000   0.000000  -0.000000  -0.000000
    14  H   -0.000000  -0.000000   0.000000  -0.000000   0.000000   0.000000
    15  H   -0.000000  -0.000000   0.000000  -0.000000   0.000000   0.000000
    16  H    0.000000   0.000000  -0.000000   0.000000  -0.000000  -0.000000
    17  H    0.000000  -0.000000  -0.000000   0.000000  -0.000000   0.000000
    18  H    0.000000   0.000000  -0.000000   0.000000  -0.000000   0.000000
    19  H   -0.000000  -0.000000   0.000000  -0.000000   0.000000  -0.000000
    20  H   -0.000000  -0.000000   0.000000  -0.000000   0.000000  -0.000000
               7          8          9         10         11         12
     1  C    0.000000   0.000000   0.000000  -0.000000  -0.000000  -0.000000
     2  O    0.000000  -0.000000   0.000000   0.000000  -0.000000  -0.000000
     3  C   -0.000000   0.000000  -0.000000  -0.000000   0.000000   0.000000
     4  C    0.000000  -0.000000   0.000000  -0.000000  -0.000000  -0.000000
     5  C   -0.000000   0.000000  -0.000000  -0.000000   0.000000   0.000000
     6  O    0.000000  -0.000000   0.000000  -0.000000  -0.000000  -0.000000
     7  C   -0.000000   0.000000  -0.000000  -0.000000  -0.000000  -0.000000
     8  C    0.000000  -0.000000   0.000000  -0.000000   0.000000   0.000000
     9  C   -0.000000   0.000000  -0.000000   0.000000  -0.000000  -0.000000
    10  O   -0.000000  -0.000000   0.000000  -0.000000   0.000000   0.000000
    11  O   -0.000000   0.000000  -0.000000   0.000000  -0.000000   0.000000
    12  C   -0.000000   0.000000  -0.000000   0.000000   0.000000   0.000000
    13  H   -0.000000   0.000000  -0.000000   0.000000  -0.000000  -0.000000
    14  H    0.000000  -0.000000   0.000000  -0.000000   0.000000   0.000000
    15  H    0.000000  -0.000000   0.000000  -0.000000   0.000000   0.000000
    16  H    0.000000  -0.000000   0.000000   0.000000  -0.000000  -0.000000
    17  H    0.000000  -0.000000   0.000000  -0.000000   0.000000  -0.000000
    18  H   -0.000000   0.000000  -0.000000  -0.000000  -0.000000  -0.000000
    19  H   -0.000000   0.000000  -0.000000   0.000000  -0.000000   0.000000
    20  H    0.000000  -0.000000  -0.000000   0.000000   0.000000   0.000000
              13         14         15         16         17         18
     1  C   -0.000000  -0.000000  -0.000000   0.000000   0.000000   0.000000
     2  O    0.000000  -0.000000  -0.000000   0.000000  -0.000000   0.000000
     3  C   -0.000000   0.000000   0.000000  -0.000000  -0.000000  -0.000000
     4  C    0.000000  -0.000000  -0.000000   0.000000   0.000000   0.000000
     5  C   -0.000000   0.000000   0.000000  -0.000000  -0.000000  -0.000000
     6  O   -0.000000   0.000000   0.000000  -0.000000   0.000000   0.000000
     7  C   -0.000000   0.000000   0.000000   0.000000   0.000000  -0.000000
     8  C    0.000000  -0.000000  -0.000000  -0.000000  -0.000000   0.000000
     9  C   -0.000000   0.000000   0.000000   0.000000   0.000000  -0.000000
    10  O    0.000000  -0.000000  -0.000000   0.000000  -0.000000  -0.000000
    11  O   -0.000000   0.000000   0.000000  -0.000000   0.000000  -0.000000
    12  C   -0.000000   0.000000   0.000000  -0.000000  -0.000000  -0.000000
    13  H   -0.000000   0.000000   0.000000   0.000000   0.000000  -0.000000
    14  H    0.000000  -0.000000  -0.000000  -0.000000  -0.000000   0.000000
    15  H    0.000000  -0.000000   0.000000  -0.000000  -0.000000   0.000000
    16  H    0.000000  -0.000000  -0.000000   0.000000   0.000000   0.000000
    17  H    0.000000  -0.000000  -0.000000   0.000000  -0.000000   0.000000
    18  H   -0.000000   0.000000   0.000000   0.000000   0.000000   0.000000
    19  H   -0.000000   0.000000   0.000000  -0.000000  -0.000000  -0.000000
    20  H   -0.000000   0.000000   0.000000  -0.000000  -0.000000  -0.000000
              19         20
     1  C   -0.000000  -0.000000
     2  O   -0.000000  -0.000000
     3  C    0.000000   0.000000
     4  C   -0.000000  -0.000000
     5  C    0.000000   0.000000
     6  O   -0.000000  -0.000000
     7  C   -0.000000   0.000000
     8  C    0.000000  -0.000000
     9  C   -0.000000  -0.000000
    10  O    0.000000   0.000000
    11  O   -0.000000   0.000000
    12  C    0.000000   0.000000
    13  H   -0.000000  -0.000000
    14  H    0.000000   0.000000
    15  H    0.000000   0.000000
    16  H   -0.000000  -0.000000
    17  H   -0.000000  -0.000000
    18  H   -0.000000  -0.000000
    19  H    0.000000   0.000000
    20  H    0.000000  -0.000000
 Mulliken charges and spin densities:
               1          2
     1  C   -0.305152  -0.000000
     2  O   -0.150078  -0.000000
     3  C   -0.248364   0.000000
     4  C    0.847794  -0.000000
     5  C   -0.489266   0.000000
     6  O   -0.284714  -0.000000
     7  C    0.107212  -0.000000
     8  C    0.267754   0.000000
     9  C   -0.555187  -0.000000
    10  O   -0.323967   0.000000
    11  O   -0.203765  -0.000000
    12  C   -0.287339  -0.000000
    13  H    0.212468  -0.000000
    14  H    0.180252   0.000000
    15  H    0.179541   0.000000
    16  H    0.255031  -0.000000
    17  H    0.242868   0.000000
    18  H    0.179782   0.000000
    19  H    0.194165  -0.000000
    20  H    0.180965  -0.000000
 Sum of Mulliken charges =  -0.00000   0.00000
 Mulliken charges and spin densities with hydrogens summed into heavy atoms:
               1          2
     1  C    0.267108  -0.000000
     2  O   -0.150078  -0.000000
     3  C   -0.248364   0.000000
     4  C    1.102826  -0.000000
     5  C   -0.489266   0.000000
     6  O   -0.284714  -0.000000
     7  C    0.107212  -0.000000
     8  C    0.510622   0.000000
     9  C   -0.555187  -0.000000
    10  O   -0.323967   0.000000
    11  O   -0.203765  -0.000000
    12  C    0.267573  -0.000000
 Electronic spatial extent (au):  <R**2>=           2316.2279
 Charge=              0.0000 electrons
 Dipole moment (field-independent basis, Debye):
    X=              0.2161    Y=              3.9658    Z=             -0.7968  Tot=              4.0508
 Quadrupole moment (field-independent basis, Debye-Ang):
   XX=            -53.9801   YY=            -85.6053   ZZ=            -68.9923
   XY=            -13.9840   XZ=             -0.2034   YZ=             -0.1355
 Traceless Quadrupole moment (field-independent basis, Debye-Ang):
   XX=             15.5458   YY=            -16.0794   ZZ=              0.5336
   XY=            -13.9840   XZ=             -0.2034   YZ=             -0.1355
 Octapole moment (field-independent basis, Debye-Ang**2):
  XXX=              5.3586  YYY=             82.2852  ZZZ=            -29.8121  XYY=             13.9372
  XXY=             59.2665  XXZ=            -15.7862  XZZ=              0.5876  YZZ=             20.6694
  YYZ=            -13.1794  XYZ=             -0.4349
 Hexadecapole moment (field-independent basis, Debye-Ang**3):
 XXXX=          -1663.4567 YYYY=           -933.2908 ZZZZ=           -100.9448 XXXY=           -118.3908
 XXXZ=            -40.7276 YYYX=           -169.9480 YYYZ=             20.4668 ZZZX=            -49.6390
 ZZZY=             19.9943 XXYY=           -518.3667 XXZZ=           -358.4861 YYZZ=           -148.9513
 XXYZ=              9.9762 YYXZ=            -13.5666 ZZXY=            -18.7469
 N-N= 6.859180753693D+02 E-N=-2.800940692692D+03  KE= 6.083992086075D+02
                          Isotropic Fermi Contact Couplings
        Atom                 a.u.       MegaHertz       Gauss      10(-4) cm-1
     1  C(13)             -0.00000      -0.00000      -0.00000      -0.00000
     2  O(17)             -0.00000       0.00000       0.00000       0.00000
     3  C(13)              0.00000       0.00000       0.00000       0.00000
     4  C(13)             -0.00000      -0.00000      -0.00000      -0.00000
     5  C(13)             -0.00000      -0.00000      -0.00000      -0.00000
     6  O(17)             -0.00000       0.00000       0.00000       0.00000
     7  C(13)              0.00000       0.00000       0.00000       0.00000
     8  C(13)              0.00000       0.00000       0.00000       0.00000
     9  C(13)             -0.00000      -0.00000      -0.00000      -0.00000
    10  O(17)             -0.00000       0.00000       0.00000       0.00000
    11  O(17)             -0.00000       0.00000       0.00000       0.00000
    12  C(13)              0.00000       0.00000       0.00000       0.00000
    13  H(1)              -0.00000      -0.00000      -0.00000      -0.00000
    14  H(1)              -0.00000      -0.00000      -0.00000      -0.00000
    15  H(1)              -0.00000      -0.00000      -0.00000      -0.00000
    16  H(1)               0.00000       0.00000       0.00000       0.00000
    17  H(1)              -0.00000      -0.00000      -0.00000      -0.00000
    18  H(1)               0.00000       0.00000       0.00000       0.00000
    19  H(1)               0.00000       0.00000       0.00000       0.00000
    20  H(1)              -0.00000      -0.00000      -0.00000      -0.00000
 --------------------------------------------------------
       Center         ----  Spin Dipole Couplings  ----
                      3XX-RR        3YY-RR        3ZZ-RR
 --------------------------------------------------------
     1   Atom       -0.000000      0.000000      0.000000
     2   Atom       -0.000000     -0.000000      0.000000
     3   Atom       -0.000000      0.000000      0.000000
     4   Atom        0.000000      0.000000     -0.000000
     5   Atom       -0.000000      0.000000      0.000000
     6   Atom        0.000000     -0.000000     -0.000000
     7   Atom        0.000000     -0.000000     -0.000000
     8   Atom       -0.000000     -0.000000      0.000000
     9   Atom       -0.000000      0.000000     -0.000000
    10   Atom       -0.000000      0.000000      0.000000
    11   Atom        0.000000      0.000000     -0.000000
    12   Atom        0.000000     -0.000000     -0.000000
    13   Atom       -0.000000      0.000000      0.000000
    14   Atom        0.000000      0.000000     -0.000000
    15   Atom       -0.000000      0.000000     -0.000000
    16   Atom       -0.000000      0.000000     -0.000000
    17   Atom        0.000000     -0.000000      0.000000
    18   Atom        0.000000     -0.000000     -0.000000
    19   Atom        0.000000      0.000000     -0.000000
    20   Atom       -0.000000      0.000000      0.000000
 --------------------------------------------------------
                        XY            XZ            YZ
 --------------------------------------------------------
     1   Atom       -0.000000      0.000000     -0.000000
     2   Atom        0.000000     -0.000000     -0.000000
     3   Atom       -0.000000     -0.000000      0.000000
     4   Atom        0.000000      0.000000      0.000000
     5   Atom       -0.000000      0.000000     -0.000000
     6   Atom        0.000000     -0.000000      0.000000
     7   Atom        0.000000      0.000000     -0.000000
     8   Atom       -0.000000     -0.000000      0.000000
     9   Atom       -0.000000     -0.000000     -0.000000
    10   Atom        0.000000      0.000000      0.000000
    11   Atom        0.000000      0.000000      0.000000
    12   Atom        0.000000      0.000000     -0.000000
    13   Atom       -0.000000      0.000000      0.000000
    14   Atom        0.000000     -0.000000      0.000000
    15   Atom        0.000000      0.000000     -0.000000
    16   Atom       -0.000000      0.000000     -0.000000
    17   Atom        0.000000      0.000000     -0.000000
    18   Atom        0.000000     -0.000000     -0.000000
    19   Atom        0.000000     -0.000000     -0.000000
    20   Atom        0.000000     -0.000000     -0.000000
 --------------------------------------------------------


 ---------------------------------------------------------------------------------
              Anisotropic Spin Dipole Couplings in Principal Axis System
 ---------------------------------------------------------------------------------

       Atom             a.u.   MegaHertz   Gauss  10(-4) cm-1        Axes

              Baa    -0.0000    -0.000    -0.000    -0.000  0.8633  0.3442 -0.3693
     1 C(13)  Bbb    -0.0000    -0.000    -0.000    -0.000 -0.0373  0.7730  0.6333
              Bcc     0.0000     0.000     0.000     0.000  0.5034 -0.5329  0.6802
 
              Baa    -0.0000     0.000     0.000     0.000 -0.0422  0.7994  0.5993
     2 O(17)  Bbb    -0.0000     0.000     0.000     0.000  0.8534 -0.2831  0.4378
              Bcc     0.0000    -0.000    -0.000    -0.000 -0.5196 -0.5299  0.6702
 
              Baa    -0.0000    -0.000    -0.000    -0.000  0.8858  0.4630 -0.0326
     3 C(13)  Bbb     0.0000     0.000     0.000     0.000  0.3613 -0.6437  0.6746
              Bcc     0.0000     0.000     0.000     0.000 -0.2914  0.6093  0.7374
 
              Baa    -0.0000    -0.000    -0.000    -0.000 -0.2879 -0.1913  0.9384
     4 C(13)  Bbb    -0.0000    -0.000    -0.000    -0.000  0.8111 -0.5696  0.1328
              Bcc     0.0000     0.000     0.000     0.000  0.5091  0.7993  0.3192
 
              Baa    -0.0000    -0.000    -0.000    -0.000 -0.4400  0.4869  0.7545
     5 C(13)  Bbb    -0.0000    -0.000    -0.000    -0.000  0.8128  0.5732  0.1041
              Bcc     0.0000     0.000     0.000     0.000 -0.3818  0.6591 -0.6479
 
              Baa    -0.0000     0.000     0.000     0.000  0.0898 -0.4853  0.8697
     6 O(17)  Bbb     0.0000    -0.000    -0.000    -0.000 -0.1353  0.8592  0.4934
              Bcc     0.0000    -0.000    -0.000    -0.000  0.9867  0.1620 -0.0115
 
              Baa    -0.0000    -0.000    -0.000    -0.000 -0.2661  0.8426  0.4682
     7 C(13)  Bbb    -0.0000    -0.000    -0.000    -0.000 -0.2578 -0.5302  0.8077
              Bcc     0.0000     0.000     0.000     0.000  0.9288  0.0943  0.3583
 
              Baa    -0.0000    -0.000    -0.000    -0.000  0.4005  0.9163 -0.0037
     8 C(13)  Bbb    -0.0000    -0.000    -0.000    -0.000  0.9092 -0.3970  0.1254
              Bcc     0.0000     0.000     0.000     0.000 -0.1134  0.0536  0.9921
 
              Baa    -0.0000    -0.000    -0.000    -0.000  0.8918  0.3010  0.3378
     9 C(13)  Bbb    -0.0000    -0.000    -0.000    -0.000 -0.3912  0.1379  0.9099
              Bcc     0.0000     0.000     0.000     0.000 -0.2273  0.9436 -0.2407
 
              Baa    -0.0000     0.000     0.000     0.000  0.8609 -0.5085 -0.0143
    10 O(17)  Bbb     0.0000    -0.000    -0.000    -0.000  0.4517  0.7771 -0.4383
              Bcc     0.0000    -0.000    -0.000    -0.000  0.2340  0.3709  0.8987
 
              Baa    -0.0000     0.000     0.000     0.000 -0.0381 -0.3937  0.9185
    11 O(17)  Bbb    -0.0000     0.000     0.000     0.000  0.7300 -0.6386 -0.2434
              Bcc     0.0000    -0.000    -0.000    -0.000  0.6823  0.6612  0.3117
 
              Baa    -0.0000    -0.000    -0.000    -0.000 -0.2540  0.9572  0.1388
    12 C(13)  Bbb    -0.0000    -0.000    -0.000    -0.000 -0.0734 -0.1622  0.9840
              Bcc     0.0000     0.000     0.000     0.000  0.9644  0.2397  0.1115
 
              Baa    -0.0000    -0.000    -0.000    -0.000  0.9527  0.2940 -0.0774
    13 H(1)   Bbb     0.0000     0.000     0.000     0.000  0.1293 -0.1613  0.9784
              Bcc     0.0000     0.000     0.000     0.000 -0.2752  0.9421  0.1917
 
              Baa    -0.0000    -0.000    -0.000    -0.000  0.4313 -0.4519  0.7809
    14 H(1)   Bbb     0.0000     0.000     0.000     0.000 -0.4793  0.6186  0.6226
              Bcc     0.0000     0.000     0.000     0.000  0.7644  0.6428 -0.0502
 
              Baa    -0.0000    -0.000    -0.000    -0.000 -0.5834  0.1104  0.8047
    15 H(1)   Bbb     0.0000     0.000     0.000     0.000  0.6949  0.5807  0.4241
              Bcc     0.0000     0.000     0.000     0.000 -0.4205  0.8066 -0.4155
 
              Baa    -0.0000    -0.000    -0.000    -0.000  0.7349  0.6716 -0.0943
    16 H(1)   Bbb    -0.0000    -0.000    -0.000    -0.000  0.0075  0.1309  0.9914
              Bcc     0.0000     0.000     0.000     0.000 -0.6782  0.7292 -0.0912
 
              Baa    -0.0000    -0.000    -0.000    -0.000 -0.5684  0.8170  0.0965
    17 H(1)   Bbb     0.0000     0.000     0.000     0.000  0.0354 -0.0929  0.9950
              Bcc     0.0000     0.000     0.000     0.000  0.8220  0.5690  0.0239
 
              Baa    -0.0000    -0.000    -0.000    -0.000 -0.0469  0.2100  0.9766
    18 H(1)   Bbb    -0.0000    -0.000    -0.000    -0.000 -0.4937  0.8450 -0.2055
              Bcc     0.0000     0.000     0.000     0.000  0.8683  0.4918 -0.0641
 
              Baa    -0.0000    -0.000    -0.000    -0.000  0.0299  0.1974  0.9799
    19 H(1)   Bbb     0.0000     0.000     0.000     0.000 -0.4838  0.8607 -0.1586
              Bcc     0.0000     0.000     0.000     0.000  0.8746  0.4694 -0.1212
 
              Baa    -0.0000    -0.000    -0.000    -0.000  0.8822 -0.4698 -0.0326
    20 H(1)   Bbb    -0.0000    -0.000    -0.000    -0.000  0.2412  0.3912  0.8881
              Bcc     0.0000     0.000     0.000     0.000  0.4044  0.7914 -0.4584
 

 ---------------------------------------------------------------------------------

 No NMR shielding tensors so no spin-rotation constants.
 Leave Link  601 at Sat Feb 10 10:28:03 2024, MaxMem=  4026531840 cpu:               5.2 elap:               1.3
 (Enter /sysapps/ubuntu-applications/gaussian/Gaussian/AVX2/g16/l701.exe)
 ... and contract with generalized density number  0.
 Compute integral first derivatives.
 D1PCM: PCM CHGder 1st derivatives, ID1Alg=3 FixD1E=F DoIter=F DoCFld=F I1PDM=0.
 GePol: Maximum number of non-zero 1st derivatives   =     209
 Leave Link  701 at Sat Feb 10 10:28:08 2024, MaxMem=  4026531840 cpu:              20.5 elap:               4.7
 (Enter /sysapps/ubuntu-applications/gaussian/Gaussian/AVX2/g16/l702.exe)
 L702 exits ... SP integral derivatives will be done elsewhere.
 Leave Link  702 at Sat Feb 10 10:28:08 2024, MaxMem=  4026531840 cpu:               0.3 elap:               0.1
 (Enter /sysapps/ubuntu-applications/gaussian/Gaussian/AVX2/g16/l703.exe)
 Integral derivatives from FoFJK, PRISM(SPDF).
 Compute integral first derivatives, UseDBF=F ICtDFT=           0.
 Calling FoFJK, ICntrl=      2127 FMM=F ISym2X=0 I1Cent= 0 IOpClX= 1 NMat=1 NMatS=1 NMatT=0.
 FoFJK:  IHMeth= 1 ICntrl=    2127 DoSepK=F KAlg= 0 I1Cent=           0 FoldK=F
[...]
 0.13470085,0.00016451,-0.00072554,0.00003492,0.00079059,0.00269528,-0.
 00015641,-0.01354191,0.01002791,-0.00142979,-0.00138883,0.00131692,-0.
 00035578,0.00625805,0.01093921,-0.00255612,0.00373096,0.00853466,0.000
 72787,-0.15870719,-0.13148941,0.00183507,0.64748142,0.00052198,0.00148
 650,-0.00000710,0.00700469,-0.00598066,0.00098618,0.02451653,0.0060761
 1,0.00171325,0.00114265,-0.00037462,0.00019686,-0.01766499,-0.02273859
 ,-0.00034398,0.00586642,-0.00438493,0.00022298,-0.13930674,-0.37181019
 ,0.01000179,0.04069963,0.78486350,0.00002847,-0.00017845,-0.00006959,-
 0.00044784,0.00044461,0.00067207,-0.00290753,0.00108383,0.00833373,-0.
 00111226,0.00024219,0.00606850,0.00178044,0.00044645,0.00059600,-0.000
 01913,0.00107769,0.00113949,0.00015186,0.00986046,-0.04832401,0.034190
 45,-0.02950285,0.09333037,-0.00319898,-0.00528986,-0.00036505,-0.04420
 862,0.03784518,-0.00564426,-0.11564090,0.04250122,-0.00553164,0.004834
 06,-0.01811701,0.00123153,0.02574242,-0.01623712,0.00423600,-0.0088557
 1,0.00347833,-0.00067748,-0.05835495,-0.02554198,-0.00363100,-0.225058
 86,0.04986155,-0.01558974,0.64426185,-0.00507703,0.00027601,-0.0001790
 0,0.01496835,0.00197395,0.00120782,0.03529392,-0.12737218,0.00492386,0
 .00929937,-0.02174517,0.00137833,-0.01483689,-0.00066832,-0.00156286,0
 .00680360,0.00497011,0.00079602,-0.03371342,-0.00123877,-0.00257690,0.
 03732394,-0.10047689,0.00373048,0.16713535,0.72154125,-0.00043164,-0.0
 0016334,0.00499278,-0.00448351,0.00302754,0.00079275,-0.00451381,0.005
 60781,-0.07631008,-0.00031167,-0.00016423,0.00087009,0.00269329,-0.001
 61408,-0.00436605,-0.00120485,-0.00026805,0.00072417,-0.00089300,-0.00
 252726,-0.01363753,-0.01449410,0.00588053,-0.05970672,0.02631627,-0.01
 249987,0.18842055,0.00259975,0.00050584,0.00023398,0.00295299,0.005617
 27,-0.00023765,0.01409283,-0.00928456,0.00016236,0.00358680,0.00496004
 ,0.00006772,-0.00838426,0.00739363,-0.00145920,0.00210665,-0.00272998,
 0.00005561,0.01215063,0.01090850,0.00074665,-0.05527705,-0.06801773,-0
 .00156242,-0.24482403,-0.24390633,-0.00231832,0.28438234,-0.00095629,0
 .00113406,-0.00018431,-0.00298707,0.00132838,-0.00025140,-0.01957269,-
 0.06889212,0.00293699,0.00897706,-0.00475615,0.00122464,0.00243509,0.0
 0531465,-0.00031879,-0.00206239,-0.00387474,-0.00033484,0.01591859,0.0
 1264754,0.00134565,-0.05165598,-0.01854719,-0.00126509,-0.23045250,-0.
 47625460,0.00211325,0.29571535,0.55392018,0.00031290,-0.00004759,-0.00
 066939,0.00015913,0.00041226,0.00031684,0.00057746,0.00369021,0.018116
 49,-0.00022346,0.00053787,0.00086778,-0.00075779,0.00038221,0.00061832
 ,0.00031025,-0.00000702,0.00001874,-0.00021372,0.00075987,0.00567182,-
 0.00279628,-0.00361275,0.01882638,-0.00262656,0.00151911,-0.06374832,0
 .00536925,-0.00341973,0.02624578,0.00033327,-0.00078690,0.00004416,-0.
 00147286,0.00247737,-0.00025250,0.00014356,0.00116391,0.00004522,0.000
 79266,0.00765318,-0.00016059,-0.03656951,0.00583298,-0.00443197,0.0076
 2092,-0.00097984,0.00059883,-0.30462125,0.03644734,-0.02496285,-0.0929
 4401,-0.02623174,-0.00500279,0.04448628,0.00006855,0.00360932,-0.01879
 911,-0.01436400,-0.00093945,0.54691671,-0.00019906,0.00014809,-0.00002
 747,0.00116602,0.00067088,0.00006997,-0.00213409,-0.00000041,-0.000109
 51,0.00104583,-0.00601269,-0.00001163,0.03281525,0.00581138,0.00384553
 ,-0.00347481,0.00365094,-0.00012912,0.00129243,-0.11252766,0.01244014,
 -0.04862082,0.01152592,-0.00455289,0.00441391,-0.00536380,0.00007688,-
 0.00413802,-0.00160947,0.00000993,0.09397575,0.28208520,-0.00003227,0.
 00001402,0.00004289,0.00026475,0.00033463,0.00023485,-0.00012093,-0.00
 034157,-0.00162480,0.00047412,0.00104961,0.00033805,-0.00535848,-0.000
 81654,0.00710072,0.00202337,0.00015975,-0.00185756,-0.01563698,0.01768
 739,-0.03603297,-0.00634723,-0.00434194,0.01027255,0.00639498,0.001559
 24,0.00737012,-0.00216652,-0.00217160,-0.00116746,0.00325765,-0.048617
 79,0.06234852,-0.00013262,0.00024861,-0.00001347,0.00066303,-0.0004627
 7,0.00004579,-0.00056261,-0.00036564,0.00004105,0.00030308,-0.00235976
 ,0.00012380,0.00223954,0.00303103,0.00032493,-0.00968564,0.00036973,0.
 00031024,-0.04366086,-0.02586620,0.00394861,0.00814452,0.00646588,0.00
 032702,-0.00782154,-0.00143736,-0.00108364,0.00332495,0.00302255,0.000
 22626,-0.10134494,-0.03516407,0.00760432,0.51220788,-0.00005073,0.0001
 6490,0.00000410,0.00030999,-0.00048338,0.00001016,0.00004519,-0.000670
 39,-0.00015778,0.00008971,-0.00163830,0.00036164,0.00509399,0.00133674
 ,-0.00045185,0.00114824,-0.00032722,-0.00052336,-0.01323875,0.00635671
 ,-0.00593718,0.01007014,0.00234975,0.00162057,-0.00734325,0.00105261,0
 .00051451,0.00326930,0.00199358,-0.00021137,-0.05073556,-0.14297051,0.
 02269779,-0.10700795,0.50648925,0.00005358,-0.00008017,0.00002535,-0.0
 0026766,-0.00000441,-0.00020678,0.00014325,0.00030608,-0.00056040,-0.0
 0057139,0.00014305,0.00118508,-0.00017168,-0.00037969,-0.00143641,-0.0
 0033980,0.00035943,-0.00231433,0.00100718,-0.00654039,-0.01163232,-0.0
 0216736,0.00062944,0.00397605,-0.00044861,-0.00036769,0.00419889,-0.00
 018619,-0.00008513,-0.00125938,0.01429443,0.02513556,-0.05418526,0.029
 10142,0.02367705,0.58640116,-0.29175808,-0.08754057,-0.01593584,-0.024
 24773,0.00172258,-0.00209668,0.00198460,0.00352949,-0.00004828,-0.0005
 9387,-0.00007754,-0.00008118,0.00090864,0.00011906,0.00008872,-0.00046
 059,-0.00039093,-0.00004351,0.00022331,0.00008605,0.00000725,-0.000184
 13,0.00033308,-0.00001938,-0.00068794,-0.00089960,-0.00005047,0.000114
 46,0.00038485,-0.00000434,-0.00024129,0.00000524,-0.00001719,0.0000605
 3,0.00004333,-0.00001263,0.32040427,-0.10238342,-0.08109832,-0.0071109
 8,0.04084191,0.00244237,0.00330664,0.00207646,-0.00514971,0.00046836,0
 .00021558,-0.00071566,0.00005043,-0.00047740,0.00043298,-0.00006349,0.
 00029004,0.00017701,0.00002070,-0.00027926,-0.00010420,-0.00002392,0.0
 0011973,-0.00045113,0.00003023,0.00125921,0.00085935,0.00007150,-0.000
 27223,-0.00013788,-0.00001876,0.00009801,0.00005852,0.00000699,-0.0000
 1506,-0.00001448,0.00000820,0.08764690,0.08995284,-0.01519031,-0.00584
 452,-0.05186194,-0.00403700,-0.00000041,-0.00039162,0.00000981,0.00058
 305,0.00062460,-0.00007514,0.00003100,0.00020520,0.00008176,0.00000331
 ,0.00021627,-0.00004853,-0.00004334,-0.00002906,0.00003008,0.00001225,
 -0.00001991,-0.00002035,0.00004912,-0.00007221,-0.00013941,-0.00010889
 ,0.00031957,0.00002429,0.00003702,-0.00004666,-0.00002386,-0.00000108,
 -0.00001492,0.00000546,0.00000435,0.00000441,0.01872597,0.00521069,0.0
 4747270,-0.07280702,-0.03804016,0.06568549,-0.00044512,0.01691174,-0.0
 1978982,0.00485734,0.00261565,-0.00176644,0.00021753,-0.00166303,0.000
 29764,-0.00037491,-0.00003701,0.00068298,0.00008666,0.00007663,-0.0000
 7682,0.00013410,-0.00015401,-0.00015819,0.00002939,0.00003760,-0.00005
 355,0.00017621,0.00026522,0.00082924,-0.00032018,0.00000550,-0.0000994
 6,-0.00002780,0.00000248,0.00001136,0.00000131,-0.00000485,-0.00000376
 ,-0.00484189,-0.01315331,0.02510588,0.07243985,-0.03413613,-0.10438354
 ,0.09957099,0.00686009,-0.02742938,0.02475567,-0.00747818,-0.00050769,
 -0.00030258,0.00222112,0.00117573,0.00011033,-0.00175039,-0.00010529,-
 0.00012643,0.00079193,0.00063190,0.00002639,-0.00012044,-0.00001711,0.
 00000931,0.00006252,-0.00021545,0.00002511,0.00025444,-0.00040523,-0.0
 0050750,0.00038837,-0.00013436,0.00005302,0.00015847,-0.00004493,0.000
 01015,-0.00005108,-0.00003117,0.00000383,-0.00318804,-0.00315206,0.008
 26120,0.03164557,0.12306538,0.06089805,0.10401676,-0.23521762,-0.00529
 938,0.00372812,0.00291601,0.00217459,0.00038549,0.00103794,-0.00068306
 ,0.00051440,-0.00043684,0.00068089,-0.00044144,-0.00006903,-0.00027508
 ,-0.00017357,0.00000065,0.00006540,0.00008559,0.00006636,0.00005133,0.
 00008161,-0.00001689,-0.00034573,0.00032156,-0.00016315,-0.00005104,-0
 .00013526,0.00002703,0.00008848,-0.00004373,-0.00000656,-0.00001746,-0
 .00001537,0.00000648,-0.00050681,-0.00274678,0.00376769,-0.06446390,-0
 .11715993,0.24694730,-0.05672753,-0.02405278,-0.03404345,-0.00419993,0
 .01879350,0.01666223,0.00480476,0.00273067,0.00201639,0.00005055,-0.00
 145105,-0.00000610,-0.00007634,-0.00019172,-0.00067987,-0.00001271,0.0
 0002750,0.00007452,0.00010511,-0.00011815,0.00019380,0.00004420,0.0000
 5239,0.00006490,0.00022777,0.00022461,-0.00079261,-0.00032353,0.000000
 62,0.00004619,0.00000041,-0.00001161,-0.00002640,0.00000054,-0.0000069
 3,0.00000898,-0.00069796,-0.01590922,-0.02448735,0.00198717,0.00427235
 ,0.00796501,0.05604277,-0.02051776,-0.12599983,-0.11593331,0.01106300,
 -0.02969837,-0.01985207,-0.00764677,-0.00051751,-0.00077724,0.00228271
 ,0.00119261,0.00011253,-0.00184635,-0.00008418,-0.00027815,0.00082088,
 0.00066441,0.00012814,-0.00013279,-0.00003057,0.00001376,0.00006155,-0
 .00022038,-0.00000412,0.00020700,-0.00036789,0.00058006,0.00038895,-0.
 00013154,0.00001823,0.00016099,-0.00004369,-0.00000856,-0.00004784,-0.
 00002811,0.00002395,-0.00180931,-0.00379132,-0.00816052,0.00139224,0.0
 1131756,0.01218566,0.01555330,0.14736189,-0.02963644,-0.12098453,-0.22
 939287,0.00304306,0.00270103,0.00902588,-0.00087795,0.00024151,0.00119
 380,0.00051772,-0.00086973,-0.00026402,-0.00050115,0.00038863,-0.00032
 196,0.00019020,0.00012309,0.00004103,-0.00006193,-0.00010056,0.0001098
 0,-0.00003670,-0.00005477,0.00000752,0.00038017,-0.00025052,-0.0002861
 5,-0.00004108,0.00014669,0.00003191,-0.00008717,0.00004179,-0.00003754
 ,0.00002397,0.00001710,0.00000376,-0.00004831,0.00082010,0.00021347,-0
 .00468775,-0.01470684,-0.01894129,0.03181879,0.13188809,0.23821079,-0.
 00144844,-0.00129717,-0.00004247,-0.00022496,0.00218081,0.00028147,0.0
 1375945,-0.01651893,0.00127600,-0.10667998,0.11063295,-0.01059496,-0.0
 1249913,0.02977836,-0.00183624,0.00410906,-0.00103507,0.00070280,-0.00
 488441,-0.00321211,-0.00058293,0.00094264,0.00016820,0.00020284,-0.003
 82899,-0.00103091,-0.00101788,0.00071279,-0.00158479,0.00027728,-0.001
 15827,0.00186248,-0.00006068,0.00049669,0.00033635,-0.00013013,0.00013
 681,-0.00019406,0.00005373,-0.00107199,0.00000524,-0.00028048,-0.00119
 237,0.00000840,0.00001481,0.11276054,0.00074423,-0.00009771,0.00004950
 ,0.00182063,0.00125698,-0.00000909,0.01266371,-0.01901278,0.00189567,0
 .11155338,-0.29038157,0.01762196,-0.00226129,0.00141099,-0.00024431,-0
 .00016951,0.00161155,-0.00006682,-0.00080983,0.00044333,-0.00006013,0.
 00002103,0.00030015,-0.00005358,-0.00436794,0.00138673,-0.00009796,0.0
 0038256,-0.00266325,0.00009429,0.00008370,0.00015915,0.00007740,-0.000
 04328,-0.00001221,-0.00000618,0.00004995,0.00068931,-0.00003163,0.0000
 9533,0.00024111,-0.00061199,0.00008076,0.00038218,0.00060612,-0.119998
 16,0.30432057,0.00006162,-0.00029829,-0.00133182,-0.00027044,-0.000107
 89,-0.00423718,0.00075063,0.00019367,0.00575891,-0.01073526,0.01669239
 ,-0.03082178,-0.00052906,0.00292329,0.00162241,0.00035769,-0.00040137,
 -0.00220882,-0.00039234,-0.00038466,0.00198725,0.00025187,-0.00007918,
 -0.00176863,-0.00105147,0.00054581,0.00948601,0.00022756,-0.00014597,-
 0.00176324,-0.00017510,0.00018807,0.00075019,0.00002341,0.00004276,-0.
 00000386,0.00003683,-0.00003092,-0.00037241,-0.00152774,-0.00001783,0.
 00008742,0.00120294,0.00006051,0.00040882,0.01175151,-0.01915150,0.022
 37364,-0.00014396,-0.00036224,-0.00000714,-0.00121884,0.00206110,-0.00
 022730,-0.00423266,-0.00334132,-0.00032942,0.00080529,0.00017045,0.000
 11659,-0.00377037,-0.00120841,-0.00060964,0.00088481,-0.00155170,0.000
 08244,0.01136537,-0.01679235,0.00096206,-0.11406276,0.11611408,-0.0097
 5532,-0.01148704,0.02913813,-0.00206849,0.00402225,-0.00097983,0.00045
 626,0.00106631,0.00044426,0.00027147,0.00016528,0.00012051,0.00009882,
 -0.00009973,0.00012908,-0.00001374,-0.00002736,0.00005499,-0.00000994,
 -0.00002706,0.00005474,0.00000139,0.00009847,0.00008966,0.00001713,0.1
 1660051,-0.00012062,0.00016194,-0.00001012,0.00017558,0.00014462,0.000
 03101,-0.00095375,0.00041459,-0.00003543,0.00003169,0.00029153,-0.0001
 1781,-0.00453974,0.00088515,0.00048636,0.00042057,-0.00268238,-0.00019
 397,0.01388292,-0.01971563,0.00196623,0.11604697,-0.28041986,0.0173965
 2,-0.00323932,0.00221545,-0.00016119,0.00044500,0.00172879,-0.00013312
 ,0.00209127,0.00194307,-0.00022096,-0.00030828,0.00015899,0.00000939,0
 .00000495,-0.00000278,0.00000045,0.00000257,-0.00001632,-0.00000055,-0
 .00000068,-0.00001561,0.00000164,0.00007805,-0.00007716,0.00000411,-0.
 12420420,0.29484636,-0.00002667,-0.00000357,0.00012082,-0.00007273,0.0
 0015905,0.00044958,-0.00043461,-0.00029116,0.00253271,0.00043254,0.000
 01912,-0.00174282,-0.00055232,0.00016492,0.00966990,0.00022386,0.00047
 357,-0.00215175,-0.00168667,-0.00031439,0.00742062,-0.00908293,0.01758
 288,-0.03279895,-0.00078036,0.00164638,0.00133076,0.00034561,-0.000144
 23,-0.00215359,0.00017775,-0.00020605,-0.00470115,0.00036725,-0.000156
 51,-0.00107154,-0.00000247,0.00000430,-0.00001727,0.00000643,-0.000003
 80,0.00000071,-0.00001475,0.00001015,-0.00000485,-0.00001608,0.0000087
 9,0.00005140,0.01103407,-0.01897875,0.02298306,-0.00002475,0.00002930,
 -0.00002266,0.00017269,0.00009741,0.00001391,-0.00006136,-0.00030806,0
 .00015440,0.00031820,0.00033497,-0.00000778,-0.00147066,-0.00084117,0.
 00032341,-0.00096975,0.00160748,0.00069565,0.00544745,0.00010331,0.002
 84099,-0.00207054,-0.00097608,-0.00087766,0.00157765,0.00029379,-0.000
 54414,-0.00072630,-0.00069456,0.00017742,-0.00391100,-0.01924710,0.023
 38967,-0.06468599,0.03002933,-0.06110377,-0.00000267,0.00000054,0.0000
 0020,-0.00000737,-0.00000094,0.00000310,-0.00000224,-0.00000657,-0.000
 00532,0.00002882,0.00001924,-0.00002346,-0.00000383,0.00010487,0.00023
 142,0.06794738,0.00003342,-0.00006317,0.00000135,-0.00018440,0.0000619
 7,-0.00003188,0.00005778,0.00026791,0.00006353,-0.00037240,0.00007252,
 0.00005952,0.00001737,0.00013420,0.00002394,0.00023875,0.00021452,-0.0
 0053871,0.00546464,0.00100966,0.00094304,-0.00173482,-0.00069260,-0.00
 050339,0.00138658,0.00001157,-0.00033610,-0.00056070,-0.00041143,0.000
 11417,-0.00702187,-0.01996884,0.02214399,0.02485508,-0.09543787,0.0976
 7414,-0.00001153,0.00000396,-0.00000242,0.00000118,0.00001160,0.000000
 61,0.00000541,0.00000993,-0.00000252,-0.00004491,0.00001169,0.00001271
 ,0.00000983,0.00007750,0.00011777,-0.02196429,0.10802616,0.00006398,-0
 .00006307,0.00000530,-0.00032938,-0.00009617,0.00002935,0.00032998,0.0
 0003854,0.00001119,-0.00026772,-0.00048732,-0.00029475,0.00146728,0.00
 139334,0.00012584,-0.00200079,-0.00058029,0.00114646,-0.00237167,0.000
 12494,0.00061837,0.00150737,0.00035703,-0.00017086,-0.00121228,0.00021
 881,-0.00012302,0.00043679,0.00022821,0.00002833,0.00579224,0.00457787
 ,0.00007753,-0.05397670,0.10039378,-0.25957315,-0.00000352,0.00000216,
 -0.00000063,0.00000147,0.00001322,-0.00000612,-0.00000179,0.00001211,0
 .00000415,0.00002719,-0.00001171,-0.00001338,-0.00001206,-0.00004502,0
 .00004087,0.05705233,-0.11383901,0.27268341,-0.00003060,0.00003592,0.0
 0000076,0.00019715,0.00009801,-0.00000037,-0.00011399,-0.00021847,-0.0
 0017078,0.00022058,0.00042095,0.00017231,-0.00131396,-0.00175288,-0.00
 056601,-0.00115712,0.00222321,-0.00010655,0.00402857,-0.00128734,-0.00
 207316,-0.00234484,-0.00055478,0.00073371,0.00128871,0.00008369,0.0008
 5287,-0.00065587,-0.00057078,-0.00026700,-0.00834534,-0.02379663,-0.01
 544461,-0.04778362,0.01220321,0.01266829,-0.00000202,0.00000070,-0.000
 00029,-0.00000578,-0.00000585,0.00000528,-0.00000292,-0.00000340,-0.00
 000465,-0.00000119,0.00002459,0.00003220,0.00004820,0.00010754,-0.0002
 1590,0.00138055,-0.00368957,-0.00646799,0.05249990,0.00002825,-0.00005
 509,0.00000204,-0.00015870,0.00008972,0.00001046,0.00007119,0.00018802
 ,-0.00005981,-0.00018302,0.00025108,-0.00019413,-0.00024395,-0.0003159
 4,-0.00043055,0.00161895,0.00020858,0.00105560,0.00549166,-0.00065213,
 -0.00077280,-0.00216779,-0.00047988,0.00032760,0.00136585,-0.00000495,
 0.00062712,-0.00062524,-0.00046399,-0.00017827,-0.01315383,-0.02350820
 ,-0.01171653,0.00649395,-0.16317695,-0.13441112,-0.00001194,0.00000308
 ,0.00000009,0.00000181,0.00001055,0.00000243,-0.00000017,0.00001143,-0
 .00000245,-0.00006237,0.00001463,-0.00003075,0.00003722,0.00008986,-0.
 00018838,0.00087000,0.01105091,0.01011957,-0.00068336,0.18365501,-0.00
 006514,0.00007151,-0.00001581,0.00030162,0.00003419,0.00006135,-0.0002
 6964,-0.00001760,0.00003111,0.00037489,0.00042484,-0.00020466,-0.00103
 707,-0.00138595,0.00002081,0.00263204,0.00000820,0.00076038,-0.0003735
 3,0.00005111,0.00130900,0.00027021,0.00013796,-0.00048775,-0.00009692,
 -0.00029454,-0.00028994,0.00014024,0.00024908,0.00009059,-0.00068984,0
 .00772887,0.01046737,0.00672873,-0.13664876,-0.20933563,0.00000945,-0.
 00000516,0.00000199,0.00000321,-0.00001396,0.00000229,0.00000008,-0.00
 001709,-0.00000209,-0.00003481,-0.00000244,-0.00002118,0.00000005,-0.0
 0000518,0.00010048,0.00200892,-0.01816254,-0.01833696,-0.00991154,0.14
 658805,0.21472057,0.00005508,-0.00008422,0.00000948,-0.00029314,0.0000
 7655,-0.00002075,0.00024412,0.00008293,0.00001284,-0.00018737,0.000135
 10,-0.00004801,0.00013342,-0.00008579,-0.00009480,-0.00031482,0.000237
 37,0.00017386,0.00275941,-0.00213977,0.00207123,-0.00200617,-0.0000326
 3,-0.00013206,0.00137261,0.00000301,-0.00009286,-0.00073612,-0.0005787
 3,0.00001564,-0.03192474,-0.00023743,0.00151962,-0.25192952,0.11562873
 ,0.00802701,-0.00001473,0.00000579,-0.00000119,-0.00000014,0.00001595,
 0.00000075,-0.00000070,0.00001702,-0.00000167,-0.00005556,0.00002122,-
 0.00000853,0.00001711,-0.00002537,0.00006656,-0.00293626,0.00351444,-0
 .00003471,0.00209357,0.00131148,0.00000903,0.28372395,-0.00005866,0.00
 005650,-0.00001156,0.00028049,0.00009834,0.00000776,-0.00021727,-0.000
 11464,0.00003020,0.00038547,0.00067097,0.00008136,-0.00159724,-0.00205
 842,-0.00019706,0.00315678,0.00009743,-0.00006566,-0.00256523,-0.00239
 402,0.00158389,-0.00152513,0.00019044,-0.00022536,0.00088038,-0.000389
 21,-0.00015963,-0.00044000,-0.00019045,0.00003744,-0.03693779,0.005997
 04,0.00249453,0.12864247,-0.11511194,-0.00609533,0.00000395,-0.0000018
 7,0.00000030,-0.00000116,-0.00001129,0.00000638,0.00000118,-0.00001102
 ,-0.00000385,-0.00007235,0.00001631,-0.00001495,0.00001600,-0.00002811
 ,0.00009990,0.01054852,-0.00439018,-0.00235698,0.01736523,-0.00691573,
 0.00125941,-0.11786563,0.12448986,-0.00000307,0.00000180,0.00000822,-0
 .00000249,-0.00001900,0.00004572,-0.00000298,0.00002859,-0.00006641,0.
 00002745,-0.00008568,-0.00030093,0.00033690,0.00027496,-0.00004811,-0.
 00000247,-0.00013486,0.00126170,-0.00042002,0.00028050,-0.00016572,0.0
 0057398,0.00010291,0.00019295,-0.00041845,-0.00000714,0.00012527,0.000
 21236,0.00017482,-0.00005196,0.00881801,-0.00041533,0.00062542,0.00588
 902,-0.00524163,-0.05422211,0.00000240,-0.00000029,0.00000075,0.000003
 71,-0.00000035,-0.00000239,-0.00000151,-0.00000213,-0.00000016,0.00000
 905,-0.00000637,0.00001623,-0.00000723,0.00000638,-0.00005901,-0.02430
 660,0.01226179,0.00374806,0.02076344,-0.01074820,0.00112809,-0.0114714
 6,0.00352923,0.04776439\\-0.00001104,0.00000955,-0.00000060,0.00003530
 ,-0.00000184,0.00000144,-0.00003667,0.00001334,0.00000111,0.00001248,0
 .00000124,-0.00000247,-0.00002348,0.00001095,-0.00000363,0.00001250,0.
 00000025,-0.00000429,0.00003879,-0.00002611,-0.00000721,-0.00000743,0.
 00000845,-0.00000031,-0.00000726,-0.00004968,0.00001153,0.00000968,0.0
 0003083,0.00000775,-0.00004324,0.00000308,0.00002248,0.00003038,0.0000
 0233,-0.00001579,0.00000230,0.00000319,0.00000081,-0.00000007,-0.00000
 249,-0.00000064,0.00000244,0.00000244,-0.00000431,0.00000306,0.0000008
 6,-0.00000369,-0.00000018,-0.00000133,0.00000659,-0.00000543,-0.000002
 06,-0.00000171,-0.00000268,0.00000091,-0.00000533,-0.00000944,-0.00000
 389,-0.00000173\\\@


 I take a simple view of life: keep your eyes open and get on with it.
 -- Laurence Olivier
 Job cpu time:       0 days  1 hours 47 minutes 26.5 seconds.
 Elapsed time:       0 days  0 hours 14 minutes 42.3 seconds.
 File lengths (MBytes):  RWF=    472 Int=      0 D2E=      0 Chk=     20 Scr=      1
 Normal termination of Gaussian 16 at Sat Feb 10 11:01:23 2024.
