 Entering Gaussian System, Link 0=g16
 Input=203-PCM.com
 Output=203-PCM.log
 Initial command:
 /sysapps/ubuntu-applications/gaussian/Gaussian/AVX2/g16/l1.exe "/scratch/selhajj1/4293193/Gau-2607832.inp" -scrdir="/scratch/selhajj1/4293193/"
 Entering Link 1 = /sysapps/ubuntu-applications/gaussian/Gaussian/AVX2/g16/l1.exe PID=   2607836.
  
 Copyright (c) 1988,1990,1992,1993,1995,1998,2003,2009,2016,
            Gaussian, Inc.  All Rights Reserved.
  
 This is part of the Gaussian(R) 16 program.  It is based on
 the Gaussian(R) 09 system (copyright 2009, Gaussian, Inc.),
 the Gaussian(R) 03 system (copyright 2003, Gaussian, Inc.),
 the Gaussian(R) 98 system (copyright 1998, Gaussian, Inc.),
 the Gaussian(R) 94 system (copyright 1995, Gaussian, Inc.),
 the Gaussian 92(TM) system (copyright 1992, Gaussian, Inc.),
 the Gaussian 90(TM) system (copyright 1990, Gaussian, Inc.),
 the Gaussian 88(TM) system (copyright 1988, Gaussian, Inc.),
 the Gaussian 86(TM) system (copyright 1986, Carnegie Mellon
 University), and the Gaussian 82(TM) system (copyright 1983,
 Carnegie Mellon University). Gaussian is a federally registered
 trademark of Gaussian, Inc.
  
 This software contains proprietary and confidential information,
 including trade secrets, belonging to Gaussian, Inc.
  
 This software is provided under written license and may be
 used, copied, transmitted, or stored only in accord with that
 written license.
  
 The following legend is applicable only to US Government
 contracts under FAR:
  
                    RESTRICTED RIGHTS LEGEND
  
 Use, reproduction and disclosure by the US Government is
 subject to restrictions as set forth in subparagraphs (a)
 and (c) of the Commercial Computer Software - Restricted
 Rights clause in FAR 52.227-19.
  
 Gaussian, Inc.
 340 Quinnipiac St., Bldg. 40, Wallingford CT 06492
  
  
 ---------------------------------------------------------------
 Warning -- This program may not be used in any manner that
 competes with the business of Gaussian, Inc. or will provide
 assistance to any competitor of Gaussian, Inc.  The licensee
 of this program is prohibited from giving any competitor of
 Gaussian, Inc. access to this program.  By using this program,
 the user acknowledges that Gaussian, Inc. is engaged in the
 business of creating and licensing software in the field of
 computational chemistry and represents and warrants to the
 licensee that it is not a competitor of Gaussian, Inc. and that
 it will not use this program in any manner prohibited above.
 ---------------------------------------------------------------
  

 Cite this work as:
 Gaussian 16, Revision A.03,
 M. J. Frisch, G. W. Trucks, H. B. Schlegel, G. E. Scuseria, 
 M. A. Robb, J. R. Cheeseman, G. Scalmani, V. Barone, 
 G. A. Petersson, H. Nakatsuji, X. Li, M. Caricato, A. V. Marenich, 
 J. Bloino, B. G. Janesko, R. Gomperts, B. Mennucci, H. P. Hratchian, 
 J. V. Ortiz, A. F. Izmaylov, J. L. Sonnenberg, D. Williams-Young, 
 F. Ding, F. Lipparini, F. Egidi, J. Goings, B. Peng, A. Petrone, 
 T. Henderson, D. Ranasinghe, V. G. Zakrzewski, J. Gao, N. Rega, 
 G. Zheng, W. Liang, M. Hada, M. Ehara, K. Toyota, R. Fukuda, 
 J. Hasegawa, M. Ishida, T. Nakajima, Y. Honda, O. Kitao, H. Nakai, 
 T. Vreven, K. Throssell, J. A. Montgomery, Jr., J. E. Peralta, 
 F. Ogliaro, M. J. Bearpark, J. J. Heyd, E. N. Brothers, K. N. Kudin, 
 V. N. Staroverov, T. A. Keith, R. Kobayashi, J. Normand, 
 K. Raghavachari, A. P. Rendell, J. C. Burant, S. S. Iyengar, 
 J. Tomasi, M. Cossi, J. M. Millam, M. Klene, C. Adamo, R. Cammi, 
 J. W. Ochterski, R. L. Martin, K. Morokuma, O. Farkas, 
 J. B. Foresman, and D. J. Fox, Gaussian, Inc., Wallingford CT, 2016.
 
 ******************************************
 Gaussian 16:  ES64L-G16RevA.03 25-Dec-2016
                16-Jan-2024 
 ******************************************
 %chk=203-PCM.chk
 %nproc=8
 Will use up to    8 processors via shared memory.
 %mem=30GB
 ----------------------------------------------------------------
 #P UB3LYP/6-311++G(d,p) SCRF=(PCM,Solvent=n,n-DiMethylFormamide)
 ----------------------------------------------------------------
 1/38=1,172=1/1;
 2/12=2,17=6,18=5,40=1/2;
 3/5=4,6=6,7=1111,11=2,25=1,30=1,70=2201,72=148,74=-5,116=2/1,2,3;
 4//1;
 5/5=2,38=5,53=148/2;
 6/7=2,8=2,9=2,10=2,28=1/1;
 99/5=1,9=1/99;
 Leave Link    1 at Tue Jan 16 05:09:55 2024, MaxMem=  4026531840 cpu:               0.3 elap:               0.1
 (Enter /sysapps/ubuntu-applications/gaussian/Gaussian/AVX2/g16/l101.exe)
 ------------------
 Quinone PCM in DMF
 ------------------
 Symbolic Z-matrix:
 Charge =  0 Multiplicity = 1
 C                     4.63102   1.20973  -0.67762 
 C                     3.32752   0.57481  -0.26289 
 C                     3.3056   -0.68914   0.32467 
 C                     2.11278  -1.3139    0.70378 
 O                     2.13978  -2.54929   1.26097 
 C                     0.87595  -0.66605   0.48749 
 C                    -0.42124  -1.27067   0.92995 
 O                    -0.45167  -2.20578   1.70757 
 C                    -1.67204  -0.6524    0.39833 
 C                    -2.93439  -1.28368   0.5267 
 O                    -3.01159  -2.51875   1.07493 
 C                    -4.09047  -0.65127   0.06848 
 C                    -4.02747   0.61321  -0.50999 
 O                    -5.20234   1.16578  -0.92103 
 C                    -2.80105   1.25389  -0.65324 
 C                    -1.64476   0.61667  -0.21125 
 C                    -0.35283   1.33723  -0.41967 
 O                    -0.33676   2.47814  -0.85434 
 C                     0.91012   0.60382  -0.1228 
 C                     2.10962   1.21732  -0.48016 
 H                     5.44419   0.93318  -0.00251 
 H                     4.55225   2.29829  -0.69198 
 H                     4.91535   0.88684  -1.68493 
 H                     4.24245  -1.21276   0.50165 
 H                     3.05241  -2.85676   1.30108 
 H                    -3.92712  -2.81932   1.05263 
 H                    -5.05592  -1.13804   0.1607 
 H                    -5.03769   2.03483  -1.30331 
 H                    -2.71605   2.23661  -1.10276 
 H                     2.06857   2.20045  -0.93207 
 
 ITRead=  0  0  0  0  0  0  0  0  0  0  0  0  0  0  0  0  0  0  0  0
 ITRead=  0  0  0  0  0  0  0  0  0  0
 MicOpt= -1 -1 -1 -1 -1 -1 -1 -1 -1 -1 -1 -1 -1 -1 -1 -1 -1 -1 -1 -1
 MicOpt= -1 -1 -1 -1 -1 -1 -1 -1 -1 -1
 NAtoms=     30 NQM=       30 NQMF=       0 NMMI=      0 NMMIF=      0
                NMic=       0 NMicF=      0.
                    Isotopes and Nuclear Properties:
 (Nuclear quadrupole moments (NQMom) in fm**2, nuclear magnetic moments (NMagM)
  in nuclear magnetons)

  Atom         1           2           3           4           5           6           7           8           9          10
 IAtWgt=          12          12          12          12          16          12          12          16          12          12
 AtmWgt=  12.0000000  12.0000000  12.0000000  12.0000000  15.9949146  12.0000000  12.0000000  15.9949146  12.0000000  12.0000000
 NucSpn=           0           0           0           0           0           0           0           0           0           0
 AtZEff=  -0.0000000  -0.0000000  -0.0000000  -0.0000000  -0.0000000  -0.0000000  -0.0000000  -0.0000000  -0.0000000  -0.0000000
 NQMom=    0.0000000   0.0000000   0.0000000   0.0000000   0.0000000   0.0000000   0.0000000   0.0000000   0.0000000   0.0000000
 NMagM=    0.0000000   0.0000000   0.0000000   0.0000000   0.0000000   0.0000000   0.0000000   0.0000000   0.0000000   0.0000000
 AtZNuc=   6.0000000   6.0000000   6.0000000   6.0000000   8.0000000   6.0000000   6.0000000   8.0000000   6.0000000   6.0000000

  Atom        11          12          13          14          15          16          17          18          19          20
 IAtWgt=          16          12          12          16          12          12          12          16          12          12
 AtmWgt=  15.9949146  12.0000000  12.0000000  15.9949146  12.0000000  12.0000000  12.0000000  15.9949146  12.0000000  12.0000000
 NucSpn=           0           0           0           0           0           0           0           0           0           0
 AtZEff=  -0.0000000  -0.0000000  -0.0000000  -0.0000000  -0.0000000  -0.0000000  -0.0000000  -0.0000000  -0.0000000  -0.0000000
 NQMom=    0.0000000   0.0000000   0.0000000   0.0000000   0.0000000   0.0000000   0.0000000   0.0000000   0.0000000   0.0000000
 NMagM=    0.0000000   0.0000000   0.0000000   0.0000000   0.0000000   0.0000000   0.0000000   0.0000000   0.0000000   0.0000000
 AtZNuc=   8.0000000   6.0000000   6.0000000   8.0000000   6.0000000   6.0000000   6.0000000   8.0000000   6.0000000   6.0000000

  Atom        21          22          23          24          25          26          27          28          29          30
 IAtWgt=           1           1           1           1           1           1           1           1           1           1
 AtmWgt=   1.0078250   1.0078250   1.0078250   1.0078250   1.0078250   1.0078250   1.0078250   1.0078250   1.0078250   1.0078250
 NucSpn=           1           1           1           1           1           1           1           1           1           1
 AtZEff=  -0.0000000  -0.0000000  -0.0000000  -0.0000000  -0.0000000  -0.0000000  -0.0000000  -0.0000000  -0.0000000  -0.0000000
 NQMom=    0.0000000   0.0000000   0.0000000   0.0000000   0.0000000   0.0000000   0.0000000   0.0000000   0.0000000   0.0000000
 NMagM=    2.7928460   2.7928460   2.7928460   2.7928460   2.7928460   2.7928460   2.7928460   2.7928460   2.7928460   2.7928460
 AtZNuc=   1.0000000   1.0000000   1.0000000   1.0000000   1.0000000   1.0000000   1.0000000   1.0000000   1.0000000   1.0000000
 Leave Link  101 at Tue Jan 16 05:09:55 2024, MaxMem=  4026531840 cpu:               1.3 elap:               0.2
 (Enter /sysapps/ubuntu-applications/gaussian/Gaussian/AVX2/g16/l202.exe)
                          Input orientation:                          
 ---------------------------------------------------------------------
 Center     Atomic      Atomic             Coordinates (Angstroms)
 Number     Number       Type             X           Y           Z
 ---------------------------------------------------------------------
      1          6           0        4.631020    1.209734   -0.677615
      2          6           0        3.327515    0.574809   -0.262886
      3          6           0        3.305596   -0.689140    0.324668
      4          6           0        2.112779   -1.313897    0.703781
      5          8           0        2.139779   -2.549291    1.260965
      6          6           0        0.875951   -0.666052    0.487488
      7          6           0       -0.421238   -1.270672    0.929954
      8          8           0       -0.451669   -2.205775    1.707565
      9          6           0       -1.672040   -0.652398    0.398333
     10          6           0       -2.934392   -1.283684    0.526704
     11          8           0       -3.011594   -2.518750    1.074932
     12          6           0       -4.090469   -0.651269    0.068484
     13          6           0       -4.027466    0.613205   -0.509990
     14          8           0       -5.202339    1.165778   -0.921025
     15          6           0       -2.801049    1.253887   -0.653241
     16          6           0       -1.644763    0.616674   -0.211247
     17          6           0       -0.352827    1.337233   -0.419666
     18          8           0       -0.336764    2.478144   -0.854336
     19          6           0        0.910118    0.603818   -0.122799
     20          6           0        2.109615    1.217316   -0.480162
     21          1           0        5.444187    0.933175   -0.002506
     22          1           0        4.552249    2.298290   -0.691981
     23          1           0        4.915346    0.886842   -1.684932
     24          1           0        4.242448   -1.212756    0.501645
     25          1           0        3.052412   -2.856759    1.301075
     26          1           0       -3.927117   -2.819316    1.052626
     27          1           0       -5.055921   -1.138036    0.160702
     28          1           0       -5.037687    2.034834   -1.303314
     29          1           0       -2.716050    2.236608   -1.102757
     30          1           0        2.068570    2.200445   -0.932070
 ---------------------------------------------------------------------
                    Distance matrix (angstroms):
                    1          2          3          4          5
     1  C    0.000000
     2  C    1.508063   0.000000
     3  C    2.523300   1.394011   0.000000
     4  C    3.823415   2.444839   1.398878   0.000000
     5  O    4.908629   3.673260   2.386618   1.355500   0.000000
     6  C    4.356212   2.848326   2.435204   1.412880   2.396271
     7  C    5.853375   4.345321   3.820189   2.544458   2.881535
     8  O    6.571797   5.088866   4.281311   2.894723   2.651991
     9  C    6.659862   5.190260   4.978317   3.854314   4.344226
    10  C    8.056238   6.579432   6.271503   5.050367   5.280920
    11  O    8.682313   7.179427   6.619461   5.277179   5.154822
    12  C    8.948987   7.525926   7.400597   6.270802   6.621215
    13  C    8.680629   7.359231   7.494435   6.549013   7.153501
    14  O    9.836469   8.575593   8.796444   7.893018   8.512903
    15  C    7.432240   6.178416   6.482497   5.707953   6.522279
    16  C    6.320971   4.972722   5.147661   4.322442   5.149126
    17  C    4.992146   3.761753   4.247856   3.790757   4.913520
    18  O    5.130202   4.171263   4.968755   4.775727   5.990231
    19  C    3.810521   2.421626   2.758674   2.409825   3.656360
    20  C    2.529136   1.394025   2.390125   2.794418   4.149670
    21  H    1.092473   2.162527   2.704167   4.080007   4.964176
    22  H    1.091497   2.157425   3.393001   4.576796   5.756132
    23  H    1.095348   2.154249   3.018858   4.289940   5.309340
    24  H    2.722150   2.148720   1.087744   2.141630   2.604632
    25  H    4.789946   3.781179   2.390825   1.902654   0.963869
    26  H    9.616064   8.116671   7.574940   6.234446   6.076475
    27  H   10.002581   8.567104   8.375163   7.191392   7.414871
    28  H    9.724000   8.555160   8.926406   8.146876   8.894141
    29  H    7.430656   6.323894   6.845273   6.259972   7.216030
    30  H    2.759059   2.162277   3.385163   3.876669   5.232061
                    6          7          8          9         10
     6  C    0.000000
     7  C    1.498012   0.000000
     8  O    2.371057   1.216562   0.000000
     9  C    2.549587   1.493114   2.369889   0.000000
    10  C    3.860275   2.545334   2.899758   1.417227   0.000000
    11  O    4.346330   2.879004   2.655446   2.394882   1.353478
    12  C    4.984086   3.819561   4.282983   2.440820   1.395145
    13  C    5.164781   4.315937   5.064634   2.823975   2.422340
    14  O    6.502701   5.676384   6.391066   4.184433   3.638594
    15  C    4.302064   3.813582   4.802317   2.452426   2.801663
    16  C    2.913351   2.522187   3.615457   1.408146   2.412276
    17  C    2.519122   2.937230   4.133738   2.523505   3.798592
    18  O    3.627277   4.152644   5.340003   3.626629   4.775593
    19  C    1.409322   2.528737   3.619186   2.918424   4.331833
    20  C    2.450581   3.818865   4.802487   4.309118   5.719334
    21  H    4.864813   6.334795   6.894815   7.301740   8.683036
    22  H    4.867611   6.332751   7.147280   6.974032   8.388416
    23  H    4.842272   6.322312   7.062448   7.078341   8.439248
    24  H    3.410629   4.683671   4.947228   5.941872   7.177234
    25  H    3.193447   3.836619   3.587143   5.290992   6.238272
    26  H    5.293901   3.834649   3.589445   3.195153   1.902699
    27  H    5.959586   4.699960   4.973127   3.426801   2.157790
    28  H    6.743358   6.101267   6.933954   4.630810   4.334210
    29  H    4.884341   4.658228   5.723644   3.419003   3.885263
    30  H    3.413838   4.659928   5.721368   4.888849   6.268716
                   11         12         13         14         15
    11  O    0.000000
    12  C    2.379999   0.000000
    13  C    3.654192   1.391940   0.000000
    14  O    4.728526   2.348839   1.361842   0.000000
    15  C    4.154961   2.411039   1.391076   2.417781   0.000000
    16  C    3.654226   2.769008   2.401361   3.669012   1.392263
    17  C    4.916449   4.261737   3.746378   4.878373   2.460751
    18  O    5.987131   4.973442   4.149440   5.039898   2.758975
    19  C    5.154107   5.159235   4.952751   6.189919   3.804828
    20  C    6.527119   6.498743   6.166815   7.325414   4.913849
    21  H    9.196570   9.665670   9.490634  10.688606   8.277091
    22  H    9.139889   9.163775   8.745521   9.822781   7.427198
    23  H    9.058216   9.302954   9.023816  10.150316   7.793706
    24  H    7.392929   8.363038   8.529303   9.843039   7.551751
    25  H    6.077628   7.576557   8.089826   9.447722   7.414834
    26  H    0.963857   2.386555   3.772803   4.626280   4.557301
    27  H    2.630867   1.085147   2.138783   2.549339   3.386480
    28  H    5.522340   3.161361   1.915969   0.963594   2.456628
    29  H    5.238617   3.405975   2.169475   2.713178   1.083988
    30  H    7.218513   6.860550   6.313409   7.344166   4.968592
                   16         17         18         19         20
    16  C    0.000000
    17  C    1.493902   0.000000
    18  O    2.364211   1.221013   0.000000
    19  C    2.556444   1.490321   2.367057   0.000000
    20  C    3.811619   2.466102   2.777492   1.393873   0.000000
    21  H    7.099081   5.826033   6.044166   4.547607   3.380571
    22  H    6.439091   5.005752   4.895013   4.057132   2.679521
    23  H    6.729024   5.436671   5.550387   4.308389   3.071288
    24  H    6.205988   5.335523   6.035777   3.846335   3.379079
    25  H    6.034510   5.669759   6.677837   4.311894   4.545301
    26  H    4.314226   5.676275   6.677591   6.041383   7.421992
    27  H    3.854005   5.346296   6.031377   6.221579   7.569894
    28  H    3.836108   4.818236   4.743077   6.230394   7.240845
    29  H    2.136968   2.619220   2.404382   4.095780   4.971280
    30  H    4.100824   2.621232   2.422559   2.132170   1.082796
                   21         22         23         24         25
    21  H    0.000000
    22  H    1.770443   0.000000
    23  H    1.764193   1.763513   0.000000
    24  H    2.510650   3.721312   3.105193   0.000000
    25  H    4.667281   5.726807   5.138220   2.181289   0.000000
    26  H   10.149671  10.056500   9.970907   8.344244   6.984050
    27  H   10.703683  10.239743  10.340825   9.304918   8.366572
    28  H   10.619578   9.613013  10.026285   9.996280   9.806132
    29  H    8.336603   7.280159   7.771679   7.930505   8.062007
    30  H    3.723554   2.497174   3.224358   4.293160   5.615175
                   26         27         28         29         30
    26  H    0.000000
    27  H    2.212788   0.000000
    28  H    5.508774   3.494393   0.000000
    29  H    5.628030   4.296458   2.339003   0.000000
    30  H    8.067545   7.943424   7.117875   4.787800   0.000000
 Stoichiometry    C15H10O5
 Framework group  C1[X(C15H10O5)]
 Deg. of freedom    84
 Full point group                 C1      NOp   1
 Largest Abelian subgroup         C1      NOp   1
 Largest concise Abelian subgroup C1      NOp   1
                         Standard orientation:                         
 ---------------------------------------------------------------------
 Center     Atomic      Atomic             Coordinates (Angstroms)
 Number     Number       Type             X           Y           Z
 ---------------------------------------------------------------------
      1          6           0        4.978179   -1.621051    0.221633
      2          6           0        3.684817   -0.854383    0.104622
      3          6           0        3.675570    0.538849    0.150297
      4          6           0        2.491904    1.279274    0.063319
      5          8           0        2.530802    2.632836    0.124460
      6          6           0        1.251388    0.615858   -0.067934
      7          6           0       -0.034815    1.367931   -0.223200
      8          8           0       -0.046446    2.553531   -0.495670
      9          6           0       -1.298044    0.588784   -0.060188
     10          6           0       -2.558124    1.222605    0.077658
     11          8           0       -2.623634    2.572870    0.143956
     12          6           0       -3.724609    0.463012    0.171253
     13          6           0       -3.674043   -0.927001    0.118299
     14          8           0       -4.858239   -1.593870    0.205348
     15          6           0       -2.450266   -1.575563   -0.011439
     16          6           0       -1.284032   -0.819010   -0.088389
     17          6           0        0.003668   -1.568905   -0.194352
     18          8           0        0.010922   -2.783307   -0.321035
     19          6           0        1.272269   -0.793036   -0.095688
     20          6           0        2.463180   -1.513667   -0.022858
     21          1           0        5.808820   -1.077763   -0.234843
     22          1           0        4.902037   -2.598170   -0.258789
     23          1           0        5.233838   -1.790178    1.273214
     24          1           0        4.615487    1.076649    0.252837
     25          1           0        3.443344    2.916240    0.250929
     26          1           0       -3.540247    2.840133    0.275905
     27          1           0       -4.688498    0.948603    0.283780
     28          1           0       -4.701762   -2.543516    0.158441
     29          1           0       -2.374945   -2.656180   -0.051720
     30          1           0        2.412440   -2.594475   -0.064436
 ---------------------------------------------------------------------
 Rotational constants (GHZ):           0.6517709           0.2387668           0.1761977
 Leave Link  202 at Tue Jan 16 05:09:55 2024, MaxMem=  4026531840 cpu:               0.2 elap:               0.1
 (Enter /sysapps/ubuntu-applications/gaussian/Gaussian/AVX2/g16/l301.exe)
 Standard basis: 6-311++G(d,p) (5D, 7F)
 Ernie: Thresh=  0.10000D-02 Tol=  0.10000D-05 Strict=F.
 There are   530 symmetry adapted cartesian basis functions of A   symmetry.
 There are   510 symmetry adapted basis functions of A   symmetry.
   510 basis functions,   810 primitive gaussians,   530 cartesian basis functions
    70 alpha electrons       70 beta electrons
       nuclear repulsion energy      1474.1148808367 Hartrees.
 IExCor=  402 DFT=T Ex+Corr=B3LYP ExCW=0 ScaHFX=  0.200000
 ScaDFX=  0.800000  0.720000  1.000000  0.810000 ScalE2=  1.000000  1.000000
 IRadAn=      5 IRanWt=     -1 IRanGd=            0 ICorTp=0 IEmpDi=  4
 NAtoms=   30 NActive=   30 NUniq=   30 SFac= 1.00D+00 NAtFMM=   60 NAOKFM=F Big=F
 Integral buffers will be    131072 words long.
 Raffenetti 2 integral format.
 Two-electron integral symmetry is turned on.
 ------------------------------------------------------------------------------
 Polarizable Continuum Model (PCM)
 =================================
 Model                : PCM.
 Atomic radii         : UFF (Universal Force Field).
 Polarization charges : Total charges.
 Charge compensation  : None.
 Solution method      : On-the-fly selection.
 Cavity type          : Scaled VdW (van der Waals Surface) (Alpha=1.100).
 Cavity algorithm     : GePol (No added spheres)
                        Default sphere list used, NSphG=   30.
                        Lebedev-Laikov grids with approx.  5.0 points / Ang**2.
                        Smoothing algorithm: York/Karplus (Gamma=1.0000).
                        Polarization charges: spherical gaussians, with
                                              point-specific exponents (IZeta= 3).
                        Self-potential: point-specific (ISelfS= 7).
                        Self-field    : sphere-specific E.n sum rule (ISelfD= 2).
 Solvent              : n,n-DiMethylFormamide, Eps=  37.219000 Eps(inf)=   2.046330
 ------------------------------------------------------------------------------
 GePol: Number of generator spheres                  =      30
 GePol: Total number of spheres                      =      30
 GePol: Number of exposed spheres                    =      30 (100.00%)
 GePol: Number of points                             =    2428
 GePol: Average weight of points                     =       0.13
 GePol: Minimum weight of points                     =   0.98D-10
 GePol: Maximum weight of points                     =    0.20577
 GePol: Number of points with low weight             =     141
 GePol: Fraction of low-weight points (<1% of avg)   =       5.81%
 GePol: Cavity surface area                          =    306.619 Ang**2
 GePol: Cavity volume                                =    336.161 Ang**3
 Leave Link  301 at Tue Jan 16 05:09:55 2024, MaxMem=  4026531840 cpu:               0.6 elap:               0.1
 (Enter /sysapps/ubuntu-applications/gaussian/Gaussian/AVX2/g16/l302.exe)
 NPDir=0 NMtPBC=     1 NCelOv=     1 NCel=       1 NClECP=     1 NCelD=      1
         NCelK=      1 NCelE2=     1 NClLst=     1 CellRange=     0.0.
 One-electron integrals computed using PRISM.
 One-electron integral symmetry used in STVInt
 NBasis=   510 RedAO= T EigKep=  1.46D-06  NBF=   510
 NBsUse=   503 1.00D-06 EigRej=  9.50D-07 NBFU=   503
 Precomputing XC quadrature grid using
 IXCGrd= 4 IRadAn=           5 IRanWt=          -1 IRanGd=           0 AccXCQ= 0.00D+00.
 Generated NRdTot=       0 NPtTot=           0 NUsed=           0 NTot=          32
 NSgBfM=   526   526   526   526   526 MxSgAt=    30 MxSgA2=    30.
 Leave Link  302 at Tue Jan 16 05:09:58 2024, MaxMem=  4026531840 cpu:              16.2 elap:               2.8
 (Enter /sysapps/ubuntu-applications/gaussian/Gaussian/AVX2/g16/l303.exe)
 DipDrv:  MaxL=1.
 Leave Link  303 at Tue Jan 16 05:09:58 2024, MaxMem=  4026531840 cpu:               0.7 elap:               0.2
 (Enter /sysapps/ubuntu-applications/gaussian/Gaussian/AVX2/g16/l401.exe)
 ExpMin= 3.60D-02 ExpMax= 8.59D+03 ExpMxC= 1.30D+03 IAcc=3 IRadAn=         5 AccDes= 0.00D+00
 Harris functional with IExCor=  402 and IRadAn=       5 diagonalized for initial guess.
 HarFok:  IExCor=  402 AccDes= 0.00D+00 IRadAn=         5 IDoV= 1 UseB2=F ITyADJ=14
 ICtDFT=  3500011 ScaDFX=  1.000000  1.000000  1.000000  1.000000
 FoFCou: FMM=F IPFlag=           0 FMFlag=      100000 FMFlg1=           0
         NFxFlg=           0 DoJE=T BraDBF=F KetDBF=T FulRan=T
         wScrn=  0.000000 ICntrl=       500 IOpCl=  0 I1Cent=   200000004 NGrid=           0
         NMat0=    1 NMatS0=      1 NMatT0=    0 NMatD0=    1 NMtDS0=    0 NMtDT0=    0
 Petite list used in FoFCou.
 Harris En= -954.060216566247    
 JPrj=0 DoOrth=F DoCkMO=F.
 Initial guess <Sx>= 0.0000 <Sy>= 0.0000 <Sz>= 0.0000 <S**2>=-0.0000 S=-0.0000
 Leave Link  401 at Tue Jan 16 05:10:00 2024, MaxMem=  4026531840 cpu:              16.4 elap:               2.5
 (Enter /sysapps/ubuntu-applications/gaussian/Gaussian/AVX2/g16/l502.exe)
 Integral symmetry usage will be decided dynamically.
 UHF open shell SCF:
 Using DIIS extrapolation, IDIIS=  1040.
 NGot=  4026531840 LenX=  4025960838 LenY=  4025679408
 Requested convergence on RMS density matrix=1.00D-08 within 128 cycles.
 Requested convergence on MAX density matrix=1.00D-06.
 Requested convergence on             energy=1.00D-06.
 No special actions if energy rises.
 Fock matrices will be formed incrementally for  20 cycles.

 Cycle   1  Pass 1  IDiag  1:
 FoFJK:  IHMeth= 1 ICntrl=       0 DoSepK=F KAlg= 0 I1Cent=           0 FoldK=F
 IRaf= 820000000 NMat=       1 IRICut=       1 DoRegI=T DoRafI=F ISym2E= 0 IDoP0=0 IntGTp=1.
 FoFCou: FMM=F IPFlag=           0 FMFlag=      100000 FMFlg1=           0
         NFxFlg=           0 DoJE=F BraDBF=F KetDBF=F FulRan=T
         wScrn=  0.000000 ICntrl=         0 IOpCl=  1 I1Cent=           0 NGrid=           0
         NMat0=    1 NMatS0=      1 NMatT0=    0 NMatD0=    1 NMtDS0=    0 NMtDT0=    0
 Symmetry not used in FoFCou.
 Inv3:  Mode=1 IEnd=    17685552.
 Iteration    1 A*A^-1 deviation from unit magnitude is 3.55D-15 for    244.
 Iteration    1 A*A^-1 deviation from orthogonality  is 2.05D-15 for   2358     64.
 Iteration    1 A^-1*A deviation from unit magnitude is 4.00D-15 for    244.
 Iteration    1 A^-1*A deviation from orthogonality  is 2.02D-15 for   1552    739.
 E= -953.573853483747    
 DIIS: error= 2.03D-02 at cycle   1 NSaved=   1.
 NSaved= 1 IEnMin= 1 EnMin= -953.573853483747     IErMin= 1 ErrMin= 2.03D-02
 ErrMax= 2.03D-02  0.00D+00 EMaxC= 1.00D-01 BMatC= 2.44D+00 BMatP= 2.44D+00
 IDIUse=3 WtCom= 7.97D-01 WtEn= 2.03D-01
 Coeff-Com:  0.100D+01
 Coeff-En:   0.100D+01
 Coeff:      0.100D+01
 Gap=     0.126 Goal=   None    Shift=    0.000
 Gap=     0.126 Goal=   None    Shift=    0.000
 GapD=    0.126 DampG=1.000 DampE=0.500 DampFc=0.5000 IDamp=-1.
 Damping current iteration by 5.00D-01
 RMSDP=1.64D-02 MaxDP=9.45D-01              OVMax= 2.14D-01

 Cycle   2  Pass 1  IDiag  1:
 RMSU=  7.81D-03    CP:  1.05D+00
 E= -953.728595625009     Delta-E=       -0.154742141262 Rises=F Damp=T
 DIIS: error= 8.43D-03 at cycle   2 NSaved=   2.
 NSaved= 2 IEnMin= 2 EnMin= -953.728595625009     IErMin= 2 ErrMin= 8.43D-03
 ErrMax= 8.43D-03  0.00D+00 EMaxC= 1.00D-01 BMatC= 2.88D-01 BMatP= 2.44D+00
 IDIUse=3 WtCom= 9.16D-01 WtEn= 8.43D-02
 Coeff-Com:  0.161D+00 0.839D+00
 Coeff-En:   0.276D+00 0.724D+00
 Coeff:      0.170D+00 0.830D+00
 Gap=     0.169 Goal=   None    Shift=    0.000
 Gap=     0.169 Goal=   None    Shift=    0.000
 RMSDP=8.77D-03 MaxDP=7.72D-01 DE=-1.55D-01 OVMax= 2.12D-01

 Cycle   3  Pass 1  IDiag  1:
 RMSU=  7.00D-03    CP:  9.79D-01  5.21D-01
 E= -953.959655842680     Delta-E=       -0.231060217671 Rises=F Damp=F
 DIIS: error= 1.18D-02 at cycle   3 NSaved=   3.
 NSaved= 3 IEnMin= 3 EnMin= -953.959655842680     IErMin= 2 ErrMin= 8.43D-03
 ErrMax= 1.18D-02  0.00D+00 EMaxC= 1.00D-01 BMatC= 3.49D-01 BMatP= 2.88D-01
 IDIUse=2 WtCom= 0.00D+00 WtEn= 1.00D+00
 Coeff-En:   0.000D+00 0.000D+00 0.100D+01
 Coeff:      0.000D+00 0.000D+00 0.100D+01
 Gap=     0.146 Goal=   None    Shift=    0.000
 Gap=     0.146 Goal=   None    Shift=    0.000
 RMSDP=1.06D-02 MaxDP=8.39D-01 DE=-2.31D-01 OVMax= 1.65D-01

 Cycle   4  Pass 1  IDiag  1:
 RMSU=  5.85D-03    CP:  1.05D+00  1.17D+00  1.29D-01
 E= -953.619228435008     Delta-E=        0.340427407672 Rises=F Damp=F
 DIIS: error= 3.35D-02 at cycle   4 NSaved=   4.
 NSaved= 4 IEnMin= 3 EnMin= -953.959655842680     IErMin= 2 ErrMin= 8.43D-03
 ErrMax= 3.35D-02  0.00D+00 EMaxC= 1.00D-01 BMatC= 2.07D+00 BMatP= 2.88D-01
 IDIUse=2 WtCom= 0.00D+00 WtEn= 1.00D+00
 Coeff-En:   0.000D+00 0.000D+00 0.795D+00 0.205D+00
 Coeff:      0.000D+00 0.000D+00 0.795D+00 0.205D+00
 Gap=     0.133 Goal=   None    Shift=    0.000
 Gap=     0.133 Goal=   None    Shift=    0.000
 RMSDP=6.25D-03 MaxDP=5.60D-01 DE= 3.40D-01 OVMax= 8.95D-02

 Cycle   5  Pass 1  IDiag  1:
 RMSU=  7.39D-04    CP:  9.97D-01  7.44D-01  6.01D-01  5.01D-01
 E= -954.002738526543     Delta-E=       -0.383510091534 Rises=F Damp=F
 DIIS: error= 8.35D-03 at cycle   5 NSaved=   5.
 NSaved= 5 IEnMin= 5 EnMin= -954.002738526543     IErMin= 5 ErrMin= 8.35D-03
 ErrMax= 8.35D-03  0.00D+00 EMaxC= 1.00D-01 BMatC= 1.49D-01 BMatP= 2.88D-01
 IDIUse=3 WtCom= 9.16D-01 WtEn= 8.35D-02
 Coeff-Com:  0.897D-03 0.171D-01 0.313D+00-0.777D-01 0.746D+00
 Coeff-En:   0.000D+00 0.000D+00 0.339D+00 0.000D+00 0.661D+00
 Coeff:      0.822D-03 0.157D-01 0.315D+00-0.712D-01 0.739D+00
 Gap=     0.147 Goal=   None    Shift=    0.000
 Gap=     0.147 Goal=   None    Shift=    0.000
 RMSDP=2.30D-03 MaxDP=2.22D-01 DE=-3.84D-01 OVMax= 3.67D-02

 Cycle   6  Pass 1  IDiag  1:
 RMSU=  3.81D-04    CP:  9.74D-01  6.31D-01  7.53D-01  2.87D-01  8.04D-01
 E= -954.033077604629     Delta-E=       -0.030339078087 Rises=F Damp=F
 DIIS: error= 4.23D-04 at cycle   6 NSaved=   6.
 NSaved= 6 IEnMin= 6 EnMin= -954.033077604629     IErMin= 6 ErrMin= 4.23D-04
 ErrMax= 4.23D-04  0.00D+00 EMaxC= 1.00D-01 BMatC= 6.49D-04 BMatP= 1.49D-01
 IDIUse=3 WtCom= 9.96D-01 WtEn= 4.23D-03
 Coeff-Com: -0.201D-02 0.104D-01 0.151D+00-0.602D-01 0.445D+00 0.456D+00
 Coeff-En:   0.000D+00 0.000D+00 0.000D+00 0.000D+00 0.000D+00 0.100D+01
 Coeff:     -0.200D-02 0.103D-01 0.151D+00-0.599D-01 0.443D+00 0.458D+00
 Gap=     0.134 Goal=   None    Shift=    0.000
 Gap=     0.134 Goal=   None    Shift=    0.000
 RMSDP=1.32D-04 MaxDP=8.02D-03 DE=-3.03D-02 OVMax= 3.53D-03

 Cycle   7  Pass 1  IDiag  1:
 RMSU=  7.57D-05    CP:  9.75D-01  6.35D-01  7.57D-01  2.93D-01  8.53D-01
                    CP:  8.00D-01
 E= -954.033209612581     Delta-E=       -0.000132007952 Rises=F Damp=F
 DIIS: error= 1.41D-04 at cycle   7 NSaved=   7.
 NSaved= 7 IEnMin= 7 EnMin= -954.033209612581     IErMin= 7 ErrMin= 1.41D-04
 ErrMax= 1.41D-04  0.00D+00 EMaxC= 1.00D-01 BMatC= 3.23D-05 BMatP= 6.49D-04
 IDIUse=3 WtCom= 9.99D-01 WtEn= 1.41D-03
 Coeff-Com: -0.497D-03 0.225D-02 0.369D-01-0.187D-01 0.118D+00 0.178D+00
 Coeff-Com:  0.684D+00
 Coeff-En:   0.000D+00 0.000D+00 0.000D+00 0.000D+00 0.000D+00 0.000D+00
 Coeff-En:   0.100D+01
 Coeff:     -0.496D-03 0.225D-02 0.369D-01-0.187D-01 0.117D+00 0.178D+00
 Coeff:      0.685D+00
 Gap=     0.134 Goal=   None    Shift=    0.000
 Gap=     0.134 Goal=   None    Shift=    0.000
 RMSDP=3.80D-05 MaxDP=3.05D-03 DE=-1.32D-04 OVMax= 9.29D-04

 Cycle   8  Pass 1  IDiag  1:
 RMSU=  2.80D-05    CP:  9.75D-01  6.33D-01  7.57D-01  2.91D-01  8.41D-01
                    CP:  8.06D-01  7.65D-01
 E= -954.033215844074     Delta-E=       -0.000006231493 Rises=F Damp=F
 DIIS: error= 4.83D-05 at cycle   8 NSaved=   8.
 NSaved= 8 IEnMin= 8 EnMin= -954.033215844074     IErMin= 8 ErrMin= 4.83D-05
 ErrMax= 4.83D-05  0.00D+00 EMaxC= 1.00D-01 BMatC= 4.98D-06 BMatP= 3.23D-05
 IDIUse=1 WtCom= 1.00D+00 WtEn= 0.00D+00
 Coeff-Com:  0.150D-03-0.425D-03 0.807D-02-0.382D-02 0.226D-01 0.513D-01
 Coeff-Com:  0.379D+00 0.543D+00
 Coeff:      0.150D-03-0.425D-03 0.807D-02-0.382D-02 0.226D-01 0.513D-01
 Coeff:      0.379D+00 0.543D+00
 Gap=     0.134 Goal=   None    Shift=    0.000
 Gap=     0.134 Goal=   None    Shift=    0.000
 RMSDP=2.49D-05 MaxDP=1.61D-03 DE=-6.23D-06 OVMax= 5.06D-04

 Cycle   9  Pass 1  IDiag  1:
 RMSU=  1.35D-05    CP:  9.75D-01  6.33D-01  7.58D-01  2.92D-01  8.48D-01
                    CP:  7.76D-01  7.59D-01  4.91D-01
 E= -954.033216856351     Delta-E=       -0.000001012278 Rises=F Damp=F
 DIIS: error= 1.68D-05 at cycle   9 NSaved=   9.
 NSaved= 9 IEnMin= 9 EnMin= -954.033216856351     IErMin= 9 ErrMin= 1.68D-05
 ErrMax= 1.68D-05  0.00D+00 EMaxC= 1.00D-01 BMatC= 4.89D-07 BMatP= 4.98D-06
 IDIUse=1 WtCom= 1.00D+00 WtEn= 0.00D+00
 Coeff-Com:  0.136D-03-0.535D-03 0.222D-02-0.845D-03 0.499D-02 0.155D-01
 Coeff-Com:  0.156D+00 0.318D+00 0.504D+00
 Coeff:      0.136D-03-0.535D-03 0.222D-02-0.845D-03 0.499D-02 0.155D-01
 Coeff:      0.156D+00 0.318D+00 0.504D+00
 Gap=     0.134 Goal=   None    Shift=    0.000
 Gap=     0.134 Goal=   None    Shift=    0.000
 RMSDP=6.51D-06 MaxDP=5.96D-04 DE=-1.01D-06 OVMax= 1.58D-04

 Cycle  10  Pass 1  IDiag  1:
 RMSU=  2.40D-06    CP:  9.75D-01  6.33D-01  7.58D-01  2.92D-01  8.47D-01
                    CP:  7.83D-01  7.79D-01  5.44D-01  8.15D-01
 E= -954.033216977410     Delta-E=       -0.000000121058 Rises=F Damp=F
 DIIS: error= 2.38D-06 at cycle  10 NSaved=  10.
 NSaved=10 IEnMin=10 EnMin= -954.033216977410     IErMin=10 ErrMin= 2.38D-06
 ErrMax= 2.38D-06  0.00D+00 EMaxC= 1.00D-01 BMatC= 2.43D-08 BMatP= 4.89D-07
 IDIUse=1 WtCom= 1.00D+00 WtEn= 0.00D+00
 Coeff-Com:  0.516D-04-0.181D-03 0.254D-03-0.871D-04 0.285D-03 0.250D-02
 Coeff-Com:  0.391D-01 0.107D+00 0.239D+00 0.613D+00
 Coeff:      0.516D-04-0.181D-03 0.254D-03-0.871D-04 0.285D-03 0.250D-02
 Coeff:      0.391D-01 0.107D+00 0.239D+00 0.613D+00
 Gap=     0.134 Goal=   None    Shift=    0.000
 Gap=     0.134 Goal=   None    Shift=    0.000
 RMSDP=9.62D-07 MaxDP=7.77D-05 DE=-1.21D-07 OVMax= 2.87D-05

 Cycle  11  Pass 1  IDiag  1:
 RMSU=  7.09D-07    CP:  9.75D-01  6.33D-01  7.58D-01  2.92D-01  8.47D-01
                    CP:  7.83D-01  7.80D-01  5.40D-01  8.29D-01  9.07D-01
 E= -954.033216982179     Delta-E=       -0.000000004770 Rises=F Damp=F
 DIIS: error= 1.53D-06 at cycle  11 NSaved=  11.
 NSaved=11 IEnMin=11 EnMin= -954.033216982179     IErMin=11 ErrMin= 1.53D-06
 ErrMax= 1.53D-06  0.00D+00 EMaxC= 1.00D-01 BMatC= 5.50D-09 BMatP= 2.43D-08
 IDIUse=1 WtCom= 1.00D+00 WtEn= 0.00D+00
 Coeff-Com:  0.130D-04-0.336D-04-0.231D-03 0.782D-04-0.706D-03-0.758D-03
 Coeff-Com:  0.351D-02 0.255D-01 0.799D-01 0.375D+00 0.518D+00
 Coeff:      0.130D-04-0.336D-04-0.231D-03 0.782D-04-0.706D-03-0.758D-03
 Coeff:      0.351D-02 0.255D-01 0.799D-01 0.375D+00 0.518D+00
 Gap=     0.134 Goal=   None    Shift=    0.000
 Gap=     0.134 Goal=   None    Shift=    0.000
 RMSDP=4.11D-07 MaxDP=5.24D-05 DE=-4.77D-09 OVMax= 8.57D-06

 Cycle  12  Pass 1  IDiag  1:
 RMSU=  2.76D-07    CP:  9.75D-01  6.33D-01  7.58D-01  2.92D-01  8.47D-01
                    CP:  7.83D-01  7.79D-01  5.43D-01  8.31D-01  9.15D-01
                    CP:  7.02D-01
 E= -954.033216983261     Delta-E=       -0.000000001081 Rises=F Damp=F
 DIIS: error= 3.77D-07 at cycle  12 NSaved=  12.
 NSaved=12 IEnMin=12 EnMin= -954.033216983261     IErMin=12 ErrMin= 3.77D-07
 ErrMax= 3.77D-07  0.00D+00 EMaxC= 1.00D-01 BMatC= 4.68D-10 BMatP= 5.50D-09
 IDIUse=1 WtCom= 1.00D+00 WtEn= 0.00D+00
 Coeff-Com:  0.247D-05-0.387D-05-0.145D-03 0.451D-04-0.384D-03-0.561D-03
 Coeff-Com: -0.927D-03 0.626D-02 0.266D-01 0.179D+00 0.297D+00 0.494D+00
 Coeff:      0.247D-05-0.387D-05-0.145D-03 0.451D-04-0.384D-03-0.561D-03
 Coeff:     -0.927D-03 0.626D-02 0.266D-01 0.179D+00 0.297D+00 0.494D+00
 Gap=     0.134 Goal=   None    Shift=    0.000
 Gap=     0.134 Goal=   None    Shift=    0.000
 RMSDP=1.10D-07 MaxDP=7.78D-06 DE=-1.08D-09 OVMax= 2.32D-06

 Cycle  13  Pass 1  IDiag  1:
 RMSU=  6.88D-08    CP:  9.75D-01  6.33D-01  7.58D-01  2.92D-01  8.47D-01
                    CP:  7.83D-01  7.79D-01  5.44D-01  8.32D-01  9.23D-01
                    CP:  7.15D-01  7.72D-01
 E= -954.033216983360     Delta-E=       -0.000000000099 Rises=F Damp=F
 DIIS: error= 2.01D-07 at cycle  13 NSaved=  13.
 NSaved=13 IEnMin=13 EnMin= -954.033216983360     IErMin=13 ErrMin= 2.01D-07
 ErrMax= 2.01D-07  0.00D+00 EMaxC= 1.00D-01 BMatC= 6.49D-11 BMatP= 4.68D-10
 IDIUse=1 WtCom= 1.00D+00 WtEn= 0.00D+00
 Coeff-Com: -0.125D-05 0.271D-05-0.340D-04 0.122D-04-0.749D-04-0.134D-03
 Coeff-Com: -0.104D-02-0.161D-02-0.166D-02 0.276D-01 0.561D-01 0.270D+00
 Coeff-Com:  0.650D+00
 Coeff:     -0.125D-05 0.271D-05-0.340D-04 0.122D-04-0.749D-04-0.134D-03
 Coeff:     -0.104D-02-0.161D-02-0.166D-02 0.276D-01 0.561D-01 0.270D+00
 Coeff:      0.650D+00
 Gap=     0.134 Goal=   None    Shift=    0.000
 Gap=     0.134 Goal=   None    Shift=    0.000
 RMSDP=5.21D-08 MaxDP=5.25D-06 DE=-9.89D-11 OVMax= 1.11D-06

 Cycle  14  Pass 1  IDiag  1:
 RMSU=  2.75D-08    CP:  9.75D-01  6.33D-01  7.58D-01  2.92D-01  8.47D-01
                    CP:  7.83D-01  7.79D-01  5.45D-01  8.33D-01  9.25D-01
                    CP:  7.09D-01  8.50D-01  7.51D-01
 E= -954.033216983357     Delta-E=        0.000000000003 Rises=F Damp=F
 DIIS: error= 5.83D-08 at cycle  14 NSaved=  14.
 NSaved=14 IEnMin=13 EnMin= -954.033216983360     IErMin=14 ErrMin= 5.83D-08
 ErrMax= 5.83D-08  0.00D+00 EMaxC= 1.00D-01 BMatC= 7.80D-12 BMatP= 6.49D-11
 IDIUse=1 WtCom= 1.00D+00 WtEn= 0.00D+00
 Coeff-Com: -0.107D-05 0.205D-05-0.188D-05 0.112D-05 0.583D-05-0.991D-05
 Coeff-Com: -0.478D-03-0.171D-02-0.405D-02-0.395D-02-0.376D-02 0.936D-01
 Coeff-Com:  0.370D+00 0.551D+00
 Coeff:     -0.107D-05 0.205D-05-0.188D-05 0.112D-05 0.583D-05-0.991D-05
 Coeff:     -0.478D-03-0.171D-02-0.405D-02-0.395D-02-0.376D-02 0.936D-01
 Coeff:      0.370D+00 0.551D+00
 Gap=     0.134 Goal=   None    Shift=    0.000
 Gap=     0.134 Goal=   None    Shift=    0.000
 RMSDP=1.49D-08 MaxDP=1.06D-06 DE= 2.50D-12 OVMax= 4.43D-07

 Cycle  15  Pass 1  IDiag  1:
 RMSU=  8.19D-09    CP:  9.75D-01  6.33D-01  7.58D-01  2.92D-01  8.47D-01
                    CP:  7.83D-01  7.79D-01  5.44D-01  8.33D-01  9.26D-01
                    CP:  7.07D-01  8.63D-01  8.41D-01  8.92D-01
 E= -954.033216983362     Delta-E=       -0.000000000005 Rises=F Damp=F
 DIIS: error= 1.24D-08 at cycle  15 NSaved=  15.
 NSaved=15 IEnMin=15 EnMin= -954.033216983362     IErMin=15 ErrMin= 1.24D-08
 ErrMax= 1.24D-08  0.00D+00 EMaxC= 1.00D-01 BMatC= 5.34D-13 BMatP= 7.80D-12
 IDIUse=1 WtCom= 1.00D+00 WtEn= 0.00D+00
 Coeff-Com: -0.261D-06 0.553D-06 0.129D-05-0.197D-06 0.566D-05 0.683D-06
 Coeff-Com: -0.933D-04-0.564D-03-0.149D-02-0.450D-02-0.896D-02 0.852D-02
 Coeff-Com:  0.880D-01 0.253D+00 0.666D+00
 Coeff:     -0.261D-06 0.553D-06 0.129D-05-0.197D-06 0.566D-05 0.683D-06
 Coeff:     -0.933D-04-0.564D-03-0.149D-02-0.450D-02-0.896D-02 0.852D-02
 Coeff:      0.880D-01 0.253D+00 0.666D+00
 Gap=     0.134 Goal=   None    Shift=    0.000
 Gap=     0.134 Goal=   None    Shift=    0.000
 RMSDP=7.21D-09 MaxDP=4.58D-07 DE=-4.77D-12 OVMax= 1.46D-07

 Error on total polarization charges =  0.01603
 SCF Done:  E(UB3LYP) =  -954.033216983     A.U. after   15 cycles
            NFock= 15  Conv=0.72D-08     -V/T= 2.0039
 <Sx>= 0.0000 <Sy>= 0.0000 <Sz>= 0.0000 <S**2>=-0.0000 S=-0.0000
 <L.S>=  0.00000000000    
 KE= 9.503629071256D+02 PE=-5.179026198062D+03 EE= 1.800515193116D+03
 Annihilation of the first spin contaminant:
 S**2 before annihilation    -0.0000,   after     0.0000
 Leave Link  502 at Tue Jan 16 05:13:31 2024, MaxMem=  4026531840 cpu:            1568.8 elap:             210.7
 (Enter /sysapps/ubuntu-applications/gaussian/Gaussian/AVX2/g16/l601.exe)
 Copying SCF densities to generalized density rwf, IOpCl= 1 IROHF=0.

 **********************************************************************

            Population analysis using the SCF density.

 **********************************************************************

 Orbital symmetries:
 Alpha Orbitals:
       Occupied  (A) (A) (A) (A) (A) (A) (A) (A) (A) (A) (A) (A)
                 (A) (A) (A) (A) (A) (A) (A) (A) (A) (A) (A) (A)
                 (A) (A) (A) (A) (A) (A) (A) (A) (A) (A) (A) (A)
                 (A) (A) (A) (A) (A) (A) (A) (A) (A) (A) (A) (A)
                 (A) (A) (A) (A) (A) (A) (A) (A) (A) (A) (A) (A)
                 (A) (A) (A) (A) (A) (A) (A) (A) (A) (A)
       Virtual   (A) (A) (A) (A) (A) (A) (A) (A) (A) (A) (A) (A)
                 (A) (A) (A) (A) (A) (A) (A) (A) (A) (A) (A) (A)
                 (A) (A) (A) (A) (A) (A) (A) (A) (A) (A) (A) (A)
                 (A) (A) (A) (A) (A) (A) (A) (A) (A) (A) (A) (A)
                 (A) (A) (A) (A) (A) (A) (A) (A) (A) (A) (A) (A)
                 (A) (A) (A) (A) (A) (A) (A) (A) (A) (A) (A) (A)
                 (A) (A) (A) (A) (A) (A) (A) (A) (A) (A) (A) (A)
                 (A) (A) (A) (A) (A) (A) (A) (A) (A) (A) (A) (A)
                 (A) (A) (A) (A) (A) (A) (A) (A) (A) (A) (A) (A)
                 (A) (A) (A) (A) (A) (A) (A) (A) (A) (A) (A) (A)
                 (A) (A) (A) (A) (A) (A) (A) (A) (A) (A) (A) (A)
                 (A) (A) (A) (A) (A) (A) (A) (A) (A) (A) (A) (A)
                 (A) (A) (A) (A) (A) (A) (A) (A) (A) (A) (A) (A)
                 (A) (A) (A) (A) (A) (A) (A) (A) (A) (A) (A) (A)
                 (A) (A) (A) (A) (A) (A) (A) (A) (A) (A) (A) (A)
                 (A) (A) (A) (A) (A) (A) (A) (A) (A) (A) (A) (A)
                 (A) (A) (A) (A) (A) (A) (A) (A) (A) (A) (A) (A)
                 (A) (A) (A) (A) (A) (A) (A) (A) (A) (A) (A) (A)
                 (A) (A) (A) (A) (A) (A) (A) (A) (A) (A) (A) (A)
                 (A) (A) (A) (A) (A) (A) (A) (A) (A) (A) (A) (A)
                 (A) (A) (A) (A) (A) (A) (A) (A) (A) (A) (A) (A)
                 (A) (A) (A) (A) (A) (A) (A) (A) (A) (A) (A) (A)
                 (A) (A) (A) (A) (A) (A) (A) (A) (A) (A) (A) (A)
                 (A) (A) (A) (A) (A) (A) (A) (A) (A) (A) (A) (A)
                 (A) (A) (A) (A) (A) (A) (A) (A) (A) (A) (A) (A)
                 (A) (A) (A) (A) (A) (A) (A) (A) (A) (A) (A) (A)
                 (A) (A) (A) (A) (A) (A) (A) (A) (A) (A) (A) (A)
                 (A) (A) (A) (A) (A) (A) (A) (A) (A) (A) (A) (A)
                 (A) (A) (A) (A) (A) (A) (A) (A) (A) (A) (A) (A)
                 (A) (A) (A) (A) (A) (A) (A) (A) (A) (A) (A) (A)
                 (A) (A) (A) (A) (A) (A) (A) (A) (A) (A) (A) (A)
                 (A) (A) (A) (A) (A) (A) (A) (A) (A) (A) (A) (A)
                 (A) (A) (A) (A) (A) (A) (A) (A) (A) (A) (A) (A)
                 (A) (A) (A) (A) (A) (A) (A) (A) (A) (A) (A) (A)
                 (A) (A) (A) (A) (A) (A) (A) (A) (A) (A) (A) (A)
                 (A) (A) (A) (A) (A) (A) (A) (A) (A) (A) (A) (A)
                 (A)
 Beta  Orbitals:
       Occupied  (A) (A) (A) (A) (A) (A) (A) (A) (A) (A) (A) (A)
                 (A) (A) (A) (A) (A) (A) (A) (A) (A) (A) (A) (A)
                 (A) (A) (A) (A) (A) (A) (A) (A) (A) (A) (A) (A)
                 (A) (A) (A) (A) (A) (A) (A) (A) (A) (A) (A) (A)
                 (A) (A) (A) (A) (A) (A) (A) (A) (A) (A) (A) (A)
                 (A) (A) (A) (A) (A) (A) (A) (A) (A) (A)
       Virtual   (A) (A) (A) (A) (A) (A) (A) (A) (A) (A) (A) (A)
                 (A) (A) (A) (A) (A) (A) (A) (A) (A) (A) (A) (A)
                 (A) (A) (A) (A) (A) (A) (A) (A) (A) (A) (A) (A)
                 (A) (A) (A) (A) (A) (A) (A) (A) (A) (A) (A) (A)
                 (A) (A) (A) (A) (A) (A) (A) (A) (A) (A) (A) (A)
                 (A) (A) (A) (A) (A) (A) (A) (A) (A) (A) (A) (A)
                 (A) (A) (A) (A) (A) (A) (A) (A) (A) (A) (A) (A)
                 (A) (A) (A) (A) (A) (A) (A) (A) (A) (A) (A) (A)
                 (A) (A) (A) (A) (A) (A) (A) (A) (A) (A) (A) (A)
                 (A) (A) (A) (A) (A) (A) (A) (A) (A) (A) (A) (A)
                 (A) (A) (A) (A) (A) (A) (A) (A) (A) (A) (A) (A)
                 (A) (A) (A) (A) (A) (A) (A) (A) (A) (A) (A) (A)
                 (A) (A) (A) (A) (A) (A) (A) (A) (A) (A) (A) (A)
                 (A) (A) (A) (A) (A) (A) (A) (A) (A) (A) (A) (A)
                 (A) (A) (A) (A) (A) (A) (A) (A) (A) (A) (A) (A)
                 (A) (A) (A) (A) (A) (A) (A) (A) (A) (A) (A) (A)
                 (A) (A) (A) (A) (A) (A) (A) (A) (A) (A) (A) (A)
                 (A) (A) (A) (A) (A) (A) (A) (A) (A) (A) (A) (A)
                 (A) (A) (A) (A) (A) (A) (A) (A) (A) (A) (A) (A)
                 (A) (A) (A) (A) (A) (A) (A) (A) (A) (A) (A) (A)
                 (A) (A) (A) (A) (A) (A) (A) (A) (A) (A) (A) (A)
                 (A) (A) (A) (A) (A) (A) (A) (A) (A) (A) (A) (A)
                 (A) (A) (A) (A) (A) (A) (A) (A) (A) (A) (A) (A)
                 (A) (A) (A) (A) (A) (A) (A) (A) (A) (A) (A) (A)
                 (A) (A) (A) (A) (A) (A) (A) (A) (A) (A) (A) (A)
                 (A) (A) (A) (A) (A) (A) (A) (A) (A) (A) (A) (A)
                 (A) (A) (A) (A) (A) (A) (A) (A) (A) (A) (A) (A)
                 (A) (A) (A) (A) (A) (A) (A) (A) (A) (A) (A) (A)
                 (A) (A) (A) (A) (A) (A) (A) (A) (A) (A) (A) (A)
                 (A) (A) (A) (A) (A) (A) (A) (A) (A) (A) (A) (A)
                 (A) (A) (A) (A) (A) (A) (A) (A) (A) (A) (A) (A)
                 (A) (A) (A) (A) (A) (A) (A) (A) (A) (A) (A) (A)
                 (A) (A) (A) (A) (A) (A) (A) (A) (A) (A) (A) (A)
                 (A) (A) (A) (A) (A) (A) (A) (A) (A) (A) (A) (A)
                 (A) (A) (A) (A) (A) (A) (A) (A) (A) (A) (A) (A)
                 (A) (A) (A) (A) (A) (A) (A) (A) (A) (A) (A) (A)
                 (A)
 The electronic state is 1-A.
 Alpha  occ. eigenvalues --  -19.17669 -19.17357 -19.17138 -19.13074 -19.11650
 Alpha  occ. eigenvalues --  -10.28322 -10.27818 -10.27045 -10.26639 -10.26538
 Alpha  occ. eigenvalues --  -10.21304 -10.20892 -10.20770 -10.20500 -10.20394
 Alpha  occ. eigenvalues --  -10.19513 -10.19378 -10.19272 -10.18767 -10.17507
 Alpha  occ. eigenvalues --   -1.09196  -1.08882  -1.08811  -1.06625  -1.05404
 Alpha  occ. eigenvalues --   -0.89161  -0.87979  -0.81871  -0.78498  -0.77308
 Alpha  occ. eigenvalues --   -0.77002  -0.71922  -0.69173  -0.67100  -0.64780
 Alpha  occ. eigenvalues --   -0.63235  -0.60834  -0.59388  -0.57000  -0.53411
 Alpha  occ. eigenvalues --   -0.53025  -0.52703  -0.51210  -0.49586  -0.47822
 Alpha  occ. eigenvalues --   -0.47055  -0.46448  -0.45386  -0.44760  -0.44382
 Alpha  occ. eigenvalues --   -0.43886  -0.42688  -0.42571  -0.41918  -0.41794
 Alpha  occ. eigenvalues --   -0.40996  -0.39962  -0.39519  -0.39352  -0.38611
 Alpha  occ. eigenvalues --   -0.37520  -0.37205  -0.34984  -0.33728  -0.28510
 Alpha  occ. eigenvalues --   -0.27778  -0.26525  -0.26122  -0.25170  -0.24662
 Alpha virt. eigenvalues --   -0.11254  -0.06041  -0.03342  -0.01337  -0.01021
 Alpha virt. eigenvalues --   -0.00451   0.00136   0.00762   0.01627   0.02313
 Alpha virt. eigenvalues --    0.03153   0.03414   0.03594   0.03861   0.04345
 Alpha virt. eigenvalues --    0.04733   0.04842   0.05437   0.06332   0.06718
 Alpha virt. eigenvalues --    0.07281   0.07632   0.07911   0.08473   0.09108
 Alpha virt. eigenvalues --    0.09209   0.09593   0.10071   0.10611   0.10690
 Alpha virt. eigenvalues --    0.11178   0.11510   0.11985   0.12337   0.12419
 Alpha virt. eigenvalues --    0.12614   0.12921   0.13120   0.13498   0.13917
 Alpha virt. eigenvalues --    0.14144   0.14475   0.14784   0.15377   0.15659
 Alpha virt. eigenvalues --    0.16005   0.16815   0.17406   0.17607   0.17776
 Alpha virt. eigenvalues --    0.18292   0.18469   0.18890   0.18919   0.19391
 Alpha virt. eigenvalues --    0.19881   0.20185   0.20345   0.20755   0.21037
 Alpha virt. eigenvalues --    0.21391   0.21683   0.22330   0.22815   0.23326
 Alpha virt. eigenvalues --    0.23652   0.23803   0.24169   0.24636   0.25260
 Alpha virt. eigenvalues --    0.25471   0.25814   0.26550   0.26923   0.27377
 Alpha virt. eigenvalues --    0.27515   0.27931   0.28007   0.28186   0.28467
 Alpha virt. eigenvalues --    0.28665   0.28986   0.29035   0.29386   0.29440
 Alpha virt. eigenvalues --    0.30013   0.30425   0.30743   0.30852   0.31071
 Alpha virt. eigenvalues --    0.31709   0.31938   0.32480   0.33160   0.33407
 Alpha virt. eigenvalues --    0.33858   0.34518   0.34935   0.35124   0.35947
 Alpha virt. eigenvalues --    0.36117   0.36771   0.37073   0.37726   0.38452
 Alpha virt. eigenvalues --    0.38905   0.39491   0.40011   0.40689   0.41084
 Alpha virt. eigenvalues --    0.42484   0.43552   0.44339   0.44663   0.46595
 Alpha virt. eigenvalues --    0.47630   0.47823   0.49095   0.49514   0.50632
 Alpha virt. eigenvalues --    0.51844   0.53309   0.53865   0.54541   0.54953
 Alpha virt. eigenvalues --    0.55744   0.56082   0.57764   0.57929   0.59029
 Alpha virt. eigenvalues --    0.59383   0.59875   0.60265   0.60915   0.61781
 Alpha virt. eigenvalues --    0.61864   0.62303   0.62601   0.63368   0.64258
 Alpha virt. eigenvalues --    0.65017   0.65148   0.65437   0.65844   0.66708
 Alpha virt. eigenvalues --    0.67013   0.67549   0.68160   0.68702   0.68948
 Alpha virt. eigenvalues --    0.69933   0.70898   0.71808   0.72283   0.73850
 Alpha virt. eigenvalues --    0.74224   0.74705   0.76041   0.77399   0.78272
 Alpha virt. eigenvalues --    0.78945   0.80155   0.80415   0.83324   0.86697
 Alpha virt. eigenvalues --    0.87030   0.87318   0.87454   0.88589   0.89424
 Alpha virt. eigenvalues --    0.89805   0.89943   0.91209   0.92050   0.92879
 Alpha virt. eigenvalues --    0.93247   0.94025   0.94211   0.95181   0.95799
 Alpha virt. eigenvalues --    0.96890   0.97818   0.98991   0.99328   1.00743
 Alpha virt. eigenvalues --    1.01203   1.02565   1.03094   1.04011   1.04126
 Alpha virt. eigenvalues --    1.05193   1.06049   1.06917   1.07553   1.08602
 Alpha virt. eigenvalues --    1.09648   1.10965   1.11968   1.13610   1.14965
 Alpha virt. eigenvalues --    1.15684   1.16021   1.17280   1.18378   1.18766
 Alpha virt. eigenvalues --    1.19496   1.19875   1.21718   1.22472   1.22720
 Alpha virt. eigenvalues --    1.23710   1.24300   1.25518   1.28153   1.29207
 Alpha virt. eigenvalues --    1.32514   1.33598   1.35996   1.37231   1.38165
 Alpha virt. eigenvalues --    1.39410   1.39960   1.40638   1.41214   1.41552
 Alpha virt. eigenvalues --    1.43447   1.45422   1.46745   1.48139   1.49402
 Alpha virt. eigenvalues --    1.49794   1.50513   1.51816   1.52340   1.53889
 Alpha virt. eigenvalues --    1.54240   1.56252   1.56946   1.58013   1.59005
 Alpha virt. eigenvalues --    1.59493   1.59630   1.60748   1.61524   1.62165
 Alpha virt. eigenvalues --    1.62852   1.63577   1.67431   1.68884   1.68946
 Alpha virt. eigenvalues --    1.71614   1.72347   1.73180   1.74319   1.74946
 Alpha virt. eigenvalues --    1.76272   1.79593   1.81344   1.81542   1.82427
 Alpha virt. eigenvalues --    1.83691   1.85133   1.85946   1.86382   1.88179
 Alpha virt. eigenvalues --    1.89909   1.90845   1.91464   1.91876   1.93104
 Alpha virt. eigenvalues --    1.94444   1.95838   1.96513   1.97849   1.98674
 Alpha virt. eigenvalues --    2.00206   2.00907   2.01987   2.03003   2.04203
 Alpha virt. eigenvalues --    2.06015   2.07331   2.07902   2.09389   2.09898
 Alpha virt. eigenvalues --    2.11195   2.11923   2.12734   2.14880   2.17056
 Alpha virt. eigenvalues --    2.19042   2.20103   2.22773   2.26856   2.28246
 Alpha virt. eigenvalues --    2.31023   2.31673   2.33814   2.35316   2.35929
 Alpha virt. eigenvalues --    2.37529   2.39041   2.40954   2.46562   2.49008
 Alpha virt. eigenvalues --    2.53764   2.54229   2.55875   2.56395   2.58577
 Alpha virt. eigenvalues --    2.59606   2.60876   2.61601   2.63028   2.64110
 Alpha virt. eigenvalues --    2.64881   2.65842   2.67241   2.70083   2.70592
 Alpha virt. eigenvalues --    2.71603   2.72749   2.73832   2.74926   2.76542
 Alpha virt. eigenvalues --    2.77330   2.78296   2.79371   2.80714   2.81999
 Alpha virt. eigenvalues --    2.84400   2.84829   2.86698   2.88380   2.89206
 Alpha virt. eigenvalues --    2.91274   2.92343   2.94041   2.95072   2.95969
 Alpha virt. eigenvalues --    3.00055   3.02001   3.05755   3.06506   3.07690
 Alpha virt. eigenvalues --    3.07911   3.08207   3.09450   3.10076   3.10965
 Alpha virt. eigenvalues --    3.12814   3.15921   3.16631   3.17307   3.17825
 Alpha virt. eigenvalues --    3.19033   3.20183   3.20610   3.24016   3.24836
 Alpha virt. eigenvalues --    3.32026   3.33699   3.35142   3.36688   3.39900
 Alpha virt. eigenvalues --    3.41784   3.43577   3.46903   3.48162   3.51429
 Alpha virt. eigenvalues --    3.52299   3.53771   3.59418   3.62246   3.65076
 Alpha virt. eigenvalues --    3.65909   3.67281   3.69671   3.79918   3.80577
 Alpha virt. eigenvalues --    3.81577   3.82930   3.88464   3.89685   3.91437
 Alpha virt. eigenvalues --    3.92263   4.09771   4.09861   4.11830   4.17912
 Alpha virt. eigenvalues --    4.18628   4.22974   4.25401   4.31193   4.47412
 Alpha virt. eigenvalues --    4.68505   4.83081   4.84833   4.98314   4.99741
 Alpha virt. eigenvalues --    5.00193   5.04606   5.07978   5.24368   5.25917
 Alpha virt. eigenvalues --    5.42854   5.45990   5.51328   5.71096   5.75340
 Alpha virt. eigenvalues --    5.77009   5.78018   5.82155  23.49938  23.61271
 Alpha virt. eigenvalues --   23.85783  23.88320  23.88904  23.89740  23.91465
 Alpha virt. eigenvalues --   23.91903  23.96288  24.00249  24.02866  24.06347
 Alpha virt. eigenvalues --   24.07040  24.14664  24.15396  49.92024  49.93827
 Alpha virt. eigenvalues --   49.94807  50.03194  50.07784
  Beta  occ. eigenvalues --  -19.17669 -19.17357 -19.17138 -19.13074 -19.11650
  Beta  occ. eigenvalues --  -10.28322 -10.27818 -10.27045 -10.26639 -10.26538
  Beta  occ. eigenvalues --  -10.21304 -10.20892 -10.20770 -10.20500 -10.20394
  Beta  occ. eigenvalues --  -10.19513 -10.19378 -10.19272 -10.18767 -10.17507
  Beta  occ. eigenvalues --   -1.09196  -1.08882  -1.08811  -1.06625  -1.05404
  Beta  occ. eigenvalues --   -0.89161  -0.87979  -0.81871  -0.78498  -0.77308
  Beta  occ. eigenvalues --   -0.77002  -0.71922  -0.69173  -0.67100  -0.64780
  Beta  occ. eigenvalues --   -0.63235  -0.60834  -0.59388  -0.57000  -0.53411
  Beta  occ. eigenvalues --   -0.53025  -0.52703  -0.51210  -0.49586  -0.47822
  Beta  occ. eigenvalues --   -0.47055  -0.46448  -0.45386  -0.44760  -0.44382
  Beta  occ. eigenvalues --   -0.43886  -0.42688  -0.42571  -0.41918  -0.41794
  Beta  occ. eigenvalues --   -0.40996  -0.39962  -0.39519  -0.39352  -0.38611
  Beta  occ. eigenvalues --   -0.37520  -0.37205  -0.34984  -0.33728  -0.28510
  Beta  occ. eigenvalues --   -0.27778  -0.26525  -0.26122  -0.25170  -0.24662
  Beta virt. eigenvalues --   -0.11254  -0.06041  -0.03342  -0.01337  -0.01021
  Beta virt. eigenvalues --   -0.00451   0.00136   0.00762   0.01627   0.02313
  Beta virt. eigenvalues --    0.03153   0.03414   0.03594   0.03861   0.04345
  Beta virt. eigenvalues --    0.04733   0.04842   0.05437   0.06332   0.06718
  Beta virt. eigenvalues --    0.07281   0.07632   0.07911   0.08473   0.09108
  Beta virt. eigenvalues --    0.09209   0.09593   0.10071   0.10611   0.10690
  Beta virt. eigenvalues --    0.11178   0.11510   0.11985   0.12337   0.12419
  Beta virt. eigenvalues --    0.12614   0.12921   0.13120   0.13498   0.13917
  Beta virt. eigenvalues --    0.14144   0.14475   0.14784   0.15377   0.15659
  Beta virt. eigenvalues --    0.16005   0.16815   0.17406   0.17607   0.17776
  Beta virt. eigenvalues --    0.18292   0.18469   0.18890   0.18919   0.19391
  Beta virt. eigenvalues --    0.19881   0.20185   0.20345   0.20755   0.21037
  Beta virt. eigenvalues --    0.21391   0.21683   0.22330   0.22815   0.23326
  Beta virt. eigenvalues --    0.23652   0.23803   0.24169   0.24636   0.25260
  Beta virt. eigenvalues --    0.25471   0.25814   0.26550   0.26923   0.27377
  Beta virt. eigenvalues --    0.27515   0.27931   0.28007   0.28186   0.28467
  Beta virt. eigenvalues --    0.28665   0.28986   0.29035   0.29386   0.29440
  Beta virt. eigenvalues --    0.30013   0.30425   0.30743   0.30852   0.31071
  Beta virt. eigenvalues --    0.31709   0.31938   0.32480   0.33160   0.33407
  Beta virt. eigenvalues --    0.33858   0.34518   0.34935   0.35124   0.35947
  Beta virt. eigenvalues --    0.36117   0.36771   0.37073   0.37726   0.38452
  Beta virt. eigenvalues --    0.38905   0.39491   0.40011   0.40689   0.41084
  Beta virt. eigenvalues --    0.42484   0.43552   0.44339   0.44663   0.46595
  Beta virt. eigenvalues --    0.47630   0.47823   0.49095   0.49514   0.50632
  Beta virt. eigenvalues --    0.51844   0.53309   0.53865   0.54541   0.54953
  Beta virt. eigenvalues --    0.55744   0.56082   0.57764   0.57929   0.59029
  Beta virt. eigenvalues --    0.59383   0.59875   0.60265   0.60915   0.61781
  Beta virt. eigenvalues --    0.61864   0.62303   0.62601   0.63368   0.64258
  Beta virt. eigenvalues --    0.65017   0.65148   0.65437   0.65844   0.66708
  Beta virt. eigenvalues --    0.67013   0.67549   0.68160   0.68702   0.68948
  Beta virt. eigenvalues --    0.69933   0.70898   0.71808   0.72283   0.73850
  Beta virt. eigenvalues --    0.74224   0.74705   0.76041   0.77399   0.78272
  Beta virt. eigenvalues --    0.78945   0.80155   0.80415   0.83324   0.86697
  Beta virt. eigenvalues --    0.87030   0.87318   0.87454   0.88589   0.89424
  Beta virt. eigenvalues --    0.89805   0.89943   0.91209   0.92050   0.92879
  Beta virt. eigenvalues --    0.93247   0.94025   0.94211   0.95181   0.95799
  Beta virt. eigenvalues --    0.96890   0.97818   0.98991   0.99328   1.00743
  Beta virt. eigenvalues --    1.01203   1.02565   1.03094   1.04011   1.04126
  Beta virt. eigenvalues --    1.05193   1.06049   1.06917   1.07553   1.08602
  Beta virt. eigenvalues --    1.09648   1.10965   1.11968   1.13610   1.14965
  Beta virt. eigenvalues --    1.15684   1.16021   1.17280   1.18378   1.18766
  Beta virt. eigenvalues --    1.19496   1.19875   1.21718   1.22472   1.22720
  Beta virt. eigenvalues --    1.23710   1.24300   1.25518   1.28153   1.29207
  Beta virt. eigenvalues --    1.32514   1.33598   1.35996   1.37231   1.38165
  Beta virt. eigenvalues --    1.39410   1.39960   1.40638   1.41214   1.41552
  Beta virt. eigenvalues --    1.43447   1.45422   1.46745   1.48139   1.49402
  Beta virt. eigenvalues --    1.49794   1.50513   1.51816   1.52340   1.53889
  Beta virt. eigenvalues --    1.54240   1.56252   1.56946   1.58013   1.59005
  Beta virt. eigenvalues --    1.59493   1.59630   1.60748   1.61524   1.62165
  Beta virt. eigenvalues --    1.62852   1.63577   1.67431   1.68884   1.68946
  Beta virt. eigenvalues --    1.71614   1.72347   1.73180   1.74319   1.74946
  Beta virt. eigenvalues --    1.76272   1.79593   1.81344   1.81542   1.82427
  Beta virt. eigenvalues --    1.83691   1.85133   1.85946   1.86382   1.88179
  Beta virt. eigenvalues --    1.89909   1.90845   1.91464   1.91876   1.93104
  Beta virt. eigenvalues --    1.94444   1.95838   1.96513   1.97849   1.98674
  Beta virt. eigenvalues --    2.00206   2.00907   2.01987   2.03003   2.04203
  Beta virt. eigenvalues --    2.06015   2.07331   2.07902   2.09389   2.09898
  Beta virt. eigenvalues --    2.11195   2.11923   2.12734   2.14880   2.17056
  Beta virt. eigenvalues --    2.19042   2.20103   2.22773   2.26856   2.28246
  Beta virt. eigenvalues --    2.31023   2.31673   2.33814   2.35316   2.35929
  Beta virt. eigenvalues --    2.37529   2.39041   2.40954   2.46562   2.49008
  Beta virt. eigenvalues --    2.53764   2.54229   2.55875   2.56395   2.58577
  Beta virt. eigenvalues --    2.59606   2.60876   2.61601   2.63028   2.64110
  Beta virt. eigenvalues --    2.64881   2.65842   2.67241   2.70083   2.70592
  Beta virt. eigenvalues --    2.71603   2.72749   2.73832   2.74926   2.76542
  Beta virt. eigenvalues --    2.77330   2.78296   2.79371   2.80714   2.81999
  Beta virt. eigenvalues --    2.84400   2.84829   2.86698   2.88380   2.89206
  Beta virt. eigenvalues --    2.91274   2.92343   2.94041   2.95072   2.95969
  Beta virt. eigenvalues --    3.00055   3.02001   3.05755   3.06506   3.07690
  Beta virt. eigenvalues --    3.07911   3.08207   3.09450   3.10076   3.10965
  Beta virt. eigenvalues --    3.12814   3.15921   3.16631   3.17307   3.17825
  Beta virt. eigenvalues --    3.19033   3.20183   3.20610   3.24016   3.24836
  Beta virt. eigenvalues --    3.32026   3.33699   3.35142   3.36688   3.39900
  Beta virt. eigenvalues --    3.41784   3.43577   3.46903   3.48162   3.51429
  Beta virt. eigenvalues --    3.52299   3.53771   3.59418   3.62246   3.65076
  Beta virt. eigenvalues --    3.65909   3.67281   3.69671   3.79918   3.80577
  Beta virt. eigenvalues --    3.81577   3.82930   3.88464   3.89685   3.91437
  Beta virt. eigenvalues --    3.92263   4.09771   4.09861   4.11830   4.17912
  Beta virt. eigenvalues --    4.18628   4.22974   4.25401   4.31193   4.47412
  Beta virt. eigenvalues --    4.68505   4.83081   4.84833   4.98314   4.99741
  Beta virt. eigenvalues --    5.00193   5.04606   5.07978   5.24368   5.25917
  Beta virt. eigenvalues --    5.42854   5.45990   5.51328   5.71096   5.75340
  Beta virt. eigenvalues --    5.77009   5.78018   5.82155  23.49938  23.61271
  Beta virt. eigenvalues --   23.85783  23.88320  23.88904  23.89740  23.91465
  Beta virt. eigenvalues --   23.91903  23.96288  24.00249  24.02866  24.06347
  Beta virt. eigenvalues --   24.07040  24.14664  24.15396  49.92024  49.93827
  Beta virt. eigenvalues --   49.94807  50.03194  50.07784
          Condensed to atoms (all electrons):
               1          2          3          4          5          6
     1  C    6.936479  -0.497275  -0.429674   0.082661   0.011173  -0.274887
     2  C   -0.497275  10.899644   0.577248  -1.411278   0.095726  -0.350731
     3  C   -0.429674   0.577248  14.655562  -2.056255   0.359207  -2.972446
     4  C    0.082661  -1.411278  -2.056255  11.274720   0.170936   2.178646
     5  O    0.011173   0.095726   0.359207   0.170936   8.065895  -0.367754
     6  C   -0.274887  -0.350731  -2.972446   2.178646  -0.367754  14.528712
     7  C   -0.094906  -0.504931  -0.961031  -1.460019  -0.164702   1.479773
     8  O   -0.001295  -0.002614  -0.032491  -0.050838   0.000883  -0.094722
     9  C   -0.063647  -0.253754  -0.299238  -0.107359   0.001161   1.144914
    10  C    0.001873  -0.090725  -0.229443  -0.306573  -0.011401  -0.164429
    11  O   -0.000031  -0.000530  -0.000834  -0.006718  -0.000614   0.011729
    12  C   -0.003974  -0.077062   0.065853  -0.184149  -0.001135  -0.619512
    13  C   -0.003587  -0.019923  -0.031610  -0.062270  -0.000068   0.151534
    14  O    0.000005   0.000014  -0.000019   0.000180   0.000000  -0.001701
    15  C    0.013453  -0.049086  -0.298667  -0.030324  -0.003960  -1.437068
    16  C    0.041690   0.418773  -0.093962  -1.261609  -0.020177  -5.316722
    17  C    0.056896   0.750805  -0.779848  -0.558433   0.002360   3.110792
    18  O    0.004389   0.123256   0.021110  -0.031941  -0.000007  -0.315088
    19  C   -0.329257  -3.105017   0.151167  -0.867363  -0.057714  -2.590804
    20  C   -0.167829  -0.730270  -1.360855   0.678972  -0.035087  -2.267525
    21  H    0.374215  -0.065950   0.090193   0.004323   0.000527  -0.007384
    22  H    0.416056  -0.074045  -0.058645  -0.022684   0.000446  -0.012769
    23  H    0.375860   0.054885  -0.043260   0.003869  -0.000366   0.015773
    24  H   -0.010441   0.001960   0.405402  -0.103753  -0.028951  -0.006809
    25  H   -0.002394  -0.033371  -0.329520   0.234692   0.201921   0.124979
    26  H    0.000020   0.000099  -0.000702  -0.002235  -0.000030  -0.006224
    27  H   -0.000056  -0.000898   0.000939   0.000055   0.000000  -0.006844
    28  H    0.000030   0.000007  -0.000232   0.000227  -0.000002  -0.000478
    29  H    0.000235   0.005124  -0.002911   0.001930   0.000029   0.023494
    30  H   -0.076885  -0.185444   0.044680   0.034686  -0.000204   0.149154
               7          8          9         10         11         12
     1  C   -0.094906  -0.001295  -0.063647   0.001873  -0.000031  -0.003974
     2  C   -0.504931  -0.002614  -0.253754  -0.090725  -0.000530  -0.077062
     3  C   -0.961031  -0.032491  -0.299238  -0.229443  -0.000834   0.065853
     4  C   -1.460019  -0.050838  -0.107359  -0.306573  -0.006718  -0.184149
     5  O   -0.164702   0.000883   0.001161  -0.011401  -0.000614  -0.001135
     6  C    1.479773  -0.094722   1.144914  -0.164429   0.011729  -0.619512
     7  C   12.957847   0.793232   1.587260  -2.231635  -0.167320  -1.488161
     8  O    0.793232   8.157210  -0.097729   0.009095   0.001997  -0.036856
     9  C    1.587260  -0.097729  16.214087   1.638252  -0.323664  -4.144597
    10  C   -2.231635   0.009095   1.638252  12.402651   0.200630  -3.937639
    11  O   -0.167320   0.001997  -0.323664   0.200630   8.053526   0.246217
    12  C   -1.488161  -0.036856  -4.144597  -3.937639   0.246217  18.006193
    13  C   -0.115646   0.011075   0.706943  -0.773940   0.063054   0.106387
    14  O   -0.003766  -0.000036   0.009600   0.061236  -0.001261  -0.502852
    15  C   -2.231155   0.009872  -2.818049   3.378213   0.006192  -3.860767
    16  C   -1.049132  -0.181186  -2.768822  -2.347822  -0.028272   3.155012
    17  C    2.326213   0.000735   2.525462  -0.952953  -0.003450  -1.028378
    18  O   -0.040579   0.000194  -0.333239  -0.021450  -0.000007   0.022975
    19  C   -1.278834  -0.171620  -5.320289  -0.759455  -0.013381  -0.031550
    20  C   -1.129614  -0.006055  -1.376286   0.047348  -0.002304  -0.209034
    21  H   -0.006262   0.000106   0.000436   0.000079   0.000000   0.000010
    22  H    0.001895   0.000025  -0.000514   0.000172  -0.000001   0.000013
    23  H    0.001774  -0.000049  -0.000315  -0.000003  -0.000001  -0.000064
    24  H    0.028002   0.000391   0.000373   0.000673   0.000023   0.000472
    25  H    0.015031  -0.002142  -0.008074  -0.000994  -0.000023  -0.000188
    26  H    0.017427  -0.001806   0.125736   0.268378   0.201092  -0.377351
    27  H    0.021248  -0.000116  -0.022104  -0.223761  -0.021491   0.806531
    28  H   -0.005146   0.000021  -0.014569  -0.003008  -0.000218   0.108674
    29  H    0.012732   0.000318   0.131957   0.044846   0.000443  -0.051724
    30  H    0.021389   0.000254   0.027556  -0.004098   0.000047   0.001087
              13         14         15         16         17         18
     1  C   -0.003587   0.000005   0.013453   0.041690   0.056896   0.004389
     2  C   -0.019923   0.000014  -0.049086   0.418773   0.750805   0.123256
     3  C   -0.031610  -0.000019  -0.298667  -0.093962  -0.779848   0.021110
     4  C   -0.062270   0.000180  -0.030324  -1.261609  -0.558433  -0.031941
     5  O   -0.000068   0.000000  -0.003960  -0.020177   0.002360  -0.000007
     6  C    0.151534  -0.001701  -1.437068  -5.316722   3.110792  -0.315088
     7  C   -0.115646  -0.003766  -2.231155  -1.049132   2.326213  -0.040579
     8  O    0.011075  -0.000036   0.009872  -0.181186   0.000735   0.000194
     9  C    0.706943   0.009600  -2.818049  -2.768822   2.525462  -0.333239
    10  C   -0.773940   0.061236   3.378213  -2.347822  -0.952953  -0.021450
    11  O    0.063054  -0.001261   0.006192  -0.028272  -0.003450  -0.000007
    12  C    0.106387  -0.502852  -3.860767   3.155012  -1.028378   0.022975
    13  C   10.090545   0.288086  -1.833864  -2.170629   0.536910   0.081564
    14  O    0.288086   7.991665   0.182401  -0.014128   0.015222  -0.000431
    15  C   -1.833864   0.182401  16.894731  -2.008300  -2.854400   0.214159
    16  C   -2.170629  -0.014128  -2.008300  19.093440  -2.399897  -0.200936
    17  C    0.536910   0.015222  -2.854400  -2.399897  11.563323   0.487259
    18  O    0.081564  -0.000431   0.214159  -0.200936   0.487259   8.201538
    19  C    0.021129   0.004563   1.723638   1.384009  -3.176067  -0.152231
    20  C   -0.175042   0.000403   0.580728   1.166381  -2.978750   0.217041
    21  H   -0.000118   0.000000   0.000360   0.001777  -0.000398   0.000126
    22  H   -0.000233   0.000000  -0.000068   0.008679   0.007940   0.001543
    23  H    0.000130  -0.000000   0.000169  -0.001486   0.009012  -0.000168
    24  H    0.000044  -0.000000  -0.001906  -0.001811  -0.009453   0.000116
    25  H   -0.000229   0.000000   0.000888  -0.000229  -0.002264   0.000027
    26  H   -0.018153   0.000351   0.036034  -0.011319  -0.003419   0.000033
    27  H   -0.069809  -0.034758  -0.215200   0.055303  -0.011783   0.000360
    28  H    0.051874   0.274665  -0.111594  -0.028685   0.000467   0.000237
    29  H   -0.252293  -0.012234   0.356292   0.152417   0.005689  -0.004378
    30  H    0.007521  -0.000066  -0.025106  -0.098691   0.030201  -0.013401
              19         20         21         22         23         24
     1  C   -0.329257  -0.167829   0.374215   0.416056   0.375860  -0.010441
     2  C   -3.105017  -0.730270  -0.065950  -0.074045   0.054885   0.001960
     3  C    0.151167  -1.360855   0.090193  -0.058645  -0.043260   0.405402
     4  C   -0.867363   0.678972   0.004323  -0.022684   0.003869  -0.103753
     5  O   -0.057714  -0.035087   0.000527   0.000446  -0.000366  -0.028951
     6  C   -2.590804  -2.267525  -0.007384  -0.012769   0.015773  -0.006809
     7  C   -1.278834  -1.129614  -0.006262   0.001895   0.001774   0.028002
     8  O   -0.171620  -0.006055   0.000106   0.000025  -0.000049   0.000391
     9  C   -5.320289  -1.376286   0.000436  -0.000514  -0.000315   0.000373
    10  C   -0.759455   0.047348   0.000079   0.000172  -0.000003   0.000673
    11  O   -0.013381  -0.002304   0.000000  -0.000001  -0.000001   0.000023
    12  C   -0.031550  -0.209034   0.000010   0.000013  -0.000064   0.000472
    13  C    0.021129  -0.175042  -0.000118  -0.000233   0.000130   0.000044
    14  O    0.004563   0.000403   0.000000   0.000000  -0.000000  -0.000000
    15  C    1.723638   0.580728   0.000360  -0.000068   0.000169  -0.001906
    16  C    1.384009   1.166381   0.001777   0.008679  -0.001486  -0.001811
    17  C   -3.176067  -2.978750  -0.000398   0.007940   0.009012  -0.009453
    18  O   -0.152231   0.217041   0.000126   0.001543  -0.000168   0.000116
    19  C   17.309724   2.771478  -0.021205   0.012584  -0.014622   0.025574
    20  C    2.771478  10.715338  -0.014986   0.075293  -0.046775   0.021160
    21  H   -0.021205  -0.014986   0.546134  -0.027492  -0.035012  -0.004420
    22  H    0.012584   0.075293  -0.027492   0.535821  -0.026198   0.002589
    23  H   -0.014622  -0.046775  -0.035012  -0.026198   0.514809   0.000456
    24  H    0.025574   0.021160  -0.004420   0.002589   0.000456   0.519569
    25  H    0.017100   0.012599   0.000369  -0.000129  -0.000108   0.000155
    26  H    0.001075   0.001386   0.000001   0.000001  -0.000001  -0.000005
    27  H   -0.004075  -0.003477  -0.000000  -0.000001  -0.000000  -0.000001
    28  H    0.004375   0.001447   0.000000   0.000001   0.000000  -0.000000
    29  H   -0.087646  -0.007964   0.000025   0.000045  -0.000009  -0.000077
    30  H    0.107274   0.300809   0.001168  -0.006334  -0.000478  -0.000026
              25         26         27         28         29         30
     1  C   -0.002394   0.000020  -0.000056   0.000030   0.000235  -0.076885
     2  C   -0.033371   0.000099  -0.000898   0.000007   0.005124  -0.185444
     3  C   -0.329520  -0.000702   0.000939  -0.000232  -0.002911   0.044680
     4  C    0.234692  -0.002235   0.000055   0.000227   0.001930   0.034686
     5  O    0.201921  -0.000030   0.000000  -0.000002   0.000029  -0.000204
     6  C    0.124979  -0.006224  -0.006844  -0.000478   0.023494   0.149154
     7  C    0.015031   0.017427   0.021248  -0.005146   0.012732   0.021389
     8  O   -0.002142  -0.001806  -0.000116   0.000021   0.000318   0.000254
     9  C   -0.008074   0.125736  -0.022104  -0.014569   0.131957   0.027556
    10  C   -0.000994   0.268378  -0.223761  -0.003008   0.044846  -0.004098
    11  O   -0.000023   0.201092  -0.021491  -0.000218   0.000443   0.000047
    12  C   -0.000188  -0.377351   0.806531   0.108674  -0.051724   0.001087
    13  C   -0.000229  -0.018153  -0.069809   0.051874  -0.252293   0.007521
    14  O    0.000000   0.000351  -0.034758   0.274665  -0.012234  -0.000066
    15  C    0.000888   0.036034  -0.215200  -0.111594   0.356292  -0.025106
    16  C   -0.000229  -0.011319   0.055303  -0.028685   0.152417  -0.098691
    17  C   -0.002264  -0.003419  -0.011783   0.000467   0.005689   0.030201
    18  O    0.000027   0.000033   0.000360   0.000237  -0.004378  -0.013401
    19  C    0.017100   0.001075  -0.004075   0.004375  -0.087646   0.107274
    20  C    0.012599   0.001386  -0.003477   0.001447  -0.007964   0.300809
    21  H    0.000369   0.000001  -0.000000   0.000000   0.000025   0.001168
    22  H   -0.000129   0.000001  -0.000001   0.000001   0.000045  -0.006334
    23  H   -0.000108  -0.000001  -0.000000   0.000000  -0.000009  -0.000478
    24  H    0.000155  -0.000005  -0.000001  -0.000000  -0.000077  -0.000026
    25  H    0.463439  -0.000016  -0.000002   0.000001  -0.000008   0.000371
    26  H   -0.000016   0.461678  -0.004314  -0.000058   0.000653  -0.000030
    27  H   -0.000002  -0.004314   0.524346   0.004227  -0.001820   0.000003
    28  H    0.000001  -0.000058   0.004227   0.413892  -0.008823  -0.000046
    29  H   -0.000008   0.000653  -0.001820  -0.008823   0.516536  -0.000426
    30  H    0.000371  -0.000030   0.000003  -0.000046  -0.000426   0.523374
          Atomic-Atomic Spin Densities.
               1          2          3          4          5          6
     1  C   -0.000000  -0.000000  -0.000000   0.000000  -0.000000  -0.000000
     2  C   -0.000000   0.000000  -0.000000  -0.000000   0.000000  -0.000000
     3  C   -0.000000  -0.000000  -0.000000   0.000000  -0.000000   0.000000
     4  C    0.000000  -0.000000   0.000000  -0.000000   0.000000  -0.000000
     5  O   -0.000000   0.000000  -0.000000   0.000000  -0.000000   0.000000
     6  C   -0.000000  -0.000000   0.000000  -0.000000   0.000000  -0.000000
     7  C    0.000000   0.000000   0.000000  -0.000000   0.000000  -0.000000
     8  O    0.000000   0.000000   0.000000   0.000000  -0.000000  -0.000000
     9  C   -0.000000  -0.000000   0.000000  -0.000000  -0.000000  -0.000000
    10  C    0.000000   0.000000  -0.000000   0.000000  -0.000000  -0.000000
    11  O   -0.000000  -0.000000   0.000000  -0.000000  -0.000000  -0.000000
    12  C   -0.000000   0.000000  -0.000000   0.000000   0.000000   0.000000
    13  C    0.000000   0.000000   0.000000   0.000000  -0.000000  -0.000000
    14  O    0.000000  -0.000000  -0.000000  -0.000000   0.000000  -0.000000
    15  C    0.000000   0.000000  -0.000000   0.000000  -0.000000  -0.000000
    16  C    0.000000   0.000000  -0.000000   0.000000  -0.000000   0.000000
    17  C   -0.000000   0.000000   0.000000  -0.000000   0.000000  -0.000000
    18  O   -0.000000   0.000000  -0.000000   0.000000   0.000000   0.000000
    19  C    0.000000   0.000000  -0.000000   0.000000  -0.000000   0.000000
    20  C    0.000000  -0.000000  -0.000000   0.000000  -0.000000   0.000000
    21  H    0.000000  -0.000000  -0.000000   0.000000  -0.000000   0.000000
    22  H    0.000000   0.000000  -0.000000   0.000000  -0.000000   0.000000
    23  H    0.000000   0.000000   0.000000  -0.000000   0.000000  -0.000000
    24  H   -0.000000  -0.000000  -0.000000   0.000000  -0.000000   0.000000
    25  H    0.000000  -0.000000   0.000000  -0.000000   0.000000  -0.000000
    26  H    0.000000   0.000000  -0.000000  -0.000000  -0.000000   0.000000
    27  H   -0.000000   0.000000   0.000000   0.000000   0.000000   0.000000
    28  H    0.000000  -0.000000  -0.000000  -0.000000  -0.000000  -0.000000
    29  H   -0.000000  -0.000000   0.000000  -0.000000  -0.000000  -0.000000
    30  H   -0.000000  -0.000000   0.000000  -0.000000   0.000000  -0.000000
               7          8          9         10         11         12
     1  C    0.000000   0.000000  -0.000000   0.000000  -0.000000  -0.000000
     2  C    0.000000   0.000000  -0.000000   0.000000  -0.000000   0.000000
     3  C    0.000000   0.000000   0.000000  -0.000000   0.000000  -0.000000
     4  C   -0.000000   0.000000  -0.000000   0.000000  -0.000000   0.000000
     5  O    0.000000  -0.000000  -0.000000  -0.000000  -0.000000   0.000000
     6  C   -0.000000  -0.000000  -0.000000  -0.000000  -0.000000   0.000000
     7  C    0.000000  -0.000000  -0.000000  -0.000000   0.000000   0.000000
     8  O   -0.000000   0.000000  -0.000000   0.000000  -0.000000   0.000000
     9  C   -0.000000  -0.000000  -0.000000  -0.000000   0.000000   0.000000
    10  C   -0.000000   0.000000  -0.000000  -0.000000   0.000000   0.000000
    11  O    0.000000  -0.000000   0.000000   0.000000  -0.000000  -0.000000
    12  C    0.000000   0.000000   0.000000   0.000000  -0.000000  -0.000000
    13  C   -0.000000  -0.000000  -0.000000  -0.000000   0.000000   0.000000
    14  O   -0.000000   0.000000  -0.000000  -0.000000  -0.000000  -0.000000
    15  C   -0.000000   0.000000  -0.000000   0.000000  -0.000000  -0.000000
    16  C    0.000000   0.000000   0.000000   0.000000  -0.000000  -0.000000
    17  C    0.000000  -0.000000  -0.000000  -0.000000   0.000000   0.000000
    18  O    0.000000   0.000000   0.000000   0.000000   0.000000  -0.000000
    19  C    0.000000   0.000000   0.000000   0.000000  -0.000000  -0.000000
    20  C   -0.000000   0.000000   0.000000   0.000000  -0.000000  -0.000000
    21  H    0.000000   0.000000   0.000000   0.000000   0.000000  -0.000000
    22  H    0.000000   0.000000   0.000000  -0.000000   0.000000  -0.000000
    23  H   -0.000000  -0.000000  -0.000000   0.000000  -0.000000   0.000000
    24  H    0.000000  -0.000000   0.000000  -0.000000   0.000000  -0.000000
    25  H   -0.000000   0.000000   0.000000   0.000000  -0.000000  -0.000000
[...]
     3  C   -0.389721   0.000000
     4  C   -0.142095   0.000000
     5  O   -0.218092   0.000000
     6  C   -0.105603   0.000000
     7  C   -0.330984   0.000000
     8  O   -0.305853  -0.000000
     9  C   -0.161488   0.000000
    10  C    0.005883  -0.000000
    11  O   -0.214830   0.000000
    12  C    0.035570  -0.000000
    13  C   -0.589381   0.000000
    14  O   -0.257140   0.000000
    15  C    0.382384  -0.000000
    16  C    0.526334  -0.000000
    17  C   -0.669792   0.000000
    18  O   -0.262069  -0.000000
    19  C    0.447439  -0.000000
    20  C   -0.078531  -0.000000
    21  H    0.163377   0.000000
    22  H    0.166011   0.000000
    23  H    0.192180  -0.000000
    24  H    0.160694   0.000000
    25  H    0.308117  -0.000000
    26  H    0.311699  -0.000000
    27  H    0.207499  -0.000000
    28  H    0.312715  -0.000000
    29  H    0.177548  -0.000000
    30  H    0.161662  -0.000000
 Sum of Mulliken charges =  -0.00000  -0.00000
 Mulliken charges and spin densities with hydrogens summed into heavy atoms:
               1          2
     1  C    0.162672   0.000000
     2  C    0.525362  -0.000000
     3  C   -0.229027   0.000000
     4  C   -0.142095   0.000000
     5  O    0.090025   0.000000
     6  C   -0.105603   0.000000
     7  C   -0.330984   0.000000
     8  O   -0.305853  -0.000000
     9  C   -0.161488   0.000000
    10  C    0.005883  -0.000000
    11  O    0.096869   0.000000
    12  C    0.243069  -0.000000
    13  C   -0.589381   0.000000
    14  O    0.055576  -0.000000
    15  C    0.559932  -0.000000
    16  C    0.526334  -0.000000
    17  C   -0.669792   0.000000
    18  O   -0.262069  -0.000000
    19  C    0.447439  -0.000000
    20  C    0.083131  -0.000000
 Electronic spatial extent (au):  <R**2>=           5793.4078
 Charge=             -0.0000 electrons
 Dipole moment (field-independent basis, Debye):
    X=              1.5682    Y=             -1.9792    Z=              1.9265  Tot=              3.1762
 Quadrupole moment (field-independent basis, Debye-Ang):
   XX=            -66.1035   YY=           -121.5973   ZZ=           -117.2786
   XY=              4.1898   XZ=              1.1460   YZ=              2.6038
 Traceless Quadrupole moment (field-independent basis, Debye-Ang):
   XX=             35.5563   YY=            -19.9375   ZZ=            -15.6188
   XY=              4.1898   XZ=              1.1460   YZ=              2.6038
 Octapole moment (field-independent basis, Debye-Ang**2):
  XXX=             74.2959  YYY=            -10.7185  ZZZ=              0.1973  XYY=            -33.2871
  XXY=             38.5823  XXZ=             15.6858  XZZ=             -3.3737  YZZ=              4.1450
  YYZ=             18.9088  XYZ=             -1.8495
 Hexadecapole moment (field-independent basis, Debye-Ang**3):
 XXXX=          -4748.8970 YYYY=          -2002.7475 ZZZZ=           -155.2712 XXXY=             33.9637
 XXXZ=             28.0114 YYYX=            144.6657 YYYZ=             21.0488 ZZZX=              3.0344
 ZZZY=             -0.0856 XXYY=           -793.9455 XXZZ=           -983.9030 YYZZ=           -358.0326
 XXYZ=             30.1657 YYXZ=             -5.2754 ZZXY=              4.8214
 N-N= 1.474114880837D+03 E-N=-5.179026201502D+03  KE= 9.503629071256D+02
                          Isotropic Fermi Contact Couplings
        Atom                 a.u.       MegaHertz       Gauss      10(-4) cm-1
     1  C(13)             -0.00000      -0.00000      -0.00000      -0.00000
     2  C(13)             -0.00000      -0.00000      -0.00000      -0.00000
     3  C(13)             -0.00000      -0.00000      -0.00000      -0.00000
     4  C(13)             -0.00000      -0.00000      -0.00000      -0.00000
     5  O(17)             -0.00000       0.00000       0.00000       0.00000
     6  C(13)              0.00000       0.00000       0.00000       0.00000
     7  C(13)              0.00000       0.00000       0.00000       0.00000
     8  O(17)              0.00000      -0.00000      -0.00000      -0.00000
     9  C(13)              0.00000       0.00000       0.00000       0.00000
    10  C(13)             -0.00000      -0.00000      -0.00000      -0.00000
    11  O(17)              0.00000      -0.00000      -0.00000      -0.00000
    12  C(13)             -0.00000      -0.00000      -0.00000      -0.00000
    13  C(13)              0.00000       0.00000       0.00000       0.00000
    14  O(17)             -0.00000       0.00000       0.00000       0.00000
    15  C(13)             -0.00000      -0.00000      -0.00000      -0.00000
    16  C(13)             -0.00000      -0.00000      -0.00000      -0.00000
    17  C(13)             -0.00000      -0.00000      -0.00000      -0.00000
    18  O(17)              0.00000      -0.00000      -0.00000      -0.00000
    19  C(13)              0.00000       0.00000       0.00000       0.00000
    20  C(13)              0.00000       0.00000       0.00000       0.00000
    21  H(1)              -0.00000      -0.00000      -0.00000      -0.00000
    22  H(1)              -0.00000      -0.00000      -0.00000      -0.00000
    23  H(1)               0.00000       0.00000       0.00000       0.00000
    24  H(1)              -0.00000      -0.00000      -0.00000      -0.00000
    25  H(1)               0.00000       0.00000       0.00000       0.00000
    26  H(1)               0.00000       0.00000       0.00000       0.00000
    27  H(1)               0.00000       0.00000       0.00000       0.00000
    28  H(1)              -0.00000      -0.00000      -0.00000      -0.00000
    29  H(1)               0.00000       0.00000       0.00000       0.00000
    30  H(1)               0.00000       0.00000       0.00000       0.00000
 --------------------------------------------------------
       Center         ----  Spin Dipole Couplings  ----
                      3XX-RR        3YY-RR        3ZZ-RR
 --------------------------------------------------------
     1   Atom       -0.000000      0.000000     -0.000000
     2   Atom        0.000000     -0.000000     -0.000000
     3   Atom       -0.000000     -0.000000      0.000000
     4   Atom        0.000000     -0.000000     -0.000000
     5   Atom       -0.000000      0.000000      0.000000
     6   Atom        0.000000     -0.000000      0.000000
     7   Atom        0.000000     -0.000000     -0.000000
     8   Atom       -0.000000      0.000000      0.000000
     9   Atom        0.000000     -0.000000      0.000000
    10   Atom        0.000000     -0.000000      0.000000
    11   Atom       -0.000000      0.000000      0.000000
    12   Atom       -0.000000      0.000000     -0.000000
    13   Atom       -0.000000     -0.000000      0.000000
    14   Atom        0.000000     -0.000000      0.000000
    15   Atom       -0.000000      0.000000     -0.000000
    16   Atom        0.000000     -0.000000     -0.000000
    17   Atom        0.000000      0.000000     -0.000000
    18   Atom       -0.000000     -0.000000      0.000000
    19   Atom        0.000000     -0.000000      0.000000
    20   Atom       -0.000000     -0.000000      0.000000
    21   Atom        0.000000     -0.000000     -0.000000
    22   Atom        0.000000     -0.000000     -0.000000
    23   Atom        0.000000      0.000000     -0.000000
    24   Atom        0.000000     -0.000000      0.000000
    25   Atom        0.000000     -0.000000      0.000000
    26   Atom        0.000000     -0.000000      0.000000
    27   Atom       -0.000000     -0.000000      0.000000
    28   Atom        0.000000     -0.000000      0.000000
    29   Atom       -0.000000     -0.000000      0.000000
    30   Atom       -0.000000      0.000000      0.000000
 --------------------------------------------------------
                        XY            XZ            YZ
 --------------------------------------------------------
     1   Atom        0.000000      0.000000     -0.000000
     2   Atom        0.000000     -0.000000     -0.000000
     3   Atom       -0.000000      0.000000     -0.000000
     4   Atom       -0.000000      0.000000      0.000000
     5   Atom        0.000000      0.000000     -0.000000
     6   Atom       -0.000000     -0.000000      0.000000
     7   Atom        0.000000      0.000000     -0.000000
     8   Atom        0.000000     -0.000000     -0.000000
     9   Atom       -0.000000     -0.000000     -0.000000
    10   Atom        0.000000      0.000000      0.000000
    11   Atom       -0.000000     -0.000000     -0.000000
    12   Atom       -0.000000     -0.000000      0.000000
    13   Atom        0.000000     -0.000000      0.000000
    14   Atom        0.000000      0.000000     -0.000000
    15   Atom        0.000000     -0.000000      0.000000
    16   Atom        0.000000      0.000000     -0.000000
    17   Atom        0.000000     -0.000000     -0.000000
    18   Atom       -0.000000     -0.000000     -0.000000
    19   Atom        0.000000     -0.000000     -0.000000
    20   Atom        0.000000      0.000000     -0.000000
    21   Atom       -0.000000     -0.000000     -0.000000
    22   Atom       -0.000000     -0.000000      0.000000
    23   Atom        0.000000     -0.000000     -0.000000
    24   Atom       -0.000000     -0.000000     -0.000000
    25   Atom       -0.000000     -0.000000     -0.000000
    26   Atom        0.000000     -0.000000     -0.000000
    27   Atom       -0.000000      0.000000     -0.000000
    28   Atom        0.000000     -0.000000     -0.000000
    29   Atom        0.000000     -0.000000     -0.000000
    30   Atom       -0.000000     -0.000000     -0.000000
 --------------------------------------------------------


 ---------------------------------------------------------------------------------
              Anisotropic Spin Dipole Couplings in Principal Axis System
 ---------------------------------------------------------------------------------

       Atom             a.u.   MegaHertz   Gauss  10(-4) cm-1        Axes

              Baa    -0.0000    -0.000    -0.000    -0.000 -0.5935  0.2529  0.7641
     1 C(13)  Bbb     0.0000     0.000     0.000     0.000  0.4280  0.9031  0.0336
              Bcc     0.0000     0.000     0.000     0.000  0.6816 -0.3470  0.6442
 
              Baa    -0.0000    -0.000    -0.000    -0.000 -0.5346  0.6213 -0.5729
     2 C(13)  Bbb    -0.0000    -0.000    -0.000    -0.000 -0.1962  0.5681  0.7992
              Bcc     0.0000     0.000     0.000     0.000  0.8220  0.5397 -0.1818
 
              Baa    -0.0000    -0.000    -0.000    -0.000  0.0391  0.9122  0.4078
     3 C(13)  Bbb    -0.0000    -0.000    -0.000    -0.000  0.9991 -0.0290 -0.0309
              Bcc     0.0000     0.000     0.000     0.000  0.0164 -0.4087  0.9125
 
              Baa    -0.0000    -0.000    -0.000    -0.000 -0.4971 -0.4645  0.7329
     4 C(13)  Bbb    -0.0000    -0.000    -0.000    -0.000 -0.2113  0.8840  0.4170
              Bcc     0.0000     0.000     0.000     0.000  0.8416 -0.0524  0.5376
 
              Baa    -0.0000     0.000     0.000     0.000  0.8648 -0.5015 -0.0237
     5 O(17)  Bbb     0.0000    -0.000    -0.000    -0.000  0.3641  0.5940  0.7173
              Bcc     0.0000    -0.000    -0.000    -0.000 -0.3456 -0.6290  0.6963
 
              Baa    -0.0000    -0.000    -0.000    -0.000  0.0841  0.9964 -0.0047
     6 C(13)  Bbb     0.0000     0.000     0.000     0.000  0.3339 -0.0238  0.9423
              Bcc     0.0000     0.000     0.000     0.000  0.9389 -0.0809 -0.3347
 
              Baa    -0.0000    -0.000    -0.000    -0.000 -0.1615  0.9250  0.3439
     7 C(13)  Bbb    -0.0000    -0.000    -0.000    -0.000 -0.0197 -0.3515  0.9360
              Bcc     0.0000     0.000     0.000     0.000  0.9867  0.1444  0.0750
 
              Baa    -0.0000     0.000     0.000     0.000  0.7920 -0.6065 -0.0701
     8 O(17)  Bbb     0.0000    -0.000    -0.000    -0.000  0.3765  0.3948  0.8381
              Bcc     0.0000    -0.000    -0.000    -0.000  0.4807  0.6901 -0.5410
 
              Baa    -0.0000    -0.000    -0.000    -0.000  0.0681  0.9840  0.1649
     9 C(13)  Bbb     0.0000     0.000     0.000     0.000  0.4337 -0.1781  0.8833
              Bcc     0.0000     0.000     0.000     0.000  0.8985  0.0113 -0.4389
 
              Baa    -0.0000    -0.000    -0.000    -0.000 -0.2633  0.9550 -0.1367
    10 C(13)  Bbb    -0.0000    -0.000    -0.000    -0.000 -0.5673 -0.0387  0.8226
              Bcc     0.0000     0.000     0.000     0.000  0.7803  0.2942  0.5519
 
              Baa    -0.0000     0.000     0.000     0.000  0.9470  0.3132  0.0707
    11 O(17)  Bbb     0.0000    -0.000    -0.000    -0.000 -0.3128  0.8503  0.4233
              Bcc     0.0000    -0.000    -0.000    -0.000  0.0725 -0.4230  0.9032
 
              Baa    -0.0000    -0.000    -0.000    -0.000  0.7114  0.1869  0.6775
    12 C(13)  Bbb    -0.0000    -0.000    -0.000    -0.000  0.4297  0.6471 -0.6298
              Bcc     0.0000     0.000     0.000     0.000 -0.5561  0.7391  0.3800
 
              Baa    -0.0000    -0.000    -0.000    -0.000 -0.4978  0.8440 -0.1999
    13 C(13)  Bbb     0.0000     0.000     0.000     0.000  0.8325  0.4002 -0.3831
              Bcc     0.0000     0.000     0.000     0.000  0.2433  0.3571  0.9018
 
              Baa    -0.0000     0.000     0.000     0.000 -0.5980  0.7053  0.3807
    14 O(17)  Bbb     0.0000    -0.000    -0.000    -0.000 -0.1400 -0.5596  0.8169
              Bcc     0.0000    -0.000    -0.000    -0.000  0.7892  0.4352  0.4334
 
              Baa    -0.0000    -0.000    -0.000    -0.000  0.5845 -0.2090  0.7840
    15 C(13)  Bbb     0.0000     0.000     0.000     0.000  0.7932 -0.0562 -0.6064
              Bcc     0.0000     0.000     0.000     0.000  0.1708  0.9763  0.1329
 
              Baa    -0.0000    -0.000    -0.000    -0.000 -0.0717  0.8889  0.4526
    16 C(13)  Bbb    -0.0000    -0.000    -0.000    -0.000  0.0414 -0.4507  0.8917
              Bcc     0.0000     0.000     0.000     0.000  0.9966  0.0827 -0.0045
 
              Baa    -0.0000    -0.000    -0.000    -0.000  0.1305  0.1155  0.9847
    17 C(13)  Bbb     0.0000     0.000     0.000     0.000 -0.6467  0.7627 -0.0037
              Bcc     0.0000     0.000     0.000     0.000  0.7515  0.6363 -0.1742
 
              Baa    -0.0000     0.000     0.000     0.000  0.7437  0.4866  0.4584
    18 O(17)  Bbb     0.0000    -0.000    -0.000    -0.000 -0.2361  0.8327 -0.5009
              Bcc     0.0000    -0.000    -0.000    -0.000 -0.6255  0.2642  0.7341
 
              Baa    -0.0000    -0.000    -0.000    -0.000 -0.0581  0.9895  0.1323
    19 C(13)  Bbb     0.0000     0.000     0.000     0.000  0.2879 -0.1103  0.9513
              Bcc     0.0000     0.000     0.000     0.000  0.9559  0.0933 -0.2785
 
              Baa    -0.0000    -0.000    -0.000    -0.000  0.8197 -0.5668 -0.0828
    20 C(13)  Bbb     0.0000     0.000     0.000     0.000  0.5580  0.8228 -0.1078
              Bcc     0.0000     0.000     0.000     0.000  0.1292  0.0422  0.9907
 
              Baa    -0.0000    -0.000    -0.000    -0.000  0.1340  0.9435  0.3032
    21 H(1)   Bbb    -0.0000    -0.000    -0.000    -0.000  0.3056 -0.3304  0.8930
              Bcc     0.0000     0.000     0.000     0.000  0.9427 -0.0270 -0.3326
 
              Baa    -0.0000    -0.000    -0.000    -0.000  0.6093  0.7902 -0.0656
    22 H(1)   Bbb    -0.0000    -0.000    -0.000    -0.000  0.2305 -0.0973  0.9682
              Bcc     0.0000     0.000     0.000     0.000  0.7587 -0.6050 -0.2414
 
              Baa    -0.0000    -0.000    -0.000    -0.000  0.4456  0.2636  0.8556
    23 H(1)   Bbb     0.0000     0.000     0.000     0.000 -0.6914  0.7085  0.1417
              Bcc     0.0000     0.000     0.000     0.000  0.5688  0.6547 -0.4979
 
              Baa    -0.0000    -0.000    -0.000    -0.000  0.4421  0.8925  0.0900
    24 H(1)   Bbb     0.0000     0.000     0.000     0.000  0.2097 -0.2004  0.9570
              Bcc     0.0000     0.000     0.000     0.000  0.8721 -0.4042 -0.2757
 
              Baa    -0.0000    -0.000    -0.000    -0.000  0.2659  0.9636  0.0287
    25 H(1)   Bbb     0.0000     0.000     0.000     0.000  0.9386 -0.2655  0.2201
              Bcc     0.0000     0.000     0.000     0.000 -0.2197  0.0316  0.9751
 
              Baa    -0.0000    -0.000    -0.000    -0.000 -0.2816  0.9582  0.0504
    26 H(1)   Bbb     0.0000     0.000     0.000     0.000  0.2533  0.0235  0.9671
              Bcc     0.0000     0.000     0.000     0.000  0.9255  0.2851 -0.2494
 
              Baa    -0.0000    -0.000    -0.000    -0.000  0.2417  0.9703 -0.0129
    27 H(1)   Bbb    -0.0000    -0.000    -0.000    -0.000  0.9417 -0.2377 -0.2382
              Bcc     0.0000     0.000     0.000     0.000  0.2342 -0.0454  0.9711
 
              Baa    -0.0000    -0.000    -0.000    -0.000 -0.1669  0.9828  0.0791
    28 H(1)   Bbb     0.0000     0.000     0.000     0.000  0.4273 -0.0002  0.9041
              Bcc     0.0000     0.000     0.000     0.000  0.8886  0.1847 -0.4200
 
              Baa    -0.0000    -0.000    -0.000    -0.000 -0.5847  0.8062  0.0909
    29 H(1)   Bbb     0.0000     0.000     0.000     0.000  0.7716  0.5180  0.3694
              Bcc     0.0000     0.000     0.000     0.000 -0.2507 -0.2861  0.9248
 
              Baa    -0.0000    -0.000    -0.000    -0.000  0.9004  0.4260  0.0884
    30 H(1)   Bbb     0.0000     0.000     0.000     0.000 -0.1005  0.0060  0.9949
              Bcc     0.0000     0.000     0.000     0.000 -0.4233  0.9047 -0.0482
 

 ---------------------------------------------------------------------------------

 No NMR shielding tensors so no spin-rotation constants.
 Leave Link  601 at Tue Jan 16 05:13:32 2024, MaxMem=  4026531840 cpu:               2.2 elap:               0.3
 (Enter /sysapps/ubuntu-applications/gaussian/Gaussian/AVX2/g16/l9999.exe)
 1\1\GINC-ACIDSCN027\SP\UB3LYP\6-311++G(d,p)\C15H10O5\SELHAJJ1\16-Jan-2
 024\0\\#P UB3LYP/6-311++G(d,p) SCRF=(PCM,Solvent=n,n-DiMethylFormamide
 )\\Quinone PCM in DMF\\0,1\C,0,4.63102,1.209734,-0.677615\C,0,3.327515
 ,0.574809,-0.262886\C,0,3.305596,-0.68914,0.324668\C,0,2.112779,-1.313
 897,0.703781\O,0,2.139779,-2.549291,1.260965\C,0,0.875951,-0.666052,0.
 487488\C,0,-0.421238,-1.270672,0.929954\O,0,-0.451669,-2.205775,1.7075
 65\C,0,-1.67204,-0.652398,0.398333\C,0,-2.934392,-1.283684,0.526704\O,
 0,-3.011594,-2.51875,1.074932\C,0,-4.090469,-0.651269,0.068484\C,0,-4.
 027466,0.613205,-0.50999\O,0,-5.202339,1.165778,-0.921025\C,0,-2.80104
 9,1.253887,-0.653241\C,0,-1.644763,0.616674,-0.211247\C,0,-0.352827,1.
 337233,-0.419666\O,0,-0.336764,2.478144,-0.854336\C,0,0.910118,0.60381
 8,-0.122799\C,0,2.109615,1.217316,-0.480162\H,0,5.444187,0.933175,-0.0
 02506\H,0,4.552249,2.29829,-0.691981\H,0,4.915346,0.886842,-1.684932\H
 ,0,4.242448,-1.212756,0.501645\H,0,3.052412,-2.856759,1.301075\H,0,-3.
 927117,-2.819316,1.052626\H,0,-5.055921,-1.138036,0.160702\H,0,-5.0376
 87,2.034834,-1.303314\H,0,-2.71605,2.236608,-1.102757\H,0,2.06857,2.20
 0445,-0.93207\\Version=ES64L-G16RevA.03\State=1-A\HF=-954.033217\S2=0.
 \S2-1=0.\S2A=0.\RMSD=7.208e-09\Dipole=0.6440152,0.3545432,-1.0104618\Q
 uadrupole=26.3869062,-12.6272368,-13.7596694,-3.1228139,1.7435689,2.35
 7337\PG=C01 [X(C15H10O5)]\\@


 SATCHEL PAIGE'S GUIDE TO LONGEVITY

    1.  AVOID FRIED MEATS, WHICH ANGRY UP THE BLOOD.

    2.  IF YOUR STOMACH DISPUTES YOU, LIE DOWN AND PACIFY IT WITH COOL
        THOUGHTS.

    3.  KEEP THE JUICES FLOWING BY JANGLING AROUND GENTLY AS YOU MOVE.

    4.  GO VERY LIGHT ON THE VICES, SUCH AS CARRYING ON IN SOCIETY.
        THE SOCIAL RUMBLE AIN'T RESTFUL.

    5.  AVOID RUNNING AT ALL TIMES.

    6.  DON'T LOOK BACK.  SOMETHING MAY BE GAINING ON YOU.
 Job cpu time:       0 days  0 hours 26 minutes 47.7 seconds.
 Elapsed time:       0 days  0 hours  3 minutes 37.1 seconds.
 File lengths (MBytes):  RWF=    350 Int=      0 D2E=      0 Chk=     20 Scr=      1
 Normal termination of Gaussian 16 at Tue Jan 16 05:13:32 2024.
