 Entering Gaussian System, Link 0=g16
 Input=193.com
 Output=193.log
 Initial command:
 /sysapps/ubuntu-applications/gaussian/Gaussian/AVX2/g16/l1.exe "/scratch/selhajj1/4407268/Gau-436716.inp" -scrdir="/scratch/selhajj1/4407268/"
 Entering Link 1 = /sysapps/ubuntu-applications/gaussian/Gaussian/AVX2/g16/l1.exe PID=    436722.
  
 Copyright (c) 1988,1990,1992,1993,1995,1998,2003,2009,2016,
            Gaussian, Inc.  All Rights Reserved.
  
 This is part of the Gaussian(R) 16 program.  It is based on
 the Gaussian(R) 09 system (copyright 2009, Gaussian, Inc.),
 the Gaussian(R) 03 system (copyright 2003, Gaussian, Inc.),
 the Gaussian(R) 98 system (copyright 1998, Gaussian, Inc.),
 the Gaussian(R) 94 system (copyright 1995, Gaussian, Inc.),
 the Gaussian 92(TM) system (copyright 1992, Gaussian, Inc.),
 the Gaussian 90(TM) system (copyright 1990, Gaussian, Inc.),
 the Gaussian 88(TM) system (copyright 1988, Gaussian, Inc.),
 the Gaussian 86(TM) system (copyright 1986, Carnegie Mellon
 University), and the Gaussian 82(TM) system (copyright 1983,
 Carnegie Mellon University). Gaussian is a federally registered
 trademark of Gaussian, Inc.
  
 This software contains proprietary and confidential information,
 including trade secrets, belonging to Gaussian, Inc.
  
 This software is provided under written license and may be
 used, copied, transmitted, or stored only in accord with that
 written license.
  
 The following legend is applicable only to US Government
 contracts under FAR:
  
                    RESTRICTED RIGHTS LEGEND
  
 Use, reproduction and disclosure by the US Government is
 subject to restrictions as set forth in subparagraphs (a)
 and (c) of the Commercial Computer Software - Restricted
 Rights clause in FAR 52.227-19.
  
 Gaussian, Inc.
 340 Quinnipiac St., Bldg. 40, Wallingford CT 06492
  
  
 ---------------------------------------------------------------
 Warning -- This program may not be used in any manner that
 competes with the business of Gaussian, Inc. or will provide
 assistance to any competitor of Gaussian, Inc.  The licensee
 of this program is prohibited from giving any competitor of
 Gaussian, Inc. access to this program.  By using this program,
 the user acknowledges that Gaussian, Inc. is engaged in the
 business of creating and licensing software in the field of
 computational chemistry and represents and warrants to the
 licensee that it is not a competitor of Gaussian, Inc. and that
 it will not use this program in any manner prohibited above.
 ---------------------------------------------------------------
  

 Cite this work as:
 Gaussian 16, Revision A.03,
 M. J. Frisch, G. W. Trucks, H. B. Schlegel, G. E. Scuseria, 
 M. A. Robb, J. R. Cheeseman, G. Scalmani, V. Barone, 
 G. A. Petersson, H. Nakatsuji, X. Li, M. Caricato, A. V. Marenich, 
 J. Bloino, B. G. Janesko, R. Gomperts, B. Mennucci, H. P. Hratchian, 
 J. V. Ortiz, A. F. Izmaylov, J. L. Sonnenberg, D. Williams-Young, 
 F. Ding, F. Lipparini, F. Egidi, J. Goings, B. Peng, A. Petrone, 
 T. Henderson, D. Ranasinghe, V. G. Zakrzewski, J. Gao, N. Rega, 
 G. Zheng, W. Liang, M. Hada, M. Ehara, K. Toyota, R. Fukuda, 
 J. Hasegawa, M. Ishida, T. Nakajima, Y. Honda, O. Kitao, H. Nakai, 
 T. Vreven, K. Throssell, J. A. Montgomery, Jr., J. E. Peralta, 
 F. Ogliaro, M. J. Bearpark, J. J. Heyd, E. N. Brothers, K. N. Kudin, 
 V. N. Staroverov, T. A. Keith, R. Kobayashi, J. Normand, 
 K. Raghavachari, A. P. Rendell, J. C. Burant, S. S. Iyengar, 
 J. Tomasi, M. Cossi, J. M. Millam, M. Klene, C. Adamo, R. Cammi, 
 J. W. Ochterski, R. L. Martin, K. Morokuma, O. Farkas, 
 J. B. Foresman, and D. J. Fox, Gaussian, Inc., Wallingford CT, 2016.
 
 ******************************************
 Gaussian 16:  ES64L-G16RevA.03 25-Dec-2016
                10-Feb-2024 
 ******************************************
 %chk=193.chk
 %nproc=8
 Will use up to    8 processors via shared memory.
 %mem=30GB
 ----------------------------------------------------------------------
 #P UB3LYP/6-311++G(d,p) nosym opt freq SCRF=(PCM,Solvent=n,n-DiMethylF
 ormamide)
 ----------------------------------------------------------------------
 1/18=20,19=15,26=3,38=1/1,3;
 2/9=110,12=2,15=1,17=6,18=5,40=1/2;
 3/5=4,6=6,7=1111,11=2,25=1,30=1,70=2201,71=1,72=148,74=-5,116=2/1,2,3;
 4//1;
 5/5=2,38=5,53=148/2;
 6/7=2,8=2,9=2,10=2,28=1/1;
 7/30=1/1,2,3,16;
 1/18=20,19=15,26=3/3(2);
 2/9=110,15=1/2;
 99//99;
 2/9=110,15=1/2;
 3/5=4,6=6,7=1111,11=2,25=1,30=1,70=2205,71=1,72=148,74=-5,116=2/1,2,3;
 4/5=5,16=3,69=1/1;
 5/5=2,38=5,53=148/2;
 7/30=1/1,2,3,16;
 1/18=20,19=15,26=3/3(-5);
 2/9=110,15=1/2;
 6/7=2,8=2,9=2,10=2,19=2,28=1/1;
 99/9=1/99;
 Leave Link    1 at Sat Feb 10 21:58:14 2024, MaxMem=  4026531840 cpu:               0.8 elap:               0.1
 (Enter /sysapps/ubuntu-applications/gaussian/Gaussian/AVX2/g16/l101.exe)
 --------
 Oxidized
 --------
 Symbolic Z-matrix:
 Charge =  0 Multiplicity = 1
 C                     5.42447   4.57803  -2.1553 
 O                     4.718     3.49367  -1.56263 
 C                     5.36588   2.34161  -1.29931 
 C                     6.72607   2.16774  -1.5835 
 C                     7.36075   0.96352  -1.29837 
 C                     6.65812  -0.08728  -0.72839 
 C                     5.30256   0.0643   -0.43899 
 C                     4.61185  -1.12382   0.17708 
 O                     5.26059  -2.13052   0.40683 
 C                     3.16442  -1.00563   0.47129 
 C                     2.44168  -2.07125   1.02409 
 O                     3.08085  -3.23079   1.31229 
 C                     1.05141  -1.94749   1.29049 
 C                     0.32533  -3.13123   1.89325 
 C                    -1.21164  -3.02131   1.89783 
 O                    -1.74432  -3.39325   0.63039 
 C                    -1.62023  -1.58812   2.2894 
 C                    -1.07001  -0.56603   1.29625 
 O                    -1.76621  -0.6942    0.02419 
 C                    -2.68739   0.31882  -0.2814 
 C                    -3.12581   0.15637  -1.73595 
 C                    -4.57716   0.63582  -1.95448 
 N                    -4.77104   0.9821   -3.35981 
 C                    -4.90945   1.75157  -0.94875 
 O                    -4.00637   2.82984  -1.22222 
 C                    -4.80803   1.19476   0.49112 
 C                    -4.62108   2.26669   1.56279 
 O                    -3.80087   0.17298   0.60978 
 C                     0.40659  -0.74983   1.02658 
 C                     1.1203    0.33799   0.47591 
 O                     0.42949   1.46642   0.25065 
 C                     2.49467   0.21923   0.19181 
 C                     3.19279   1.38405  -0.3865 
 O                     2.5629    2.4362   -0.59004 
 C                     4.62885   1.27152  -0.71339 
 C                    -1.79368  -3.98429   2.96248 
 C                    -3.06361  -4.71927   2.61609 
 O                    -1.24609  -4.10014   4.03848 
 H                     4.68916   5.37266  -2.26558 
 H                     5.81916   4.30831  -3.14024 
 H                     6.2401    4.92406  -1.51212 
 H                     7.29411   2.97233  -2.02819 
 H                     8.41491   0.85259  -1.52698 
 H                     7.13144  -1.03199  -0.49829 
 H                     2.45646  -3.86106   1.68748 
 H                     0.65657  -3.27962   2.92839 
 H                     0.5648   -4.04406   1.33354 
 H                    -1.88568  -2.59069   0.10387 
 H                    -1.22369  -1.3734    3.28631 
 H                    -2.70679  -1.49036   2.32319 
 H                    -1.24099   0.44249   1.67683 
 H                    -2.21796   1.29343  -0.11352 
 H                    -2.44792   0.72674  -2.37454 
 H                    -3.04268  -0.89285  -2.02524 
 H                    -5.25316  -0.1946   -1.7271 
 H                    -4.26107   1.83261  -3.58015 
 H                    -5.75069   1.15064  -3.56594 
 H                    -5.94179   2.09143  -1.10742 
 H                    -4.28732   3.61618  -0.74546 
 H                    -5.74876   0.66679   0.68243 
 H                    -3.66863   2.78851   1.44443 
 H                    -4.6362    1.80655   2.55248 
 H                    -5.43103   3.0038    1.52337 
 H                     1.08934   2.11541  -0.12644 
 H                    -2.87308  -5.41067   1.791 
 H                    -3.41773  -5.25961   3.4929 
 H                    -3.82542  -4.02438   2.25371 
 
 ITRead=  0  0  0  0  0  0  0  0  0  0  0  0  0  0  0  0  0  0  0  0
 ITRead=  0  0  0  0  0  0  0  0  0  0  0  0  0  0  0  0  0  0  0  0
 ITRead=  0  0  0  0  0  0  0  0  0  0  0  0  0  0  0  0  0  0  0  0
 ITRead=  0  0  0  0  0  0  0
 MicOpt= -1 -1 -1 -1 -1 -1 -1 -1 -1 -1 -1 -1 -1 -1 -1 -1 -1 -1 -1 -1
 MicOpt= -1 -1 -1 -1 -1 -1 -1 -1 -1 -1 -1 -1 -1 -1 -1 -1 -1 -1 -1 -1
 MicOpt= -1 -1 -1 -1 -1 -1 -1 -1 -1 -1 -1 -1 -1 -1 -1 -1 -1 -1 -1 -1
 MicOpt= -1 -1 -1 -1 -1 -1 -1
 NAtoms=     67 NQM=       67 NQMF=       0 NMMI=      0 NMMIF=      0
                NMic=       0 NMicF=      0.
                    Isotopes and Nuclear Properties:
 (Nuclear quadrupole moments (NQMom) in fm**2, nuclear magnetic moments (NMagM)
  in nuclear magnetons)

  Atom         1           2           3           4           5           6           7           8           9          10
 IAtWgt=          12          16          12          12          12          12          12          12          16          12
 AtmWgt=  12.0000000  15.9949146  12.0000000  12.0000000  12.0000000  12.0000000  12.0000000  12.0000000  15.9949146  12.0000000
 NucSpn=           0           0           0           0           0           0           0           0           0           0
 AtZEff=  -0.0000000  -0.0000000  -0.0000000  -0.0000000  -0.0000000  -0.0000000  -0.0000000  -0.0000000  -0.0000000  -0.0000000
 NQMom=    0.0000000   0.0000000   0.0000000   0.0000000   0.0000000   0.0000000   0.0000000   0.0000000   0.0000000   0.0000000
 NMagM=    0.0000000   0.0000000   0.0000000   0.0000000   0.0000000   0.0000000   0.0000000   0.0000000   0.0000000   0.0000000
 AtZNuc=   6.0000000   8.0000000   6.0000000   6.0000000   6.0000000   6.0000000   6.0000000   6.0000000   8.0000000   6.0000000

  Atom        11          12          13          14          15          16          17          18          19          20
 IAtWgt=          12          16          12          12          12          16          12          12          16          12
 AtmWgt=  12.0000000  15.9949146  12.0000000  12.0000000  12.0000000  15.9949146  12.0000000  12.0000000  15.9949146  12.0000000
 NucSpn=           0           0           0           0           0           0           0           0           0           0
 AtZEff=  -0.0000000  -0.0000000  -0.0000000  -0.0000000  -0.0000000  -0.0000000  -0.0000000  -0.0000000  -0.0000000  -0.0000000
 NQMom=    0.0000000   0.0000000   0.0000000   0.0000000   0.0000000   0.0000000   0.0000000   0.0000000   0.0000000   0.0000000
 NMagM=    0.0000000   0.0000000   0.0000000   0.0000000   0.0000000   0.0000000   0.0000000   0.0000000   0.0000000   0.0000000
 AtZNuc=   6.0000000   8.0000000   6.0000000   6.0000000   6.0000000   8.0000000   6.0000000   6.0000000   8.0000000   6.0000000

  Atom        21          22          23          24          25          26          27          28          29          30
 IAtWgt=          12          12          14          12          16          12          12          16          12          12
 AtmWgt=  12.0000000  12.0000000  14.0030740  12.0000000  15.9949146  12.0000000  12.0000000  15.9949146  12.0000000  12.0000000
 NucSpn=           0           0           2           0           0           0           0           0           0           0
 AtZEff=  -0.0000000  -0.0000000  -0.0000000  -0.0000000  -0.0000000  -0.0000000  -0.0000000  -0.0000000  -0.0000000  -0.0000000
 NQMom=    0.0000000   0.0000000   2.0440000   0.0000000   0.0000000   0.0000000   0.0000000   0.0000000   0.0000000   0.0000000
 NMagM=    0.0000000   0.0000000   0.4037610   0.0000000   0.0000000   0.0000000   0.0000000   0.0000000   0.0000000   0.0000000
 AtZNuc=   6.0000000   6.0000000   7.0000000   6.0000000   8.0000000   6.0000000   6.0000000   8.0000000   6.0000000   6.0000000

  Atom        31          32          33          34          35          36          37          38          39          40
 IAtWgt=          16          12          12          16          12          12          12          16           1           1
 AtmWgt=  15.9949146  12.0000000  12.0000000  15.9949146  12.0000000  12.0000000  12.0000000  15.9949146   1.0078250   1.0078250
 NucSpn=           0           0           0           0           0           0           0           0           1           1
 AtZEff=  -0.0000000  -0.0000000  -0.0000000  -0.0000000  -0.0000000  -0.0000000  -0.0000000  -0.0000000  -0.0000000  -0.0000000
 NQMom=    0.0000000   0.0000000   0.0000000   0.0000000   0.0000000   0.0000000   0.0000000   0.0000000   0.0000000   0.0000000
 NMagM=    0.0000000   0.0000000   0.0000000   0.0000000   0.0000000   0.0000000   0.0000000   0.0000000   2.7928460   2.7928460
 AtZNuc=   8.0000000   6.0000000   6.0000000   8.0000000   6.0000000   6.0000000   6.0000000   8.0000000   1.0000000   1.0000000

  Atom        41          42          43          44          45          46          47          48          49          50
 IAtWgt=           1           1           1           1           1           1           1           1           1           1
 AtmWgt=   1.0078250   1.0078250   1.0078250   1.0078250   1.0078250   1.0078250   1.0078250   1.0078250   1.0078250   1.0078250
 NucSpn=           1           1           1           1           1           1           1           1           1           1
 AtZEff=  -0.0000000  -0.0000000  -0.0000000  -0.0000000  -0.0000000  -0.0000000  -0.0000000  -0.0000000  -0.0000000  -0.0000000
 NQMom=    0.0000000   0.0000000   0.0000000   0.0000000   0.0000000   0.0000000   0.0000000   0.0000000   0.0000000   0.0000000
 NMagM=    2.7928460   2.7928460   2.7928460   2.7928460   2.7928460   2.7928460   2.7928460   2.7928460   2.7928460   2.7928460
 AtZNuc=   1.0000000   1.0000000   1.0000000   1.0000000   1.0000000   1.0000000   1.0000000   1.0000000   1.0000000   1.0000000

  Atom        51          52          53          54          55          56          57          58          59          60
 IAtWgt=           1           1           1           1           1           1           1           1           1           1
 AtmWgt=   1.0078250   1.0078250   1.0078250   1.0078250   1.0078250   1.0078250   1.0078250   1.0078250   1.0078250   1.0078250
 NucSpn=           1           1           1           1           1           1           1           1           1           1
 AtZEff=  -0.0000000  -0.0000000  -0.0000000  -0.0000000  -0.0000000  -0.0000000  -0.0000000  -0.0000000  -0.0000000  -0.0000000
 NQMom=    0.0000000   0.0000000   0.0000000   0.0000000   0.0000000   0.0000000   0.0000000   0.0000000   0.0000000   0.0000000
 NMagM=    2.7928460   2.7928460   2.7928460   2.7928460   2.7928460   2.7928460   2.7928460   2.7928460   2.7928460   2.7928460
 AtZNuc=   1.0000000   1.0000000   1.0000000   1.0000000   1.0000000   1.0000000   1.0000000   1.0000000   1.0000000   1.0000000

  Atom        61          62          63          64          65          66          67
 IAtWgt=           1           1           1           1           1           1           1
 AtmWgt=   1.0078250   1.0078250   1.0078250   1.0078250   1.0078250   1.0078250   1.0078250
 NucSpn=           1           1           1           1           1           1           1
 AtZEff=  -0.0000000  -0.0000000  -0.0000000  -0.0000000  -0.0000000  -0.0000000  -0.0000000
 NQMom=    0.0000000   0.0000000   0.0000000   0.0000000   0.0000000   0.0000000   0.0000000
 NMagM=    2.7928460   2.7928460   2.7928460   2.7928460   2.7928460   2.7928460   2.7928460
 AtZNuc=   1.0000000   1.0000000   1.0000000   1.0000000   1.0000000   1.0000000   1.0000000
 Leave Link  101 at Sat Feb 10 21:58:15 2024, MaxMem=  4026531840 cpu:               6.8 elap:               0.9
 (Enter /sysapps/ubuntu-applications/gaussian/Gaussian/AVX2/g16/l103.exe)

 GradGradGradGradGradGradGradGradGradGradGradGradGradGradGradGradGradGrad
 Berny optimization.
 Initialization pass.
                           ----------------------------
                           !    Initial Parameters    !
                           ! (Angstroms and Degrees)  !
 --------------------------                            --------------------------
 ! Name  Definition              Value          Derivative Info.                !
 --------------------------------------------------------------------------------
 ! R1    R(1,2)                  1.4234         estimate D2E/DX2                !
 ! R2    R(1,39)                 1.0882         estimate D2E/DX2                !
 ! R3    R(1,40)                 1.0948         estimate D2E/DX2                !
 ! R4    R(1,41)                 1.0948         estimate D2E/DX2                !
 ! R5    R(2,3)                  1.3477         estimate D2E/DX2                !
 ! R6    R(3,4)                  1.4004         estimate D2E/DX2                !
 ! R7    R(3,35)                 1.4254         estimate D2E/DX2                !
 ! R8    R(4,5)                  1.3908         estimate D2E/DX2                !
 ! R9    R(4,42)                 1.0806         estimate D2E/DX2                !
 ! R10   R(5,6)                  1.3866         estimate D2E/DX2                !
 ! R11   R(5,43)                 1.0844         estimate D2E/DX2                !
 ! R12   R(6,7)                  1.3944         estimate D2E/DX2                !
 ! R13   R(6,44)                 1.0814         estimate D2E/DX2                !
 ! R14   R(7,8)                  1.5061         estimate D2E/DX2                !
 ! R15   R(7,35)                 1.4095         estimate D2E/DX2                !
 ! R16   R(8,9)                  1.2195         estimate D2E/DX2                !
 ! R17   R(8,10)                 1.4818         estimate D2E/DX2                !
 ! R18   R(10,11)                1.4012         estimate D2E/DX2                !
 ! R19   R(10,32)                1.4237         estimate D2E/DX2                !
 ! R20   R(11,12)                1.355          estimate D2E/DX2                !
 ! R21   R(11,13)                1.421          estimate D2E/DX2                !
 ! R22   R(12,45)                0.9633         estimate D2E/DX2                !
 ! R23   R(13,14)                1.5139         estimate D2E/DX2                !
 ! R24   R(13,29)                1.3856         estimate D2E/DX2                !
 ! R25   R(14,15)                1.5409         estimate D2E/DX2                !
 ! R26   R(14,46)                1.0969         estimate D2E/DX2                !
 ! R27   R(14,47)                1.0972         estimate D2E/DX2                !
 ! R28   R(15,16)                1.4243         estimate D2E/DX2                !
 ! R29   R(15,17)                1.5409         estimate D2E/DX2                !
 ! R30   R(15,36)                1.5491         estimate D2E/DX2                !
 ! R31   R(16,48)                0.9702         estimate D2E/DX2                !
 ! R32   R(17,18)                1.5277         estimate D2E/DX2                !
 ! R33   R(17,49)                1.0942         estimate D2E/DX2                !
 ! R34   R(17,50)                1.0915         estimate D2E/DX2                !
 ! R35   R(18,19)                1.4558         estimate D2E/DX2                !
 ! R36   R(18,29)                1.5122         estimate D2E/DX2                !
 ! R37   R(18,51)                1.0914         estimate D2E/DX2                !
 ! R38   R(19,20)                1.4029         estimate D2E/DX2                !
 ! R39   R(20,21)                1.5278         estimate D2E/DX2                !
 ! R40   R(20,28)                1.4336         estimate D2E/DX2                !
 ! R41   R(20,52)                1.0947         estimate D2E/DX2                !
 ! R42   R(21,22)                1.544          estimate D2E/DX2                !
 ! R43   R(21,53)                1.0921         estimate D2E/DX2                !
 ! R44   R(21,54)                1.0915         estimate D2E/DX2                !
 ! R45   R(22,23)                1.4603         estimate D2E/DX2                !
 ! R46   R(22,24)                1.5384         estimate D2E/DX2                !
 ! R47   R(22,55)                1.0947         estimate D2E/DX2                !
 ! R48   R(23,56)                1.0159         estimate D2E/DX2                !
 ! R49   R(23,57)                1.0152         estimate D2E/DX2                !
 ! R50   R(24,25)                1.4328         estimate D2E/DX2                !
 ! R51   R(24,26)                1.5471         estimate D2E/DX2                !
 ! R52   R(24,58)                1.0984         estimate D2E/DX2                !
 ! R53   R(25,59)                0.9615         estimate D2E/DX2                !
 ! R54   R(26,27)                1.5272         estimate D2E/DX2                !
 ! R55   R(26,28)                1.4396         estimate D2E/DX2                !
 ! R56   R(26,60)                1.0956         estimate D2E/DX2                !
 ! R57   R(27,61)                1.0925         estimate D2E/DX2                !
 ! R58   R(27,62)                1.0915         estimate D2E/DX2                !
 ! R59   R(27,63)                1.0959         estimate D2E/DX2                !
 ! R60   R(29,30)                1.4128         estimate D2E/DX2                !
 ! R61   R(30,31)                1.3421         estimate D2E/DX2                !
 ! R62   R(30,32)                1.4084         estimate D2E/DX2                !
 ! R63   R(31,64)                0.9994         estimate D2E/DX2                !
 ! R64   R(32,33)                1.476          estimate D2E/DX2                !
 ! R65   R(33,34)                1.2431         estimate D2E/DX2                !
 ! R66   R(33,35)                1.4771         estimate D2E/DX2                !
 ! R67   R(36,37)                1.5076         estimate D2E/DX2                !
 ! R68   R(36,38)                1.2129         estimate D2E/DX2                !
 ! R69   R(37,65)                1.0932         estimate D2E/DX2                !
 ! R70   R(37,66)                1.0891         estimate D2E/DX2                !
 ! R71   R(37,67)                1.093          estimate D2E/DX2                !
 ! A1    A(2,1,39)             105.2545         estimate D2E/DX2                !
 ! A2    A(2,1,40)             111.4584         estimate D2E/DX2                !
 ! A3    A(2,1,41)             111.4639         estimate D2E/DX2                !
 ! A4    A(39,1,40)            109.4085         estimate D2E/DX2                !
 ! A5    A(39,1,41)            109.3971         estimate D2E/DX2                !
 ! A6    A(40,1,41)            109.7427         estimate D2E/DX2                !
 ! A7    A(1,2,3)              119.6012         estimate D2E/DX2                !
 ! A8    A(2,3,4)              122.2358         estimate D2E/DX2                !
 ! A9    A(2,3,35)             118.2626         estimate D2E/DX2                !
 ! A10   A(4,3,35)             119.5016         estimate D2E/DX2                !
 ! A11   A(3,4,5)              120.6069         estimate D2E/DX2                !
 ! A12   A(3,4,42)             120.1074         estimate D2E/DX2                !
 ! A13   A(5,4,42)             119.2858         estimate D2E/DX2                !
 ! A14   A(4,5,6)              120.6097         estimate D2E/DX2                !
 ! A15   A(4,5,43)             119.275          estimate D2E/DX2                !
 ! A16   A(6,5,43)             120.1153         estimate D2E/DX2                !
 ! A17   A(5,6,7)              119.7061         estimate D2E/DX2                !
 ! A18   A(5,6,44)             121.8495         estimate D2E/DX2                !
 ! A19   A(7,6,44)             118.4444         estimate D2E/DX2                !
 ! A20   A(6,7,8)              116.4231         estimate D2E/DX2                !
 ! A21   A(6,7,35)             121.1574         estimate D2E/DX2                !
 ! A22   A(8,7,35)             122.4195         estimate D2E/DX2                !
 ! A23   A(7,8,9)              118.9689         estimate D2E/DX2                !
 ! A24   A(7,8,10)             117.794          estimate D2E/DX2                !
 ! A25   A(9,8,10)             123.237          estimate D2E/DX2                !
 ! A26   A(8,10,11)            121.4335         estimate D2E/DX2                !
 ! A27   A(8,10,32)            119.2863         estimate D2E/DX2                !
 ! A28   A(11,10,32)           119.2796         estimate D2E/DX2                !
 ! A29   A(10,11,12)           119.4311         estimate D2E/DX2                !
 ! A30   A(10,11,13)           120.8214         estimate D2E/DX2                !
 ! A31   A(12,11,13)           119.7469         estimate D2E/DX2                !
 ! A32   A(11,12,45)           109.6935         estimate D2E/DX2                !
 ! A33   A(11,13,14)           118.412          estimate D2E/DX2                !
 ! A34   A(11,13,29)           119.6635         estimate D2E/DX2                !
 ! A35   A(14,13,29)           121.9051         estimate D2E/DX2                !
 ! A36   A(13,14,15)           115.0753         estimate D2E/DX2                !
 ! A37   A(13,14,46)           109.6748         estimate D2E/DX2                !
 ! A38   A(13,14,47)           110.0443         estimate D2E/DX2                !
 ! A39   A(15,14,46)           107.9411         estimate D2E/DX2                !
 ! A40   A(15,14,47)           106.1745         estimate D2E/DX2                !
 ! A41   A(46,14,47)           107.6335         estimate D2E/DX2                !
 ! A42   A(14,15,16)           110.596          estimate D2E/DX2                !
 ! A43   A(14,15,17)           109.3654         estimate D2E/DX2                !
 ! A44   A(14,15,36)           109.4192         estimate D2E/DX2                !
 ! A45   A(16,15,17)           111.7073         estimate D2E/DX2                !
 ! A46   A(16,15,36)           107.9835         estimate D2E/DX2                !
 ! A47   A(17,15,36)           107.6936         estimate D2E/DX2                !
 ! A48   A(15,16,48)           108.7485         estimate D2E/DX2                !
 ! A49   A(15,17,18)           111.1977         estimate D2E/DX2                !
 ! A50   A(15,17,49)           108.5395         estimate D2E/DX2                !
 ! A51   A(15,17,50)           110.8025         estimate D2E/DX2                !
 ! A52   A(18,17,49)           109.2993         estimate D2E/DX2                !
 ! A53   A(18,17,50)           108.5872         estimate D2E/DX2                !
 ! A54   A(49,17,50)           108.3609         estimate D2E/DX2                !
 ! A55   A(17,18,19)           109.689          estimate D2E/DX2                !
 ! A56   A(17,18,29)           112.7242         estimate D2E/DX2                !
 ! A57   A(17,18,51)           109.58           estimate D2E/DX2                !
 ! A58   A(19,18,29)           107.484          estimate D2E/DX2                !
 ! A59   A(19,18,51)           108.1276         estimate D2E/DX2                !
 ! A60   A(29,18,51)           109.1151         estimate D2E/DX2                !
 ! A61   A(18,19,20)           116.1535         estimate D2E/DX2                !
 ! A62   A(19,20,21)           108.6032         estimate D2E/DX2                !
 ! A63   A(19,20,28)           107.525          estimate D2E/DX2                !
 ! A64   A(19,20,52)           109.14           estimate D2E/DX2                !
 ! A65   A(21,20,28)           110.9845         estimate D2E/DX2                !
 ! A66   A(21,20,52)           111.3286         estimate D2E/DX2                !
 ! A67   A(28,20,52)           109.1652         estimate D2E/DX2                !
 ! A68   A(20,21,22)           111.8055         estimate D2E/DX2                !
 ! A69   A(20,21,53)           108.8471         estimate D2E/DX2                !
 ! A70   A(20,21,54)           109.4308         estimate D2E/DX2                !
 ! A71   A(22,21,53)           109.7872         estimate D2E/DX2                !
 ! A72   A(22,21,54)           109.4238         estimate D2E/DX2                !
 ! A73   A(53,21,54)           107.444          estimate D2E/DX2                !
 ! A74   A(21,22,23)           109.5507         estimate D2E/DX2                !
 ! A75   A(21,22,24)           109.6152         estimate D2E/DX2                !
 ! A76   A(21,22,55)           108.3917         estimate D2E/DX2                !
 ! A77   A(23,22,24)           115.3707         estimate D2E/DX2                !
 ! A78   A(23,22,55)           107.3257         estimate D2E/DX2                !
 ! A79   A(24,22,55)           106.3199         estimate D2E/DX2                !
 ! A80   A(22,23,56)           109.9145         estimate D2E/DX2                !
 ! A81   A(22,23,57)           111.2783         estimate D2E/DX2                !
 ! A82   A(56,23,57)           107.5413         estimate D2E/DX2                !
 ! A83   A(22,24,25)           106.5512         estimate D2E/DX2                !
 ! A84   A(22,24,26)           109.4652         estimate D2E/DX2                !
 ! A85   A(22,24,58)           109.4496         estimate D2E/DX2                !
 ! A86   A(25,24,26)           114.0265         estimate D2E/DX2                !
 ! A87   A(25,24,58)           109.3884         estimate D2E/DX2                !
 ! A88   A(26,24,58)           107.904          estimate D2E/DX2                !
 ! A89   A(24,25,59)           109.6716         estimate D2E/DX2                !
 ! A90   A(24,26,27)           114.1092         estimate D2E/DX2                !
 ! A91   A(24,26,28)           112.2117         estimate D2E/DX2                !
 ! A92   A(24,26,60)           106.2404         estimate D2E/DX2                !
 ! A93   A(27,26,28)           110.774          estimate D2E/DX2                !
 ! A94   A(27,26,60)           108.7116         estimate D2E/DX2                !
 ! A95   A(28,26,60)           104.1397         estimate D2E/DX2                !
 ! A96   A(26,27,61)           111.4659         estimate D2E/DX2                !
 ! A97   A(26,27,62)           109.7955         estimate D2E/DX2                !
 ! A98   A(26,27,63)           110.879          estimate D2E/DX2                !
 ! A99   A(61,27,62)           108.1594         estimate D2E/DX2                !
 ! A100  A(61,27,63)           108.614          estimate D2E/DX2                !
 ! A101  A(62,27,63)           107.8142         estimate D2E/DX2                !
 ! A102  A(20,28,26)           114.8298         estimate D2E/DX2                !
 ! A103  A(13,29,18)           121.7026         estimate D2E/DX2                !
 ! A104  A(13,29,30)           120.311          estimate D2E/DX2                !
 ! A105  A(18,29,30)           117.9818         estimate D2E/DX2                !
 ! A106  A(29,30,31)           116.9222         estimate D2E/DX2                !
 ! A107  A(29,30,32)           120.4408         estimate D2E/DX2                !
 ! A108  A(31,30,32)           122.6363         estimate D2E/DX2                !
 ! A109  A(30,31,64)           105.633          estimate D2E/DX2                !
 ! A110  A(10,32,30)           119.4718         estimate D2E/DX2                !
 ! A111  A(10,32,33)           122.2324         estimate D2E/DX2                !
 ! A112  A(30,32,33)           118.2955         estimate D2E/DX2                !
 ! A113  A(32,33,34)           119.5018         estimate D2E/DX2                !
 ! A114  A(32,33,35)           119.1059         estimate D2E/DX2                !
 ! A115  A(34,33,35)           121.3922         estimate D2E/DX2                !
 ! A116  A(3,35,7)             118.4182         estimate D2E/DX2                !
 ! A117  A(3,35,33)            122.4458         estimate D2E/DX2                !
 ! A118  A(7,35,33)            119.1361         estimate D2E/DX2                !
 ! A119  A(15,36,37)           117.4942         estimate D2E/DX2                !
 ! A120  A(15,36,38)           119.9648         estimate D2E/DX2                !
 ! A121  A(37,36,38)           122.5181         estimate D2E/DX2                !
 ! A122  A(36,37,65)           109.568          estimate D2E/DX2                !
 ! A123  A(36,37,66)           109.3167         estimate D2E/DX2                !
 ! A124  A(36,37,67)           110.6928         estimate D2E/DX2                !
 ! A125  A(65,37,66)           110.5185         estimate D2E/DX2                !
 ! A126  A(65,37,67)           105.8632         estimate D2E/DX2                !
 ! A127  A(66,37,67)           110.8378         estimate D2E/DX2                !
 ! D1    D(39,1,2,3)           179.7908         estimate D2E/DX2                !
 ! D2    D(40,1,2,3)            61.2824         estimate D2E/DX2                !
 ! D3    D(41,1,2,3)           -61.7116         estimate D2E/DX2                !
 ! D4    D(1,2,3,4)              0.2979         estimate D2E/DX2                !
 ! D5    D(1,2,3,35)          -179.6107         estimate D2E/DX2                !
 ! D6    D(2,3,4,5)           -179.9555         estimate D2E/DX2                !
 ! D7    D(2,3,4,42)             0.0604         estimate D2E/DX2                !
 ! D8    D(35,3,4,5)            -0.048          estimate D2E/DX2                !
 ! D9    D(35,3,4,42)          179.9679         estimate D2E/DX2                !
 ! D10   D(2,3,35,7)           179.8798         estimate D2E/DX2                !
 ! D11   D(2,3,35,33)           -0.1092         estimate D2E/DX2                !
 ! D12   D(4,3,35,7)            -0.0314         estimate D2E/DX2                !
 ! D13   D(4,3,35,33)          179.9797         estimate D2E/DX2                !
 ! D14   D(3,4,5,6)              0.0479         estimate D2E/DX2                !
 ! D15   D(3,4,5,43)          -179.9727         estimate D2E/DX2                !
 ! D16   D(42,4,5,6)          -179.9679         estimate D2E/DX2                !
 ! D17   D(42,4,5,43)            0.0115         estimate D2E/DX2                !
 ! D18   D(4,5,6,7)              0.0336         estimate D2E/DX2                !
 ! D19   D(4,5,6,44)          -179.9929         estimate D2E/DX2                !
 ! D20   D(43,5,6,7)          -179.9457         estimate D2E/DX2                !
 ! D21   D(43,5,6,44)            0.0278         estimate D2E/DX2                !
 ! D22   D(5,6,7,8)            179.9252         estimate D2E/DX2                !
 ! D23   D(5,6,7,35)            -0.1156         estimate D2E/DX2                !
 ! D24   D(44,6,7,8)            -0.0492         estimate D2E/DX2                !
 ! D25   D(44,6,7,35)          179.91           estimate D2E/DX2                !
 ! D26   D(6,7,8,9)              1.0931         estimate D2E/DX2                !
 ! D27   D(6,7,8,10)          -178.7648         estimate D2E/DX2                !
 ! D28   D(35,7,8,9)          -178.8656         estimate D2E/DX2                !
 ! D29   D(35,7,8,10)            1.2765         estimate D2E/DX2                !
 ! D30   D(6,7,35,3)             0.1135         estimate D2E/DX2                !
 ! D31   D(6,7,35,33)         -179.8972         estimate D2E/DX2                !
 ! D32   D(8,7,35,3)          -179.9297         estimate D2E/DX2                !
 ! D33   D(8,7,35,33)            0.0596         estimate D2E/DX2                !
 ! D34   D(7,8,10,11)          178.9529         estimate D2E/DX2                !
 ! D35   D(7,8,10,32)           -1.3323         estimate D2E/DX2                !
 ! D36   D(9,8,10,11)           -0.8984         estimate D2E/DX2                !
 ! D37   D(9,8,10,32)          178.8164         estimate D2E/DX2                !
 ! D38   D(8,10,11,12)           0.8231         estimate D2E/DX2                !
 ! D39   D(8,10,11,13)        -179.4607         estimate D2E/DX2                !
 ! D40   D(32,10,11,12)       -178.8918         estimate D2E/DX2                !
 ! D41   D(32,10,11,13)          0.8245         estimate D2E/DX2                !
 ! D42   D(8,10,32,30)        -179.6961         estimate D2E/DX2                !
 ! D43   D(8,10,32,33)           0.1036         estimate D2E/DX2                !
 ! D44   D(11,10,32,30)          0.0249         estimate D2E/DX2                !
 ! D45   D(11,10,32,33)        179.8246         estimate D2E/DX2                !
 ! D46   D(10,11,12,45)        179.7127         estimate D2E/DX2                !
 ! D47   D(13,11,12,45)         -0.0067         estimate D2E/DX2                !
 ! D48   D(10,11,13,14)       -179.7671         estimate D2E/DX2                !
 ! D49   D(10,11,13,29)         -1.3393         estimate D2E/DX2                !
 ! D50   D(12,11,13,14)         -0.0518         estimate D2E/DX2                !
 ! D51   D(12,11,13,29)        178.3761         estimate D2E/DX2                !
 ! D52   D(11,13,14,15)       -168.6316         estimate D2E/DX2                !
 ! D53   D(11,13,14,46)         69.4655         estimate D2E/DX2                !
 ! D54   D(11,13,14,47)        -48.7576         estimate D2E/DX2                !
 ! D55   D(29,13,14,15)         12.9777         estimate D2E/DX2                !
 ! D56   D(29,13,14,46)       -108.9253         estimate D2E/DX2                !
 ! D57   D(29,13,14,47)        132.8516         estimate D2E/DX2                !
 ! D58   D(11,13,29,18)       -179.8129         estimate D2E/DX2                !
 ! D59   D(11,13,29,30)          0.9868         estimate D2E/DX2                !
 ! D60   D(14,13,29,18)         -1.4418         estimate D2E/DX2                !
 ! D61   D(14,13,29,30)        179.3579         estimate D2E/DX2                !
 ! D62   D(13,14,15,16)         81.8753         estimate D2E/DX2                !
 ! D63   D(13,14,15,17)        -41.5533         estimate D2E/DX2                !
 ! D64   D(13,14,15,36)       -159.2955         estimate D2E/DX2                !
 ! D65   D(46,14,15,16)       -155.2901         estimate D2E/DX2                !
 ! D66   D(46,14,15,17)         81.2812         estimate D2E/DX2                !
 ! D67   D(46,14,15,36)        -36.4609         estimate D2E/DX2                !
 ! D68   D(47,14,15,16)        -40.1113         estimate D2E/DX2                !
 ! D69   D(47,14,15,17)       -163.5399         estimate D2E/DX2                !
 ! D70   D(47,14,15,36)         78.7179         estimate D2E/DX2                !
 ! D71   D(14,15,16,48)        -95.8052         estimate D2E/DX2                !
 ! D72   D(17,15,16,48)         26.2592         estimate D2E/DX2                !
 ! D73   D(36,15,16,48)        144.4982         estimate D2E/DX2                !
 ! D74   D(14,15,17,18)         60.4829         estimate D2E/DX2                !
 ! D75   D(14,15,17,49)        -59.7791         estimate D2E/DX2                !
 ! D76   D(14,15,17,50)       -178.649          estimate D2E/DX2                !
 ! D77   D(16,15,17,18)        -62.2862         estimate D2E/DX2                !
 ! D78   D(16,15,17,49)        177.4518         estimate D2E/DX2                !
 ! D79   D(16,15,17,50)         58.5819         estimate D2E/DX2                !
 ! D80   D(36,15,17,18)        179.3018         estimate D2E/DX2                !
 ! D81   D(36,15,17,49)         59.0398         estimate D2E/DX2                !
 ! D82   D(36,15,17,50)        -59.8301         estimate D2E/DX2                !
 ! D83   D(14,15,36,37)       -141.1185         estimate D2E/DX2                !
 ! D84   D(14,15,36,38)         40.5781         estimate D2E/DX2                !
 ! D85   D(16,15,36,37)        -20.6818         estimate D2E/DX2                !
 ! D86   D(16,15,36,38)        161.0148         estimate D2E/DX2                !
 ! D87   D(17,15,36,37)        100.097          estimate D2E/DX2                !
 ! D88   D(17,15,36,38)        -78.2064         estimate D2E/DX2                !
 ! D89   D(15,17,18,19)         70.0888         estimate D2E/DX2                !
 ! D90   D(15,17,18,29)        -49.6347         estimate D2E/DX2                !
 ! D91   D(15,17,18,51)       -171.3555         estimate D2E/DX2                !
 ! D92   D(49,17,18,19)       -170.0996         estimate D2E/DX2                !
 ! D93   D(49,17,18,29)         70.1769         estimate D2E/DX2                !
 ! D94   D(49,17,18,51)        -51.5439         estimate D2E/DX2                !
 ! D95   D(50,17,18,19)        -52.0727         estimate D2E/DX2                !
 ! D96   D(50,17,18,29)       -171.7962         estimate D2E/DX2                !
 ! D97   D(50,17,18,51)         66.483          estimate D2E/DX2                !
 ! D98   D(17,18,19,20)        106.4781         estimate D2E/DX2                !
 ! D99   D(29,18,19,20)       -130.6426         estimate D2E/DX2                !
 ! D100  D(51,18,19,20)        -12.9723         estimate D2E/DX2                !
 ! D101  D(17,18,29,13)         19.9773         estimate D2E/DX2                !
 ! D102  D(17,18,29,30)       -160.8045         estimate D2E/DX2                !
 ! D103  D(19,18,29,13)       -101.0123         estimate D2E/DX2                !
 ! D104  D(19,18,29,30)         78.206          estimate D2E/DX2                !
 ! D105  D(51,18,29,13)        141.9609         estimate D2E/DX2                !
 ! D106  D(51,18,29,30)        -38.8209         estimate D2E/DX2                !
 ! D107  D(18,19,20,21)        170.0285         estimate D2E/DX2                !
 ! D108  D(18,19,20,28)        -69.8032         estimate D2E/DX2                !
 ! D109  D(18,19,20,52)         48.4918         estimate D2E/DX2                !
 ! D110  D(19,20,21,22)        148.9366         estimate D2E/DX2                !
 ! D111  D(19,20,21,53)        -89.6077         estimate D2E/DX2                !
 ! D112  D(19,20,21,54)         27.5409         estimate D2E/DX2                !
 ! D113  D(28,20,21,22)         30.9415         estimate D2E/DX2                !
 ! D114  D(28,20,21,53)        152.3971         estimate D2E/DX2                !
 ! D115  D(28,20,21,54)        -90.4542         estimate D2E/DX2                !
 ! D116  D(52,20,21,22)        -90.8768         estimate D2E/DX2                !
 ! D117  D(52,20,21,53)         30.5788         estimate D2E/DX2                !
 ! D118  D(52,20,21,54)        147.7274         estimate D2E/DX2                !
 ! D119  D(19,20,28,26)        176.0566         estimate D2E/DX2                !
 ! D120  D(21,20,28,26)        -65.2957         estimate D2E/DX2                !
 ! D121  D(52,20,28,26)         57.7779         estimate D2E/DX2                !
 ! D122  D(20,21,22,23)        156.9005         estimate D2E/DX2                !
 ! D123  D(20,21,22,24)         29.3647         estimate D2E/DX2                !
 ! D124  D(20,21,22,55)        -86.2848         estimate D2E/DX2                !
 ! D125  D(53,21,22,23)         35.9893         estimate D2E/DX2                !
 ! D126  D(53,21,22,24)        -91.5464         estimate D2E/DX2                !
 ! D127  D(53,21,22,55)        152.8041         estimate D2E/DX2                !
 ! D128  D(54,21,22,23)        -81.6997         estimate D2E/DX2                !
 ! D129  D(54,21,22,24)        150.7645         estimate D2E/DX2                !
 ! D130  D(54,21,22,55)         35.115          estimate D2E/DX2                !
 ! D131  D(21,22,23,56)        -70.5392         estimate D2E/DX2                !
 ! D132  D(21,22,23,57)        170.4415         estimate D2E/DX2                !
 ! D133  D(24,22,23,56)         53.701          estimate D2E/DX2                !
 ! D134  D(24,22,23,57)        -65.3183         estimate D2E/DX2                !
 ! D135  D(55,22,23,56)        171.9763         estimate D2E/DX2                !
 ! D136  D(55,22,23,57)         52.957          estimate D2E/DX2                !
 ! D137  D(21,22,24,25)         61.7496         estimate D2E/DX2                !
 ! D138  D(21,22,24,26)        -61.9985         estimate D2E/DX2                !
 ! D139  D(21,22,24,58)        179.9282         estimate D2E/DX2                !
 ! D140  D(23,22,24,25)        -62.4569         estimate D2E/DX2                !
 ! D141  D(23,22,24,26)        173.795          estimate D2E/DX2                !
 ! D142  D(23,22,24,58)         55.7218         estimate D2E/DX2                !
 ! D143  D(55,22,24,25)        178.709          estimate D2E/DX2                !
 ! D144  D(55,22,24,26)         54.9609         estimate D2E/DX2                !
 ! D145  D(55,22,24,58)        -63.1123         estimate D2E/DX2                !
 ! D146  D(22,24,25,59)        168.4847         estimate D2E/DX2                !
 ! D147  D(26,24,25,59)        -70.6451         estimate D2E/DX2                !
 ! D148  D(58,24,25,59)         50.2657         estimate D2E/DX2                !
 ! D149  D(22,24,26,27)        159.33           estimate D2E/DX2                !
 ! D150  D(22,24,26,28)         32.2838         estimate D2E/DX2                !
 ! D151  D(22,24,26,60)        -80.906          estimate D2E/DX2                !
 ! D152  D(25,24,26,27)         40.0973         estimate D2E/DX2                !
 ! D153  D(25,24,26,28)        -86.9489         estimate D2E/DX2                !
 ! D154  D(25,24,26,60)        159.8613         estimate D2E/DX2                !
 ! D155  D(58,24,26,27)        -81.6366         estimate D2E/DX2                !
 ! D156  D(58,24,26,28)        151.3172         estimate D2E/DX2                !
 ! D157  D(58,24,26,60)         38.1274         estimate D2E/DX2                !
 ! D158  D(24,26,27,61)        -64.5471         estimate D2E/DX2                !
 ! D159  D(24,26,27,62)        175.6209         estimate D2E/DX2                !
 ! D160  D(24,26,27,63)         56.5895         estimate D2E/DX2                !
 ! D161  D(28,26,27,61)         63.2392         estimate D2E/DX2                !
 ! D162  D(28,26,27,62)        -56.5928         estimate D2E/DX2                !
 ! D163  D(28,26,27,63)       -175.6243         estimate D2E/DX2                !
 ! D164  D(60,26,27,61)        177.089          estimate D2E/DX2                !
 ! D165  D(60,26,27,62)         57.257          estimate D2E/DX2                !
 ! D166  D(60,26,27,63)        -61.7745         estimate D2E/DX2                !
 ! D167  D(24,26,28,20)         30.6308         estimate D2E/DX2                !
 ! D168  D(27,26,28,20)        -98.1834         estimate D2E/DX2                !
 ! D169  D(60,26,28,20)        145.1117         estimate D2E/DX2                !
 ! D170  D(13,29,30,31)       -179.8472         estimate D2E/DX2                !
 ! D171  D(13,29,30,32)         -0.1445         estimate D2E/DX2                !
 ! D172  D(18,29,30,31)          0.9233         estimate D2E/DX2                !
 ! D173  D(18,29,30,32)       -179.374          estimate D2E/DX2                !
 ! D174  D(29,30,31,64)        179.5604         estimate D2E/DX2                !
 ! D175  D(32,30,31,64)         -0.1352         estimate D2E/DX2                !
 ! D176  D(29,30,32,10)         -0.3686         estimate D2E/DX2                !
 ! D177  D(29,30,32,33)        179.8239         estimate D2E/DX2                !
 ! D178  D(31,30,32,10)        179.3167         estimate D2E/DX2                !
 ! D179  D(31,30,32,33)         -0.4909         estimate D2E/DX2                !
 ! D180  D(10,32,33,34)       -178.8425         estimate D2E/DX2                !
 ! D181  D(10,32,33,35)          1.2573         estimate D2E/DX2                !
 ! D182  D(30,32,33,34)          0.9594         estimate D2E/DX2                !
 ! D183  D(30,32,33,35)       -178.9408         estimate D2E/DX2                !
 ! D184  D(32,33,35,3)         178.6735         estimate D2E/DX2                !
 ! D185  D(32,33,35,7)          -1.3153         estimate D2E/DX2                !
 ! D186  D(34,33,35,3)          -1.2248         estimate D2E/DX2                !
 ! D187  D(34,33,35,7)         178.7864         estimate D2E/DX2                !
 ! D188  D(15,36,37,65)         65.5716         estimate D2E/DX2                !
 ! D189  D(15,36,37,66)       -173.1781         estimate D2E/DX2                !
 ! D190  D(15,36,37,67)        -50.8111         estimate D2E/DX2                !
 ! D191  D(38,36,37,65)       -116.1716         estimate D2E/DX2                !
 ! D192  D(38,36,37,66)          5.0788         estimate D2E/DX2                !
 ! D193  D(38,36,37,67)        127.4457         estimate D2E/DX2                !
 --------------------------------------------------------------------------------
 Trust Radius=3.00D-01 FncErr=1.00D-07 GrdErr=1.00D-06 EigMax=2.50D+02 EigMin=1.00D-04
 Number of steps in this run=    401 maximum allowed number of steps=    402.
 GradGradGradGradGradGradGradGradGradGradGradGradGradGradGradGradGradGrad

 Leave Link  103 at Sat Feb 10 21:58:15 2024, MaxMem=  4026531840 cpu:               0.5 elap:               0.1
 (Enter /sysapps/ubuntu-applications/gaussian/Gaussian/AVX2/g16/l202.exe)
 Symmetry turned off by external request.
 Stoichiometry    C27H29NO10
 Framework group  C1[X(C27H29NO10)]
 Deg. of freedom   195
 Full point group                 C1      NOp   1
                          Input orientation:                          
 ---------------------------------------------------------------------
 Center     Atomic      Atomic             Coordinates (Angstroms)
 Number     Number       Type             X           Y           Z
 ---------------------------------------------------------------------
      1          6           0        5.424466    4.578026   -2.155295
      2          8           0        4.718002    3.493673   -1.562633
      3          6           0        5.365877    2.341613   -1.299311
      4          6           0        6.726072    2.167740   -1.583504
      5          6           0        7.360751    0.963523   -1.298368
      6          6           0        6.658117   -0.087277   -0.728394
      7          6           0        5.302559    0.064300   -0.438988
      8          6           0        4.611848   -1.123818    0.177075
      9          8           0        5.260594   -2.130520    0.406834
     10          6           0        3.164416   -1.005631    0.471285
     11          6           0        2.441683   -2.071251    1.024092
     12          8           0        3.080852   -3.230788    1.312285
     13          6           0        1.051410   -1.947489    1.290486
     14          6           0        0.325325   -3.131227    1.893245
     15          6           0       -1.211642   -3.021308    1.897829
     16          8           0       -1.744322   -3.393247    0.630388
     17          6           0       -1.620226   -1.588119    2.289397
     18          6           0       -1.070005   -0.566027    1.296250
     19          8           0       -1.766210   -0.694201    0.024185
     20          6           0       -2.687394    0.318824   -0.281401
     21          6           0       -3.125813    0.156372   -1.735946
     22          6           0       -4.577160    0.635822   -1.954482
     23          7           0       -4.771040    0.982099   -3.359805
     24          6           0       -4.909452    1.751574   -0.948750
     25          8           0       -4.006368    2.829841   -1.222221
     26          6           0       -4.808029    1.194755    0.491115
     27          6           0       -4.621084    2.266688    1.562789
     28          8           0       -3.800871    0.172979    0.609784
     29          6           0        0.406588   -0.749833    1.026575
     30          6           0        1.120297    0.337992    0.475910
     31          8           0        0.429486    1.466418    0.250646
     32          6           0        2.494669    0.219225    0.191810
     33          6           0        3.192788    1.384046   -0.386500
     34          8           0        2.562902    2.436197   -0.590036
     35          6           0        4.628849    1.271518   -0.713385
     36          6           0       -1.793681   -3.984292    2.962475
     37          6           0       -3.063606   -4.719271    2.616093
     38          8           0       -1.246092   -4.100138    4.038482
     39          1           0        4.689162    5.372664   -2.265581
     40          1           0        5.819155    4.308311   -3.140238
     41          1           0        6.240095    4.924059   -1.512121
     42          1           0        7.294107    2.972332   -2.028186
     43          1           0        8.414910    0.852585   -1.526982
     44          1           0        7.131438   -1.031991   -0.498294
     45          1           0        2.456455   -3.861062    1.687483
     46          1           0        0.656565   -3.279619    2.928394
     47          1           0        0.564799   -4.044064    1.333539
     48          1           0       -1.885684   -2.590694    0.103865
     49          1           0       -1.223686   -1.373404    3.286310
     50          1           0       -2.706786   -1.490355    2.323186
     51          1           0       -1.240986    0.442492    1.676826
     52          1           0       -2.217956    1.293425   -0.113515
     53          1           0       -2.447924    0.726741   -2.374543
     54          1           0       -3.042683   -0.892852   -2.025240
     55          1           0       -5.253162   -0.194600   -1.727097
     56          1           0       -4.261072    1.832609   -3.580146
     57          1           0       -5.750689    1.150636   -3.565943
     58          1           0       -5.941787    2.091428   -1.107416
     59          1           0       -4.287315    3.616176   -0.745461
     60          1           0       -5.748757    0.666788    0.682430
     61          1           0       -3.668631    2.788505    1.444430
     62          1           0       -4.636200    1.806551    2.552482
     63          1           0       -5.431029    3.003804    1.523370
     64          1           0        1.089336    2.115409   -0.126438
     65          1           0       -2.873075   -5.410672    1.791004
     66          1           0       -3.417733   -5.259611    3.492903
     67          1           0       -3.825423   -4.024383    2.253709
 ---------------------------------------------------------------------
 Rotational constants (GHZ):           0.1288747           0.0612454           0.0447013
 Leave Link  202 at Sat Feb 10 21:58:15 2024, MaxMem=  4026531840 cpu:               0.3 elap:               0.1
 (Enter /sysapps/ubuntu-applications/gaussian/Gaussian/AVX2/g16/l301.exe)
 Standard basis: 6-311++G(d,p) (5D, 7F)
 Ernie: Thresh=  0.10000D-02 Tol=  0.10000D-05 Strict=F.
  1039 basis functions,  1629 primitive gaussians,  1077 cartesian basis functions
   139 alpha electrons      139 beta electrons
       nuclear repulsion energy      4401.3437100485 Hartrees.
 IExCor=  402 DFT=T Ex+Corr=B3LYP ExCW=0 ScaHFX=  0.200000
 ScaDFX=  0.800000  0.720000  1.000000  0.810000 ScalE2=  1.000000  1.000000
 IRadAn=      5 IRanWt=     -1 IRanGd=            0 ICorTp=0 IEmpDi=  4
 NAtoms=   67 NActive=   67 NUniq=   67 SFac= 1.00D+00 NAtFMM=   60 NAOKFM=T Big=T
 Integral buffers will be    131072 words long.
 Raffenetti 2 integral format.
 Two-electron integral symmetry is turned off.
 ------------------------------------------------------------------------------
 Polarizable Continuum Model (PCM)
 =================================
 Model                : PCM.
 Atomic radii         : UFF (Universal Force Field).
 Polarization charges : Total charges.
 Charge compensation  : None.
 Solution method      : On-the-fly selection.
 Cavity type          : Scaled VdW (van der Waals Surface) (Alpha=1.100).
 Cavity algorithm     : GePol (No added spheres)
                        Default sphere list used, NSphG=   67.
                        Lebedev-Laikov grids with approx.  5.0 points / Ang**2.
                        Smoothing algorithm: York/Karplus (Gamma=1.0000).
                        Polarization charges: spherical gaussians, with
                                              point-specific exponents (IZeta= 3).
                        Self-potential: point-specific (ISelfS= 7).
                        Self-field    : sphere-specific E.n sum rule (ISelfD= 2).
 1st derivatives      : Analytical E(r).r(x)/FMM algorithm (CHGder, D1EAlg=3).
                        Cavity 1st derivative terms included.
 Solvent              : n,n-DiMethylFormamide, Eps=  37.219000 Eps(inf)=   2.046330
 ------------------------------------------------------------------------------
 GePol: Number of generator spheres                  =      67
 GePol: Total number of spheres                      =      67
 GePol: Number of exposed spheres                    =      67 (100.00%)
 GePol: Number of points                             =    4458
 GePol: Average weight of points                     =       0.13
 GePol: Minimum weight of points                     =   0.19D-10
 GePol: Maximum weight of points                     =    0.20577
 GePol: Number of points with low weight             =     306
 GePol: Fraction of low-weight points (<1% of avg)   =       6.86%
 GePol: Cavity surface area                          =    566.866 Ang**2
 GePol: Cavity volume                                =    661.264 Ang**3
 Leave Link  301 at Sat Feb 10 21:58:16 2024, MaxMem=  4026531840 cpu:               1.5 elap:               0.3
 (Enter /sysapps/ubuntu-applications/gaussian/Gaussian/AVX2/g16/l302.exe)
 NPDir=0 NMtPBC=     1 NCelOv=     1 NCel=       1 NClECP=     1 NCelD=      1
         NCelK=      1 NCelE2=     1 NClLst=     1 CellRange=     0.0.
 One-electron integrals computed using PRISM.
 NBasis=  1039 RedAO= T EigKep=  1.15D-06  NBF=  1039
 NBsUse=  1026 1.00D-06 EigRej=  8.03D-07 NBFU=  1026
 Precomputing XC quadrature grid using
 IXCGrd= 4 IRadAn=           5 IRanWt=          -1 IRanGd=           0 AccXCQ= 0.00D+00.
 Generated NRdTot=       0 NPtTot=           0 NUsed=           0 NTot=          32
 NSgBfM=  1055  1055  1055  1055  1055 MxSgAt=    67 MxSgA2=    67.
 Leave Link  302 at Sat Feb 10 21:58:18 2024, MaxMem=  4026531840 cpu:              15.9 elap:               2.0
 (Enter /sysapps/ubuntu-applications/gaussian/Gaussian/AVX2/g16/l303.exe)
 DipDrv:  MaxL=1.
 Leave Link  303 at Sat Feb 10 21:58:18 2024, MaxMem=  4026531840 cpu:               1.6 elap:               0.2
 (Enter /sysapps/ubuntu-applications/gaussian/Gaussian/AVX2/g16/l401.exe)
 ExpMin= 3.60D-02 ExpMax= 8.59D+03 ExpMxC= 1.30D+03 IAcc=3 IRadAn=         5 AccDes= 0.00D+00
 Harris functional with IExCor=  402 and IRadAn=       5 diagonalized for initial guess.
 HarFok:  IExCor=  402 AccDes= 0.00D+00 IRadAn=         5 IDoV= 1 UseB2=F ITyADJ=14
 ICtDFT=  3500011 ScaDFX=  1.000000  1.000000  1.000000  1.000000
 FoFCou: FMM=F IPFlag=           0 FMFlag=      100000 FMFlg1=        2001
         NFxFlg=           0 DoJE=T BraDBF=F KetDBF=T FulRan=T
         wScrn=  0.000000 ICntrl=       500 IOpCl=  0 I1Cent=   200000004 NGrid=           0
         NMat0=    1 NMatS0=      1 NMatT0=    0 NMatD0=    1 NMtDS0=    0 NMtDT0=    0
 Symmetry not used in FoFCou.
 Harris En= -1853.87956615084    
 JPrj=0 DoOrth=F DoCkMO=F.
 Initial guess <Sx>= 0.0000 <Sy>= 0.0000 <Sz>= 0.0000 <S**2>=-0.0000 S=-0.0000
 Leave Link  401 at Sat Feb 10 21:58:28 2024, MaxMem=  4026531840 cpu:              80.8 elap:              10.3
 (Enter /sysapps/ubuntu-applications/gaussian/Gaussian/AVX2/g16/l502.exe)
 Two-electron integral symmetry not used.
 UHF open shell SCF:
 Using DIIS extrapolation, IDIIS=  1040.
 NGot=  4026531840 LenX=  4024195732 LenY=  4023034726
 Requested convergence on RMS density matrix=1.00D-08 within 128 cycles.
 Requested convergence on MAX density matrix=1.00D-06.
 Requested convergence on             energy=1.00D-06.
 No special actions if energy rises.
 Fock matrices will be formed incrementally for  20 cycles.

 Cycle   1  Pass 1  IDiag  1:
 FoFJK:  IHMeth= 1 ICntrl=       0 DoSepK=F KAlg= 0 I1Cent=           0 FoldK=F
 IRaf= 800000000 NMat=       1 IRICut=       1 DoRegI=T DoRafI=F ISym2E= 0 IDoP0=0 IntGTp=1.
 FoFCou: FMM=T IPFlag=           0 FMFlag=      100000 FMFlg1=        2001
         NFxFlg=           0 DoJE=F BraDBF=F KetDBF=F FulRan=T
         wScrn=  0.000000 ICntrl=         0 IOpCl=  1 I1Cent=           0 NGrid=           0
         NMat0=    1 NMatS0=      1 NMatT0=    0 NMatD0=    1 NMtDS0=    0 NMtDT0=    0
 Symmetry not used in FoFCou.
 FMM levels:  10  Number of levels for PrismC:   9
 Inv3:  Mode=1 IEnd=    59621292.
 Iteration    1 A*A^-1 deviation from unit magnitude is 4.44D-15 for   4046.
 Iteration    1 A*A^-1 deviation from orthogonality  is 2.98D-15 for   4179   3689.
 Iteration    1 A^-1*A deviation from unit magnitude is 4.66D-15 for   4046.
 Iteration    1 A^-1*A deviation from orthogonality  is 8.15D-15 for   4181   4162.
 E= -1852.98415687006    
 DIIS: error= 1.80D-02 at cycle   1 NSaved=   1.
 NSaved= 1 IEnMin= 1 EnMin= -1852.98415687006     IErMin= 1 ErrMin= 1.80D-02
 ErrMax= 1.80D-02  0.00D+00 EMaxC= 1.00D-01 BMatC= 4.73D+00 BMatP= 4.73D+00
 IDIUse=3 WtCom= 8.20D-01 WtEn= 1.80D-01
 Coeff-Com:  0.100D+01
 Coeff-En:   0.100D+01
 Coeff:      0.100D+01
 Gap=     0.117 Goal=   None    Shift=    0.000
 Gap=     0.117 Goal=   None    Shift=    0.000
 GapD=    0.117 DampG=1.000 DampE=0.500 DampFc=0.5000 IDamp=-1.
 Damping current iteration by 5.00D-01
 RMSDP=1.27D-02 MaxDP=1.80D+00              OVMax= 2.28D-01

 Cycle   2  Pass 1  IDiag  1:
 RMSU=  6.16D-03    CP:  1.04D+00
 E= -1853.29338900044     Delta-E=       -0.309232130383 Rises=F Damp=T
 DIIS: error= 4.74D-03 at cycle   2 NSaved=   2.
 NSaved= 2 IEnMin= 2 EnMin= -1853.29338900044     IErMin= 2 ErrMin= 4.74D-03
 ErrMax= 4.74D-03  0.00D+00 EMaxC= 1.00D-01 BMatC= 4.93D-01 BMatP= 4.73D+00
 IDIUse=3 WtCom= 9.53D-01 WtEn= 4.74D-02
 Coeff-Com:  0.146D+00 0.854D+00
 Coeff-En:   0.264D+00 0.736D+00
 Coeff:      0.152D+00 0.848D+00
 Gap=     0.141 Goal=   None    Shift=    0.000
 Gap=     0.141 Goal=   None    Shift=    0.000
 RMSDP=4.35D-03 MaxDP=5.02D-01 DE=-3.09D-01 OVMax= 2.08D-01

 Cycle   3  Pass 1  IDiag  1:
 RMSU=  3.85D-03    CP:  1.00D+00  7.95D-01
 E= -1853.76877726878     Delta-E=       -0.475388268338 Rises=F Damp=F
 DIIS: error= 6.56D-03 at cycle   3 NSaved=   3.
 NSaved= 3 IEnMin= 3 EnMin= -1853.76877726878     IErMin= 2 ErrMin= 4.74D-03
 ErrMax= 6.56D-03  0.00D+00 EMaxC= 1.00D-01 BMatC= 5.07D-01 BMatP= 4.93D-01
 IDIUse=3 WtCom= 9.34D-01 WtEn= 6.56D-02
 Coeff-Com:  0.346D-02 0.504D+00 0.493D+00
 Coeff-En:   0.000D+00 0.000D+00 0.100D+01
 Coeff:      0.323D-02 0.471D+00 0.526D+00
 Gap=     0.117 Goal=   None    Shift=    0.000
 Gap=     0.117 Goal=   None    Shift=    0.000
 RMSDP=2.16D-03 MaxDP=2.25D-01 DE=-4.75D-01 OVMax= 7.29D-02

 Cycle   4  Pass 1  IDiag  1:
 RMSU=  1.72D-03    CP:  1.02D+00  8.46D-01  7.24D-01
 E= -1853.85253512532     Delta-E=       -0.083757856542 Rises=F Damp=F
 DIIS: error= 3.11D-03 at cycle   4 NSaved=   4.
 NSaved= 4 IEnMin= 4 EnMin= -1853.85253512532     IErMin= 4 ErrMin= 3.11D-03
 ErrMax= 3.11D-03  0.00D+00 EMaxC= 1.00D-01 BMatC= 9.55D-02 BMatP= 4.93D-01
 IDIUse=3 WtCom= 9.69D-01 WtEn= 3.11D-02
 Coeff-Com: -0.167D-01 0.160D+00 0.335D+00 0.521D+00
 Coeff-En:   0.000D+00 0.000D+00 0.179D+00 0.821D+00
 Coeff:     -0.162D-01 0.155D+00 0.330D+00 0.531D+00
 Gap=     0.114 Goal=   None    Shift=    0.000
 Gap=     0.114 Goal=   None    Shift=    0.000
 RMSDP=1.29D-03 MaxDP=1.90D-01 DE=-8.38D-02 OVMax= 2.46D-02

 Cycle   5  Pass 1  IDiag  1:
 RMSU=  5.80D-04    CP:  9.93D-01  8.46D-01  7.57D-01  6.59D-01
 E= -1853.87068014936     Delta-E=       -0.018145024034 Rises=F Damp=F
 DIIS: error= 6.46D-04 at cycle   5 NSaved=   5.
 NSaved= 5 IEnMin= 5 EnMin= -1853.87068014936     IErMin= 5 ErrMin= 6.46D-04
 ErrMax= 6.46D-04  0.00D+00 EMaxC= 1.00D-01 BMatC= 6.68D-03 BMatP= 9.55D-02
 IDIUse=3 WtCom= 9.94D-01 WtEn= 6.46D-03
 Coeff-Com: -0.961D-02 0.424D-01 0.140D+00 0.303D+00 0.525D+00
 Coeff-En:   0.000D+00 0.000D+00 0.000D+00 0.000D+00 0.100D+01
 Coeff:     -0.955D-02 0.421D-01 0.139D+00 0.301D+00 0.528D+00
 Gap=     0.115 Goal=   None    Shift=    0.000
 Gap=     0.115 Goal=   None    Shift=    0.000
 RMSDP=3.27D-04 MaxDP=4.87D-02 DE=-1.81D-02 OVMax= 6.19D-03

 Cycle   6  Pass 1  IDiag  1:
 RMSU=  2.21D-04    CP:  9.88D-01  8.41D-01  7.59D-01  6.44D-01  8.20D-01
 E= -1853.87184889822     Delta-E=       -0.001168748865 Rises=F Damp=F
 DIIS: error= 2.45D-04 at cycle   6 NSaved=   6.
 NSaved= 6 IEnMin= 6 EnMin= -1853.87184889822     IErMin= 6 ErrMin= 2.45D-04
 ErrMax= 2.45D-04  0.00D+00 EMaxC= 1.00D-01 BMatC= 5.90D-04 BMatP= 6.68D-03
 IDIUse=3 WtCom= 9.98D-01 WtEn= 2.45D-03
 Coeff-Com: -0.364D-02 0.733D-02 0.434D-01 0.115D+00 0.293D+00 0.545D+00
 Coeff-En:   0.000D+00 0.000D+00 0.000D+00 0.000D+00 0.496D-02 0.995D+00
 Coeff:     -0.363D-02 0.731D-02 0.433D-01 0.115D+00 0.292D+00 0.546D+00
 Gap=     0.115 Goal=   None    Shift=    0.000
 Gap=     0.115 Goal=   None    Shift=    0.000
 RMSDP=1.36D-04 MaxDP=2.48D-02 DE=-1.17D-03 OVMax= 1.82D-03

 Cycle   7  Pass 1  IDiag  1:
 RMSU=  8.92D-05    CP:  9.89D-01  8.44D-01  7.75D-01  6.45D-01  7.95D-01
                    CP:  7.28D-01
 E= -1853.87195424342     Delta-E=       -0.000105345200 Rises=F Damp=F
 DIIS: error= 7.09D-05 at cycle   7 NSaved=   7.
 NSaved= 7 IEnMin= 7 EnMin= -1853.87195424342     IErMin= 7 ErrMin= 7.09D-05
 ErrMax= 7.09D-05  0.00D+00 EMaxC= 1.00D-01 BMatC= 6.15D-05 BMatP= 5.90D-04
 IDIUse=1 WtCom= 1.00D+00 WtEn= 0.00D+00
 Coeff-Com: -0.122D-02 0.101D-02 0.139D-01 0.421D-01 0.126D+00 0.317D+00
 Coeff-Com:  0.501D+00
 Coeff:     -0.122D-02 0.101D-02 0.139D-01 0.421D-01 0.126D+00 0.317D+00
 Coeff:      0.501D+00
 Gap=     0.115 Goal=   None    Shift=    0.000
 Gap=     0.115 Goal=   None    Shift=    0.000
 RMSDP=3.04D-05 MaxDP=5.71D-03 DE=-1.05D-04 OVMax= 6.35D-04

 Cycle   8  Pass 1  IDiag  1:
 RMSU=  1.72D-05    CP:  9.90D-01  8.44D-01  7.74D-01  6.50D-01  7.98D-01
                    CP:  7.34D-01  8.32D-01
 E= -1853.87196532907     Delta-E=       -0.000011085646 Rises=F Damp=F
 DIIS: error= 2.39D-05 at cycle   8 NSaved=   8.
 NSaved= 8 IEnMin= 8 EnMin= -1853.87196532907     IErMin= 8 ErrMin= 2.39D-05
 ErrMax= 2.39D-05  0.00D+00 EMaxC= 1.00D-01 BMatC= 7.37D-06 BMatP= 6.15D-05
 IDIUse=1 WtCom= 1.00D+00 WtEn= 0.00D+00
 Coeff-Com: -0.288D-03-0.197D-03 0.374D-02 0.130D-01 0.451D-01 0.134D+00
 Coeff-Com:  0.302D+00 0.503D+00
 Coeff:     -0.288D-03-0.197D-03 0.374D-02 0.130D-01 0.451D-01 0.134D+00
 Coeff:      0.302D+00 0.503D+00
 Gap=     0.115 Goal=   None    Shift=    0.000
 Gap=     0.115 Goal=   None    Shift=    0.000
 RMSDP=8.95D-06 MaxDP=1.55D-03 DE=-1.11D-05 OVMax= 2.24D-04

 Cycle   9  Pass 1  IDiag  1:
 RMSU=  5.90D-06    CP:  9.90D-01  8.44D-01  7.74D-01  6.51D-01  8.03D-01
                    CP:  7.36D-01  7.91D-01  7.94D-01
 E= -1853.87196658170     Delta-E=       -0.000001252631 Rises=F Damp=F
 DIIS: error= 7.82D-06 at cycle   9 NSaved=   9.
 NSaved= 9 IEnMin= 9 EnMin= -1853.87196658170     IErMin= 9 ErrMin= 7.82D-06
 ErrMax= 7.82D-06  0.00D+00 EMaxC= 1.00D-01 BMatC= 5.82D-07 BMatP= 7.37D-06
 IDIUse=1 WtCom= 1.00D+00 WtEn= 0.00D+00
 Coeff-Com:  0.311D-04-0.272D-03 0.136D-03 0.979D-03 0.682D-02 0.262D-01
 Coeff-Com:  0.853D-01 0.259D+00 0.622D+00
 Coeff:      0.311D-04-0.272D-03 0.136D-03 0.979D-03 0.682D-02 0.262D-01
 Coeff:      0.853D-01 0.259D+00 0.622D+00
 Gap=     0.115 Goal=   None    Shift=    0.000
 Gap=     0.115 Goal=   None    Shift=    0.000
 RMSDP=2.50D-06 MaxDP=3.23D-04 DE=-1.25D-06 OVMax= 5.96D-05

 Cycle  10  Pass 1  IDiag  1:
 RMSU=  1.97D-06    CP:  9.90D-01  8.44D-01  7.74D-01  6.51D-01  8.04D-01
                    CP:  7.37D-01  8.00D-01  8.17D-01  8.58D-01
 E= -1853.87196667942     Delta-E=       -0.000000097723 Rises=F Damp=F
 DIIS: error= 3.27D-06 at cycle  10 NSaved=  10.
 NSaved=10 IEnMin=10 EnMin= -1853.87196667942     IErMin=10 ErrMin= 3.27D-06
 ErrMax= 3.27D-06  0.00D+00 EMaxC= 1.00D-01 BMatC= 7.86D-08 BMatP= 5.82D-07
 IDIUse=1 WtCom= 1.00D+00 WtEn= 0.00D+00
 Coeff-Com:  0.360D-04-0.142D-03-0.158D-03-0.337D-03 0.774D-03 0.479D-02
 Coeff-Com:  0.238D-01 0.104D+00 0.354D+00 0.513D+00
 Coeff:      0.360D-04-0.142D-03-0.158D-03-0.337D-03 0.774D-03 0.479D-02
 Coeff:      0.238D-01 0.104D+00 0.354D+00 0.513D+00
 Gap=     0.115 Goal=   None    Shift=    0.000
 Gap=     0.115 Goal=   None    Shift=    0.000
 RMSDP=1.06D-06 MaxDP=1.08D-04 DE=-9.77D-08 OVMax= 3.61D-05

 Cycle  11  Pass 1  IDiag  1:
 RMSU=  6.52D-07    CP:  9.90D-01  8.44D-01  7.74D-01  6.51D-01  8.04D-01
                    CP:  7.39D-01  8.02D-01  8.30D-01  8.51D-01  8.88D-01
 E= -1853.87196669576     Delta-E=       -0.000000016343 Rises=F Damp=F
 DIIS: error= 1.01D-06 at cycle  11 NSaved=  11.
 NSaved=11 IEnMin=11 EnMin= -1853.87196669576     IErMin=11 ErrMin= 1.01D-06
 ErrMax= 1.01D-06  0.00D+00 EMaxC= 1.00D-01 BMatC= 5.48D-09 BMatP= 7.86D-08
 IDIUse=1 WtCom= 1.00D+00 WtEn= 0.00D+00
 Coeff-Com:  0.148D-04-0.388D-04-0.103D-03-0.314D-03-0.420D-03-0.585D-03
 Coeff-Com:  0.265D-02 0.240D-01 0.109D+00 0.259D+00 0.606D+00
 Coeff:      0.148D-04-0.388D-04-0.103D-03-0.314D-03-0.420D-03-0.585D-03
 Coeff:      0.265D-02 0.240D-01 0.109D+00 0.259D+00 0.606D+00
 Gap=     0.115 Goal=   None    Shift=    0.000
 Gap=     0.115 Goal=   None    Shift=    0.000
 RMSDP=3.34D-07 MaxDP=5.24D-05 DE=-1.63D-08 OVMax= 1.09D-05

 Cycle  12  Pass 1  IDiag  1:
 RMSU=  2.50D-07    CP:  9.90D-01  8.44D-01  7.74D-01  6.51D-01  8.04D-01
                    CP:  7.38D-01  8.02D-01  8.31D-01  8.66D-01  8.83D-01
                    CP:  8.14D-01
 E= -1853.87196669701     Delta-E=       -0.000000001243 Rises=F Damp=F
 DIIS: error= 2.88D-07 at cycle  12 NSaved=  12.
 NSaved=12 IEnMin=12 EnMin= -1853.87196669701     IErMin=12 ErrMin= 2.88D-07
 ErrMax= 2.88D-07  0.00D+00 EMaxC= 1.00D-01 BMatC= 6.22D-10 BMatP= 5.48D-09
 IDIUse=1 WtCom= 1.00D+00 WtEn= 0.00D+00
 Coeff-Com:  0.315D-05-0.484D-05-0.367D-04-0.126D-03-0.291D-03-0.778D-03
 Coeff-Com: -0.101D-02 0.215D-02 0.195D-01 0.824D-01 0.307D+00 0.591D+00
 Coeff:      0.315D-05-0.484D-05-0.367D-04-0.126D-03-0.291D-03-0.778D-03
 Coeff:     -0.101D-02 0.215D-02 0.195D-01 0.824D-01 0.307D+00 0.591D+00
 Gap=     0.115 Goal=   None    Shift=    0.000
 Gap=     0.115 Goal=   None    Shift=    0.000
 RMSDP=1.16D-07 MaxDP=2.28D-05 DE=-1.24D-09 OVMax= 5.31D-06

 Cycle  13  Pass 1  IDiag  1:
 RMSU=  6.79D-08    CP:  9.90D-01  8.44D-01  7.74D-01  6.51D-01  8.04D-01
                    CP:  7.38D-01  8.03D-01  8.34D-01  8.66D-01  8.91D-01
                    CP:  8.22D-01  9.91D-01
 E= -1853.87196669705     Delta-E=       -0.000000000041 Rises=F Damp=F
 DIIS: error= 1.16D-07 at cycle  13 NSaved=  13.
 NSaved=13 IEnMin=13 EnMin= -1853.87196669705     IErMin=13 ErrMin= 1.16D-07
 ErrMax= 1.16D-07  0.00D+00 EMaxC= 1.00D-01 BMatC= 7.17D-11 BMatP= 6.22D-10
 IDIUse=1 WtCom= 1.00D+00 WtEn= 0.00D+00
 Coeff-Com: -0.730D-06 0.280D-05-0.363D-05-0.155D-04-0.734D-04-0.252D-03
 Coeff-Com: -0.722D-03-0.213D-02-0.635D-02 0.309D-02 0.573D-01 0.286D+00
 Coeff-Com:  0.664D+00
 Coeff:     -0.730D-06 0.280D-05-0.363D-05-0.155D-04-0.734D-04-0.252D-03
 Coeff:     -0.722D-03-0.213D-02-0.635D-02 0.309D-02 0.573D-01 0.286D+00
 Coeff:      0.664D+00
 Gap=     0.115 Goal=   None    Shift=    0.000
 Gap=     0.115 Goal=   None    Shift=    0.000
 RMSDP=5.29D-08 MaxDP=6.57D-06 DE=-4.09D-11 OVMax= 2.28D-06

 Cycle  14  Pass 1  IDiag  1:
 RMSU=  3.18D-08    CP:  9.90D-01  8.44D-01  7.74D-01  6.51D-01  8.04D-01
                    CP:  7.38D-01  8.03D-01  8.34D-01  8.66D-01  9.02D-01
                    CP:  8.38D-01  9.92D-01  8.77D-01
 E= -1853.87196669714     Delta-E=       -0.000000000095 Rises=F Damp=F
 DIIS: error= 5.63D-08 at cycle  14 NSaved=  14.
 NSaved=14 IEnMin=14 EnMin= -1853.87196669714     IErMin=14 ErrMin= 5.63D-08
 ErrMax= 5.63D-08  0.00D+00 EMaxC= 1.00D-01 BMatC= 1.15D-11 BMatP= 7.17D-11
 IDIUse=1 WtCom= 1.00D+00 WtEn= 0.00D+00
 Coeff-Com: -0.647D-06 0.181D-05 0.902D-06 0.177D-05-0.183D-04-0.775D-04
 Coeff-Com: -0.315D-03-0.137D-02-0.519D-02-0.522D-02 0.290D-02 0.103D+00
 Coeff-Com:  0.366D+00 0.540D+00
 Coeff:     -0.647D-06 0.181D-05 0.902D-06 0.177D-05-0.183D-04-0.775D-04
 Coeff:     -0.315D-03-0.137D-02-0.519D-02-0.522D-02 0.290D-02 0.103D+00
 Coeff:      0.366D+00 0.540D+00
 Gap=     0.115 Goal=   None    Shift=    0.000
 Gap=     0.115 Goal=   None    Shift=    0.000
 RMSDP=1.63D-08 MaxDP=3.69D-06 DE=-9.46D-11 OVMax= 1.23D-06

 Cycle  15  Pass 1  IDiag  1:
 RMSU=  9.38D-09    CP:  9.90D-01  8.44D-01  7.74D-01  6.51D-01  8.04D-01
                    CP:  7.38D-01  8.03D-01  8.34D-01  8.67D-01  9.02D-01
                    CP:  8.36D-01  1.02D+00  9.52D-01  8.23D-01
 E= -1853.87196669715     Delta-E=       -0.000000000003 Rises=F Damp=F
 DIIS: error= 2.24D-08 at cycle  15 NSaved=  15.
 NSaved=15 IEnMin=15 EnMin= -1853.87196669715     IErMin=15 ErrMin= 2.24D-08
 ErrMax= 2.24D-08  0.00D+00 EMaxC= 1.00D-01 BMatC= 1.52D-12 BMatP= 1.15D-11
 IDIUse=1 WtCom= 1.00D+00 WtEn= 0.00D+00
 Coeff-Com: -0.193D-06 0.564D-06 0.114D-05 0.364D-05 0.953D-06-0.210D-05
 Coeff-Com: -0.556D-04-0.412D-03-0.190D-02-0.362D-02-0.105D-01 0.428D-02
 Coeff-Com:  0.813D-01 0.296D+00 0.635D+00
 Coeff:     -0.193D-06 0.564D-06 0.114D-05 0.364D-05 0.953D-06-0.210D-05
 Coeff:     -0.556D-04-0.412D-03-0.190D-02-0.362D-02-0.105D-01 0.428D-02
 Coeff:      0.813D-01 0.296D+00 0.635D+00
 Gap=     0.115 Goal=   None    Shift=    0.000
 Gap=     0.115 Goal=   None    Shift=    0.000
 RMSDP=7.04D-09 MaxDP=7.18D-07 DE=-2.73D-12 OVMax= 2.70D-07

 Error on total polarization charges =  0.02304
 SCF Done:  E(UB3LYP) =  -1853.87196670     A.U. after   15 cycles
            NFock= 15  Conv=0.70D-08     -V/T= 2.0039
 <Sx>= 0.0000 <Sy>= 0.0000 <Sz>= 0.0000 <S**2>=-0.0000 S=-0.0000
 <L.S>=  0.00000000000    
 KE= 1.846610620067D+03 PE=-1.313797577378D+04 EE= 5.036149476969D+03
 Annihilation of the first spin contaminant:
 S**2 before annihilation    -0.0000,   after    -0.0000
 Leave Link  502 at Sat Feb 10 22:29:56 2024, MaxMem=  4026531840 cpu:           15005.7 elap:            1887.4
 (Enter /sysapps/ubuntu-applications/gaussian/Gaussian/AVX2/g16/l601.exe)
 Copying SCF densities to generalized density rwf, IOpCl= 1 IROHF=0.

 **********************************************************************

            Population analysis using the SCF density.

 **********************************************************************

 Alpha  occ. eigenvalues --  -19.17414 -19.17284 -19.15718 -19.15414 -19.13512
 Alpha  occ. eigenvalues --  -19.13376 -19.13296 -19.13207 -19.13079 -19.12166
 Alpha  occ. eigenvalues --  -14.29946 -10.28779 -10.27961 -10.27776 -10.27742
 Alpha  occ. eigenvalues --  -10.26797 -10.26646 -10.26390 -10.25543 -10.25020
 Alpha  occ. eigenvalues --  -10.23142 -10.22919 -10.22900 -10.21870 -10.21076
 Alpha  occ. eigenvalues --  -10.20983 -10.20945 -10.20932 -10.20849 -10.20827
 Alpha  occ. eigenvalues --  -10.20039 -10.19775 -10.19510 -10.18915 -10.18838
 Alpha  occ. eigenvalues --  -10.17561 -10.17182 -10.16554  -1.09533  -1.09267
 Alpha  occ. eigenvalues --   -1.08945  -1.08468  -1.07058  -1.05870  -1.05435
 Alpha  occ. eigenvalues --   -1.04330  -1.03805  -1.01958  -0.89569  -0.89490
 Alpha  occ. eigenvalues --   -0.88337  -0.84591  -0.80486  -0.79780  -0.78469
 Alpha  occ. eigenvalues --   -0.77949  -0.77669  -0.77063  -0.75463  -0.74985
 Alpha  occ. eigenvalues --   -0.71963  -0.70841  -0.69160  -0.68600  -0.66794
 Alpha  occ. eigenvalues --   -0.65194  -0.63828  -0.62315  -0.62151  -0.61637
 Alpha  occ. eigenvalues --   -0.59488  -0.59247  -0.57264  -0.56196  -0.55265
 Alpha  occ. eigenvalues --   -0.54666  -0.54452  -0.53825  -0.52115  -0.51666
 Alpha  occ. eigenvalues --   -0.51412  -0.50799  -0.50276  -0.49681  -0.49481
 Alpha  occ. eigenvalues --   -0.48833  -0.48645  -0.48326  -0.47696  -0.47581
 Alpha  occ. eigenvalues --   -0.47135  -0.46758  -0.46402  -0.46035  -0.45428
 Alpha  occ. eigenvalues --   -0.44867  -0.44728  -0.44520  -0.43809  -0.43009
 Alpha  occ. eigenvalues --   -0.42872  -0.42751  -0.42243  -0.41659  -0.41535
 Alpha  occ. eigenvalues --   -0.41267  -0.40614  -0.40092  -0.39691  -0.39520
 Alpha  occ. eigenvalues --   -0.39336  -0.38979  -0.38726  -0.38620  -0.38409
 Alpha  occ. eigenvalues --   -0.38259  -0.38050  -0.37558  -0.37131  -0.36796
 Alpha  occ. eigenvalues --   -0.35356  -0.35125  -0.34791  -0.34270  -0.33930
 Alpha  occ. eigenvalues --   -0.33512  -0.33197  -0.30981  -0.30078  -0.28948
 Alpha  occ. eigenvalues --   -0.28555  -0.28274  -0.27763  -0.26887  -0.26742
 Alpha  occ. eigenvalues --   -0.26388  -0.25210  -0.25010  -0.23186
 Alpha virt. eigenvalues --   -0.11689  -0.06329  -0.04504  -0.03785  -0.01485
 Alpha virt. eigenvalues --   -0.01155  -0.00802  -0.00508   0.00055   0.00370
 Alpha virt. eigenvalues --    0.00702   0.01263   0.01392   0.01668   0.02071
 Alpha virt. eigenvalues --    0.02674   0.02777   0.02852   0.03189   0.03317
 Alpha virt. eigenvalues --    0.03467   0.03572   0.03814   0.03953   0.04273
 Alpha virt. eigenvalues --    0.04411   0.04900   0.05372   0.05662   0.05875
 Alpha virt. eigenvalues --    0.06039   0.06186   0.06324   0.06433   0.06910
 Alpha virt. eigenvalues --    0.06925   0.07268   0.07393   0.07819   0.08098
 Alpha virt. eigenvalues --    0.08395   0.08561   0.08774   0.09011   0.09295
 Alpha virt. eigenvalues --    0.09485   0.09571   0.09799   0.09945   0.10181
 Alpha virt. eigenvalues --    0.10318   0.10746   0.10975   0.11027   0.11140
 Alpha virt. eigenvalues --    0.11463   0.11650   0.11813   0.11877   0.11934
 Alpha virt. eigenvalues --    0.12216   0.12542   0.12580   0.12718   0.12894
 Alpha virt. eigenvalues --    0.13060   0.13246   0.13382   0.13507   0.13603
 Alpha virt. eigenvalues --    0.13757   0.13865   0.14081   0.14343   0.14359
 Alpha virt. eigenvalues --    0.14633   0.14698   0.14784   0.15055   0.15233
 Alpha virt. eigenvalues --    0.15298   0.15399   0.15452   0.15743   0.15825
 Alpha virt. eigenvalues --    0.16013   0.16152   0.16267   0.16540   0.16636
 Alpha virt. eigenvalues --    0.16766   0.16957   0.17078   0.17162   0.17292
 Alpha virt. eigenvalues --    0.17748   0.17918   0.18124   0.18319   0.18371
 Alpha virt. eigenvalues --    0.18672   0.18763   0.18923   0.19116   0.19360
 Alpha virt. eigenvalues --    0.19618   0.19733   0.19908   0.19959   0.20348
 Alpha virt. eigenvalues --    0.20498   0.20659   0.20896   0.20937   0.21051
 Alpha virt. eigenvalues --    0.21236   0.21472   0.21692   0.21821   0.21941
 Alpha virt. eigenvalues --    0.22223   0.22443   0.22754   0.22916   0.23082
 Alpha virt. eigenvalues --    0.23286   0.23352   0.23626   0.23808   0.24099
 Alpha virt. eigenvalues --    0.24271   0.24458   0.24677   0.24854   0.25043
 Alpha virt. eigenvalues --    0.25202   0.25540   0.25604   0.25670   0.25963
 Alpha virt. eigenvalues --    0.26046   0.26287   0.26544   0.26714   0.26881
 Alpha virt. eigenvalues --    0.27280   0.27323   0.27598   0.27697   0.27875
 Alpha virt. eigenvalues --    0.28193   0.28459   0.28506   0.28604   0.28775
 Alpha virt. eigenvalues --    0.28833   0.29157   0.29517   0.29770   0.29941
 Alpha virt. eigenvalues --    0.30113   0.30474   0.30556   0.30601   0.30850
 Alpha virt. eigenvalues --    0.30953   0.31189   0.31265   0.31345   0.31640
 Alpha virt. eigenvalues --    0.31732   0.31976   0.32259   0.32401   0.32445
 Alpha virt. eigenvalues --    0.32892   0.33197   0.33518   0.33556   0.33660
 Alpha virt. eigenvalues --    0.33850   0.33989   0.34014   0.34168   0.34647
[...]
 00018,0.00000020,-0.00000015,-0.00000009,-0.00000004,-0.00000030,-0.00
 000011,0.00000003,0.00000015,0.00000006,-0.00000013,0.00002033,-0.0000
 0647,-0.00000556,0.00012669,0.00005872,-0.00002506,-0.00006437,0.00001
 667,0.00000419,0.00024405,0.00006040,0.00028665,-0.00003291,0.00000728
 ,0.00004562,-0.00002181,0.00012537,-0.00002695,0.00001353,0.00001844,-
 0.00001577,-0.00001272,0.00001124,-0.00000040,-0.00000017,0.00000150,0
 .00000017,-0.00000078,-0.00000001,0.00000142,0.00000056,-0.00000048,-0
 .00000008,0.00000017,-0.00000014,0.00000012,-0.00000015,0.00000020,-0.
 00000062,-0.00000067,0.00000106,-0.00000010,-0.00000038,-0.00000055,-0
 .00000036,-0.00000172,0.00000104,-0.00000042,0.00000018,-0.00000044,-0
 .00000019,-0.00000022,-0.00000020,0.00000112,-0.00000036,0.00000053,0.
 00000101,-0.00000215,-0.00000117,0.00000190,-0.03844208,0.16690387,-0.
 00000101,-0.00000190,0.00000104,-0.00000108,0.00000517,-0.00000199,0.0
 0000351,-0.00000454,0.00000085,-0.00000160,0.00000204,-0.00000005,-0.0
 0000011,-0.00000232,0.00000142,0.00000227,0.00000130,-0.00000238,-0.00
 000041,0.00000095,-0.00000249,-0.00001855,0.00000504,0.00000651,0.0000
 0934,-0.00000577,-0.00000068,0.00001691,-0.00000973,0.00000147,0.00001
 077,0.00000374,-0.00000615,0.00000562,0.00000440,-0.00000524,-0.000002
 95,-0.00001740,0.00002878,-0.00004760,-0.00006825,0.00008480,-0.000415
 49,-0.00014130,-0.00014119,0.00019986,0.00148413,-0.00039496,0.0000895
 7,0.00014152,-0.00027941,0.00000746,0.00000761,0.00012039,-0.00000447,
 0.00004893,-0.00000837,0.00003274,-0.00000982,0.00000955,-0.00000493,0
 .00000058,0.00000181,0.00000418,0.00000121,-0.00000095,-0.00000224,-0.
 00000052,-0.00000137,-0.00000067,0.00000108,0.00000028,-0.00000149,0.0
 0000108,-0.00000129,0.00000744,-0.00000414,-0.00000141,-0.00000119,0.0
 0000118,-0.00000052,-0.00001872,0.00000506,-0.00000083,-0.00001077,0.0
 0000228,-0.00001026,0.00001404,-0.00000703,0.00000098,0.00000249,0.000
 01268,-0.00000379,0.00000014,0.00001820,-0.00000929,-0.00000749,-0.000
 01647,0.00000726,-0.00000133,0.00001072,-0.00000383,0.00000469,0.00000
 060,-0.00000085,-0.00189591,-0.00532379,-0.00973678,0.04653791,-0.1275
 6003,-0.18297282,-0.00172516,-0.00072999,0.00209460,-0.00000003,0.0000
 0027,-0.00000006,0.00000032,0.00000013,-0.00000030,0.00000036,0.000000
 22,-0.00000004,0.00000019,0.00000009,-0.00000012,0.00000040,0.00000008
 ,-0.00000008,-0.00000028,-0.00000022,0.00000017,-0.00001239,0.00000073
 ,0.00000479,0.00005319,0.00001887,-0.00001231,-0.00002142,-0.00000604,
 0.00000259,0.00018575,0.00012597,0.00001532,-0.00000348,-0.00002400,0.
 00001381,0.00003746,-0.00007470,0.00000489,0.00000574,0.00000988,-0.00
 002541,-0.00000697,0.00000132,-0.00000205,-0.00000020,0.00000003,-0.00
 000073,0.00000065,0.00000007,-0.00000031,-0.00000112,-0.00000008,-0.00
 000012,0.00000019,-0.00000028,0.00000023,-0.00000020,0.00000095,-0.000
 00013,-0.00000054,0.00000062,-0.00000074,-0.00000009,-0.00000036,0.000
 00025,-0.00000247,0.00000065,-0.00000004,-0.00000008,-0.00000058,0.000
 00009,0.00000039,0.,0.00000031,-0.00000026,0.00000066,0.00000039,-0.00
 000121,-0.00000541,0.00000096,-0.04507431,0.14038317,0.19873104,0.0000
 0499,0.00000978,-0.00000528,0.00000481,-0.00002770,0.00000981,-0.00001
 616,0.00002602,-0.00000522,0.00000766,-0.00000994,0.00000131,-0.000001
 84,0.00001420,-0.00000463,-0.00001484,-0.00001345,0.00000855,-0.000003
 98,-0.00000954,0.00000503,0.00011313,-0.00004059,-0.00000940,-0.000058
 71,0.00004087,-0.00000184,-0.00012572,0.00006600,0.00000532,-0.0000441
 5,-0.00015951,0.00006633,-0.00004779,0.00000438,0.00000673,-0.00025786
 ,0.00022166,-0.00005213,0.00002643,-0.00062704,0.00051769,-0.00242528,
 -0.00184326,-0.00307218,0.00101882,0.00033377,-0.00071333,-0.00047782,
 -0.00011768,0.00077619,0.00018180,-0.00023048,-0.00036970,0.00007735,-
 0.00007787,0.00011707,-0.00012448,0.00008177,-0.00002036,0.00002131,-0
 .00000711,-0.00000593,-0.00001270,0.00000047,0.00000172,0.00000849,-0.
 00000059,0.00000621,0.00000209,0.00000176,-0.00000214,0.00000246,-0.00
 000838,0.00000382,-0.00002495,0.00001937,0.00000434,0.00000344,-0.0000
 0414,0.00000124,0.00006851,-0.00002292,0.00000081,0.00003144,0.0000381
 4,0.00000279,-0.00001846,0.00004271,-0.00001609,-0.00001447,-0.0000691
 0,0.00002782,-0.00002838,-0.00010890,0.00004520,0.00005925,0.00010629,
 -0.00005159,0.00000616,-0.00006616,0.00002216,-0.00002875,-0.00000347,
 0.00000790,-0.01229165,-0.01523333,0.02505344,-0.08001032,-0.04309036,
 0.07329655,0.00354189,0.00272842,0.00005946,0.00000016,-0.00000135,0.0
 0000055,-0.00000174,-0.00000090,0.00000132,-0.00000201,-0.00000101,0.0
 0000039,-0.00000101,-0.00000078,0.00000051,-0.00000200,-0.00000051,0.0
 0000075,0.00000096,0.00000122,-0.00000084,0.00008955,-0.00002787,-0.00
 000344,-0.00000984,-0.00002975,-0.00000756,-0.00006304,0.00003079,0.00
 001648,-0.00006529,0.00004156,-0.00005861,-0.00000448,0.00003541,-0.00
 003878,0.00003684,-0.00010456,-0.00002463,-0.00004638,-0.00008944,0.00
 011249,0.00000968,-0.00000242,-0.00000281,0.00000062,-0.00000182,0.000
 00255,-0.00000071,0.00000090,-0.00000012,0.00000231,0.00000059,0.00000
 006,-0.00000038,0.00000052,-0.00000077,0.00000077,-0.00000250,0.000001
 15,0.00000205,-0.00000291,0.00000214,0.00000044,0.00000196,-0.00000059
 ,0.00000659,-0.00000272,-0.00000025,-0.00000030,0.00000173,0.00000039,
 -0.00000035,0.00000009,-0.00000007,0.00000170,-0.00000229,-0.00000151,
 0.00000639,0.00002019,-0.00000618,-0.00309787,-0.00268404,0.00396914,0
 .08418289,0.00000421,0.00000832,-0.00000417,0.00000392,-0.00002372,0.0
 0000793,-0.00001439,0.00002147,-0.00000585,0.00000705,-0.00000846,0.00
 000101,-0.00000177,0.00001241,-0.00000273,-0.00001263,-0.00001244,0.00
 000514,-0.00000447,-0.00000850,0.00000240,0.00009251,-0.00003471,-0.00
 000678,-0.00004761,0.00003251,-0.00000106,-0.00010818,0.00005812,0.000
 01223,-0.00004078,-0.00014708,0.00005365,-0.00003880,-0.00000506,0.000
 00779,-0.00027661,0.00021687,-0.00007618,-0.00000924,-0.00075073,0.000
 66873,-0.00282825,0.00052203,-0.00116540,-0.00034376,0.00044930,-0.000
 34430,0.00000045,0.00029330,0.00003414,0.00005875,0.00002727,-0.000126
 69,0.00004739,-0.00007547,0.00007977,-0.00008115,0.00006555,-0.0000213
 0,0.00001437,-0.00000420,-0.00000387,-0.00000893,0.00000250,0.00000017
 ,0.00000547,-0.00000154,0.00000493,0.00000492,0.00000205,-0.00000117,0
 .00000128,-0.00000764,0.00000208,-0.00002914,0.00001833,0.00000749,0.0
 0000417,-0.00000406,0.00000169,0.00005413,-0.00003135,0.00000393,-0.00
 000834,0.00001709,0.00000656,-0.00001180,0.00004891,-0.00000613,-0.000
 00258,-0.00005714,0.00001912,-0.00002600,-0.00008751,0.00003582,0.0000
 4808,0.00008784,-0.00004444,0.00000838,-0.00005556,0.00001770,-0.00002
 228,-0.00000118,0.00000827,-0.00680018,-0.01144494,0.01514277,-0.04436
 880,-0.10966025,0.10473006,0.00331300,0.00140450,-0.00051717,0.0000001
 8,-0.00000110,0.00000035,-0.00000139,-0.00000060,0.00000097,-0.0000016
 7,-0.00000090,0.00000041,-0.00000089,-0.00000061,0.00000067,-0.0000015
 8,-0.00000043,0.00000064,0.00000105,0.00000125,-0.00000046,0.00007656,
 -0.00002180,-0.00000371,0.00002540,-0.00000858,-0.00005347,-0.00006013
 ,0.00002307,0.00002006,0.00014234,0.00023651,-0.00009483,-0.00005158,-
 0.00004693,-0.00001667,0.00004035,0.00008885,0.00000254,-0.00000812,-0
 .00003457,0.00003191,0.00000486,-0.00000517,-0.00000162,0.00000019,-0.
 00000206,0.00000203,0.00000010,0.00000026,-0.00000130,0.00000090,0.000
 00027,0.00000012,-0.00000019,0.00000033,-0.00000046,0.00000068,-0.0000
 0194,0.00000081,0.00000170,-0.00000284,0.00000220,0.00000037,0.0000013
 0,0.,0.00000584,-0.00000204,0.00000047,-0.00000028,0.00000086,0.000000
 17,-0.00000017,-0.00000005,-0.00000101,0.00000124,-0.00000256,-0.00000
 178,0.00000316,0.00001286,-0.00000419,0.00737209,0.01211547,-0.0162672
 3,0.05170825,0.11526192,-0.00000073,-0.00000155,0.00000090,-0.00000063
 ,0.00000404,-0.00000131,0.00000198,-0.00000407,0.00000034,-0.00000114,
 0.00000078,-0.00000094,0.00000053,-0.00000101,0.00000180,0.00000136,0.
 00000083,-0.00000304,-0.00000009,0.00000304,0.00000118,-0.00001761,0.0
 0000099,0.00000423,0.00000873,-0.00000554,0.00000025,0.00000763,-0.000
 00007,-0.00000170,-0.00000806,-0.00001984,0.00000524,0.00000797,-0.000
 00236,-0.00000037,-0.00010824,0.00001055,0.00005649,-0.00013314,-0.000
 21988,0.00026296,-0.00191356,-0.00070069,-0.00109532,0.00089173,0.0010
 9631,-0.00030620,0.00004474,0.00002002,-0.00000772,-0.00003660,-0.0000
 1698,0.00002499,-0.00001302,0.00012012,-0.00001852,0.00006136,-0.00002
 180,0.00002273,-0.00000562,-0.00000111,0.00000185,0.00000542,-0.000002
 16,0.00000179,-0.00000346,0.00000198,-0.00000344,-0.00000096,-0.000002
 29,0.00000124,-0.00000093,0.00000653,-0.00000184,0.00001592,-0.0000130
 8,-0.00000259,-0.00000243,0.00000203,-0.00000085,-0.00002934,0.0000167
 1,0.00000269,-0.00001002,0.00000137,-0.00001221,0.00000162,-0.00001088
 ,-0.00000053,0.00000537,0.00000938,-0.00000436,0.00000499,0.00001407,-
 0.00000594,-0.00000766,-0.00001260,0.00000809,0.00000125,0.00000795,-0
 .00000286,0.00000399,0.00000076,-0.00000088,-0.00567452,-0.00601667,0.
 00580337,0.07759443,0.10759655,-0.22539043,0.00071190,-0.00071846,0.00
 204108,-0.00000008,0.00000018,-0.00000013,0.00000028,0.00000011,-0.000
 00018,0.00000034,0.00000018,-0.00000007,0.00000018,0.00000012,-0.00000
 016,0.00000019,-0.00000002,-0.00000018,0.,-0.00000016,0.00000013,-0.00
 000893,0.00000246,0.00000233,0.00004121,-0.00002750,0.00006993,-0.0000
 1902,0.00000579,0.00000102,0.00020608,-0.00008163,0.00018704,0.0000008
 8,0.00002528,0.00003430,0.00000172,-0.00004090,-0.00000709,0.00000526,
 0.00000687,-0.00001157,-0.00001002,0.00000970,-0.00000119,-0.00000008,
 0.00000176,-0.00000120,-0.00000081,-0.00000014,0.00000097,-0.00000004,
 -0.00000022,0.00000017,-0.00000002,-0.00000010,0.00000029,-0.00000037,
 0.00000086,-0.00000047,-0.00000141,0.00000190,-0.00000130,-0.00000009,
 -0.00000125,0.00000023,-0.00000245,0.00000091,0.00000011,0.00000025,-0
 .00000055,-0.00000021,0.00000050,-0.00000057,0.00000008,-0.00000096,0.
 00000175,0.00000100,-0.00000260,-0.00000455,0.00000195,0.00632930,0.01
 153297,-0.01527415,-0.08160883,-0.11538047,0.24078996,-0.00000170,-0.0
 0000320,0.00000134,-0.00000116,0.00000854,-0.00000258,0.00000522,-0.00
 000756,0.00000075,-0.00000250,0.00000299,0.00000038,0.00000060,-0.0000
 0446,0.00000077,0.00000395,0.00000462,-0.00000194,0.00000176,0.0000027
 1,-0.00000063,-0.00004054,0.00001432,0.00000589,0.00002032,-0.00001462
 ,0.00000046,0.00004467,-0.00001835,-0.00001215,0.00000443,0.00004888,-
 0.00002239,0.00001929,0.00000199,0.00000229,0.00011305,-0.00005707,0.0
 0007227,0.00014718,0.00035055,-0.00022583,0.00081669,-0.00228412,-0.00
 146601,0.00124069,0.00031760,0.00013755,-0.00055514,-0.00017267,0.0005
 5828,0.00012304,-0.00030408,-0.00008670,-0.00000835,0.00013619,-0.0000
 2589,0.00005810,-0.00004329,0.00004149,-0.00000612,0.00000317,0.000001
 40,0.00000683,-0.00000303,0.00000332,-0.00000431,0.00000177,-0.0000049
 2,-0.00000493,-0.00000242,0.00000327,-0.00000030,0.00000869,-0.0000029
 6,0.00003228,-0.00002210,-0.00000792,-0.00000399,0.00000294,-0.0000012
 8,-0.00004346,0.00004585,-0.00001046,0.00001995,0.00002546,-0.00004619
 ,0.00002281,-0.00002783,0.00000103,-0.00000287,0.00001804,-0.00000521,
 0.00000700,0.00003355,-0.00001306,-0.00001506,-0.00003131,0.00001546,-
 0.00000276,0.00001881,-0.00000596,0.00000888,0.00000170,-0.00000254,-0
 .01593582,0.02175436,-0.00812413,-0.17584977,0.11377272,-0.06645574,-0
 .00300758,-0.00484519,-0.00261493,-0.00000004,0.00000043,-0.00000016,0
 .00000050,0.00000028,-0.00000033,0.00000075,0.00000037,-0.00000012,0.0
 0000035,0.00000021,-0.00000024,0.00000064,0.00000017,-0.00000034,-0.00
 000042,-0.00000038,0.00000024,-0.00002720,0.00000782,-0.00000270,0.000
 12404,0.00000631,-0.00000378,0.00000322,0.00002470,-0.00000739,-0.0000
 8268,-0.00019774,0.00029669,0.00010265,0.00013176,0.00002083,0.0001130
 8,-0.00043253,-0.00002108,-0.00003024,-0.00002362,0.00005083,-0.000008
 30,0.00001390,-0.00000181,0.00000008,0.00000174,-0.00000248,-0.0000003
 0,-0.00000049,0.00000156,0.00000052,0.00000020,-0.00000029,0.00000023,
 -0.00000023,0.00000041,-0.00000035,0.00000115,-0.00000038,-0.00000177,
 0.00000272,-0.00000309,-0.00000009,-0.00000196,0.00000061,-0.00000364,
 0.00000238,0.00000068,0.00000082,-0.00000115,-0.00000029,0.00000035,-0
 .00000039,-0.00000089,-0.00000131,0.00000298,0.00000166,-0.00000235,-0
 .00000437,0.00000296,-0.00442527,0.00408867,-0.00191452,0.00980276,-0.
 00784163,0.00366633,0.18722362,-0.00000140,-0.00000249,0.00000144,-0.0
 0000126,0.00000756,-0.00000285,0.00000490,-0.00000654,0.00000240,-0.00
 000194,0.00000292,-0.00000093,0.00000028,-0.00000363,0.00000153,0.0000
 0398,0.00000311,-0.00000233,0.00000168,0.00000233,-0.00000064,-0.00002
 818,0.00001180,0.00000440,0.00001446,-0.00000953,-0.00000080,0.0000361
 7,-0.00002183,-0.00000552,0.00002247,0.00005101,-0.00002776,0.00001291
 ,0.00001199,-0.00000157,0.00013414,-0.00007979,0.00007006,0.00005293,0
 .00040429,-0.00031215,0.00205240,-0.00143986,-0.00012310,-0.00138179,-
 0.00041309,0.00059483,-0.00066376,-0.00027985,0.00035874,0.00009213,-0
 .00018120,-0.00013575,0.00002059,0.00001234,-0.00000469,-0.00001661,-0
 .00000705,0.00001758,-0.00000103,0.00000324,0.00000062,0.00000303,0.00
 000191,0.00000080,-0.00000120,-0.00000108,-0.00000261,-0.00000332,0.00
 000017,0.00000325,0.00000040,0.00000118,-0.00000206,0.00001598,-0.0000
 0873,-0.00000424,-0.00000071,0.00000104,-0.00000087,-0.00001064,0.0000
 2376,-0.00001893,0.00001181,0.00001534,-0.00002993,0.00001493,-0.00001
 940,0.00000008,-0.00000913,0.00001428,-0.00000423,0.00000662,0.0000292
 0,-0.00001245,-0.00001397,-0.00002849,0.00001392,-0.00000520,0.0000175
 7,-0.00000537,0.00000684,0.00000054,-0.00000341,-0.01062699,0.01499388
 ,-0.00487352,0.11163719,-0.14370950,0.06503354,-0.00187875,-0.00378683
 ,-0.00360545,-0.00000006,0.00000034,-0.00000009,0.00000050,0.00000022,
 -0.00000032,0.00000055,0.00000020,-0.00000018,0.00000019,0.00000021,-0
 .00000004,0.00000057,0.00000014,-0.00000030,-0.00000035,-0.00000025,0.
 00000028,-0.00002962,0.00000589,0.00000080,0.00002620,-0.00000806,0.00
 002713,-0.00000270,0.00000501,-0.00001280,-0.00006990,0.00000104,0.000
 04783,0.00001747,-0.00002930,0.00003067,-0.00014011,-0.00022623,0.0001
 2906,-0.00003275,-0.00002786,0.00004269,0.00000005,-0.00000157,-0.0000
 0397,0.00000011,-0.00000049,-0.00000177,-0.00000042,-0.00000102,0.0000
 0035,-0.00000133,-0.00000015,-0.00000010,0.00000064,-0.00000026,0.0000
 0004,-0.00000011,0.00000087,0.00000025,-0.00000066,0.00000071,-0.00000
 200,0.00000027,-0.00000080,0.00000060,-0.00000106,-0.00000168,0.000002
 38,0.00000004,-0.00000071,0.00000017,0.00000091,-0.00000101,-0.0000012
 5,-0.00000065,0.00000154,0.00000059,0.00000080,-0.00000101,0.00000223,
 0.01609934,-0.01362802,0.00797872,0.00914758,-0.00847760,0.00280431,-0
 .12451547,0.15677923,-0.00000055,-0.00000099,0.00000101,-0.00000069,0.
 00000285,-0.00000166,0.00000199,-0.00000253,0.00000084,-0.00000092,0.0
 0000084,-0.00000055,0.,-0.00000143,0.00000099,0.00000185,0.00000112,-0
 .00000075,-0.00000011,0.00000160,0.00000040,-0.00001414,0.00000234,-0.
 00000207,0.00000662,-0.00000431,0.00000052,0.00001035,-0.00000392,0.00
 000130,-0.00000175,0.00000580,0.00000073,0.00000557,-0.00000417,0.0000
 0173,-0.00000084,0.00000788,0.00001225,-0.00011279,-0.00006947,-0.0000
 9698,0.00013031,-0.00005835,0.00006786,0.00056980,0.00004137,-0.000145
 73,0.00001885,-0.00000240,-0.00014775,0.00006779,-0.00001707,0.0001372
 2,-0.00002019,-0.00002577,-0.00003296,0.00001244,-0.00001370,0.0000046
 2,-0.00000442,0.00000330,0.00000315,0.00000331,0.00000417,-0.00000107,
 -0.00000050,-0.00000475,-0.00000302,-0.00000040,0.00000071,0.00000260,
 -0.00000162,-0.00000249,-0.00000336,-0.00000106,0.00000423,0.00000152,
 0.00000059,-0.00000154,0.00000208,-0.00000484,-0.00000431,-0.00001175,
 0.00000362,0.00002238,-0.00002389,0.00001514,-0.00000887,0.00000078,0.
 00000313,0.00000664,-0.00000480,0.00000391,0.00001516,-0.00000561,-0.0
 0000563,-0.00001052,0.00000588,0.00000048,0.00000651,-0.00000299,0.000
 00363,0.00000055,-0.00000159,-0.00760861,0.00358128,-0.00778398,-0.066
 66538,0.06758482,-0.07562360,-0.00152201,-0.00237018,0.00117482,-0.000
 00005,0.00000019,-0.00000001,0.00000031,0.00000012,-0.00000029,0.00000
 017,0.00000008,-0.00000008,0.00000015,0.00000009,0.00000005,0.00000023
 ,0.00000005,-0.00000007,0.00000008,-0.00000005,0.00000019,-0.00000732,
 0.00000100,-0.00000213,-0.00001495,-0.00002403,-0.00001345,0.00000810,
 -0.00001488,0.00001392,-0.00007262,0.00002882,-0.00004682,0.00001422,0
 .00001720,-0.00000588,0.00006655,-0.00015658,0.00002253,0.00000749,0.0
 0000800,-0.00001632,0.00000171,-0.00000195,0.00000180,-0.00000099,-0.0
 0000118,-0.00000132,0.00000254,-0.00000012,-0.00000162,-0.00000214,0.0
 0000017,-0.00000051,-0.00000066,-0.00000002,0.00000071,-0.00000008,0.0
 0000225,0.00000036,-0.00000003,0.00000076,-0.00000052,0.00000033,-0.00
 000027,0.00000075,-0.00000190,0.00000021,0.00000170,-0.00000041,-0.000
 00054,-0.00000038,0.00000084,0.00000023,-0.00000203,-0.00000030,0.0000
 0028,-0.00000061,-0.00000104,-0.00000346,0.00000245,0.01696687,-0.0138
 1352,0.00776891,-0.01807060,0.01323769,-0.00717178,0.07621056,-0.06796
 730,0.08192427\\-0.00000200,-0.00000891,0.00000464,0.00000020,0.000005
 03,-0.00000650,0.00001312,-0.00000758,0.00000253,-0.00000584,0.0000031
 3,-0.00000031,-0.00000123,-0.00000742,0.00000240,0.00000195,0.00000173
 ,0.00000052,0.00000044,-0.00000751,0.00000449,-0.00000277,0.00000856,0
 .00000064,-0.00000266,-0.00000821,-0.00000161,0.00000199,-0.00000521,-
 0.00000064,-0.00000626,0.00000675,0.00000556,0.00000018,-0.00000702,-0
 .00000311,0.00000034,-0.00000772,0.00000080,-0.00000050,0.00000645,-0.
 00000135,-0.00000085,-0.00001500,-0.00000589,0.00000425,0.00000013,0.0
 0000561,-0.00000569,0.00000082,0.00000516,0.00001342,-0.00000537,0.000
 01480,-0.00001039,0.00000234,-0.00000914,0.00000985,-0.00000240,-0.000
 00975,-0.00000149,0.00000305,-0.00000036,0.00000258,0.00000211,0.00000
 108,0.00000377,-0.00000427,0.00000148,0.00000292,0.00000236,-0.0000043
 0,0.00000018,0.00000193,-0.00000239,0.00001319,-0.00001781,0.00000715,
 0.00000566,0.00000442,-0.00000306,-0.00001441,0.00001335,-0.00000033,-
 0.00000512,0.00000918,-0.00000841,0.00000033,-0.00001189,0.00000658,-0
 .00000070,0.00000822,-0.00000209,0.00000054,0.00000045,-0.00000115,0.0
 0000405,0.00000277,0.00000454,-0.00000050,-0.00000544,-0.00000128,-0.0
 0000306,-0.00000153,-0.00000282,-0.00000858,0.00000689,0.00000867,0.00
 001857,-0.00000873,-0.00000615,-0.00000438,0.00000289,0.00000002,0.000
 00252,-0.00000089,-0.00000136,0.00000268,-0.00000231,-0.00000226,0.000
 00327,-0.00000173,-0.00000058,0.00000231,-0.00000249,-0.00000042,0.000
 00106,-0.00000289,0.00000118,-0.00000021,-0.00000248,0.00000064,0.0000
 0180,0.00000227,0.00000367,-0.00000351,-0.00000113,0.00000252,0.000000
 03,0.00000108,-0.00000219,0.00000117,0.00000453,-0.00000015,0.00000109
 ,0.00000239,0.00000022,-0.00000052,0.00000298,0.00000017,0.00000081,0.
 00000539,-0.00000409,-0.00000108,0.00000209,0.00000420,-0.00000004,0.0
 0000011,0.00000008,-0.00000043,0.00000197,-0.00000065,-0.00000288,0.00
 000179,0.00000061,0.00000117,0.00000372,-0.00000185,-0.00000134,0.0000
 0187,-0.00000302,-0.00000006,0.00000166,-0.00000253,0.00000423,-0.0000
 0275,-0.00000173,-0.00000425,0.00000313,-0.00000150,-0.00000034,0.0000
 0201,0.00000107,0.00000116,0.00000290,-0.00000090,-0.00000419,0.000002
 30,-0.00000253,-0.00000447,-0.00000039,-0.00000336,-0.00000785,0.00000
 653,0.00000269,-0.00000787,0.00000187,0.00000195,-0.00000539,0.0000059
 6,0.00000413\\\@


 YOU CAN WIPE THE SLATE CLEAN, BUT YOU'LL STILL
 HAVE TO EAT A LITTLE CHALK DUST.
 Job cpu time:       7 days 15 hours 25 minutes  1.0 seconds.
 Elapsed time:       0 days 22 hours 58 minutes 52.5 seconds.
 File lengths (MBytes):  RWF=  19375 Int=      0 D2E=      0 Chk=    138 Scr=      1
 Normal termination of Gaussian 16 at Mon Feb 12 05:07:23 2024.
