 Entering Gaussian System, Link 0=g16
 Input=220-rad.com
 Output=220-rad.log
 Initial command:
 /sysapps/ubuntu-applications/gaussian/Gaussian/AVX2/g16/l1.exe "/scratch/selhajj1/4222411/Gau-3798265.inp" -scrdir="/scratch/selhajj1/4222411/"
 Entering Link 1 = /sysapps/ubuntu-applications/gaussian/Gaussian/AVX2/g16/l1.exe PID=   3798293.
  
 Copyright (c) 1988,1990,1992,1993,1995,1998,2003,2009,2016,
            Gaussian, Inc.  All Rights Reserved.
  
 This is part of the Gaussian(R) 16 program.  It is based on
 the Gaussian(R) 09 system (copyright 2009, Gaussian, Inc.),
 the Gaussian(R) 03 system (copyright 2003, Gaussian, Inc.),
 the Gaussian(R) 98 system (copyright 1998, Gaussian, Inc.),
 the Gaussian(R) 94 system (copyright 1995, Gaussian, Inc.),
 the Gaussian 92(TM) system (copyright 1992, Gaussian, Inc.),
 the Gaussian 90(TM) system (copyright 1990, Gaussian, Inc.),
 the Gaussian 88(TM) system (copyright 1988, Gaussian, Inc.),
 the Gaussian 86(TM) system (copyright 1986, Carnegie Mellon
 University), and the Gaussian 82(TM) system (copyright 1983,
 Carnegie Mellon University). Gaussian is a federally registered
 trademark of Gaussian, Inc.
  
 This software contains proprietary and confidential information,
 including trade secrets, belonging to Gaussian, Inc.
  
 This software is provided under written license and may be
 used, copied, transmitted, or stored only in accord with that
 written license.
  
 The following legend is applicable only to US Government
 contracts under FAR:
  
                    RESTRICTED RIGHTS LEGEND
  
 Use, reproduction and disclosure by the US Government is
 subject to restrictions as set forth in subparagraphs (a)
 and (c) of the Commercial Computer Software - Restricted
 Rights clause in FAR 52.227-19.
  
 Gaussian, Inc.
 340 Quinnipiac St., Bldg. 40, Wallingford CT 06492
  
  
 ---------------------------------------------------------------
 Warning -- This program may not be used in any manner that
 competes with the business of Gaussian, Inc. or will provide
 assistance to any competitor of Gaussian, Inc.  The licensee
 of this program is prohibited from giving any competitor of
 Gaussian, Inc. access to this program.  By using this program,
 the user acknowledges that Gaussian, Inc. is engaged in the
 business of creating and licensing software in the field of
 computational chemistry and represents and warrants to the
 licensee that it is not a competitor of Gaussian, Inc. and that
 it will not use this program in any manner prohibited above.
 ---------------------------------------------------------------
  

 Cite this work as:
 Gaussian 16, Revision A.03,
 M. J. Frisch, G. W. Trucks, H. B. Schlegel, G. E. Scuseria, 
 M. A. Robb, J. R. Cheeseman, G. Scalmani, V. Barone, 
 G. A. Petersson, H. Nakatsuji, X. Li, M. Caricato, A. V. Marenich, 
 J. Bloino, B. G. Janesko, R. Gomperts, B. Mennucci, H. P. Hratchian, 
 J. V. Ortiz, A. F. Izmaylov, J. L. Sonnenberg, D. Williams-Young, 
 F. Ding, F. Lipparini, F. Egidi, J. Goings, B. Peng, A. Petrone, 
 T. Henderson, D. Ranasinghe, V. G. Zakrzewski, J. Gao, N. Rega, 
 G. Zheng, W. Liang, M. Hada, M. Ehara, K. Toyota, R. Fukuda, 
 J. Hasegawa, M. Ishida, T. Nakajima, Y. Honda, O. Kitao, H. Nakai, 
 T. Vreven, K. Throssell, J. A. Montgomery, Jr., J. E. Peralta, 
 F. Ogliaro, M. J. Bearpark, J. J. Heyd, E. N. Brothers, K. N. Kudin, 
 V. N. Staroverov, T. A. Keith, R. Kobayashi, J. Normand, 
 K. Raghavachari, A. P. Rendell, J. C. Burant, S. S. Iyengar, 
 J. Tomasi, M. Cossi, J. M. Millam, M. Klene, C. Adamo, R. Cammi, 
 J. W. Ochterski, R. L. Martin, K. Morokuma, O. Farkas, 
 J. B. Foresman, and D. J. Fox, Gaussian, Inc., Wallingford CT, 2016.
 
 ******************************************
 Gaussian 16:  ES64L-G16RevA.03 25-Dec-2016
                21-Dec-2023 
 ******************************************
 %chk=220-rad.chk
 %nproc=8
 Will use up to    8 processors via shared memory.
 %mem=30GB
 --------------------------------------
 #P UB3LYP/6-311++G(d,p) nosym opt freq
 --------------------------------------
 1/18=20,19=15,26=3,38=1/1,3;
 2/9=110,12=2,15=1,17=6,18=5,40=1/2;
 3/5=4,6=6,7=1111,11=2,25=1,30=1,71=1,74=-5,116=2/1,2,3;
 4//1;
 5/5=2,38=5/2;
 6/7=2,8=2,9=2,10=2,28=1/1;
 7/30=1/1,2,3,16;
 1/18=20,19=15,26=3/3(2);
 2/9=110,15=1/2;
 99//99;
 2/9=110,15=1/2;
 3/5=4,6=6,7=1111,11=2,25=1,30=1,71=1,74=-5,116=2/1,2,3;
 4/5=5,16=3,69=1/1;
 5/5=2,38=5/2;
 7/30=1/1,2,3,16;
 1/18=20,19=15,26=3/3(-5);
 2/9=110,15=1/2;
 6/7=2,8=2,9=2,10=2,19=2,28=1/1;
 99/9=1/99;
 Leave Link    1 at Thu Dec 21 18:53:20 2023, MaxMem=  4026531840 cpu:               0.7 elap:               0.1
 (Enter /sysapps/ubuntu-applications/gaussian/Gaussian/AVX2/g16/l101.exe)
 -------
 Radical
 -------
 Symbolic Z-matrix:
 Charge = -1 Multiplicity = 2
 C                     4.94753  -2.57018   0.32203 
 C                     5.74224  -1.70452  -0.4372 
 C                     5.14094  -0.73598  -1.2438 
 C                     3.54407  -2.47331   0.27969 
 C                     2.93961  -1.49341  -0.53668 
 C                     3.75007  -0.6288   -1.29466 
 C                     2.69797  -3.39264   1.0834 
 C                     1.21739  -3.28551   1.0263 
 C                     0.61347  -2.30571   0.20953 
 C                     1.45927  -1.38371  -0.59096 
 C                     0.40673  -4.15489   1.77957 
 C                    -0.7895   -2.21427   0.16151 
 C                    -1.58201  -3.08338   0.91341 
 O                     3.22152  -4.24096   1.79228 
 O                     0.93567  -0.53398  -1.29813 
 H                     5.42483  -3.31812   0.94256 
 H                    -2.6601   -3.00005   0.86314 
 H                     3.30876   0.13019  -1.92843 
 H                     0.85503  -4.91252   2.41016 
 H                    -1.275    -1.47113  -0.45859 
 C                    -0.98686  -4.05384   1.72345 
 S                     7.52981  -1.83352  -0.38589 
 S                    -2.00386  -5.17293   2.68668 
 O                    -2.39581  -6.44986   1.92798 
 O                    -3.37078  -4.5664    3.04029 
 N                    -1.34922  -5.72311   4.2326 
 H                    -0.64438  -6.46827   4.03517 
 H                    -2.12703  -6.15424   4.78079 
 O                     8.05213  -2.62692   0.82217 
 O                     8.09413  -2.63371  -1.56974 
 N                     8.44341  -0.3212   -0.37303 
 H                     5.75078  -0.06405  -1.83436 
 H                     9.39987  -0.51097  -0.745 
 H                     8.53705  -0.00753   0.61776 
 
 ITRead=  0  0  0  0  0  0  0  0  0  0  0  0  0  0  0  0  0  0  0  0
 ITRead=  0  0  0  0  0  0  0  0  0  0  0  0  0  0
 MicOpt= -1 -1 -1 -1 -1 -1 -1 -1 -1 -1 -1 -1 -1 -1 -1 -1 -1 -1 -1 -1
 MicOpt= -1 -1 -1 -1 -1 -1 -1 -1 -1 -1 -1 -1 -1 -1
 NAtoms=     34 NQM=       34 NQMF=       0 NMMI=      0 NMMIF=      0
                NMic=       0 NMicF=      0.
                    Isotopes and Nuclear Properties:
 (Nuclear quadrupole moments (NQMom) in fm**2, nuclear magnetic moments (NMagM)
  in nuclear magnetons)

  Atom         1           2           3           4           5           6           7           8           9          10
 IAtWgt=          12          12          12          12          12          12          12          12          12          12
 AtmWgt=  12.0000000  12.0000000  12.0000000  12.0000000  12.0000000  12.0000000  12.0000000  12.0000000  12.0000000  12.0000000
 NucSpn=           0           0           0           0           0           0           0           0           0           0
 AtZEff=  -0.0000000  -0.0000000  -0.0000000  -0.0000000  -0.0000000  -0.0000000  -0.0000000  -0.0000000  -0.0000000  -0.0000000
 NQMom=    0.0000000   0.0000000   0.0000000   0.0000000   0.0000000   0.0000000   0.0000000   0.0000000   0.0000000   0.0000000
 NMagM=    0.0000000   0.0000000   0.0000000   0.0000000   0.0000000   0.0000000   0.0000000   0.0000000   0.0000000   0.0000000
 AtZNuc=   6.0000000   6.0000000   6.0000000   6.0000000   6.0000000   6.0000000   6.0000000   6.0000000   6.0000000   6.0000000

  Atom        11          12          13          14          15          16          17          18          19          20
 IAtWgt=          12          12          12          16          16           1           1           1           1           1
 AtmWgt=  12.0000000  12.0000000  12.0000000  15.9949146  15.9949146   1.0078250   1.0078250   1.0078250   1.0078250   1.0078250
 NucSpn=           0           0           0           0           0           1           1           1           1           1
 AtZEff=  -0.0000000  -0.0000000  -0.0000000  -0.0000000  -0.0000000  -0.0000000  -0.0000000  -0.0000000  -0.0000000  -0.0000000
 NQMom=    0.0000000   0.0000000   0.0000000   0.0000000   0.0000000   0.0000000   0.0000000   0.0000000   0.0000000   0.0000000
 NMagM=    0.0000000   0.0000000   0.0000000   0.0000000   0.0000000   2.7928460   2.7928460   2.7928460   2.7928460   2.7928460
 AtZNuc=   6.0000000   6.0000000   6.0000000   8.0000000   8.0000000   1.0000000   1.0000000   1.0000000   1.0000000   1.0000000

  Atom        21          22          23          24          25          26          27          28          29          30
 IAtWgt=          12          32          32          16          16          14           1           1          16          16
 AtmWgt=  12.0000000  31.9720718  31.9720718  15.9949146  15.9949146  14.0030740   1.0078250   1.0078250  15.9949146  15.9949146
 NucSpn=           0           0           0           0           0           2           1           1           0           0
 AtZEff=  -0.0000000  -0.0000000  -0.0000000  -0.0000000  -0.0000000  -0.0000000  -0.0000000  -0.0000000  -0.0000000  -0.0000000
 NQMom=    0.0000000   0.0000000   0.0000000   0.0000000   0.0000000   2.0440000   0.0000000   0.0000000   0.0000000   0.0000000
 NMagM=    0.0000000   0.0000000   0.0000000   0.0000000   0.0000000   0.4037610   2.7928460   2.7928460   0.0000000   0.0000000
 AtZNuc=   6.0000000  16.0000000  16.0000000   8.0000000   8.0000000   7.0000000   1.0000000   1.0000000   8.0000000   8.0000000

  Atom        31          32          33          34
 IAtWgt=          14           1           1           1
 AtmWgt=  14.0030740   1.0078250   1.0078250   1.0078250
 NucSpn=           2           1           1           1
 AtZEff=  -0.0000000  -0.0000000  -0.0000000  -0.0000000
 NQMom=    2.0440000   0.0000000   0.0000000   0.0000000
 NMagM=    0.4037610   2.7928460   2.7928460   2.7928460
 AtZNuc=   7.0000000   1.0000000   1.0000000   1.0000000
 Leave Link  101 at Thu Dec 21 18:53:21 2023, MaxMem=  4026531840 cpu:               4.1 elap:               0.9
 (Enter /sysapps/ubuntu-applications/gaussian/Gaussian/AVX2/g16/l103.exe)

 GradGradGradGradGradGradGradGradGradGradGradGradGradGradGradGradGradGrad
 Berny optimization.
 Initialization pass.
                           ----------------------------
                           !    Initial Parameters    !
                           ! (Angstroms and Degrees)  !
 --------------------------                            --------------------------
 ! Name  Definition              Value          Derivative Info.                !
 --------------------------------------------------------------------------------
 ! R1    R(1,2)                  1.3991         estimate D2E/DX2                !
 ! R2    R(1,4)                  1.4074         estimate D2E/DX2                !
 ! R3    R(1,16)                 1.0827         estimate D2E/DX2                !
 ! R4    R(2,3)                  1.3965         estimate D2E/DX2                !
 ! R5    R(2,22)                 1.793          estimate D2E/DX2                !
 ! R6    R(3,6)                  1.3959         estimate D2E/DX2                !
 ! R7    R(3,32)                 1.0827         estimate D2E/DX2                !
 ! R8    R(4,5)                  1.4114         estimate D2E/DX2                !
 ! R9    R(4,7)                  1.4856         estimate D2E/DX2                !
 ! R10   R(5,6)                  1.4067         estimate D2E/DX2                !
 ! R11   R(5,10)                 1.4854         estimate D2E/DX2                !
 ! R12   R(6,18)                 1.0828         estimate D2E/DX2                !
 ! R13   R(7,8)                  1.4855         estimate D2E/DX2                !
 ! R14   R(7,14)                 1.2232         estimate D2E/DX2                !
 ! R15   R(8,9)                  1.4113         estimate D2E/DX2                !
 ! R16   R(8,11)                 1.4073         estimate D2E/DX2                !
 ! R17   R(9,10)                 1.4853         estimate D2E/DX2                !
 ! R18   R(9,12)                 1.4068         estimate D2E/DX2                !
 ! R19   R(10,15)                1.2232         estimate D2E/DX2                !
 ! R20   R(11,19)                1.0829         estimate D2E/DX2                !
 ! R21   R(11,21)                1.3984         estimate D2E/DX2                !
 ! R22   R(12,13)                1.396          estimate D2E/DX2                !
 ! R23   R(12,20)                1.0828         estimate D2E/DX2                !
 ! R24   R(13,17)                1.0825         estimate D2E/DX2                !
 ! R25   R(13,21)                1.3972         estimate D2E/DX2                !
 ! R26   R(21,23)                1.7929         estimate D2E/DX2                !
 ! R27   R(22,29)                1.5368         estimate D2E/DX2                !
 ! R28   R(22,30)                1.5363         estimate D2E/DX2                !
 ! R29   R(22,31)                1.7669         estimate D2E/DX2                !
 ! R30   R(23,24)                1.5362         estimate D2E/DX2                !
 ! R31   R(23,25)                1.5367         estimate D2E/DX2                !
 ! R32   R(23,26)                1.7667         estimate D2E/DX2                !
 ! R33   R(26,27)                1.0445         estimate D2E/DX2                !
 ! R34   R(26,28)                1.0447         estimate D2E/DX2                !
 ! R35   R(31,33)                1.0436         estimate D2E/DX2                !
 ! R36   R(31,34)                1.0435         estimate D2E/DX2                !
 ! A1    A(2,1,4)              120.4985         estimate D2E/DX2                !
 ! A2    A(2,1,16)             119.2116         estimate D2E/DX2                !
 ! A3    A(4,1,16)             120.2899         estimate D2E/DX2                !
 ! A4    A(1,2,3)              119.8668         estimate D2E/DX2                !
 ! A5    A(1,2,22)             120.4163         estimate D2E/DX2                !
 ! A6    A(3,2,22)             119.7166         estimate D2E/DX2                !
 ! A7    A(2,3,6)              120.2193         estimate D2E/DX2                !
 ! A8    A(2,3,32)             120.1957         estimate D2E/DX2                !
 ! A9    A(6,3,32)             119.585          estimate D2E/DX2                !
 ! A10   A(1,4,5)              119.4884         estimate D2E/DX2                !
 ! A11   A(1,4,7)              120.6011         estimate D2E/DX2                !
 ! A12   A(5,4,7)              119.9104         estimate D2E/DX2                !
 ! A13   A(4,5,6)              119.4483         estimate D2E/DX2                !
 ! A14   A(4,5,10)             119.9488         estimate D2E/DX2                !
 ! A15   A(6,5,10)             120.6029         estimate D2E/DX2                !
 ! A16   A(3,6,5)              120.4787         estimate D2E/DX2                !
 ! A17   A(3,6,18)             118.7657         estimate D2E/DX2                !
 ! A18   A(5,6,18)             120.7556         estimate D2E/DX2                !
 ! A19   A(4,7,8)              120.1462         estimate D2E/DX2                !
 ! A20   A(4,7,14)             119.9286         estimate D2E/DX2                !
 ! A21   A(8,7,14)             119.925          estimate D2E/DX2                !
 ! A22   A(7,8,9)              119.9198         estimate D2E/DX2                !
 ! A23   A(7,8,11)             120.5972         estimate D2E/DX2                !
 ! A24   A(9,8,11)             119.4829         estimate D2E/DX2                !
 ! A25   A(8,9,10)             119.9446         estimate D2E/DX2                !
 ! A26   A(8,9,12)             119.4481         estimate D2E/DX2                !
 ! A27   A(10,9,12)            120.6072         estimate D2E/DX2                !
 ! A28   A(5,10,9)             120.1296         estimate D2E/DX2                !
 ! A29   A(5,10,15)            119.9352         estimate D2E/DX2                !
 ! A30   A(9,10,15)            119.935          estimate D2E/DX2                !
 ! A31   A(8,11,19)            120.3612         estimate D2E/DX2                !
 ! A32   A(8,11,21)            120.5278         estimate D2E/DX2                !
 ! A33   A(19,11,21)           119.1109         estimate D2E/DX2                !
 ! A34   A(9,12,13)            120.4855         estimate D2E/DX2                !
 ! A35   A(9,12,20)            120.7515         estimate D2E/DX2                !
 ! A36   A(13,12,20)           118.7629         estimate D2E/DX2                !
 ! A37   A(12,13,17)           119.5029         estimate D2E/DX2                !
 ! A38   A(12,13,21)           120.1904         estimate D2E/DX2                !
 ! A39   A(17,13,21)           120.3067         estimate D2E/DX2                !
 ! A40   A(11,21,13)           119.8652         estimate D2E/DX2                !
 ! A41   A(11,21,23)           119.9096         estimate D2E/DX2                !
 ! A42   A(13,21,23)           120.2249         estimate D2E/DX2                !
 ! A43   A(2,22,29)            113.4844         estimate D2E/DX2                !
 ! A44   A(2,22,30)            112.4353         estimate D2E/DX2                !
 ! A45   A(2,22,31)            117.0094         estimate D2E/DX2                !
 ! A46   A(29,22,30)           102.2397         estimate D2E/DX2                !
 ! A47   A(29,22,31)           105.0953         estimate D2E/DX2                !
 ! A48   A(30,22,31)           105.1582         estimate D2E/DX2                !
 ! A49   A(21,23,24)           113.4679         estimate D2E/DX2                !
 ! A50   A(21,23,25)           112.4476         estimate D2E/DX2                !
 ! A51   A(21,23,26)           117.0207         estimate D2E/DX2                !
 ! A52   A(24,23,25)           102.4028         estimate D2E/DX2                !
 ! A53   A(24,23,26)           105.5368         estimate D2E/DX2                !
 ! A54   A(25,23,26)           104.547          estimate D2E/DX2                !
 ! A55   A(23,26,27)           107.8674         estimate D2E/DX2                !
 ! A56   A(23,26,28)           108.168          estimate D2E/DX2                !
 ! A57   A(27,26,28)           107.8895         estimate D2E/DX2                !
 ! A58   A(22,31,33)           108.3995         estimate D2E/DX2                !
 ! A59   A(22,31,34)           108.0956         estimate D2E/DX2                !
 ! A60   A(33,31,34)           108.1098         estimate D2E/DX2                !
 ! D1    D(4,1,2,3)              0.0107         estimate D2E/DX2                !
 ! D2    D(4,1,2,22)          -179.7913         estimate D2E/DX2                !
 ! D3    D(16,1,2,3)           179.9085         estimate D2E/DX2                !
 ! D4    D(16,1,2,22)            0.1066         estimate D2E/DX2                !
 ! D5    D(2,1,4,5)             -0.0036         estimate D2E/DX2                !
 ! D6    D(2,1,4,7)            179.9095         estimate D2E/DX2                !
 ! D7    D(16,1,4,5)          -179.9003         estimate D2E/DX2                !
 ! D8    D(16,1,4,7)             0.0128         estimate D2E/DX2                !
 ! D9    D(1,2,3,6)              0.0114         estimate D2E/DX2                !
 ! D10   D(1,2,3,32)          -179.9327         estimate D2E/DX2                !
 ! D11   D(22,2,3,6)           179.8147         estimate D2E/DX2                !
 ! D12   D(22,2,3,32)           -0.1294         estimate D2E/DX2                !
 ! D13   D(1,2,22,29)          -17.4054         estimate D2E/DX2                !
 ! D14   D(1,2,22,30)           98.0288         estimate D2E/DX2                !
 ! D15   D(1,2,22,31)         -140.1012         estimate D2E/DX2                !
 ! D16   D(3,2,22,29)          162.7924         estimate D2E/DX2                !
 ! D17   D(3,2,22,30)          -81.7734         estimate D2E/DX2                !
 ! D18   D(3,2,22,31)           40.0966         estimate D2E/DX2                !
 ! D19   D(2,3,6,5)             -0.0407         estimate D2E/DX2                !
 ! D20   D(2,3,6,18)          -179.9625         estimate D2E/DX2                !
 ! D21   D(32,3,6,5)           179.9038         estimate D2E/DX2                !
 ! D22   D(32,3,6,18)           -0.018          estimate D2E/DX2                !
 ! D23   D(1,4,5,6)             -0.0252         estimate D2E/DX2                !
 ! D24   D(1,4,5,10)           179.8908         estimate D2E/DX2                !
 ! D25   D(7,4,5,6)           -179.9389         estimate D2E/DX2                !
 ! D26   D(7,4,5,10)            -0.0229         estimate D2E/DX2                !
 ! D27   D(1,4,7,8)           -179.7196         estimate D2E/DX2                !
 ! D28   D(1,4,7,14)             0.1753         estimate D2E/DX2                !
 ! D29   D(5,4,7,8)              0.1932         estimate D2E/DX2                !
 ! D30   D(5,4,7,14)          -179.9119         estimate D2E/DX2                !
 ! D31   D(4,5,6,3)              0.0474         estimate D2E/DX2                !
 ! D32   D(4,5,6,18)           179.9676         estimate D2E/DX2                !
 ! D33   D(10,5,6,3)          -179.868          estimate D2E/DX2                !
 ! D34   D(10,5,6,18)            0.0522         estimate D2E/DX2                !
 ! D35   D(4,5,10,9)            -0.1633         estimate D2E/DX2                !
 ! D36   D(4,5,10,15)          179.9684         estimate D2E/DX2                !
 ! D37   D(6,5,10,9)           179.7517         estimate D2E/DX2                !
 ! D38   D(6,5,10,15)           -0.1166         estimate D2E/DX2                !
 ! D39   D(4,7,8,9)             -0.1764         estimate D2E/DX2                !
 ! D40   D(4,7,8,11)           179.7476         estimate D2E/DX2                !
 ! D41   D(14,7,8,9)           179.9288         estimate D2E/DX2                !
 ! D42   D(14,7,8,11)           -0.1473         estimate D2E/DX2                !
 ! D43   D(7,8,9,10)            -0.0099         estimate D2E/DX2                !
 ! D44   D(7,8,9,12)           179.9125         estimate D2E/DX2                !
 ! D45   D(11,8,9,10)         -179.9347         estimate D2E/DX2                !
 ! D46   D(11,8,9,12)           -0.0123         estimate D2E/DX2                !
 ! D47   D(7,8,11,19)            0.0115         estimate D2E/DX2                !
 ! D48   D(7,8,11,21)         -179.9203         estimate D2E/DX2                !
 ! D49   D(9,8,11,19)          179.9357         estimate D2E/DX2                !
 ! D50   D(9,8,11,21)            0.0039         estimate D2E/DX2                !
 ! D51   D(8,9,10,5)             0.1801         estimate D2E/DX2                !
 ! D52   D(8,9,10,15)         -179.9515         estimate D2E/DX2                !
 ! D53   D(12,9,10,5)         -179.7414         estimate D2E/DX2                !
 ! D54   D(12,9,10,15)           0.127          estimate D2E/DX2                !
 ! D55   D(8,9,12,13)           -0.0152         estimate D2E/DX2                !
 ! D56   D(8,9,12,20)         -179.9442         estimate D2E/DX2                !
 ! D57   D(10,9,12,13)         179.9067         estimate D2E/DX2                !
 ! D58   D(10,9,12,20)          -0.0223         estimate D2E/DX2                !
 ! D59   D(8,11,21,13)           0.0319         estimate D2E/DX2                !
 ! D60   D(8,11,21,23)         179.8357         estimate D2E/DX2                !
 ! D61   D(19,11,21,13)       -179.9008         estimate D2E/DX2                !
 ! D62   D(19,11,21,23)         -0.097          estimate D2E/DX2                !
 ! D63   D(9,12,13,17)        -179.8925         estimate D2E/DX2                !
 ! D64   D(9,12,13,21)           0.0513         estimate D2E/DX2                !
 ! D65   D(20,12,13,17)          0.038          estimate D2E/DX2                !
 ! D66   D(20,12,13,21)        179.9817         estimate D2E/DX2                !
 ! D67   D(12,13,21,11)         -0.0594         estimate D2E/DX2                !
 ! D68   D(12,13,21,23)       -179.8626         estimate D2E/DX2                !
 ! D69   D(17,13,21,11)        179.8839         estimate D2E/DX2                !
 ! D70   D(17,13,21,23)          0.0806         estimate D2E/DX2                !
 ! D71   D(11,21,23,24)        -91.1138         estimate D2E/DX2                !
 ! D72   D(11,21,23,25)        153.2464         estimate D2E/DX2                !
 ! D73   D(11,21,23,26)         32.1982         estimate D2E/DX2                !
 ! D74   D(13,21,23,24)         88.6893         estimate D2E/DX2                !
 ! D75   D(13,21,23,25)        -26.9504         estimate D2E/DX2                !
 ! D76   D(13,21,23,26)       -147.9987         estimate D2E/DX2                !
 ! D77   D(2,22,31,33)        -156.1591         estimate D2E/DX2                !
 ! D78   D(2,22,31,34)          86.8834         estimate D2E/DX2                !
 ! D79   D(29,22,31,33)         76.9165         estimate D2E/DX2                !
 ! D80   D(29,22,31,34)        -40.041          estimate D2E/DX2                !
 ! D81   D(30,22,31,33)        -30.5752         estimate D2E/DX2                !
 ! D82   D(30,22,31,34)       -147.5327         estimate D2E/DX2                !
 ! D83   D(21,23,26,27)        -77.8524         estimate D2E/DX2                !
 ! D84   D(21,23,26,28)        165.6941         estimate D2E/DX2                !
 ! D85   D(24,23,26,27)         49.4318         estimate D2E/DX2                !
 ! D86   D(24,23,26,28)        -67.0217         estimate D2E/DX2                !
 ! D87   D(25,23,26,27)        157.0369         estimate D2E/DX2                !
 ! D88   D(25,23,26,28)         40.5834         estimate D2E/DX2                !
 --------------------------------------------------------------------------------
 Trust Radius=3.00D-01 FncErr=1.00D-07 GrdErr=1.00D-06 EigMax=2.50D+02 EigMin=1.00D-04
 Number of steps in this run=    194 maximum allowed number of steps=    204.
 GradGradGradGradGradGradGradGradGradGradGradGradGradGradGradGradGradGrad

 Leave Link  103 at Thu Dec 21 18:53:21 2023, MaxMem=  4026531840 cpu:               0.3 elap:               0.1
 (Enter /sysapps/ubuntu-applications/gaussian/Gaussian/AVX2/g16/l202.exe)
                          Input orientation:                          
 ---------------------------------------------------------------------
 Center     Atomic      Atomic             Coordinates (Angstroms)
 Number     Number       Type             X           Y           Z
 ---------------------------------------------------------------------
      1          6           0        4.947530   -2.570180    0.322030
      2          6           0        5.742240   -1.704520   -0.437200
      3          6           0        5.140940   -0.735980   -1.243800
      4          6           0        3.544070   -2.473310    0.279690
      5          6           0        2.939610   -1.493410   -0.536680
      6          6           0        3.750070   -0.628800   -1.294660
      7          6           0        2.697970   -3.392640    1.083400
      8          6           0        1.217390   -3.285510    1.026300
      9          6           0        0.613470   -2.305710    0.209530
     10          6           0        1.459270   -1.383710   -0.590960
     11          6           0        0.406730   -4.154890    1.779570
     12          6           0       -0.789500   -2.214270    0.161510
     13          6           0       -1.582010   -3.083380    0.913410
     14          8           0        3.221520   -4.240960    1.792280
     15          8           0        0.935670   -0.533980   -1.298130
     16          1           0        5.424830   -3.318120    0.942560
     17          1           0       -2.660100   -3.000050    0.863140
     18          1           0        3.308760    0.130190   -1.928430
     19          1           0        0.855030   -4.912520    2.410160
     20          1           0       -1.275000   -1.471130   -0.458590
     21          6           0       -0.986860   -4.053840    1.723450
     22         16           0        7.529810   -1.833520   -0.385890
     23         16           0       -2.003860   -5.172930    2.686680
     24          8           0       -2.395810   -6.449860    1.927980
     25          8           0       -3.370780   -4.566400    3.040290
     26          7           0       -1.349220   -5.723110    4.232600
     27          1           0       -0.644380   -6.468270    4.035170
     28          1           0       -2.127030   -6.154240    4.780790
     29          8           0        8.052130   -2.626920    0.822170
     30          8           0        8.094130   -2.633710   -1.569740
     31          7           0        8.443410   -0.321200   -0.373030
     32          1           0        5.750780   -0.064050   -1.834360
     33          1           0        9.399870   -0.510970   -0.745000
     34          1           0        8.537050   -0.007530    0.617760
 ---------------------------------------------------------------------
                    Distance matrix (angstroms):
                    1          2          3          4          5
     1  C    0.000000
     2  C    1.399057   0.000000
     3  C    2.419405   1.396508   0.000000
     4  C    1.407436   2.436580   2.808795   0.000000
     5  C    2.434863   2.812330   2.433017   1.411395   0.000000
     6  C    2.795810   2.420982   1.395920   2.433769   1.406744
     7  C    2.513294   3.798625   4.294392   1.485598   2.508012
     8  C    3.862854   5.011550   5.200741   2.574983   2.936081
     9  C    4.343579   5.204226   5.007415   2.936227   2.574410
    10  C    3.795948   4.297720   3.794792   2.508316   1.485391
    11  C    5.025395   6.275831   6.575900   3.862674   4.343267
    12  C    5.750300   6.578900   6.271392   4.342913   3.861783
    13  C    6.576321   7.574301   7.440558   5.201008   5.007576
    14  O    2.816425   4.214041   5.018649   2.348734   3.612833
    15  O    4.781846   5.021402   4.210469   3.613069   2.348635
    16  H    1.082722   2.146670   3.395322   2.165724   3.419654
    17  H    7.638954   8.600500   8.391748   6.253766   5.965418
    18  H    3.878419   3.392897   2.139124   3.421897   2.170096
    19  H    5.157073   6.502580   7.011700   4.209464   4.971886
    20  H    6.366880   7.021153   6.505481   4.977234   4.215392
    21  C    6.275525   7.447718   7.573817   5.011172   5.203956
    22  S    2.777047   1.792953   2.765376   4.091265   4.605252
    23  S    7.790231   9.043813   9.283500   6.622770   6.954625
    24  O    8.459056   9.712888   9.975531   7.335665   7.688150
    25  O    8.975974  10.165158  10.270098   7.734151   7.877754
    26  N    8.054973   9.393876   9.848076   7.080324   7.683128
    27  H    7.762214   9.136976   9.705493   6.899743   7.648270
    28  H    9.098100  10.438048  10.884696   8.122224   8.698831
    29  O    3.145139   2.787907   4.039667   4.543180   5.410100
    30  O    3.672046   2.770817   3.525471   4.914180   5.379273
    31  N    4.214522   3.035459   3.440435   5.390840   5.629625
    32  H    3.402340   2.154825   1.082661   3.891441   3.410238
    33  H    5.020182   3.859736   4.293939   6.260284   6.537855
    34  H    4.420326   3.435648   3.940762   5.578908   5.905244
                    6          7          8          9         10
     6  C    0.000000
     7  C    3.794851   0.000000
     8  C    4.342745   1.485549   0.000000
     9  C    3.861719   2.508028   1.411326   0.000000
    10  C    2.512538   2.893728   2.508162   1.485344   0.000000
    11  C    5.749967   2.513058   1.407269   2.434591   3.795615
    12  C    5.024126   3.794850   2.433726   1.406767   2.512570
    13  C    6.271492   4.294504   2.808957   2.433177   3.794917
    14  O    4.780822   1.223218   2.348648   3.612785   4.116945
    15  O    2.815999   4.116956   3.612929   2.348591   1.223228
    16  H    3.878455   2.731511   4.208400   4.971065   4.671112
    17  H    7.167231   5.376947   3.891406   3.409630   4.657915
    18  H    1.082813   4.674881   4.977074   4.215337   2.738856
    19  H    6.360598   2.732536   2.166457   3.420027   4.671651
    20  H    5.163319   4.674872   3.421824   2.170075   2.738868
    21  C    6.578632   3.798002   2.436199   2.812289   4.297632
    22  S    4.069846   5.285484   6.629419   6.957963   6.090635
    23  S    8.343135   5.277039   4.086033   4.605175   6.090516
    24  O    9.057703   6.000542   4.886855   5.402112   6.846355
    25  O    9.219707   6.483584   5.171860   5.384995   6.829705
    26  N    9.083246   5.632788   4.775954   5.631684   7.069989
    27  H    9.045313   5.416987   4.759144   5.791771   7.188823
    28  H   10.098608   6.676657   5.788864   6.574035   8.029645
    29  O    5.194340   5.414942   6.869431   7.470754   6.856261
    30  O    4.792305   6.060831   7.379283   7.696341   6.822161
    31  N    4.792855   6.675703   7.934773   8.098495   7.067859
    32  H    2.147803   5.377033   6.254023   5.966111   4.658820
    33  H    5.677698   7.520807   8.819782   9.018483   7.989902
    34  H    5.192158   6.765401   8.030534   8.260230   7.310940
                   11         12         13         14         15
    11  C    0.000000
    12  C    2.795548   0.000000
    13  C    2.419391   1.395986   0.000000
    14  O    2.816134   4.780708   5.018596   0.000000
    15  O    4.781527   2.816050   4.210589   5.340173   0.000000
    16  H    5.155783   6.359750   7.010832   2.535396   5.738004
    17  H    3.402785   2.146830   1.082474   6.082484   4.866431
    18  H    6.366550   5.163340   6.505591   5.740927   2.543611
    19  H    1.082876   3.878332   3.394875   2.536345   5.738426
    20  H    3.878162   1.082816   2.139156   5.740825   2.543647
    21  C    1.398375   2.421286   1.397198   4.213100   5.021502
    22  S    7.798477   8.345989   9.288466   5.394586   6.782600
    23  S    2.769512   4.074902   2.772844   5.382668   6.785234
    24  O    3.625347   4.862188   3.608990   6.037553   7.516926
    25  O    4.003541   4.525803   3.150026   6.717281   7.323101
    26  N    3.400004   5.403612   4.247280   5.389211   7.920654
    27  H    3.397689   5.755243   4.699151   4.993661   8.133661
    28  H    4.407342   6.216920   4.968285   6.418631   8.827271
    29  O    7.855154   8.875876   9.645379   5.184692   7.714925
    30  O    8.522205   9.060466   9.999796   6.134228   7.464997
    31  N    9.160736   9.440131  10.478245   6.879042   7.567512
    32  H    7.639001   7.168138   8.392640   6.082454   4.867613
    33  H   10.026374  10.370451  11.400408   7.650008   8.482285
    34  H    9.200679   9.594915  10.580342   6.896107   7.856765
                   16         17         18         19         20
    16  H    0.000000
    17  H    8.091574   0.000000
    18  H    4.960965   7.295105   0.000000
    19  H    5.057572   4.290332   7.090351   0.000000
    20  H    7.089592   2.450116   5.073018   4.960839   0.000000
    21  C    6.500834   2.156464   7.021017   2.145102   3.393334
    22  S    2.898233  10.332238   4.904370   7.864530   8.812564
    23  S    7.852879   2.911590   8.811711   2.884013   4.911953
    24  O    8.481819   3.620072   9.524236   3.628205   5.633798
    25  O    9.128057   2.774617   9.558368   4.286529   5.120073
    26  N    7.905447   4.526226   9.691037   2.972720   6.331833
    27  H    7.504865   5.114045   9.733012   2.703562   6.750035
    28  H    8.933430   5.057772  10.679677   4.006799   7.078741
    29  O    2.719367  10.718805   6.137346   7.716471   9.485333
    30  O    3.728972  11.032070   5.537831   8.569548   9.506148
    31  N    4.452430  11.488790   5.384018   9.295691   9.786580
    32  H    4.290280   9.308034   2.451538   8.092712   7.296177
    33  H    5.150621  12.418716   6.238046  10.116470  10.721790
    34  H    4.555372  11.592737   5.816964   9.288975   9.978827
                   21         22         23         24         25
    21  C    0.000000
    22  S    9.050569   0.000000
    23  S    1.792892  10.558561   0.000000
    24  O    2.787092  11.188500   1.536164   0.000000
    25  O    2.771256  11.748626   1.536681   2.394832   0.000000
    26  N    3.035391  10.737622   1.766669   2.633399   2.616541
    27  H    3.360181  10.384800   2.311821   2.740090   3.469892
    28  H    3.880592  11.773604   2.315910   2.880652   2.664112
    29  O    9.195202   1.536786  10.539521  11.180212  11.796801
    30  O    9.763516   1.536314  11.248740  11.697687  12.507271
    31  N   10.356535   1.766902  11.918329  12.662694  13.009518
    32  H    8.600711   2.897246  10.328354  11.013660  11.279904
    33  H   11.248526   2.318453  12.788876  13.474172  13.923521
    34  H   10.406730   2.314322  11.919420  12.757261  12.978766
                   26         27         28         29         30
    26  N    0.000000
    27  H    1.044529   0.000000
    28  H    1.044688   1.689028   0.000000
    29  O   10.469136  10.035369  11.477280   0.000000
    30  O   11.506016  11.067087  12.537762   2.392288   0.000000
    31  N   12.094960  11.823985  13.127087   2.626394   2.627130
    32  H   10.919843  10.787191  11.954519   4.349904   3.487759
    33  H   12.941632  12.618495  13.973198   2.957984   2.625105
    34  H   11.978032  11.735353  12.993670   2.671729   3.446470
                   31         32         33         34
    31  N    0.000000
    32  H    3.074389   0.000000
    33  H    1.043643   3.834358   0.000000
    34  H    1.043466   3.712060   1.689682   0.000000
 Symmetry turned off by external request.
 Stoichiometry    C14H10N2O6S2(1-,2)
 Framework group  C1[X(C14H10N2O6S2)]
 Deg. of freedom    96
 Full point group                 C1      NOp   1
 Rotational constants (GHZ):           0.5419276           0.0796691           0.0714630
 Leave Link  202 at Thu Dec 21 18:53:21 2023, MaxMem=  4026531840 cpu:               0.5 elap:               0.1
 (Enter /sysapps/ubuntu-applications/gaussian/Gaussian/AVX2/g16/l301.exe)
 Standard basis: 6-311++G(d,p) (5D, 7F)
 Ernie: Thresh=  0.10000D-02 Tol=  0.10000D-05 Strict=F.
   614 basis functions,   982 primitive gaussians,   638 cartesian basis functions
    95 alpha electrons       94 beta electrons
       nuclear repulsion energy      2245.8985924297 Hartrees.
 IExCor=  402 DFT=T Ex+Corr=B3LYP ExCW=0 ScaHFX=  0.200000
 ScaDFX=  0.800000  0.720000  1.000000  0.810000 ScalE2=  1.000000  1.000000
 IRadAn=      5 IRanWt=     -1 IRanGd=            0 ICorTp=0 IEmpDi=  4
 NAtoms=   34 NActive=   34 NUniq=   34 SFac= 1.00D+00 NAtFMM=   60 NAOKFM=F Big=F
 Integral buffers will be    131072 words long.
 Raffenetti 2 integral format.
 Two-electron integral symmetry is turned off.
 Leave Link  301 at Thu Dec 21 18:53:21 2023, MaxMem=  4026531840 cpu:               0.9 elap:               0.3
 (Enter /sysapps/ubuntu-applications/gaussian/Gaussian/AVX2/g16/l302.exe)
 NPDir=0 NMtPBC=     1 NCelOv=     1 NCel=       1 NClECP=     1 NCelD=      1
         NCelK=      1 NCelE2=     1 NClLst=     1 CellRange=     0.0.
 One-electron integrals computed using PRISM.
 NBasis=   614 RedAO= T EigKep=  1.14D-06  NBF=   614
 NBsUse=   606 1.00D-06 EigRej=  7.14D-07 NBFU=   606
 Precomputing XC quadrature grid using
 IXCGrd= 4 IRadAn=           5 IRanWt=          -1 IRanGd=           0 AccXCQ= 0.00D+00.
 Generated NRdTot=       0 NPtTot=           0 NUsed=           0 NTot=          32
 NSgBfM=   616   616   616   616   616 MxSgAt=    34 MxSgA2=    34.
 Leave Link  302 at Thu Dec 21 18:53:23 2023, MaxMem=  4026531840 cpu:              10.3 elap:               1.5
 (Enter /sysapps/ubuntu-applications/gaussian/Gaussian/AVX2/g16/l303.exe)
 DipDrv:  MaxL=1.
 Leave Link  303 at Thu Dec 21 18:53:23 2023, MaxMem=  4026531840 cpu:               1.8 elap:               0.4
 (Enter /sysapps/ubuntu-applications/gaussian/Gaussian/AVX2/g16/l401.exe)
 ExpMin= 3.60D-02 ExpMax= 9.34D+04 ExpMxC= 3.17D+03 IAcc=3 IRadAn=         5 AccDes= 0.00D+00
 Harris functional with IExCor=  402 and IRadAn=       5 diagonalized for initial guess.
 HarFok:  IExCor=  402 AccDes= 0.00D+00 IRadAn=         5 IDoV= 1 UseB2=F ITyADJ=14
 ICtDFT=  3500011 ScaDFX=  1.000000  1.000000  1.000000  1.000000
 FoFCou: FMM=F IPFlag=           0 FMFlag=      100000 FMFlg1=           0
         NFxFlg=           0 DoJE=T BraDBF=F KetDBF=T FulRan=T
         wScrn=  0.000000 ICntrl=       500 IOpCl=  0 I1Cent=   200000004 NGrid=           0
         NMat0=    1 NMatS0=      1 NMatT0=    0 NMatD0=    1 NMtDS0=    0 NMtDT0=    0
 Symmetry not used in FoFCou.
 Harris En= -1897.27618021183    
 JPrj=0 DoOrth=F DoCkMO=F.
 Initial guess <Sx>= 0.0000 <Sy>= 0.0000 <Sz>= 0.5000 <S**2>= 0.7500 S= 0.5000
 Leave Link  401 at Thu Dec 21 18:53:28 2023, MaxMem=  4026531840 cpu:              38.0 elap:               4.9
 (Enter /sysapps/ubuntu-applications/gaussian/Gaussian/AVX2/g16/l502.exe)
 Two-electron integral symmetry not used.
 UHF open shell SCF:
 Using DIIS extrapolation, IDIIS=  1040.
 NGot=  4026531840 LenX=  4025708232 LenY=  4025300550
 Requested convergence on RMS density matrix=1.00D-08 within 128 cycles.
 Requested convergence on MAX density matrix=1.00D-06.
 Requested convergence on             energy=1.00D-06.
 No special actions if energy rises.
 Fock matrices will be formed incrementally for  20 cycles.

 Cycle   1  Pass 1  IDiag  1:
 FoFJK:  IHMeth= 1 ICntrl=       0 DoSepK=F KAlg= 0 I1Cent=           0 FoldK=F
 IRaf= 750000000 NMat=       1 IRICut=       1 DoRegI=T DoRafI=F ISym2E= 0 IDoP0=0 IntGTp=1.
 FoFCou: FMM=F IPFlag=           0 FMFlag=      100000 FMFlg1=           0
         NFxFlg=           0 DoJE=F BraDBF=F KetDBF=F FulRan=T
         wScrn=  0.000000 ICntrl=         0 IOpCl=  1 I1Cent=           0 NGrid=           0
         NMat0=    1 NMatS0=      1 NMatT0=    0 NMatD0=    1 NMtDS0=    0 NMtDT0=    0
 Symmetry not used in FoFCou.
 E= -1895.83554319990    
 DIIS: error= 5.00D-02 at cycle   1 NSaved=   1.
 NSaved= 1 IEnMin= 1 EnMin= -1895.83554319990     IErMin= 1 ErrMin= 5.00D-02
 ErrMax= 5.00D-02  0.00D+00 EMaxC= 1.00D-01 BMatC= 6.22D+00 BMatP= 6.22D+00
 IDIUse=3 WtCom= 5.00D-01 WtEn= 5.00D-01
 Coeff-Com:  0.100D+01
 Coeff-En:   0.100D+01
 Coeff:      0.100D+01
 Gap=     0.042 Goal=   None    Shift=    0.000
 Gap=     0.214 Goal=   None    Shift=    0.000
 GapD=    0.042 DampG=0.250 DampE=0.500 DampFc=0.2500 IDamp=-1.
 Damping current iteration by 2.50D-01
 RMSDP=2.24D-01 MaxDP=2.63D+01              OVMax= 8.71D-01

 Cycle   2  Pass 1  IDiag  1:
 RMSU=  4.36D-02    CP:  1.49D+00
 E= -1895.96182675442     Delta-E=       -0.126283554519 Rises=F Damp=T
 DIIS: error= 1.22D-02 at cycle   2 NSaved=   2.
 NSaved= 2 IEnMin= 2 EnMin= -1895.96182675442     IErMin= 2 ErrMin= 1.22D-02
 ErrMax= 1.22D-02  0.00D+00 EMaxC= 1.00D-01 BMatC= 8.86D-01 BMatP= 6.22D+00
 IDIUse=3 WtCom= 8.78D-01 WtEn= 1.22D-01
 Coeff-Com: -0.134D+00 0.113D+01
 Coeff-En:   0.417D+00 0.583D+00
 Coeff:     -0.665D-01 0.107D+01
 Gap=    -0.094 Goal=   None    Shift=    0.000
 Gap=    -0.257 Goal=   None    Shift=    0.000
 RMSDP=3.28D-02 MaxDP=3.27D+00 DE=-1.26D-01 OVMax= 8.98D-01

 Cycle   3  Pass 1  IDiag  1:
 RMSU=  2.13D-02    CP:  1.37D+00  4.63D-01
 E= -1895.94848654167     Delta-E=        0.013340212749 Rises=F Damp=F
 DIIS: error= 4.04D-02 at cycle   3 NSaved=   3.
 NSaved= 3 IEnMin= 2 EnMin= -1895.96182675442     IErMin= 2 ErrMin= 1.22D-02
 ErrMax= 4.04D-02  0.00D+00 EMaxC= 1.00D-01 BMatC= 3.66D+00 BMatP= 8.86D-01
 IDIUse=2 WtCom= 0.00D+00 WtEn= 1.00D+00
 EnCoef did     2 forward-backward iterations
 Coeff-En:   0.103D+00 0.439D+00 0.458D+00
 Coeff:      0.103D+00 0.439D+00 0.458D+00
 Gap=     0.292 Goal=   None    Shift=    0.000
 Gap=     0.220 Goal=   None    Shift=    0.000
 RMSDP=4.50D-02 MaxDP=1.04D+01 DE= 1.33D-02 OVMax= 9.77D-01

 Cycle   4  Pass 1  IDiag  1:
 RMSU=  2.85D-02    CP:  1.55D+00  1.11D+00  2.25D-01
 E= -1893.13142159240     Delta-E=        2.817064949275 Rises=F Damp=F
 DIIS: error= 1.05D-01 at cycle   4 NSaved=   4.
 NSaved= 4 IEnMin= 2 EnMin= -1895.96182675442     IErMin= 2 ErrMin= 1.22D-02
 ErrMax= 1.05D-01  0.00D+00 EMaxC= 1.00D-01 BMatC= 1.03D+01 BMatP= 8.86D-01
 IDIUse=2 WtCom= 0.00D+00 WtEn= 1.00D+00
 EnCoef did     2 forward-backward iterations
 Coeff-En:   0.168D+00 0.000D+00 0.577D+00 0.255D+00
 Coeff:      0.168D+00 0.000D+00 0.577D+00 0.255D+00
 Gap=     0.037 Goal=   None    Shift=    0.000
 Gap=    -0.046 Goal=   None    Shift=    0.000
 RMSDP=2.97D-02 MaxDP=5.40D+00 DE= 2.82D+00 OVMax= 9.49D-01

 Cycle   5  Pass 1  IDiag  1:
 RMSU=  1.53D-02    CP:  1.43D+00  7.51D-01  3.71D-01  3.61D-01
 E= -1896.66151209812     Delta-E=       -3.530090505722 Rises=F Damp=F
 DIIS: error= 2.89D-02 at cycle   5 NSaved=   5.
 NSaved= 5 IEnMin= 5 EnMin= -1896.66151209812     IErMin= 2 ErrMin= 1.22D-02
 ErrMax= 2.89D-02  0.00D+00 EMaxC= 1.00D-01 BMatC= 1.27D+00 BMatP= 8.86D-01
 IDIUse=2 WtCom= 0.00D+00 WtEn= 1.00D+00
 Coeff-En:   0.000D+00 0.000D+00 0.241D+00 0.000D+00 0.759D+00
 Coeff:      0.000D+00 0.000D+00 0.241D+00 0.000D+00 0.759D+00
 Gap=     0.058 Goal=   None    Shift=    0.000
 Gap=     0.375 Goal=   None    Shift=    0.000
 RMSDP=3.73D-02 MaxDP=7.27D+00 DE=-3.53D+00 OVMax= 9.12D-01

 Cycle   6  Pass 1  IDiag  1:
 RMSU=  1.61D-02    CP:  1.15D+00  5.11D-01  5.77D-01  2.13D-01 -5.89D-01
 E= -1894.10469618009     Delta-E=        2.556815918031 Rises=F Damp=F
 DIIS: error= 9.67D-02 at cycle   6 NSaved=   6.
 NSaved= 6 IEnMin= 5 EnMin= -1896.66151209812     IErMin= 2 ErrMin= 1.22D-02
 ErrMax= 9.67D-02  0.00D+00 EMaxC= 1.00D-01 BMatC= 8.37D+00 BMatP= 8.86D-01
 IDIUse=2 WtCom= 0.00D+00 WtEn= 1.00D+00
 EnCoef did     3 forward-backward iterations
 Coeff-En:   0.000D+00 0.000D+00 0.227D+00 0.000D+00 0.683D+00 0.897D-01
 Coeff:      0.000D+00 0.000D+00 0.227D+00 0.000D+00 0.683D+00 0.897D-01
 Gap=    -0.089 Goal=   None    Shift=    0.000
 Gap=     0.008 Goal=   None    Shift=    0.000
 RMSDP=1.99D-02 MaxDP=3.10D+00 DE= 2.56D+00 OVMax= 9.89D-01

 Cycle   7  Pass 1  IDiag  1:
 RMSU=  8.53D-03    CP:  1.19D+00  4.41D-01  5.27D-01 -3.92D-02  1.34D-01
                    CP:  2.80D-01
 E= -1896.76879894496     Delta-E=       -2.664102764867 Rises=F Damp=F
 DIIS: error= 2.27D-02 at cycle   7 NSaved=   7.
 NSaved= 7 IEnMin= 7 EnMin= -1896.76879894496     IErMin= 2 ErrMin= 1.22D-02
 ErrMax= 2.27D-02  0.00D+00 EMaxC= 1.00D-01 BMatC= 9.82D-01 BMatP= 8.86D-01
 IDIUse=2 WtCom= 0.00D+00 WtEn= 1.00D+00
 Coeff-En:   0.000D+00 0.000D+00 0.000D+00 0.000D+00 0.427D+00 0.000D+00
 Coeff-En:   0.573D+00
 Coeff:      0.000D+00 0.000D+00 0.000D+00 0.000D+00 0.427D+00 0.000D+00
 Coeff:      0.573D+00
 Gap=     0.070 Goal=   None    Shift=    0.000
 Gap=     0.168 Goal=   None    Shift=    0.000
 RMSDP=1.58D-02 MaxDP=2.57D+00 DE=-2.66D+00 OVMax= 3.26D-01

 Cycle   8  Pass 1  IDiag  1:
 RMSU=  4.90D-03    CP:  1.30D+00  6.56D-01  4.98D-01  8.62D-02  5.38D-01
                    CP:  1.33D-01  4.84D-01
 E= -1896.95091516544     Delta-E=       -0.182116220487 Rises=F Damp=F
 DIIS: error= 9.68D-03 at cycle   8 NSaved=   8.
 NSaved= 8 IEnMin= 8 EnMin= -1896.95091516544     IErMin= 8 ErrMin= 9.68D-03
 ErrMax= 9.68D-03  0.00D+00 EMaxC= 1.00D-01 BMatC= 1.59D-01 BMatP= 8.86D-01
 IDIUse=3 WtCom= 9.03D-01 WtEn= 9.68D-02
 Coeff-Com:  0.192D-01-0.110D-01-0.334D-01 0.195D-01 0.162D+00-0.167D-01
 Coeff-Com:  0.342D+00 0.519D+00
 Coeff-En:   0.000D+00 0.000D+00 0.000D+00 0.000D+00 0.000D+00 0.000D+00
 Coeff-En:   0.113D+00 0.887D+00
 Coeff:      0.173D-01-0.996D-02-0.302D-01 0.176D-01 0.146D+00-0.150D-01
 Coeff:      0.319D+00 0.555D+00
 Gap=     0.055 Goal=   None    Shift=    0.000
 Gap=     0.163 Goal=   None    Shift=    0.000
 RMSDP=6.25D-03 MaxDP=8.68D-01 DE=-1.82D-01 OVMax= 1.03D-01

 Cycle   9  Pass 1  IDiag  1:
 RMSU=  1.80D-03    CP:  1.25D+00  5.70D-01  4.39D-01  7.03D-02  4.53D-01
                    CP:  1.97D-01  6.21D-01  5.85D-01
 E= -1896.98054067970     Delta-E=       -0.029625514260 Rises=F Damp=F
 DIIS: error= 3.02D-03 at cycle   9 NSaved=   9.
 NSaved= 9 IEnMin= 9 EnMin= -1896.98054067970     IErMin= 9 ErrMin= 3.02D-03
 ErrMax= 3.02D-03  0.00D+00 EMaxC= 1.00D-01 BMatC= 1.96D-02 BMatP= 1.59D-01
 IDIUse=3 WtCom= 9.70D-01 WtEn= 3.02D-02
 Coeff-Com:  0.146D-01-0.103D-01-0.355D-01 0.500D-02 0.177D-01-0.341D-02
 Coeff-Com:  0.968D-01 0.381D+00 0.534D+00
 Coeff-En:   0.000D+00 0.000D+00 0.000D+00 0.000D+00 0.000D+00 0.000D+00
 Coeff-En:   0.000D+00 0.120D+00 0.880D+00
 Coeff:      0.141D-01-0.100D-01-0.344D-01 0.484D-02 0.172D-01-0.330D-02
 Coeff:      0.938D-01 0.373D+00 0.544D+00
 Gap=     0.063 Goal=   None    Shift=    0.000
 Gap=     0.146 Goal=   None    Shift=    0.000
 RMSDP=1.67D-03 MaxDP=1.99D-01 DE=-2.96D-02 OVMax= 3.59D-02

 Cycle  10  Pass 1  IDiag  1:
 RMSU=  8.12D-04    CP:  1.26D+00  5.82D-01  4.48D-01  7.09D-02  4.86D-01
                    CP:  1.73D-01  5.81D-01  7.19D-01  5.63D-01
 E= -1896.98440651152     Delta-E=       -0.003865831814 Rises=F Damp=F
 DIIS: error= 1.16D-03 at cycle  10 NSaved=  10.
 NSaved=10 IEnMin=10 EnMin= -1896.98440651152     IErMin=10 ErrMin= 1.16D-03
 ErrMax= 1.16D-03  0.00D+00 EMaxC= 1.00D-01 BMatC= 2.44D-03 BMatP= 1.96D-02
 IDIUse=3 WtCom= 9.88D-01 WtEn= 1.16D-02
 Coeff-Com:  0.195D-02 0.127D-02-0.103D-01 0.161D-02-0.598D-02 0.278D-03
 Coeff-Com:  0.131D-01 0.131D+00 0.341D+00 0.526D+00
 Coeff-En:   0.000D+00 0.000D+00 0.000D+00 0.000D+00 0.000D+00 0.000D+00
 Coeff-En:   0.000D+00 0.000D+00 0.102D+00 0.898D+00
 Coeff:      0.193D-02 0.126D-02-0.102D-01 0.159D-02-0.591D-02 0.275D-03
 Coeff:      0.130D-01 0.129D+00 0.338D+00 0.530D+00
 Gap=     0.063 Goal=   None    Shift=    0.000
 Gap=     0.146 Goal=   None    Shift=    0.000
 RMSDP=5.59D-04 MaxDP=6.50D-02 DE=-3.87D-03 OVMax= 1.46D-02

 Cycle  11  Pass 1  IDiag  1:
 RMSU=  3.55D-04    CP:  1.26D+00  5.85D-01  4.51D-01  6.85D-02  4.75D-01
                    CP:  1.84D-01  5.98D-01  7.19D-01  6.70D-01  7.45D-01
 E= -1896.98498026911     Delta-E=       -0.000573757597 Rises=F Damp=F
 DIIS: error= 3.36D-04 at cycle  11 NSaved=  11.
 NSaved=11 IEnMin=11 EnMin= -1896.98498026911     IErMin=11 ErrMin= 3.36D-04
 ErrMax= 3.36D-04  0.00D+00 EMaxC= 1.00D-01 BMatC= 2.61D-04 BMatP= 2.44D-03
 IDIUse=3 WtCom= 9.97D-01 WtEn= 3.36D-03
 Coeff-Com: -0.379D-02 0.600D-02 0.217D-03-0.281D-03-0.477D-02 0.453D-03
 Coeff-Com: -0.504D-02-0.322D-03 0.933D-01 0.285D+00 0.629D+00
 Coeff-En:   0.000D+00 0.000D+00 0.000D+00 0.000D+00 0.000D+00 0.000D+00
 Coeff-En:   0.000D+00 0.000D+00 0.000D+00 0.000D+00 0.100D+01
 Coeff:     -0.377D-02 0.598D-02 0.216D-03-0.280D-03-0.476D-02 0.451D-03
 Coeff:     -0.502D-02-0.321D-03 0.930D-01 0.284D+00 0.630D+00
 Gap=     0.064 Goal=   None    Shift=    0.000
 Gap=     0.145 Goal=   None    Shift=    0.000
 RMSDP=2.26D-04 MaxDP=2.93D-02 DE=-5.74D-04 OVMax= 5.24D-03

 Cycle  12  Pass 1  IDiag  1:
 RMSU=  1.38D-04    CP:  1.26D+00  5.83D-01  4.50D-01  6.61D-02  4.73D-01
                    CP:  1.83D-01  6.04D-01  7.23D-01  6.82D-01  7.46D-01
                    CP:  8.12D-01
 E= -1896.98505897933     Delta-E=       -0.000078710214 Rises=F Damp=F
 DIIS: error= 1.43D-04 at cycle  12 NSaved=  12.
 NSaved=12 IEnMin=12 EnMin= -1896.98505897933     IErMin=12 ErrMin= 1.43D-04
 ErrMax= 1.43D-04  0.00D+00 EMaxC= 1.00D-01 BMatC= 5.65D-05 BMatP= 2.61D-04
 IDIUse=3 WtCom= 9.99D-01 WtEn= 1.43D-03
 Coeff-Com: -0.313D-02 0.395D-02 0.244D-02-0.109D-03-0.734D-03-0.952D-04
 Coeff-Com: -0.523D-02-0.276D-01-0.143D-01 0.651D-01 0.328D+00 0.652D+00
 Coeff-En:   0.000D+00 0.000D+00 0.000D+00 0.000D+00 0.000D+00 0.000D+00
 Coeff-En:   0.000D+00 0.000D+00 0.000D+00 0.000D+00 0.000D+00 0.100D+01
 Coeff:     -0.313D-02 0.394D-02 0.244D-02-0.109D-03-0.733D-03-0.951D-04
 Coeff:     -0.522D-02-0.276D-01-0.143D-01 0.650D-01 0.328D+00 0.652D+00
 Gap=     0.064 Goal=   None    Shift=    0.000
 Gap=     0.146 Goal=   None    Shift=    0.000
 RMSDP=1.30D-04 MaxDP=1.18D-02 DE=-7.87D-05 OVMax= 3.00D-03

 Cycle  13  Pass 1  IDiag  1:
 RMSU=  9.66D-05    CP:  1.26D+00  5.83D-01  4.49D-01  6.67D-02  4.74D-01
                    CP:  1.83D-01  6.00D-01  7.30D-01  6.97D-01  7.95D-01
                    CP:  8.97D-01  7.78D-01
 E= -1896.98507908523     Delta-E=       -0.000020105905 Rises=F Damp=F
 DIIS: error= 1.55D-04 at cycle  13 NSaved=  13.
 NSaved=13 IEnMin=13 EnMin= -1896.98507908523     IErMin=12 ErrMin= 1.43D-04
 ErrMax= 1.55D-04  0.00D+00 EMaxC= 1.00D-01 BMatC= 2.42D-05 BMatP= 5.65D-05
 IDIUse=3 WtCom= 9.99D-01 WtEn= 1.43D-03
 Coeff-Com: -0.846D-03 0.651D-03 0.147D-02 0.132D-03 0.146D-02-0.289D-03
 Coeff-Com: -0.258D-02-0.186D-01-0.454D-01-0.574D-01-0.153D-01 0.435D+00
 Coeff-Com:  0.702D+00
 Coeff-En:   0.000D+00 0.000D+00 0.000D+00 0.000D+00 0.000D+00 0.000D+00
 Coeff-En:   0.000D+00 0.000D+00 0.000D+00 0.000D+00 0.000D+00 0.000D+00
 Coeff-En:   0.100D+01
 Coeff:     -0.844D-03 0.650D-03 0.147D-02 0.132D-03 0.146D-02-0.288D-03
 Coeff:     -0.258D-02-0.186D-01-0.453D-01-0.574D-01-0.153D-01 0.434D+00
 Coeff:      0.702D+00
 Gap=     0.064 Goal=   None    Shift=    0.000
 Gap=     0.146 Goal=   None    Shift=    0.000
 RMSDP=1.00D-04 MaxDP=8.20D-03 DE=-2.01D-05 OVMax= 2.18D-03

 Cycle  14  Pass 1  IDiag  1:
 RMSU=  6.15D-05    CP:  1.26D+00  5.84D-01  4.50D-01  6.61D-02  4.73D-01
                    CP:  1.84D-01  6.01D-01  7.29D-01  6.99D-01  8.11D-01
                    CP:  9.47D-01  1.13D+00  6.77D-01
 E= -1896.98508857859     Delta-E=       -0.000009493353 Rises=F Damp=F
 DIIS: error= 4.91D-05 at cycle  14 NSaved=  14.
 NSaved=14 IEnMin=14 EnMin= -1896.98508857859     IErMin=14 ErrMin= 4.91D-05
 ErrMax= 4.91D-05  0.00D+00 EMaxC= 1.00D-01 BMatC= 7.94D-06 BMatP= 2.42D-05
 IDIUse=1 WtCom= 1.00D+00 WtEn= 0.00D+00
 Coeff-Com:  0.347D-03-0.667D-03 0.298D-03-0.221D-05 0.122D-02-0.155D-04
 Coeff-Com: -0.891D-03-0.499D-02-0.289D-01-0.609D-01-0.102D+00 0.994D-01
 Coeff-Com:  0.500D+00 0.597D+00
 Coeff:      0.347D-03-0.667D-03 0.298D-03-0.221D-05 0.122D-02-0.155D-04
 Coeff:     -0.891D-03-0.499D-02-0.289D-01-0.609D-01-0.102D+00 0.994D-01
 Coeff:      0.500D+00 0.597D+00
 Gap=     0.064 Goal=   None    Shift=    0.000
 Gap=     0.146 Goal=   None    Shift=    0.000
 RMSDP=5.52D-05 MaxDP=5.56D-03 DE=-9.49D-06 OVMax= 1.08D-03

 Cycle  15  Pass 1  IDiag  1:
 RMSU=  2.18D-05    CP:  1.26D+00  5.84D-01  4.50D-01  6.63D-02  4.74D-01
                    CP:  1.83D-01  6.00D-01  7.33D-01  7.02D-01  8.27D-01
                    CP:  9.90D-01  1.08D+00  1.01D+00  8.01D-01
 E= -1896.98509101235     Delta-E=       -0.000002433766 Rises=F Damp=F
 DIIS: error= 2.44D-05 at cycle  15 NSaved=  15.
 NSaved=15 IEnMin=15 EnMin= -1896.98509101235     IErMin=15 ErrMin= 2.44D-05
 ErrMax= 2.44D-05  0.00D+00 EMaxC= 1.00D-01 BMatC= 1.60D-06 BMatP= 7.94D-06
 IDIUse=1 WtCom= 1.00D+00 WtEn= 0.00D+00
 Coeff-Com:  0.439D-03-0.616D-03 0.378D-05-0.248D-04 0.410D-03 0.544D-04
 Coeff-Com: -0.121D-03 0.436D-03-0.772D-02-0.242D-01-0.503D-01-0.287D-01
 Coeff-Com:  0.156D+00 0.371D+00 0.583D+00
 Coeff:      0.439D-03-0.616D-03 0.378D-05-0.248D-04 0.410D-03 0.544D-04
 Coeff:     -0.121D-03 0.436D-03-0.772D-02-0.242D-01-0.503D-01-0.287D-01
 Coeff:      0.156D+00 0.371D+00 0.583D+00
 Gap=     0.064 Goal=   None    Shift=    0.000
 Gap=     0.146 Goal=   None    Shift=    0.000
 RMSDP=2.03D-05 MaxDP=1.67D-03 DE=-2.43D-06 OVMax= 6.48D-04

 Cycle  16  Pass 1  IDiag  1:
 RMSU=  1.17D-05    CP:  1.26D+00  5.84D-01  4.50D-01  6.62D-02  4.73D-01
                    CP:  1.83D-01  6.00D-01  7.33D-01  7.04D-01  8.17D-01
                    CP:  9.98D-01  1.13D+00  9.78D-01  9.14D-01  8.23D-01
 E= -1896.98509138722     Delta-E=       -0.000000374872 Rises=F Damp=F
 DIIS: error= 1.95D-05 at cycle  16 NSaved=  16.
 NSaved=16 IEnMin=16 EnMin= -1896.98509138722     IErMin=16 ErrMin= 1.95D-05
 ErrMax= 1.95D-05  0.00D+00 EMaxC= 1.00D-01 BMatC= 4.60D-07 BMatP= 1.60D-06
 IDIUse=1 WtCom= 1.00D+00 WtEn= 0.00D+00
 Coeff-Com:  0.299D-03-0.382D-03-0.493D-04 0.169D-04-0.328D-04-0.112D-04
 Coeff-Com:  0.282D-03 0.168D-02 0.217D-02-0.138D-02-0.863D-02-0.438D-01
 Coeff-Com: -0.154D-01 0.115D+00 0.372D+00 0.578D+00
 Coeff:      0.299D-03-0.382D-03-0.493D-04 0.169D-04-0.328D-04-0.112D-04
 Coeff:      0.282D-03 0.168D-02 0.217D-02-0.138D-02-0.863D-02-0.438D-01
 Coeff:     -0.154D-01 0.115D+00 0.372D+00 0.578D+00
 Gap=     0.065 Goal=   None    Shift=    0.000
 Gap=     0.146 Goal=   None    Shift=    0.000
 RMSDP=7.51D-06 MaxDP=5.09D-04 DE=-3.75D-07 OVMax= 2.03D-04

 Cycle  17  Pass 1  IDiag  1:
 RMSU=  4.49D-06    CP:  1.26D+00  5.84D-01  4.50D-01  6.63D-02  4.73D-01
                    CP:  1.83D-01  6.00D-01  7.33D-01  7.03D-01  8.19D-01
                    CP:  1.00D+00  1.12D+00  1.01D+00  9.27D-01  8.97D-01
                    CP:  7.69D-01
 E= -1896.98509151014     Delta-E=       -0.000000122913 Rises=F Damp=F
 DIIS: error= 9.12D-06 at cycle  17 NSaved=  17.
 NSaved=17 IEnMin=17 EnMin= -1896.98509151014     IErMin=17 ErrMin= 9.12D-06
 ErrMax= 9.12D-06  0.00D+00 EMaxC= 1.00D-01 BMatC= 9.13D-08 BMatP= 4.60D-07
 IDIUse=1 WtCom= 1.00D+00 WtEn= 0.00D+00
 Coeff-Com:  0.105D-03-0.111D-03-0.124D-04 0.715D-05-0.122D-03-0.139D-04
 Coeff-Com:  0.226D-03 0.108D-02 0.349D-02 0.558D-02 0.695D-02-0.187D-01
 Coeff-Com: -0.494D-01-0.229D-01 0.690D-01 0.289D+00 0.716D+00
 Coeff:      0.105D-03-0.111D-03-0.124D-04 0.715D-05-0.122D-03-0.139D-04
 Coeff:      0.226D-03 0.108D-02 0.349D-02 0.558D-02 0.695D-02-0.187D-01
 Coeff:     -0.494D-01-0.229D-01 0.690D-01 0.289D+00 0.716D+00
 Gap=     0.065 Goal=   None    Shift=    0.000
 Gap=     0.146 Goal=   None    Shift=    0.000
 RMSDP=3.42D-06 MaxDP=4.48D-04 DE=-1.23D-07 OVMax= 2.59D-04

 Cycle  18  Pass 1  IDiag  1:
 RMSU=  2.35D-06    CP:  1.26D+00  5.84D-01  4.50D-01  6.63D-02  4.73D-01
                    CP:  1.83D-01  6.00D-01  7.33D-01  7.03D-01  8.17D-01
                    CP:  1.00D+00  1.12D+00  1.01D+00  9.47D-01  9.27D-01
                    CP:  8.64D-01  9.54D-01
 E= -1896.98509154772     Delta-E=       -0.000000037586 Rises=F Damp=F
 DIIS: error= 5.17D-06 at cycle  18 NSaved=  18.
 NSaved=18 IEnMin=18 EnMin= -1896.98509154772     IErMin=18 ErrMin= 5.17D-06
 ErrMax= 5.17D-06  0.00D+00 EMaxC= 1.00D-01 BMatC= 2.14D-08 BMatP= 9.13D-08
 IDIUse=1 WtCom= 1.00D+00 WtEn= 0.00D+00
 Coeff-Com:  0.138D-04-0.209D-04 0.407D-05-0.538D-05-0.552D-04 0.407D-05
 Coeff-Com:  0.265D-04 0.256D-03 0.136D-02 0.325D-02 0.472D-02 0.579D-03
 Coeff-Com: -0.211D-01-0.352D-01-0.474D-01-0.290D-02 0.411D+00 0.686D+00
 Coeff:      0.138D-04-0.209D-04 0.407D-05-0.538D-05-0.552D-04 0.407D-05
 Coeff:      0.265D-04 0.256D-03 0.136D-02 0.325D-02 0.472D-02 0.579D-03
 Coeff:     -0.211D-01-0.352D-01-0.474D-01-0.290D-02 0.411D+00 0.686D+00
 Gap=     0.065 Goal=   None    Shift=    0.000
 Gap=     0.146 Goal=   None    Shift=    0.000
 RMSDP=2.72D-06 MaxDP=2.55D-04 DE=-3.76D-08 OVMax= 1.38D-04

 Cycle  19  Pass 1  IDiag  1:
 RMSU=  1.49D-06    CP:  1.26D+00  5.84D-01  4.50D-01  6.63D-02  4.73D-01
                    CP:  1.83D-01  6.00D-01  7.33D-01  7.03D-01  8.18D-01
                    CP:  1.00D+00  1.12D+00  1.01D+00  9.43D-01  9.45D-01
                    CP:  9.01D-01  1.16D+00  8.92D-01
 E= -1896.98509155767     Delta-E=       -0.000000009950 Rises=F Damp=F
 DIIS: error= 1.78D-06 at cycle  19 NSaved=  19.
 NSaved=19 IEnMin=19 EnMin= -1896.98509155767     IErMin=19 ErrMin= 1.78D-06
 ErrMax= 1.78D-06  0.00D+00 EMaxC= 1.00D-01 BMatC= 4.68D-09 BMatP= 2.14D-08
 IDIUse=1 WtCom= 1.00D+00 WtEn= 0.00D+00
 Coeff-Com: -0.145D-04 0.147D-04 0.811D-05-0.371D-05 0.146D-05 0.163D-05
 Coeff-Com: -0.251D-04-0.903D-04-0.353D-04 0.518D-03 0.621D-03 0.423D-02
 Coeff-Com: -0.784D-03-0.128D-01-0.375D-01-0.723D-01 0.619D-01 0.384D+00
 Coeff-Com:  0.672D+00
 Coeff:     -0.145D-04 0.147D-04 0.811D-05-0.371D-05 0.146D-05 0.163D-05
 Coeff:     -0.251D-04-0.903D-04-0.353D-04 0.518D-03 0.621D-03 0.423D-02
 Coeff:     -0.784D-03-0.128D-01-0.375D-01-0.723D-01 0.619D-01 0.384D+00
 Coeff:      0.672D+00
 Gap=     0.065 Goal=   None    Shift=    0.000
 Gap=     0.146 Goal=   None    Shift=    0.000
 RMSDP=1.26D-06 MaxDP=1.57D-04 DE=-9.95D-09 OVMax= 9.90D-05

 Cycle  20  Pass 1  IDiag  1:
 RMSU=  7.82D-07    CP:  1.26D+00  5.84D-01  4.50D-01  6.63D-02  4.73D-01
                    CP:  1.83D-01  6.00D-01  7.33D-01  7.03D-01  8.18D-01
                    CP:  1.00D+00  1.12D+00  1.01D+00  9.44D-01  9.51D-01
                    CP:  9.17D-01  1.20D+00  1.12D+00  8.47D-01
 E= -1896.98509156042     Delta-E=       -0.000000002748 Rises=F Damp=F
 DIIS: error= 1.40D-06 at cycle  20 NSaved=  20.
 NSaved=20 IEnMin=20 EnMin= -1896.98509156042     IErMin=20 ErrMin= 1.40D-06
 ErrMax= 1.40D-06  0.00D+00 EMaxC= 1.00D-01 BMatC= 2.45D-09 BMatP= 4.68D-09
 IDIUse=1 WtCom= 1.00D+00 WtEn= 0.00D+00
 Coeff-Com: -0.144D-04 0.189D-04 0.895D-06-0.190D-05 0.214D-04 0.834D-06
 Coeff-Com: -0.342D-04-0.126D-03-0.458D-03-0.768D-03-0.163D-02 0.195D-02
 Coeff-Com:  0.717D-02 0.649D-02-0.494D-02-0.571D-01-0.115D+00 0.261D-01
 Coeff-Com:  0.505D+00 0.634D+00
 Coeff:     -0.144D-04 0.189D-04 0.895D-06-0.190D-05 0.214D-04 0.834D-06
 Coeff:     -0.342D-04-0.126D-03-0.458D-03-0.768D-03-0.163D-02 0.195D-02
 Coeff:      0.717D-02 0.649D-02-0.494D-02-0.571D-01-0.115D+00 0.261D-01
 Coeff:      0.505D+00 0.634D+00
 Gap=     0.065 Goal=   None    Shift=    0.000
 Gap=     0.146 Goal=   None    Shift=    0.000
 RMSDP=9.95D-07 MaxDP=1.68D-04 DE=-2.75D-09 OVMax= 5.95D-05

 Cycle  21  Pass 1  IDiag  1:
 Restarting incremental Fock formation.
 E= -1896.98509156167     Delta-E=       -0.000000001250 Rises=F Damp=F
 DIIS: error= 6.15D-07 at cycle  21 NSaved=  20.
 NSaved=20 IEnMin=20 EnMin= -1896.98509156167     IErMin=20 ErrMin= 6.15D-07
 ErrMax= 6.15D-07  0.00D+00 EMaxC= 1.00D-01 BMatC= 6.25D-10 BMatP= 2.45D-09
 IDIUse=1 WtCom= 1.00D+00 WtEn= 0.00D+00
 Coeff-Com: -0.598D-05 0.895D-05-0.311D-05 0.138D-04 0.323D-06-0.155D-04
 Coeff-Com: -0.502D-04-0.264D-03-0.541D-03-0.113D-02-0.375D-03 0.415D-02
 Coeff-Com:  0.836D-02 0.925D-02-0.174D-01-0.808D-01-0.889D-01 0.105D+00
 Coeff-Com:  0.342D+00 0.720D+00
 Coeff:     -0.598D-05 0.895D-05-0.311D-05 0.138D-04 0.323D-06-0.155D-04
 Coeff:     -0.502D-04-0.264D-03-0.541D-03-0.113D-02-0.375D-03 0.415D-02
 Coeff:      0.836D-02 0.925D-02-0.174D-01-0.808D-01-0.889D-01 0.105D+00
 Coeff:      0.342D+00 0.720D+00
 Gap=     0.065 Goal=   None    Shift=    0.000
 Gap=     0.146 Goal=   None    Shift=    0.000
 RMSDP=4.64D-07 MaxDP=4.98D-05 DE=-1.25D-09 OVMax= 3.48D-05

 Cycle  22  Pass 1  IDiag  1:
 RMSU=  4.55D-07    CP:  1.00D+00
 E= -1896.98509156205     Delta-E=       -0.000000000380 Rises=F Damp=F
 DIIS: error= 3.25D-07 at cycle  22 NSaved=  20.
 NSaved=20 IEnMin=20 EnMin= -1896.98509156205     IErMin=20 ErrMin= 3.25D-07
 ErrMax= 3.25D-07  0.00D+00 EMaxC= 1.00D-01 BMatC= 2.82D-10 BMatP= 6.25D-10
 IDIUse=1 WtCom= 1.00D+00 WtEn= 0.00D+00
 Coeff-Com: -0.283D-05 0.515D-05-0.215D-05 0.471D-05 0.563D-06-0.469D-05
 Coeff-Com: -0.509D-04-0.102D-03-0.253D-03-0.820D-03 0.562D-03 0.367D-02
 Coeff-Com:  0.772D-02 0.384D-02-0.147D-01-0.664D-01-0.990D-01 0.748D-02
 Coeff-Com:  0.531D+00 0.627D+00
 Coeff:     -0.283D-05 0.515D-05-0.215D-05 0.471D-05 0.563D-06-0.469D-05
 Coeff:     -0.509D-04-0.102D-03-0.253D-03-0.820D-03 0.562D-03 0.367D-02
 Coeff:      0.772D-02 0.384D-02-0.147D-01-0.664D-01-0.990D-01 0.748D-02
 Coeff:      0.531D+00 0.627D+00
 Gap=     0.065 Goal=   None    Shift=    0.000
 Gap=     0.146 Goal=   None    Shift=    0.000
 RMSDP=2.75D-07 MaxDP=2.42D-05 DE=-3.80D-10 OVMax= 1.95D-05

 Cycle  23  Pass 1  IDiag  1:
 RMSU=  2.62D-07    CP:  1.00D+00  1.18D+00
 E= -1896.98509156217     Delta-E=       -0.000000000116 Rises=F Damp=F
 DIIS: error= 1.35D-07 at cycle  23 NSaved=  20.
 NSaved=20 IEnMin=20 EnMin= -1896.98509156217     IErMin=20 ErrMin= 1.35D-07
 ErrMax= 1.35D-07  0.00D+00 EMaxC= 1.00D-01 BMatC= 3.46D-11 BMatP= 2.82D-10
 IDIUse=1 WtCom= 1.00D+00 WtEn= 0.00D+00
 Coeff-Com:  0.332D-06-0.118D-05-0.349D-06 0.356D-05 0.147D-04 0.421D-04
 Coeff-Com:  0.736D-04 0.435D-04-0.518D-03-0.596D-03 0.451D-03 0.274D-02
 Coeff-Com:  0.518D-02 0.947D-02-0.127D-01-0.697D-01-0.689D-01 0.111D+00
 Coeff-Com:  0.296D+00 0.727D+00
 Coeff:      0.332D-06-0.118D-05-0.349D-06 0.356D-05 0.147D-04 0.421D-04
 Coeff:      0.736D-04 0.435D-04-0.518D-03-0.596D-03 0.451D-03 0.274D-02
 Coeff:      0.518D-02 0.947D-02-0.127D-01-0.697D-01-0.689D-01 0.111D+00
 Coeff:      0.296D+00 0.727D+00
 Gap=     0.065 Goal=   None    Shift=    0.000
 Gap=     0.146 Goal=   None    Shift=    0.000
 RMSDP=1.11D-07 MaxDP=8.65D-06 DE=-1.16D-10 OVMax= 5.15D-06

 Cycle  24  Pass 1  IDiag  1:
 RMSU=  9.57D-08    CP:  1.00D+00  1.24D+00  1.02D+00
 E= -1896.98509156217     Delta-E=       -0.000000000007 Rises=F Damp=F
 DIIS: error= 5.59D-08 at cycle  24 NSaved=  20.
 NSaved=20 IEnMin=20 EnMin= -1896.98509156217     IErMin=20 ErrMin= 5.59D-08
 ErrMax= 5.59D-08  0.00D+00 EMaxC= 1.00D-01 BMatC= 1.21D-11 BMatP= 3.46D-11
 IDIUse=1 WtCom= 1.00D+00 WtEn= 0.00D+00
 Coeff-Com: -0.245D-07-0.107D-05 0.177D-05 0.742D-05 0.370D-04 0.823D-04
 Coeff-Com:  0.108D-03-0.128D-03-0.538D-03-0.601D-03-0.781D-04 0.192D-02
 Coeff-Com:  0.906D-02 0.570D-02-0.263D-01-0.485D-01-0.272D-01 0.828D-01
 Coeff-Com:  0.503D+00 0.501D+00
 Coeff:     -0.245D-07-0.107D-05 0.177D-05 0.742D-05 0.370D-04 0.823D-04
 Coeff:      0.108D-03-0.128D-03-0.538D-03-0.601D-03-0.781D-04 0.192D-02
 Coeff:      0.906D-02 0.570D-02-0.263D-01-0.485D-01-0.272D-01 0.828D-01
 Coeff:      0.503D+00 0.501D+00
 Gap=     0.065 Goal=   None    Shift=    0.000
 Gap=     0.146 Goal=   None    Shift=    0.000
 RMSDP=4.65D-08 MaxDP=4.23D-06 DE=-7.28D-12 OVMax= 2.34D-06

 Cycle  25  Pass 1  IDiag  1:
 RMSU=  3.31D-08    CP:  1.00D+00  1.25D+00  1.04D+00  7.01D-01
 E= -1896.98509156214     Delta-E=        0.000000000036 Rises=F Damp=F
 DIIS: error= 4.90D-08 at cycle  25 NSaved=  20.
 NSaved=20 IEnMin=19 EnMin= -1896.98509156217     IErMin=20 ErrMin= 4.90D-08
 ErrMax= 4.90D-08  0.00D+00 EMaxC= 1.00D-01 BMatC= 2.39D-12 BMatP= 1.21D-11
 IDIUse=1 WtCom= 1.00D+00 WtEn= 0.00D+00
 Coeff-Com: -0.556D-06 0.512D-06 0.330D-05 0.150D-04 0.320D-04 0.413D-04
 Coeff-Com:  0.261D-04-0.161D-03-0.386D-03-0.526D-03-0.103D-03 0.193D-02
 Coeff-Com:  0.450D-02 0.168D-03-0.115D-01-0.327D-01-0.106D-01 0.138D+00
 Coeff-Com:  0.311D+00 0.600D+00
 Coeff:     -0.556D-06 0.512D-06 0.330D-05 0.150D-04 0.320D-04 0.413D-04
 Coeff:      0.261D-04-0.161D-03-0.386D-03-0.526D-03-0.103D-03 0.193D-02
 Coeff:      0.450D-02 0.168D-03-0.115D-01-0.327D-01-0.106D-01 0.138D+00
 Coeff:      0.311D+00 0.600D+00
 Gap=     0.065 Goal=   None    Shift=    0.000
 Gap=     0.146 Goal=   None    Shift=    0.000
 RMSDP=1.99D-08 MaxDP=2.32D-06 DE= 3.64D-11 OVMax= 7.09D-07

 Cycle  26  Pass 1  IDiag  1:
 RMSU=  1.44D-08    CP:  1.00D+00  1.25D+00  1.04D+00  7.57D-01  6.63D-01
 E= -1896.98509156211     Delta-E=        0.000000000027 Rises=F Damp=F
 DIIS: error= 2.31D-08 at cycle  26 NSaved=  20.
 NSaved=20 IEnMin=18 EnMin= -1896.98509156217     IErMin=20 ErrMin= 2.31D-08
 ErrMax= 2.31D-08  0.00D+00 EMaxC= 1.00D-01 BMatC= 5.08D-13 BMatP= 2.39D-12
 IDIUse=1 WtCom= 1.00D+00 WtEn= 0.00D+00
 Coeff-Com: -0.290D-06-0.548D-06-0.331D-05-0.715D-05-0.805D-05 0.459D-04
 Coeff-Com:  0.628D-04-0.107D-04-0.195D-03-0.594D-03-0.175D-02 0.404D-03
 Coeff-Com:  0.767D-02 0.802D-02-0.558D-02-0.262D-01-0.766D-01 0.200D-01
 Coeff-Com:  0.327D+00 0.748D+00
 Coeff:     -0.290D-06-0.548D-06-0.331D-05-0.715D-05-0.805D-05 0.459D-04
 Coeff:      0.628D-04-0.107D-04-0.195D-03-0.594D-03-0.175D-02 0.404D-03
 Coeff:      0.767D-02 0.802D-02-0.558D-02-0.262D-01-0.766D-01 0.200D-01
 Coeff:      0.327D+00 0.748D+00
 Gap=     0.065 Goal=   None    Shift=    0.000
 Gap=     0.146 Goal=   None    Shift=    0.000
 RMSDP=9.87D-09 MaxDP=8.50D-07 DE= 2.73D-11 OVMax= 3.21D-07

 SCF Done:  E(UB3LYP) =  -1896.98509156     A.U. after   26 cycles
            NFock= 26  Conv=0.99D-08     -V/T= 2.0032
 <Sx>= 0.0000 <Sy>= 0.0000 <Sz>= 0.5000 <S**2>= 0.7597 S= 0.5048
 <L.S>=  0.00000000000    
 KE= 1.890985395584D+03 PE=-8.977870496681D+03 EE= 2.944001417106D+03
 Annihilation of the first spin contaminant:
 S**2 before annihilation     0.7597,   after     0.7501
 Leave Link  502 at Thu Dec 21 19:08:21 2023, MaxMem=  4026531840 cpu:            7046.4 elap:             892.7
 (Enter /sysapps/ubuntu-applications/gaussian/Gaussian/AVX2/g16/l601.exe)
 Copying SCF densities to generalized density rwf, IOpCl= 1 IROHF=0.

 **********************************************************************

            Population analysis using the SCF density.

 **********************************************************************

 Alpha  occ. eigenvalues --  -88.98818 -88.98735 -19.02055 -19.02001 -19.01789
 Alpha  occ. eigenvalues --  -19.01750 -18.99938 -18.98935 -14.28360 -14.28296
 Alpha  occ. eigenvalues --  -10.15640 -10.15033 -10.14823 -10.14167 -10.12260
 Alpha  occ. eigenvalues --  -10.11937 -10.11638 -10.11577 -10.10664 -10.10558
 Alpha  occ. eigenvalues --  -10.10497 -10.10384 -10.10359 -10.10259  -8.04920
 Alpha  occ. eigenvalues --   -8.04827  -6.01252  -6.01163  -6.01082  -6.01019
 Alpha  occ. eigenvalues --   -6.00988  -6.00926  -0.99721  -0.99654  -0.94183
 Alpha  occ. eigenvalues --   -0.93323  -0.86996  -0.86934  -0.82215  -0.82205
 Alpha  occ. eigenvalues --   -0.80070  -0.79601  -0.73026  -0.70330  -0.68770
 Alpha  occ. eigenvalues --   -0.68314  -0.62726  -0.60674  -0.58539  -0.55198
 Alpha  occ. eigenvalues --   -0.54172  -0.52356  -0.48911  -0.47085  -0.47002
 Alpha  occ. eigenvalues --   -0.44612  -0.44409  -0.43067  -0.42659  -0.40284
 Alpha  occ. eigenvalues --   -0.39826  -0.39169  -0.38725  -0.36671  -0.36198
 Alpha  occ. eigenvalues --   -0.35779  -0.35456  -0.35085  -0.34932  -0.34461
 Alpha  occ. eigenvalues --   -0.33546  -0.31716  -0.30591  -0.30466  -0.30412
 Alpha  occ. eigenvalues --   -0.28804  -0.28073  -0.27407  -0.27045  -0.26854
 Alpha  occ. eigenvalues --   -0.23832  -0.23755  -0.22000  -0.21884  -0.21218
 Alpha  occ. eigenvalues --   -0.20351  -0.19623  -0.18956  -0.18831  -0.18585
 Alpha  occ. eigenvalues --   -0.17748  -0.17563  -0.16398  -0.15371  -0.05690
 Alpha virt. eigenvalues --    0.00760   0.01676   0.03427   0.04016   0.05924
 Alpha virt. eigenvalues --    0.07234   0.07516   0.08097   0.08552   0.08744
 Alpha virt. eigenvalues --    0.09274   0.09614   0.10569   0.11225   0.11586
 Alpha virt. eigenvalues --    0.12036   0.12373   0.12507   0.13109   0.13704
 Alpha virt. eigenvalues --    0.13808   0.13981   0.14418   0.14765   0.15019
 Alpha virt. eigenvalues --    0.15768   0.16009   0.16178   0.16440   0.16645
 Alpha virt. eigenvalues --    0.16985   0.17573   0.17990   0.18292   0.18901
 Alpha virt. eigenvalues --    0.18972   0.19318   0.19468   0.19566   0.19692
 Alpha virt. eigenvalues --    0.20107   0.20274   0.20739   0.21229   0.21487
 Alpha virt. eigenvalues --    0.21791   0.21849   0.22540   0.22749   0.22850
 Alpha virt. eigenvalues --    0.23237   0.23274   0.23522   0.23717   0.23885
 Alpha virt. eigenvalues --    0.24151   0.25063   0.25343   0.25710   0.26097
 Alpha virt. eigenvalues --    0.26217   0.26671   0.27039   0.27175   0.27786
 Alpha virt. eigenvalues --    0.28012   0.28304   0.28646   0.28859   0.29198
 Alpha virt. eigenvalues --    0.30157   0.30293   0.30394   0.30746   0.30824
 Alpha virt. eigenvalues --    0.31336   0.31510   0.32088   0.32552   0.32878
 Alpha virt. eigenvalues --    0.33195   0.33467   0.33646   0.34108   0.34669
 Alpha virt. eigenvalues --    0.34794   0.35158   0.35614   0.35881   0.36419
 Alpha virt. eigenvalues --    0.36830   0.37207   0.37519   0.38113   0.38203
 Alpha virt. eigenvalues --    0.38263   0.38954   0.39182   0.39731   0.39938
 Alpha virt. eigenvalues --    0.40031   0.40378   0.40728   0.40799   0.40975
 Alpha virt. eigenvalues --    0.41234   0.41464   0.42037   0.42069   0.42253
 Alpha virt. eigenvalues --    0.42483   0.42955   0.43118   0.43641   0.43888
 Alpha virt. eigenvalues --    0.44032   0.44610   0.45142   0.45321   0.45778
 Alpha virt. eigenvalues --    0.45963   0.46550   0.47230   0.47527   0.47853
 Alpha virt. eigenvalues --    0.47998   0.49099   0.49343   0.49835   0.50644
 Alpha virt. eigenvalues --    0.50933   0.52045   0.52221   0.53153   0.53719
 Alpha virt. eigenvalues --    0.55227   0.56064   0.56255   0.56660   0.57646
 Alpha virt. eigenvalues --    0.57894   0.58053   0.59250   0.60078   0.61118
 Alpha virt. eigenvalues --    0.62073   0.63015   0.63884   0.64135   0.64302
 Alpha virt. eigenvalues --    0.64586   0.65596   0.66202   0.66899   0.67809
 Alpha virt. eigenvalues --    0.68191   0.68642   0.68930   0.69734   0.70918
 Alpha virt. eigenvalues --    0.71360   0.72561   0.72896   0.73485   0.74104
 Alpha virt. eigenvalues --    0.74288   0.74749   0.75618   0.76061   0.76315
 Alpha virt. eigenvalues --    0.77629   0.77899   0.78322   0.80160   0.80569
 Alpha virt. eigenvalues --    0.80798   0.81750   0.82444   0.82511   0.82895
 Alpha virt. eigenvalues --    0.83260   0.84015   0.85935   0.86850   0.87850
 Alpha virt. eigenvalues --    0.88351   0.89079   0.89684   0.90202   0.90743
 Alpha virt. eigenvalues --    0.91444   0.92252   0.92884   0.93635   0.94530
 Alpha virt. eigenvalues --    0.94912   0.95520   0.96899   0.97242   0.97698
 Alpha virt. eigenvalues --    0.98502   0.98958   0.99688   0.99874   1.00653
 Alpha virt. eigenvalues --    1.01541   1.02671   1.03124   1.03277   1.04492
 Alpha virt. eigenvalues --    1.04690   1.05605   1.06063   1.06857   1.07104
 Alpha virt. eigenvalues --    1.07638   1.08361   1.08921   1.09384   1.09551
 Alpha virt. eigenvalues --    1.11232   1.12145   1.13051   1.13614   1.14035
 Alpha virt. eigenvalues --    1.14357   1.15965   1.16780   1.17210   1.17900
 Alpha virt. eigenvalues --    1.19547   1.20327   1.20822   1.22463   1.22943
 Alpha virt. eigenvalues --    1.24005   1.24704   1.25678   1.26162   1.27271
 Alpha virt. eigenvalues --    1.27733   1.28754   1.29681   1.30357   1.30757
 Alpha virt. eigenvalues --    1.31270   1.31688   1.32095   1.32640   1.33083
 Alpha virt. eigenvalues --    1.33662   1.34110   1.34460   1.34584   1.36429
 Alpha virt. eigenvalues --    1.38049   1.38655   1.39546   1.40033   1.42132
 Alpha virt. eigenvalues --    1.43176   1.44473   1.45044   1.45582   1.47197
 Alpha virt. eigenvalues --    1.47504   1.48250   1.52950   1.56232   1.57031
 Alpha virt. eigenvalues --    1.58685   1.59190   1.59347   1.60059   1.60070
 Alpha virt. eigenvalues --    1.61449   1.62316   1.63600   1.64698   1.65601
 Alpha virt. eigenvalues --    1.67445   1.68111   1.68999   1.69945   1.70833
 Alpha virt. eigenvalues --    1.73253   1.73932   1.75490   1.76055   1.76283
 Alpha virt. eigenvalues --    1.78972   1.79933   1.80588   1.81271   1.82001
 Alpha virt. eigenvalues --    1.82443   1.83316   1.84113   1.84904   1.85728
 Alpha virt. eigenvalues --    1.86163   1.86541   1.89449   1.91113   1.92257
 Alpha virt. eigenvalues --    1.92739   1.95017   1.95490   1.96347   1.97482
 Alpha virt. eigenvalues --    1.98106   1.98495   1.99238   1.99891   2.00244
 Alpha virt. eigenvalues --    2.00849   2.01068   2.01981   2.02226   2.03237
 Alpha virt. eigenvalues --    2.04221   2.06457   2.07624   2.09921   2.10207
 Alpha virt. eigenvalues --    2.12043   2.12561   2.13602   2.13882   2.15017
 Alpha virt. eigenvalues --    2.15920   2.17637   2.18995   2.21737   2.25672
 Alpha virt. eigenvalues --    2.26598   2.27239   2.28014   2.28535   2.34234
 Alpha virt. eigenvalues --    2.34492   2.39734   2.41752   2.42824   2.44004
 Alpha virt. eigenvalues --    2.44434   2.45847   2.46289   2.46687   2.49014
 Alpha virt. eigenvalues --    2.49653   2.49991   2.54005   2.57820   2.59650
 Alpha virt. eigenvalues --    2.60424   2.63297   2.64547   2.65799   2.67338
 Alpha virt. eigenvalues --    2.69668   2.71445   2.73723   2.75424   2.76268
 Alpha virt. eigenvalues --    2.77228   2.78356   2.78911   2.80224   2.80813
 Alpha virt. eigenvalues --    2.82101   2.83317   2.84020   2.84293   2.84494
 Alpha virt. eigenvalues --    2.86412   2.86945   2.87157   2.87559   2.89751
 Alpha virt. eigenvalues --    2.91097   2.91736   2.92911   2.93192   2.93629
 Alpha virt. eigenvalues --    2.93949   2.94545   2.94973   2.95536   2.95629
 Alpha virt. eigenvalues --    2.96036   2.96187   2.96815   2.97097   2.97324
 Alpha virt. eigenvalues --    2.97903   2.98758   3.00276   3.00798   3.03136
 Alpha virt. eigenvalues --    3.04312   3.04935   3.05319   3.06509   3.07736
 Alpha virt. eigenvalues --    3.10470   3.11145   3.11604   3.15826   3.16289
 Alpha virt. eigenvalues --    3.16746   3.17249   3.18440   3.19120   3.19370
 Alpha virt. eigenvalues --    3.20639   3.23385   3.29595   3.29699   3.30880
 Alpha virt. eigenvalues --    3.32622   3.36674   3.41870   3.44675   3.45187
 Alpha virt. eigenvalues --    3.45289   3.47610   3.48916   3.49129   3.51543
 Alpha virt. eigenvalues --    3.53688   3.61823   3.62976   3.63418   3.63691
 Alpha virt. eigenvalues --    3.64550   3.65808   3.68172   3.69179   3.77703
 Alpha virt. eigenvalues --    3.84503   3.87918   3.89251   3.93227   3.96453
 Alpha virt. eigenvalues --    3.98751   3.99052   4.14063   4.16701   4.26554
 Alpha virt. eigenvalues --    4.29291   4.30558   4.31039   4.34440   4.37097
 Alpha virt. eigenvalues --    4.56539   4.64423   4.64583   4.86268   4.91798
 Alpha virt. eigenvalues --    4.92889   5.12483   5.13203   5.16163   5.16663
 Alpha virt. eigenvalues --    5.17389   5.17613   5.17956   5.18504   5.20619
 Alpha virt. eigenvalues --    5.20974   5.21692   5.22025   5.31185   5.31548
 Alpha virt. eigenvalues --    5.37197   5.39530   5.85746   5.94128   8.15886
 Alpha virt. eigenvalues --    8.16242  17.39191  17.40399  17.50268  17.51287
 Alpha virt. eigenvalues --   17.52982  17.53605  23.59322  23.70918  23.98038
 Alpha virt. eigenvalues --   23.99776  24.00029  24.02441  24.03125  24.06326
 Alpha virt. eigenvalues --   24.10334  24.13091  24.14130  24.14613  24.22637
 Alpha virt. eigenvalues --   24.22842  35.54328  35.54362  49.98058  49.98811
 Alpha virt. eigenvalues --   50.01035  50.01572  50.16166  50.20888 189.26255
 Alpha virt. eigenvalues --  189.26739
  Beta  occ. eigenvalues --  -88.98817 -88.98733 -19.02046 -19.01984 -19.01772
  Beta  occ. eigenvalues --  -19.01735 -18.99489 -18.98268 -14.28352 -14.28290
  Beta  occ. eigenvalues --  -10.15582 -10.14956 -10.14739 -10.14059 -10.12308
  Beta  occ. eigenvalues --  -10.11988 -10.11572 -10.11503 -10.10575 -10.10503
  Beta  occ. eigenvalues --  -10.10469 -10.10392 -10.10233 -10.10120  -8.04919
  Beta  occ. eigenvalues --   -8.04824  -6.01250  -6.01157  -6.01081  -6.01019
  Beta  occ. eigenvalues --   -6.00984  -6.00927  -0.99695  -0.99619  -0.93434
  Beta  occ. eigenvalues --   -0.92200  -0.86966  -0.86897  -0.82191  -0.82189
  Beta  occ. eigenvalues --   -0.79861  -0.79469  -0.72632  -0.70127  -0.68587
  Beta  occ. eigenvalues --   -0.68183  -0.62467  -0.60520  -0.58127  -0.54953
  Beta  occ. eigenvalues --   -0.54010  -0.52232  -0.48739  -0.46937  -0.46864
  Beta  occ. eigenvalues --   -0.44577  -0.44375  -0.42968  -0.42514  -0.40086
  Beta  occ. eigenvalues --   -0.39723  -0.39087  -0.38634  -0.36587  -0.36134
  Beta  occ. eigenvalues --   -0.35740  -0.35387  -0.34786  -0.34693  -0.33616
  Beta  occ. eigenvalues --   -0.33229  -0.31229  -0.30399  -0.30186  -0.28723
[...]
 00000093,0.00128314,0.00088638,-0.00159094,0.00000157,-0.00000818,0.00
 001035,0.00039956,0.00004172,-0.00018985,0.00002019,-0.00002506,-0.000
 01322,0.00000649,-0.00001854,0.00000192,-0.00020976,0.00064311,-0.0002
 8707,0.11335488,-0.46090015,0.10875160,-0.00053582,-0.00086809,0.00064
 208,-0.00004140,0.00043068,-0.00020945,0.00025633,0.00019281,-0.000103
 18,0.00017015,0.00009406,-0.00020597,-0.00000054,-0.00002716,0.0000322
 0,-0.00000521,0.00000256,-0.00004662,-0.13071489,0.49367799,0.00122807
 ,0.00195284,-0.00102887,-0.00013291,0.00380947,0.00802039,0.00033331,0
 .00058632,0.00223486,-0.00147112,-0.00113167,0.00033039,0.00112776,-0.
 00007622,0.00003497,-0.00074273,-0.00062197,0.00000202,-0.00146905,0.0
 0129551,-0.00094392,0.00097056,-0.00013899,0.00016734,-0.00000708,0.00
 054933,-0.00039824,-0.00089528,-0.00023049,0.00029744,-0.00022605,-0.0
 0009219,0.00007665,-0.00006608,-0.00011410,0.00008913,-0.00021902,0.00
 029022,-0.00014507,0.00114801,-0.00106571,0.00075851,0.00015107,-0.000
 01772,0.00005716,-0.00064177,-0.00090871,0.00049219,0.00000136,0.00000
 014,-0.00001354,-0.00010717,-0.00019855,-0.00028021,-0.00001244,-0.000
 00099,-0.00001018,-0.00001058,0.00000133,-0.00000728,0.00020262,-0.000
 29728,0.00013846,-0.02838648,0.10192853,-0.10842964,0.00023863,0.00031
 090,-0.00038389,0.00000730,-0.00015387,0.00012799,-0.00009419,-0.00006
 878,0.00007885,-0.00007346,-0.00000581,0.00013852,-0.00001132,-0.00000
 472,-0.00001940,0.00000115,-0.00000458,0.00002037,0.03333949,-0.115932
 98,0.08581278,-0.00355199,0.00674560,-0.00090058,-0.00226367,-0.014281
 97,0.02486472,0.00047129,-0.00100731,0.00127816,-0.00306733,-0.0022805
 2,-0.00032729,0.00155547,-0.00106497,0.00061266,-0.00076560,-0.0007890
 3,0.00000753,-0.00212453,0.00225566,-0.00164442,0.00123638,-0.00091010
 ,0.00075391,0.00012026,0.00142018,-0.00097624,-0.00094730,-0.00097704,
 0.00095359,-0.00012458,0.00011425,-0.00002621,-0.00025276,-0.00035227,
 0.00026078,-0.00054116,0.00076690,-0.00034282,0.00104886,-0.00174174,0
 .00101278,-0.00047996,0.00070645,-0.00041622,0.00021594,0.00033988,0.0
 0055102,-0.00002229,0.00000731,-0.00001756,-0.00016963,0.00003499,-0.0
 0003632,0.00006547,0.00002834,-0.00001285,-0.00002527,0.00003079,-0.00
 002603,-0.00006880,-0.00105745,0.00044940,-0.13885536,-0.06759920,0.13
 179535,0.00131742,0.00136557,-0.00137211,-0.00009891,-0.00061547,0.000
 41991,-0.00063625,-0.00030231,0.00021727,-0.00039231,-0.00005569,0.000
 51571,0.00001172,0.00000967,-0.00007400,0.00003358,-0.00003515,0.00009
 218,0.01715553,0.00901541,-0.00652964,0.11840356,0.00040261,0.00144161
 ,0.00018183,0.00087140,0.00485411,0.00451922,-0.00016294,-0.00263720,0
 .00203396,-0.00117418,-0.00001807,-0.00075421,0.00099938,-0.00024652,0
 .00022685,-0.00085162,0.00106922,-0.00109372,-0.00064431,0.00050053,-0
 .00042873,0.00060619,-0.00011065,0.00015944,0.00010930,0.00051407,-0.0
 0038009,-0.00064360,-0.00021959,0.00026106,-0.00017136,-0.00004636,0.0
 0002389,-0.00010264,-0.00009132,0.00008299,-0.00022375,0.00029647,-0.0
 0012773,0.00015756,-0.00037281,0.00025438,-0.00012028,0.00036808,-0.00
 021237,0.00075551,0.00066006,-0.00004209,-0.00000425,0.00000211,-0.000
 01115,-0.00033441,-0.00004466,-0.00005642,0.00003961,0.00000882,-0.000
 00765,-0.00002287,0.00000653,-0.00000460,0.00011471,-0.00030324,0.0001
 1939,-0.06262750,-0.15933091,0.15244758,0.00045583,0.00031454,-0.00039
 358,-0.00007675,-0.00013518,0.00012096,-0.00021830,-0.00007877,0.00005
 650,-0.00012393,0.00000941,0.00016447,0.00000819,-0.00000492,-0.000025
 20,0.00001398,-0.00001490,0.00002458,-0.01125695,-0.00357509,0.0313576
 7,0.07011632,0.14384834,0.00424098,-0.00169695,0.00105726,-0.00369048,
 0.00814884,-0.00208717,-0.00013513,0.00306229,-0.00070965,0.00013825,0
 .00053713,-0.00071946,-0.00076248,0.00007478,-0.00016879,0.00085585,-0
 .00104992,0.00100377,0.00068014,-0.00045343,0.00023736,-0.00026788,0.0
 0045687,-0.00025887,-0.00017638,-0.00051748,0.00039649,0.00030652,0.00
 037045,-0.00032756,0.00004140,-0.00006350,0.00003271,0.00015410,0.0001
 3124,-0.00009421,0.00017393,-0.00031305,0.00014770,0.00007452,0.000265
 38,-0.00004591,0.00030237,-0.00043799,0.00034825,-0.00050747,-0.000616
 74,0.00025848,0.00001026,-0.00000683,0.00000016,0.00033436,-0.00003140
 ,-0.00006004,-0.00004659,-0.00001739,-0.00000392,0.00001359,-0.0000189
 4,-0.00000228,0.00007430,0.00041271,-0.00016107,0.12530849,0.15274381,
 -0.38401440,-0.00056528,-0.00053030,0.00040110,0.00006681,0.00022909,-
 0.00012121,0.00029667,0.00011822,-0.00004041,0.00015834,0.00004152,-0.
 00015422,-0.00001845,-0.00001682,0.00002441,-0.00001765,0.00001466,-0.
 00003673,0.00834895,0.00053121,0.00229236,-0.14853371,-0.17049618,0.42
 035659,0.00226771,0.00190719,-0.00449403,-0.01040164,-0.01261370,-0.01
 382371,-0.00000542,-0.00346726,0.00063349,-0.00294774,0.00153223,0.001
 67943,0.00196679,-0.00089058,0.00026401,-0.00114286,0.00016888,0.00080
 012,-0.00208479,0.00239814,-0.00109087,0.00171627,-0.00079017,0.000031
 86,0.00004862,0.00143938,-0.00089477,-0.00152588,-0.00086331,0.0004778
 2,-0.00029878,-0.00006100,0.00008558,-0.00018370,-0.00029245,0.0002730
 7,-0.00057649,0.00074088,-0.00036911,0.00138325,-0.00182386,0.00117310
 ,-0.00016410,0.00042948,-0.00025660,-0.00026399,-0.00046271,-0.0006032
 2,-0.00001147,0.00000593,-0.00002243,-0.00018959,0.00012056,0.00015797
 ,0.00004243,0.00002021,-0.00002583,-0.00003055,0.00002173,-0.00002007,
 0.00020194,-0.00084918,0.00045339,-0.07464301,-0.04955634,-0.03021486,
 0.00108644,0.00111661,-0.00116035,-0.00008018,-0.00051934,0.00035978,-
 0.00051308,-0.00025422,0.00018822,-0.00031582,-0.00004459,0.00042749,0
 .00000710,0.00000670,-0.00006567,0.00002572,-0.00002717,0.00007141,0.0
 1453807,0.00328346,0.00113104,0.00877434,0.00384878,0.01342225,0.46804
 963,0.00083688,0.00042772,-0.00140572,-0.00187133,0.00164225,-0.005136
 30,-0.00098199,-0.00224078,0.00090128,-0.00107138,0.00099838,0.0004104
 4,0.00087173,-0.00030535,-0.00009918,-0.00126149,0.00064571,0.00028436
 ,-0.00108499,0.00085479,-0.00036367,0.00096271,-0.00040457,0.00007011,
 0.00008051,0.00086472,-0.00057595,-0.00083469,-0.00058454,0.00038536,-
 0.00017211,-0.00002327,0.00010615,-0.00015583,-0.00018238,0.00015000,-
 0.00032986,0.00047457,-0.00021299,0.00047553,-0.00064274,0.00058377,-0
 .00018265,0.00048204,-0.00019251,0.00033966,-0.00012022,-0.00075057,-0
 .00000861,-0.00000116,-0.00001911,-0.00025915,0.00003772,0.00004679,0.
 00003776,0.00000303,-0.00002532,-0.00002380,0.00000654,-0.00002087,0.0
 0011227,-0.00050901,0.00024597,-0.00925583,-0.10207813,-0.01800383,0.0
 0066203,0.00052368,-0.00073040,-0.00008603,-0.00023088,0.00021645,-0.0
 0029956,-0.00011768,0.00012548,-0.00018719,0.00002492,0.00028516,-0.00
 000059,-0.00001728,-0.00004069,0.00001860,-0.00002532,0.00004153,-0.01
 068542,-0.01966877,-0.02237182,-0.00149538,0.01267560,0.01588864,0.189
 81017,0.28288443,-0.00174128,0.00067064,-0.00095080,0.00210596,-0.0034
 9583,0.00767142,-0.00051867,0.00057318,0.00036197,-0.00100457,-0.00053
 451,0.00013813,0.00013286,-0.00052488,0.00033665,0.00031032,-0.0000586
 7,-0.00025098,-0.00032278,0.00071141,-0.00036600,0.00016078,-0.0002868
 1,0.00019172,0.00002156,0.00030065,-0.00020761,-0.00008554,-0.00031074
 ,0.00019942,0.00001724,0.00005517,-0.00002230,-0.00005327,-0.00007019,
 0.00008939,-0.00012451,0.00016164,-0.00007054,0.00017634,-0.00035729,0
 .00040179,-0.00017950,0.00024945,-0.00004240,0.00026362,0.00009665,-0.
 00020550,-0.00000892,-0.00000357,-0.00001066,-0.00003061,-0.00003314,-
 0.00008783,0.00002130,-0.00000406,-0.00002124,-0.00000730,0.00000216,-
 0.00001951,-0.00007948,-0.00024251,0.00012914,0.00623661,-0.04121343,-
 0.11556132,0.00032842,0.00029105,-0.00047437,-0.00003288,-0.00012541,0
 .00014252,-0.00014425,-0.00006114,0.00009362,-0.00010096,0.00002719,0.
 00018810,-0.00000885,-0.00001746,-0.00002372,0.00000862,-0.00001519,0.
 00002508,-0.00490559,0.00015136,0.00603728,-0.00523600,-0.01672227,-0.
 03468109,-0.04258474,-0.15175646,0.55058363,-0.00143814,0.00315214,-0.
 00134713,0.01091759,0.00925510,-0.00715659,-0.13875728,-0.10107236,0.0
 7918537,-0.00083246,0.00018862,-0.00020142,-0.00493024,0.00238454,-0.0
 0006657,-0.01160596,-0.02189095,0.01629424,0.00018072,0.00019856,-0.00
 025650,-0.00008946,0.00018533,-0.00007202,-0.00074906,-0.00011190,0.00
 006581,0.00058791,-0.00119816,0.00078298,0.00000515,-0.00002382,0.0000
 2212,0.00012658,-0.00010317,0.00004831,-0.00006982,-0.00010135,0.00007
 929,0.00013334,-0.00016132,0.00009762,-0.00006242,0.00016826,-0.000073
 52,0.00059818,0.00051372,-0.00029891,-0.00001058,-0.00001403,0.0000117
 6,0.00116376,-0.00001233,-0.00076139,-0.00000137,-0.00000390,0.0000023
 7,0.00000628,0.00001119,-0.00000834,-0.00001199,0.00011586,-0.00007089
 ,0.00039250,0.00194530,-0.00225161,-0.00002817,-0.00003286,0.00003376,
 -0.00000782,0.00000908,-0.00000773,0.00000344,-0.00000315,-0.00000351,
 0.00000940,0.00000211,-0.00000610,0.00000076,0.00000011,0.00000063,0.0
 0000115,-0.00000122,-0.00000483,0.00017458,-0.00051537,0.00045277,-0.0
 0064715,-0.00068992,0.00050995,-0.00025236,-0.00004312,0.00036116,0.14
 516404,0.00412403,-0.00089600,0.00358850,-0.01306760,-0.01259950,0.009
 82840,-0.10009923,-0.17630042,0.10707887,0.00022940,-0.00004832,-0.000
 52207,0.00168017,0.00334298,0.00338362,0.00302426,0.00606958,-0.001683
 19,0.00000500,-0.00021754,-0.00047308,0.00001955,0.00006097,0.00005829
 ,-0.00008835,-0.00029212,-0.00034081,0.00000849,0.00032316,-0.00015349
 ,-0.00004390,0.00001370,0.00004494,0.00005603,0.00003703,0.00001862,-0
 .00003409,0.00001150,0.00004568,-0.00014082,-0.00005619,0.00009436,0.0
 0000361,-0.00005009,0.00022651,-0.00074912,-0.00025845,0.00061804,0.00
 000005,-0.00000316,-0.00000634,-0.00057052,-0.00111332,-0.00274452,0.0
 0001064,0.00000323,-0.00000535,-0.00000204,-0.00000087,-0.00000688,0.0
 0002200,0.00001712,-0.00001809,-0.00235254,-0.00277957,0.00262007,0.00
 001897,0.00001585,-0.00000812,-0.00000626,-0.00001235,0.00000329,-0.00
 001600,-0.00001040,0.00000006,-0.00000350,-0.00000380,0.00000398,0.000
 00171,0.00000147,-0.00000167,0.00000019,-0.00000001,-0.00000054,0.0005
 1364,0.00048477,-0.00039054,-0.00056521,0.00165857,-0.00175463,0.00015
 784,0.00005032,-0.00037150,0.10782207,0.18256796,-0.00165896,0.0037940
 0,0.00265033,0.00789353,0.00724758,-0.00519406,0.07833354,0.10824829,-
 0.11515601,-0.00046462,-0.00056725,-0.00045445,0.00005556,0.00309595,0
 .00631723,-0.00029737,0.00067449,0.00347260,0.00007006,-0.00037256,-0.
 00063992,-0.00008603,0.00011262,0.00010245,-0.00008040,-0.00046786,-0.
 00048374,0.00007841,0.00012509,0.00008883,0.00004448,0.00004501,0.0000
 3802,0.00001935,0.00005507,0.00002667,0.00004105,-0.00002291,0.0000763
 4,0.00004190,0.00006860,-0.00000305,0.00004559,0.00010461,0.00019836,0
 .00048339,0.00048397,0.00020714,-0.00000037,-0.00000588,-0.00000635,-0
 .00026396,-0.00271882,-0.00332400,-0.00000582,-0.00000311,-0.00000094,
 0.00000047,-0.00000722,-0.00000710,-0.00002613,0.00004481,-0.00003658,
 0.00110584,0.00113860,-0.00124145,-0.00005775,-0.00004460,0.00006777,0
 .00000680,0.00002167,-0.00002349,0.00002294,0.00000784,-0.00001314,0.0
 0001681,-0.00000482,-0.00002895,0.00000077,0.00000259,0.00000383,-0.00
 000185,0.00000204,-0.00000422,-0.00014303,-0.00043590,0.00016197,0.000
 53411,-0.00075226,-0.00010893,-0.00036762,-0.00068359,-0.00000348,-0.0
 8526693,-0.11915530,0.11355639,0.00068597,0.00044473,-0.00100057,-0.00
 112755,-0.00260623,-0.00155734,0.00046506,-0.00077162,0.00008629,-0.00
 066993,0.00025729,0.00041656,0.00036497,-0.00020755,-0.00006653,-0.000
 24575,0.00008377,0.00026802,-0.00044050,0.00047188,-0.00024014,0.00036
 205,-0.00007742,-0.00004177,0.00000940,0.00022015,-0.00014437,-0.00033
 374,-0.00010503,0.00009804,-0.00010065,-0.00003570,0.00004767,-0.00002
 558,-0.00003555,0.00003736,-0.00009373,0.00011034,-0.00006581,0.000318
 00,-0.00034636,0.00022793,0.00002636,0.00007181,-0.00004190,-0.0000920
 6,-0.00013211,-0.00012792,0.00000023,0.00000072,-0.00000367,-0.0000330
 1,0.00001827,0.00001721,0.00000419,0.00000166,-0.00000329,-0.00000826,
 0.00000117,-0.00000119,0.00008757,-0.00009286,0.00006320,-0.01078032,0
 .00027078,0.00351775,0.00011003,0.00010489,-0.00012332,-0.00000947,-0.
 00005176,0.00003876,-0.00005134,-0.00002611,0.00001913,-0.00003044,0.0
 0000016,0.00004569,-0.00000011,-0.00000118,-0.00000742,0.00000261,-0.0
 0000382,0.00000731,0.00011307,0.00318092,0.00129781,0.00199108,0.00204
 940,0.00120761,-0.36220652,-0.15112188,0.08072803,-0.00007688,0.000101
 52,-0.00016214,0.36986177,0.00007922,0.00001636,0.00002834,0.00022220,
 0.00045195,-0.00123156,0.00010004,-0.00007294,-0.00012852,0.00002806,-
 0.00009441,0.00017336,0.00023032,0.00019753,-0.00011256,-0.00032520,0.
 00003732,0.00002728,-0.00015567,0.00006357,0.00004973,0.00009928,-0.00
 002253,-0.00008645,0.00007308,0.00005345,-0.00002638,-0.00022201,-0.00
 004426,0.00001431,-0.00004477,-0.00002089,0.00002420,-0.00004337,-0.00
 000158,0.00001055,0.00001649,0.00002940,-0.00002121,0.00011985,-0.0000
 5930,0.00003443,0.00007858,-0.00004147,-0.00000041,-0.00004354,-0.0000
 9144,-0.00001464,0.00000263,0.00000183,-0.00000023,0.00000558,0.000024
 67,0.00006613,-0.00000702,-0.00000113,0.00000173,-0.00000043,-0.000002
 05,0.00000320,0.00004574,-0.00000111,0.00000025,-0.02536500,-0.0119094
 9,-0.00184675,-0.00005957,-0.00002999,0.00005284,0.00001518,0.00000882
 ,-0.00001299,0.00003124,0.00000810,-0.00000756,0.00001775,-0.00000648,
 -0.00002522,-0.00000188,0.00000182,0.00000298,-0.00000258,0.00000418,-
 0.00000309,0.00355996,-0.00267321,-0.00137775,0.00277514,-0.00005150,0
 .00303295,-0.10790919,-0.05187165,0.02820783,0.00002192,0.00001761,0.0
 0003935,0.14166382,0.07323784,0.00058616,0.00048698,-0.00081231,-0.002
 27925,-0.00255221,-0.00355194,-0.00005266,-0.00086657,0.00003635,-0.00
 080813,0.00041711,0.00056925,0.00045633,-0.00019486,-0.00000313,-0.000
 34038,0.00017072,0.00036638,-0.00054059,0.00058250,-0.00026690,0.00043
 519,-0.00013030,-0.00007067,-0.00001110,0.00028211,-0.00017738,-0.0004
 0640,-0.00014528,0.00006112,-0.00011656,-0.00004153,0.00004706,-0.0000
 2556,-0.00004938,0.00004673,-0.00012452,0.00014629,-0.00007324,0.00037
 468,-0.00041444,0.00029062,0.00001699,0.00006391,-0.00004338,-0.000065
 96,-0.00019897,-0.00026831,-0.00000015,0.00000095,-0.00000515,-0.00006
 764,0.00002592,0.00003083,0.00000694,0.00000338,-0.00000474,-0.0000088
 1,0.00000306,-0.00000164,0.00009319,-0.00013322,0.00007787,-0.02711996
 ,-0.01040104,0.00880095,0.00016985,0.00016313,-0.00016837,-0.00001546,
 -0.00007896,0.00005324,-0.00008186,-0.00004039,0.00002519,-0.00004678,
 -0.00000567,0.00006253,0.00000119,0.00000018,-0.00001028,0.00000412,-0
 .00000391,0.00001112,0.00207864,-0.00055179,-0.00097715,0.00313113,0.0
 0298540,0.00033060,0.07231309,0.02997182,-0.07746162,-0.00009697,0.000
 05609,-0.00017632,-0.08067784,-0.02956278,0.07683502,-0.00045310,0.000
 22057,0.00007152,-0.00006154,-0.00124258,0.00044108,-0.00034820,0.0002
 5238,-0.00018967,-0.00046342,-0.00015544,0.00031916,-0.00006878,-0.000
 09020,0.00011033,0.00019068,0.00002085,-0.00003480,-0.00012177,0.00021
 916,-0.00009611,0.00000971,0.00003471,-0.00006451,-0.00005546,-0.00007
 816,0.00006090,-0.00000337,0.00006115,-0.00007569,-0.00004628,-0.00002
 427,0.00002508,0.00003752,0.00002822,-0.00001566,0.00001336,-0.0000476
 4,0.00002630,0.00013436,-0.00004144,0.00013294,0.00004988,-0.00005691,
 0.00005660,0.00001946,-0.00026323,-0.00018829,0.00000187,-0.00000201,-
 0.00000053,-0.00001909,-0.00000669,-0.00002188,-0.00000532,-0.00000762
 ,-0.00000371,-0.00000148,-0.00000402,-0.00000096,0.00003409,0.00007578
 ,-0.00003793,0.00008155,0.01043499,-0.00205922,-0.00011266,-0.00013180
 ,0.00008124,0.00000704,0.00005841,-0.00002392,0.00005957,0.00002838,-0
 .00000763,0.00003387,0.00001839,-0.00002723,-0.00000640,-0.00000944,0.
 00000517,-0.00000286,0.00000188,-0.00000685,-0.00073113,-0.00046963,-0
 .00053460,0.00263394,-0.00109920,-0.00199813,-0.04227031,-0.01279495,-
 0.03370312,0.00010579,-0.00006001,0.00008841,0.00192350,-0.01500587,0.
 03321907,0.03943497,-0.00033436,0.00032601,-0.00016674,-0.00003520,-0.
 00114988,0.00062111,0.00017671,0.00002389,0.00000963,-0.00005784,-0.00
 015018,0.00014776,0.00003747,-0.00004341,-0.00004976,0.00010467,-0.000
 04145,0.00011261,-0.00008849,0.00016583,-0.00013488,0.00002829,0.00002
 630,0.00000171,-0.00003879,-0.00005311,0.00002687,0.00000162,0.0000966
 2,-0.00005070,-0.00002237,-0.00000993,0.00000033,0.00003206,0.00001389
 ,-0.00001056,0.00000164,-0.00003197,0.00000646,0.00013353,-0.00011365,
 0.00007536,0.00004259,-0.00009179,0.00003374,-0.00012470,-0.00012943,-
 0.00004827,0.00000165,0.00000046,0.00000167,0.00000922,-0.00000817,-0.
 00000643,-0.00000635,0.00000126,0.00000161,0.00000167,0.00000069,0.000
 00362,0.00002652,0.00003344,-0.00000908,0.00028194,0.01002308,-0.02387
 685,-0.00005077,-0.00000697,0.00005023,0.00001495,-0.00000219,-0.00001
 157,0.00001976,-0.00000038,-0.00000948,0.00001328,-0.00001139,-0.00002
 326,0.00000018,0.00000591,0.00000258,-0.00000219,0.00000331,-0.0000029
 8,0.00031489,-0.00087309,0.00312319,-0.00060168,-0.00094638,-0.0080382
 1,-0.02658308,-0.12357273,0.18470666,0.00000504,-0.00003369,-0.0000700
 9,0.00656189,-0.00715901,0.01001174,0.02013623,0.12370813,-0.00037053,
 0.00002329,-0.00011217,-0.00007005,-0.00168612,0.00049678,0.00018131,0
 .00032557,-0.00006324,0.00003106,-0.00015758,0.00014482,-0.00011870,0.
 00000316,0.00002209,0.00016068,-0.00003022,0.00009779,0.00016052,-0.00
 007601,0.00007058,-0.00013472,0.00008030,-0.00004396,-0.00003675,-0.00
 016306,0.00010872,0.00011482,0.00011207,-0.00009328,0.00000457,-0.0000
 0228,0.00000290,0.00004128,0.00003319,-0.00003343,0.00004483,-0.000081
 32,0.00004444,-0.00007621,0.00009649,-0.00013856,0.00004031,-0.0000718
 8,0.00003053,-0.00008566,-0.00007695,0.00010509,0.00000179,0.00000030,
 0.00000373,0.00002104,-0.00000890,-0.00002363,-0.00000156,0.00000221,0
 .00000509,0.00000128,-0.00000114,0.00000445,-0.00000077,0.00009758,-0.
 00006658,-0.00279017,0.01445231,-0.02429394,-0.00010200,-0.00009699,0.
 00014967,0.00000540,0.00004217,-0.00004462,0.00004030,0.00001859,-0.00
 002802,0.00003184,-0.00000592,-0.00005644,0.00000434,0.00000579,0.0000
 0743,-0.00000182,0.00000340,-0.00000901,0.00123470,0.00177077,0.005267
 77,-0.00097820,-0.00351192,-0.00309130,0.00205076,0.15267568,-0.336128
 88,0.00000281,-0.00003320,-0.00006172,-0.00385914,0.00268865,-0.003572
 31,0.00445265,-0.16642803,0.36129920\\0.00000207,0.00000025,-0.0000003
 2,-0.00000112,-0.00000144,0.00000048,-0.00000078,0.00000179,-0.0000013
 6,-0.00000168,0.00000041,0.00000010,0.00000047,-0.00000076,0.00000063,
 0.00000095,0.00000003,-0.00000026,-0.00000112,0.00000107,-0.00000064,0
 .00000104,0.00000182,-0.00000143,0.00000119,-0.00000151,0.00000046,-0.
 00000018,-0.00000037,0.00000024,-0.00000198,-0.00000151,0.00000184,-0.
 00000153,-0.00000044,0.00000072,-0.00000010,0.00000131,-0.00000078,0.0
 0000101,-0.00000123,0.00000075,-0.00000044,0.00000066,-0.00000051,-0.0
 0000030,-0.00000021,0.00000001,0.00000001,-0.00000077,0.00000034,-0.00
 000041,-0.00000005,0.00000009,0.00000053,0.00000046,-0.00000023,0.0000
 0043,-0.00000002,-0.00000017,0.00000242,0.00000051,-0.00000093,0.00000
 275,0.00000047,-0.00000157,0.00000087,-0.00000555,-0.00000837,0.000000
 39,0.00000039,0.00000212,-0.00000080,0.00000114,0.00000160,-0.00000027
 ,0.00000676,0.00000561,0.00000072,-0.00000136,0.00000081,-0.00000079,-
 0.00000278,-0.00000027,-0.00000109,-0.00000121,-0.00000042,-0.00000139
 ,-0.00000036,-0.00000155,-0.00000211,0.00000409,0.00000273,0.00000004,
 -0.00000028,0.00000006,0.00000074,-0.00000099,-0.00000027,0.00000044,-
 0.00000032,0.00000045\\\@


 IT'S WHAT A FELLER THINKS HE KNOWS THAT HURTS HIM...
                    ------
           KIN HUBBARD
 Job cpu time:       0 days 17 hours 37 minutes 31.0 seconds.
 Elapsed time:       0 days  2 hours 12 minutes 25.6 seconds.
 File lengths (MBytes):  RWF=   2530 Int=      0 D2E=      0 Chk=     43 Scr=      1
 Normal termination of Gaussian 16 at Fri Dec 22 01:52:43 2023.
