
Running Job 1 of 1 084-an-SM12.in
qchem 084-an-SM12.in_1214411.0 /expanse/lustre/scratch/selhajj/temp_project/qcscratch/28520813/qchem1214411/ 0
/cm/shared/apps/spack/cpu/opt/spack/linux-centos8-zen2/gcc-10.2.0/qchem-5.4-akfmr7b3t57bfs6qan3padb2wnb2i7cl/exe/qcprog.exe_s 084-an-SM12.in_1214411.0 /expanse/lustre/scratch/selhajj/temp_project/qcscratch/28520813/qchem1214411/
                  Welcome to Q-Chem
     A Quantum Leap Into The Future Of Chemistry


 Q-Chem 5.4, Q-Chem, Inc., Pleasanton, CA (2021)

 License issued to: University of California, San Diego (site)

 E. Epifanovsky,  A. T. B. Gilbert,  Xintian Feng,  Joonho Lee,  Yuezhi Mao,  
 N. Mardirossian,  P. Pokhilko,  A. White,  M. Wormit,  M. P. Coons,  
 A. L. Dempwolff,  Zhengting Gan,  D. Hait,  P. R. Horn,  L. D. Jacobson,  
 I. Kaliman,  J. Kussmann,  A. W. Lange,  Ka Un Lao,  D. S. Levine,  Jie Liu,  
 S. C. McKenzie,  A. F. Morrison,  K. Nanda,  F. Plasser,  D. R. Rehn,  
 M. L. Vidal,  Zhi-Qiang You,  Ying Zhu,  B. Alam,  B. Albrecht,  
 A. Aldossary,  E. Alguire,  J. H. Andersen,  D. Barton,  K. Begam,  A. Behn,  
 Y. A. Bernard,  E. J. Berquist,  H. Burton,  A. Carreras,  K. Carter-Fenk,  
 R. Chakraborty,  A. D. Chien,  K. D. Closser,  V. Cofer-Shabica,  
 S. Dasgupta,  Jia Deng,  M. de Wergifosse,  M. Diedenhofen,  Hainam Do,  
 S. Ehlert,  Po-Tung Fang,  S. Fatehi,  Qingguo Feng,  J. Gayvert,  
 Qinghui Ge,  G. Gidofalvi,  M. Goldey,  J. Gomes,  C. Gonzalez-Espinoza,  
 S. Gulania,  A. Gunina,  M. W. D. Hanson-Heine,  P. H. P. Harbach,  
 A. W. Hauser,  M. F. Herbst,  M. Hernandez Vera,  M. Hodecker,  
 Z. C. Holden,  S. Houck,  Xunkun Huang,  Kerwin Hui,  B. C. Huynh,  
 M. Ivanov,  Hyunjun Ji,  Hanjie Jiang,  B. Kaduk,  S. Kaehler,  
 K. Khistyaev,  Jaehoon Kim,  P. Klunzinger,  Z. Koczor-Benda,  
 Joong Hoon Koh,  D. Kosenkov,  L. Koulias,  T. Kowalczyk,  C. M. Krauter,  
 K. Kue,  A. Kunitsa,  T. Kus,  A. Landau,  K. V. Lawler,  D. Lefrancois,  
 S. Lehtola,  Rain Li,  Yi-Pei Li,  Jiashu Liang,  M. Liebenthal,  
 Hung-Hsuan Lin,  You-Sheng Lin,  Fenglai Liu,  Kuan-Yu Liu,  
 M. Loipersberger,  A. Luenser,  A. Manjanath,  P. Manohar,  E. Mansoor,  
 S. F. Manzer,  Shan-Ping Mao,  A. V. Marenich,  T. Markovich,  S. Mason,  
 S. A. Maurer,  P. F. McLaughlin,  M. F. S. J. Menger,  J.-M. Mewes,  
 S. A. Mewes,  P. Morgante,  J. W. Mullinax,  T. S. Nguyen-Beck,  
 K. J. Oosterbaan,  G. Paran,  Alexander C. Paul,  Suranjan K. Paul,  
 F. Pavosevic,  Zheng Pei,  S. Prager,  E. I. Proynov,  E. Ramos,  B. Rana,  
 A. E. Rask,  A. Rettig,  R. M. Richard,  F. Rob,  E. Rossomme,  T. Scheele,  
 M. Scheurer,  M. Schneider,  N. Sergueev,  S. M. Sharada,  W. Skomorowski,  
 D. W. Small,  C. J. Stein,  Yu-Chuan Su,  E. J. Sundstrom,  Zhen Tao,  
 J. Thirman,  T. Tsuchimochi,  N. M. Tubman,  S. P. Veccham,  O. Vydrov,  
 J. Wenzel,  J. Witte,  A. Yamada,  Kun Yao,  S. Yeganeh,  S. R. Yost,  
 A. Zech,  Igor Ying Zhang,  Xing Zhang,  Yu Zhang,  D. Zuev,  
 A. Aspuru-Guzik,  A. T. Bell,  N. A. Besley,  K. B. Bravaya,  B. R. Brooks,  
 D. Casanova,  Jeng-Da Chai,  S. Coriani,  C. J. Cramer,  
 A. E. DePrince, III,  R. A. DiStasio Jr.,  A. Dreuw,  B. D. Dunietz,  
 T. R. Furlani,  W. A. Goddard III,  S. Grimme,  S. Hammes-Schiffer,  
 T. Head-Gordon,  W. J. Hehre,  Chao-Ping Hsu,  T.-C. Jagau,  Yousung Jung,  
 A. Klamt,  Jing Kong,  D. S. Lambrecht,  WanZhen Liang,  N. J. Mayhall,  
 C. W. McCurdy,  J. B. Neaton,  C. Ochsenfeld,  J. A. Parkhill,  R. Peverati,  
 V. A. Rassolov,  Yihan Shao,  L. V. Slipchenko,  T. Stauch,  R. P. Steele,  
 J. E. Subotnik,  A. J. W. Thom,  A. Tkatchenko,  D. G. Truhlar,  
 T. Van Voorhis,  T. A. Wesolowski,  K. B. Whaley,  H. L. Woodcock III,  
 P. M. Zimmerman,  S. Faraji,  P. M. W. Gill,  M. Head-Gordon,  
 J. M. Herbert,  A. I. Krylov

 Contributors to earlier versions of Q-Chem not listed above: 
 R. D. Adamson,  B. Austin,  R. Baer,  J. Baker,  G. J. O. Beran,  
 K. Brandhorst,  S. T. Brown,  E. F. C. Byrd,  A. K. Chakraborty,  
 G. K. L. Chan,  Chun-Min Chang,  Yunqing Chen,  C.-L. Cheng,  
 Siu Hung Chien,  D. M. Chipman,  D. L. Crittenden,  H. Dachsel,  
 R. J. Doerksen,  A. D. Dutoi,  R. G. Edgar,  J. Fosso-Tande,  
 L. Fusti-Molnar,  D. Ghosh,  A. Ghysels,  A. Golubeva-Zadorozhnaya,  
 J. Gonthier,  M. S. Gordon,  S. R. Gwaltney,  G. Hawkins,  J. E. Herr,  
 A. Heyden,  S. Hirata,  E. G. Hohenstein,  G. Kedziora,  F. J. Keil,  
 C. Kelley,  Jihan Kim,  R. A. King,  R. Z. Khaliullin,  P. P. Korambath,  
 W. Kurlancheek,  A. Laurent,  A. M. Lee,  M. S. Lee,  S. V. Levchenko,  
 Ching Yeh Lin,  D. Liotard,  E. Livshits,  R. C. Lochan,  I. Lotan,  
 L. A. Martinez-Martinez,  P. E. Maslen,  N. Nair,  D. P. O'Neill,  
 D. Neuhauser,  E. Neuscamman,  C. M. Oana,  R. Olivares-Amaya,  R. Olson,  
 T. M. Perrine,  B. Peters,  P. A. Pieniazek,  A. Prociuk,  Y. M. Rhee,  
 J. Ritchie,  M. A. Rohrdanz,  E. Rosta,  N. J. Russ,  H. F. Schaefer III,  
 M. W. Schmidt,  N. E. Schultz,  S. Sharma,  N. Shenvi,  C. D. Sherrill,  
 A. C. Simmonett,  A. Sodt,  T. Stein,  D. Stuck,  K. S. Thanthiriwatte,  
 V. Vanovschi,  L. Vogt,  Tao Wang,  A. Warshel,  M. A. Watson,  
 C. F. Williams,  Q. Wu,  X. Xu,  Jun Yang,  W. Zhang,  Yan Zhao

 Please cite Q-Chem as follows:
 Y. Shao et al., Mol. Phys. 113, 184-215 (2015)
 DOI: 10.1080/00268976.2014.952696

 Q-Chem 5.4.0 for Intel X86 EM64T Linux

 Parts of Q-Chem use Armadillo 9.800.1 (Horizon Scraper).
 http://arma.sourceforge.net/

 Q-Chem begins on Tue Feb  6 18:20:34 2024  

 Host: 
0

     Scratch files written to /expanse/lustre/scratch/selhajj/temp_project/qcscratch/28520813/qchem1214411//
 May1621 |scratch|qcdevops|jenkins|workspace|build_RNUM    
 Processing $rem in /cm/shared/apps/spack/cpu/opt/spack/linux-centos8-zen2/gcc-10.2.0/qchem-5.4-akfmr7b3t57bfs6qan3padb2wnb2i7cl/config/preferences:
 Processing $rem in /home/selhajj/.qchemrc:
 Symmetry turned off for PCM/SM12/SMD calculation
 Method-specific promolecule density matrix will be built for SM12 calculation
 scfman must perform a gas-phase calculation before SMx, setting SMX_GAS_PHASE = 1

 Checking the input file for inconsistencies... 	...done.

--------------------------------------------------------------
User input:
--------------------------------------------------------------
$molecule
-2 1
C                  2.8116100000     -0.4061810000      0.4152590000
O                  1.6484480000      0.2966420000      0.8181500000
C                  0.4544430000     -0.3204880000      0.4312410000
C                 -0.3913240000      0.3887380000     -0.4378800000
O                  0.0928130000      1.5841080000     -0.9790850000
C                 -0.6638360000      2.7250300000     -0.6118210000
C                 -1.6894900000     -0.0885490000     -0.8415670000
O                 -2.4713220000      0.5656480000     -1.6474560000
C                 -2.0165730000     -1.3598080000     -0.2752020000
C                 -1.1655390000     -2.0762110000      0.5667400000
C                  0.1185620000     -1.6074540000      0.9852160000
O                  0.8988960000     -2.2628700000      1.7916700000
H                  2.9040750000     -0.4144550000     -0.6840020000
H                  3.6720840000      0.1347610000      0.8317770000
H                  2.7887580000     -1.4310080000      0.7999930000
H                 -0.2312970000      3.5811470000     -1.1470910000
H                 -0.5852960000      2.9158040000      0.4718760000
H                 -1.7127180000      2.5935170000     -0.8971020000
H                 -2.9847840000     -1.7759950000     -0.5554520000
H                 -1.4775100000     -3.0423760000      0.9647360000
$end

$rem
Scf_algorithm RCA_DIIS
BASIS  =  6-311++G(d,p)
GUI  =  2
JOB_TYPE  =  SP
METHOD  =  B3LYP
SCF_CONVERGENCE  = 6
SOLVENT_METHOD = sm12
$end

$smx
solvent dimethylformamide
charges CM5
$end





--------------------------------------------------------------
 ----------------------------------------------------------------
             Standard Nuclear Orientation (Angstroms)
    I     Atom           X                Y                Z
 ----------------------------------------------------------------
    1      C       2.8116100000    -0.4061810000     0.4152590000
    2      O       1.6484480000     0.2966420000     0.8181500000
    3      C       0.4544430000    -0.3204880000     0.4312410000
    4      C      -0.3913240000     0.3887380000    -0.4378800000
    5      O       0.0928130000     1.5841080000    -0.9790850000
    6      C      -0.6638360000     2.7250300000    -0.6118210000
    7      C      -1.6894900000    -0.0885490000    -0.8415670000
    8      O      -2.4713220000     0.5656480000    -1.6474560000
    9      C      -2.0165730000    -1.3598080000    -0.2752020000
   10      C      -1.1655390000    -2.0762110000     0.5667400000
   11      C       0.1185620000    -1.6074540000     0.9852160000
   12      O       0.8988960000    -2.2628700000     1.7916700000
   13      H       2.9040750000    -0.4144550000    -0.6840020000
   14      H       3.6720840000     0.1347610000     0.8317770000
   15      H       2.7887580000    -1.4310080000     0.7999930000
   16      H      -0.2312970000     3.5811470000    -1.1470910000
   17      H      -0.5852960000     2.9158040000     0.4718760000
   18      H      -1.7127180000     2.5935170000    -0.8971020000
   19      H      -2.9847840000    -1.7759950000    -0.5554520000
   20      H      -1.4775100000    -3.0423760000     0.9647360000
 ----------------------------------------------------------------
 Nuclear Repulsion Energy =         699.02748615 hartrees
 There are       45 alpha and       45 beta electrons
 Requested basis set is 6-311++G(d,p)
 There are 112 shells and 320 basis functions

 Total QAlloc Memory Limit   8000 MB
 Mega-Array Size       188 MB
 MEM_STATIC part       192 MB
 A cutoff of  1.0D-10 yielded   5193 shell pairs
 There are     43937 function pairs (     47177 Cartesian)
 Smallest overlap matrix eigenvalue = 1.08E-06

 Q-Chem warning in module stvman/mkSTV.C, line 323:

 Overlap eigenvalue is smaller than square root of threshold
 Use THRESH >= 12 to get rid of this warning


 Scale SEOQF with 1.000000e-01/1.000000e-01/1.000000e-01

 Standard Electronic Orientation quadrupole field applied
 Nucleus-field energy     =     0.0000000137 hartrees
 ================ Generating on-the-fly Promolecule Density  ================
Attempting to make child job directory: /expanse/lustre/scratch/selhajj/temp_project/qcscratch/28520813/qchem1214411//Frg1/
Attempting to make child job directory: /expanse/lustre/scratch/selhajj/temp_project/qcscratch/28520813/qchem1214411//Frg2/
Attempting to make child job directory: /expanse/lustre/scratch/selhajj/temp_project/qcscratch/28520813/qchem1214411//Frg3/
Creating input file /expanse/lustre/scratch/selhajj/temp_project/qcscratch/28520813/qchem1214411/Frg1.input
using default PutDataFrgm: nothing
calling putenv with: QCSCRATCH=/expanse/lustre/scratch/selhajj/temp_project/qcscratch/28520813/qchem1214411/ 
Spawning Job For Fragment 0
Done Job For Fragment 0
calling putenv with: QCSCRATCH=/expanse/lustre/scratch/selhajj/temp_project/qcscratch/28520813 
calling putenv with: QCTHREADS=8 
Creating input file /expanse/lustre/scratch/selhajj/temp_project/qcscratch/28520813/qchem1214411/Frg2.input
using default PutDataFrgm: nothing
calling putenv with: QCSCRATCH=/expanse/lustre/scratch/selhajj/temp_project/qcscratch/28520813/qchem1214411/ 
Spawning Job For Fragment 1
Done Job For Fragment 1
calling putenv with: QCSCRATCH=/expanse/lustre/scratch/selhajj/temp_project/qcscratch/28520813 
calling putenv with: QCTHREADS=8 
Creating input file /expanse/lustre/scratch/selhajj/temp_project/qcscratch/28520813/qchem1214411/Frg3.input
using default PutDataFrgm: nothing
calling putenv with: QCSCRATCH=/expanse/lustre/scratch/selhajj/temp_project/qcscratch/28520813/qchem1214411/ 
Spawning Job For Fragment 2
Done Job For Fragment 2
calling putenv with: QCSCRATCH=/expanse/lustre/scratch/selhajj/temp_project/qcscratch/28520813 
calling putenv with: QCTHREADS=8 
 Time for running child jobs:  CPU 0.01 s  wall 3.36 s
 ============= Method Specific Promolecule Density Constructed =============
 Guess from superposition of atomic densities
 Warning:  Energy on first SCF cycle will be non-variational
 SAD guess density has 88.000000 electrons
 A restricted hybrid HF-DFT SCF calculation will be
 performed using Relaxed Constraint Minimization + Pulay DIIS
 SM12 solvation model will be applied
 Exchange:     0.2000 Hartree-Fock + 0.0800 Slater + 0.7200 B88
 Correlation:  0.1900 VWN1RPA + 0.8100 LYP
 Using SG-1 standard quadrature grid
 SCF converges when DIIS error is below 1.0E-06
 using 8 threads for integral computing
 -------------------------------------------------------
 OpenMP Integral computing Module                
 Release: version 1.0, May 2013, Q-Chem Inc. Pittsburgh 
 -------------------------------------------------------
 ---------------------------------------
  Cycle       Energy         DIIS Error
 ---------------------------------------
    1    -612.8884718658      3.47E-02
    2    -610.2593758403      5.48E-03
    3    -610.3385500455      3.68E-03
    4    -610.4103741611      1.30E-03
    5    -610.5824904560      2.00E-03
    6    -610.5913659182      1.44E-03
    7    -610.5994804814      8.47E-04 Done RCA. Switching to DIIS
    8    -610.6242428182      1.12E-03
    9    -610.6228797859      1.04E-03
   10    -610.6226115470      1.03E-03
   11    -610.6245791149      9.73E-04
   12    -610.6272899043      8.89E-04
   13    -610.6296180507      8.18E-04
   14    -610.6296387223      8.17E-04
   15    -610.1736227213      4.56E-03
   16    -610.6371203869      3.92E-04
   17    -610.6396566107      2.70E-04
   18    -610.6411398133      1.38E-04
   19    -610.6412730657      1.22E-04
   20    -610.6414097945      8.25E-05
   21    -610.6414753486      5.69E-05
   22    -610.6415226042      2.44E-05
   23    -610.6415329235      4.89E-06
   24    -610.6415332896      1.28E-06
   25    -610.6415333154      6.06E-07 Convergence criterion met
 ---------------------------------------
 SCF time:  CPU 285.80 s  wall 35.97 s
 A restricted hybrid HF-DFT SCF calculation will be
 performed using Relaxed Constraint Minimization + Pulay DIIS
 SM12 solvation model will be applied
 Exchange:     0.2000 Hartree-Fock + 0.0800 Slater + 0.7200 B88
 Correlation:  0.1900 VWN1RPA + 0.8100 LYP
 Using SG-1 standard quadrature grid
 SCF converges when DIIS error is below 1.0E-06
 
 SM12 calculation using CM5 charges
 Citation of the SM12 model:
 Marenich, A.V.; Cramer, C.J.; Truhlar, D.G.
 J. Chem. Theory Comput. 2013, 9, 609-612.
 iSolventCode=          91
 Solvent: dimethylformamide                                               
 
Hirshfeld: reading atomic densities from disk.

 Charges (in A.U.) from CM5PAC (Nov. 11, 2011)
 -----------------------------------------------
 Center     Atomic      CM5         Hirshfeld
 Number     Number      Charge      Charge
 -----------------------------------------------
    1          6       -0.173053   -0.055192
    2          8       -0.271260   -0.189199
    3          6        0.015254   -0.008859
    4          6        0.015273   -0.008839
    5          8       -0.271180   -0.189118
    6          6       -0.172939   -0.055081
    7          6        0.012784   -0.013533
    8          8       -0.550931   -0.508066
    9          6       -0.187379   -0.138282
   10          6       -0.187277   -0.138181
   11          6        0.012830   -0.013480
   12          8       -0.550853   -0.507979
   13          1        0.040574   -0.017822
   14          1        0.009496   -0.049607
   15          1        0.070211    0.003915
   16          1        0.009629   -0.049473
   17          1        0.040612   -0.017789
   18          1        0.070216    0.003935
   19          1        0.034315   -0.023355
   20          1        0.034270   -0.023401
 -----------------------------------------------

 Dipole moment (in Debye)
 -----------------------------------------------
                 X        Y        Z     Total
 -----------------------------------------------
 CM5          3.1149   3.3650  -0.2841   4.5942
 Hirshfeld    3.4004   3.6738  -0.3111   5.0156
 -----------------------------------------------

 ---------------------------------------
  Cycle       Energy         DIIS Error
 ---------------------------------------
    1    -623.0977037559      3.07E-04 Done RCA. Switching to DIIS
Hirshfeld: reading atomic densities from disk.

 Charges (in A.U.) from CM5PAC (Nov. 11, 2011)
 -----------------------------------------------
 Center     Atomic      CM5         Hirshfeld
 Number     Number      Charge      Charge
 -----------------------------------------------
    1          6       -0.139820   -0.021959
    2          8       -0.264134   -0.182073
    3          6       -0.014991   -0.039104
    4          6       -0.014970   -0.039083
    5          8       -0.264068   -0.182007
    6          6       -0.139728   -0.021870
    7          6       -0.030179   -0.056496
    8          8       -0.551400   -0.508535
    9          6       -0.225025   -0.175929
   10          6       -0.224931   -0.175835
   11          6       -0.030145   -0.056455
   12          8       -0.551340   -0.508466
   13          1        0.054875   -0.003521
   14          1        0.066372    0.007269
   15          1        0.068775    0.002479
   16          1        0.066437    0.007335
   17          1        0.054915   -0.003486
   18          1        0.068776    0.002496
   19          1        0.035693   -0.021977
   20          1        0.035648   -0.022023
 -----------------------------------------------

 Dipole moment (in Debye)
 -----------------------------------------------
                 X        Y        Z     Total
 -----------------------------------------------
 CM5          5.4737   5.9106  -0.4997   8.0713
 Hirshfeld    5.7592   6.2194  -0.5268   8.4927
 -----------------------------------------------

    2    -610.6329477585      4.00E-04
Hirshfeld: reading atomic densities from disk.

 Charges (in A.U.) from CM5PAC (Nov. 11, 2011)
 -----------------------------------------------
 Center     Atomic      CM5         Hirshfeld
 Number     Number      Charge      Charge
 -----------------------------------------------
    1          6       -0.154459   -0.036598
    2          8       -0.282180   -0.200119
    3          6        0.028048    0.003935
    4          6        0.028064    0.003951
    5          8       -0.282117   -0.200055
    6          6       -0.154386   -0.036528
    7          6        0.013645   -0.012672
    8          8       -0.588223   -0.545358
    9          6       -0.212283   -0.163186
   10          6       -0.212175   -0.163079
   11          6        0.013704   -0.012607
   12          8       -0.588126   -0.545252
   13          1        0.057932   -0.000464
   14          1        0.067455    0.008352
   15          1        0.069781    0.003485
   16          1        0.067503    0.008401
   17          1        0.057970   -0.000431
   18          1        0.069783    0.003502
   19          1        0.000488   -0.057183
   20          1        0.000439   -0.057232
 -----------------------------------------------

 Dipole moment (in Debye)
 -----------------------------------------------
                 X        Y        Z     Total
 -----------------------------------------------
 CM5          5.7494   6.2067  -0.5246   8.4767
 Hirshfeld    6.0349   6.5155  -0.5516   8.8981
 -----------------------------------------------

    3    -610.6330663747      5.75E-04
Hirshfeld: reading atomic densities from disk.

 Charges (in A.U.) from CM5PAC (Nov. 11, 2011)
 -----------------------------------------------
 Center     Atomic      CM5         Hirshfeld
 Number     Number      Charge      Charge
 -----------------------------------------------
    1          6       -0.144922   -0.027061
    2          8       -0.267708   -0.185647
    3          6       -0.001395   -0.025507
    4          6       -0.001379   -0.025492
    5          8       -0.267641   -0.185580
    6          6       -0.144846   -0.026988
    7          6       -0.015771   -0.042087
    8          8       -0.559149   -0.516284
    9          6       -0.223855   -0.174758
   10          6       -0.223752   -0.174656
   11          6       -0.015729   -0.042040
   12          8       -0.559086   -0.516212
   13          1        0.058313   -0.000083
   14          1        0.070533    0.011430
   15          1        0.069303    0.003006
   16          1        0.070574    0.011472
   17          1        0.058347   -0.000054
   18          1        0.069300    0.003019
   19          1        0.014867   -0.042804
   20          1        0.014821   -0.042850
 -----------------------------------------------

 Dipole moment (in Debye)
 -----------------------------------------------
                 X        Y        Z     Total
 -----------------------------------------------
 CM5          5.8835   6.3520  -0.5371   8.6748
 Hirshfeld    6.1690   6.6608  -0.5642   9.0962
 -----------------------------------------------

    4    -610.6340746717      1.08E-04
Hirshfeld: reading atomic densities from disk.

 Charges (in A.U.) from CM5PAC (Nov. 11, 2011)
 -----------------------------------------------
 Center     Atomic      CM5         Hirshfeld
 Number     Number      Charge      Charge
 -----------------------------------------------
    1          6       -0.142572   -0.024711
    2          8       -0.270345   -0.188284
    3          6        0.003052   -0.021061
    4          6        0.003070   -0.021042
    5          8       -0.270279   -0.188218
    6          6       -0.142496   -0.024638
    7          6       -0.014105   -0.040422
    8          8       -0.568258   -0.525394
    9          6       -0.224030   -0.174933
   10          6       -0.223929   -0.174833
   11          6       -0.014060   -0.040370
   12          8       -0.568180   -0.525306
   13          1        0.059336    0.000940
   14          1        0.071873    0.012770
   15          1        0.069897    0.003601
   16          1        0.071912    0.012809
   17          1        0.059367    0.000966
   18          1        0.069894    0.003613
   19          1        0.015356   -0.042314
   20          1        0.015312   -0.042359
 -----------------------------------------------

 Dipole moment (in Debye)
 -----------------------------------------------
                 X        Y        Z     Total
 -----------------------------------------------
 CM5          5.9721   6.4473  -0.5451   8.8052
 Hirshfeld    6.2577   6.7561  -0.5721   9.2266
 -----------------------------------------------

    5    -610.6339261313      6.09E-05
Hirshfeld: reading atomic densities from disk.

 Charges (in A.U.) from CM5PAC (Nov. 11, 2011)
 -----------------------------------------------
 Center     Atomic      CM5         Hirshfeld
 Number     Number      Charge      Charge
 -----------------------------------------------
    1          6       -0.143274   -0.025413
    2          8       -0.270712   -0.188651
    3          6        0.002817   -0.021296
    4          6        0.002834   -0.021279
    5          8       -0.270647   -0.188586
    6          6       -0.143199   -0.025341
    7          6       -0.014022   -0.040339
    8          8       -0.564468   -0.521603
    9          6       -0.225674   -0.176577
   10          6       -0.225569   -0.176474
   11          6       -0.013977   -0.040287
   12          8       -0.564400   -0.521525
   13          1        0.060044    0.001648
   14          1        0.072755    0.013652
   15          1        0.069746    0.003450
   16          1        0.072792    0.013690
   17          1        0.060074    0.001673
   18          1        0.069743    0.003462
   19          1        0.013000   -0.044671
   20          1        0.012956   -0.044715
 -----------------------------------------------

 Dipole moment (in Debye)
 -----------------------------------------------
                 X        Y        Z     Total
 -----------------------------------------------
 CM5          6.0298   6.5096  -0.5504   8.8902
 Hirshfeld    6.3153   6.8184  -0.5775   9.3116
 -----------------------------------------------

    6    -610.6334714973      1.81E-05
Hirshfeld: reading atomic densities from disk.

 Charges (in A.U.) from CM5PAC (Nov. 11, 2011)
 -----------------------------------------------
 Center     Atomic      CM5         Hirshfeld
 Number     Number      Charge      Charge
 -----------------------------------------------
    1          6       -0.143302   -0.025441
    2          8       -0.269519   -0.187458
    3          6        0.002490   -0.021622
    4          6        0.002507   -0.021605
    5          8       -0.269453   -0.187392
    6          6       -0.143227   -0.025369
    7          6       -0.014114   -0.040431
    8          8       -0.565263   -0.522398
    9          6       -0.225091   -0.175995
   10          6       -0.224988   -0.175892
   11          6       -0.014069   -0.040379
   12          8       -0.565190   -0.522316
   13          1        0.060010    0.001615
   14          1        0.072692    0.013589
   15          1        0.069691    0.003395
   16          1        0.072729    0.013627
   17          1        0.060040    0.001639
   18          1        0.069687    0.003406
   19          1        0.012617   -0.045053
   20          1        0.012573   -0.045098
 -----------------------------------------------

 Dipole moment (in Debye)
 -----------------------------------------------
                 X        Y        Z     Total
 -----------------------------------------------
 CM5          6.0437   6.5245  -0.5516   8.9107
 Hirshfeld    6.3292   6.8333  -0.5787   9.3321
 -----------------------------------------------

    7    -610.6334153569      6.29E-06
Hirshfeld: reading atomic densities from disk.

 Charges (in A.U.) from CM5PAC (Nov. 11, 2011)
 -----------------------------------------------
 Center     Atomic      CM5         Hirshfeld
 Number     Number      Charge      Charge
 -----------------------------------------------
    1          6       -0.143079   -0.025219
    2          8       -0.269921   -0.187860
    3          6        0.002726   -0.021386
    4          6        0.002744   -0.021369
    5          8       -0.269855   -0.187794
    6          6       -0.143005   -0.025147
    7          6       -0.014125   -0.040442
    8          8       -0.565025   -0.522160
    9          6       -0.225453   -0.176357
   10          6       -0.225350   -0.176254
   11          6       -0.014079   -0.040390
   12          8       -0.564955   -0.522080
   13          1        0.060106    0.001710
   14          1        0.072727    0.013625
   15          1        0.069750    0.003453
   16          1        0.072764    0.013662
   17          1        0.060136    0.001734
   18          1        0.069746    0.003465
   19          1        0.012506   -0.045165
   20          1        0.012462   -0.045208
 -----------------------------------------------

 Dipole moment (in Debye)
 -----------------------------------------------
                 X        Y        Z     Total
 -----------------------------------------------
 CM5          6.0508   6.5323  -0.5523   8.9212
 Hirshfeld    6.3363   6.8411  -0.5794   9.3426
 -----------------------------------------------

    8    -610.6333625463      1.86E-06
Hirshfeld: reading atomic densities from disk.

 Charges (in A.U.) from CM5PAC (Nov. 11, 2011)
 -----------------------------------------------
 Center     Atomic      CM5         Hirshfeld
 Number     Number      Charge      Charge
 -----------------------------------------------
    1          6       -0.143162   -0.025301
    2          8       -0.269847   -0.187786
    3          6        0.002662   -0.021451
    4          6        0.002679   -0.021434
    5          8       -0.269781   -0.187720
    6          6       -0.143087   -0.025229
    7          6       -0.014116   -0.040433
    8          8       -0.565005   -0.522140
    9          6       -0.225448   -0.176352
   10          6       -0.225345   -0.176249
   11          6       -0.014071   -0.040381
   12          8       -0.564932   -0.522058
   13          1        0.060159    0.001764
   14          1        0.072786    0.013683
   15          1        0.069766    0.003470
   16          1        0.072822    0.013720
   17          1        0.060189    0.001788
   18          1        0.069763    0.003482
   19          1        0.012417   -0.045254
   20          1        0.012374   -0.045297
 -----------------------------------------------

 Dipole moment (in Debye)
 -----------------------------------------------
                 X        Y        Z     Total
 -----------------------------------------------
 CM5          6.0538   6.5355  -0.5526   8.9256
 Hirshfeld    6.3394   6.8443  -0.5796   9.3471
 -----------------------------------------------

    9    -610.6333460587      8.53E-07 Convergence criterion met
 ---------------------------------------
 SCF time:  CPU 213.04 s  wall 115.22 s
(0)  E-EN(g) gas-phase elect-nuc energy                 -610.641533321 a.u.
(1)  E-EN(liq) elect-nuc energy of solute               -610.633346059 a.u.
(2)  G-P(liq) polarization free energy of solvation          -179.8084 kcal/mol
(3)  G-ENP(liq) elect-nuc-pol free energy of system     -610.919889026 a.u.
(4)  G-CDS(liq) cavity-dispersion-solvent structure 
     free energy                                               -3.9360 kcal/mol
(5)  G-P-CDS(liq) = G-P(liq) + G-CDS(liq) = (2) + (4)        -183.7445 kcal/mol
(6)  G-S(liq) free energy of system = (1) + (5)         -610.926161510 a.u.
(7)  DeltaE-EN(liq) elect-nuc reorganization
     energy of solute molecule (7) = (1) - (0)                  5.1376 kcal/mol
(8)  DeltaG-ENP(liq) elect-nuc-pol free energy
     of solvation (8) = (3) - (0)                            -174.6708 kcal/mol
(9)  DeltaG-S(liq) free energy of  solvation
     (9) = (6) - (0)                                         -178.6069 kcal/mol
 SCF   energy in the final basis set = -610.92616151
 Total energy in the final basis set = -610.92616151
 
 --------------------------------------------------------------
 
                    Orbital Energies (a.u.)
 --------------------------------------------------------------
 
 Alpha MOs
 -- Occupied --
-19.1227 -19.1226 -19.0181 -19.0181 -10.2084 -10.2084 -10.1874 -10.1870
-10.1791 -10.1791 -10.1383 -10.1378  -1.0412  -1.0238  -0.9280  -0.9253
 -0.7888  -0.7265  -0.6951  -0.6549  -0.6464  -0.5681  -0.5497  -0.4890
 -0.4794  -0.4575  -0.4542  -0.4374  -0.4351  -0.4222  -0.4101  -0.3694
 -0.3593  -0.3557  -0.3443  -0.3346  -0.3280  -0.3124  -0.2690  -0.2684
 -0.2282  -0.2074  -0.1955  -0.1927  -0.1229
 -- Virtual --
 -0.0991  -0.0846  -0.0584  -0.0550  -0.0297  -0.0283  -0.0171  -0.0165
 -0.0111  -0.0004   0.0053   0.0120   0.0163   0.0257   0.0327   0.0404
  0.0419   0.0422   0.0507   0.0550   0.0563   0.0691   0.0696   0.0729
  0.0767   0.0813   0.0870   0.0963   0.1052   0.1091   0.1116   0.1185
  0.1243   0.1250   0.1364   0.1386   0.1465   0.1471   0.1530   0.1587
  0.1759   0.1852   0.1895   0.1966   0.2024   0.2102   0.2174   0.2219
  0.2353   0.2527   0.2544   0.2564   0.2703   0.2798   0.2858   0.2860
  0.2970   0.2984   0.3032   0.3038   0.3168   0.3211   0.3226   0.3394
  0.3432   0.3629   0.3645   0.3724   0.3764   0.3910   0.3934   0.4080
  0.4140   0.4287   0.4453   0.4746   0.4750   0.4830   0.5015   0.5083
  0.5159   0.5373   0.5586   0.5724   0.5851   0.5939   0.6041   0.6262
  0.6265   0.6351   0.6509   0.6545   0.6621   0.6729   0.6735   0.6780
  0.6915   0.7054   0.7212   0.7389   0.7467   0.7587   0.7904   0.7957
  0.8245   0.8509   0.8771   0.8898   0.8924   0.9092   0.9273   0.9486
  0.9885   0.9966   1.0104   1.0119   1.0259   1.0444   1.0576   1.0664
  1.0844   1.1018   1.1127   1.1518   1.1700   1.1910   1.1928   1.2290
  1.2317   1.2560   1.2685   1.2806   1.2941   1.3040   1.3359   1.3492
  1.3494   1.3680   1.3985   1.4166   1.4287   1.4519   1.4645   1.4704
  1.5154   1.5531   1.5724   1.5803   1.5907   1.5924   1.6101   1.6429
  1.6433   1.6943   1.6960   1.7074   1.7138   1.7178   1.7214   1.7267
  1.7623   1.8011   1.8155   1.8176   1.8203   1.8287   1.8575   1.8643
  1.8863   1.9110   1.9356   1.9869   1.9954   2.0020   2.0168   2.0236
  2.0822   2.1362   2.1396   2.1516   2.1594   2.1967   2.1978   2.2270
  2.2585   2.2905   2.2967   2.3681   2.4115   2.4324   2.4531   2.5172
  2.5203   2.5291   2.5319   2.5778   2.5924   2.6118   2.6200   2.6563
  2.6876   2.6916   2.7139   2.7438   2.7713   2.7854   2.7865   2.8572
  2.8768   2.9118   2.9130   2.9808   2.9923   3.0013   3.0208   3.0260
  3.0357   3.0542   3.0862   3.1050   3.1056   3.1368   3.1449   3.2021
  3.2088   3.2736   3.2828   3.3160   3.3606   3.3610   3.3808   3.4454
  3.4466   3.5118   3.5558   3.6016   3.6152   3.7626   3.7841   3.8023
  3.8178   3.8445   3.8799   4.0336   4.0766   4.0831   4.1581   4.2351
  4.2363   4.3198   4.8166   5.0916   5.1421   5.1683   5.2073   5.2861
  5.3264   5.3802   5.4619   5.6247   5.7905   5.8264   5.8748  23.5938
 23.8834  23.9201  23.9208  23.9589  23.9915  24.0424  24.1597  49.9298
 49.9836  50.0780  50.1238
 --------------------------------------------------------------
 
          Ground-State Mulliken Net Atomic Charges

     Atom                 Charge (a.u.)
  ----------------------------------------
      1 C                     0.260240
      2 O                    -0.009400
      3 C                     0.459539
      4 C                     0.449878
      5 O                    -0.007662
      6 C                     0.260638
      7 C                    -0.902762
      8 O                    -0.384553
      9 C                    -0.837264
     10 C                    -0.838627
     11 C                    -0.901463
     12 O                    -0.384804
     13 H                     0.070118
     14 H                     0.280294
     15 H                     0.121757
     16 H                     0.280260
     17 H                     0.069974
     18 H                     0.121782
     19 H                    -0.054139
     20 H                    -0.053807
  ----------------------------------------
  Sum of atomic charges =    -2.000000

 -----------------------------------------------------------------
                    Cartesian Multipole Moments
 -----------------------------------------------------------------
    Charge (ESU x 10^10)
                -9.6064
    Dipole Moment (Debye)
         X       6.7273      Y       7.2615      Z      -0.6142
       Tot       9.9178
    Quadrupole Moments (Debye-Ang)
        XX    -111.2608     XY       3.1457     YY    -107.3269
        XZ     -20.2195     YZ      18.7433     ZZ    -105.7739
    Octopole Moments (Debye-Ang^2)
       XXX     124.3480    XXY      19.9250    XYY       9.9061
       YYY     118.8337    XXZ      30.4535    XYZ       4.5916
       YYZ     -35.7850    XZZ      33.0490    YZZ      41.8106
       ZZZ      -9.9142
    Hexadecapole Moments (Debye-Ang^3)
      XXXX   -1540.5616   XXXY      29.6973   XXYY    -469.0279
      XYYY      34.4971   YYYY   -1420.9567   XXXZ    -310.3159
      XXYZ     107.8297   XYYZ    -104.8986   YYYZ     309.3243
      XXZZ    -403.7420   XYZZ      37.4462   YYZZ    -382.4044
      XZZZ    -284.3117   YZZZ     298.8761   ZZZZ    -647.7489
 -----------------------------------------------------------------
 Total job time:  156.50s(wall), 505.02s(cpu) 
 Tue Feb  6 18:23:10 2024

        *************************************************************
        *                                                           *
        *  Thank you very much for using Q-Chem.  Have a nice day.  *
        *                                                           *
        *************************************************************


