
Running Job 1 of 1 178-rad-SM12.in
qchem 178-rad-SM12.in_441401.0 /expanse/lustre/scratch/selhajj/temp_project/qcscratch/28445613/qchem441401/ 0
/cm/shared/apps/spack/cpu/opt/spack/linux-centos8-zen2/gcc-10.2.0/qchem-5.4-akfmr7b3t57bfs6qan3padb2wnb2i7cl/exe/qcprog.exe_s 178-rad-SM12.in_441401.0 /expanse/lustre/scratch/selhajj/temp_project/qcscratch/28445613/qchem441401/
                  Welcome to Q-Chem
     A Quantum Leap Into The Future Of Chemistry


 Q-Chem 5.4, Q-Chem, Inc., Pleasanton, CA (2021)

 License issued to: University of California, San Diego (site)

 E. Epifanovsky,  A. T. B. Gilbert,  Xintian Feng,  Joonho Lee,  Yuezhi Mao,  
 N. Mardirossian,  P. Pokhilko,  A. White,  M. Wormit,  M. P. Coons,  
 A. L. Dempwolff,  Zhengting Gan,  D. Hait,  P. R. Horn,  L. D. Jacobson,  
 I. Kaliman,  J. Kussmann,  A. W. Lange,  Ka Un Lao,  D. S. Levine,  Jie Liu,  
 S. C. McKenzie,  A. F. Morrison,  K. Nanda,  F. Plasser,  D. R. Rehn,  
 M. L. Vidal,  Zhi-Qiang You,  Ying Zhu,  B. Alam,  B. Albrecht,  
 A. Aldossary,  E. Alguire,  J. H. Andersen,  D. Barton,  K. Begam,  A. Behn,  
 Y. A. Bernard,  E. J. Berquist,  H. Burton,  A. Carreras,  K. Carter-Fenk,  
 R. Chakraborty,  A. D. Chien,  K. D. Closser,  V. Cofer-Shabica,  
 S. Dasgupta,  Jia Deng,  M. de Wergifosse,  M. Diedenhofen,  Hainam Do,  
 S. Ehlert,  Po-Tung Fang,  S. Fatehi,  Qingguo Feng,  J. Gayvert,  
 Qinghui Ge,  G. Gidofalvi,  M. Goldey,  J. Gomes,  C. Gonzalez-Espinoza,  
 S. Gulania,  A. Gunina,  M. W. D. Hanson-Heine,  P. H. P. Harbach,  
 A. W. Hauser,  M. F. Herbst,  M. Hernandez Vera,  M. Hodecker,  
 Z. C. Holden,  S. Houck,  Xunkun Huang,  Kerwin Hui,  B. C. Huynh,  
 M. Ivanov,  Hyunjun Ji,  Hanjie Jiang,  B. Kaduk,  S. Kaehler,  
 K. Khistyaev,  Jaehoon Kim,  P. Klunzinger,  Z. Koczor-Benda,  
 Joong Hoon Koh,  D. Kosenkov,  L. Koulias,  T. Kowalczyk,  C. M. Krauter,  
 K. Kue,  A. Kunitsa,  T. Kus,  A. Landau,  K. V. Lawler,  D. Lefrancois,  
 S. Lehtola,  Rain Li,  Yi-Pei Li,  Jiashu Liang,  M. Liebenthal,  
 Hung-Hsuan Lin,  You-Sheng Lin,  Fenglai Liu,  Kuan-Yu Liu,  
 M. Loipersberger,  A. Luenser,  A. Manjanath,  P. Manohar,  E. Mansoor,  
 S. F. Manzer,  Shan-Ping Mao,  A. V. Marenich,  T. Markovich,  S. Mason,  
 S. A. Maurer,  P. F. McLaughlin,  M. F. S. J. Menger,  J.-M. Mewes,  
 S. A. Mewes,  P. Morgante,  J. W. Mullinax,  T. S. Nguyen-Beck,  
 K. J. Oosterbaan,  G. Paran,  Alexander C. Paul,  Suranjan K. Paul,  
 F. Pavosevic,  Zheng Pei,  S. Prager,  E. I. Proynov,  E. Ramos,  B. Rana,  
 A. E. Rask,  A. Rettig,  R. M. Richard,  F. Rob,  E. Rossomme,  T. Scheele,  
 M. Scheurer,  M. Schneider,  N. Sergueev,  S. M. Sharada,  W. Skomorowski,  
 D. W. Small,  C. J. Stein,  Yu-Chuan Su,  E. J. Sundstrom,  Zhen Tao,  
 J. Thirman,  T. Tsuchimochi,  N. M. Tubman,  S. P. Veccham,  O. Vydrov,  
 J. Wenzel,  J. Witte,  A. Yamada,  Kun Yao,  S. Yeganeh,  S. R. Yost,  
 A. Zech,  Igor Ying Zhang,  Xing Zhang,  Yu Zhang,  D. Zuev,  
 A. Aspuru-Guzik,  A. T. Bell,  N. A. Besley,  K. B. Bravaya,  B. R. Brooks,  
 D. Casanova,  Jeng-Da Chai,  S. Coriani,  C. J. Cramer,  
 A. E. DePrince, III,  R. A. DiStasio Jr.,  A. Dreuw,  B. D. Dunietz,  
 T. R. Furlani,  W. A. Goddard III,  S. Grimme,  S. Hammes-Schiffer,  
 T. Head-Gordon,  W. J. Hehre,  Chao-Ping Hsu,  T.-C. Jagau,  Yousung Jung,  
 A. Klamt,  Jing Kong,  D. S. Lambrecht,  WanZhen Liang,  N. J. Mayhall,  
 C. W. McCurdy,  J. B. Neaton,  C. Ochsenfeld,  J. A. Parkhill,  R. Peverati,  
 V. A. Rassolov,  Yihan Shao,  L. V. Slipchenko,  T. Stauch,  R. P. Steele,  
 J. E. Subotnik,  A. J. W. Thom,  A. Tkatchenko,  D. G. Truhlar,  
 T. Van Voorhis,  T. A. Wesolowski,  K. B. Whaley,  H. L. Woodcock III,  
 P. M. Zimmerman,  S. Faraji,  P. M. W. Gill,  M. Head-Gordon,  
 J. M. Herbert,  A. I. Krylov

 Contributors to earlier versions of Q-Chem not listed above: 
 R. D. Adamson,  B. Austin,  R. Baer,  J. Baker,  G. J. O. Beran,  
 K. Brandhorst,  S. T. Brown,  E. F. C. Byrd,  A. K. Chakraborty,  
 G. K. L. Chan,  Chun-Min Chang,  Yunqing Chen,  C.-L. Cheng,  
 Siu Hung Chien,  D. M. Chipman,  D. L. Crittenden,  H. Dachsel,  
 R. J. Doerksen,  A. D. Dutoi,  R. G. Edgar,  J. Fosso-Tande,  
 L. Fusti-Molnar,  D. Ghosh,  A. Ghysels,  A. Golubeva-Zadorozhnaya,  
 J. Gonthier,  M. S. Gordon,  S. R. Gwaltney,  G. Hawkins,  J. E. Herr,  
 A. Heyden,  S. Hirata,  E. G. Hohenstein,  G. Kedziora,  F. J. Keil,  
 C. Kelley,  Jihan Kim,  R. A. King,  R. Z. Khaliullin,  P. P. Korambath,  
 W. Kurlancheek,  A. Laurent,  A. M. Lee,  M. S. Lee,  S. V. Levchenko,  
 Ching Yeh Lin,  D. Liotard,  E. Livshits,  R. C. Lochan,  I. Lotan,  
 L. A. Martinez-Martinez,  P. E. Maslen,  N. Nair,  D. P. O'Neill,  
 D. Neuhauser,  E. Neuscamman,  C. M. Oana,  R. Olivares-Amaya,  R. Olson,  
 T. M. Perrine,  B. Peters,  P. A. Pieniazek,  A. Prociuk,  Y. M. Rhee,  
 J. Ritchie,  M. A. Rohrdanz,  E. Rosta,  N. J. Russ,  H. F. Schaefer III,  
 M. W. Schmidt,  N. E. Schultz,  S. Sharma,  N. Shenvi,  C. D. Sherrill,  
 A. C. Simmonett,  A. Sodt,  T. Stein,  D. Stuck,  K. S. Thanthiriwatte,  
 V. Vanovschi,  L. Vogt,  Tao Wang,  A. Warshel,  M. A. Watson,  
 C. F. Williams,  Q. Wu,  X. Xu,  Jun Yang,  W. Zhang,  Yan Zhao

 Please cite Q-Chem as follows:
 Y. Shao et al., Mol. Phys. 113, 184-215 (2015)
 DOI: 10.1080/00268976.2014.952696

 Q-Chem 5.4.0 for Intel X86 EM64T Linux

 Parts of Q-Chem use Armadillo 9.800.1 (Horizon Scraper).
 http://arma.sourceforge.net/

 Q-Chem begins on Sat Feb  3 11:23:27 2024  

 Host: 
0

     Scratch files written to /expanse/lustre/scratch/selhajj/temp_project/qcscratch/28445613/qchem441401//
 May1621 |scratch|qcdevops|jenkins|workspace|build_RNUM    
 Processing $rem in /cm/shared/apps/spack/cpu/opt/spack/linux-centos8-zen2/gcc-10.2.0/qchem-5.4-akfmr7b3t57bfs6qan3padb2wnb2i7cl/config/preferences:
 Processing $rem in /home/selhajj/.qchemrc:
 Symmetry turned off for PCM/SM12/SMD calculation
 Method-specific promolecule density matrix will be built for SM12 calculation

 Checking the input file for inconsistencies... 	...done.

--------------------------------------------------------------
User input:
--------------------------------------------------------------
$molecule
-1 2
O                 -4.7063940000     -0.6730890000      0.9893960000
C                 -3.4632210000     -0.2295320000      0.5691930000
C                 -3.4294200000      0.9787040000     -0.1572840000
C                 -2.2151860000      1.4624880000     -0.5980930000
C                 -1.0055450000      0.7818330000     -0.3419420000
C                  0.2539340000      1.3425560000     -0.8346270000
O                  0.2967300000      2.4168300000     -1.4819330000
C                  1.4626190000      0.5728810000     -0.5249530000
C                  2.7148430000      1.0510140000     -0.9671110000
C                  3.8812330000      0.3614810000     -0.7003640000
C                  3.8304690000     -0.8477200000      0.0289580000
C                  2.6181070000     -1.3358260000      0.4721010000
C                  1.4104600000     -0.6481630000      0.2116900000
C                  0.1517220000     -1.2048120000      0.7020520000
O                  0.1006110000     -2.2835790000      1.3522020000
C                 -1.0524250000     -0.4368310000      0.3926110000
C                 -2.3034530000     -0.9211880000      0.8380340000
H                 -4.5791090000     -1.4989020000      1.4676230000
H                 -4.3577700000      1.5029930000     -0.3549150000
H                 -2.1551760000      2.3881240000     -1.1590560000
H                  2.7221830000      1.9809930000     -1.5242530000
H                  4.8351480000      0.7458990000     -1.0492650000
H                  4.7465140000     -1.3919890000      0.2401270000
H                  2.5513270000     -2.2606830000      1.0335760000
H                 -2.3082050000     -1.8534790000      1.3962310000
$end

$rem
BASIS  =  6-311++G(d,p)
GUI  =  2
JOB_TYPE  =  SP
METHOD  =  B3LYP
SCF_CONVERGENCE  = 8
SOLVENT_METHOD = sm12
$end

$smx
solvent dimethylformamide
charges CM5
$end





--------------------------------------------------------------
 ----------------------------------------------------------------
             Standard Nuclear Orientation (Angstroms)
    I     Atom           X                Y                Z
 ----------------------------------------------------------------
    1      O      -4.7063940000    -0.6730890000     0.9893960000
    2      C      -3.4632210000    -0.2295320000     0.5691930000
    3      C      -3.4294200000     0.9787040000    -0.1572840000
    4      C      -2.2151860000     1.4624880000    -0.5980930000
    5      C      -1.0055450000     0.7818330000    -0.3419420000
    6      C       0.2539340000     1.3425560000    -0.8346270000
    7      O       0.2967300000     2.4168300000    -1.4819330000
    8      C       1.4626190000     0.5728810000    -0.5249530000
    9      C       2.7148430000     1.0510140000    -0.9671110000
   10      C       3.8812330000     0.3614810000    -0.7003640000
   11      C       3.8304690000    -0.8477200000     0.0289580000
   12      C       2.6181070000    -1.3358260000     0.4721010000
   13      C       1.4104600000    -0.6481630000     0.2116900000
   14      C       0.1517220000    -1.2048120000     0.7020520000
   15      O       0.1006110000    -2.2835790000     1.3522020000
   16      C      -1.0524250000    -0.4368310000     0.3926110000
   17      C      -2.3034530000    -0.9211880000     0.8380340000
   18      H      -4.5791090000    -1.4989020000     1.4676230000
   19      H      -4.3577700000     1.5029930000    -0.3549150000
   20      H      -2.1551760000     2.3881240000    -1.1590560000
   21      H       2.7221830000     1.9809930000    -1.5242530000
   22      H       4.8351480000     0.7458990000    -1.0492650000
   23      H       4.7465140000    -1.3919890000     0.2401270000
   24      H       2.5513270000    -2.2606830000     1.0335760000
   25      H      -2.3082050000    -1.8534790000     1.3962310000
 ----------------------------------------------------------------
 Nuclear Repulsion Energy =        1085.62765707 hartrees
 There are       59 alpha and       58 beta electrons
 Requested basis set is 6-311++G(d,p)
 There are 142 shells and 430 basis functions

 Total QAlloc Memory Limit   8000 MB
 Mega-Array Size       188 MB
 MEM_STATIC part       192 MB
 A cutoff of  1.0D-11 yielded   7937 shell pairs
 There are     75667 function pairs (     81323 Cartesian)
 Smallest overlap matrix eigenvalue = 7.90E-08

 Q-Chem warning in module stvman/mkSTV.C, line 323:

 Overlap eigenvalue is smaller than square root of threshold
 Use THRESH >= 12 to get rid of this warning

 Linear dependence detected in AO basis
 Tighter screening thresholds may be required for diffuse basis sets
 Use S2THRESH > 14 and THRESH = 14 in case of SCF convergence issues
 Number of orthogonalized atomic orbitals = 423
 Maximum deviation from orthogonality = 1.201E-10

 Scale SEOQF with 1.000000e-01/1.000000e-01/1.000000e-01

 Standard Electronic Orientation quadrupole field applied
 Nucleus-field energy     =     0.0000000336 hartrees
 ================ Generating on-the-fly Promolecule Density  ================
Attempting to make child job directory: /expanse/lustre/scratch/selhajj/temp_project/qcscratch/28445613/qchem441401//Frg1/
Attempting to make child job directory: /expanse/lustre/scratch/selhajj/temp_project/qcscratch/28445613/qchem441401//Frg2/
Attempting to make child job directory: /expanse/lustre/scratch/selhajj/temp_project/qcscratch/28445613/qchem441401//Frg3/
Creating input file /expanse/lustre/scratch/selhajj/temp_project/qcscratch/28445613/qchem441401/Frg1.input
using default PutDataFrgm: nothing
calling putenv with: QCSCRATCH=/expanse/lustre/scratch/selhajj/temp_project/qcscratch/28445613/qchem441401/ 
Spawning Job For Fragment 0
Done Job For Fragment 0
calling putenv with: QCSCRATCH=/expanse/lustre/scratch/selhajj/temp_project/qcscratch/28445613 
calling putenv with: QCTHREADS=8 
Creating input file /expanse/lustre/scratch/selhajj/temp_project/qcscratch/28445613/qchem441401/Frg2.input
using default PutDataFrgm: nothing
calling putenv with: QCSCRATCH=/expanse/lustre/scratch/selhajj/temp_project/qcscratch/28445613/qchem441401/ 
Spawning Job For Fragment 1
Done Job For Fragment 1
calling putenv with: QCSCRATCH=/expanse/lustre/scratch/selhajj/temp_project/qcscratch/28445613 
calling putenv with: QCTHREADS=8 
Creating input file /expanse/lustre/scratch/selhajj/temp_project/qcscratch/28445613/qchem441401/Frg3.input
using default PutDataFrgm: nothing
calling putenv with: QCSCRATCH=/expanse/lustre/scratch/selhajj/temp_project/qcscratch/28445613/qchem441401/ 
Spawning Job For Fragment 2
Done Job For Fragment 2
calling putenv with: QCSCRATCH=/expanse/lustre/scratch/selhajj/temp_project/qcscratch/28445613 
calling putenv with: QCTHREADS=8 
 Time for running child jobs:  CPU 0.01 s  wall 3.25 s
 ============= Method Specific Promolecule Density Constructed =============
 Guess from superposition of atomic densities
 Warning:  Energy on first SCF cycle will be non-variational
 SAD guess density has 116.000000 electrons

 -----------------------------------------------------------------------
  General SCF calculation program by
  Eric Jon Sundstrom, Paul Horn, Yuezhi Mao, Dmitri Zuev, Alec White,
  David Stuck, Shaama M.S., Shane Yost, Joonho Lee, David Small,
  Daniel Levine, Susi Lehtola, Hugh Burton, Evgeny Epifanovsky,
  Bang C. Huynh
 -----------------------------------------------------------------------
 Exchange:     0.2000 Hartree-Fock + 0.0800 Slater + 0.7200 B88
 Correlation:  0.1900 VWN1RPA + 0.8100 LYP
 Using SG-1 standard quadrature grid
 using 8 threads for integral computing
 -------------------------------------------------------
 OpenMP Integral computing Module                
 Release: version 1.0, May 2013, Q-Chem Inc. Pittsburgh 
 -------------------------------------------------------
 
 SM12 calculation using CM5 charges
 Citation of the SM12 model:
 Marenich, A.V.; Cramer, C.J.; Truhlar, D.G.
 J. Chem. Theory Comput. 2013, 9, 609-612.
 iSolventCode=          91
 Solvent: dimethylformamide                                               
 
Hirshfeld: reading atomic densities from disk.
warning:  vdwdata pointer should have been initialzed before dftman
 Inaccurate integrated density:
   Number of electrons =   117
   Numerical integral  =   116.001690113327
   Relative error      =    -0.8532563134 %

 Charges (in A.U.) from CM5PAC (Nov. 11, 2011)
 -----------------------------------------------
 Center     Atomic      CM5         Hirshfeld
 Number     Number      Charge      Charge
 -----------------------------------------------
    1          8       -0.223832   -0.024866
    2          6        0.016158    0.005640
    3          6       -0.050037    0.000289
    4          6       -0.051835   -0.000624
    5          6       -0.001948   -0.000153
    6          6        0.037633    0.007006
    7          8       -0.063579   -0.017269
    8          6       -0.002043   -0.000171
    9          6       -0.052220   -0.000688
   10          6       -0.058007   -0.002902
   11          6       -0.057957   -0.002879
   12          6       -0.052239   -0.000667
   13          6       -0.002051   -0.000183
   14          6        0.037137    0.006976
   15          8       -0.063367   -0.017297
   16          6       -0.001799   -0.000161
   17          6       -0.045699    0.001892
   18          1        0.186039    0.011746
   19          1        0.063230    0.004565
   20          1        0.066355    0.005399
   21          1        0.066345    0.005396
   22          1        0.058474    0.003031
   23          1        0.058483    0.003043
   24          1        0.066272    0.005394
   25          1        0.068797    0.005795
 -----------------------------------------------

 Dipole moment (in Debye)
 -----------------------------------------------
                 X        Y        Z     Total
 -----------------------------------------------
 CM5          0.6349  -0.5066   0.2243   0.8427
 Hirshfeld    0.1070   0.0062  -0.0170   0.1085
 -----------------------------------------------

 A unrestricted SCF calculation will be
 performed using DIIS
 SCF converges when DIIS error is below 1.0e-08
 ---------------------------------------
  Cycle       Energy         DIIS error
 ---------------------------------------
Hirshfeld: reading atomic densities from disk.

 Charges (in A.U.) from CM5PAC (Nov. 11, 2011)
 -----------------------------------------------
 Center     Atomic      CM5         Hirshfeld
 Number     Number      Charge      Charge
 -----------------------------------------------
    1          8       -0.484520   -0.285553
    2          6        0.198042    0.187524
    3          6       -0.206925   -0.156599
    4          6       -0.165844   -0.114633
    5          6       -0.098891   -0.097096
    6          6        0.255927    0.225299
    7          8       -0.630674   -0.584364
    8          6       -0.073372   -0.071500
    9          6       -0.174547   -0.123014
   10          6       -0.182547   -0.127442
   11          6       -0.179050   -0.123972
   12          6       -0.174957   -0.123384
   13          6       -0.071721   -0.069854
   14          6        0.244172    0.214011
   15          8       -0.632238   -0.586169
   16          6       -0.064183   -0.062545
   17          6       -0.212512   -0.164920
   18          1        0.440455    0.266162
   19          1        0.177312    0.118647
   20          1        0.168773    0.107817
   21          1        0.168022    0.107073
   22          1        0.177959    0.122515
   23          1        0.178259    0.122818
   24          1        0.167995    0.107116
   25          1        0.174223    0.111222
 -----------------------------------------------

 Dipole moment (in Debye)
 -----------------------------------------------
                 X        Y        Z     Total
 -----------------------------------------------
 CM5         -1.5293  -1.8461   1.2972   2.7257
 Hirshfeld   -2.0572  -1.3333   1.0559   2.6692
 -----------------------------------------------

    1    -768.2870396727      1.63e-02  
Hirshfeld: reading atomic densities from disk.

 Charges (in A.U.) from CM5PAC (Nov. 11, 2011)
 -----------------------------------------------
 Center     Atomic      CM5         Hirshfeld
 Number     Number      Charge      Charge
 -----------------------------------------------
    1          8       -0.257455   -0.058488
    2          6       -0.134988   -0.145506
    3          6       -0.024659    0.025667
    4          6       -0.015485    0.035726
    5          6       -0.040257   -0.038462
    6          6       -0.247008   -0.277636
    7          8        0.102576    0.148886
    8          6       -0.069125   -0.067253
    9          6       -0.038356    0.013176
   10          6       -0.032426    0.022679
   11          6       -0.030980    0.024098
   12          6       -0.040884    0.010689
   13          6       -0.068122   -0.066254
   14          6       -0.256293   -0.286454
   15          8        0.077821    0.123890
   16          6       -0.061963   -0.060326
   17          6       -0.057338   -0.009747
   18          1        0.242944    0.068651
   19          1        0.020354   -0.038311
   20          1       -0.007946   -0.068901
   21          1       -0.022291   -0.083240
   22          1       -0.004266   -0.059709
   23          1       -0.003077   -0.058518
   24          1       -0.024484   -0.085362
   25          1       -0.008727   -0.071728
 -----------------------------------------------

 Dipole moment (in Debye)
 -----------------------------------------------
                 X        Y        Z     Total
 -----------------------------------------------
 CM5         -0.0129  -0.1797   0.1088   0.2104
 Hirshfeld   -0.5409   0.3332  -0.1325   0.6489
 -----------------------------------------------

    2    -763.9200220851      2.01e-03  
Hirshfeld: reading atomic densities from disk.

 Charges (in A.U.) from CM5PAC (Nov. 11, 2011)
 -----------------------------------------------
 Center     Atomic      CM5         Hirshfeld
 Number     Number      Charge      Charge
 -----------------------------------------------
    1          8       -0.402888   -0.203922
    2          6        0.068507    0.057989
    3          6       -0.097948   -0.047622
    4          6       -0.086786   -0.035574
    5          6       -0.008915   -0.007120
    6          6        0.150621    0.119994
    7          8       -0.552907   -0.506597
    8          6        0.000487    0.002359
    9          6       -0.088954   -0.037421
   10          6       -0.114146   -0.059041
   11          6       -0.112461   -0.057384
   12          6       -0.090779   -0.039207
   13          6        0.001544    0.003412
   14          6        0.143040    0.112879
   15          8       -0.553011   -0.506942
   16          6        0.008089    0.009727
   17          6       -0.090735   -0.043144
   18          1        0.325988    0.151695
   19          1        0.076524    0.017859
   20          1        0.072567    0.011611
   21          1        0.069832    0.008883
   22          1        0.070827    0.015384
   23          1        0.071384    0.015943
   24          1        0.068991    0.008113
   25          1        0.069407    0.006405
 -----------------------------------------------

 Dipole moment (in Debye)
 -----------------------------------------------
                 X        Y        Z     Total
 -----------------------------------------------
 CM5         -1.0026  -1.1999   0.8447   1.7772
 Hirshfeld   -1.5306  -0.6870   0.6034   1.7829
 -----------------------------------------------

    3    -763.5837304823      3.08e-03  
Hirshfeld: reading atomic densities from disk.

 Charges (in A.U.) from CM5PAC (Nov. 11, 2011)
 -----------------------------------------------
 Center     Atomic      CM5         Hirshfeld
 Number     Number      Charge      Charge
 -----------------------------------------------
    1          8       -0.404341   -0.205375
    2          6        0.090364    0.079846
    3          6       -0.122035   -0.071709
    4          6       -0.101182   -0.049971
    5          6       -0.074544   -0.072749
    6          6        0.093524    0.062896
    7          8       -0.386408   -0.340098
    8          6       -0.066689   -0.064817
    9          6       -0.110917   -0.059384
   10          6       -0.119459   -0.064354
   11          6       -0.116067   -0.060989
   12          6       -0.112827   -0.061255
   13          6       -0.064947   -0.063079
   14          6        0.080677    0.050516
   15          8       -0.394868   -0.348798
   16          6       -0.061457   -0.059820
   17          6       -0.134304   -0.086713
   18          1        0.344881    0.170588
   19          1        0.100485    0.041820
   20          1        0.095240    0.034284
   21          1        0.091580    0.030631
   22          1        0.093502    0.038059
   23          1        0.094114    0.038674
   24          1        0.090730    0.029851
   25          1        0.093429    0.030428
 -----------------------------------------------

 Dipole moment (in Debye)
 -----------------------------------------------
                 X        Y        Z     Total
 -----------------------------------------------
 CM5         -0.9082  -1.1089   0.7780   1.6309
 Hirshfeld   -1.4361  -0.5961   0.5367   1.6449
 -----------------------------------------------

    4    -764.2255863806      7.37e-04  
Hirshfeld: reading atomic densities from disk.

 Charges (in A.U.) from CM5PAC (Nov. 11, 2011)
 -----------------------------------------------
 Center     Atomic      CM5         Hirshfeld
 Number     Number      Charge      Charge
 -----------------------------------------------
    1          8       -0.393317   -0.194351
    2          6        0.057040    0.046522
    3          6       -0.125646   -0.075320
    4          6       -0.096695   -0.045484
    5          6       -0.048115   -0.046319
    6          6        0.083899    0.053271
    7          8       -0.409510   -0.363200
    8          6       -0.043186   -0.041314
    9          6       -0.107685   -0.056152
   10          6       -0.119931   -0.064826
   11          6       -0.117594   -0.062517
   12          6       -0.109090   -0.057518
   13          6       -0.041020   -0.039152
   14          6        0.073787    0.043626
   15          8       -0.412458   -0.366388
   16          6       -0.033861   -0.032224
   17          6       -0.130840   -0.083249
   18          1        0.341560    0.167267
   19          1        0.098145    0.039480
   20          1        0.091472    0.030516
   21          1        0.086501    0.025552
   22          1        0.088983    0.033540
   23          1        0.089597    0.034156
   24          1        0.085559    0.024681
   25          1        0.090854    0.027852
 -----------------------------------------------

 Dipole moment (in Debye)
 -----------------------------------------------
                 X        Y        Z     Total
 -----------------------------------------------
 CM5         -0.7237  -1.1682   0.7905   1.5853
 Hirshfeld   -1.2516  -0.6554   0.5492   1.5158
 -----------------------------------------------

    5    -764.2613858051      1.64e-04  
Hirshfeld: reading atomic densities from disk.

 Charges (in A.U.) from CM5PAC (Nov. 11, 2011)
 -----------------------------------------------
 Center     Atomic      CM5         Hirshfeld
 Number     Number      Charge      Charge
 -----------------------------------------------
    1          8       -0.399398   -0.200432
    2          6        0.074868    0.064350
    3          6       -0.116381   -0.066054
    4          6       -0.098767   -0.047556
    5          6       -0.057888   -0.056092
    6          6        0.090821    0.060193
    7          8       -0.406853   -0.360543
    8          6       -0.050545   -0.048673
    9          6       -0.106329   -0.054797
   10          6       -0.117594   -0.062489
   11          6       -0.114678   -0.059600
   12          6       -0.108365   -0.056793
   13          6       -0.049040   -0.047173
   14          6        0.079409    0.049248
   15          8       -0.413837   -0.367768
   16          6       -0.043961   -0.042324
   17          6       -0.126571   -0.078980
   18          1        0.340809    0.166516
   19          1        0.095661    0.036996
   20          1        0.089928    0.028972
   21          1        0.086105    0.025156
   22          1        0.088252    0.032808
   23          1        0.088893    0.033452
   24          1        0.085255    0.024377
   25          1        0.088650    0.025649
 -----------------------------------------------

 Dipole moment (in Debye)
 -----------------------------------------------
                 X        Y        Z     Total
 -----------------------------------------------
 CM5         -0.8617  -1.1255   0.7821   1.6189
 Hirshfeld   -1.3896  -0.6126   0.5408   1.6121
 -----------------------------------------------

    6    -764.2651074169      6.24e-05  
Hirshfeld: reading atomic densities from disk.

 Charges (in A.U.) from CM5PAC (Nov. 11, 2011)
 -----------------------------------------------
 Center     Atomic      CM5         Hirshfeld
 Number     Number      Charge      Charge
 -----------------------------------------------
    1          8       -0.398202   -0.199236
    2          6        0.069802    0.059284
    3          6       -0.121697   -0.071371
    4          6       -0.097093   -0.045882
    5          6       -0.055194   -0.053398
    6          6        0.092108    0.061480
    7          8       -0.407563   -0.361253
    8          6       -0.049323   -0.047451
    9          6       -0.107202   -0.055669
   10          6       -0.119313   -0.064208
   11          6       -0.116497   -0.061420
   12          6       -0.108862   -0.057290
   13          6       -0.047254   -0.045386
   14          6        0.080352    0.050191
   15          8       -0.411522   -0.365453
   16          6       -0.041719   -0.040081
   17          6       -0.128768   -0.081177
   18          1        0.340981    0.166688
   19          1        0.096449    0.037784
   20          1        0.090392    0.029437
   21          1        0.086324    0.025375
   22          1        0.088540    0.033097
   23          1        0.089170    0.033729
   24          1        0.085384    0.024506
   25          1        0.089150    0.026148
 -----------------------------------------------

 Dipole moment (in Debye)
 -----------------------------------------------
                 X        Y        Z     Total
 -----------------------------------------------
 CM5         -0.8080  -1.1464   0.7879   1.6087
 Hirshfeld   -1.3359  -0.6336   0.5467   1.5764
 -----------------------------------------------

    7    -764.2649780289      2.09e-05  
Hirshfeld: reading atomic densities from disk.

 Charges (in A.U.) from CM5PAC (Nov. 11, 2011)
 -----------------------------------------------
 Center     Atomic      CM5         Hirshfeld
 Number     Number      Charge      Charge
 -----------------------------------------------
    1          8       -0.398231   -0.199265
    2          6        0.070943    0.060425
    3          6       -0.119761   -0.069434
    4          6       -0.098123   -0.046912
    5          6       -0.056042   -0.054247
    6          6        0.089908    0.059281
    7          8       -0.406413   -0.360103
    8          6       -0.049256   -0.047384
    9          6       -0.106933   -0.055400
   10          6       -0.118405   -0.063300
   11          6       -0.115611   -0.060533
   12          6       -0.108835   -0.057263
   13          6       -0.047425   -0.045557
   14          6        0.078756    0.048595
   15          8       -0.412368   -0.366299
   16          6       -0.041938   -0.040301
   17          6       -0.128326   -0.080734
   18          1        0.340929    0.166636
   19          1        0.096378    0.037713
   20          1        0.090494    0.029538
   21          1        0.086370    0.025421
   22          1        0.088484    0.033041
   23          1        0.089129    0.033689
   24          1        0.085486    0.024607
   25          1        0.089232    0.026230
 -----------------------------------------------

 Dipole moment (in Debye)
 -----------------------------------------------
                 X        Y        Z     Total
 -----------------------------------------------
 CM5         -0.8129  -1.1332   0.7806   1.5982
 Hirshfeld   -1.3408  -0.6203   0.5393   1.5727
 -----------------------------------------------

    8    -764.2653029401      1.02e-05  
Hirshfeld: reading atomic densities from disk.

 Charges (in A.U.) from CM5PAC (Nov. 11, 2011)
 -----------------------------------------------
 Center     Atomic      CM5         Hirshfeld
 Number     Number      Charge      Charge
 -----------------------------------------------
    1          8       -0.398689   -0.199723
    2          6        0.070972    0.060454
    3          6       -0.119941   -0.069614
    4          6       -0.098054   -0.046843
    5          6       -0.055605   -0.053810
    6          6        0.090785    0.060157
    7          8       -0.407173   -0.360863
    8          6       -0.049190   -0.047318
    9          6       -0.107063   -0.055531
   10          6       -0.118922   -0.063817
   11          6       -0.116068   -0.060991
   12          6       -0.108881   -0.057308
   13          6       -0.047388   -0.045520
   14          6        0.078914    0.048753
   15          8       -0.411340   -0.365271
   16          6       -0.041946   -0.040309
   17          6       -0.128306   -0.080714
   18          1        0.341005    0.166712
   19          1        0.096280    0.037615
   20          1        0.090393    0.029437
   21          1        0.086392    0.025443
   22          1        0.088518    0.033074
   23          1        0.089157    0.033716
   24          1        0.085467    0.024588
   25          1        0.089128    0.026127
 -----------------------------------------------

 Dipole moment (in Debye)
 -----------------------------------------------
                 X        Y        Z     Total
 -----------------------------------------------
 CM5         -0.8180  -1.1464   0.7892   1.6143
 Hirshfeld   -1.3460  -0.6335   0.5479   1.5853
 -----------------------------------------------

    9    -764.2651933433      5.13e-06  
Hirshfeld: reading atomic densities from disk.

 Charges (in A.U.) from CM5PAC (Nov. 11, 2011)
 -----------------------------------------------
 Center     Atomic      CM5         Hirshfeld
 Number     Number      Charge      Charge
 -----------------------------------------------
    1          8       -0.398424   -0.199458
    2          6        0.070819    0.060301
    3          6       -0.120230   -0.069904
    4          6       -0.097949   -0.046737
    5          6       -0.055760   -0.053965
    6          6        0.090761    0.060133
    7          8       -0.406563   -0.360253
    8          6       -0.049259   -0.047387
    9          6       -0.107078   -0.055546
   10          6       -0.118801   -0.063696
   11          6       -0.115968   -0.060890
   12          6       -0.108923   -0.057350
   13          6       -0.047351   -0.045484
   14          6        0.079313    0.049152
   15          8       -0.411976   -0.365906
   16          6       -0.041907   -0.040269
   17          6       -0.128459   -0.080868
   18          1        0.340938    0.166645
   19          1        0.096312    0.037647
   20          1        0.090400    0.029444
   21          1        0.086353    0.025404
   22          1        0.088476    0.033032
   23          1        0.089119    0.033678
   24          1        0.085450    0.024572
   25          1        0.089152    0.026150
 -----------------------------------------------

 Dipole moment (in Debye)
 -----------------------------------------------
                 X        Y        Z     Total
 -----------------------------------------------
 CM5         -0.8137  -1.1358   0.7823   1.6013
 Hirshfeld   -1.3416  -0.6230   0.5411   1.5751
 -----------------------------------------------

   10    -764.2652539683      2.58e-06  
Hirshfeld: reading atomic densities from disk.

 Charges (in A.U.) from CM5PAC (Nov. 11, 2011)
 -----------------------------------------------
 Center     Atomic      CM5         Hirshfeld
 Number     Number      Charge      Charge
 -----------------------------------------------
    1          8       -0.398444   -0.199478
    2          6        0.070856    0.060338
    3          6       -0.120162   -0.069836
    4          6       -0.097971   -0.046760
    5          6       -0.055804   -0.054009
    6          6        0.090713    0.060085
    7          8       -0.406774   -0.360464
    8          6       -0.049242   -0.047370
    9          6       -0.107044   -0.055511
   10          6       -0.118742   -0.063637
   11          6       -0.115925   -0.060847
   12          6       -0.108910   -0.057337
   13          6       -0.047373   -0.045505
   14          6        0.079195    0.049034
   15          8       -0.411719   -0.365650
   16          6       -0.041906   -0.040269
   17          6       -0.128422   -0.080831
   18          1        0.340932    0.166638
   19          1        0.096307    0.037642
   20          1        0.090403    0.029448
   21          1        0.086345    0.025396
   22          1        0.088459    0.033016
   23          1        0.089103    0.033662
   24          1        0.085433    0.024554
   25          1        0.089137    0.026135
 -----------------------------------------------

 Dipole moment (in Debye)
 -----------------------------------------------
                 X        Y        Z     Total
 -----------------------------------------------
 CM5         -0.8135  -1.1404   0.7850   1.6058
 Hirshfeld   -1.3414  -0.6276   0.5438   1.5776
 -----------------------------------------------

   11    -764.2652588305      1.08e-06  
Hirshfeld: reading atomic densities from disk.

 Charges (in A.U.) from CM5PAC (Nov. 11, 2011)
 -----------------------------------------------
 Center     Atomic      CM5         Hirshfeld
 Number     Number      Charge      Charge
 -----------------------------------------------
    1          8       -0.398502   -0.199536
    2          6        0.070848    0.060330
    3          6       -0.120149   -0.069822
    4          6       -0.097971   -0.046759
    5          6       -0.055714   -0.053919
    6          6        0.090735    0.060108
    7          8       -0.406693   -0.360383
    8          6       -0.049212   -0.047340
    9          6       -0.107056   -0.055524
   10          6       -0.118820   -0.063715
   11          6       -0.115986   -0.060908
   12          6       -0.108903   -0.057330
   13          6       -0.047353   -0.045486
   14          6        0.079166    0.049005
   15          8       -0.411767   -0.365698
   16          6       -0.041901   -0.040264
   17          6       -0.128411   -0.080820
   18          1        0.340945    0.166651
   19          1        0.096297    0.037632
   20          1        0.090391    0.029435
   21          1        0.086348    0.025399
   22          1        0.088471    0.033028
   23          1        0.089113    0.033672
   24          1        0.085437    0.024559
   25          1        0.089130    0.026129
 -----------------------------------------------

 Dipole moment (in Debye)
 -----------------------------------------------
                 X        Y        Z     Total
 -----------------------------------------------
 CM5         -0.8143  -1.1384   0.7839   1.6042
 Hirshfeld   -1.3423  -0.6255   0.5426   1.5772
 -----------------------------------------------

   12    -764.2652548595      3.79e-07  
Hirshfeld: reading atomic densities from disk.

 Charges (in A.U.) from CM5PAC (Nov. 11, 2011)
 -----------------------------------------------
 Center     Atomic      CM5         Hirshfeld
 Number     Number      Charge      Charge
 -----------------------------------------------
    1          8       -0.398472   -0.199506
    2          6        0.070850    0.060332
    3          6       -0.120154   -0.069828
    4          6       -0.097971   -0.046760
    5          6       -0.055741   -0.053945
    6          6        0.090733    0.060105
    7          8       -0.406706   -0.360396
    8          6       -0.049231   -0.047359
    9          6       -0.107060   -0.055528
   10          6       -0.118799   -0.063694
   11          6       -0.115970   -0.060893
   12          6       -0.108909   -0.057337
   13          6       -0.047361   -0.045493
   14          6        0.079185    0.049023
   15          8       -0.411750   -0.365681
   16          6       -0.041908   -0.040271
   17          6       -0.128417   -0.080826
   18          1        0.340938    0.166645
   19          1        0.096299    0.037634
   20          1        0.090395    0.029439
   21          1        0.086349    0.025400
   22          1        0.088469    0.033025
   23          1        0.089111    0.033670
   24          1        0.085436    0.024558
   25          1        0.089132    0.026131
 -----------------------------------------------

 Dipole moment (in Debye)
 -----------------------------------------------
                 X        Y        Z     Total
 -----------------------------------------------
 CM5         -0.8144  -1.1389   0.7843   1.6048
 Hirshfeld   -1.3424  -0.6261   0.5430   1.5776
 -----------------------------------------------

   13    -764.2652597634      2.00e-07  
Hirshfeld: reading atomic densities from disk.

 Charges (in A.U.) from CM5PAC (Nov. 11, 2011)
 -----------------------------------------------
 Center     Atomic      CM5         Hirshfeld
 Number     Number      Charge      Charge
 -----------------------------------------------
    1          8       -0.398482   -0.199516
    2          6        0.070847    0.060329
    3          6       -0.120161   -0.069835
    4          6       -0.097968   -0.046756
    5          6       -0.055744   -0.053949
    6          6        0.090735    0.060107
    7          8       -0.406704   -0.360394
    8          6       -0.049221   -0.047349
    9          6       -0.107051   -0.055519
   10          6       -0.118795   -0.063690
   11          6       -0.115968   -0.060890
   12          6       -0.108909   -0.057337
   13          6       -0.047365   -0.045498
   14          6        0.079179    0.049018
   15          8       -0.411755   -0.365686
   16          6       -0.041905   -0.040268
   17          6       -0.128417   -0.080825
   18          1        0.340942    0.166649
   19          1        0.096301    0.037636
   20          1        0.090396    0.029440
   21          1        0.086347    0.025398
   22          1        0.088466    0.033023
   23          1        0.089109    0.033668
   24          1        0.085435    0.024556
   25          1        0.089134    0.026132
 -----------------------------------------------

 Dipole moment (in Debye)
 -----------------------------------------------
                 X        Y        Z     Total
 -----------------------------------------------
 CM5         -0.8141  -1.1387   0.7841   1.6045
 Hirshfeld   -1.3421  -0.6259   0.5428   1.5772
 -----------------------------------------------

   14    -764.2652580059      5.18e-08  
Hirshfeld: reading atomic densities from disk.

 Charges (in A.U.) from CM5PAC (Nov. 11, 2011)
 -----------------------------------------------
 Center     Atomic      CM5         Hirshfeld
 Number     Number      Charge      Charge
 -----------------------------------------------
    1          8       -0.398477   -0.199511
    2          6        0.070849    0.060331
    3          6       -0.120156   -0.069830
    4          6       -0.097970   -0.046759
    5          6       -0.055741   -0.053945
    6          6        0.090734    0.060106
    7          8       -0.406703   -0.360394
    8          6       -0.049225   -0.047353
    9          6       -0.107057   -0.055524
   10          6       -0.118799   -0.063694
   11          6       -0.115971   -0.060893
   12          6       -0.108907   -0.057335
   13          6       -0.047362   -0.045495
   14          6        0.079180    0.049019
   15          8       -0.411757   -0.365687
   16          6       -0.041906   -0.040269
   17          6       -0.128418   -0.080827
   18          1        0.340940    0.166647
   19          1        0.096300    0.037635
   20          1        0.090396    0.029440
   21          1        0.086349    0.025400
   22          1        0.088468    0.033024
   23          1        0.089110    0.033669
   24          1        0.085436    0.024557
   25          1        0.089133    0.026131
 -----------------------------------------------

 Dipole moment (in Debye)
 -----------------------------------------------
                 X        Y        Z     Total
 -----------------------------------------------
 CM5         -0.8143  -1.1387   0.7841   1.6046
 Hirshfeld   -1.3423  -0.6259   0.5429   1.5774
 -----------------------------------------------

   15    -764.2652584144      4.30e-08  
Hirshfeld: reading atomic densities from disk.

 Charges (in A.U.) from CM5PAC (Nov. 11, 2011)
 -----------------------------------------------
 Center     Atomic      CM5         Hirshfeld
 Number     Number      Charge      Charge
 -----------------------------------------------
    1          8       -0.398478   -0.199512
    2          6        0.070847    0.060329
    3          6       -0.120157   -0.069830
    4          6       -0.097970   -0.046758
    5          6       -0.055740   -0.053945
    6          6        0.090735    0.060108
    7          8       -0.406702   -0.360392
    8          6       -0.049224   -0.047352
    9          6       -0.107054   -0.055522
   10          6       -0.118797   -0.063692
   11          6       -0.115969   -0.060892
   12          6       -0.108912   -0.057340
   13          6       -0.047364   -0.045497
   14          6        0.079178    0.049017
   15          8       -0.411758   -0.365689
   16          6       -0.041907   -0.040270
   17          6       -0.128415   -0.080824
   18          1        0.340941    0.166647
   19          1        0.096300    0.037635
   20          1        0.090396    0.029440
   21          1        0.086349    0.025399
   22          1        0.088467    0.033024
   23          1        0.089110    0.033669
   24          1        0.085436    0.024557
   25          1        0.089133    0.026131
 -----------------------------------------------

 Dipole moment (in Debye)
 -----------------------------------------------
                 X        Y        Z     Total
 -----------------------------------------------
 CM5         -0.8143  -1.1386   0.7841   1.6045
 Hirshfeld   -1.3423  -0.6258   0.5428   1.5773
 -----------------------------------------------

   16    -764.2652582399      1.59e-08  
Hirshfeld: reading atomic densities from disk.

 Charges (in A.U.) from CM5PAC (Nov. 11, 2011)
 -----------------------------------------------
 Center     Atomic      CM5         Hirshfeld
 Number     Number      Charge      Charge
 -----------------------------------------------
    1          8       -0.398478   -0.199512
    2          6        0.070849    0.060331
    3          6       -0.120157   -0.069830
    4          6       -0.097970   -0.046758
    5          6       -0.055741   -0.053946
    6          6        0.090735    0.060108
    7          8       -0.406701   -0.360391
    8          6       -0.049224   -0.047352
    9          6       -0.107056   -0.055523
   10          6       -0.118798   -0.063693
   11          6       -0.115970   -0.060892
   12          6       -0.108908   -0.057336
   13          6       -0.047363   -0.045495
   14          6        0.079178    0.049017
   15          8       -0.411759   -0.365689
   16          6       -0.041907   -0.040270
   17          6       -0.128418   -0.080826
   18          1        0.340941    0.166647
   19          1        0.096300    0.037635
   20          1        0.090396    0.029440
   21          1        0.086349    0.025399
   22          1        0.088467    0.033024
   23          1        0.089109    0.033668
   24          1        0.085435    0.024557
   25          1        0.089133    0.026131
 -----------------------------------------------

 Dipole moment (in Debye)
 -----------------------------------------------
                 X        Y        Z     Total
 -----------------------------------------------
 CM5         -0.8143  -1.1386   0.7841   1.6045
 Hirshfeld   -1.3423  -0.6258   0.5428   1.5773
 -----------------------------------------------

   17    -764.2652582386      1.16e-08  
   18    -764.2652582733      4.74e-09  Convergence criterion met
 ---------------------------------------
 SCF time:   CPU 4519.12s  wall 579.00s 
<S^2> =          0.759929603
(1)  E-EN(liq) elect-nuc energy of solute               -764.265258273 a.u.
(2)  G-P(liq) polarization free energy of solvation           -46.5573 kcal/mol
(3)  G-ENP(liq) elect-nuc-pol free energy of system     -764.339452129 a.u.
(4)  G-CDS(liq) cavity-dispersion-solvent structure 
     free energy                                              -10.8417 kcal/mol
(5)  G-P-CDS(liq) = G-P(liq) + G-CDS(liq) = (2) + (4)         -57.3991 kcal/mol
(6)  G-S(liq) free energy of system = (1) + (5)         -764.356729495 a.u.
 SCF   energy in the final basis set =     -764.3567294951
 Total energy in the final basis set =     -764.3567294951
 
 --------------------------------------------------------------
 
                    Orbital Energies (a.u.)
 --------------------------------------------------------------
 
 Alpha MOs
 -- Occupied --
-19.1623 -19.0788 -19.0771 -10.2439 -10.2296 -10.2247 -10.1837 -10.1835
-10.1831 -10.1821 -10.1817 -10.1804 -10.1798 -10.1794 -10.1789 -10.1768
-10.1764  -1.0685  -1.0054  -1.0010  -0.8677  -0.8588  -0.7915  -0.7609
 -0.7581  -0.7449  -0.6731  -0.6560  -0.6236  -0.6078  -0.5658  -0.5596
 -0.5414  -0.5083  -0.4822  -0.4744  -0.4649  -0.4390  -0.4363  -0.4321
 -0.4317  -0.4164  -0.4110  -0.4104  -0.4026  -0.3832  -0.3820  -0.3636
 -0.3628  -0.3544  -0.3419  -0.3288  -0.2715  -0.2661  -0.2626  -0.2480
 -0.2402  -0.2394  -0.1454
 -- Virtual --
 -0.0604  -0.0293  -0.0280  -0.0248  -0.0206  -0.0143  -0.0131  -0.0080
  0.0078   0.0133   0.0207   0.0244   0.0311   0.0347   0.0393   0.0445
  0.0490   0.0519   0.0594   0.0673   0.0680   0.0718   0.0751   0.0764
  0.0797   0.0829   0.0880   0.0901   0.0919   0.1059   0.1086   0.1093
  0.1119   0.1151   0.1165   0.1184   0.1244   0.1274   0.1376   0.1406
  0.1442   0.1537   0.1573   0.1594   0.1645   0.1653   0.1663   0.1756
  0.1799   0.1807   0.1831   0.1975   0.2034   0.2093   0.2136   0.2179
  0.2183   0.2264   0.2304   0.2310   0.2386   0.2417   0.2454   0.2481
  0.2649   0.2658   0.2670   0.2751   0.2773   0.2781   0.2825   0.2931
  0.2946   0.3012   0.3033   0.3059   0.3096   0.3125   0.3137   0.3218
  0.3253   0.3318   0.3338   0.3404   0.3467   0.3590   0.3684   0.3729
  0.3768   0.3798   0.3901   0.4063   0.4107   0.4168   0.4367   0.4539
  0.4809   0.4941   0.5067   0.5174   0.5269   0.5310   0.5431   0.5451
  0.5462   0.5502   0.5660   0.5672   0.5760   0.5776   0.5931   0.5954
  0.5958   0.5965   0.6209   0.6268   0.6372   0.6387   0.6402   0.6467
  0.6608   0.6620   0.6636   0.6663   0.6733   0.6868   0.7115   0.7233
  0.7257   0.7266   0.7336   0.7529   0.7658   0.7723   0.7821   0.7825
  0.8008   0.8068   0.8204   0.8416   0.8516   0.8613   0.8790   0.8847
  0.8893   0.9014   0.9177   0.9209   0.9275   0.9341   0.9396   0.9401
  0.9483   0.9787   0.9803   0.9850   1.0015   1.0044   1.0103   1.0185
  1.0243   1.0523   1.0533   1.0560   1.0713   1.0798   1.0878   1.1080
  1.1220   1.1349   1.1350   1.1515   1.1630   1.1684   1.1774   1.1929
  1.2128   1.2342   1.2408   1.2456   1.2549   1.2602   1.2852   1.3226
  1.3382   1.3443   1.3475   1.3660   1.4059   1.4227   1.4655   1.4824
  1.4830   1.5034   1.5094   1.5198   1.5205   1.5275   1.5349   1.5606
  1.5653   1.5728   1.6047   1.6062   1.6109   1.6364   1.6502   1.6706
  1.6900   1.6948   1.7006   1.7114   1.7351   1.7377   1.7421   1.7739
  1.7792   1.7904   1.8065   1.8135   1.8418   1.8619   1.8873   1.8984
  1.9078   1.9080   1.9215   1.9234   1.9423   1.9485   1.9578   1.9591
  1.9694   1.9793   1.9934   1.9998   2.0269   2.0384   2.0508   2.0730
  2.0824   2.0932   2.0972   2.1470   2.1641   2.1730   2.2067   2.2190
  2.2754   2.2755   2.3235   2.3336   2.3352   2.3827   2.3889   2.4047
  2.4335   2.4708   2.4803   2.5141   2.5512   2.5980   2.6051   2.6250
  2.6386   2.6423   2.6765   2.6841   2.7094   2.7176   2.7356   2.7489
  2.7556   2.7587   2.7621   2.7663   2.7725   2.7777   2.7792   2.7901
  2.7917   2.8208   2.8449   2.8537   2.8677   2.8835   2.8845   2.8876
  2.9007   2.9495   2.9580   2.9586   2.9846   3.0247   3.0278   3.0836
  3.0917   3.1038   3.1274   3.1560   3.1775   3.2062   3.2229   3.2418
  3.2672   3.3234   3.3297   3.3330   3.3526   3.3572   3.4134   3.4334
  3.4667   3.5159   3.5213   3.5284   3.5473   3.5587   3.5764   3.5873
  3.6497   3.6934   3.7896   3.8448   3.8658   3.8989   4.0356   4.0550
  4.0897   4.1142   4.1860   4.2082   4.2792   4.3152   4.4795   4.8086
  4.8290   4.8500   4.9930   5.0761   5.0910   5.2748   5.2996   5.4471
  5.7291   5.7635   5.8361  23.5222  23.6802  23.8947  23.9219  23.9311
 23.9353  23.9636  23.9649  24.0073  24.0421  24.1090  24.1132  24.1776
 24.1834  49.9273  50.0610  50.1159
 
 Beta MOs
 -- Occupied --
-19.1622 -19.0735 -19.0707 -10.2436 -10.2283 -10.2229 -10.1838 -10.1827
-10.1826 -10.1814 -10.1814 -10.1798 -10.1796 -10.1787 -10.1785 -10.1762
-10.1761  -1.0681  -0.9961  -0.9899  -0.8651  -0.8577  -0.7876  -0.7585
 -0.7565  -0.7432  -0.6657  -0.6546  -0.6212  -0.6069  -0.5634  -0.5588
 -0.5395  -0.5069  -0.4798  -0.4727  -0.4639  -0.4383  -0.4354  -0.4311
 -0.4242  -0.4130  -0.4072  -0.4034  -0.3996  -0.3822  -0.3619  -0.3609
 -0.3565  -0.3532  -0.3401  -0.3184  -0.2630  -0.2537  -0.2503  -0.2426
 -0.2340  -0.2333
 -- Virtual --
 -0.0860  -0.0519  -0.0294  -0.0249  -0.0207  -0.0183  -0.0144  -0.0103
 -0.0080   0.0077   0.0133   0.0219   0.0246   0.0310   0.0358   0.0407
  0.0445   0.0520   0.0557   0.0670   0.0681   0.0714   0.0718   0.0766
  0.0799   0.0810   0.0830   0.0882   0.0902   0.0920   0.1066   0.1093
  0.1118   0.1120   0.1152   0.1181   0.1185   0.1246   0.1274   0.1376
  0.1407   0.1445   0.1538   0.1574   0.1598   0.1645   0.1673   0.1693
  0.1757   0.1796   0.1830   0.1834   0.1976   0.2034   0.2100   0.2137
  0.2181   0.2189   0.2278   0.2320   0.2381   0.2388   0.2424   0.2466
  0.2492   0.2661   0.2672   0.2679   0.2754   0.2781   0.2789   0.2828
  0.2952   0.2972   0.3021   0.3067   0.3077   0.3105   0.3136   0.3147
  0.3224   0.3267   0.3322   0.3344   0.3408   0.3476   0.3600   0.3686
  0.3733   0.3777   0.3804   0.3914   0.4069   0.4133   0.4194   0.4379
  0.4548   0.4827   0.4955   0.5084   0.5186   0.5276   0.5323   0.5450
  0.5460   0.5511   0.5514   0.5665   0.5678   0.5768   0.5792   0.5944
  0.5956   0.5974   0.5981   0.6219   0.6280   0.6390   0.6411   0.6440
  0.6489   0.6621   0.6634   0.6662   0.6669   0.6740   0.6910   0.7121
  0.7240   0.7263   0.7308   0.7342   0.7534   0.7663   0.7728   0.7832
  0.7846   0.8018   0.8071   0.8213   0.8422   0.8524   0.8623   0.8797
  0.8858   0.8903   0.9022   0.9189   0.9230   0.9287   0.9353   0.9408
  0.9445   0.9496   0.9791   0.9831   0.9870   1.0041   1.0061   1.0119
  1.0204   1.0263   1.0536   1.0561   1.0566   1.0728   1.0821   1.0919
  1.1134   1.1262   1.1364   1.1394   1.1523   1.1695   1.1729   1.1784
  1.1968   1.2143   1.2417   1.2447   1.2480   1.2620   1.2633   1.2866
  1.3256   1.3398   1.3460   1.3486   1.3692   1.4063   1.4249   1.4664
  1.4836   1.4868   1.5042   1.5103   1.5210   1.5229   1.5322   1.5356
  1.5622   1.5664   1.5732   1.6057   1.6083   1.6118   1.6380   1.6516
  1.6713   1.6945   1.6956   1.7023   1.7126   1.7361   1.7393   1.7438
  1.7754   1.7807   1.7940   1.8083   1.8159   1.8430   1.8640   1.8905
  1.8994   1.9094   1.9111   1.9235   1.9243   1.9443   1.9525   1.9603
  1.9610   1.9713   1.9807   1.9945   2.0011   2.0282   2.0413   2.0528
  2.0743   2.0839   2.0940   2.0995   2.1483   2.1652   2.1745   2.2081
  2.2215   2.2779   2.2783   2.3250   2.3367   2.3385   2.3837   2.3927
  2.4084   2.4341   2.4712   2.4805   2.5147   2.5518   2.5984   2.6057
  2.6315   2.6410   2.6440   2.6801   2.6848   2.7099   2.7179   2.7358
  2.7491   2.7559   2.7627   2.7657   2.7699   2.7731   2.7778   2.7795
  2.7921   2.7935   2.8236   2.8458   2.8606   2.8709   2.8847   2.8919
  2.8951   2.9045   2.9606   2.9705   2.9707   2.9943   3.0257   3.0326
  3.0854   3.0947   3.1078   3.1290   3.1567   3.1844   3.2077   3.2233
  3.2435   3.2687   3.3245   3.3306   3.3486   3.3535   3.3722   3.4141
  3.4341   3.4674   3.5178   3.5225   3.5305   3.5488   3.5593   3.5785
  3.5884   3.6506   3.6948   3.7909   3.8496   3.8684   3.8997   4.0366
  4.0559   4.0911   4.1148   4.1872   4.2092   4.2818   4.3185   4.4826
  4.8129   4.8305   4.8511   4.9936   5.1001   5.1154   5.2796   5.3045
  5.4473   5.7299   5.7678   5.8411  23.5229  23.6807  23.8955  23.9231
 23.9317  23.9361  23.9649  23.9662  24.0081  24.0430  24.1093  24.1135
 24.1779  24.1838  49.9274  50.0668  50.1218
 --------------------------------------------------------------
 
          Ground-State Mulliken Net Atomic Charges

     Atom                 Charge (a.u.)    Spin (a.u.)
  --------------------------------------------------------
      1 O                    -0.139530       0.004005
      2 C                     1.315967       0.019052
      3 C                     1.025887       0.029783
      4 C                     0.277697       0.013756
      5 C                    -0.934236       0.018408
      6 C                    -2.086615       0.063466
      7 O                    -0.302659       0.199804
      8 C                    -1.122828       0.054183
      9 C                    -0.046375       0.010788
     10 C                     0.919555       0.056617
     11 C                     0.887016       0.026760
     12 C                    -0.013177       0.040542
     13 C                    -0.807585       0.037075
     14 C                    -1.855661       0.096366
     15 O                    -0.304438       0.238644
     16 C                    -0.563481       0.050745
     17 C                     0.696233       0.057443
     18 H                     0.357366      -0.000115
     19 H                     0.337738      -0.002607
     20 H                     0.169177      -0.000893
     21 H                     0.157813      -0.000507
     22 H                     0.356360      -0.004193
     23 H                     0.358225      -0.002356
     24 H                     0.154512      -0.002487
     25 H                     0.163037      -0.004278
  --------------------------------------------------------
  Sum of atomic charges =    -1.000000
  Sum of spin   charges =     1.000000

 -----------------------------------------------------------------
                    Cartesian Multipole Moments
 -----------------------------------------------------------------
    Charge (ESU x 10^10)
                -4.8032
    Dipole Moment (Debye)
         X      -0.6655      Y      -1.1724      Z       0.7854
       Tot       1.5602
    Quadrupole Moments (Debye-Ang)
        XX    -110.2548     XY       3.1449     YY    -121.7442
        XZ      -1.2992     YZ       9.2547     ZZ    -110.9521
    Octopole Moments (Debye-Ang^2)
       XXX      76.5871    XXY     -20.6125    XYY     -15.0125
       YYY     -15.4710    XXZ       3.6584    XYZ      13.3773
       YYZ       8.4855    XZZ      -4.8256    YZZ      -8.4324
       ZZZ       7.4163
    Hexadecapole Moments (Debye-Ang^3)
      XXXX   -4304.3896   XXXY     104.3472   XXYY    -767.3374
      XYYY      66.9181   YYYY   -1219.4876   XXXZ     187.7150
      XXYZ      -6.7183   XYYZ      57.9612   YYYZ     349.8454
      XXZZ    -766.7321   XYZZ      47.1773   YYZZ    -309.0034
      XZZZ     206.5269   YZZZ     304.6943   ZZZZ    -534.2784
 -----------------------------------------------------------------
 Total job time:  608.29s(wall), 4525.40s(cpu) 
 Sat Feb  3 11:33:35 2024

        *************************************************************
        *                                                           *
        *  Thank you very much for using Q-Chem.  Have a nice day.  *
        *                                                           *
        *************************************************************


