 Entering Gaussian System, Link 0=g16
 Input=127-an.com
 Output=127-an.log
 Initial command:
 /sysapps/ubuntu-applications/gaussian/Gaussian/AVX2/g16/l1.exe "/scratch/selhajj1/4406865/Gau-4071933.inp" -scrdir="/scratch/selhajj1/4406865/"
 Entering Link 1 = /sysapps/ubuntu-applications/gaussian/Gaussian/AVX2/g16/l1.exe PID=   4071935.
  
 Copyright (c) 1988,1990,1992,1993,1995,1998,2003,2009,2016,
            Gaussian, Inc.  All Rights Reserved.
  
 This is part of the Gaussian(R) 16 program.  It is based on
 the Gaussian(R) 09 system (copyright 2009, Gaussian, Inc.),
 the Gaussian(R) 03 system (copyright 2003, Gaussian, Inc.),
 the Gaussian(R) 98 system (copyright 1998, Gaussian, Inc.),
 the Gaussian(R) 94 system (copyright 1995, Gaussian, Inc.),
 the Gaussian 92(TM) system (copyright 1992, Gaussian, Inc.),
 the Gaussian 90(TM) system (copyright 1990, Gaussian, Inc.),
 the Gaussian 88(TM) system (copyright 1988, Gaussian, Inc.),
 the Gaussian 86(TM) system (copyright 1986, Carnegie Mellon
 University), and the Gaussian 82(TM) system (copyright 1983,
 Carnegie Mellon University). Gaussian is a federally registered
 trademark of Gaussian, Inc.
  
 This software contains proprietary and confidential information,
 including trade secrets, belonging to Gaussian, Inc.
  
 This software is provided under written license and may be
 used, copied, transmitted, or stored only in accord with that
 written license.
  
 The following legend is applicable only to US Government
 contracts under FAR:
  
                    RESTRICTED RIGHTS LEGEND
  
 Use, reproduction and disclosure by the US Government is
 subject to restrictions as set forth in subparagraphs (a)
 and (c) of the Commercial Computer Software - Restricted
 Rights clause in FAR 52.227-19.
  
 Gaussian, Inc.
 340 Quinnipiac St., Bldg. 40, Wallingford CT 06492
  
  
 ---------------------------------------------------------------
 Warning -- This program may not be used in any manner that
 competes with the business of Gaussian, Inc. or will provide
 assistance to any competitor of Gaussian, Inc.  The licensee
 of this program is prohibited from giving any competitor of
 Gaussian, Inc. access to this program.  By using this program,
 the user acknowledges that Gaussian, Inc. is engaged in the
 business of creating and licensing software in the field of
 computational chemistry and represents and warrants to the
 licensee that it is not a competitor of Gaussian, Inc. and that
 it will not use this program in any manner prohibited above.
 ---------------------------------------------------------------
  

 Cite this work as:
 Gaussian 16, Revision A.03,
 M. J. Frisch, G. W. Trucks, H. B. Schlegel, G. E. Scuseria, 
 M. A. Robb, J. R. Cheeseman, G. Scalmani, V. Barone, 
 G. A. Petersson, H. Nakatsuji, X. Li, M. Caricato, A. V. Marenich, 
 J. Bloino, B. G. Janesko, R. Gomperts, B. Mennucci, H. P. Hratchian, 
 J. V. Ortiz, A. F. Izmaylov, J. L. Sonnenberg, D. Williams-Young, 
 F. Ding, F. Lipparini, F. Egidi, J. Goings, B. Peng, A. Petrone, 
 T. Henderson, D. Ranasinghe, V. G. Zakrzewski, J. Gao, N. Rega, 
 G. Zheng, W. Liang, M. Hada, M. Ehara, K. Toyota, R. Fukuda, 
 J. Hasegawa, M. Ishida, T. Nakajima, Y. Honda, O. Kitao, H. Nakai, 
 T. Vreven, K. Throssell, J. A. Montgomery, Jr., J. E. Peralta, 
 F. Ogliaro, M. J. Bearpark, J. J. Heyd, E. N. Brothers, K. N. Kudin, 
 V. N. Staroverov, T. A. Keith, R. Kobayashi, J. Normand, 
 K. Raghavachari, A. P. Rendell, J. C. Burant, S. S. Iyengar, 
 J. Tomasi, M. Cossi, J. M. Millam, M. Klene, C. Adamo, R. Cammi, 
 J. W. Ochterski, R. L. Martin, K. Morokuma, O. Farkas, 
 J. B. Foresman, and D. J. Fox, Gaussian, Inc., Wallingford CT, 2016.
 
 ******************************************
 Gaussian 16:  ES64L-G16RevA.03 25-Dec-2016
                10-Feb-2024 
 ******************************************
 %chk=127-an.chk
 %nproc=8
 Will use up to    8 processors via shared memory.
 %mem=30GB
 ----------------------------------------------------------------------
 #P UB3LYP/6-311++G(d,p) nosym opt freq SCRF=(PCM,Solvent=n,n-DiMethylF
 ormamide)
 ----------------------------------------------------------------------
 1/18=20,19=15,26=3,38=1/1,3;
 2/9=110,12=2,15=1,17=6,18=5,40=1/2;
 3/5=4,6=6,7=1111,11=2,25=1,30=1,70=2201,71=1,72=148,74=-5,116=2/1,2,3;
 4//1;
 5/5=2,38=5,53=148/2;
 6/7=2,8=2,9=2,10=2,28=1/1;
 7/30=1/1,2,3,16;
 1/18=20,19=15,26=3/3(2);
 2/9=110,15=1/2;
 99//99;
 2/9=110,15=1/2;
 3/5=4,6=6,7=1111,11=2,25=1,30=1,70=2205,71=1,72=148,74=-5,116=2/1,2,3;
 4/5=5,16=3,69=1/1;
 5/5=2,38=5,53=148/2;
 7/30=1/1,2,3,16;
 1/18=20,19=15,26=3/3(-5);
 2/9=110,15=1/2;
 6/7=2,8=2,9=2,10=2,19=2,28=1/1;
 99/9=1/99;
 Leave Link    1 at Sat Feb 10 17:20:47 2024, MaxMem=  4026531840 cpu:               0.5 elap:               0.1
 (Enter /sysapps/ubuntu-applications/gaussian/Gaussian/AVX2/g16/l101.exe)
 -------
 Reduced
 -------
 Symbolic Z-matrix:
 Charge = -2 Multiplicity = 1
 C                    -2.95622  -2.05867  -0.03545 
 C                    -2.32678  -0.67787  -0.04875 
 C                    -3.1877    0.39751  -0.0966 
 C                    -2.70536   1.7312   -0.11302 
 C                    -1.3554    2.00797  -0.08191 
 C                    -0.95589   3.47183  -0.10375 
 C                    -0.39528   0.92984  -0.0313 
 C                     1.02388   1.22624   0.0012 
 O                     1.51261   2.42283  -0.01181 
 C                     1.90207   0.0791    0.05072 
 C                     3.30617   0.28496   0.08448 
 C                     4.20454  -0.76129   0.13216 
 C                     3.71994  -2.1012    0.14857 
 C                     2.35984  -2.33167   0.11669 
 C                     1.41188  -1.27621   0.06749 
 C                     0.00274  -1.59709   0.03637 
 O                    -0.38705  -2.82943   0.05369 
 C                    -0.89882  -0.46239  -0.01398 
 H                    -2.66895  -2.62726   0.85112 
 H                    -2.61901  -2.66668  -0.87705 
 H                    -4.05184  -1.95487  -0.06933 
 H                    -4.26202   0.2182   -0.12252 
 H                    -3.41669   2.55554  -0.15102 
 H                    -0.31573   3.70522  -0.95668 
 H                    -0.36296   3.74392   0.77154 
 H                    -1.86469   4.0922   -0.14252 
 H                     3.63793   1.31868   0.07062 
 H                     5.27608  -0.5663    0.15703 
 H                     4.4191   -2.93583   0.18607 
 H                     1.95362  -3.33849   0.12794 
 
 ITRead=  0  0  0  0  0  0  0  0  0  0  0  0  0  0  0  0  0  0  0  0
 ITRead=  0  0  0  0  0  0  0  0  0  0
 MicOpt= -1 -1 -1 -1 -1 -1 -1 -1 -1 -1 -1 -1 -1 -1 -1 -1 -1 -1 -1 -1
 MicOpt= -1 -1 -1 -1 -1 -1 -1 -1 -1 -1
 NAtoms=     30 NQM=       30 NQMF=       0 NMMI=      0 NMMIF=      0
                NMic=       0 NMicF=      0.
                    Isotopes and Nuclear Properties:
 (Nuclear quadrupole moments (NQMom) in fm**2, nuclear magnetic moments (NMagM)
  in nuclear magnetons)

  Atom         1           2           3           4           5           6           7           8           9          10
 IAtWgt=          12          12          12          12          12          12          12          12          16          12
 AtmWgt=  12.0000000  12.0000000  12.0000000  12.0000000  12.0000000  12.0000000  12.0000000  12.0000000  15.9949146  12.0000000
 NucSpn=           0           0           0           0           0           0           0           0           0           0
 AtZEff=  -0.0000000  -0.0000000  -0.0000000  -0.0000000  -0.0000000  -0.0000000  -0.0000000  -0.0000000  -0.0000000  -0.0000000
 NQMom=    0.0000000   0.0000000   0.0000000   0.0000000   0.0000000   0.0000000   0.0000000   0.0000000   0.0000000   0.0000000
 NMagM=    0.0000000   0.0000000   0.0000000   0.0000000   0.0000000   0.0000000   0.0000000   0.0000000   0.0000000   0.0000000
 AtZNuc=   6.0000000   6.0000000   6.0000000   6.0000000   6.0000000   6.0000000   6.0000000   6.0000000   8.0000000   6.0000000

  Atom        11          12          13          14          15          16          17          18          19          20
 IAtWgt=          12          12          12          12          12          12          16          12           1           1
 AtmWgt=  12.0000000  12.0000000  12.0000000  12.0000000  12.0000000  12.0000000  15.9949146  12.0000000   1.0078250   1.0078250
 NucSpn=           0           0           0           0           0           0           0           0           1           1
 AtZEff=  -0.0000000  -0.0000000  -0.0000000  -0.0000000  -0.0000000  -0.0000000  -0.0000000  -0.0000000  -0.0000000  -0.0000000
 NQMom=    0.0000000   0.0000000   0.0000000   0.0000000   0.0000000   0.0000000   0.0000000   0.0000000   0.0000000   0.0000000
 NMagM=    0.0000000   0.0000000   0.0000000   0.0000000   0.0000000   0.0000000   0.0000000   0.0000000   2.7928460   2.7928460
 AtZNuc=   6.0000000   6.0000000   6.0000000   6.0000000   6.0000000   6.0000000   8.0000000   6.0000000   1.0000000   1.0000000

  Atom        21          22          23          24          25          26          27          28          29          30
 IAtWgt=           1           1           1           1           1           1           1           1           1           1
 AtmWgt=   1.0078250   1.0078250   1.0078250   1.0078250   1.0078250   1.0078250   1.0078250   1.0078250   1.0078250   1.0078250
 NucSpn=           1           1           1           1           1           1           1           1           1           1
 AtZEff=  -0.0000000  -0.0000000  -0.0000000  -0.0000000  -0.0000000  -0.0000000  -0.0000000  -0.0000000  -0.0000000  -0.0000000
 NQMom=    0.0000000   0.0000000   0.0000000   0.0000000   0.0000000   0.0000000   0.0000000   0.0000000   0.0000000   0.0000000
 NMagM=    2.7928460   2.7928460   2.7928460   2.7928460   2.7928460   2.7928460   2.7928460   2.7928460   2.7928460   2.7928460
 AtZNuc=   1.0000000   1.0000000   1.0000000   1.0000000   1.0000000   1.0000000   1.0000000   1.0000000   1.0000000   1.0000000
 Leave Link  101 at Sat Feb 10 17:20:48 2024, MaxMem=  4026531840 cpu:               3.1 elap:               0.6
 (Enter /sysapps/ubuntu-applications/gaussian/Gaussian/AVX2/g16/l103.exe)

 GradGradGradGradGradGradGradGradGradGradGradGradGradGradGradGradGradGrad
 Berny optimization.
 Initialization pass.
                           ----------------------------
                           !    Initial Parameters    !
                           ! (Angstroms and Degrees)  !
 --------------------------                            --------------------------
 ! Name  Definition              Value          Derivative Info.                !
 --------------------------------------------------------------------------------
 ! R1    R(1,2)                  1.5176         estimate D2E/DX2                !
 ! R2    R(1,19)                 1.0917         estimate D2E/DX2                !
 ! R3    R(1,20)                 1.0916         estimate D2E/DX2                !
 ! R4    R(1,21)                 1.1011         estimate D2E/DX2                !
 ! R5    R(2,3)                  1.3784         estimate D2E/DX2                !
 ! R6    R(2,18)                 1.4445         estimate D2E/DX2                !
 ! R7    R(3,4)                  1.4183         estimate D2E/DX2                !
 ! R8    R(3,22)                 1.0895         estimate D2E/DX2                !
 ! R9    R(4,5)                  1.3784         estimate D2E/DX2                !
 ! R10   R(4,23)                 1.0895         estimate D2E/DX2                !
 ! R11   R(5,6)                  1.5176         estimate D2E/DX2                !
 ! R12   R(5,7)                  1.4446         estimate D2E/DX2                !
 ! R13   R(6,24)                 1.0917         estimate D2E/DX2                !
 ! R14   R(6,25)                 1.0917         estimate D2E/DX2                !
 ! R15   R(6,26)                 1.101          estimate D2E/DX2                !
 ! R16   R(7,8)                  1.4501         estimate D2E/DX2                !
 ! R17   R(7,18)                 1.4806         estimate D2E/DX2                !
 ! R18   R(8,9)                  1.2926         estimate D2E/DX2                !
 ! R19   R(8,10)                 1.4455         estimate D2E/DX2                !
 ! R20   R(10,11)                1.4195         estimate D2E/DX2                !
 ! R21   R(10,15)                1.4413         estimate D2E/DX2                !
 ! R22   R(11,12)                1.3798         estimate D2E/DX2                !
 ! R23   R(11,27)                1.0857         estimate D2E/DX2                !
 ! R24   R(12,13)                1.4249         estimate D2E/DX2                !
 ! R25   R(12,28)                1.0894         estimate D2E/DX2                !
 ! R26   R(13,14)                1.3799         estimate D2E/DX2                !
 ! R27   R(13,29)                1.0894         estimate D2E/DX2                !
 ! R28   R(14,15)                1.4195         estimate D2E/DX2                !
 ! R29   R(14,30)                1.0857         estimate D2E/DX2                !
 ! R30   R(15,16)                1.4455         estimate D2E/DX2                !
 ! R31   R(16,17)                1.2926         estimate D2E/DX2                !
 ! R32   R(16,18)                1.4501         estimate D2E/DX2                !
 ! A1    A(2,1,19)             111.8312         estimate D2E/DX2                !
 ! A2    A(2,1,20)             111.8326         estimate D2E/DX2                !
 ! A3    A(2,1,21)             109.0672         estimate D2E/DX2                !
 ! A4    A(19,1,20)            104.7566         estimate D2E/DX2                !
 ! A5    A(19,1,21)            109.629          estimate D2E/DX2                !
 ! A6    A(20,1,21)            109.6433         estimate D2E/DX2                !
 ! A7    A(1,2,3)              116.8155         estimate D2E/DX2                !
 ! A8    A(1,2,18)             123.0605         estimate D2E/DX2                !
 ! A9    A(3,2,18)             120.124          estimate D2E/DX2                !
 ! A10   A(2,3,4)              121.441          estimate D2E/DX2                !
 ! A11   A(2,3,22)             119.2297         estimate D2E/DX2                !
 ! A12   A(4,3,22)             119.3293         estimate D2E/DX2                !
 ! A13   A(3,4,5)              121.4403         estimate D2E/DX2                !
 ! A14   A(3,4,23)             119.3309         estimate D2E/DX2                !
 ! A15   A(5,4,23)             119.2288         estimate D2E/DX2                !
 ! A16   A(4,5,6)              116.8204         estimate D2E/DX2                !
 ! A17   A(4,5,7)              120.1238         estimate D2E/DX2                !
 ! A18   A(6,5,7)              123.0559         estimate D2E/DX2                !
 ! A19   A(5,6,24)             111.8301         estimate D2E/DX2                !
 ! A20   A(5,6,25)             111.831          estimate D2E/DX2                !
 ! A21   A(5,6,26)             109.0694         estimate D2E/DX2                !
 ! A22   A(24,6,25)            104.7531         estimate D2E/DX2                !
 ! A23   A(24,6,26)            109.6365         estimate D2E/DX2                !
 ! A24   A(25,6,26)            109.6398         estimate D2E/DX2                !
 ! A25   A(5,7,8)              119.913          estimate D2E/DX2                !
 ! A26   A(5,7,18)             118.4352         estimate D2E/DX2                !
 ! A27   A(8,7,18)             121.6519         estimate D2E/DX2                !
 ! A28   A(7,8,9)              123.9867         estimate D2E/DX2                !
 ! A29   A(7,8,10)             115.6645         estimate D2E/DX2                !
 ! A30   A(9,8,10)             120.3488         estimate D2E/DX2                !
 ! A31   A(8,10,11)            119.1205         estimate D2E/DX2                !
 ! A32   A(8,10,15)            122.6834         estimate D2E/DX2                !
 ! A33   A(11,10,15)           118.1961         estimate D2E/DX2                !
 ! A34   A(10,11,12)           122.334          estimate D2E/DX2                !
 ! A35   A(10,11,27)           116.1046         estimate D2E/DX2                !
 ! A36   A(12,11,27)           121.5614         estimate D2E/DX2                !
 ! A37   A(11,12,13)           119.4703         estimate D2E/DX2                !
 ! A38   A(11,12,28)           120.3612         estimate D2E/DX2                !
 ! A39   A(13,12,28)           120.1685         estimate D2E/DX2                !
 ! A40   A(12,13,14)           119.4726         estimate D2E/DX2                !
 ! A41   A(12,13,29)           120.1684         estimate D2E/DX2                !
 ! A42   A(14,13,29)           120.359          estimate D2E/DX2                !
 ! A43   A(13,14,15)           122.3337         estimate D2E/DX2                !
 ! A44   A(13,14,30)           121.5626         estimate D2E/DX2                !
 ! A45   A(15,14,30)           116.1037         estimate D2E/DX2                !
 ! A46   A(10,15,14)           118.1933         estimate D2E/DX2                !
 ! A47   A(10,15,16)           122.6841         estimate D2E/DX2                !
 ! A48   A(14,15,16)           119.1226         estimate D2E/DX2                !
 ! A49   A(15,16,17)           120.3505         estimate D2E/DX2                !
 ! A50   A(15,16,18)           115.6651         estimate D2E/DX2                !
 ! A51   A(17,16,18)           123.9844         estimate D2E/DX2                !
 ! A52   A(2,18,7)             118.4358         estimate D2E/DX2                !
 ! A53   A(2,18,16)            119.9132         estimate D2E/DX2                !
 ! A54   A(7,18,16)            121.651          estimate D2E/DX2                !
 ! D1    D(19,1,2,3)          -121.3589         estimate D2E/DX2                !
 ! D2    D(19,1,2,18)           58.6435         estimate D2E/DX2                !
 ! D3    D(20,1,2,3)           121.5062         estimate D2E/DX2                !
 ! D4    D(20,1,2,18)          -58.4914         estimate D2E/DX2                !
 ! D5    D(21,1,2,3)             0.0642         estimate D2E/DX2                !
 ! D6    D(21,1,2,18)         -179.9334         estimate D2E/DX2                !
 ! D7    D(1,2,3,4)           -179.9964         estimate D2E/DX2                !
 ! D8    D(1,2,3,22)            -0.0062         estimate D2E/DX2                !
 ! D9    D(18,2,3,4)             0.0013         estimate D2E/DX2                !
 ! D10   D(18,2,3,22)          179.9915         estimate D2E/DX2                !
 ! D11   D(1,2,18,7)           179.988          estimate D2E/DX2                !
 ! D12   D(1,2,18,16)           -0.0044         estimate D2E/DX2                !
 ! D13   D(3,2,18,7)            -0.0095         estimate D2E/DX2                !
 ! D14   D(3,2,18,16)          179.998          estimate D2E/DX2                !
 ! D15   D(2,3,4,5)              0.0052         estimate D2E/DX2                !
 ! D16   D(2,3,4,23)          -179.994          estimate D2E/DX2                !
 ! D17   D(22,3,4,5)          -179.985          estimate D2E/DX2                !
 ! D18   D(22,3,4,23)            0.0158         estimate D2E/DX2                !
 ! D19   D(3,4,5,6)            179.9895         estimate D2E/DX2                !
 ! D20   D(3,4,5,7)             -0.0028         estimate D2E/DX2                !
 ! D21   D(23,4,5,6)            -0.0113         estimate D2E/DX2                !
 ! D22   D(23,4,5,7)           179.9964         estimate D2E/DX2                !
 ! D23   D(4,5,6,24)          -121.4163         estimate D2E/DX2                !
 ! D24   D(4,5,6,25)           121.455          estimate D2E/DX2                !
 ! D25   D(4,5,6,26)             0.0169         estimate D2E/DX2                !
 ! D26   D(7,5,6,24)            58.5758         estimate D2E/DX2                !
 ! D27   D(7,5,6,25)           -58.553          estimate D2E/DX2                !
 ! D28   D(7,5,6,26)          -179.991          estimate D2E/DX2                !
 ! D29   D(4,5,7,8)            179.9963         estimate D2E/DX2                !
 ! D30   D(4,5,7,18)            -0.0056         estimate D2E/DX2                !
 ! D31   D(6,5,7,8)              0.0045         estimate D2E/DX2                !
 ! D32   D(6,5,7,18)          -179.9974         estimate D2E/DX2                !
 ! D33   D(5,7,8,9)              0.0157         estimate D2E/DX2                !
 ! D34   D(5,7,8,10)          -179.9836         estimate D2E/DX2                !
 ! D35   D(18,7,8,9)          -179.9824         estimate D2E/DX2                !
 ! D36   D(18,7,8,10)            0.0183         estimate D2E/DX2                !
 ! D37   D(5,7,18,2)             0.0116         estimate D2E/DX2                !
 ! D38   D(5,7,18,16)         -179.9961         estimate D2E/DX2                !
 ! D39   D(8,7,18,2)          -179.9903         estimate D2E/DX2                !
 ! D40   D(8,7,18,16)            0.002          estimate D2E/DX2                !
 ! D41   D(7,8,10,11)          179.9847         estimate D2E/DX2                !
 ! D42   D(7,8,10,15)           -0.014          estimate D2E/DX2                !
 ! D43   D(9,8,10,11)           -0.0147         estimate D2E/DX2                !
 ! D44   D(9,8,10,15)          179.9867         estimate D2E/DX2                !
 ! D45   D(8,10,11,12)        -179.9927         estimate D2E/DX2                !
 ! D46   D(8,10,11,27)           0.0059         estimate D2E/DX2                !
 ! D47   D(15,10,11,12)          0.0061         estimate D2E/DX2                !
 ! D48   D(15,10,11,27)       -179.9954         estimate D2E/DX2                !
 ! D49   D(8,10,15,14)         179.9916         estimate D2E/DX2                !
 ! D50   D(8,10,15,16)          -0.0114         estimate D2E/DX2                !
 ! D51   D(11,10,15,14)         -0.0071         estimate D2E/DX2                !
 ! D52   D(11,10,15,16)        179.9899         estimate D2E/DX2                !
 ! D53   D(10,11,12,13)          0.0014         estimate D2E/DX2                !
 ! D54   D(10,11,12,28)        179.9973         estimate D2E/DX2                !
 ! D55   D(27,11,12,13)       -179.9971         estimate D2E/DX2                !
 ! D56   D(27,11,12,28)         -0.0012         estimate D2E/DX2                !
 ! D57   D(11,12,13,14)         -0.0079         estimate D2E/DX2                !
 ! D58   D(11,12,13,29)        179.9971         estimate D2E/DX2                !
 ! D59   D(28,12,13,14)        179.9962         estimate D2E/DX2                !
 ! D60   D(28,12,13,29)          0.0012         estimate D2E/DX2                !
 ! D61   D(12,13,14,15)          0.0068         estimate D2E/DX2                !
 ! D62   D(12,13,14,30)       -179.9963         estimate D2E/DX2                !
 ! D63   D(29,13,14,15)       -179.9982         estimate D2E/DX2                !
 ! D64   D(29,13,14,30)         -0.0012         estimate D2E/DX2                !
 ! D65   D(13,14,15,10)          0.0008         estimate D2E/DX2                !
 ! D66   D(13,14,15,16)       -179.9964         estimate D2E/DX2                !
 ! D67   D(30,14,15,10)       -179.9963         estimate D2E/DX2                !
 ! D68   D(30,14,15,16)          0.0066         estimate D2E/DX2                !
 ! D69   D(10,15,16,17)       -179.9714         estimate D2E/DX2                !
 ! D70   D(10,15,16,18)          0.031          estimate D2E/DX2                !
 ! D71   D(14,15,16,17)          0.0256         estimate D2E/DX2                !
 ! D72   D(14,15,16,18)       -179.972          estimate D2E/DX2                !
 ! D73   D(15,16,18,2)         179.966          estimate D2E/DX2                !
 ! D74   D(15,16,18,7)          -0.0262         estimate D2E/DX2                !
 ! D75   D(17,16,18,2)          -0.0315         estimate D2E/DX2                !
 ! D76   D(17,16,18,7)         179.9763         estimate D2E/DX2                !
 --------------------------------------------------------------------------------
 Trust Radius=3.00D-01 FncErr=1.00D-07 GrdErr=1.00D-06 EigMax=2.50D+02 EigMin=1.00D-04
 Number of steps in this run=    172 maximum allowed number of steps=    180.
 GradGradGradGradGradGradGradGradGradGradGradGradGradGradGradGradGradGrad

 Leave Link  103 at Sat Feb 10 17:20:48 2024, MaxMem=  4026531840 cpu:               0.3 elap:               0.1
 (Enter /sysapps/ubuntu-applications/gaussian/Gaussian/AVX2/g16/l202.exe)
                          Input orientation:                          
 ---------------------------------------------------------------------
 Center     Atomic      Atomic             Coordinates (Angstroms)
 Number     Number       Type             X           Y           Z
 ---------------------------------------------------------------------
      1          6           0       -2.956218   -2.058669   -0.035448
      2          6           0       -2.326783   -0.677873   -0.048751
      3          6           0       -3.187698    0.397509   -0.096604
      4          6           0       -2.705359    1.731201   -0.113015
      5          6           0       -1.355403    2.007969   -0.081906
      6          6           0       -0.955887    3.471826   -0.103754
      7          6           0       -0.395284    0.929843   -0.031298
      8          6           0        1.023877    1.226242    0.001203
      9          8           0        1.512611    2.422834   -0.011809
     10          6           0        1.902065    0.079101    0.050724
     11          6           0        3.306172    0.284961    0.084480
     12          6           0        4.204536   -0.761290    0.132156
     13          6           0        3.719936   -2.101199    0.148566
     14          6           0        2.359839   -2.331672    0.116692
     15          6           0        1.411879   -1.276208    0.067488
     16          6           0        0.002743   -1.597085    0.036367
     17          8           0       -0.387049   -2.829426    0.053685
     18          6           0       -0.898823   -0.462390   -0.013979
     19          1           0       -2.668954   -2.627260    0.851115
     20          1           0       -2.619006   -2.666682   -0.877051
     21          1           0       -4.051843   -1.954868   -0.069331
     22          1           0       -4.262018    0.218196   -0.122522
     23          1           0       -3.416686    2.555543   -0.151021
     24          1           0       -0.315727    3.705220   -0.956679
     25          1           0       -0.362956    3.743917    0.771538
     26          1           0       -1.864693    4.092199   -0.142517
     27          1           0        3.637930    1.318680    0.070623
     28          1           0        5.276077   -0.566297    0.157034
     29          1           0        4.419099   -2.935830    0.186073
     30          1           0        1.953623   -3.338488    0.127939
 ---------------------------------------------------------------------
                    Distance matrix (angstroms):
                    1          2          3          4          5
     1  C    0.000000
     2  C    1.517552   0.000000
     3  C    2.467820   1.378373   0.000000
     4  C    3.798955   2.439485   1.418328   0.000000
     5  C    4.370619   2.856296   2.439488   1.378387   0.000000
     6  C    5.881527   4.370627   3.799007   2.467897   1.517553
     7  C    3.935683   2.513114   2.843452   2.446487   1.444557
     8  C    5.160731   3.854228   4.293452   3.765001   2.505789
     9  O    6.328891   4.935250   5.118792   4.275496   2.898712
    10  C    5.308521   4.297215   5.101841   4.897408   3.788036
    11  C    6.687639   5.716203   6.497369   6.186204   4.972597
    12  C    7.279264   6.534356   7.486005   7.349780   6.215106
    13  C    6.678825   6.215111   7.349766   7.485996   6.534328
    14  C    5.325236   4.972610   6.186202   6.497379   5.716201
    15  C    4.438819   3.788022   4.897383   5.101837   4.297207
    16  C    2.995608   2.505771   3.764970   4.293439   3.854214
    17  O    2.683774   2.898662   4.275433   5.118757   4.935229
    18  C    2.604120   1.444546   2.446467   2.843452   2.513116
    19  H    1.091701   2.174155   3.211930   4.463973   4.907269
    20  H    1.091644   2.174129   3.212752   4.464592   4.907271
    21  H    1.101053   2.146386   2.506226   3.924542   4.793227
    22  H    2.626178   2.133897   1.089490   2.170821   3.413700
    23  H    4.638571   3.413697   2.170831   1.089482   2.133894
    24  H    6.406503   4.907156   4.464179   3.212298   2.174124
    25  H    6.406734   4.907313   4.464447   3.212524   2.174128
    26  H    6.247885   4.793319   3.924689   2.506372   2.146407
    27  H    7.409489   6.291127   6.889537   6.359341   5.042991
    28  H    8.368686   7.606463   8.522250   8.309918   7.117617
    29  H    7.430598   7.117614   8.309899   8.522238   7.606434
    30  H    5.076531   5.043012   6.359345   6.889551   6.291128
                    6          7          8          9         10
     6  C    0.000000
     7  C    2.604074   0.000000
     8  C    2.995518   1.450147   0.000000
     9  O    2.683714   2.422698   1.292619   0.000000
    10  C    4.438731   2.451184   1.445545   2.376693   0.000000
    11  C    5.325100   3.758996   2.470185   2.792245   1.419519
    12  C    6.678689   4.903569   3.752869   4.172030   2.452399
    13  C    7.279120   5.114157   4.285127   5.036356   2.840411
    14  C    6.687542   4.272012   3.802221   4.831111   2.454737
    15  C    5.308434   2.853464   2.533218   3.701263   1.441328
    16  C    5.160665   2.558978   3.002520   4.294388   2.533225
    17  O    6.328834   3.760238   4.294404   5.585627   3.701295
    18  C    3.935654   1.480596   2.559001   3.760257   2.853484
    19  H    6.406655   4.312912   5.404519   6.613136   5.372079
    20  H    6.406655   4.312219   5.403405   6.612267   5.370305
    21  H    6.247811   4.657620   5.990607   7.080306   6.292890
    22  H    4.638638   3.932734   5.382578   6.182154   6.168086
    23  H    2.626279   3.433090   4.637759   4.933048   5.870484
    24  H    1.091677   2.926667   2.976140   2.424894   4.368318
    25  H    1.091667   2.926534   2.975804   2.424179   4.368154
    26  H    1.101042   3.488843   4.071634   3.769622   5.507337
    27  H    5.076377   4.053196   2.616608   2.396442   2.133115
    28  H    7.430466   5.868410   4.617216   4.809063   3.436830
    29  H    8.368544   6.178103   5.374435   6.099353   3.929833
    30  H    7.409407   4.874564   4.660177   5.779866   3.418850
                   11         12         13         14         15
    11  C    0.000000
    12  C    1.379845   0.000000
    13  C    2.422616   1.424943   0.000000
    14  C    2.782688   2.422653   1.379854   0.000000
    15  C    2.454767   2.840467   2.452409   1.419526   0.000000
    16  C    3.802243   4.285183   3.752898   2.470217   1.445543
    17  O    4.831173   5.036467   4.172127   2.792333   2.376724
    18  C    4.272027   5.114193   4.903575   3.759012   2.451179
    19  H    6.691105   7.158464   6.448894   5.090728   4.369509
    20  H    6.689131   7.156098   6.446227   5.088089   4.367334
    21  H    7.692911   8.344640   7.776210   6.425438   5.507409
    22  H    7.571315   8.526828   8.316530   7.099862   5.870473
    23  H    7.099847   8.316525   8.526803   7.571313   6.168071
    24  H    5.089237   6.447329   7.157000   6.689906   5.371049
    25  H    5.089099   6.447300   7.157058   6.689934   5.370976
    26  H    6.425296   7.776075   8.344519   7.692852   6.292839
    27  H    1.085740   2.156642   3.421750   3.867908   3.418882
    28  H    2.147191   1.089422   2.185765   3.409196   3.929888
    29  H    3.409167   2.185765   1.089424   2.147178   3.436827
    30  H    3.867901   3.421780   2.156657   1.085733   2.133106
                   16         17         18         19         20
    16  C    0.000000
    17  O    1.292634   0.000000
    18  C    1.450134   2.422674   0.000000
    19  H    2.977086   2.425666   2.927185   0.000000
    20  H    2.975221   2.423714   2.926231   1.729337   0.000000
    21  H    4.071713   3.769708   3.488852   1.792126   1.792237
    22  H    4.637745   4.932994   3.433083   3.403299   3.404603
    23  H    5.382558   6.182111   3.932726   5.331494   5.332452
    24  H    5.403888   6.612679   4.312500   6.993290   6.775881
    25  H    5.403750   6.612468   4.312448   6.776124   6.993096
    26  H    5.990598   7.080312   4.657650   6.839976   6.840395
    27  H    4.660198   5.779924   4.874576   7.480401   7.478666
    28  H    5.374489   6.099461   6.178141   8.237283   8.234882
    29  H    4.617234   4.809148   5.868409   7.125868   7.123033
    30  H    2.616640   2.396540   4.053212   4.732552   4.729721
                   21         22         23         24         25
    21  H    0.000000
    22  H    2.183852   0.000000
    23  H    4.555645   2.485677   0.000000
    24  H    6.839777   5.331826   3.403937   0.000000
    25  H    6.840402   5.332236   3.404205   1.729295   0.000000
    26  H    6.430863   4.555817   2.184048   1.792180   1.792208
    27  H    8.358727   7.978568   7.165652   4.730996   4.730766
    28  H    9.433423   9.574384   9.241478   7.124218   7.124202
    29  H    8.531376   9.241477   9.574358   8.235776   8.235887
    30  H    6.165950   7.165677   7.978574   7.479316   7.479386
                   26         27         28         29         30
    26  H    0.000000
    27  H    6.165768   0.000000
    28  H    8.531232   2.498826   0.000000
    29  H    9.433303   4.327171   2.519909   0.000000
    30  H    8.358696   4.952715   4.327192   2.498817   0.000000
 Symmetry turned off by external request.
 Stoichiometry    C16H12O2(2-)
 Framework group  C1[X(C16H12O2)]
 Deg. of freedom    84
 Full point group                 C1      NOp   1
 Rotational constants (GHZ):           0.6781412           0.3868816           0.2470684
 Leave Link  202 at Sat Feb 10 17:20:48 2024, MaxMem=  4026531840 cpu:               0.2 elap:               0.1
 (Enter /sysapps/ubuntu-applications/gaussian/Gaussian/AVX2/g16/l301.exe)
 Standard basis: 6-311++G(d,p) (5D, 7F)
 Ernie: Thresh=  0.10000D-02 Tol=  0.10000D-05 Strict=F.
   480 basis functions,   756 primitive gaussians,   498 cartesian basis functions
    63 alpha electrons       63 beta electrons
       nuclear repulsion energy      1219.1092024666 Hartrees.
 IExCor=  402 DFT=T Ex+Corr=B3LYP ExCW=0 ScaHFX=  0.200000
 ScaDFX=  0.800000  0.720000  1.000000  0.810000 ScalE2=  1.000000  1.000000
 IRadAn=      5 IRanWt=     -1 IRanGd=            0 ICorTp=0 IEmpDi=  4
 NAtoms=   30 NActive=   30 NUniq=   30 SFac= 1.00D+00 NAtFMM=   60 NAOKFM=F Big=F
 Integral buffers will be    131072 words long.
 Raffenetti 2 integral format.
 Two-electron integral symmetry is turned off.
 ------------------------------------------------------------------------------
 Polarizable Continuum Model (PCM)
 =================================
 Model                : PCM.
 Atomic radii         : UFF (Universal Force Field).
 Polarization charges : Total charges.
 Charge compensation  : None.
 Solution method      : On-the-fly selection.
 Cavity type          : Scaled VdW (van der Waals Surface) (Alpha=1.100).
 Cavity algorithm     : GePol (No added spheres)
                        Default sphere list used, NSphG=   30.
                        Lebedev-Laikov grids with approx.  5.0 points / Ang**2.
                        Smoothing algorithm: York/Karplus (Gamma=1.0000).
                        Polarization charges: spherical gaussians, with
                                              point-specific exponents (IZeta= 3).
                        Self-potential: point-specific (ISelfS= 7).
                        Self-field    : sphere-specific E.n sum rule (ISelfD= 2).
 1st derivatives      : Analytical E(r).r(x)/FMM algorithm (CHGder, D1EAlg=3).
                        Cavity 1st derivative terms included.
 Solvent              : n,n-DiMethylFormamide, Eps=  37.219000 Eps(inf)=   2.046330
 ------------------------------------------------------------------------------
 GePol: Number of generator spheres                  =      30
 GePol: Total number of spheres                      =      30
 GePol: Number of exposed spheres                    =      30 (100.00%)
 GePol: Number of points                             =    2308
 GePol: Average weight of points                     =       0.13
 GePol: Minimum weight of points                     =   0.67D-10
 GePol: Maximum weight of points                     =    0.20577
 GePol: Number of points with low weight             =     162
 GePol: Fraction of low-weight points (<1% of avg)   =       7.02%
 GePol: Cavity surface area                          =    289.534 Ang**2
 GePol: Cavity volume                                =    323.266 Ang**3
 Leave Link  301 at Sat Feb 10 17:20:48 2024, MaxMem=  4026531840 cpu:               0.7 elap:               0.1
 (Enter /sysapps/ubuntu-applications/gaussian/Gaussian/AVX2/g16/l302.exe)
 NPDir=0 NMtPBC=     1 NCelOv=     1 NCel=       1 NClECP=     1 NCelD=      1
         NCelK=      1 NCelE2=     1 NClLst=     1 CellRange=     0.0.
 One-electron integrals computed using PRISM.
 NBasis=   480 RedAO= T EigKep=  1.29D-06  NBF=   480
 NBsUse=   472 1.00D-06 EigRej=  8.11D-07 NBFU=   472
 Precomputing XC quadrature grid using
 IXCGrd= 4 IRadAn=           5 IRanWt=          -1 IRanGd=           0 AccXCQ= 0.00D+00.
 Generated NRdTot=       0 NPtTot=           0 NUsed=           0 NTot=          32
 NSgBfM=   497   497   497   497   497 MxSgAt=    30 MxSgA2=    30.
 Leave Link  302 at Sat Feb 10 17:20:49 2024, MaxMem=  4026531840 cpu:               3.5 elap:               0.6
 (Enter /sysapps/ubuntu-applications/gaussian/Gaussian/AVX2/g16/l303.exe)
 DipDrv:  MaxL=1.
 Leave Link  303 at Sat Feb 10 17:20:49 2024, MaxMem=  4026531840 cpu:               0.7 elap:               0.2
 (Enter /sysapps/ubuntu-applications/gaussian/Gaussian/AVX2/g16/l401.exe)
 ExpMin= 3.60D-02 ExpMax= 8.59D+03 ExpMxC= 1.30D+03 IAcc=3 IRadAn=         5 AccDes= 0.00D+00
 Harris functional with IExCor=  402 and IRadAn=       5 diagonalized for initial guess.
 HarFok:  IExCor=  402 AccDes= 0.00D+00 IRadAn=         5 IDoV= 1 UseB2=F ITyADJ=14
 ICtDFT=  3500011 ScaDFX=  1.000000  1.000000  1.000000  1.000000
 FoFCou: FMM=F IPFlag=           0 FMFlag=      100000 FMFlg1=           0
         NFxFlg=           0 DoJE=T BraDBF=F KetDBF=T FulRan=T
         wScrn=  0.000000 ICntrl=       500 IOpCl=  0 I1Cent=   200000004 NGrid=           0
         NMat0=    1 NMatS0=      1 NMatT0=    0 NMatD0=    1 NMtDS0=    0 NMtDT0=    0
 Symmetry not used in FoFCou.
 Harris En= -768.089115024012    
 JPrj=0 DoOrth=F DoCkMO=F.
 Initial guess <Sx>= 0.0000 <Sy>= 0.0000 <Sz>= 0.0000 <S**2>=-0.0000 S=-0.0000
 Leave Link  401 at Sat Feb 10 17:20:51 2024, MaxMem=  4026531840 cpu:              17.1 elap:               2.2
 (Enter /sysapps/ubuntu-applications/gaussian/Gaussian/AVX2/g16/l502.exe)
 Two-electron integral symmetry not used.
 UHF open shell SCF:
 Using DIIS extrapolation, IDIIS=  1040.
 NGot=  4026531840 LenX=  4026028256 LenY=  4025779754
 Requested convergence on RMS density matrix=1.00D-08 within 128 cycles.
 Requested convergence on MAX density matrix=1.00D-06.
 Requested convergence on             energy=1.00D-06.
 No special actions if energy rises.
 Fock matrices will be formed incrementally for  20 cycles.

 Cycle   1  Pass 1  IDiag  1:
 FoFJK:  IHMeth= 1 ICntrl=       0 DoSepK=F KAlg= 0 I1Cent=           0 FoldK=F
 IRaf= 860000000 NMat=       1 IRICut=       1 DoRegI=T DoRafI=F ISym2E= 0 IDoP0=0 IntGTp=1.
 FoFCou: FMM=F IPFlag=           0 FMFlag=      100000 FMFlg1=           0
         NFxFlg=           0 DoJE=F BraDBF=F KetDBF=F FulRan=T
         wScrn=  0.000000 ICntrl=         0 IOpCl=  1 I1Cent=           0 NGrid=           0
         NMat0=    1 NMatS0=      1 NMatT0=    0 NMatD0=    1 NMtDS0=    0 NMtDT0=    0
 Symmetry not used in FoFCou.
 Inv3:  Mode=1 IEnd=    15980592.
 Iteration    1 A*A^-1 deviation from unit magnitude is 3.33D-15 for    750.
 Iteration    1 A*A^-1 deviation from orthogonality  is 1.70D-15 for   1669    734.
 Iteration    1 A^-1*A deviation from unit magnitude is 3.11D-15 for   1446.
 Iteration    1 A^-1*A deviation from orthogonality  is 1.99D-15 for    874    638.
 E= -767.206786715306    
 DIIS: error= 4.80D-02 at cycle   1 NSaved=   1.
 NSaved= 1 IEnMin= 1 EnMin= -767.206786715306     IErMin= 1 ErrMin= 4.80D-02
 ErrMax= 4.80D-02  0.00D+00 EMaxC= 1.00D-01 BMatC= 2.66D+00 BMatP= 2.66D+00
 IDIUse=3 WtCom= 5.20D-01 WtEn= 4.80D-01
 Coeff-Com:  0.100D+01
 Coeff-En:   0.100D+01
 Coeff:      0.100D+01
 Gap=     0.068 Goal=   None    Shift=    0.000
 Gap=     0.068 Goal=   None    Shift=    0.000
 GapD=    0.068 DampG=0.500 DampE=0.500 DampFc=0.2500 IDamp=-1.
 Damping current iteration by 2.50D-01
 RMSDP=1.49D+00 MaxDP=1.37D+02              OVMax= 9.52D-01

 Cycle   2  Pass 1  IDiag  1:
 RMSU=  3.45D-01    CP:  3.00D+00
 E= -767.367761605534     Delta-E=       -0.160974890228 Rises=F Damp=T
 DIIS: error= 2.64D-02 at cycle   2 NSaved=   2.
 NSaved= 2 IEnMin= 2 EnMin= -767.367761605534     IErMin= 2 ErrMin= 2.64D-02
 ErrMax= 2.64D-02  0.00D+00 EMaxC= 1.00D-01 BMatC= 5.16D-01 BMatP= 2.66D+00
 IDIUse=3 WtCom= 7.36D-01 WtEn= 2.64D-01
 Coeff-Com: -0.447D+00 0.145D+01
 Coeff-En:   0.579D-01 0.942D+00
 Coeff:     -0.314D+00 0.131D+01
 Gap=    -0.009 Goal=   None    Shift=    0.000
 Gap=    -0.009 Goal=   None    Shift=    0.000
 RMSDP=3.76D-01 MaxDP=3.44D+01 DE=-1.61D-01 OVMax= 8.64D-01

 Cycle   3  Pass 1  IDiag  1:
 RMSU=  6.97D-03    CP:  8.90D-01 -1.14D-03
 E= -767.663684436500     Delta-E=       -0.295922830966 Rises=F Damp=F
 DIIS: error= 3.06D-02 at cycle   3 NSaved=   3.
 NSaved= 3 IEnMin= 3 EnMin= -767.663684436500     IErMin= 2 ErrMin= 2.64D-02
 ErrMax= 3.06D-02  0.00D+00 EMaxC= 1.00D-01 BMatC= 7.06D-01 BMatP= 5.16D-01
 IDIUse=2 WtCom= 0.00D+00 WtEn= 1.00D+00
 Coeff-En:   0.000D+00 0.000D+00 0.100D+01
 Coeff:      0.000D+00 0.000D+00 0.100D+01
 Gap=     0.056 Goal=   None    Shift=    0.000
 Gap=     0.056 Goal=   None    Shift=    0.000
 RMSDP=3.34D-02 MaxDP=2.07D+00 DE=-2.96D-01 OVMax= 4.57D-01

 Cycle   4  Pass 1  IDiag  1:
 RMSU=  3.05D-02    CP:  1.15D+00 -3.54D-03  1.64D+00
 E= -766.887891378530     Delta-E=        0.775793057970 Rises=F Damp=F
 DIIS: error= 8.04D-02 at cycle   4 NSaved=   4.
 NSaved= 4 IEnMin= 3 EnMin= -767.663684436500     IErMin= 2 ErrMin= 2.64D-02
 ErrMax= 8.04D-02  0.00D+00 EMaxC= 1.00D-01 BMatC= 4.21D+00 BMatP= 5.16D-01
 IDIUse=2 WtCom= 0.00D+00 WtEn= 1.00D+00
 Coeff-En:   0.000D+00 0.000D+00 0.808D+00 0.192D+00
 Coeff:      0.000D+00 0.000D+00 0.808D+00 0.192D+00
 Gap=     0.051 Goal=   None    Shift=    0.000
 Gap=     0.051 Goal=   None    Shift=    0.000
 RMSDP=2.90D-02 MaxDP=2.20D+00 DE= 7.76D-01 OVMax= 2.66D-01

 Cycle   5  Pass 1  IDiag  1:
 RMSU=  5.22D-03    CP:  8.51D-01 -4.49D-04  8.50D-01  2.24D-01
 E= -767.754383203599     Delta-E=       -0.866491825069 Rises=F Damp=F
 DIIS: error= 1.74D-02 at cycle   5 NSaved=   5.
 NSaved= 5 IEnMin= 5 EnMin= -767.754383203599     IErMin= 5 ErrMin= 1.74D-02
 ErrMax= 1.74D-02  0.00D+00 EMaxC= 1.00D-01 BMatC= 3.09D-01 BMatP= 5.16D-01
 IDIUse=3 WtCom= 8.26D-01 WtEn= 1.74D-01
 Coeff-Com: -0.640D-01 0.134D+00 0.340D+00-0.594D-01 0.649D+00
 Coeff-En:   0.000D+00 0.000D+00 0.336D+00 0.000D+00 0.664D+00
 Coeff:     -0.529D-01 0.111D+00 0.339D+00-0.490D-01 0.652D+00
 Gap=     0.082 Goal=   None    Shift=    0.000
 Gap=     0.082 Goal=   None    Shift=    0.000
 RMSDP=4.66D-03 MaxDP=3.89D-01 DE=-8.66D-01 OVMax= 8.74D-02

 Cycle   6  Pass 1  IDiag  1:
 RMSU=  1.31D-03    CP:  7.97D-01 -1.59D-03  8.53D-01  1.11D-01  8.21D-01
 E= -767.818965157987     Delta-E=       -0.064581954387 Rises=F Damp=F
 DIIS: error= 2.37D-03 at cycle   6 NSaved=   6.
 NSaved= 6 IEnMin= 6 EnMin= -767.818965157987     IErMin= 6 ErrMin= 2.37D-03
 ErrMax= 2.37D-03  0.00D+00 EMaxC= 1.00D-01 BMatC= 5.03D-03 BMatP= 3.09D-01
 IDIUse=3 WtCom= 9.76D-01 WtEn= 2.37D-02
 Coeff-Com: -0.343D-01 0.621D-01 0.177D+00-0.428D-01 0.407D+00 0.431D+00
 Coeff-En:   0.000D+00 0.000D+00 0.000D+00 0.000D+00 0.000D+00 0.100D+01
 Coeff:     -0.335D-01 0.606D-01 0.173D+00-0.418D-01 0.397D+00 0.444D+00
 Gap=     0.079 Goal=   None    Shift=    0.000
 Gap=     0.079 Goal=   None    Shift=    0.000
 RMSDP=5.55D-04 MaxDP=4.11D-02 DE=-6.46D-02 OVMax= 2.62D-02

 Cycle   7  Pass 1  IDiag  1:
 RMSU=  4.27D-04    CP:  7.94D-01 -1.65D-03  8.45D-01  1.15D-01  8.65D-01
                    CP:  8.60D-01
 E= -767.819973415933     Delta-E=       -0.001008257947 Rises=F Damp=F
 DIIS: error= 1.06D-03 at cycle   7 NSaved=   7.
 NSaved= 7 IEnMin= 7 EnMin= -767.819973415933     IErMin= 7 ErrMin= 1.06D-03
 ErrMax= 1.06D-03  0.00D+00 EMaxC= 1.00D-01 BMatC= 6.95D-04 BMatP= 5.03D-03
 IDIUse=3 WtCom= 9.89D-01 WtEn= 1.06D-02
 Coeff-Com: -0.629D-02 0.722D-02 0.353D-01-0.116D-01 0.995D-01 0.290D+00
 Coeff-Com:  0.586D+00
 Coeff-En:   0.000D+00 0.000D+00 0.000D+00 0.000D+00 0.000D+00 0.126D+00
 Coeff-En:   0.874D+00
 Coeff:     -0.622D-02 0.714D-02 0.350D-01-0.115D-01 0.985D-01 0.288D+00
 Coeff:      0.589D+00
 Gap=     0.080 Goal=   None    Shift=    0.000
 Gap=     0.080 Goal=   None    Shift=    0.000
 RMSDP=3.57D-04 MaxDP=3.90D-02 DE=-1.01D-03 OVMax= 9.77D-03

 Cycle   8  Pass 1  IDiag  1:
 RMSU=  1.45D-04    CP:  7.88D-01 -1.82D-03  8.45D-01  1.13D-01  8.77D-01
                    CP:  9.63D-01  8.50D-01
 E= -767.820103605030     Delta-E=       -0.000130189096 Rises=F Damp=F
 DIIS: error= 2.66D-04 at cycle   8 NSaved=   8.
 NSaved= 8 IEnMin= 8 EnMin= -767.820103605030     IErMin= 8 ErrMin= 2.66D-04
 ErrMax= 2.66D-04  0.00D+00 EMaxC= 1.00D-01 BMatC= 1.01D-04 BMatP= 6.95D-04
 IDIUse=3 WtCom= 9.97D-01 WtEn= 2.66D-03
 Coeff-Com:  0.345D-03-0.147D-02-0.132D-02-0.163D-03-0.533D-03 0.109D+00
 Coeff-Com:  0.354D+00 0.540D+00
 Coeff-En:   0.000D+00 0.000D+00 0.000D+00 0.000D+00 0.000D+00 0.000D+00
 Coeff-En:   0.115D+00 0.885D+00
 Coeff:      0.344D-03-0.147D-02-0.132D-02-0.162D-03-0.531D-03 0.109D+00
 Coeff:      0.353D+00 0.541D+00
 Gap=     0.080 Goal=   None    Shift=    0.000
 Gap=     0.080 Goal=   None    Shift=    0.000
 RMSDP=8.30D-05 MaxDP=3.75D-03 DE=-1.30D-04 OVMax= 3.08D-03

 Cycle   9  Pass 1  IDiag  1:
 RMSU=  5.71D-05    CP:  7.89D-01 -1.84D-03  8.47D-01  1.11D-01  8.79D-01
                    CP:  9.69D-01  8.88D-01  8.91D-01
 E= -767.820128399335     Delta-E=       -0.000024794306 Rises=F Damp=F
 DIIS: error= 8.28D-05 at cycle   9 NSaved=   9.
 NSaved= 9 IEnMin= 9 EnMin= -767.820128399335     IErMin= 9 ErrMin= 8.28D-05
 ErrMax= 8.28D-05  0.00D+00 EMaxC= 1.00D-01 BMatC= 5.97D-06 BMatP= 1.01D-04
 IDIUse=1 WtCom= 1.00D+00 WtEn= 0.00D+00
 Coeff-Com:  0.748D-03-0.150D-02-0.215D-02 0.352D-03-0.396D-02 0.530D-01
 Coeff-Com:  0.178D+00 0.308D+00 0.468D+00
 Coeff:      0.748D-03-0.150D-02-0.215D-02 0.352D-03-0.396D-02 0.530D-01
 Coeff:      0.178D+00 0.308D+00 0.468D+00
 Gap=     0.080 Goal=   None    Shift=    0.000
 Gap=     0.080 Goal=   None    Shift=    0.000
 RMSDP=2.13D-05 MaxDP=1.14D-03 DE=-2.48D-05 OVMax= 9.46D-04

 Cycle  10  Pass 1  IDiag  1:
 RMSU=  1.52D-05    CP:  7.89D-01 -1.84D-03  8.46D-01  1.11D-01  8.79D-01
                    CP:  9.73D-01  9.05D-01  9.37D-01  9.06D-01
 E= -767.820129947421     Delta-E=       -0.000001548086 Rises=F Damp=F
 DIIS: error= 3.13D-05 at cycle  10 NSaved=  10.
 NSaved=10 IEnMin=10 EnMin= -767.820129947421     IErMin=10 ErrMin= 3.13D-05
 ErrMax= 3.13D-05  0.00D+00 EMaxC= 1.00D-01 BMatC= 6.07D-07 BMatP= 5.97D-06
 IDIUse=1 WtCom= 1.00D+00 WtEn= 0.00D+00
 Coeff-Com:  0.339D-03-0.415D-03-0.796D-03 0.509D-04-0.127D-02 0.107D-01
 Coeff-Com:  0.309D-01 0.597D-01 0.246D+00 0.655D+00
 Coeff:      0.339D-03-0.415D-03-0.796D-03 0.509D-04-0.127D-02 0.107D-01
 Coeff:      0.309D-01 0.597D-01 0.246D+00 0.655D+00
 Gap=     0.080 Goal=   None    Shift=    0.000
 Gap=     0.080 Goal=   None    Shift=    0.000
 RMSDP=9.95D-06 MaxDP=6.74D-04 DE=-1.55D-06 OVMax= 2.77D-04

 Cycle  11  Pass 1  IDiag  1:
 RMSU=  5.55D-06    CP:  7.89D-01 -1.85D-03  8.46D-01  1.11D-01  8.79D-01
                    CP:  9.75D-01  9.09D-01  9.51D-01  9.19D-01  9.60D-01
 E= -767.820130113578     Delta-E=       -0.000000166157 Rises=F Damp=F
 DIIS: error= 6.85D-06 at cycle  11 NSaved=  11.
 NSaved=11 IEnMin=11 EnMin= -767.820130113578     IErMin=11 ErrMin= 6.85D-06
 ErrMax= 6.85D-06  0.00D+00 EMaxC= 1.00D-01 BMatC= 5.09D-08 BMatP= 6.07D-07
 IDIUse=1 WtCom= 1.00D+00 WtEn= 0.00D+00
 Coeff-Com:  0.135D-03-0.133D-03-0.279D-03-0.958D-05-0.361D-03 0.284D-02
 Coeff-Com:  0.666D-02 0.125D-01 0.952D-01 0.340D+00 0.543D+00
 Coeff:      0.135D-03-0.133D-03-0.279D-03-0.958D-05-0.361D-03 0.284D-02
 Coeff:      0.666D-02 0.125D-01 0.952D-01 0.340D+00 0.543D+00
 Gap=     0.080 Goal=   None    Shift=    0.000
 Gap=     0.080 Goal=   None    Shift=    0.000
 RMSDP=2.44D-06 MaxDP=1.82D-04 DE=-1.66D-07 OVMax= 4.33D-05

 Cycle  12  Pass 1  IDiag  1:
 RMSU=  1.01D-06    CP:  7.89D-01 -1.85D-03  8.46D-01  1.11D-01  8.79D-01
                    CP:  9.76D-01  9.11D-01  9.57D-01  9.26D-01  1.03D+00
                    CP:  1.08D+00
 E= -767.820130125181     Delta-E=       -0.000000011603 Rises=F Damp=F
 DIIS: error= 2.66D-06 at cycle  12 NSaved=  12.
 NSaved=12 IEnMin=12 EnMin= -767.820130125181     IErMin=12 ErrMin= 2.66D-06
 ErrMax= 2.66D-06  0.00D+00 EMaxC= 1.00D-01 BMatC= 7.40D-09 BMatP= 5.09D-08
 IDIUse=1 WtCom= 1.00D+00 WtEn= 0.00D+00
 Coeff-Com:  0.221D-04-0.265D-04 0.581D-05-0.116D-04 0.541D-04-0.363D-03
 Coeff-Com: -0.152D-02-0.444D-02 0.320D-02 0.650D-01 0.292D+00 0.646D+00
 Coeff:      0.221D-04-0.265D-04 0.581D-05-0.116D-04 0.541D-04-0.363D-03
 Coeff:     -0.152D-02-0.444D-02 0.320D-02 0.650D-01 0.292D+00 0.646D+00
 Gap=     0.080 Goal=   None    Shift=    0.000
 Gap=     0.080 Goal=   None    Shift=    0.000
 RMSDP=1.35D-06 MaxDP=7.49D-05 DE=-1.16D-08 OVMax= 1.96D-05

 Cycle  13  Pass 1  IDiag  1:
 RMSU=  5.43D-07    CP:  7.89D-01 -1.85D-03  8.46D-01  1.11D-01  8.79D-01
                    CP:  9.76D-01  9.12D-01  9.60D-01  9.28D-01  1.06D+00
                    CP:  1.16D+00  1.12D+00
 E= -767.820130127064     Delta-E=       -0.000000001882 Rises=F Damp=F
 DIIS: error= 9.80D-07 at cycle  13 NSaved=  13.
 NSaved=13 IEnMin=13 EnMin= -767.820130127064     IErMin=13 ErrMin= 9.80D-07
 ErrMax= 9.80D-07  0.00D+00 EMaxC= 1.00D-01 BMatC= 8.37D-10 BMatP= 7.40D-09
 IDIUse=1 WtCom= 1.00D+00 WtEn= 0.00D+00
 Coeff-Com: -0.625D-06-0.103D-05 0.234D-04-0.492D-05 0.466D-04-0.409D-03
 Coeff-Com: -0.110D-02-0.319D-02-0.596D-02 0.899D-02 0.103D+00 0.332D+00
 Coeff-Com:  0.567D+00
 Coeff:     -0.625D-06-0.103D-05 0.234D-04-0.492D-05 0.466D-04-0.409D-03
 Coeff:     -0.110D-02-0.319D-02-0.596D-02 0.899D-02 0.103D+00 0.332D+00
 Coeff:      0.567D+00
 Gap=     0.080 Goal=   None    Shift=    0.000
 Gap=     0.080 Goal=   None    Shift=    0.000
 RMSDP=3.96D-07 MaxDP=2.41D-05 DE=-1.88D-09 OVMax= 4.88D-06

 Cycle  14  Pass 1  IDiag  1:
 RMSU=  1.42D-07    CP:  7.89D-01 -1.85D-03  8.46D-01  1.11D-01  8.79D-01
                    CP:  9.76D-01  9.13D-01  9.61D-01  9.28D-01  1.07D+00
                    CP:  1.18D+00  1.17D+00  1.07D+00
 E= -767.820130127281     Delta-E=       -0.000000000217 Rises=F Damp=F
 DIIS: error= 3.09D-07 at cycle  14 NSaved=  14.
 NSaved=14 IEnMin=14 EnMin= -767.820130127281     IErMin=14 ErrMin= 3.09D-07
 ErrMax= 3.09D-07  0.00D+00 EMaxC= 1.00D-01 BMatC= 1.25D-10 BMatP= 8.37D-10
 IDIUse=1 WtCom= 1.00D+00 WtEn= 0.00D+00
 Coeff-Com: -0.296D-05 0.226D-05 0.596D-05-0.242D-06 0.336D-05-0.152D-03
 Coeff-Com: -0.197D-03-0.813D-03-0.332D-02-0.326D-02 0.712D-02 0.723D-01
 Coeff-Com:  0.302D+00 0.627D+00
 Coeff:     -0.296D-05 0.226D-05 0.596D-05-0.242D-06 0.336D-05-0.152D-03
 Coeff:     -0.197D-03-0.813D-03-0.332D-02-0.326D-02 0.712D-02 0.723D-01
 Coeff:      0.302D+00 0.627D+00
 Gap=     0.080 Goal=   None    Shift=    0.000
 Gap=     0.080 Goal=   None    Shift=    0.000
 RMSDP=1.77D-07 MaxDP=1.29D-05 DE=-2.17D-10 OVMax= 3.89D-06

 Cycle  15  Pass 1  IDiag  1:
 RMSU=  6.81D-08    CP:  7.89D-01 -1.85D-03  8.46D-01  1.11D-01  8.79D-01
                    CP:  9.76D-01  9.13D-01  9.61D-01  9.28D-01  1.07D+00
                    CP:  1.19D+00  1.19D+00  1.05D+00  9.55D-01
 E= -767.820130127321     Delta-E=       -0.000000000041 Rises=F Damp=F
 DIIS: error= 9.64D-08 at cycle  15 NSaved=  15.
 NSaved=15 IEnMin=15 EnMin= -767.820130127321     IErMin=15 ErrMin= 9.64D-08
 ErrMax= 9.64D-08  0.00D+00 EMaxC= 1.00D-01 BMatC= 1.12D-11 BMatP= 1.25D-10
 IDIUse=1 WtCom= 1.00D+00 WtEn= 0.00D+00
 Coeff-Com: -0.209D-05 0.264D-05 0.115D-05 0.252D-06-0.227D-05-0.591D-04
 Coeff-Com: -0.363D-04-0.183D-03-0.130D-02-0.217D-02-0.589D-02 0.608D-02
 Coeff-Com:  0.909D-01 0.293D+00 0.620D+00
 Coeff:     -0.209D-05 0.264D-05 0.115D-05 0.252D-06-0.227D-05-0.591D-04
 Coeff:     -0.363D-04-0.183D-03-0.130D-02-0.217D-02-0.589D-02 0.608D-02
 Coeff:      0.909D-01 0.293D+00 0.620D+00
 Gap=     0.080 Goal=   None    Shift=    0.000
 Gap=     0.080 Goal=   None    Shift=    0.000
 RMSDP=3.63D-08 MaxDP=2.80D-06 DE=-4.07D-11 OVMax= 9.35D-07

 Cycle  16  Pass 1  IDiag  1:
 RMSU=  1.73D-08    CP:  7.89D-01 -1.85D-03  8.46D-01  1.11D-01  8.79D-01
                    CP:  9.76D-01  9.13D-01  9.61D-01  9.28D-01  1.07D+00
                    CP:  1.19D+00  1.20D+00  1.07D+00  1.06D+00  9.76D-01
 E= -767.820130127307     Delta-E=        0.000000000015 Rises=F Damp=F
 DIIS: error= 4.62D-08 at cycle  16 NSaved=  16.
 NSaved=16 IEnMin=15 EnMin= -767.820130127321     IErMin=16 ErrMin= 4.62D-08
 ErrMax= 4.62D-08  0.00D+00 EMaxC= 1.00D-01 BMatC= 3.11D-12 BMatP= 1.12D-11
 IDIUse=1 WtCom= 1.00D+00 WtEn= 0.00D+00
 Coeff-Com: -0.247D-06 0.421D-06-0.110D-05 0.453D-06-0.308D-05-0.571D-05
 Coeff-Com:  0.257D-04 0.791D-04-0.298D-04-0.152D-03-0.462D-02-0.112D-01
 Coeff-Com: -0.124D-01 0.424D-01 0.377D+00 0.609D+00
 Coeff:     -0.247D-06 0.421D-06-0.110D-05 0.453D-06-0.308D-05-0.571D-05
 Coeff:      0.257D-04 0.791D-04-0.298D-04-0.152D-03-0.462D-02-0.112D-01
 Coeff:     -0.124D-01 0.424D-01 0.377D+00 0.609D+00
 Gap=     0.080 Goal=   None    Shift=    0.000
 Gap=     0.080 Goal=   None    Shift=    0.000
 RMSDP=2.45D-08 MaxDP=1.61D-06 DE= 1.46D-11 OVMax= 9.75D-07

 Cycle  17  Pass 1  IDiag  1:
 RMSU=  8.74D-09    CP:  7.89D-01 -1.85D-03  8.46D-01  1.11D-01  8.79D-01
                    CP:  9.76D-01  9.13D-01  9.61D-01  9.28D-01  1.08D+00
                    CP:  1.19D+00  1.20D+00  1.07D+00  1.07D+00  1.09D+00
                    CP:  8.84D-01
 E= -767.820130127322     Delta-E=       -0.000000000016 Rises=F Damp=F
 DIIS: error= 1.50D-08 at cycle  17 NSaved=  17.
 NSaved=17 IEnMin=17 EnMin= -767.820130127322     IErMin=17 ErrMin= 1.50D-08
 ErrMax= 1.50D-08  0.00D+00 EMaxC= 1.00D-01 BMatC= 2.07D-13 BMatP= 3.11D-12
 IDIUse=1 WtCom= 1.00D+00 WtEn= 0.00D+00
 Coeff-Com:  0.679D-07-0.280D-07-0.320D-06 0.953D-07-0.498D-06 0.318D-06
 Coeff-Com:  0.922D-05 0.321D-04 0.762D-04 0.161D-03-0.770D-03-0.340D-02
 Coeff-Com: -0.116D-01-0.138D-01 0.339D-01 0.213D+00 0.783D+00
 Coeff:      0.679D-07-0.280D-07-0.320D-06 0.953D-07-0.498D-06 0.318D-06
 Coeff:      0.922D-05 0.321D-04 0.762D-04 0.161D-03-0.770D-03-0.340D-02
 Coeff:     -0.116D-01-0.138D-01 0.339D-01 0.213D+00 0.783D+00
 Gap=     0.080 Goal=   None    Shift=    0.000
 Gap=     0.080 Goal=   None    Shift=    0.000
 RMSDP=6.40D-09 MaxDP=7.60D-07 DE=-1.57D-11 OVMax= 1.88D-07

 Error on total polarization charges =  0.02979
 SCF Done:  E(UB3LYP) =  -767.820130127     A.U. after   17 cycles
            NFock= 17  Conv=0.64D-08     -V/T= 2.0045
 <Sx>= 0.0000 <Sy>= 0.0000 <Sz>= 0.0000 <S**2>=-0.0000 S=-0.0000
 <L.S>=  0.00000000000    
 KE= 7.643784988824D+02 PE=-4.264232478182D+03 EE= 1.512924646706D+03
 Annihilation of the first spin contaminant:
 S**2 before annihilation    -0.0000,   after     0.0000
 Leave Link  502 at Sat Feb 10 17:24:55 2024, MaxMem=  4026531840 cpu:            1895.7 elap:             243.6
 (Enter /sysapps/ubuntu-applications/gaussian/Gaussian/AVX2/g16/l601.exe)
 Copying SCF densities to generalized density rwf, IOpCl= 1 IROHF=0.

 **********************************************************************

            Population analysis using the SCF density.

 **********************************************************************

 Alpha  occ. eigenvalues --  -19.00850 -19.00847 -10.16897 -10.16896 -10.15158
 Alpha  occ. eigenvalues --  -10.15157 -10.14714 -10.14670 -10.14233 -10.14232
 Alpha  occ. eigenvalues --  -10.13703 -10.13672 -10.13607 -10.13601 -10.13510
 Alpha  occ. eigenvalues --  -10.13465 -10.13022 -10.12982  -0.92989  -0.92621
 Alpha  occ. eigenvalues --   -0.82205  -0.81770  -0.75481  -0.74660  -0.71835
 Alpha  occ. eigenvalues --   -0.69899  -0.68399  -0.64313  -0.61352  -0.59597
 Alpha  occ. eigenvalues --   -0.58403  -0.54009  -0.50632  -0.50146  -0.47280
 Alpha  occ. eigenvalues --   -0.44000  -0.42870  -0.42677  -0.42217  -0.39774
 Alpha  occ. eigenvalues --   -0.39541  -0.38533  -0.37989  -0.37437  -0.36435
 Alpha  occ. eigenvalues --   -0.36373  -0.36275  -0.34949  -0.34302  -0.33285
 Alpha  occ. eigenvalues --   -0.31965  -0.31301  -0.31062  -0.30803  -0.29501
 Alpha  occ. eigenvalues --   -0.29335  -0.22568  -0.21678  -0.21126  -0.21013
 Alpha  occ. eigenvalues --   -0.18861  -0.18343  -0.09866
 Alpha virt. eigenvalues --   -0.01879  -0.00016   0.00516   0.00748   0.01081
 Alpha virt. eigenvalues --    0.02136   0.02160   0.02423   0.03889   0.04295
 Alpha virt. eigenvalues --    0.04414   0.04667   0.04685   0.06221   0.06432
 Alpha virt. eigenvalues --    0.06543   0.07135   0.07184   0.07963   0.08092
 Alpha virt. eigenvalues --    0.08928   0.09726   0.09732   0.10344   0.10769
 Alpha virt. eigenvalues --    0.11170   0.11895   0.11985   0.12284   0.12297
 Alpha virt. eigenvalues --    0.12704   0.12865   0.13188   0.13303   0.13596
 Alpha virt. eigenvalues --    0.13787   0.14485   0.14638   0.15036   0.15345
 Alpha virt. eigenvalues --    0.15891   0.16099   0.16483   0.17087   0.17629
 Alpha virt. eigenvalues --    0.17635   0.17756   0.17808   0.18394   0.18754
 Alpha virt. eigenvalues --    0.19075   0.19370   0.19389   0.21175   0.21238
 Alpha virt. eigenvalues --    0.21407   0.22294   0.22330   0.22436   0.22611
 Alpha virt. eigenvalues --    0.22985   0.23549   0.24896   0.25236   0.25447
 Alpha virt. eigenvalues --    0.25691   0.26250   0.26648   0.27075   0.27246
 Alpha virt. eigenvalues --    0.27477   0.27576   0.28297   0.28700   0.28873
 Alpha virt. eigenvalues --    0.30001   0.30337   0.30669   0.30986   0.31641
 Alpha virt. eigenvalues --    0.31757   0.32019   0.32290   0.33381   0.33443
 Alpha virt. eigenvalues --    0.33449   0.34286   0.34376   0.35381   0.35656
 Alpha virt. eigenvalues --    0.35881   0.36426   0.36734   0.37113   0.37917
 Alpha virt. eigenvalues --    0.38084   0.38814   0.39784   0.39803   0.40152
 Alpha virt. eigenvalues --    0.41477   0.41487   0.42951   0.44496   0.45360
 Alpha virt. eigenvalues --    0.46333   0.46615   0.47972   0.48101   0.49136
 Alpha virt. eigenvalues --    0.51336   0.52698   0.53672   0.55939   0.56551
 Alpha virt. eigenvalues --    0.57109   0.57618   0.57791   0.58758   0.58897
 Alpha virt. eigenvalues --    0.59592   0.60178   0.61697   0.61828   0.63041
 Alpha virt. eigenvalues --    0.63426   0.63973   0.64107   0.64740   0.65512
 Alpha virt. eigenvalues --    0.65874   0.66061   0.66697   0.67519   0.67749
 Alpha virt. eigenvalues --    0.68607   0.68904   0.69376   0.69387   0.69917
 Alpha virt. eigenvalues --    0.70037   0.70666   0.73110   0.73290   0.73610
 Alpha virt. eigenvalues --    0.73729   0.74230   0.75001   0.76881   0.78299
 Alpha virt. eigenvalues --    0.78566   0.78713   0.79324   0.80010   0.80620
 Alpha virt. eigenvalues --    0.81814   0.84000   0.84596   0.84671   0.86266
 Alpha virt. eigenvalues --    0.86561   0.87752   0.88803   0.90697   0.93103
 Alpha virt. eigenvalues --    0.93146   0.94419   0.95147   0.96026   0.96702
 Alpha virt. eigenvalues --    0.97048   0.97646   0.98474   0.98500   0.99122
 Alpha virt. eigenvalues --    1.00958   1.00974   1.02791   1.03171   1.03828
 Alpha virt. eigenvalues --    1.04814   1.04969   1.05667   1.05978   1.08901
 Alpha virt. eigenvalues --    1.09434   1.09715   1.11670   1.12174   1.12314
 Alpha virt. eigenvalues --    1.14091   1.15399   1.15828   1.17949   1.19589
 Alpha virt. eigenvalues --    1.21136   1.21684   1.24467   1.24589   1.27204
 Alpha virt. eigenvalues --    1.29365   1.30434   1.31653   1.34734   1.36298
 Alpha virt. eigenvalues --    1.36789   1.39875   1.40849   1.41163   1.43861
 Alpha virt. eigenvalues --    1.44160   1.47909   1.49588   1.49593   1.49814
 Alpha virt. eigenvalues --    1.50872   1.51744   1.53915   1.54199   1.54968
 Alpha virt. eigenvalues --    1.55579   1.55869   1.55934   1.56177   1.58944
 Alpha virt. eigenvalues --    1.59572   1.59837   1.60889   1.62279   1.63097
 Alpha virt. eigenvalues --    1.64024   1.64158   1.66201   1.67205   1.67490
 Alpha virt. eigenvalues --    1.69248   1.70000   1.70506   1.72919   1.74963
 Alpha virt. eigenvalues --    1.75049   1.77237   1.77519   1.79451   1.80378
 Alpha virt. eigenvalues --    1.80391   1.80902   1.84863   1.84867   1.86581
 Alpha virt. eigenvalues --    1.88544   1.88693   1.91374   1.91781   1.92267
 Alpha virt. eigenvalues --    1.93632   1.93923   1.94112   1.94509   1.97564
 Alpha virt. eigenvalues --    1.97640   1.99076   1.99995   2.00951   2.02795
 Alpha virt. eigenvalues --    2.03224   2.03928   2.05134   2.07710   2.07903
 Alpha virt. eigenvalues --    2.09470   2.10880   2.12191   2.12874   2.15679
 Alpha virt. eigenvalues --    2.18404   2.18618   2.20977   2.21978   2.23603
 Alpha virt. eigenvalues --    2.26630   2.30019   2.31306   2.33188   2.33202
 Alpha virt. eigenvalues --    2.34975   2.36105   2.36138   2.37632   2.43302
 Alpha virt. eigenvalues --    2.45328   2.45805   2.45840   2.49634   2.51562
 Alpha virt. eigenvalues --    2.52160   2.52477   2.55891   2.58527   2.59537
 Alpha virt. eigenvalues --    2.59964   2.62182   2.63208   2.63723   2.63841
 Alpha virt. eigenvalues --    2.65870   2.67903   2.68357   2.70750   2.72806
 Alpha virt. eigenvalues --    2.73878   2.74548   2.75726   2.76889   2.77481
 Alpha virt. eigenvalues --    2.78282   2.78807   2.79228   2.80051   2.82419
 Alpha virt. eigenvalues --    2.82913   2.84071   2.84736   2.85720   2.86307
 Alpha virt. eigenvalues --    2.88514   2.89632   2.92505   2.92813   2.93083
 Alpha virt. eigenvalues --    2.93104   2.94823   2.97304   2.97342   2.99510
 Alpha virt. eigenvalues --    3.01754   3.04520   3.08040   3.12300   3.13401
 Alpha virt. eigenvalues --    3.14781   3.16225   3.19721   3.20107   3.21108
 Alpha virt. eigenvalues --    3.25028   3.28605   3.29600   3.31699   3.32674
 Alpha virt. eigenvalues --    3.36248   3.36966   3.37945   3.38186   3.42103
 Alpha virt. eigenvalues --    3.45830   3.47657   3.53096   3.53427   3.57355
 Alpha virt. eigenvalues --    3.58756   3.59922   3.60958   3.67823   3.68531
 Alpha virt. eigenvalues --    3.76008   3.79659   3.79939   3.81411   3.89519
 Alpha virt. eigenvalues --    3.90835   3.95928   3.98706   4.06815   4.11548
 Alpha virt. eigenvalues --    4.12669   4.23470   4.27002   4.36011   4.39730
 Alpha virt. eigenvalues --    4.42879   4.57406   4.85126   4.85990   4.89017
 Alpha virt. eigenvalues --    5.15109   5.17068   5.36763   5.38587   5.81883
 Alpha virt. eigenvalues --    5.89655  23.56577  23.72175  23.90446  23.91598
 Alpha virt. eigenvalues --   23.94595  23.95799  23.98219  23.99713  24.00322
 Alpha virt. eigenvalues --   24.01277  24.02519  24.06530  24.14799  24.15195
 Alpha virt. eigenvalues --   24.20170  24.20951  50.12086  50.17900
  Beta  occ. eigenvalues --  -19.00850 -19.00847 -10.16897 -10.16896 -10.15158
  Beta  occ. eigenvalues --  -10.15157 -10.14714 -10.14670 -10.14233 -10.14232
  Beta  occ. eigenvalues --  -10.13703 -10.13672 -10.13607 -10.13601 -10.13510
  Beta  occ. eigenvalues --  -10.13465 -10.13022 -10.12982  -0.92989  -0.92621
  Beta  occ. eigenvalues --   -0.82205  -0.81770  -0.75481  -0.74660  -0.71835
  Beta  occ. eigenvalues --   -0.69899  -0.68399  -0.64313  -0.61352  -0.59597
  Beta  occ. eigenvalues --   -0.58403  -0.54009  -0.50632  -0.50146  -0.47280
  Beta  occ. eigenvalues --   -0.44000  -0.42870  -0.42677  -0.42217  -0.39774
  Beta  occ. eigenvalues --   -0.39541  -0.38533  -0.37989  -0.37437  -0.36435
  Beta  occ. eigenvalues --   -0.36373  -0.36275  -0.34949  -0.34302  -0.33285
  Beta  occ. eigenvalues --   -0.31965  -0.31301  -0.31062  -0.30803  -0.29501
  Beta  occ. eigenvalues --   -0.29335  -0.22568  -0.21678  -0.21126  -0.21013
  Beta  occ. eigenvalues --   -0.18861  -0.18343  -0.09866
  Beta virt. eigenvalues --   -0.01879  -0.00016   0.00516   0.00748   0.01081
  Beta virt. eigenvalues --    0.02136   0.02160   0.02423   0.03889   0.04295
  Beta virt. eigenvalues --    0.04414   0.04667   0.04685   0.06221   0.06432
  Beta virt. eigenvalues --    0.06543   0.07135   0.07184   0.07963   0.08092
  Beta virt. eigenvalues --    0.08928   0.09726   0.09732   0.10344   0.10769
  Beta virt. eigenvalues --    0.11170   0.11895   0.11985   0.12284   0.12297
  Beta virt. eigenvalues --    0.12704   0.12865   0.13188   0.13303   0.13596
  Beta virt. eigenvalues --    0.13787   0.14485   0.14638   0.15036   0.15345
  Beta virt. eigenvalues --    0.15891   0.16099   0.16483   0.17087   0.17629
  Beta virt. eigenvalues --    0.17635   0.17756   0.17808   0.18394   0.18754
  Beta virt. eigenvalues --    0.19075   0.19370   0.19389   0.21175   0.21238
  Beta virt. eigenvalues --    0.21407   0.22294   0.22330   0.22436   0.22611
  Beta virt. eigenvalues --    0.22985   0.23549   0.24896   0.25236   0.25447
  Beta virt. eigenvalues --    0.25691   0.26250   0.26648   0.27075   0.27246
  Beta virt. eigenvalues --    0.27477   0.27576   0.28297   0.28700   0.28873
  Beta virt. eigenvalues --    0.30001   0.30337   0.30669   0.30986   0.31641
  Beta virt. eigenvalues --    0.31757   0.32019   0.32290   0.33381   0.33443
  Beta virt. eigenvalues --    0.33449   0.34286   0.34376   0.35381   0.35656
  Beta virt. eigenvalues --    0.35881   0.36426   0.36734   0.37113   0.37917
  Beta virt. eigenvalues --    0.38084   0.38814   0.39784   0.39803   0.40152
  Beta virt. eigenvalues --    0.41477   0.41487   0.42951   0.44496   0.45360
  Beta virt. eigenvalues --    0.46333   0.46615   0.47972   0.48101   0.49136
  Beta virt. eigenvalues --    0.51336   0.52698   0.53672   0.55939   0.56551
  Beta virt. eigenvalues --    0.57109   0.57618   0.57791   0.58758   0.58897
  Beta virt. eigenvalues --    0.59592   0.60178   0.61697   0.61828   0.63041
  Beta virt. eigenvalues --    0.63426   0.63973   0.64107   0.64740   0.65512
  Beta virt. eigenvalues --    0.65874   0.66061   0.66697   0.67519   0.67749
  Beta virt. eigenvalues --    0.68607   0.68904   0.69376   0.69387   0.69917
  Beta virt. eigenvalues --    0.70037   0.70666   0.73110   0.73290   0.73610
  Beta virt. eigenvalues --    0.73729   0.74230   0.75001   0.76881   0.78299
  Beta virt. eigenvalues --    0.78566   0.78713   0.79324   0.80010   0.80620
  Beta virt. eigenvalues --    0.81814   0.84000   0.84596   0.84671   0.86266
  Beta virt. eigenvalues --    0.86561   0.87752   0.88803   0.90697   0.93103
  Beta virt. eigenvalues --    0.93146   0.94419   0.95147   0.96026   0.96702
  Beta virt. eigenvalues --    0.97048   0.97646   0.98474   0.98500   0.99122
  Beta virt. eigenvalues --    1.00958   1.00974   1.02791   1.03171   1.03828
  Beta virt. eigenvalues --    1.04814   1.04969   1.05667   1.05978   1.08901
  Beta virt. eigenvalues --    1.09434   1.09715   1.11670   1.12174   1.12314
  Beta virt. eigenvalues --    1.14091   1.15399   1.15828   1.17949   1.19589
  Beta virt. eigenvalues --    1.21136   1.21684   1.24467   1.24589   1.27204
  Beta virt. eigenvalues --    1.29365   1.30434   1.31653   1.34734   1.36298
  Beta virt. eigenvalues --    1.36789   1.39875   1.40849   1.41163   1.43861
  Beta virt. eigenvalues --    1.44160   1.47909   1.49588   1.49593   1.49814
  Beta virt. eigenvalues --    1.50872   1.51744   1.53915   1.54199   1.54968
  Beta virt. eigenvalues --    1.55579   1.55869   1.55934   1.56177   1.58944
  Beta virt. eigenvalues --    1.59572   1.59837   1.60889   1.62279   1.63097
  Beta virt. eigenvalues --    1.64024   1.64158   1.66201   1.67205   1.67490
  Beta virt. eigenvalues --    1.69248   1.70000   1.70506   1.72919   1.74963
  Beta virt. eigenvalues --    1.75049   1.77237   1.77519   1.79451   1.80378
  Beta virt. eigenvalues --    1.80391   1.80902   1.84863   1.84867   1.86581
  Beta virt. eigenvalues --    1.88544   1.88693   1.91374   1.91781   1.92267
  Beta virt. eigenvalues --    1.93632   1.93923   1.94112   1.94509   1.97564
  Beta virt. eigenvalues --    1.97640   1.99076   1.99995   2.00951   2.02795
  Beta virt. eigenvalues --    2.03224   2.03928   2.05134   2.07710   2.07903
  Beta virt. eigenvalues --    2.09470   2.10880   2.12191   2.12874   2.15679
  Beta virt. eigenvalues --    2.18404   2.18618   2.20977   2.21978   2.23603
  Beta virt. eigenvalues --    2.26630   2.30019   2.31306   2.33188   2.33202
  Beta virt. eigenvalues --    2.34975   2.36105   2.36138   2.37632   2.43302
  Beta virt. eigenvalues --    2.45328   2.45805   2.45840   2.49634   2.51562
  Beta virt. eigenvalues --    2.52160   2.52477   2.55891   2.58527   2.59537
  Beta virt. eigenvalues --    2.59964   2.62182   2.63208   2.63723   2.63841
  Beta virt. eigenvalues --    2.65870   2.67903   2.68357   2.70750   2.72806
  Beta virt. eigenvalues --    2.73878   2.74548   2.75726   2.76889   2.77481
  Beta virt. eigenvalues --    2.78282   2.78807   2.79228   2.80051   2.82419
  Beta virt. eigenvalues --    2.82913   2.84071   2.84736   2.85720   2.86307
  Beta virt. eigenvalues --    2.88514   2.89632   2.92505   2.92813   2.93083
  Beta virt. eigenvalues --    2.93104   2.94823   2.97304   2.97342   2.99510
  Beta virt. eigenvalues --    3.01754   3.04520   3.08040   3.12300   3.13401
  Beta virt. eigenvalues --    3.14781   3.16225   3.19721   3.20107   3.21108
  Beta virt. eigenvalues --    3.25028   3.28605   3.29600   3.31699   3.32674
  Beta virt. eigenvalues --    3.36248   3.36966   3.37945   3.38186   3.42103
  Beta virt. eigenvalues --    3.45830   3.47657   3.53096   3.53427   3.57355
  Beta virt. eigenvalues --    3.58756   3.59922   3.60958   3.67823   3.68531
  Beta virt. eigenvalues --    3.76008   3.79659   3.79939   3.81411   3.89519
  Beta virt. eigenvalues --    3.90835   3.95928   3.98706   4.06815   4.11548
  Beta virt. eigenvalues --    4.12669   4.23470   4.27002   4.36011   4.39730
  Beta virt. eigenvalues --    4.42879   4.57406   4.85126   4.85990   4.89017
  Beta virt. eigenvalues --    5.15109   5.17068   5.36763   5.38587   5.81883
  Beta virt. eigenvalues --    5.89655  23.56577  23.72175  23.90446  23.91598
  Beta virt. eigenvalues --   23.94595  23.95799  23.98219  23.99713  24.00322
  Beta virt. eigenvalues --   24.01277  24.02519  24.06530  24.14799  24.15195
  Beta virt. eigenvalues --   24.20170  24.20951  50.12086  50.17900
          Condensed to atoms (all electrons):
               1          2          3          4          5          6
     1  C    6.332352   0.167488  -0.083556  -0.043396   0.408961   0.016764
     2  C    0.167488  10.667722  -0.289916  -0.479109   3.358787   0.408420
     3  C   -0.083556  -0.289916   8.304191   1.651669  -0.481752  -0.043803
     4  C   -0.043396  -0.479109   1.651669   8.306101  -0.289367  -0.083416
     5  C    0.408961   3.358787  -0.481752  -0.289367  10.666550   0.165805
     6  C    0.016764   0.408420  -0.043803  -0.083416   0.165805   6.332007
     7  C   -0.301109   0.020231   0.099106  -1.012292   1.439091  -0.230956
     8  C   -0.125730  -1.352371  -0.887144  -0.759648  -2.502289  -0.219307
     9  O   -0.003725  -0.048963  -0.004965  -0.059139  -0.187712   0.025014
    10  C   -0.204369  -2.427629   0.075969  -0.332098  -3.040979  -0.433081
    11  C   -0.016935  -0.146278   0.020408  -0.091912  -0.114933  -0.055726
    12  C    0.013898  -0.074474   0.005157  -0.011625  -0.067108  -0.025218
    13  C   -0.025150  -0.067578  -0.011684   0.005112  -0.074578   0.013928
    14  C   -0.055578  -0.116101  -0.091914   0.020023  -0.146705  -0.016981
    15  C   -0.434064  -3.040236  -0.330508   0.075216  -2.425941  -0.203994
    16  C   -0.221115  -2.502907  -0.757968  -0.888117  -1.351797  -0.125455
    17  O    0.024775  -0.187786  -0.059164  -0.005050  -0.049031  -0.003731
    18  C   -0.230348   1.441257  -1.011725   0.099328   0.022159  -0.300524
    19  H    0.358965   0.037164  -0.021076   0.003128   0.013198   0.001602
    20  H    0.357169   0.037782  -0.020856   0.002973   0.013085   0.001601
    21  H    0.423026  -0.198359   0.031627   0.008680  -0.025820  -0.005115
    22  H   -0.026351  -0.086628   0.417953  -0.067651   0.024721   0.006446
    23  H    0.006477   0.024789  -0.067600   0.418016  -0.086611  -0.026256
    24  H    0.001616   0.013288   0.003025  -0.020930   0.037568   0.358426
    25  H    0.001596   0.013066   0.003071  -0.021072   0.037399   0.357799
    26  H   -0.005121  -0.025898   0.008753   0.031889  -0.198488   0.423081
    27  H   -0.001152  -0.000826   0.000951   0.003729   0.003970  -0.000811
    28  H    0.000256  -0.000069   0.000349  -0.000069   0.000862  -0.000885
    29  H   -0.000883   0.000881  -0.000068   0.000351  -0.000058   0.000257
    30  H   -0.000817   0.003704   0.003711   0.000934  -0.000937  -0.001161
               7          8          9         10         11         12
     1  C   -0.301109  -0.125730  -0.003725  -0.204369  -0.016935   0.013898
     2  C    0.020231  -1.352371  -0.048963  -2.427629  -0.146278  -0.074474
     3  C    0.099106  -0.887144  -0.004965   0.075969   0.020408   0.005157
     4  C   -1.012292  -0.759648  -0.059139  -0.332098  -0.091912  -0.011625
     5  C    1.439091  -2.502289  -0.187712  -3.040979  -0.114933  -0.067108
     6  C   -0.230956  -0.219307   0.025014  -0.433081  -0.055726  -0.025218
     7  C    9.854321   0.764175  -0.163182  -2.418303  -0.270402  -0.017824
     8  C    0.764175  10.213655   0.883715   0.037154  -1.376795   0.179386
     9  O   -0.163182   0.883715   8.767411  -0.586857   0.113213   0.075798
    10  C   -2.418303   0.037154  -0.586857  15.863827   0.464849  -1.203670
    11  C   -0.270402  -1.376795   0.113213   0.464849   8.350618  -0.147500
    12  C   -0.017824   0.179386   0.075798  -1.203670  -0.147500   7.405504
    13  C   -0.158084  -0.189395  -0.015869   1.008246  -0.392690  -0.127275
    14  C   -0.659836  -0.918600  -0.012667  -0.541021   1.535923  -0.391572
    15  C   -3.140507   0.046885  -0.128927   2.853558  -0.543117   1.008042
    16  C    1.338301   1.737507  -0.004978   0.046014  -0.920093  -0.190964
    17  O   -0.003351  -0.004967  -0.000255  -0.128938  -0.012679  -0.015860
    18  C    0.652826   1.337665  -0.003320  -3.144200  -0.661032  -0.158221
    19  H    0.002424   0.001490  -0.000049  -0.008265  -0.001727  -0.000925
    20  H    0.002674   0.001461  -0.000048  -0.008119  -0.001716  -0.000913
    21  H   -0.000315   0.002932  -0.000091   0.006917   0.001706   0.001042
    22  H    0.020170  -0.004239   0.000352   0.008779   0.001190  -0.000026
    23  H    0.000503   0.023002   0.000029   0.004243  -0.000596   0.000063
    24  H    0.032729  -0.008560  -0.031901  -0.022900  -0.003237   0.001798
    25  H    0.032715  -0.008001  -0.031914  -0.022631  -0.003208   0.001799
    26  H   -0.029103   0.050728   0.027446   0.022204  -0.002275  -0.002475
    27  H   -0.001938   0.026955   0.001776  -0.015485   0.359289  -0.123076
    28  H    0.008700   0.019445   0.002898  -0.020866  -0.100817   0.499303
    29  H   -0.004760  -0.008936  -0.000340   0.000011   0.005776  -0.080860
    30  H    0.004829   0.003402   0.000368   0.039941   0.021091   0.005582
              13         14         15         16         17         18
     1  C   -0.025150  -0.055578  -0.434064  -0.221115   0.024775  -0.230348
     2  C   -0.067578  -0.116101  -3.040236  -2.502907  -0.187786   1.441257
     3  C   -0.011684  -0.091914  -0.330508  -0.757968  -0.059164  -1.011725
     4  C    0.005112   0.020023   0.075216  -0.888117  -0.005050   0.099328
     5  C   -0.074578  -0.146705  -2.425941  -1.351797  -0.049031   0.022159
     6  C    0.013928  -0.016981  -0.203994  -0.125455  -0.003731  -0.300524
     7  C   -0.158084  -0.659836  -3.140507   1.338301  -0.003351   0.652826
     8  C   -0.189395  -0.918600   0.046885   1.737507  -0.004967   1.337665
     9  O   -0.015869  -0.012667  -0.128927  -0.004978  -0.000255  -0.003320
    10  C    1.008246  -0.541021   2.853558   0.046014  -0.128938  -3.144200
    11  C   -0.392690   1.535923  -0.543117  -0.920093  -0.012679  -0.661032
    12  C   -0.127275  -0.391572   1.008042  -0.190964  -0.015860  -0.158221
    13  C    7.402391  -0.148308  -1.199386   0.179941   0.075445  -0.018099
    14  C   -0.148308   8.349415   0.464198  -1.375708   0.113179  -0.272323
    15  C   -1.199386   0.464198  15.855506   0.035303  -0.586250  -2.419503
    16  C    0.179941  -1.375708   0.035303  10.218018   0.884252   0.764393
    17  O    0.075445   0.113179  -0.586250   0.884252   8.767957  -0.163583
    18  C   -0.018099  -0.272323  -2.419503   0.764393  -0.163583   9.858431
    19  H    0.001765  -0.003344  -0.022746  -0.008561  -0.031916   0.032797
    20  H    0.001804  -0.003144  -0.022655  -0.008009  -0.031725   0.032552
    21  H   -0.002465  -0.002241   0.022183   0.050824   0.027423  -0.029072
    22  H    0.000063  -0.000587   0.004275   0.023079   0.000034   0.000550
    23  H   -0.000026   0.001188   0.008755  -0.004269   0.000351   0.020094
    24  H   -0.000927  -0.001730  -0.008232   0.001448  -0.000049   0.002515
    25  H   -0.000917  -0.001719  -0.008177   0.001489  -0.000048   0.002587
    26  H    0.001043   0.001706   0.006909   0.002934  -0.000092  -0.000336
    27  H    0.005447   0.020978   0.039797   0.003543   0.000368   0.004983
    28  H   -0.080771   0.005786  -0.000062  -0.009017  -0.000340  -0.004797
    29  H    0.499223  -0.100942  -0.020987   0.019608   0.002904   0.008758
    30  H   -0.123554   0.359806  -0.013855   0.026519   0.001500  -0.002561
              19         20         21         22         23         24
     1  C    0.358965   0.357169   0.423026  -0.026351   0.006477   0.001616
     2  C    0.037164   0.037782  -0.198359  -0.086628   0.024789   0.013288
     3  C   -0.021076  -0.020856   0.031627   0.417953  -0.067600   0.003025
     4  C    0.003128   0.002973   0.008680  -0.067651   0.418016  -0.020930
     5  C    0.013198   0.013085  -0.025820   0.024721  -0.086611   0.037568
     6  C    0.001602   0.001601  -0.005115   0.006446  -0.026256   0.358426
     7  C    0.002424   0.002674  -0.000315   0.020170   0.000503   0.032729
     8  C    0.001490   0.001461   0.002932  -0.004239   0.023002  -0.008560
     9  O   -0.000049  -0.000048  -0.000091   0.000352   0.000029  -0.031901
    10  C   -0.008265  -0.008119   0.006917   0.008779   0.004243  -0.022900
    11  C   -0.001727  -0.001716   0.001706   0.001190  -0.000596  -0.003237
    12  C   -0.000925  -0.000913   0.001042  -0.000026   0.000063   0.001798
    13  C    0.001765   0.001804  -0.002465   0.000063  -0.000026  -0.000927
    14  C   -0.003344  -0.003144  -0.002241  -0.000587   0.001188  -0.001730
    15  C   -0.022746  -0.022655   0.022183   0.004275   0.008755  -0.008232
    16  C   -0.008561  -0.008009   0.050824   0.023079  -0.004269   0.001448
[...]
 .00006991,0.00015341,0.00024336,-0.00080580,-0.00008939,-0.00013908,0.
 00003296,-0.00010480,-0.00007393,-0.00003654,-0.00003981,0.00000038,-0
 .00001436,-0.00020782,-0.00029351,-0.00012546,-0.00022513,0.00009261,0
 .00059627,0.04243822,0.06512002,-0.00003423,0.00004056,0.00001751,-0.0
 0002036,-0.00001885,-0.00010260,-0.00006123,0.00002548,-0.00037065,-0.
 00070661,0.00007073,-0.00002070,-0.00179308,-0.00001506,0.00355434,0.1
 1801624,0.05235269,-0.21037261,0.00031936,0.00048479,0.00049581,0.0008
 5724,0.00241889,-0.00078681,0.00133908,-0.00321095,0.00121983,0.000342
 81,-0.00080737,-0.00018729,-0.00027986,-0.00001332,0.00004721,0.000085
 32,-0.00014237,0.00001839,-0.00001136,0.00008687,-0.00001652,0.0000244
 9,-0.00008479,-0.00000849,0.00001121,0.00010844,0.00000762,-0.00001333
 ,0.00034337,0.00004221,-0.00008841,-0.00027578,-0.00001016,0.00013995,
 -0.00015885,0.00006363,0.00002213,0.00001419,-0.00000134,0.00001712,0.
 00002676,0.00001724,0.00000362,0.00000292,-0.00000024,0.00000544,0.000
 03195,0.00005672,-0.00004734,-0.00005502,0.00005869,-0.13094760,-0.055
 35891,0.22793491,-0.00000541,-0.00004565,-0.00014093,0.00056685,-0.000
 09299,0.00003150,-0.00035365,-0.00000099,0.00087124,0.00045469,-0.0018
 0440,-0.00034054,-0.00529275,-0.00433263,-0.00440692,-0.11852787,-0.03
 147949,-0.11952832,-0.00061515,0.00059356,0.00055292,0.00049095,-0.000
 14901,-0.00016424,-0.00150110,0.00077258,0.00104404,-0.00054407,0.0005
 6077,-0.00026967,0.00034073,-0.00007945,0.00006318,-0.00009534,0.00021
 240,-0.00000283,-0.00000236,-0.00016668,-0.00001085,-0.00003416,0.0000
 4760,0.00000276,-0.00004400,-0.00026606,-0.00000338,0.00020757,-0.0003
 6647,0.00001218,-0.00002368,0.00012838,0.00001113,-0.00061820,0.000036
 80,-0.00001280,0.00002362,0.00003149,0.00000198,0.00000247,-0.00002325
 ,0.00000950,0.00000553,-0.00000077,0.00000457,-0.00006934,-0.00009877,
 0.00000086,0.00029383,-0.00023154,-0.00070092,0.00823017,0.00399393,0.
 01415806,0.13014173,0.00017065,-0.00018162,-0.00019225,-0.00097768,0.0
 0026720,-0.00019142,-0.00026472,-0.00075549,0.00164911,0.00039750,-0.0
 0310056,-0.00004365,-0.01802116,-0.00742372,-0.02533693,-0.03234080,-0
 .05833819,-0.05045075,-0.00015720,0.00062118,0.00034483,-0.00027665,-0
 .00188373,-0.00030314,0.00059210,0.00110328,0.00041990,0.00017650,0.00
 036353,0.00003944,-0.00006629,0.00000288,-0.00000065,0.00009821,0.0000
 6371,-0.00000553,-0.00003162,-0.00005982,0.00001409,0.00006840,0.00001
 495,0.00001439,-0.00023231,-0.00011025,-0.00001072,0.00019876,0.000400
 78,-0.00013807,0.00000764,-0.00021802,0.00008473,0.00012199,0.00028885
 ,0.00073518,-0.00010944,-0.00007415,0.00003519,-0.00008897,-0.00013481
 ,-0.00002700,-0.00004365,0.00000285,0.00000849,-0.00021751,-0.00029439
 ,0.00012853,-0.00019711,0.00007447,-0.00061638,0.00413850,0.00190521,0
 .00599393,0.03875201,0.06379845,0.00004217,-0.00005148,0.00001567,-0.0
 0000465,0.00001151,-0.00010407,0.00011111,0.00000466,-0.00029545,0.000
 64366,-0.00025502,0.00000870,0.00127689,-0.00015634,0.00285886,-0.1167
 1365,-0.04993594,-0.21545786,-0.00044233,-0.00039201,0.00047078,-0.000
 63424,-0.00230306,-0.00052440,-0.00065695,0.00265106,0.00151675,-0.000
 35073,0.00082914,-0.00036319,0.00027394,0.00000966,0.00005501,-0.00006
 670,0.00017187,0.00000515,-0.00000815,-0.00011354,-0.00001263,-0.00000
 244,0.00007214,-0.00000949,-0.00009248,-0.00014639,0.00003510,0.000097
 67,-0.00027384,0.00005959,0.00006131,0.00020469,-0.00001982,-0.0001394
 9,0.00015231,0.00006667,-0.00002554,-0.00002997,0.00001846,-0.00003031
 ,-0.00002061,-0.00000306,-0.00000760,-0.00000311,-0.00000129,-0.000018
 34,-0.00003940,0.00005755,0.00004557,0.00006445,0.00003032,-0.01355202
 ,-0.00545911,-0.02334318,0.12896940,0.05323521,0.23331436,-0.00001052,
 0.00001501,0.00000811,0.00022170,-0.00025371,0.00001770,0.00049976,0.0
 0000371,-0.00004267,-0.00000780,-0.00397267,-0.00001997,0.00398004,-0.
 00424400,-0.00005136,-0.22373692,0.11466101,-0.00014515,0.00109494,-0.
 00176272,0.00000264,-0.00146342,-0.00248774,0.00011370,-0.00281013,0.0
 0353230,-0.00000100,-0.00041657,0.00045704,-0.00005920,0.00026589,0.00
 011397,-0.00001178,-0.00017392,0.00002516,-0.00000607,0.00004269,0.000
 06175,-0.00000053,-0.00009190,0.00009642,-0.00000795,0.00030261,0.0001
 2023,0.00000679,-0.00030085,-0.00067836,0.00000776,0.00022013,0.000702
 42,-0.00000741,-0.00034187,-0.00019497,0.00000307,0.00002202,0.0000222
 1,-0.00000314,0.00002144,0.00002508,0.00000011,0.00003968,0.00000086,0
 .00000141,0.00007046,0.00010989,0.00000082,0.00044283,-0.00093385,0.00
 001614,-0.01322898,0.00848337,-0.00131203,-0.01304815,0.00826582,0.001
 19539,0.24839729,-0.00004787,0.00004019,-0.00000413,-0.00008205,0.0002
 5207,-0.00001856,-0.00028885,0.00000663,0.00001589,0.00280589,0.000674
 21,0.00009658,0.02716912,-0.02109389,0.00014908,0.10942628,-0.11794822
 ,0.00002145,-0.00451494,-0.00351564,-0.00018297,-0.00038416,0.00023292
 ,0.00001019,0.00034531,0.00068417,-0.00002443,0.00025040,0.00029005,0.
 00001292,-0.00005864,-0.00005914,0.00000074,0.00011164,0.00003502,0.00
 000349,0.00000963,-0.00007206,0.00000207,0.00003626,0.00002331,0.00000
 134,-0.00021933,-0.00012812,-0.00000524,-0.00034237,0.00016650,-0.0000
 0266,0.00002864,-0.00065284,0.00001909,0.00181879,-0.00053191,0.000065
 39,-0.00001592,-0.00001900,0.00000626,-0.00001474,-0.00001883,-0.00000
 486,-0.00005372,-0.00002415,-0.00000139,-0.00001489,0.00000617,-0.0000
 0392,-0.00154734,0.00036745,-0.00007709,-0.00625902,0.00394976,-0.0018
 4374,-0.00598078,0.00366184,0.00175729,-0.12221587,0.13369262,-0.00000
 090,0.00000018,0.00005114,-0.00000914,-0.00000368,0.00002564,0.0000208
 0,0.00000620,-0.00027221,-0.00000139,-0.00010596,-0.00006093,0.0002576
 0,-0.00007412,-0.00120345,-0.00016150,0.00007038,-0.05116073,-0.000116
 92,0.00000262,0.00159497,0.00004005,0.00005360,-0.00008748,0.00015116,
 -0.00005216,0.00210823,0.00002188,-0.00005293,-0.00043397,-0.00001244,
 0.00000247,-0.00000426,0.00000578,-0.00000418,0.00000158,-0.00000190,0
 .00000285,-0.00001672,-0.00000073,-0.00000356,0.00004260,-0.00000758,-
 0.00000111,0.00003700,0.00000141,0.00000909,-0.00016304,-0.00000171,-0
 .00001738,0.00002575,0.00002368,0.00000280,0.00023181,-0.00000520,-0.0
 0001297,-0.00000027,0.00000263,0.00001042,-0.00000131,-0.00000087,-0.0
 0000004,-0.00000223,0.00000017,0.00000119,-0.00001832,-0.00003426,-0.0
 0002283,0.00035135,0.01969979,-0.01444304,0.00168545,-0.02015633,0.014
 62430,0.00161703,0.00028997,0.00000713,0.04563211,-0.00000035,0.000031
 05,-0.00000273,0.00003665,0.00012320,-0.00000332,-0.00019898,-0.000259
 95,-0.00000369,0.00032981,0.00023293,0.00000271,-0.00046194,0.00016593
 ,-0.00003326,0.00002080,-0.00002731,0.00001278,0.00140661,0.00044973,0
 .00000479,-0.00186898,-0.00281196,0.00020825,0.00420607,0.00208307,0.0
 0060653,-0.00532983,-0.03059552,0.00093179,-0.08660126,-0.08750903,0.0
 0209926,0.00935551,0.02025016,-0.00068056,-0.00183052,0.00284994,-0.00
 044470,-0.00091484,0.00052453,-0.00001593,-0.00534206,0.00130165,-0.00
 034569,0.00037615,-0.00149086,0.00009930,-0.00073094,-0.00029721,-0.00
 003648,-0.00001558,-0.00047765,0.00001914,0.00001219,-0.00000523,-0.00
 000835,0.00001201,-0.00000422,0.00001152,-0.00002362,0.00001310,-0.000
 00062,-0.00001555,0.00000057,0.00000020,-0.00000356,0.00001854,0.00000
 394,0.00000619,0.00003042,-0.00004030,0.00000083,0.00002618,0.00003706
 ,0.00007015,0.00000170,-0.00000528,0.08589674,-0.00000426,0.00001289,0
 .00000041,0.00001948,0.00003683,0.00000155,-0.00009546,-0.00010166,-0.
 00000179,0.00003062,0.00012839,-0.00000132,-0.00012369,-0.00008686,0.0
 0000624,0.00000712,0.00001000,-0.00000436,-0.00005066,0.00032522,-0.00
 004329,0.00048384,-0.00393309,0.00014693,0.00356896,-0.00100873,0.0000
 7734,-0.00457472,-0.00246109,0.00014978,-0.08800299,-0.29978608,0.0085
 4570,-0.00960547,-0.01690825,0.00058198,0.00413290,-0.00069128,0.00055
 514,-0.00002691,0.00065196,-0.00007212,-0.00038575,0.00130216,0.000140
 57,0.00020200,0.00000566,-0.00002778,-0.00025463,-0.00031638,0.0000150
 8,-0.00008619,-0.00022968,0.00000726,0.00000032,-0.00000981,-0.0000027
 1,0.00000284,-0.00001044,0.00000389,-0.00001863,0.00000336,-0.00000112
 ,-0.00002157,-0.00000389,-0.00000056,-0.00002337,0.00002215,-0.0000016
 7,-0.00000067,0.00001555,0.00000450,0.00000143,0.00001526,0.00000002,-
 0.00001550,0.00001011,0.00000211,0.09520573,0.32280708,-0.00000148,0.0
 0000367,0.00002928,0.00000152,0.00000019,0.00003147,-0.00000720,-0.000
 00990,-0.00000941,0.00003424,0.00000250,0.00000914,-0.00004054,0.00003
 241,0.00016144,0.00000391,0.00000009,-0.00002755,0.00014423,0.00000407
 ,-0.00020323,-0.00015947,-0.00015762,-0.00250018,0.00026589,0.00035626
 ,-0.00167201,-0.00007113,-0.00071058,0.00437502,0.00246292,0.00845696,
 -0.03795068,0.00055065,0.00147945,0.00404430,-0.00047361,0.00047603,0.
 00859145,-0.00003727,-0.00004551,-0.00101656,-0.00025767,0.00019328,0.
 00496615,-0.00002493,-0.00011219,-0.00057614,0.00000128,0.00006590,0.0
 0022461,-0.00000899,-0.00001114,0.00005072,-0.00000972,0.00000961,-0.0
 0001206,0.00001339,-0.00000926,-0.00001162,0.00000216,-0.00000002,-0.0
 0000417,0.00000234,0.00000049,-0.00000347,0.00000309,-0.00000151,-0.00
 002592,-0.00001116,0.00000025,0.00000304,0.00000805,0.00000149,0.00000
 875,0.00000844,-0.00000242,0.00002146,-0.00266122,-0.00977560,0.027602
 65,0.00000016,0.00000378,-0.00000035,-0.00006188,0.00009787,-0.0000087
 0,-0.00006787,-0.00018793,0.00000106,-0.00003531,0.00027684,-0.0000094
 9,-0.00011707,-0.00017176,-0.00000578,-0.00001269,-0.00001959,0.000000
 66,0.00002593,0.00079765,0.00001178,-0.00119693,-0.00122652,0.00000991
 ,0.00005146,0.00043810,-0.00004876,0.00046475,0.00349963,-0.00042123,-
 0.01698095,-0.00634920,-0.00035520,-0.31819004,-0.04766247,-0.00717254
 ,-0.00683082,0.00187219,-0.00032314,0.00148724,-0.00262638,0.00000872,
 0.00037339,0.00073594,-0.00000473,0.00006181,0.00059468,0.00001158,-0.
 00035269,-0.00052866,0.00000050,0.00012336,-0.00041864,0.00001112,-0.0
 0000303,-0.00001320,-0.00000443,-0.00000027,-0.00001243,0.00000756,-0.
 00003799,0.00000283,-0.00000154,-0.00003651,-0.00000864,-0.00000013,-0
 .00003803,0.00002796,0.00000117,0.00001029,0.00000869,0.00000506,0.000
 00942,0.00000960,-0.00000301,-0.00003536,0.00002450,0.00000033,0.00122
 523,0.00016001,0.00020735,0.33989446,0.00000778,0.00000416,-0.00000003
 ,-0.00011172,0.00007435,-0.00000146,-0.00001770,-0.00016846,0.00000111
 ,0.00012559,0.00010999,0.00000488,-0.00003115,0.00011500,-0.00000345,-
 0.00000498,-0.00000321,-0.00000154,0.00055916,-0.00023861,-0.00003413,
 0.00034882,0.00109478,-0.00001261,0.00001077,-0.00011171,0.00003093,0.
 00221369,-0.00385537,0.00058782,0.02539322,0.00776317,0.00058715,-0.04
 818657,-0.06678414,-0.00009992,-0.02950324,0.00023816,-0.00089922,-0.0
 0064847,-0.00565482,0.00039394,0.00051230,-0.00057323,0.00001793,-0.00
 040158,0.00022560,-0.00005324,-0.00014032,0.00015210,-0.00001465,0.000
 07981,-0.00031138,0.00002360,0.00000187,-0.00000140,-0.00000303,0.0000
 0233,-0.00000130,0.00000368,-0.00000854,0.00000525,-0.00000021,-0.0000
 0472,-0.00000170,-0.00000077,0.00001622,0.00000369,0.00000091,0.000001
 90,0.00000328,-0.00000389,0.00000311,0.00000186,0.00000505,0.00000673,
 -0.00000353,-0.00000015,-0.00070864,0.00116886,-0.00029702,0.05099363,
 0.06569139,-0.00000069,0.00000139,0.00000483,-0.00001111,0.00000661,0.
 00011949,-0.00000373,-0.00001317,-0.00001047,-0.00000030,0.00001281,0.
 00012399,-0.00000774,-0.00000077,0.00010444,0.00000033,0.00000425,-0.0
 0006667,0.00003217,-0.00001001,-0.00127197,-0.00012100,-0.00002950,0.0
 0057063,-0.00002253,0.00004638,0.00051200,-0.00033050,0.00057833,0.008
 56783,-0.00159161,-0.00043934,0.00232643,-0.00718251,-0.00005273,-0.03
 110220,0.00093626,0.00009390,0.00104556,-0.00008337,0.00033484,0.00466
 099,0.00003245,0.00005556,-0.00046201,0.00001333,-0.00000052,-0.000783
 97,0.00000113,-0.00003503,-0.00008042,0.00000639,-0.00002172,0.0001900
 5,-0.00000126,0.00000089,-0.00000198,0.00000199,-0.00000245,-0.0000020
 9,-0.00000135,-0.00000013,0.00000152,-0.00000097,-0.00000086,-0.000019
 78,-0.00000045,0.00000083,-0.00002442,-0.00001306,0.00001434,0.0000103
 9,0.00001127,-0.00001277,0.00000811,-0.00000137,0.00000183,0.00000141,
 0.00024730,-0.00030604,-0.00552738,0.00800160,-0.00009477,0.02303825,0
 .00000146,0.00001457,0.00000147,0.00007780,0.00020624,-0.00000415,-0.0
 0017346,-0.00004167,-0.00000849,-0.00000937,0.00005418,-0.00000193,0.0
 0000261,-0.00003440,-0.00000630,-0.00000299,0.00000225,0.00000048,0.00
 011157,0.00006694,-0.00001124,0.00003454,-0.00043121,0.00005233,0.0001
 8445,0.00050116,-0.00002273,-0.00063050,-0.00069196,0.00002388,0.00015
 696,-0.00224535,-0.00004863,0.00969663,-0.00974167,0.00065329,-0.16772
 254,0.13170829,-0.00956146,-0.01617162,0.02632295,-0.00163011,-0.00414
 592,-0.00329852,-0.00029745,0.00017299,0.00200339,-0.00007858,-0.00023
 721,-0.00034015,-0.00001863,-0.00074758,-0.00037361,0.00003025,0.00000
 196,-0.00000914,-0.00000541,0.00000565,-0.00000855,0.00000755,-0.00003
 807,0.00000396,-0.00000139,-0.00004254,0.00001062,-0.00000096,-0.00001
 593,0.00002045,0.00000093,0.00000234,0.00000930,0.00000283,0.00000155,
 0.00000934,-0.00000108,-0.00001743,0.00001614,0.00000020,0.00027271,-0
 .00045613,0.00001460,0.00072985,0.00082251,0.00006438,0.17702172,0.000
 00077,-0.00001982,-0.00000197,0.00006068,-0.00008239,0.00000901,0.0001
 1080,0.00024910,0.00000523,-0.00011501,-0.00022787,0.00000209,0.000171
 41,0.00000951,0.00001268,-0.00000247,0.00000871,0.00000006,-0.00043362
 ,-0.00030080,0.00000870,0.00056277,0.00025558,-0.00002515,0.00011362,-
 0.00038606,0.00002628,-0.00046121,0.00042558,-0.00004634,-0.00422940,-
 0.00431117,0.00022045,0.02163839,-0.01620889,0.00136802,0.13219771,-0.
 21664760,0.01159200,-0.00538810,0.00698420,-0.00035615,-0.00201322,0.0
 0073409,0.00024689,0.00041812,-0.00027577,0.00003783,0.00009215,0.0001
 7607,0.00002334,-0.00013016,0.00053731,-0.00007425,-0.00000175,0.00001
 211,-0.00000112,-0.00000433,0.00001170,-0.00000013,0.00002194,-0.00000
 133,0.00000093,0.00002217,0.00000833,-0.00000075,0.00001671,-0.0000227
 1,-0.00000196,-0.00000383,-0.00000774,-0.00000715,-0.00000345,-0.00000
 789,0.00000420,0.00002719,-0.00001528,-0.00000056,0.00098690,-0.000867
 15,0.00008578,-0.00043352,0.00119015,-0.00015595,-0.14370003,0.2278760
 8,0.00000330,-0.00000255,-0.00006638,-0.00000935,0.00001394,0.00010553
 ,-0.00001370,-0.00001726,0.00012430,0.00001226,0.00001666,-0.00001068,
 -0.00001675,0.00000435,0.00011989,0.00000027,-0.00000170,0.00000436,0.
 00002894,0.00002438,0.00018791,-0.00002389,-0.00006012,-0.00078301,0.0
 0001481,0.00002976,-0.00008380,0.00000236,-0.00007624,-0.00045969,0.00
 001738,0.00028435,0.00466444,-0.00057998,0.00037284,0.00099109,-0.0095
 8574,0.01157759,-0.03174774,-0.00037555,0.00065556,0.00231989,-0.00030
 458,0.00020788,0.00859321,-0.00004217,0.00007625,0.00056609,-0.0000392
 1,0.00000858,0.00051702,0.00002428,-0.00005696,-0.00127372,0.00001756,
 0.00000272,0.00000869,-0.00001860,-0.00000311,0.00000817,-0.00000193,0
 .00000068,0.00000114,-0.00000141,-0.00000087,-0.00002480,-0.00000056,0
 .00000186,-0.00001966,0.00000274,0.00000065,-0.00000165,-0.00000192,0.
 00000069,-0.00000124,-0.00000157,0.00000126,0.00000152,-0.00004227,0.0
 0004311,0.00043062,0.00011307,-0.00011689,-0.00236638,0.01060249,-0.01
 273406,0.02371934,0.00002877,0.00001101,0.00000509,-0.00035161,0.00003
 601,-0.00002119,0.00013496,-0.00022406,0.00000810,0.00000982,0.0001579
 7,-0.00000087,-0.00002601,-0.00006837,-0.00000180,-0.00000791,-0.00001
 355,-0.00000426,0.00015294,0.00013199,-0.00000051,0.00088370,0.0008267
 8,0.00001368,-0.00031256,0.00022188,-0.00003201,-0.00304834,0.00232080
 ,-0.00033635,-0.00052679,0.00044702,0.00000106,-0.00481073,0.00056058,
 -0.00047033,-0.00668170,-0.02882828,0.00076005,-0.08798706,-0.08981332
 ,0.00209208,0.01311483,0.01755275,-0.00040872,-0.00150963,0.00100910,0
 .00001461,-0.00015043,-0.00254201,0.00064320,0.00079361,-0.00084898,0.
 00006707,-0.00001208,-0.00000768,0.00003215,-0.00001244,-0.00001080,-0
 .00003631,0.00005928,-0.00003995,0.00000097,0.00001185,-0.00000766,0.0
 0000177,0.00000100,-0.00000549,0.00000084,0.00000259,-0.00000860,0.000
 00579,0.00000525,-0.00000808,-0.00000445,-0.00000780,-0.00000383,0.000
 00071,0.00011037,-0.00006864,0.00004034,-0.00045989,-0.00133179,0.0000
 2498,0.00148037,0.00047880,0.00021973,0.08911564,-0.00002111,0.0000056
 8,-0.00000259,0.00031726,-0.00021884,0.00002246,-0.00002055,0.00033723
 ,-0.00000584,-0.00000271,-0.00031217,0.00000552,0.00003786,0.00010259,
 0.00000177,0.00001960,0.00002035,0.00000420,-0.00024499,-0.00041268,0.
 00001308,-0.00091736,-0.00046908,-0.00003244,0.00022919,-0.00075885,0.
 00005826,0.00401347,-0.00096937,0.00035303,0.00100108,0.00026066,-0.00
 002432,-0.00071489,0.00227375,0.00020536,0.00106267,-0.00076486,0.0002
 1365,-0.08941475,-0.29803390,0.00703475,-0.00845507,-0.02096757,0.0006
 9139,-0.00242570,-0.00419138,-0.00010048,-0.00391411,0.00458671,-0.000
 41072,-0.00031070,0.00094010,-0.00003541,0.00001840,0.00002285,-0.0000
 2370,0.00001843,0.00002580,0.00002460,-0.00002000,0.00002782,0.0000006
 3,0.00003357,0.00000918,-0.00000031,0.00001885,-0.00001913,-0.00000175
 ,-0.00000978,-0.00000325,-0.00001002,-0.00001167,-0.00000368,0.0000065
 6,0.00002923,-0.00001043,-0.00000068,-0.00010775,-0.00010111,-0.000035
 65,0.00011504,-0.00013294,0.00002382,-0.00039990,0.00090394,-0.0002533
 3,0.10007641,0.31785260,0.00000281,-0.00000084,-0.00002785,-0.00004256
 ,0.00001413,0.00016605,0.00001009,-0.00003031,0.00000865,0.00000613,0.
 00002255,-0.00000984,-0.00000870,-0.00000041,0.00003090,-0.00000367,-0
 .00000349,0.00002869,0.00002413,0.00002702,0.00005201,0.00006388,0.000
 06458,-0.00058482,-0.00002292,0.00002628,0.00022478,-0.00040798,0.0002
 7690,0.00495526,-0.00004265,-0.00002310,-0.00102076,-0.00039127,0.0002
 5396,0.00860838,-0.00034963,-0.00069028,0.00409536,0.00195887,0.006991
 79,-0.03834807,0.00072313,0.00153574,0.00433762,0.00003044,0.00013559,
 -0.00250873,0.00073059,-0.00048064,0.00013592,0.00007922,-0.00009007,-
 0.00020303,0.00000647,-0.00000680,0.00000613,-0.00000793,0.00000528,0.
 00000032,0.00000299,-0.00000216,0.00002238,0.00000037,-0.00000134,-0.0
 0002619,-0.00000039,0.00000043,-0.00000326,0.00001656,-0.00000093,-0.0
 0001075,-0.00001296,-0.00000022,-0.00001116,-0.00000087,-0.00000057,-0
 .00000414,0.00003983,-0.00004325,-0.00100972,-0.00003243,-0.00002002,0
 .00043382,0.00024385,-0.00023792,-0.00552447,-0.00261543,-0.00772188,0
 .02618653\\0.00000670,-0.00000288,0.00000296,0.00000086,-0.00000302,-0
 .00000133,-0.00000080,-0.00000238,0.00000132,-0.00000016,-0.00000123,0
 .00000579,-0.00000073,-0.00000016,0.00000645,0.00000363,-0.00000333,0.
 00002082,-0.00000123,-0.00000203,0.00000350,-0.00000062,0.00000260,0.0
 0000370,-0.00000262,0.00000137,0.00000553,-0.00000330,-0.00000434,-0.0
 0000117,-0.00000062,0.00000429,-0.00000209,0.00000078,0.00000705,-0.00
 000585,-0.00000072,-0.00000178,-0.00000941,-0.00000221,0.00000102,-0.0
 0000863,0.00000251,0.00000675,-0.00000392,0.00000016,-0.00000519,-0.00
 000380,0.00000300,0.00000192,-0.00001114,-0.00000016,0.00000265,0.,0.0
 0000320,-0.00000309,-0.00000641,-0.00000024,0.00000099,-0.00000775,-0.
 00000231,-0.00000228,-0.00000236,-0.00000111,-0.00000248,0.00000499,-0
 .00000265,-0.00000135,0.00001001,-0.00000454,0.00000383,0.00000700,-0.
 00000231,-0.00000422,0.00000839,-0.00000558,0.00000125,0.00001134,0.00
 000121,0.00000184,0.00000067,0.00000156,0.00000362,-0.00000654,0.00000
 244,0.00000122,-0.00001141,0.00000584,-0.00000070,-0.00001064\\\@


 ACHIEVEMENT--  THE MAN WHO ROWS THE BOAT GENERALLY 
                DOESN'T HAVE TIME TO ROCK IT.

                   -- FROM THE BACK OF A SUGAR PACKET
 Job cpu time:       0 days  4 hours 55 minutes 27.5 seconds.
 Elapsed time:       0 days  0 hours 40 minutes 41.2 seconds.
 File lengths (MBytes):  RWF=   1316 Int=      0 D2E=      0 Chk=     36 Scr=      1
 Normal termination of Gaussian 16 at Sat Feb 10 18:47:41 2024.
