
Running Job 1 of 1 015-an-CPCM.in
qchem 015-an-CPCM.in_1757813.0 /expanse/lustre/scratch/selhajj/temp_project/qcscratch/31246112/qchem1757813/ 0
/cm/shared/apps/spack/cpu/opt/spack/linux-centos8-zen2/gcc-10.2.0/qchem-5.4-akfmr7b3t57bfs6qan3padb2wnb2i7cl/exe/qcprog.exe_s 015-an-CPCM.in_1757813.0 /expanse/lustre/scratch/selhajj/temp_project/qcscratch/31246112/qchem1757813/
                  Welcome to Q-Chem
     A Quantum Leap Into The Future Of Chemistry


 Q-Chem 5.4, Q-Chem, Inc., Pleasanton, CA (2021)

 License issued to: University of California, San Diego (site)

 E. Epifanovsky,  A. T. B. Gilbert,  Xintian Feng,  Joonho Lee,  Yuezhi Mao,  
 N. Mardirossian,  P. Pokhilko,  A. White,  M. Wormit,  M. P. Coons,  
 A. L. Dempwolff,  Zhengting Gan,  D. Hait,  P. R. Horn,  L. D. Jacobson,  
 I. Kaliman,  J. Kussmann,  A. W. Lange,  Ka Un Lao,  D. S. Levine,  Jie Liu,  
 S. C. McKenzie,  A. F. Morrison,  K. Nanda,  F. Plasser,  D. R. Rehn,  
 M. L. Vidal,  Zhi-Qiang You,  Ying Zhu,  B. Alam,  B. Albrecht,  
 A. Aldossary,  E. Alguire,  J. H. Andersen,  D. Barton,  K. Begam,  A. Behn,  
 Y. A. Bernard,  E. J. Berquist,  H. Burton,  A. Carreras,  K. Carter-Fenk,  
 R. Chakraborty,  A. D. Chien,  K. D. Closser,  V. Cofer-Shabica,  
 S. Dasgupta,  Jia Deng,  M. de Wergifosse,  M. Diedenhofen,  Hainam Do,  
 S. Ehlert,  Po-Tung Fang,  S. Fatehi,  Qingguo Feng,  J. Gayvert,  
 Qinghui Ge,  G. Gidofalvi,  M. Goldey,  J. Gomes,  C. Gonzalez-Espinoza,  
 S. Gulania,  A. Gunina,  M. W. D. Hanson-Heine,  P. H. P. Harbach,  
 A. W. Hauser,  M. F. Herbst,  M. Hernandez Vera,  M. Hodecker,  
 Z. C. Holden,  S. Houck,  Xunkun Huang,  Kerwin Hui,  B. C. Huynh,  
 M. Ivanov,  Hyunjun Ji,  Hanjie Jiang,  B. Kaduk,  S. Kaehler,  
 K. Khistyaev,  Jaehoon Kim,  P. Klunzinger,  Z. Koczor-Benda,  
 Joong Hoon Koh,  D. Kosenkov,  L. Koulias,  T. Kowalczyk,  C. M. Krauter,  
 K. Kue,  A. Kunitsa,  T. Kus,  A. Landau,  K. V. Lawler,  D. Lefrancois,  
 S. Lehtola,  Rain Li,  Yi-Pei Li,  Jiashu Liang,  M. Liebenthal,  
 Hung-Hsuan Lin,  You-Sheng Lin,  Fenglai Liu,  Kuan-Yu Liu,  
 M. Loipersberger,  A. Luenser,  A. Manjanath,  P. Manohar,  E. Mansoor,  
 S. F. Manzer,  Shan-Ping Mao,  A. V. Marenich,  T. Markovich,  S. Mason,  
 S. A. Maurer,  P. F. McLaughlin,  M. F. S. J. Menger,  J.-M. Mewes,  
 S. A. Mewes,  P. Morgante,  J. W. Mullinax,  T. S. Nguyen-Beck,  
 K. J. Oosterbaan,  G. Paran,  Alexander C. Paul,  Suranjan K. Paul,  
 F. Pavosevic,  Zheng Pei,  S. Prager,  E. I. Proynov,  E. Ramos,  B. Rana,  
 A. E. Rask,  A. Rettig,  R. M. Richard,  F. Rob,  E. Rossomme,  T. Scheele,  
 M. Scheurer,  M. Schneider,  N. Sergueev,  S. M. Sharada,  W. Skomorowski,  
 D. W. Small,  C. J. Stein,  Yu-Chuan Su,  E. J. Sundstrom,  Zhen Tao,  
 J. Thirman,  T. Tsuchimochi,  N. M. Tubman,  S. P. Veccham,  O. Vydrov,  
 J. Wenzel,  J. Witte,  A. Yamada,  Kun Yao,  S. Yeganeh,  S. R. Yost,  
 A. Zech,  Igor Ying Zhang,  Xing Zhang,  Yu Zhang,  D. Zuev,  
 A. Aspuru-Guzik,  A. T. Bell,  N. A. Besley,  K. B. Bravaya,  B. R. Brooks,  
 D. Casanova,  Jeng-Da Chai,  S. Coriani,  C. J. Cramer,  
 A. E. DePrince, III,  R. A. DiStasio Jr.,  A. Dreuw,  B. D. Dunietz,  
 T. R. Furlani,  W. A. Goddard III,  S. Grimme,  S. Hammes-Schiffer,  
 T. Head-Gordon,  W. J. Hehre,  Chao-Ping Hsu,  T.-C. Jagau,  Yousung Jung,  
 A. Klamt,  Jing Kong,  D. S. Lambrecht,  WanZhen Liang,  N. J. Mayhall,  
 C. W. McCurdy,  J. B. Neaton,  C. Ochsenfeld,  J. A. Parkhill,  R. Peverati,  
 V. A. Rassolov,  Yihan Shao,  L. V. Slipchenko,  T. Stauch,  R. P. Steele,  
 J. E. Subotnik,  A. J. W. Thom,  A. Tkatchenko,  D. G. Truhlar,  
 T. Van Voorhis,  T. A. Wesolowski,  K. B. Whaley,  H. L. Woodcock III,  
 P. M. Zimmerman,  S. Faraji,  P. M. W. Gill,  M. Head-Gordon,  
 J. M. Herbert,  A. I. Krylov

 Contributors to earlier versions of Q-Chem not listed above: 
 R. D. Adamson,  B. Austin,  R. Baer,  J. Baker,  G. J. O. Beran,  
 K. Brandhorst,  S. T. Brown,  E. F. C. Byrd,  A. K. Chakraborty,  
 G. K. L. Chan,  Chun-Min Chang,  Yunqing Chen,  C.-L. Cheng,  
 Siu Hung Chien,  D. M. Chipman,  D. L. Crittenden,  H. Dachsel,  
 R. J. Doerksen,  A. D. Dutoi,  R. G. Edgar,  J. Fosso-Tande,  
 L. Fusti-Molnar,  D. Ghosh,  A. Ghysels,  A. Golubeva-Zadorozhnaya,  
 J. Gonthier,  M. S. Gordon,  S. R. Gwaltney,  G. Hawkins,  J. E. Herr,  
 A. Heyden,  S. Hirata,  E. G. Hohenstein,  G. Kedziora,  F. J. Keil,  
 C. Kelley,  Jihan Kim,  R. A. King,  R. Z. Khaliullin,  P. P. Korambath,  
 W. Kurlancheek,  A. Laurent,  A. M. Lee,  M. S. Lee,  S. V. Levchenko,  
 Ching Yeh Lin,  D. Liotard,  E. Livshits,  R. C. Lochan,  I. Lotan,  
 L. A. Martinez-Martinez,  P. E. Maslen,  N. Nair,  D. P. O'Neill,  
 D. Neuhauser,  E. Neuscamman,  C. M. Oana,  R. Olivares-Amaya,  R. Olson,  
 T. M. Perrine,  B. Peters,  P. A. Pieniazek,  A. Prociuk,  Y. M. Rhee,  
 J. Ritchie,  M. A. Rohrdanz,  E. Rosta,  N. J. Russ,  H. F. Schaefer III,  
 M. W. Schmidt,  N. E. Schultz,  S. Sharma,  N. Shenvi,  C. D. Sherrill,  
 A. C. Simmonett,  A. Sodt,  T. Stein,  D. Stuck,  K. S. Thanthiriwatte,  
 V. Vanovschi,  L. Vogt,  Tao Wang,  A. Warshel,  M. A. Watson,  
 C. F. Williams,  Q. Wu,  X. Xu,  Jun Yang,  W. Zhang,  Yan Zhao

 Please cite Q-Chem as follows:
 Y. Shao et al., Mol. Phys. 113, 184-215 (2015)
 DOI: 10.1080/00268976.2014.952696

 Q-Chem 5.4.0 for Intel X86 EM64T Linux

 Parts of Q-Chem use Armadillo 9.800.1 (Horizon Scraper).
 http://arma.sourceforge.net/

 Q-Chem begins on Tue Jun 11 17:32:09 2024  

 Host: 
0

     Scratch files written to /expanse/lustre/scratch/selhajj/temp_project/qcscratch/31246112/qchem1757813//
 May1621 |scratch|qcdevops|jenkins|workspace|build_RNUM    
 Processing $rem in /cm/shared/apps/spack/cpu/opt/spack/linux-centos8-zen2/gcc-10.2.0/qchem-5.4-akfmr7b3t57bfs6qan3padb2wnb2i7cl/config/preferences:
 Processing $rem in /home/selhajj/.qchemrc:
 Symmetry turned off for PCM/SM12/SMD calculation

 Checking the input file for inconsistencies... 	...done.

--------------------------------------------------------------
User input:
--------------------------------------------------------------
$molecule
-2 1
C                 -1.8103790000      0.3083630000     -1.0848730000
C                 -1.1687970000      0.1327230000      0.3138680000
C                 -1.8749650000     -1.0492840000      1.0067000000
C                 -1.4408580000      1.4023570000      1.1582770000
C                  0.3553020000     -0.0695580000      0.1616190000
C                  0.9755230000     -1.2277550000      0.6261480000
C                  2.3756260000     -1.5403020000      0.5484240000
O                  2.8717960000     -2.6366990000      1.0025690000
C                  3.1089700000     -0.4894870000     -0.0862770000
C                  2.5083240000      0.6917520000     -0.5651830000
Br                 3.5749080000      2.0877770000     -1.4220530000
C                  1.1126860000      0.9895350000     -0.4805550000
O                  0.5797320000      2.0821010000     -0.9259110000
Br                 5.0314150000     -0.8060730000     -0.2498280000
H                 -2.8881020000      0.5198350000     -0.9981190000
H                 -1.6881620000     -0.6089630000     -1.6726490000
H                 -1.3123500000      1.1317640000     -1.6012960000
H                 -1.7500450000     -1.9811250000      0.4464180000
H                 -2.9506320000     -0.8375930000      1.0799560000
H                 -1.4919970000     -1.2137910000      2.0186920000
H                 -1.0542090000      1.2676870000      2.1752460000
H                 -2.5218200000      1.6043910000      1.2255490000
H                 -0.9345540000      2.2512020000      0.6937550000
H                  0.3925890000     -2.0088570000      1.1038360000
$end
$rem
MAX_SCF_CYCLES=200
BASIS  =  6-311++G(d,p)
GUI  =  2
JOB_TYPE  =  SP
METHOD  =  B3LYP
SOLVENT_METHOD = PCM
$end
$pcm
theory = CPCM
$end
$solvent
dielectric 37.219
opticaldielectric 1.43
$end





--------------------------------------------------------------
 ----------------------------------------------------------------
             Standard Nuclear Orientation (Angstroms)
    I     Atom           X                Y                Z
 ----------------------------------------------------------------
    1      C      -1.8103790000     0.3083630000    -1.0848730000
    2      C      -1.1687970000     0.1327230000     0.3138680000
    3      C      -1.8749650000    -1.0492840000     1.0067000000
    4      C      -1.4408580000     1.4023570000     1.1582770000
    5      C       0.3553020000    -0.0695580000     0.1616190000
    6      C       0.9755230000    -1.2277550000     0.6261480000
    7      C       2.3756260000    -1.5403020000     0.5484240000
    8      O       2.8717960000    -2.6366990000     1.0025690000
    9      C       3.1089700000    -0.4894870000    -0.0862770000
   10      C       2.5083240000     0.6917520000    -0.5651830000
   11      Br      3.5749080000     2.0877770000    -1.4220530000
   12      C       1.1126860000     0.9895350000    -0.4805550000
   13      O       0.5797320000     2.0821010000    -0.9259110000
   14      Br      5.0314150000    -0.8060730000    -0.2498280000
   15      H      -2.8881020000     0.5198350000    -0.9981190000
   16      H      -1.6881620000    -0.6089630000    -1.6726490000
   17      H      -1.3123500000     1.1317640000    -1.6012960000
   18      H      -1.7500450000    -1.9811250000     0.4464180000
   19      H      -2.9506320000    -0.8375930000     1.0799560000
   20      H      -1.4919970000    -1.2137910000     2.0186920000
   21      H      -1.0542090000     1.2676870000     2.1752460000
   22      H      -2.5218200000     1.6043910000     1.2255490000
   23      H      -0.9345540000     2.2512020000     0.6937550000
   24      H       0.3925890000    -2.0088570000     1.1038360000
 ----------------------------------------------------------------
 Nuclear Repulsion Energy =        1617.73327226 hartrees
 There are       79 alpha and       79 beta electrons
 Requested basis set is 6-311++G(d,p)
 There are 160 shells and 430 basis functions

 Total QAlloc Memory Limit   8000 MB
 Mega-Array Size       188 MB
 MEM_STATIC part       192 MB
 Discretize the solute cavity surface with Lebedev spheres
	Using 110 Lebedev grid points for each H atom
	Using 194 Lebedev grid points for other atoms
	Atomic van der Waals radii will be scaled by 1.20
 Remove points where switching function is < 1.0e-08
 Keep 1608 surface tesserae and discard 2208 interior tesserae
 Molecular Surface Area = 259.929 Angst**2
 A cutoff of  1.0D-08 yielded   8953 shell pairs
 There are     67095 function pairs (     72193 Cartesian)
 Smallest overlap matrix eigenvalue = 5.06E-07

 Q-Chem warning in module stvman/mkSTV.C, line 323:

 Overlap eigenvalue is smaller than square root of threshold
 Use THRESH >= 12 to get rid of this warning

 Linear dependence detected in AO basis
 Tighter screening thresholds may be required for diffuse basis sets
 Use S2THRESH > 14 and THRESH = 14 in case of SCF convergence issues
 Number of orthogonalized atomic orbitals = 428
 Maximum deviation from orthogonality = 3.095E-10

 Scale SEOQF with 1.000000e-02/1.000000e-01/1.000000e-01

 Standard Electronic Orientation quadrupole field applied
 Nucleus-field energy     =     0.0000000154 hartrees
 Guess from superposition of atomic densities
 Warning:  Energy on first SCF cycle will be non-variational
 SAD guess density has 156.000000 electrons

 -----------------------------------------------------------------------
  General SCF calculation program by
  Eric Jon Sundstrom, Paul Horn, Yuezhi Mao, Dmitri Zuev, Alec White,
  David Stuck, Shaama M.S., Shane Yost, Joonho Lee, David Small,
  Daniel Levine, Susi Lehtola, Hugh Burton, Evgeny Epifanovsky,
  Bang C. Huynh
 -----------------------------------------------------------------------
 Exchange:     0.2000 Hartree-Fock + 0.0800 Slater + 0.7200 B88
 Correlation:  0.1900 VWN1RPA + 0.8100 LYP
 Using SG-1 standard quadrature grid
 using 8 threads for integral computing
 -------------------------------------------------------
 OpenMP Integral computing Module                
 Release: version 1.0, May 2013, Q-Chem Inc. Pittsburgh 
 -------------------------------------------------------
 A restricted SCF calculation will be
 performed using DIIS
 SCF converges when DIIS error is below 1.0e-05
 ---------------------------------------
  Cycle       Energy         DIIS error
 ---------------------------------------
    1   -5688.3929284646      2.84e-02  
    2   -5685.8010262114      4.38e-03  
    3   -5684.3294534570      8.84e-03  
    4   -5686.1061866604      2.31e-03  
    5   -5686.2103265051      4.96e-04  
    6   -5686.2144240369      3.64e-04  
    7   -5686.2172620099      1.02e-04  
    8   -5686.2174380098      4.51e-05  
    9   -5686.2174797646      1.56e-05  
   10   -5686.2174847470      4.05e-06  Convergence criterion met
 ---------------------------------------
 SCF time:   CPU 346.55s  wall 45.00s 

************** Final PCM Free Energy Summary **************
 G_electrostatic  =      -0.28429701 hartree =    -178.39906332 kcal/mol
 G_cavitation     =       0.00000000 hartree =       0.00000000 kcal/mol
 G_dispersion     =       0.00000000 hartree =       0.00000000 kcal/mol
 G_repulsion      =       0.00000000 hartree =       0.00000000 kcal/mol
 --------------------------------------------------
 Non-electrostatic Free Energy =       0.00000000 hartree =       0.00000000 kcal/mol
 Total                         =      -0.28429701 hartree =    -178.39906332 kcal/mol
 --------------------------------------------------
 SCF Energy (H0 + V/2)                       =   -5686.21748475 
 Solute Internal Energy (H0)                 =   -5685.93318774 
 Total Free Energy (H0 + V/2 + non-elec)     =   -5686.21748475 hartree
                                             = -3568155.32584452 kcal/mol
***********************************************************

 SCF   energy in the final basis set =    -5686.2174847470
 Total energy in the final basis set =    -5686.2174847470
 
 --------------------------------------------------------------
 
                    Orbital Energies (a.u.)
 --------------------------------------------------------------
 
 Alpha MOs
 -- Occupied --
********-482.8067 -62.4601 -62.4596 -56.2803 -56.2798 -56.2769 -56.2767
-56.2764 -56.2761 -19.0271 -19.0210 -10.1895 -10.1885 -10.1873 -10.1861
-10.1666 -10.1439 -10.1402 -10.1333 -10.1333 -10.1305  -8.6688  -8.6682
 -6.4993  -6.4988  -6.4880  -6.4876  -6.4872  -6.4867  -2.6104  -2.6098
 -2.6072  -2.6068  -2.6066  -2.6062  -2.5977  -2.5977  -2.5972  -2.5971
 -0.9458  -0.9397  -0.8198  -0.8015  -0.7642  -0.7523  -0.6790  -0.6675
 -0.6621  -0.6521  -0.5708  -0.5398  -0.5024  -0.4578  -0.4443  -0.4179
 -0.4159  -0.4075  -0.3908  -0.3884  -0.3699  -0.3655  -0.3626  -0.3478
 -0.3473  -0.3334  -0.3252  -0.3129  -0.3128  -0.3032  -0.2969  -0.2849
 -0.2791  -0.2571  -0.2324  -0.2114  -0.2086  -0.1992  -0.1303
 -- Virtual --
 -0.0194   0.0028   0.0122   0.0181   0.0195   0.0241   0.0256   0.0390
  0.0441   0.0463   0.0492   0.0526   0.0592   0.0620   0.0657   0.0697
  0.0772   0.0787   0.0815   0.0887   0.0897   0.0937   0.1022   0.1049
  0.1050   0.1187   0.1202   0.1263   0.1299   0.1324   0.1358   0.1416
  0.1432   0.1532   0.1560   0.1568   0.1594   0.1613   0.1644   0.1664
  0.1758   0.1805   0.1858   0.1871   0.1916   0.1990   0.2008   0.2033
  0.2078   0.2093   0.2123   0.2157   0.2204   0.2218   0.2342   0.2383
  0.2412   0.2535   0.2576   0.2591   0.2693   0.2706   0.2770   0.2819
  0.2832   0.2916   0.2931   0.2966   0.3010   0.3159   0.3195   0.3294
  0.3346   0.3367   0.3461   0.3478   0.3528   0.3547   0.3610   0.3621
  0.3882   0.3916   0.4004   0.4091   0.4120   0.4226   0.4313   0.4436
  0.4462   0.4567   0.4642   0.4694   0.4774   0.4825   0.5000   0.5173
  0.5313   0.5314   0.5491   0.5513   0.5579   0.5726   0.5871   0.5933
  0.6003   0.6045   0.6057   0.6222   0.6282   0.6325   0.6337   0.6357
  0.6492   0.6555   0.6585   0.6710   0.6734   0.6748   0.6943   0.6962
  0.7087   0.7140   0.7176   0.7226   0.7247   0.7284   0.7457   0.7564
  0.7622   0.7728   0.7733   0.7860   0.8081   0.8108   0.8151   0.8283
  0.8426   0.8650   0.8682   0.8849   0.9068   0.9126   0.9184   0.9282
  0.9457   0.9684   0.9696   0.9958   1.0146   1.0154   1.0279   1.0420
  1.0514   1.0862   1.1077   1.1152   1.1426   1.1502   1.1527   1.1624
  1.2057   1.2197   1.2459   1.2494   1.2516   1.2818   1.2820   1.3082
  1.3084   1.3212   1.3274   1.3388   1.3609   1.3850   1.4685   1.4688
  1.4705   1.4740   1.4879   1.5049   1.5175   1.5492   1.5699   1.5784
  1.5919   1.6069   1.6139   1.6278   1.6456   1.6549   1.6696   1.6764
  1.7023   1.7156   1.7344   1.7353   1.7462   1.7830   1.7880   1.8041
  1.8135   1.8211   1.8364   1.8461   1.8527   1.8668   1.8754   1.8978
  1.9137   1.9459   1.9708   1.9804   1.9887   2.0091   2.0136   2.0286
  2.0534   2.0821   2.0826   2.1142   2.1363   2.1416   2.1633   2.1646
  2.1721   2.2263   2.2306   2.2543   2.2622   2.2848   2.2941   2.2980
  2.3238   2.3345   2.3560   2.4030   2.4485   2.4701   2.4908   2.5139
  2.5289   2.5408   2.5505   2.5621   2.5786   2.5869   2.6069   2.6178
  2.6409   2.6553   2.6791   2.6911   2.7151   2.7302   2.7866   2.7905
  2.8044   2.8077   2.8488   2.8543   2.8751   2.9082   2.9216   2.9400
  2.9746   2.9922   3.0104   3.0281   3.0535   3.0693   3.1107   3.1254
  3.1328   3.1361   3.1843   3.2186   3.2284   3.2402   3.2865   3.3210
  3.3519   3.3726   3.3781   3.4788   3.5345   3.5616   3.5802   3.6588
  3.7574   3.7840   3.8043   3.8221   3.8495   3.8610   3.8716   3.9189
  4.0287   4.0371   4.0437   4.0919   4.1052   4.1185   4.1387   4.1867
  4.2443   4.2691   4.2856   4.2902   4.3349   4.4081   4.4490   4.5025
  4.8398   5.1351   5.1760   5.2891   5.3664   5.7576   5.8555   6.7620
  6.8566   7.5843   7.6164   7.7004   7.7137   7.7629   7.8221  23.5296
 23.8336  23.8707  23.9352  23.9741  23.9952  24.0065  24.0215  24.0328
 24.1498  48.0250  48.1040  50.0752  50.1207 289.7830 289.8169 289.8991
289.9180 289.9814 290.04291020.83661020.9344
 --------------------------------------------------------------
 
          Ground-State Mulliken Net Atomic Charges

     Atom                 Charge (a.u.)
  ----------------------------------------
      1 C                    -0.691935
      2 C                     0.696802
      3 C                    -0.525471
      4 C                    -0.691539
      5 C                     1.078096
      6 C                    -0.533308
      7 C                    -0.781436
      8 O                    -0.668341
      9 C                     0.691255
     10 C                    -0.258322
     11 Br                   -0.266655
     12 C                    -0.688647
     13 O                    -0.601426
     14 Br                   -0.250703
     15 H                     0.142194
     16 H                     0.125356
     17 H                     0.176514
     18 H                     0.131719
     19 H                     0.168745
     20 H                     0.131815
     21 H                     0.125683
     22 H                     0.142317
     23 H                     0.176472
     24 H                     0.170816
  ----------------------------------------
  Sum of atomic charges =    -2.000000

 -----------------------------------------------------------------
                    Cartesian Multipole Moments
 -----------------------------------------------------------------
    Charge (ESU x 10^10)
                -9.6064
    Dipole Moment (Debye)
         X     -22.1230      Y       1.2100      Z       1.2546
       Tot      22.1915
    Quadrupole Moments (Debye-Ang)
        XX    -193.1531     XY      20.7152     YY    -165.8284
        XZ      -2.2087     YZ      19.1798     ZZ    -128.8388
    Octopole Moments (Debye-Ang^2)
       XXX    -890.5065    XXY      57.8932    XYY    -310.5510
       YYY     -16.6779    XXZ      14.0079    XYZ      41.6231
       YYZ      10.5251    XZZ    -227.2776    YZZ     -16.5277
       ZZZ      62.9622
    Hexadecapole Moments (Debye-Ang^3)
      XXXX   -7325.3967   XXXY     248.5243   XXYY   -1623.8773
      XYYY     204.4502   YYYY   -1919.1527   XXXZ     356.2777
      XXYZ     209.7227   XYYZ      64.2005   YYYZ     411.2604
      XXZZ   -1256.9726   XYZZ      29.5945   YYZZ    -444.2647
      XZZZ     370.7879   YZZZ     323.5086   ZZZZ    -753.7767
 -----------------------------------------------------------------
 Total job time:  46.92s(wall), 352.85s(cpu) 
 Tue Jun 11 17:32:56 2024

        *************************************************************
        *                                                           *
        *  Thank you very much for using Q-Chem.  Have a nice day.  *
        *                                                           *
        *************************************************************


