
Running Job 1 of 1 156-SM12.in
qchem 156-SM12.in_122014.0 /expanse/lustre/scratch/selhajj/temp_project/qcscratch/28445525/qchem122014/ 0
/cm/shared/apps/spack/cpu/opt/spack/linux-centos8-zen2/gcc-10.2.0/qchem-5.4-akfmr7b3t57bfs6qan3padb2wnb2i7cl/exe/qcprog.exe_s 156-SM12.in_122014.0 /expanse/lustre/scratch/selhajj/temp_project/qcscratch/28445525/qchem122014/
                  Welcome to Q-Chem
     A Quantum Leap Into The Future Of Chemistry


 Q-Chem 5.4, Q-Chem, Inc., Pleasanton, CA (2021)

 License issued to: University of California, San Diego (site)

 E. Epifanovsky,  A. T. B. Gilbert,  Xintian Feng,  Joonho Lee,  Yuezhi Mao,  
 N. Mardirossian,  P. Pokhilko,  A. White,  M. Wormit,  M. P. Coons,  
 A. L. Dempwolff,  Zhengting Gan,  D. Hait,  P. R. Horn,  L. D. Jacobson,  
 I. Kaliman,  J. Kussmann,  A. W. Lange,  Ka Un Lao,  D. S. Levine,  Jie Liu,  
 S. C. McKenzie,  A. F. Morrison,  K. Nanda,  F. Plasser,  D. R. Rehn,  
 M. L. Vidal,  Zhi-Qiang You,  Ying Zhu,  B. Alam,  B. Albrecht,  
 A. Aldossary,  E. Alguire,  J. H. Andersen,  D. Barton,  K. Begam,  A. Behn,  
 Y. A. Bernard,  E. J. Berquist,  H. Burton,  A. Carreras,  K. Carter-Fenk,  
 R. Chakraborty,  A. D. Chien,  K. D. Closser,  V. Cofer-Shabica,  
 S. Dasgupta,  Jia Deng,  M. de Wergifosse,  M. Diedenhofen,  Hainam Do,  
 S. Ehlert,  Po-Tung Fang,  S. Fatehi,  Qingguo Feng,  J. Gayvert,  
 Qinghui Ge,  G. Gidofalvi,  M. Goldey,  J. Gomes,  C. Gonzalez-Espinoza,  
 S. Gulania,  A. Gunina,  M. W. D. Hanson-Heine,  P. H. P. Harbach,  
 A. W. Hauser,  M. F. Herbst,  M. Hernandez Vera,  M. Hodecker,  
 Z. C. Holden,  S. Houck,  Xunkun Huang,  Kerwin Hui,  B. C. Huynh,  
 M. Ivanov,  Hyunjun Ji,  Hanjie Jiang,  B. Kaduk,  S. Kaehler,  
 K. Khistyaev,  Jaehoon Kim,  P. Klunzinger,  Z. Koczor-Benda,  
 Joong Hoon Koh,  D. Kosenkov,  L. Koulias,  T. Kowalczyk,  C. M. Krauter,  
 K. Kue,  A. Kunitsa,  T. Kus,  A. Landau,  K. V. Lawler,  D. Lefrancois,  
 S. Lehtola,  Rain Li,  Yi-Pei Li,  Jiashu Liang,  M. Liebenthal,  
 Hung-Hsuan Lin,  You-Sheng Lin,  Fenglai Liu,  Kuan-Yu Liu,  
 M. Loipersberger,  A. Luenser,  A. Manjanath,  P. Manohar,  E. Mansoor,  
 S. F. Manzer,  Shan-Ping Mao,  A. V. Marenich,  T. Markovich,  S. Mason,  
 S. A. Maurer,  P. F. McLaughlin,  M. F. S. J. Menger,  J.-M. Mewes,  
 S. A. Mewes,  P. Morgante,  J. W. Mullinax,  T. S. Nguyen-Beck,  
 K. J. Oosterbaan,  G. Paran,  Alexander C. Paul,  Suranjan K. Paul,  
 F. Pavosevic,  Zheng Pei,  S. Prager,  E. I. Proynov,  E. Ramos,  B. Rana,  
 A. E. Rask,  A. Rettig,  R. M. Richard,  F. Rob,  E. Rossomme,  T. Scheele,  
 M. Scheurer,  M. Schneider,  N. Sergueev,  S. M. Sharada,  W. Skomorowski,  
 D. W. Small,  C. J. Stein,  Yu-Chuan Su,  E. J. Sundstrom,  Zhen Tao,  
 J. Thirman,  T. Tsuchimochi,  N. M. Tubman,  S. P. Veccham,  O. Vydrov,  
 J. Wenzel,  J. Witte,  A. Yamada,  Kun Yao,  S. Yeganeh,  S. R. Yost,  
 A. Zech,  Igor Ying Zhang,  Xing Zhang,  Yu Zhang,  D. Zuev,  
 A. Aspuru-Guzik,  A. T. Bell,  N. A. Besley,  K. B. Bravaya,  B. R. Brooks,  
 D. Casanova,  Jeng-Da Chai,  S. Coriani,  C. J. Cramer,  
 A. E. DePrince, III,  R. A. DiStasio Jr.,  A. Dreuw,  B. D. Dunietz,  
 T. R. Furlani,  W. A. Goddard III,  S. Grimme,  S. Hammes-Schiffer,  
 T. Head-Gordon,  W. J. Hehre,  Chao-Ping Hsu,  T.-C. Jagau,  Yousung Jung,  
 A. Klamt,  Jing Kong,  D. S. Lambrecht,  WanZhen Liang,  N. J. Mayhall,  
 C. W. McCurdy,  J. B. Neaton,  C. Ochsenfeld,  J. A. Parkhill,  R. Peverati,  
 V. A. Rassolov,  Yihan Shao,  L. V. Slipchenko,  T. Stauch,  R. P. Steele,  
 J. E. Subotnik,  A. J. W. Thom,  A. Tkatchenko,  D. G. Truhlar,  
 T. Van Voorhis,  T. A. Wesolowski,  K. B. Whaley,  H. L. Woodcock III,  
 P. M. Zimmerman,  S. Faraji,  P. M. W. Gill,  M. Head-Gordon,  
 J. M. Herbert,  A. I. Krylov

 Contributors to earlier versions of Q-Chem not listed above: 
 R. D. Adamson,  B. Austin,  R. Baer,  J. Baker,  G. J. O. Beran,  
 K. Brandhorst,  S. T. Brown,  E. F. C. Byrd,  A. K. Chakraborty,  
 G. K. L. Chan,  Chun-Min Chang,  Yunqing Chen,  C.-L. Cheng,  
 Siu Hung Chien,  D. M. Chipman,  D. L. Crittenden,  H. Dachsel,  
 R. J. Doerksen,  A. D. Dutoi,  R. G. Edgar,  J. Fosso-Tande,  
 L. Fusti-Molnar,  D. Ghosh,  A. Ghysels,  A. Golubeva-Zadorozhnaya,  
 J. Gonthier,  M. S. Gordon,  S. R. Gwaltney,  G. Hawkins,  J. E. Herr,  
 A. Heyden,  S. Hirata,  E. G. Hohenstein,  G. Kedziora,  F. J. Keil,  
 C. Kelley,  Jihan Kim,  R. A. King,  R. Z. Khaliullin,  P. P. Korambath,  
 W. Kurlancheek,  A. Laurent,  A. M. Lee,  M. S. Lee,  S. V. Levchenko,  
 Ching Yeh Lin,  D. Liotard,  E. Livshits,  R. C. Lochan,  I. Lotan,  
 L. A. Martinez-Martinez,  P. E. Maslen,  N. Nair,  D. P. O'Neill,  
 D. Neuhauser,  E. Neuscamman,  C. M. Oana,  R. Olivares-Amaya,  R. Olson,  
 T. M. Perrine,  B. Peters,  P. A. Pieniazek,  A. Prociuk,  Y. M. Rhee,  
 J. Ritchie,  M. A. Rohrdanz,  E. Rosta,  N. J. Russ,  H. F. Schaefer III,  
 M. W. Schmidt,  N. E. Schultz,  S. Sharma,  N. Shenvi,  C. D. Sherrill,  
 A. C. Simmonett,  A. Sodt,  T. Stein,  D. Stuck,  K. S. Thanthiriwatte,  
 V. Vanovschi,  L. Vogt,  Tao Wang,  A. Warshel,  M. A. Watson,  
 C. F. Williams,  Q. Wu,  X. Xu,  Jun Yang,  W. Zhang,  Yan Zhao

 Please cite Q-Chem as follows:
 Y. Shao et al., Mol. Phys. 113, 184-215 (2015)
 DOI: 10.1080/00268976.2014.952696

 Q-Chem 5.4.0 for Intel X86 EM64T Linux

 Parts of Q-Chem use Armadillo 9.800.1 (Horizon Scraper).
 http://arma.sourceforge.net/

 Q-Chem begins on Sat Feb  3 11:23:24 2024  

 Host: 
0

     Scratch files written to /expanse/lustre/scratch/selhajj/temp_project/qcscratch/28445525/qchem122014//
 May1621 |scratch|qcdevops|jenkins|workspace|build_RNUM    
 Processing $rem in /cm/shared/apps/spack/cpu/opt/spack/linux-centos8-zen2/gcc-10.2.0/qchem-5.4-akfmr7b3t57bfs6qan3padb2wnb2i7cl/config/preferences:
 Processing $rem in /home/selhajj/.qchemrc:
 Symmetry turned off for PCM/SM12/SMD calculation
 Method-specific promolecule density matrix will be built for SM12 calculation

 Checking the input file for inconsistencies... 	...done.

--------------------------------------------------------------
User input:
--------------------------------------------------------------
$molecule
0 1
C                 -1.8409430000      1.9087610000     -5.1580670000
C                 -1.7587510000      0.5834440000     -5.5610990000
C                 -1.3482190000     -0.4008790000     -4.6545220000
C                 -1.5141790000      2.2666880000     -3.8437470000
C                 -1.1033480000      1.2811110000     -2.9353400000
C                 -1.0227980000     -0.0544990000     -3.3506810000
C                 -1.6050830000      3.6899720000     -3.4339000000
C                 -0.7532250000      1.6280250000     -1.5348260000
C                 -1.2566440000      4.0408800000     -2.0530100000
C                 -0.8442370000      3.0265670000     -1.1169430000
C                 -1.3416620000      5.3926250000     -1.6442490000
C                 -1.0223220000      5.7063290000     -0.2962680000
C                 -0.6343970000      4.7503000000      0.5974120000
C                 -0.5257690000      3.3792340000      0.2245390000
O                 -1.9720130000      4.5348250000     -4.2653250000
O                 -0.3971720000      0.7183280000     -0.7647090000
N                 -1.6941170000      6.4085570000     -2.4812280000
N                 -0.1294020000      2.4600210000      1.1436340000
C                  0.2057330000      2.7547330000      2.5197590000
H                 -2.1547800000      2.6884600000     -5.8404190000
H                 -2.0125230000      0.3105460000     -6.5793460000
H                 -1.2842570000     -1.4360110000     -4.9710510000
H                 -0.7031920000     -0.7981160000     -2.6318270000
H                 -1.0876170000      6.7417660000      0.0236410000
H                 -0.4020810000      5.0441120000      1.6124510000
H                 -1.9910580000      6.1649010000     -3.4190860000
H                 -1.8565720000      7.3269190000     -2.1054940000
H                 -0.0803420000      1.5070500000      0.7921950000
H                 -0.6406340000      3.1818620000      3.0712680000
H                  1.0536800000      3.4454440000      2.6018980000
H                  0.4860740000      1.8216140000      3.0078210000
$end

$rem
BASIS  =  6-311++G(d,p)
GUI  =  2
JOB_TYPE  =  SP
METHOD  =  B3LYP
SCF_CONVERGENCE  = 8
SOLVENT_METHOD = sm12
$end

$smx
solvent dimethylformamide
charges CM5
$end





--------------------------------------------------------------
 ----------------------------------------------------------------
             Standard Nuclear Orientation (Angstroms)
    I     Atom           X                Y                Z
 ----------------------------------------------------------------
    1      C      -1.8409430000     1.9087610000    -5.1580670000
    2      C      -1.7587510000     0.5834440000    -5.5610990000
    3      C      -1.3482190000    -0.4008790000    -4.6545220000
    4      C      -1.5141790000     2.2666880000    -3.8437470000
    5      C      -1.1033480000     1.2811110000    -2.9353400000
    6      C      -1.0227980000    -0.0544990000    -3.3506810000
    7      C      -1.6050830000     3.6899720000    -3.4339000000
    8      C      -0.7532250000     1.6280250000    -1.5348260000
    9      C      -1.2566440000     4.0408800000    -2.0530100000
   10      C      -0.8442370000     3.0265670000    -1.1169430000
   11      C      -1.3416620000     5.3926250000    -1.6442490000
   12      C      -1.0223220000     5.7063290000    -0.2962680000
   13      C      -0.6343970000     4.7503000000     0.5974120000
   14      C      -0.5257690000     3.3792340000     0.2245390000
   15      O      -1.9720130000     4.5348250000    -4.2653250000
   16      O      -0.3971720000     0.7183280000    -0.7647090000
   17      N      -1.6941170000     6.4085570000    -2.4812280000
   18      N      -0.1294020000     2.4600210000     1.1436340000
   19      C       0.2057330000     2.7547330000     2.5197590000
   20      H      -2.1547800000     2.6884600000    -5.8404190000
   21      H      -2.0125230000     0.3105460000    -6.5793460000
   22      H      -1.2842570000    -1.4360110000    -4.9710510000
   23      H      -0.7031920000    -0.7981160000    -2.6318270000
   24      H      -1.0876170000     6.7417660000     0.0236410000
   25      H      -0.4020810000     5.0441120000     1.6124510000
   26      H      -1.9910580000     6.1649010000    -3.4190860000
   27      H      -1.8565720000     7.3269190000    -2.1054940000
   28      H      -0.0803420000     1.5070500000     0.7921950000
   29      H      -0.6406340000     3.1818620000     3.0712680000
   30      H       1.0536800000     3.4454440000     2.6018980000
   31      H       0.4860740000     1.8216140000     3.0078210000
 ----------------------------------------------------------------
 Nuclear Repulsion Energy =        1356.86618976 hartrees
 There are       66 alpha and       66 beta electrons
 Requested basis set is 6-311++G(d,p)
 There are 174 shells and 502 basis functions

 Total QAlloc Memory Limit   8000 MB
 Mega-Array Size       188 MB
 MEM_STATIC part       192 MB
 A cutoff of  1.0D-11 yielded  11475 shell pairs
 There are     99464 function pairs (    106524 Cartesian)
 Smallest overlap matrix eigenvalue = 2.57E-08

 Q-Chem warning in module stvman/mkSTV.C, line 323:

 Overlap eigenvalue is smaller than square root of threshold
 Use THRESH >= 12 to get rid of this warning

 Linear dependence detected in AO basis
 Tighter screening thresholds may be required for diffuse basis sets
 Use S2THRESH > 14 and THRESH = 14 in case of SCF convergence issues
 Number of orthogonalized atomic orbitals = 494
 Maximum deviation from orthogonality = 2.810E-10

 Scale SEOQF with 1.000000e-01/1.000000e-02/1.000000e-02

 Standard Electronic Orientation quadrupole field applied
 Nucleus-field energy     =     0.0000000060 hartrees
 ================ Generating on-the-fly Promolecule Density  ================
Attempting to make child job directory: /expanse/lustre/scratch/selhajj/temp_project/qcscratch/28445525/qchem122014//Frg1/
Attempting to make child job directory: /expanse/lustre/scratch/selhajj/temp_project/qcscratch/28445525/qchem122014//Frg2/
Attempting to make child job directory: /expanse/lustre/scratch/selhajj/temp_project/qcscratch/28445525/qchem122014//Frg3/
Attempting to make child job directory: /expanse/lustre/scratch/selhajj/temp_project/qcscratch/28445525/qchem122014//Frg4/
Creating input file /expanse/lustre/scratch/selhajj/temp_project/qcscratch/28445525/qchem122014/Frg1.input
using default PutDataFrgm: nothing
calling putenv with: QCSCRATCH=/expanse/lustre/scratch/selhajj/temp_project/qcscratch/28445525/qchem122014/ 
Spawning Job For Fragment 0
Done Job For Fragment 0
calling putenv with: QCSCRATCH=/expanse/lustre/scratch/selhajj/temp_project/qcscratch/28445525 
calling putenv with: QCTHREADS=8 
Creating input file /expanse/lustre/scratch/selhajj/temp_project/qcscratch/28445525/qchem122014/Frg2.input
using default PutDataFrgm: nothing
calling putenv with: QCSCRATCH=/expanse/lustre/scratch/selhajj/temp_project/qcscratch/28445525/qchem122014/ 
Spawning Job For Fragment 1
Done Job For Fragment 1
calling putenv with: QCSCRATCH=/expanse/lustre/scratch/selhajj/temp_project/qcscratch/28445525 
calling putenv with: QCTHREADS=8 
Creating input file /expanse/lustre/scratch/selhajj/temp_project/qcscratch/28445525/qchem122014/Frg3.input
using default PutDataFrgm: nothing
calling putenv with: QCSCRATCH=/expanse/lustre/scratch/selhajj/temp_project/qcscratch/28445525/qchem122014/ 
Spawning Job For Fragment 2
Done Job For Fragment 2
calling putenv with: QCSCRATCH=/expanse/lustre/scratch/selhajj/temp_project/qcscratch/28445525 
calling putenv with: QCTHREADS=8 
Creating input file /expanse/lustre/scratch/selhajj/temp_project/qcscratch/28445525/qchem122014/Frg4.input
using default PutDataFrgm: nothing
calling putenv with: QCSCRATCH=/expanse/lustre/scratch/selhajj/temp_project/qcscratch/28445525/qchem122014/ 
Spawning Job For Fragment 3
Done Job For Fragment 3
calling putenv with: QCSCRATCH=/expanse/lustre/scratch/selhajj/temp_project/qcscratch/28445525 
calling putenv with: QCTHREADS=8 
 Time for running child jobs:  CPU 0.01 s  wall 4.13 s
 ============= Method Specific Promolecule Density Constructed =============
 Guess from superposition of atomic densities
 Warning:  Energy on first SCF cycle will be non-variational
 SAD guess density has 132.000000 electrons

 -----------------------------------------------------------------------
  General SCF calculation program by
  Eric Jon Sundstrom, Paul Horn, Yuezhi Mao, Dmitri Zuev, Alec White,
  David Stuck, Shaama M.S., Shane Yost, Joonho Lee, David Small,
  Daniel Levine, Susi Lehtola, Hugh Burton, Evgeny Epifanovsky,
  Bang C. Huynh
 -----------------------------------------------------------------------
 Exchange:     0.2000 Hartree-Fock + 0.0800 Slater + 0.7200 B88
 Correlation:  0.1900 VWN1RPA + 0.8100 LYP
 Using SG-1 standard quadrature grid
 using 8 threads for integral computing
 -------------------------------------------------------
 OpenMP Integral computing Module                
 Release: version 1.0, May 2013, Q-Chem Inc. Pittsburgh 
 -------------------------------------------------------
 
 SM12 calculation using CM5 charges
 Citation of the SM12 model:
 Marenich, A.V.; Cramer, C.J.; Truhlar, D.G.
 J. Chem. Theory Comput. 2013, 9, 609-612.
 iSolventCode=          91
 Solvent: dimethylformamide                                               
 
Hirshfeld: reading atomic densities from disk.
warning:  vdwdata pointer should have been initialzed before dftman

 Charges (in A.U.) from CM5PAC (Nov. 11, 2011)
 -----------------------------------------------
 Center     Atomic      CM5         Hirshfeld
 Number     Number      Charge      Charge
 -----------------------------------------------
    1          6       -0.051947   -0.000332
    2          6       -0.058058   -0.002679
    3          6       -0.058164   -0.002789
    4          6       -0.001459    0.000212
    5          6       -0.001539    0.000131
    6          6       -0.051945   -0.000329
    7          6        0.040744    0.007708
    8          6        0.040174    0.007643
    9          6        0.007618    0.001957
   10          6        0.007796    0.002122
   11          6        0.061890    0.002908
   12          6       -0.048470   -0.000709
   13          6       -0.048604   -0.000426
   14          6        0.065525    0.003228
   15          8       -0.081860   -0.019923
   16          8       -0.084938   -0.020083
   17          7       -0.475177   -0.018988
   18          7       -0.384664   -0.020928
   19          6       -0.090359   -0.001284
   20          1        0.066850    0.005494
   21          1        0.058824    0.003065
   22          1        0.058808    0.003048
   23          1        0.066970    0.005502
   24          1        0.062908    0.003504
   25          1        0.063734    0.002918
   26          1        0.219022    0.010592
   27          1        0.199598    0.007754
   28          1        0.224893    0.010353
   29          1        0.063609    0.003691
   30          1        0.063628    0.003696
   31          1        0.065105    0.003455
 -----------------------------------------------

 Dipole moment (in Debye)
 -----------------------------------------------
                 X        Y        Z     Total
 -----------------------------------------------
 CM5         -0.1452   0.1468   0.3247   0.3848
 Hirshfeld   -0.0002   0.0367   0.0528   0.0643
 -----------------------------------------------

 A restricted SCF calculation will be
 performed using DIIS
 SCF converges when DIIS error is below 1.0e-08
 ---------------------------------------
  Cycle       Energy         DIIS error
 ---------------------------------------
Hirshfeld: reading atomic densities from disk.

 Charges (in A.U.) from CM5PAC (Nov. 11, 2011)
 -----------------------------------------------
 Center     Atomic      CM5         Hirshfeld
 Number     Number      Charge      Charge
 -----------------------------------------------
    1          6       -0.157263   -0.105648
    2          6       -0.154629   -0.099250
    3          6       -0.153260   -0.097885
    4          6       -0.040243   -0.038572
    5          6       -0.038360   -0.036691
    6          6       -0.158614   -0.106998
    7          6        0.327036    0.294000
    8          6        0.317913    0.285381
    9          6       -0.099926   -0.105586
   10          6       -0.099899   -0.105572
   11          6        0.187216    0.128234
   12          6       -0.146016   -0.098254
   13          6       -0.155955   -0.107776
   14          6        0.185059    0.122762
   15          8       -0.532670   -0.470733
   16          8       -0.534192   -0.469336
   17          7       -0.695937   -0.239749
   18          7       -0.496584   -0.132848
   19          6       -0.242123   -0.153049
   20          1        0.171169    0.109813
   21          1        0.181030    0.125270
   22          1        0.181085    0.125325
   23          1        0.170811    0.109343
   24          1        0.188108    0.128704
   25          1        0.180599    0.119783
   26          1        0.365462    0.157031
   27          1        0.408197    0.216353
   28          1        0.363333    0.148793
   29          1        0.155772    0.095854
   30          1        0.155694    0.095762
   31          1        0.167360    0.105710
 -----------------------------------------------

 Dipole moment (in Debye)
 -----------------------------------------------
                 X        Y        Z     Total
 -----------------------------------------------
 CM5          0.4936   4.3138   5.3939   6.9244
 Hirshfeld    0.6387   4.2037   5.1220   6.6569
 -----------------------------------------------

    1    -843.7860075040      3.04e-02  
Hirshfeld: reading atomic densities from disk.

 Charges (in A.U.) from CM5PAC (Nov. 11, 2011)
 -----------------------------------------------
 Center     Atomic      CM5         Hirshfeld
 Number     Number      Charge      Charge
 -----------------------------------------------
    1          6       -0.003320    0.048295
    2          6        0.009501    0.064880
    3          6        0.007936    0.063311
    4          6       -0.054331   -0.052660
    5          6       -0.054382   -0.052712
    6          6       -0.001693    0.049923
    7          6       -0.212335   -0.245370
    8          6       -0.205161   -0.237693
    9          6       -0.043098   -0.048759
   10          6       -0.046589   -0.052262
   11          6       -0.004138   -0.063119
   12          6       -0.008093    0.039669
   13          6       -0.005397    0.042782
   14          6       -0.006686   -0.068984
   15          8        0.160509    0.222445
   16          8        0.151371    0.216226
   17          7       -0.429215    0.026974
   18          7       -0.386938   -0.023202
   19          6        0.033568    0.122643
   20          1        0.023478   -0.037878
   21          1        0.030626   -0.025133
   22          1        0.030541   -0.025219
   23          1        0.023552   -0.037915
   24          1        0.057561   -0.001843
   25          1        0.056294   -0.004522
   26          1        0.232099    0.023669
   27          1        0.248686    0.056842
   28          1        0.238638    0.024098
   29          1        0.044482   -0.015436
   30          1        0.044734   -0.015198
   31          1        0.068193    0.006543
 -----------------------------------------------

 Dipole moment (in Debye)
 -----------------------------------------------
                 X        Y        Z     Total
 -----------------------------------------------
 CM5         -0.0225   0.9364   1.2819   1.5876
 Hirshfeld    0.1226   0.8262   1.0100   1.3106
 -----------------------------------------------

    2    -838.7328884574      3.26e-03  
Hirshfeld: reading atomic densities from disk.

 Charges (in A.U.) from CM5PAC (Nov. 11, 2011)
 -----------------------------------------------
 Center     Atomic      CM5         Hirshfeld
 Number     Number      Charge      Charge
 -----------------------------------------------
    1          6       -0.073224   -0.021609
    2          6       -0.086855   -0.031476
    3          6       -0.085764   -0.030389
    4          6        0.022857    0.024528
    5          6        0.023255    0.024924
    6          6       -0.074560   -0.022944
    7          6        0.211998    0.178962
    8          6        0.204134    0.171603
    9          6        0.010463    0.004803
   10          6        0.010151    0.004478
   11          6        0.124535    0.065553
   12          6       -0.055790   -0.008028
   13          6       -0.062841   -0.014662
   14          6        0.131072    0.068775
   15          8       -0.478854   -0.416917
   16          8       -0.481178   -0.416323
   17          7       -0.573553   -0.117364
   18          7       -0.432368   -0.068632
   19          6       -0.085076    0.003998
   20          1        0.089411    0.028055
   21          1        0.093872    0.038113
   22          1        0.093963    0.038203
   23          1        0.089087    0.027620
   24          1        0.099634    0.040230
   25          1        0.096264    0.035449
   26          1        0.294087    0.085657
   27          1        0.313742    0.121898
   28          1        0.293239    0.078700
   29          1        0.090241    0.030323
   30          1        0.090270    0.030338
   31          1        0.108034    0.046384
 -----------------------------------------------

 Dipole moment (in Debye)
 -----------------------------------------------
                 X        Y        Z     Total
 -----------------------------------------------
 CM5          0.4617   3.3308   4.4538   5.5807
 Hirshfeld    0.6068   3.2207   4.1819   5.3131
 -----------------------------------------------

    3    -838.4863085412      4.77e-03  
Hirshfeld: reading atomic densities from disk.

 Charges (in A.U.) from CM5PAC (Nov. 11, 2011)
 -----------------------------------------------
 Center     Atomic      CM5         Hirshfeld
 Number     Number      Charge      Charge
 -----------------------------------------------
    1          6       -0.086879   -0.035264
    2          6       -0.084307   -0.028928
    3          6       -0.083910   -0.028535
    4          6       -0.033500   -0.031829
    5          6       -0.032116   -0.030446
    6          6       -0.087058   -0.035442
    7          6        0.155927    0.122891
    8          6        0.152959    0.120427
    9          6       -0.066071   -0.071732
   10          6       -0.066762   -0.072435
   11          6        0.118522    0.059540
   12          6       -0.080718   -0.032956
   13          6       -0.089073   -0.040895
   14          6        0.118739    0.056442
   15          8       -0.305831   -0.243895
   16          8       -0.308434   -0.243578
   17          7       -0.598458   -0.142269
   18          7       -0.455501   -0.091765
   19          6       -0.116361   -0.027287
   20          1        0.108095    0.046739
   21          1        0.111886    0.056127
   22          1        0.111899    0.056139
   23          1        0.107823    0.046356
   24          1        0.121542    0.062138
   25          1        0.117414    0.056598
   26          1        0.306079    0.097649
   27          1        0.330133    0.138289
   28          1        0.305412    0.090872
   29          1        0.103687    0.043769
   30          1        0.103704    0.043772
   31          1        0.121416    0.059765
 -----------------------------------------------

 Dipole moment (in Debye)
 -----------------------------------------------
                 X        Y        Z     Total
 -----------------------------------------------
 CM5          0.2904   2.3932   3.4315   4.1936
 Hirshfeld    0.4355   2.2831   3.1595   3.9223
 -----------------------------------------------

    4    -838.9860027596      1.31e-03  
Hirshfeld: reading atomic densities from disk.

 Charges (in A.U.) from CM5PAC (Nov. 11, 2011)
 -----------------------------------------------
 Center     Atomic      CM5         Hirshfeld
 Number     Number      Charge      Charge
 -----------------------------------------------
    1          6       -0.082299   -0.030684
    2          6       -0.081766   -0.026386
    3          6       -0.081370   -0.025995
    4          6       -0.023768   -0.022097
    5          6       -0.023142   -0.021473
    6          6       -0.082970   -0.031354
    7          6        0.133432    0.100396
    8          6        0.129158    0.096627
    9          6       -0.049126   -0.054787
   10          6       -0.050447   -0.056120
   11          6        0.116288    0.057306
   12          6       -0.075785   -0.028024
   13          6       -0.080516   -0.032338
   14          6        0.115849    0.053552
   15          8       -0.329882   -0.267945
   16          8       -0.334475   -0.269619
   17          7       -0.572774   -0.116585
   18          7       -0.438602   -0.074866
   19          6       -0.108511   -0.019436
   20          1        0.105556    0.044200
   21          1        0.109659    0.053900
   22          1        0.109690    0.053929
   23          1        0.105372    0.043904
   24          1        0.118968    0.059564
   25          1        0.115231    0.054415
   26          1        0.303892    0.095462
   27          1        0.326615    0.134771
   28          1        0.304390    0.089851
   29          1        0.101536    0.041618
   30          1        0.101591    0.041658
   31          1        0.118462    0.056812
 -----------------------------------------------

 Dipole moment (in Debye)
 -----------------------------------------------
                 X        Y        Z     Total
 -----------------------------------------------
 CM5          0.3309   2.8475   3.7903   4.7523
 Hirshfeld    0.4760   2.7374   3.5184   4.4832
 -----------------------------------------------

    5    -839.0291017602      2.52e-04  
Hirshfeld: reading atomic densities from disk.

 Charges (in A.U.) from CM5PAC (Nov. 11, 2011)
 -----------------------------------------------
 Center     Atomic      CM5         Hirshfeld
 Number     Number      Charge      Charge
 -----------------------------------------------
    1          6       -0.083706   -0.032091
    2          6       -0.084443   -0.029063
    3          6       -0.083944   -0.028569
    4          6       -0.020828   -0.019157
    5          6       -0.019716   -0.018046
    6          6       -0.084092   -0.032476
    7          6        0.149621    0.116585
    8          6        0.145790    0.113259
    9          6       -0.045950   -0.051610
   10          6       -0.046984   -0.052657
   11          6        0.111329    0.052347
   12          6       -0.078184   -0.030423
   13          6       -0.084533   -0.036354
   14          6        0.112468    0.050171
   15          8       -0.324213   -0.262277
   16          8       -0.326856   -0.262001
   17          7       -0.589044   -0.132855
   18          7       -0.451892   -0.088156
   19          6       -0.108363   -0.019288
   20          1        0.104253    0.042897
   21          1        0.108754    0.052994
   22          1        0.108770    0.053009
   23          1        0.103994    0.042527
   24          1        0.118185    0.058781
   25          1        0.114351    0.053535
   26          1        0.303891    0.095460
   27          1        0.327084    0.135240
   28          1        0.303712    0.089173
   29          1        0.101114    0.041196
   30          1        0.101153    0.041221
   31          1        0.118536    0.056886
 -----------------------------------------------

 Dipole moment (in Debye)
 -----------------------------------------------
                 X        Y        Z     Total
 -----------------------------------------------
 CM5          0.3012   2.5128   3.5159   4.3320
 Hirshfeld    0.4463   2.4027   3.2440   4.0615
 -----------------------------------------------

    6    -839.0295806180      1.13e-04  
Hirshfeld: reading atomic densities from disk.

 Charges (in A.U.) from CM5PAC (Nov. 11, 2011)
 -----------------------------------------------
 Center     Atomic      CM5         Hirshfeld
 Number     Number      Charge      Charge
 -----------------------------------------------
    1          6       -0.082942   -0.031327
    2          6       -0.082509   -0.027129
    3          6       -0.082045   -0.026670
    4          6       -0.024177   -0.022506
    5          6       -0.023198   -0.021528
    6          6       -0.083419   -0.031803
    7          6        0.147160    0.114125
    8          6        0.143324    0.110793
    9          6       -0.051405   -0.057066
   10          6       -0.052363   -0.058036
   11          6        0.115673    0.056691
   12          6       -0.075752   -0.027991
   13          6       -0.082478   -0.034300
   14          6        0.116407    0.054110
   15          8       -0.326013   -0.264076
   16          8       -0.329568   -0.264713
   17          7       -0.584287   -0.128098
   18          7       -0.445932   -0.082196
   19          6       -0.108684   -0.019610
   20          1        0.104640    0.043284
   21          1        0.108912    0.053152
   22          1        0.108935    0.053175
   23          1        0.104396    0.042929
   24          1        0.117812    0.058407
   25          1        0.114033    0.053217
   26          1        0.303496    0.095065
   27          1        0.326586    0.134742
   28          1        0.303401    0.088861
   29          1        0.100966    0.041048
   30          1        0.101007    0.041074
   31          1        0.118281    0.056631
 -----------------------------------------------

 Dipole moment (in Debye)
 -----------------------------------------------
                 X        Y        Z     Total
 -----------------------------------------------
 CM5          0.3134   2.6150   3.6110   4.4694
 Hirshfeld    0.4585   2.5049   3.3390   4.1993
 -----------------------------------------------

    7    -839.0310856630      5.59e-05  
Hirshfeld: reading atomic densities from disk.

 Charges (in A.U.) from CM5PAC (Nov. 11, 2011)
 -----------------------------------------------
 Center     Atomic      CM5         Hirshfeld
 Number     Number      Charge      Charge
 -----------------------------------------------
    1          6       -0.083074   -0.031459
    2          6       -0.082997   -0.027618
    3          6       -0.082554   -0.027179
    4          6       -0.023411   -0.021740
    5          6       -0.022454   -0.020784
    6          6       -0.083540   -0.031924
    7          6        0.146646    0.113610
    8          6        0.142819    0.110288
    9          6       -0.049671   -0.055331
   10          6       -0.050630   -0.056303
   11          6        0.114833    0.055852
   12          6       -0.076846   -0.029085
   13          6       -0.083225   -0.035047
   14          6        0.115416    0.053119
   15          8       -0.325742   -0.263806
   16          8       -0.329056   -0.264200
   17          7       -0.584317   -0.128128
   18          7       -0.447113   -0.083377
   19          6       -0.108892   -0.019818
   20          1        0.104735    0.043379
   21          1        0.109058    0.053298
   22          1        0.109080    0.053320
   23          1        0.104497    0.043030
   24          1        0.118041    0.058637
   25          1        0.114233    0.053418
   26          1        0.303574    0.095144
   27          1        0.326598    0.134754
   28          1        0.303602    0.089063
   29          1        0.101079    0.041161
   30          1        0.101121    0.041188
   31          1        0.118444    0.056794
 -----------------------------------------------

 Dipole moment (in Debye)
 -----------------------------------------------
                 X        Y        Z     Total
 -----------------------------------------------
 CM5          0.3086   2.5989   3.5851   4.4387
 Hirshfeld    0.4537   2.4888   3.3131   4.1685
 -----------------------------------------------

    8    -839.0307632465      1.38e-05  
Hirshfeld: reading atomic densities from disk.

 Charges (in A.U.) from CM5PAC (Nov. 11, 2011)
 -----------------------------------------------
 Center     Atomic      CM5         Hirshfeld
 Number     Number      Charge      Charge
 -----------------------------------------------
    1          6       -0.083061   -0.031446
    2          6       -0.082897   -0.027517
    3          6       -0.082435   -0.027060
    4          6       -0.023345   -0.021674
    5          6       -0.022376   -0.020706
    6          6       -0.083533   -0.031917
    7          6        0.146598    0.113563
    8          6        0.142713    0.110181
    9          6       -0.049912   -0.055572
   10          6       -0.050950   -0.056624
   11          6        0.114736    0.055754
   12          6       -0.076574   -0.028812
   13          6       -0.082934   -0.034755
   14          6        0.115449    0.053152
   15          8       -0.325791   -0.263854
   16          8       -0.329244   -0.264388
   17          7       -0.584580   -0.128392
   18          7       -0.446851   -0.083115
   19          6       -0.108781   -0.019706
   20          1        0.104737    0.043381
   21          1        0.109052    0.053292
   22          1        0.109073    0.053313
   23          1        0.104499    0.043032
   24          1        0.118021    0.058617
   25          1        0.114217    0.053401
   26          1        0.303623    0.095193
   27          1        0.326675    0.134831
   28          1        0.303584    0.089044
   29          1        0.101051    0.041133
   30          1        0.101093    0.041160
   31          1        0.118397    0.056746
 -----------------------------------------------

 Dipole moment (in Debye)
 -----------------------------------------------
                 X        Y        Z     Total
 -----------------------------------------------
 CM5          0.3096   2.5979   3.5885   4.4410
 Hirshfeld    0.4546   2.4877   3.3166   4.1708
 -----------------------------------------------

    9    -839.0308394598      3.53e-06  
Hirshfeld: reading atomic densities from disk.

 Charges (in A.U.) from CM5PAC (Nov. 11, 2011)
 -----------------------------------------------
 Center     Atomic      CM5         Hirshfeld
 Number     Number      Charge      Charge
 -----------------------------------------------
    1          6       -0.083053   -0.031438
    2          6       -0.082880   -0.027501
    3          6       -0.082427   -0.027052
    4          6       -0.023425   -0.021754
    5          6       -0.022453   -0.020783
    6          6       -0.083521   -0.031905
    7          6        0.146599    0.113563
    8          6        0.142744    0.110213
    9          6       -0.049891   -0.055552
   10          6       -0.050882   -0.056555
   11          6        0.114852    0.055870
   12          6       -0.076618   -0.028856
   13          6       -0.083043   -0.034864
   14          6        0.115477    0.053179
   15          8       -0.325896   -0.263959
   16          8       -0.329251   -0.264396
   17          7       -0.584357   -0.128168
   18          7       -0.446895   -0.083159
   19          6       -0.108810   -0.019736
   20          1        0.104753    0.043398
   21          1        0.109069    0.053309
   22          1        0.109091    0.053331
   23          1        0.104515    0.043047
   24          1        0.118010    0.058606
   25          1        0.114213    0.053397
   26          1        0.303588    0.095158
   27          1        0.326623    0.134779
   28          1        0.303581    0.089041
   29          1        0.101052    0.041134
   30          1        0.101094    0.041161
   31          1        0.118396    0.056746
 -----------------------------------------------

 Dipole moment (in Debye)
 -----------------------------------------------
                 X        Y        Z     Total
 -----------------------------------------------
 CM5          0.3090   2.5984   3.5865   4.4396
 Hirshfeld    0.4541   2.4883   3.3146   4.1694
 -----------------------------------------------

   10    -839.0308268620      1.71e-06  
Hirshfeld: reading atomic densities from disk.

 Charges (in A.U.) from CM5PAC (Nov. 11, 2011)
 -----------------------------------------------
 Center     Atomic      CM5         Hirshfeld
 Number     Number      Charge      Charge
 -----------------------------------------------
    1          6       -0.083041   -0.031426
    2          6       -0.082891   -0.027511
    3          6       -0.082439   -0.027064
    4          6       -0.023411   -0.021740
    5          6       -0.022456   -0.020786
    6          6       -0.083515   -0.031899
    7          6        0.146582    0.113546
    8          6        0.142725    0.110194
    9          6       -0.049883   -0.055543
   10          6       -0.050883   -0.056556
   11          6        0.114839    0.055858
   12          6       -0.076647   -0.028885
   13          6       -0.083015   -0.034836
   14          6        0.115508    0.053211
   15          8       -0.325857   -0.263920
   16          8       -0.329304   -0.264449
   17          7       -0.584380   -0.128191
   18          7       -0.446825   -0.083088
   19          6       -0.108827   -0.019753
   20          1        0.104756    0.043400
   21          1        0.109075    0.053315
   22          1        0.109097    0.053337
   23          1        0.104519    0.043051
   24          1        0.118007    0.058603
   25          1        0.114206    0.053391
   26          1        0.303586    0.095156
   27          1        0.326622    0.134778
   28          1        0.303575    0.089035
   29          1        0.101048    0.041130
   30          1        0.101090    0.041157
   31          1        0.118392    0.056742
 -----------------------------------------------

 Dipole moment (in Debye)
 -----------------------------------------------
                 X        Y        Z     Total
 -----------------------------------------------
 CM5          0.3089   2.5984   3.5862   4.4394
 Hirshfeld    0.4540   2.4882   3.3143   4.1692
 -----------------------------------------------

   11    -839.0308281877      4.97e-07  
Hirshfeld: reading atomic densities from disk.

 Charges (in A.U.) from CM5PAC (Nov. 11, 2011)
 -----------------------------------------------
 Center     Atomic      CM5         Hirshfeld
 Number     Number      Charge      Charge
 -----------------------------------------------
    1          6       -0.083042   -0.031427
    2          6       -0.082879   -0.027499
    3          6       -0.082424   -0.027049
    4          6       -0.023417   -0.021746
    5          6       -0.022453   -0.020783
    6          6       -0.083512   -0.031896
    7          6        0.146580    0.113545
    8          6        0.142715    0.110183
    9          6       -0.049894   -0.055555
   10          6       -0.050898   -0.056572
   11          6        0.114850    0.055868
   12          6       -0.076623   -0.028861
   13          6       -0.083013   -0.034835
   14          6        0.115496    0.053199
   15          8       -0.325888   -0.263951
   16          8       -0.329279   -0.264424
   17          7       -0.584368   -0.128179
   18          7       -0.446841   -0.083105
   19          6       -0.108822   -0.019747
   20          1        0.104757    0.043401
   21          1        0.109074    0.053315
   22          1        0.109096    0.053336
   23          1        0.104518    0.043051
   24          1        0.118005    0.058601
   25          1        0.114206    0.053390
   26          1        0.303586    0.095155
   27          1        0.326621    0.134777
   28          1        0.303576    0.089037
   29          1        0.101047    0.041129
   30          1        0.101089    0.041156
   31          1        0.118392    0.056742
 -----------------------------------------------

 Dipole moment (in Debye)
 -----------------------------------------------
                 X        Y        Z     Total
 -----------------------------------------------
 CM5          0.3090   2.5981   3.5862   4.4392
 Hirshfeld    0.4540   2.4880   3.3143   4.1690
 -----------------------------------------------

   12    -839.0308295813      2.82e-07  
Hirshfeld: reading atomic densities from disk.

 Charges (in A.U.) from CM5PAC (Nov. 11, 2011)
 -----------------------------------------------
 Center     Atomic      CM5         Hirshfeld
 Number     Number      Charge      Charge
 -----------------------------------------------
    1          6       -0.083042   -0.031427
    2          6       -0.082875   -0.027495
    3          6       -0.082421   -0.027047
    4          6       -0.023419   -0.021749
    5          6       -0.022455   -0.020785
    6          6       -0.083513   -0.031897
    7          6        0.146576    0.113540
    8          6        0.142720    0.110189
    9          6       -0.049899   -0.055559
   10          6       -0.050896   -0.056570
   11          6        0.114849    0.055867
   12          6       -0.076621   -0.028860
   13          6       -0.083017   -0.034839
   14          6        0.115497    0.053200
   15          8       -0.325879   -0.263942
   16          8       -0.329288   -0.264433
   17          7       -0.584364   -0.128175
   18          7       -0.446842   -0.083106
   19          6       -0.108818   -0.019744
   20          1        0.104757    0.043401
   21          1        0.109075    0.053315
   22          1        0.109096    0.053336
   23          1        0.104519    0.043051
   24          1        0.118006    0.058601
   25          1        0.114206    0.053390
   26          1        0.303585    0.095155
   27          1        0.326620    0.134776
   28          1        0.303576    0.089037
   29          1        0.101046    0.041128
   30          1        0.101088    0.041155
   31          1        0.118391    0.056741
 -----------------------------------------------

 Dipole moment (in Debye)
 -----------------------------------------------
                 X        Y        Z     Total
 -----------------------------------------------
 CM5          0.3089   2.5981   3.5860   4.4390
 Hirshfeld    0.4540   2.4880   3.3141   4.1688
 -----------------------------------------------

   13    -839.0308287458      6.72e-08  
Hirshfeld: reading atomic densities from disk.

 Charges (in A.U.) from CM5PAC (Nov. 11, 2011)
 -----------------------------------------------
 Center     Atomic      CM5         Hirshfeld
 Number     Number      Charge      Charge
 -----------------------------------------------
    1          6       -0.083041   -0.031426
    2          6       -0.082876   -0.027496
    3          6       -0.082423   -0.027048
    4          6       -0.023419   -0.021748
    5          6       -0.022456   -0.020786
    6          6       -0.083513   -0.031897
    7          6        0.146577    0.113542
    8          6        0.142717    0.110185
    9          6       -0.049898   -0.055558
   10          6       -0.050898   -0.056571
   11          6        0.114849    0.055868
   12          6       -0.076623   -0.028862
   13          6       -0.083016   -0.034837
   14          6        0.115499    0.053202
   15          8       -0.325882   -0.263946
   16          8       -0.329285   -0.264430
   17          7       -0.584365   -0.128176
   18          7       -0.446838   -0.083102
   19          6       -0.108819   -0.019745
   20          1        0.104757    0.043401
   21          1        0.109075    0.053315
   22          1        0.109097    0.053337
   23          1        0.104519    0.043052
   24          1        0.118005    0.058601
   25          1        0.114206    0.053390
   26          1        0.303585    0.095155
   27          1        0.326620    0.134776
   28          1        0.303575    0.089036
   29          1        0.101046    0.041128
   30          1        0.101088    0.041155
   31          1        0.118391    0.056740
 -----------------------------------------------

 Dipole moment (in Debye)
 -----------------------------------------------
                 X        Y        Z     Total
 -----------------------------------------------
 CM5          0.3089   2.5981   3.5860   4.4390
 Hirshfeld    0.4540   2.4880   3.3141   4.1689
 -----------------------------------------------

   14    -839.0308287166      3.90e-08  
   15    -839.0308287870      6.70e-09  Convergence criterion met
 ---------------------------------------
 SCF time:   CPU 6222.58s  wall 787.00s 
(1)  E-EN(liq) elect-nuc energy of solute               -839.030828787 a.u.
(2)  G-P(liq) polarization free energy of solvation            -8.7862 kcal/mol
(3)  G-ENP(liq) elect-nuc-pol free energy of system     -839.044830559 a.u.
(4)  G-CDS(liq) cavity-dispersion-solvent structure 
     free energy                                               -7.9428 kcal/mol
(5)  G-P-CDS(liq) = G-P(liq) + G-CDS(liq) = (2) + (4)         -16.7290 kcal/mol
(6)  G-S(liq) free energy of system = (1) + (5)         -839.057488187 a.u.
 SCF   energy in the final basis set =     -839.0574881873
 Total energy in the final basis set =     -839.0574881873
 
 --------------------------------------------------------------
 
                    Orbital Energies (a.u.)
 --------------------------------------------------------------
 
 Alpha MOs
 -- Occupied --
-19.1105 -19.1098 -14.3361 -14.3298 -10.2643 -10.2630 -10.2401 -10.2391
-10.2009 -10.1978 -10.1978 -10.1972 -10.1963 -10.1945 -10.1941 -10.1913
-10.1907 -10.1889 -10.1886  -1.0444  -1.0422  -0.9527  -0.9366  -0.8807
 -0.8518  -0.8052  -0.7696  -0.7661  -0.7534  -0.6968  -0.6823  -0.6570
 -0.6433  -0.6076  -0.5891  -0.5680  -0.5485  -0.5361  -0.5213  -0.4995
 -0.4856  -0.4837  -0.4751  -0.4561  -0.4556  -0.4429  -0.4401  -0.4385
 -0.4376  -0.4250  -0.4070  -0.4052  -0.3990  -0.3961  -0.3826  -0.3703
 -0.3638  -0.3595  -0.3470  -0.2851  -0.2768  -0.2725  -0.2705  -0.2669
 -0.2618  -0.1959
 -- Virtual --
 -0.1057  -0.0578  -0.0323  -0.0039  -0.0020   0.0030   0.0090   0.0163
  0.0181   0.0329   0.0370   0.0382   0.0389   0.0406   0.0492   0.0527
  0.0535   0.0611   0.0615   0.0629   0.0695   0.0750   0.0856   0.0871
  0.0898   0.0955   0.1037   0.1055   0.1061   0.1095   0.1098   0.1162
  0.1210   0.1236   0.1243   0.1299   0.1302   0.1336   0.1361   0.1403
  0.1416   0.1457   0.1479   0.1502   0.1545   0.1613   0.1661   0.1692
  0.1699   0.1711   0.1720   0.1771   0.1795   0.1887   0.1905   0.1932
  0.1999   0.2029   0.2034   0.2079   0.2091   0.2100   0.2194   0.2207
  0.2214   0.2273   0.2337   0.2345   0.2368   0.2414   0.2444   0.2518
  0.2519   0.2568   0.2590   0.2610   0.2640   0.2719   0.2723   0.2763
  0.2802   0.2862   0.2892   0.2931   0.2959   0.2998   0.3037   0.3063
  0.3085   0.3106   0.3202   0.3220   0.3247   0.3273   0.3351   0.3407
  0.3432   0.3472   0.3511   0.3576   0.3630   0.3698   0.3780   0.3821
  0.3895   0.3997   0.4026   0.4059   0.4172   0.4357   0.4468   0.4584
  0.4620   0.4685   0.4795   0.4969   0.5097   0.5254   0.5331   0.5339
  0.5429   0.5470   0.5483   0.5547   0.5565   0.5655   0.5721   0.5855
  0.5905   0.5973   0.6047   0.6085   0.6098   0.6135   0.6250   0.6283
  0.6370   0.6416   0.6514   0.6518   0.6568   0.6573   0.6627   0.6668
  0.6777   0.6802   0.6879   0.6910   0.7066   0.7165   0.7243   0.7306
  0.7355   0.7399   0.7510   0.7633   0.7667   0.7721   0.7777   0.7899
  0.8006   0.8177   0.8236   0.8335   0.8497   0.8594   0.8682   0.8710
  0.8724   0.8783   0.8878   0.8910   0.8970   0.9094   0.9149   0.9199
  0.9244   0.9300   0.9378   0.9479   0.9535   0.9693   0.9731   0.9783
  0.9838   0.9940   0.9967   1.0064   1.0145   1.0167   1.0314   1.0342
  1.0530   1.0667   1.0713   1.0806   1.0884   1.0988   1.1060   1.1209
  1.1342   1.1386   1.1477   1.1659   1.1735   1.1786   1.2091   1.2233
  1.2314   1.2397   1.2548   1.2734   1.2807   1.3033   1.3235   1.3381
  1.3534   1.3782   1.3986   1.4190   1.4376   1.4511   1.4555   1.4608
  1.4773   1.4840   1.4936   1.5018   1.5061   1.5130   1.5148   1.5214
  1.5329   1.5560   1.5642   1.5645   1.5701   1.5765   1.5971   1.6043
  1.6212   1.6244   1.6553   1.6652   1.6668   1.6844   1.6871   1.6996
  1.7194   1.7304   1.7374   1.7391   1.7460   1.7570   1.7617   1.7687
  1.7728   1.7974   1.8135   1.8382   1.8546   1.8619   1.8757   1.8792
  1.8878   1.8969   1.9019   1.9171   1.9237   1.9340   1.9346   1.9527
  1.9745   1.9777   1.9784   1.9952   2.0069   2.0169   2.0241   2.0484
  2.0511   2.0645   2.0654   2.1018   2.1097   2.1128   2.1229   2.1341
  2.1610   2.1885   2.2090   2.2436   2.2559   2.2919   2.2982   2.2992
  2.3077   2.3521   2.3675   2.3920   2.4004   2.4208   2.4328   2.4557
  2.4683   2.4860   2.4958   2.4992   2.5142   2.5226   2.5487   2.5615
  2.5801   2.6019   2.6214   2.6252   2.6337   2.6428   2.6728   2.6783
  2.7071   2.7117   2.7173   2.7246   2.7359   2.7423   2.7579   2.7597
  2.7637   2.7793   2.7871   2.7880   2.7927   2.8124   2.8312   2.8407
  2.8488   2.8551   2.8634   2.8736   2.8794   2.8933   2.8988   2.9182
  2.9371   2.9489   2.9533   2.9807   3.0062   3.0112   3.0683   3.0849
  3.0969   3.1007   3.1199   3.1467   3.1802   3.2053   3.2106   3.2341
  3.2444   3.2482   3.3217   3.3232   3.3437   3.3463   3.3516   3.3834
  3.4155   3.4252   3.4607   3.5171   3.5224   3.5405   3.5424   3.5712
  3.5841   3.5872   3.6743   3.7421   3.7480   3.7579   3.8262   3.8315
  3.8471   3.8897   3.9547   3.9769   4.0044   4.0355   4.0766   4.1194
  4.1962   4.2468   4.2869   4.4657   4.7712   4.8179   4.8304   4.8527
  4.8867   5.0208   5.0578   5.0772   5.1406   5.3336   5.3552   5.7735
  5.8554  23.5358  23.6853  23.8839  23.8908  23.9044  23.9422  23.9538
 23.9550  23.9583  23.9824  24.0129  24.0625  24.0927  24.1796  24.1837
 35.6663  35.6937  50.0520  50.0986
 --------------------------------------------------------------
 
          Ground-State Mulliken Net Atomic Charges

     Atom                 Charge (a.u.)
  ----------------------------------------
      1 C                    -0.001005
      2 C                     0.166817
      3 C                     0.133521
      4 C                    -0.682682
      5 C                    -0.534040
      6 C                    -0.120468
      7 C                    -1.685542
      8 C                    -1.266740
      9 C                    -0.046944
     10 C                    -0.067950
     11 C                    -0.041338
     12 C                     1.803688
     13 C                     1.328931
     14 C                    -1.068869
     15 O                    -0.283402
     16 O                    -0.302555
     17 N                    -0.319674
     18 N                    -0.346672
     19 C                    -0.127237
     20 H                     0.190758
     21 H                     0.314207
     22 H                     0.313901
     23 H                     0.188375
     24 H                     0.355748
     25 H                     0.376855
     26 H                     0.283063
     27 H                     0.426356
     28 H                     0.330623
     29 H                     0.223214
     30 H                     0.221404
     31 H                     0.237658
  ----------------------------------------
  Sum of atomic charges =     0.000000

 -----------------------------------------------------------------
                    Cartesian Multipole Moments
 -----------------------------------------------------------------
    Charge (ESU x 10^10)
                 0.0000
    Dipole Moment (Debye)
         X       0.3473      Y       2.9359      Z       3.8428
       Tot       4.8484
    Quadrupole Moments (Debye-Ang)
        XX    -114.7039     XY      -2.5257     YY     -75.0097
        XZ       0.2224     YZ      20.8636     ZZ    -105.1671
    Octopole Moments (Debye-Ang^2)
       XXX     370.8023    XXY    -321.5233    XYY      63.4411
       YYY    -645.6022    XXZ     229.5150    XYZ     -13.7263
       YYZ     264.9021    XZZ     113.4859    YZZ    -373.3747
       ZZZ     644.8847
    Hexadecapole Moments (Debye-Ang^3)
      XXXX   -1198.7237   XXXY    1103.7017   XXYY   -1513.6445
      XYYY     516.0581   YYYY   -5610.5557   XXXZ   -1175.4531
      XXYZ     496.6614   XYYZ    -359.0523   YYYZ    1404.0695
      XXZZ   -1256.5267   XYZZ     465.8647   YYZZ   -2561.0926
      XZZZ   -1004.8982   YZZZ    1797.1456   ZZZZ   -5801.8304
 -----------------------------------------------------------------
 Total job time:  794.45s(wall), 6229.95s(cpu) 
 Sat Feb  3 11:36:39 2024

        *************************************************************
        *                                                           *
        *  Thank you very much for using Q-Chem.  Have a nice day.  *
        *                                                           *
        *************************************************************


