 Entering Gaussian System, Link 0=g16
 Input=195-rad.com
 Output=195-rad.log
 Initial command:
 /sysapps/ubuntu-applications/gaussian/Gaussian/AVX2/g16/l1.exe "/scratch/selhajj1/4261021/Gau-2567223.inp" -scrdir="/scratch/selhajj1/4261021/"
 Entering Link 1 = /sysapps/ubuntu-applications/gaussian/Gaussian/AVX2/g16/l1.exe PID=   2567236.
  
 Copyright (c) 1988,1990,1992,1993,1995,1998,2003,2009,2016,
            Gaussian, Inc.  All Rights Reserved.
  
 This is part of the Gaussian(R) 16 program.  It is based on
 the Gaussian(R) 09 system (copyright 2009, Gaussian, Inc.),
 the Gaussian(R) 03 system (copyright 2003, Gaussian, Inc.),
 the Gaussian(R) 98 system (copyright 1998, Gaussian, Inc.),
 the Gaussian(R) 94 system (copyright 1995, Gaussian, Inc.),
 the Gaussian 92(TM) system (copyright 1992, Gaussian, Inc.),
 the Gaussian 90(TM) system (copyright 1990, Gaussian, Inc.),
 the Gaussian 88(TM) system (copyright 1988, Gaussian, Inc.),
 the Gaussian 86(TM) system (copyright 1986, Carnegie Mellon
 University), and the Gaussian 82(TM) system (copyright 1983,
 Carnegie Mellon University). Gaussian is a federally registered
 trademark of Gaussian, Inc.
  
 This software contains proprietary and confidential information,
 including trade secrets, belonging to Gaussian, Inc.
  
 This software is provided under written license and may be
 used, copied, transmitted, or stored only in accord with that
 written license.
  
 The following legend is applicable only to US Government
 contracts under FAR:
  
                    RESTRICTED RIGHTS LEGEND
  
 Use, reproduction and disclosure by the US Government is
 subject to restrictions as set forth in subparagraphs (a)
 and (c) of the Commercial Computer Software - Restricted
 Rights clause in FAR 52.227-19.
  
 Gaussian, Inc.
 340 Quinnipiac St., Bldg. 40, Wallingford CT 06492
  
  
 ---------------------------------------------------------------
 Warning -- This program may not be used in any manner that
 competes with the business of Gaussian, Inc. or will provide
 assistance to any competitor of Gaussian, Inc.  The licensee
 of this program is prohibited from giving any competitor of
 Gaussian, Inc. access to this program.  By using this program,
 the user acknowledges that Gaussian, Inc. is engaged in the
 business of creating and licensing software in the field of
 computational chemistry and represents and warrants to the
 licensee that it is not a competitor of Gaussian, Inc. and that
 it will not use this program in any manner prohibited above.
 ---------------------------------------------------------------
  

 Cite this work as:
 Gaussian 16, Revision A.03,
 M. J. Frisch, G. W. Trucks, H. B. Schlegel, G. E. Scuseria, 
 M. A. Robb, J. R. Cheeseman, G. Scalmani, V. Barone, 
 G. A. Petersson, H. Nakatsuji, X. Li, M. Caricato, A. V. Marenich, 
 J. Bloino, B. G. Janesko, R. Gomperts, B. Mennucci, H. P. Hratchian, 
 J. V. Ortiz, A. F. Izmaylov, J. L. Sonnenberg, D. Williams-Young, 
 F. Ding, F. Lipparini, F. Egidi, J. Goings, B. Peng, A. Petrone, 
 T. Henderson, D. Ranasinghe, V. G. Zakrzewski, J. Gao, N. Rega, 
 G. Zheng, W. Liang, M. Hada, M. Ehara, K. Toyota, R. Fukuda, 
 J. Hasegawa, M. Ishida, T. Nakajima, Y. Honda, O. Kitao, H. Nakai, 
 T. Vreven, K. Throssell, J. A. Montgomery, Jr., J. E. Peralta, 
 F. Ogliaro, M. J. Bearpark, J. J. Heyd, E. N. Brothers, K. N. Kudin, 
 V. N. Staroverov, T. A. Keith, R. Kobayashi, J. Normand, 
 K. Raghavachari, A. P. Rendell, J. C. Burant, S. S. Iyengar, 
 J. Tomasi, M. Cossi, J. M. Millam, M. Klene, C. Adamo, R. Cammi, 
 J. W. Ochterski, R. L. Martin, K. Morokuma, O. Farkas, 
 J. B. Foresman, and D. J. Fox, Gaussian, Inc., Wallingford CT, 2016.
 
 ******************************************
 Gaussian 16:  ES64L-G16RevA.03 25-Dec-2016
                 7-Jan-2024 
 ******************************************
 %chk=195-rad.chk
 %nproc=8
 Will use up to    8 processors via shared memory.
 %mem=30GB
 --------------------------------------
 #P UB3LYP/6-311++G(d,p) nosym opt freq
 --------------------------------------
 1/18=20,19=15,26=3,38=1/1,3;
 2/9=110,12=2,15=1,17=6,18=5,40=1/2;
 3/5=4,6=6,7=1111,11=2,25=1,30=1,71=1,74=-5,116=2/1,2,3;
 4//1;
 5/5=2,38=5/2;
 6/7=2,8=2,9=2,10=2,28=1/1;
 7/30=1/1,2,3,16;
 1/18=20,19=15,26=3/3(2);
 2/9=110,15=1/2;
 99//99;
 2/9=110,15=1/2;
 3/5=4,6=6,7=1111,11=2,25=1,30=1,71=1,74=-5,116=2/1,2,3;
 4/5=5,16=3,69=1/1;
 5/5=2,38=5/2;
 7/30=1/1,2,3,16;
 1/18=20,19=15,26=3/3(-5);
 2/9=110,15=1/2;
 6/7=2,8=2,9=2,10=2,19=2,28=1/1;
 99/9=1/99;
 Leave Link    1 at Sun Jan  7 04:55:25 2024, MaxMem=  4026531840 cpu:               2.9 elap:               0.5
 (Enter /sysapps/ubuntu-applications/gaussian/Gaussian/AVX2/g16/l101.exe)
 -------
 Radical
 -------
 Symbolic Z-matrix:
 Charge = -1 Multiplicity = 2
 C                     4.79251  -3.04212   0.31727 
 C                     5.70209  -2.24346  -0.34675 
 C                     5.27216  -1.05547  -0.97451 
 C                     3.42822  -2.68671   0.37884 
 C                     2.99479  -1.49061  -0.25338 
 C                     3.94174  -0.68954  -0.92617 
 C                     2.48932  -3.5448    1.08544 
 C                     1.10154  -3.13973   1.11864 
 C                     0.66385  -1.93477   0.48376 
 C                     1.59674  -1.07997  -0.21781 
 C                     0.16357  -3.96481   1.80462 
 C                    -1.17696  -3.57213   1.83648 
 C                    -0.7133   -1.57212   0.55087 
 C                    -1.61414  -2.38432   1.22135 
 O                     2.88406  -4.61859   1.65429 
 O                     1.21738  -0.00413  -0.7859 
 O                     0.5687   -5.08416   2.42017 
 H                     5.09704  -3.95915   0.80696 
 H                     6.74854  -2.52865  -0.38681 
 H                     5.98923  -0.42936  -1.49598 
 H                     1.56891  -5.13434   2.23318 
 O                    -1.16208  -0.43898  -0.03162 
 H                    -2.65589  -2.10013   1.27227 
 H                    -0.35272  -0.02151  -0.44965 
 H                     3.58654   0.21751  -1.40012 
 S                    -2.41045  -4.59337   2.61661 
 O                    -3.65745  -3.83957   2.6587 
 O                    -2.41499  -5.95225   2.0796 
 O                    -1.90117  -4.67406   4.18397 
 C                    -1.41637  -5.93607   4.69109 
 H                    -0.57051  -6.28446   4.10162 
 H                    -2.21545  -6.67945   4.69731 
 H                    -1.10377  -5.71311   5.71128 
 
 ITRead=  0  0  0  0  0  0  0  0  0  0  0  0  0  0  0  0  0  0  0  0
 ITRead=  0  0  0  0  0  0  0  0  0  0  0  0  0
 MicOpt= -1 -1 -1 -1 -1 -1 -1 -1 -1 -1 -1 -1 -1 -1 -1 -1 -1 -1 -1 -1
 MicOpt= -1 -1 -1 -1 -1 -1 -1 -1 -1 -1 -1 -1 -1
 NAtoms=     33 NQM=       33 NQMF=       0 NMMI=      0 NMMIF=      0
                NMic=       0 NMicF=      0.
                    Isotopes and Nuclear Properties:
 (Nuclear quadrupole moments (NQMom) in fm**2, nuclear magnetic moments (NMagM)
  in nuclear magnetons)

  Atom         1           2           3           4           5           6           7           8           9          10
 IAtWgt=          12          12          12          12          12          12          12          12          12          12
 AtmWgt=  12.0000000  12.0000000  12.0000000  12.0000000  12.0000000  12.0000000  12.0000000  12.0000000  12.0000000  12.0000000
 NucSpn=           0           0           0           0           0           0           0           0           0           0
 AtZEff=  -0.0000000  -0.0000000  -0.0000000  -0.0000000  -0.0000000  -0.0000000  -0.0000000  -0.0000000  -0.0000000  -0.0000000
 NQMom=    0.0000000   0.0000000   0.0000000   0.0000000   0.0000000   0.0000000   0.0000000   0.0000000   0.0000000   0.0000000
 NMagM=    0.0000000   0.0000000   0.0000000   0.0000000   0.0000000   0.0000000   0.0000000   0.0000000   0.0000000   0.0000000
 AtZNuc=   6.0000000   6.0000000   6.0000000   6.0000000   6.0000000   6.0000000   6.0000000   6.0000000   6.0000000   6.0000000

  Atom        11          12          13          14          15          16          17          18          19          20
 IAtWgt=          12          12          12          12          16          16          16           1           1           1
 AtmWgt=  12.0000000  12.0000000  12.0000000  12.0000000  15.9949146  15.9949146  15.9949146   1.0078250   1.0078250   1.0078250
 NucSpn=           0           0           0           0           0           0           0           1           1           1
 AtZEff=  -0.0000000  -0.0000000  -0.0000000  -0.0000000  -0.0000000  -0.0000000  -0.0000000  -0.0000000  -0.0000000  -0.0000000
 NQMom=    0.0000000   0.0000000   0.0000000   0.0000000   0.0000000   0.0000000   0.0000000   0.0000000   0.0000000   0.0000000
 NMagM=    0.0000000   0.0000000   0.0000000   0.0000000   0.0000000   0.0000000   0.0000000   2.7928460   2.7928460   2.7928460
 AtZNuc=   6.0000000   6.0000000   6.0000000   6.0000000   8.0000000   8.0000000   8.0000000   1.0000000   1.0000000   1.0000000

  Atom        21          22          23          24          25          26          27          28          29          30
 IAtWgt=           1          16           1           1           1          32          16          16          16          12
 AtmWgt=   1.0078250  15.9949146   1.0078250   1.0078250   1.0078250  31.9720718  15.9949146  15.9949146  15.9949146  12.0000000
 NucSpn=           1           0           1           1           1           0           0           0           0           0
 AtZEff=  -0.0000000  -0.0000000  -0.0000000  -0.0000000  -0.0000000  -0.0000000  -0.0000000  -0.0000000  -0.0000000  -0.0000000
 NQMom=    0.0000000   0.0000000   0.0000000   0.0000000   0.0000000   0.0000000   0.0000000   0.0000000   0.0000000   0.0000000
 NMagM=    2.7928460   0.0000000   2.7928460   2.7928460   2.7928460   0.0000000   0.0000000   0.0000000   0.0000000   0.0000000
 AtZNuc=   1.0000000   8.0000000   1.0000000   1.0000000   1.0000000  16.0000000   8.0000000   8.0000000   8.0000000   6.0000000

  Atom        31          32          33
 IAtWgt=           1           1           1
 AtmWgt=   1.0078250   1.0078250   1.0078250
 NucSpn=           1           1           1
 AtZEff=  -0.0000000  -0.0000000  -0.0000000
 NQMom=    0.0000000   0.0000000   0.0000000
 NMagM=    2.7928460   2.7928460   2.7928460
 AtZNuc=   1.0000000   1.0000000   1.0000000
 Leave Link  101 at Sun Jan  7 04:55:26 2024, MaxMem=  4026531840 cpu:               5.0 elap:               0.9
 (Enter /sysapps/ubuntu-applications/gaussian/Gaussian/AVX2/g16/l103.exe)

 GradGradGradGradGradGradGradGradGradGradGradGradGradGradGradGradGradGrad
 Berny optimization.
 Initialization pass.
                           ----------------------------
                           !    Initial Parameters    !
                           ! (Angstroms and Degrees)  !
 --------------------------                            --------------------------
 ! Name  Definition              Value          Derivative Info.                !
 --------------------------------------------------------------------------------
 ! R1    R(1,2)                  1.3806         estimate D2E/DX2                !
 ! R2    R(1,4)                  1.4112         estimate D2E/DX2                !
 ! R3    R(1,18)                 1.0833         estimate D2E/DX2                !
 ! R4    R(2,3)                  1.4108         estimate D2E/DX2                !
 ! R5    R(2,19)                 1.0854         estimate D2E/DX2                !
 ! R6    R(3,6)                  1.3807         estimate D2E/DX2                !
 ! R7    R(3,20)                 1.0854         estimate D2E/DX2                !
 ! R8    R(4,5)                  1.4206         estimate D2E/DX2                !
 ! R9    R(4,7)                  1.455          estimate D2E/DX2                !
 ! R10   R(5,6)                  1.4111         estimate D2E/DX2                !
 ! R11   R(5,10)                 1.4575         estimate D2E/DX2                !
 ! R12   R(6,25)                 1.0833         estimate D2E/DX2                !
 ! R13   R(7,8)                  1.4461         estimate D2E/DX2                !
 ! R14   R(7,15)                 1.2777         estimate D2E/DX2                !
 ! R15   R(8,9)                  1.4306         estimate D2E/DX2                !
 ! R16   R(8,11)                 1.4252         estimate D2E/DX2                !
 ! R17   R(9,10)                 1.4468         estimate D2E/DX2                !
 ! R18   R(9,13)                 1.4257         estimate D2E/DX2                !
 ! R19   R(10,16)                1.2744         estimate D2E/DX2                !
 ! R20   R(11,12)                1.3972         estimate D2E/DX2                !
 ! R21   R(11,17)                1.3401         estimate D2E/DX2                !
 ! R22   R(12,14)                1.4073         estimate D2E/DX2                !
 ! R23   R(12,26)                1.7813         estimate D2E/DX2                !
 ! R24   R(13,14)                1.3859         estimate D2E/DX2                !
 ! R25   R(13,22)                1.3508         estimate D2E/DX2                !
 ! R26   R(14,23)                1.081          estimate D2E/DX2                !
 ! R27   R(17,21)                1.0188         estimate D2E/DX2                !
 ! R28   R(22,24)                1.002          estimate D2E/DX2                !
 ! R29   R(26,27)                1.4577         estimate D2E/DX2                !
 ! R30   R(26,28)                1.4612         estimate D2E/DX2                !
 ! R31   R(26,29)                1.65           estimate D2E/DX2                !
 ! R32   R(29,30)                1.4439         estimate D2E/DX2                !
 ! R33   R(30,31)                1.0883         estimate D2E/DX2                !
 ! R34   R(30,32)                1.0914         estimate D2E/DX2                !
 ! R35   R(30,33)                1.0901         estimate D2E/DX2                !
 ! A1    A(2,1,4)              120.812          estimate D2E/DX2                !
 ! A2    A(2,1,18)             121.4606         estimate D2E/DX2                !
 ! A3    A(4,1,18)             117.7274         estimate D2E/DX2                !
 ! A4    A(1,2,3)              120.0249         estimate D2E/DX2                !
 ! A5    A(1,2,19)             120.0629         estimate D2E/DX2                !
 ! A6    A(3,2,19)             119.9122         estimate D2E/DX2                !
 ! A7    A(2,3,6)              120.0839         estimate D2E/DX2                !
 ! A8    A(2,3,20)             119.8811         estimate D2E/DX2                !
 ! A9    A(6,3,20)             120.035          estimate D2E/DX2                !
 ! A10   A(1,4,5)              119.1824         estimate D2E/DX2                !
 ! A11   A(1,4,7)              119.7687         estimate D2E/DX2                !
 ! A12   A(5,4,7)              121.0489         estimate D2E/DX2                !
 ! A13   A(4,5,6)              119.0401         estimate D2E/DX2                !
 ! A14   A(4,5,10)             121.2641         estimate D2E/DX2                !
 ! A15   A(6,5,10)             119.6958         estimate D2E/DX2                !
 ! A16   A(3,6,5)              120.8567         estimate D2E/DX2                !
 ! A17   A(3,6,25)             121.5035         estimate D2E/DX2                !
 ! A18   A(5,6,25)             117.6398         estimate D2E/DX2                !
 ! A19   A(4,7,8)              117.7245         estimate D2E/DX2                !
 ! A20   A(4,7,15)             120.8294         estimate D2E/DX2                !
 ! A21   A(8,7,15)             121.4461         estimate D2E/DX2                !
 ! A22   A(7,8,9)              121.29           estimate D2E/DX2                !
 ! A23   A(7,8,11)             118.718          estimate D2E/DX2                !
 ! A24   A(9,8,11)             119.9916         estimate D2E/DX2                !
 ! A25   A(8,9,10)             121.0355         estimate D2E/DX2                !
 ! A26   A(8,9,13)             119.2685         estimate D2E/DX2                !
 ! A27   A(10,9,13)            119.6955         estimate D2E/DX2                !
 ! A28   A(5,10,9)             117.6368         estimate D2E/DX2                !
 ! A29   A(5,10,16)            120.8297         estimate D2E/DX2                !
 ! A30   A(9,10,16)            121.5335         estimate D2E/DX2                !
 ! A31   A(8,11,12)            118.6666         estimate D2E/DX2                !
 ! A32   A(8,11,17)            120.3763         estimate D2E/DX2                !
 ! A33   A(12,11,17)           120.951          estimate D2E/DX2                !
 ! A34   A(11,12,14)           121.6882         estimate D2E/DX2                !
 ! A35   A(11,12,26)           120.879          estimate D2E/DX2                !
 ! A36   A(14,12,26)           117.4018         estimate D2E/DX2                !
 ! A37   A(9,13,14)            120.1043         estimate D2E/DX2                !
 ! A38   A(9,13,22)            120.9311         estimate D2E/DX2                !
 ! A39   A(14,13,22)           118.9645         estimate D2E/DX2                !
 ! A40   A(12,14,13)           120.278          estimate D2E/DX2                !
 ! A41   A(12,14,23)           120.0444         estimate D2E/DX2                !
 ! A42   A(13,14,23)           119.6775         estimate D2E/DX2                !
 ! A43   A(11,17,21)           104.6923         estimate D2E/DX2                !
 ! A44   A(13,22,24)           105.131          estimate D2E/DX2                !
 ! A45   A(12,26,27)           107.9714         estimate D2E/DX2                !
 ! A46   A(12,26,28)           111.986          estimate D2E/DX2                !
 ! A47   A(12,26,29)           103.3161         estimate D2E/DX2                !
 ! A48   A(27,26,28)           119.2658         estimate D2E/DX2                !
 ! A49   A(27,26,29)           105.1824         estimate D2E/DX2                !
 ! A50   A(28,26,29)           107.734          estimate D2E/DX2                !
 ! A51   A(26,29,30)           118.6849         estimate D2E/DX2                !
 ! A52   A(29,30,31)           110.5201         estimate D2E/DX2                !
 ! A53   A(29,30,32)           110.5782         estimate D2E/DX2                !
 ! A54   A(29,30,33)           104.2535         estimate D2E/DX2                !
 ! A55   A(31,30,32)           110.7393         estimate D2E/DX2                !
 ! A56   A(31,30,33)           110.4583         estimate D2E/DX2                !
 ! A57   A(32,30,33)           110.1171         estimate D2E/DX2                !
 ! D1    D(4,1,2,3)              0.0044         estimate D2E/DX2                !
 ! D2    D(4,1,2,19)          -179.9793         estimate D2E/DX2                !
 ! D3    D(18,1,2,3)           179.9789         estimate D2E/DX2                !
 ! D4    D(18,1,2,19)           -0.0048         estimate D2E/DX2                !
 ! D5    D(2,1,4,5)              0.0072         estimate D2E/DX2                !
 ! D6    D(2,1,4,7)           -179.9655         estimate D2E/DX2                !
 ! D7    D(18,1,4,5)          -179.9682         estimate D2E/DX2                !
 ! D8    D(18,1,4,7)             0.0591         estimate D2E/DX2                !
 ! D9    D(1,2,3,6)             -0.0072         estimate D2E/DX2                !
 ! D10   D(1,2,3,20)          -179.9947         estimate D2E/DX2                !
 ! D11   D(19,2,3,6)           179.9765         estimate D2E/DX2                !
 ! D12   D(19,2,3,20)           -0.011          estimate D2E/DX2                !
 ! D13   D(2,3,6,5)             -0.0018         estimate D2E/DX2                !
 ! D14   D(2,3,6,25)          -179.9956         estimate D2E/DX2                !
 ! D15   D(20,3,6,5)           179.9856         estimate D2E/DX2                !
 ! D16   D(20,3,6,25)           -0.0082         estimate D2E/DX2                !
 ! D17   D(1,4,5,6)             -0.0159         estimate D2E/DX2                !
 ! D18   D(1,4,5,10)          -179.984          estimate D2E/DX2                !
 ! D19   D(7,4,5,6)            179.9564         estimate D2E/DX2                !
 ! D20   D(7,4,5,10)            -0.0116         estimate D2E/DX2                !
 ! D21   D(1,4,7,8)           -179.8791         estimate D2E/DX2                !
 ! D22   D(1,4,7,15)             0.0784         estimate D2E/DX2                !
 ! D23   D(5,4,7,8)              0.1487         estimate D2E/DX2                !
 ! D24   D(5,4,7,15)          -179.8938         estimate D2E/DX2                !
 ! D25   D(4,5,6,3)              0.0134         estimate D2E/DX2                !
 ! D26   D(4,5,6,25)          -179.9926         estimate D2E/DX2                !
 ! D27   D(10,5,6,3)           179.9819         estimate D2E/DX2                !
 ! D28   D(10,5,6,25)           -0.0241         estimate D2E/DX2                !
 ! D29   D(4,5,10,9)            -0.0578         estimate D2E/DX2                !
 ! D30   D(4,5,10,16)          179.881          estimate D2E/DX2                !
 ! D31   D(6,5,10,9)           179.9744         estimate D2E/DX2                !
 ! D32   D(6,5,10,16)           -0.0868         estimate D2E/DX2                !
 ! D33   D(4,7,8,9)             -0.2208         estimate D2E/DX2                !
 ! D34   D(4,7,8,11)           179.9809         estimate D2E/DX2                !
 ! D35   D(15,7,8,9)           179.822          estimate D2E/DX2                !
 ! D36   D(15,7,8,11)            0.0236         estimate D2E/DX2                !
 ! D37   D(7,8,9,10)             0.1567         estimate D2E/DX2                !
 ! D38   D(7,8,9,13)          -179.5868         estimate D2E/DX2                !
 ! D39   D(11,8,9,10)          179.9525         estimate D2E/DX2                !
 ! D40   D(11,8,9,13)            0.209          estimate D2E/DX2                !
 ! D41   D(7,8,11,12)          179.9746         estimate D2E/DX2                !
 ! D42   D(7,8,11,17)            0.8679         estimate D2E/DX2                !
 ! D43   D(9,8,11,12)            0.1735         estimate D2E/DX2                !
 ! D44   D(9,8,11,17)         -178.9332         estimate D2E/DX2                !
 ! D45   D(8,9,10,5)            -0.0138         estimate D2E/DX2                !
 ! D46   D(8,9,10,16)         -179.9522         estimate D2E/DX2                !
 ! D47   D(13,9,10,5)          179.7286         estimate D2E/DX2                !
 ! D48   D(13,9,10,16)          -0.2098         estimate D2E/DX2                !
 ! D49   D(8,9,13,14)           -0.2166         estimate D2E/DX2                !
 ! D50   D(8,9,13,22)          179.7145         estimate D2E/DX2                !
 ! D51   D(10,9,13,14)        -179.9636         estimate D2E/DX2                !
 ! D52   D(10,9,13,22)          -0.0325         estimate D2E/DX2                !
 ! D53   D(8,11,12,14)          -0.5633         estimate D2E/DX2                !
 ! D54   D(8,11,12,26)         177.3591         estimate D2E/DX2                !
 ! D55   D(17,11,12,14)        178.538          estimate D2E/DX2                !
 ! D56   D(17,11,12,26)         -3.5395         estimate D2E/DX2                !
 ! D57   D(8,11,17,21)          -1.4736         estimate D2E/DX2                !
 ! D58   D(12,11,17,21)        179.4404         estimate D2E/DX2                !
 ! D59   D(11,12,14,13)          0.5649         estimate D2E/DX2                !
 ! D60   D(11,12,14,23)       -179.2838         estimate D2E/DX2                !
 ! D61   D(26,12,14,13)       -177.4267         estimate D2E/DX2                !
 ! D62   D(26,12,14,23)          2.7245         estimate D2E/DX2                !
 ! D63   D(11,12,26,27)        171.9635         estimate D2E/DX2                !
 ! D64   D(11,12,26,28)        -54.7847         estimate D2E/DX2                !
 ! D65   D(11,12,26,29)         60.8813         estimate D2E/DX2                !
 ! D66   D(14,12,26,27)        -10.0277         estimate D2E/DX2                !
 ! D67   D(14,12,26,28)        123.2241         estimate D2E/DX2                !
 ! D68   D(14,12,26,29)       -121.1099         estimate D2E/DX2                !
 ! D69   D(9,13,14,12)          -0.161          estimate D2E/DX2                !
 ! D70   D(9,13,14,23)         179.6884         estimate D2E/DX2                !
 ! D71   D(22,13,14,12)        179.9066         estimate D2E/DX2                !
 ! D72   D(22,13,14,23)         -0.2441         estimate D2E/DX2                !
 ! D73   D(9,13,22,24)           0.1554         estimate D2E/DX2                !
 ! D74   D(14,13,22,24)       -179.9128         estimate D2E/DX2                !
 ! D75   D(12,26,29,30)       -111.4262         estimate D2E/DX2                !
 ! D76   D(27,26,29,30)        135.4473         estimate D2E/DX2                !
 ! D77   D(28,26,29,30)          7.2337         estimate D2E/DX2                !
 ! D78   D(26,29,30,31)         58.6687         estimate D2E/DX2                !
 ! D79   D(26,29,30,32)        -64.315          estimate D2E/DX2                !
 ! D80   D(26,29,30,33)        177.3632         estimate D2E/DX2                !
 --------------------------------------------------------------------------------
 Trust Radius=3.00D-01 FncErr=1.00D-07 GrdErr=1.00D-06 EigMax=2.50D+02 EigMin=1.00D-04
 Number of steps in this run=    182 maximum allowed number of steps=    198.
 GradGradGradGradGradGradGradGradGradGradGradGradGradGradGradGradGradGrad

 Leave Link  103 at Sun Jan  7 04:55:27 2024, MaxMem=  4026531840 cpu:               0.4 elap:               0.1
 (Enter /sysapps/ubuntu-applications/gaussian/Gaussian/AVX2/g16/l202.exe)
                          Input orientation:                          
 ---------------------------------------------------------------------
 Center     Atomic      Atomic             Coordinates (Angstroms)
 Number     Number       Type             X           Y           Z
 ---------------------------------------------------------------------
      1          6           0        4.792511   -3.042117    0.317274
      2          6           0        5.702086   -2.243460   -0.346752
      3          6           0        5.272160   -1.055471   -0.974505
      4          6           0        3.428219   -2.686706    0.378844
      5          6           0        2.994788   -1.490607   -0.253377
      6          6           0        3.941736   -0.689537   -0.926170
      7          6           0        2.489317   -3.544797    1.085442
      8          6           0        1.101542   -3.139729    1.118644
      9          6           0        0.663849   -1.934773    0.483764
     10          6           0        1.596738   -1.079973   -0.217808
     11          6           0        0.163570   -3.964812    1.804615
     12          6           0       -1.176963   -3.572127    1.836483
     13          6           0       -0.713298   -1.572121    0.550872
     14          6           0       -1.614135   -2.384318    1.221351
     15          8           0        2.884056   -4.618592    1.654287
     16          8           0        1.217375   -0.004125   -0.785898
     17          8           0        0.568702   -5.084159    2.420174
     18          1           0        5.097043   -3.959147    0.806964
     19          1           0        6.748544   -2.528653   -0.386813
     20          1           0        5.989233   -0.429363   -1.495982
     21          1           0        1.568905   -5.134342    2.233175
     22          8           0       -1.162084   -0.438981   -0.031616
     23          1           0       -2.655892   -2.100130    1.272273
     24          1           0       -0.352723   -0.021511   -0.449649
     25          1           0        3.586542    0.217512   -1.400119
     26         16           0       -2.410446   -4.593371    2.616607
     27          8           0       -3.657448   -3.839574    2.658696
     28          8           0       -2.414985   -5.952254    2.079597
     29          8           0       -1.901168   -4.674058    4.183973
     30          6           0       -1.416368   -5.936073    4.691089
     31          1           0       -0.570507   -6.284463    4.101624
     32          1           0       -2.215455   -6.679446    4.697312
     33          1           0       -1.103772   -5.713113    5.711280
 ---------------------------------------------------------------------
                    Distance matrix (angstroms):
                    1          2          3          4          5
     1  C    0.000000
     2  C    1.380620   0.000000
     3  C    2.417751   1.410754   0.000000
     4  C    1.411170   2.427638   2.809377   0.000000
     5  C    2.442260   2.811578   2.428125   1.420640   0.000000
     6  C    2.793672   2.418519   1.380678   2.440378   1.411054
     7  C    2.479410   3.750539   4.264310   1.455039   2.503524
     8  C    3.778224   4.910773   5.110720   2.483135   2.861193
     9  C    4.277824   5.115552   4.912866   2.866732   2.484741
    10  C    3.788045   4.268982   3.752588   2.508367   1.457542
    11  C    4.948802   6.186000   6.502727   3.784747   4.286352
    12  C    6.182518   7.338473   7.471707   4.910843   5.109183
    13  C    5.703454   6.512571   6.198339   4.292325   3.795176
    14  C    6.503474   7.483707   7.349060   5.121190   4.920946
    15  O    2.813375   4.193650   5.030847   2.378035   3.665479
    16  O    4.819542   5.031909   4.193111   3.666155   2.377479
    17  O    5.141273   6.486685   7.062343   4.253428   5.093857
    18  H    1.083273   2.154233   3.411104   2.141814   3.411376
    19  H    2.141366   1.085364   2.166877   3.411124   3.896926
    20  H    3.398018   2.166594   1.085423   3.894787   3.411306
    21  H    4.294149   5.665369   6.374990   3.589779   4.636042
    22  O    6.508091   7.104385   6.532120   5.127536   4.293563
    23  H    7.568228   8.514551   8.306223   6.177272   5.884667
    24  H    6.015452   6.450454   5.743157   4.699488   3.660956
    25  H    3.876723   3.411963   2.154748   3.409437   2.140762
    26  S    7.718543   8.950796   9.188866   6.537045   6.861524
    27  O    8.804544   9.958975  10.034405   7.532165   7.632173
    28  O    7.970112   9.248198   9.612399   6.906475   7.390176
    29  O    7.900629   9.178494   9.547811   6.843314   7.334495
    30  C    8.127448   9.470355  10.032728   7.254231   7.979236
    31  H    7.320934   8.686954   9.340567   6.541617   7.393133
    32  H    9.029202  10.383064  10.948195   8.151208   8.864536
    33  H    8.425893   9.749766  10.346297   7.624497   8.378835
                    6          7          8          9         10
     6  C    0.000000
     7  C    3.782673   0.000000
     8  C    4.272167   1.446064   0.000000
     9  C    3.779295   2.507295   1.430583   0.000000
    10  C    2.480571   2.927544   2.504779   1.446779   0.000000
    11  C    5.697293   2.470369   1.425170   2.473052   3.803480
    12  C    6.491738   3.742515   2.427724   2.810581   4.257271
    13  C    4.962857   3.799205   2.464428   1.425677   2.483817
    14  C    6.192886   4.266556   2.820655   2.436255   3.752626
    15  O    4.818186   1.277669   2.377247   3.674551   4.205205
    16  O    2.812758   4.201917   3.670519   2.376096   1.274398
    17  O    6.472100   2.799983   2.399731   3.698293   4.904010
    18  H    3.876704   2.655084   4.090552   4.884236   4.646712
    19  H    3.398739   4.619643   5.876091   6.175282   5.354283
    20  H    2.141173   5.349681   6.170241   5.877531   4.620718
    21  H    5.947107   2.165895   2.332185   3.757234   4.737721
    22  O    5.187676   4.922057   3.706904   2.415997   2.838422
    23  H    7.095888   5.347443   3.901625   3.416104   4.620165
    24  H    4.372152   4.779879   3.781232   2.359078   2.230357
    25  H    1.083295   4.640785   4.877546   4.089435   2.653422
    26  S    8.254781   5.239432   4.085465   4.590038   6.036174
    27  O    8.973383   6.351751   5.050696   5.199250   6.595161
    28  O    8.782866   5.553051   4.604312   5.307170   6.716481
    29  O    8.725222   5.491128   4.557047   5.270156   6.672966
    30  C    9.369579   5.828659   5.188620   6.167600   7.533776
    31  H    8.771673   5.095650   4.645780   5.790712   7.102194
    32  H   10.267111   6.708689   6.028178   6.968235   8.369308
    33  H    9.733921   6.245819   5.707716   6.687844   7.994550
                   11         12         13         14         15
    11  C    0.000000
    12  C    1.397228   0.000000
    13  C    2.840025   2.422355   0.000000
    14  C    2.449162   1.407266   1.385898   0.000000
    15  O    2.801976   4.197637   4.841432   5.041144   0.000000
    16  O    4.848536   5.033922   2.823661   4.208541   5.479565
    17  O    1.340143   2.382075   4.179979   3.673023   2.482781
    18  H    5.033338   6.369682   6.286775   6.905919   2.459702
    19  H    7.087086   8.297322   7.581114   8.517125   4.844399
    20  H    7.571769   8.505096   7.100664   8.307644   6.092287
    21  H    1.877879   3.183971   4.552803   4.326449   1.526673
    22  O    4.190535   3.647824   1.350817   2.357671   6.056622
    23  H    3.421957   2.161559   2.138430   1.081024   6.097508
    24  H    4.571421   4.302632   1.880279   3.156938   6.003036
    25  H    6.283223   6.894051   5.049532   6.378767   5.762880
    26  S    2.771277   1.781295   4.034293   2.731440   5.381305
    27  O    3.917310   2.626855   4.272269   2.891169   6.663856
    28  O    3.267183   2.693846   4.941488   3.756077   5.480819
    29  O    3.229167   2.692477   4.922649   3.755320   5.413017
    30  C    3.835858   3.714072   6.056384   4.969221   5.426930
    31  H    3.346028   3.585445   5.902067   4.959462   4.549570
    32  H    4.625656   4.349510   6.747904   5.558059   6.285868
    33  H    4.463714   4.427553   6.627978   5.612558   5.793094
                   16         17         18         19         20
    16  O    0.000000
    17  O    6.042054   0.000000
    18  H    5.764654   4.937000   0.000000
    19  H    6.093139   7.252602   2.489753   0.000000
    20  H    4.843106   8.147733   4.308009   2.492755   0.000000
    21  H    5.963011   1.018770   3.982828   6.362595   7.455383
    22  O    2.533745   5.530332   7.229900   8.189684   7.299712
    23  H    4.861224   4.540937   7.986267   9.559269   9.229999
    24  H    1.605794   5.891970   6.839883   7.531116   6.440618
    25  H    2.457507   7.197896   4.959567   4.308882   2.490093
    26  S    6.767518   3.025687   7.748512   9.857519  10.237527
    27  O    7.095054   4.412055   8.948984  10.921461  11.043068
    28  O    7.535605   3.126015   7.875445  10.088334  10.673236
    29  O    7.498880   3.062585   7.803220  10.015606  10.608381
    30  C    8.492467   3.134217   7.837039  10.201048  11.110654
    31  H    8.156411   2.359195   6.955789   9.371269  10.423319
    32  H    9.295688   3.934695   8.718226  11.109936  12.030683
    33  H    8.955087   3.744881   8.098075  10.439655  11.409354
                   21         22         23         24         25
    21  H    0.000000
    22  O    5.885065   0.000000
    23  H    5.289488   2.586698   0.000000
    24  H    6.085330   1.002047   3.548276   0.000000
    25  H    6.775989   4.985302   7.175035   4.059351   0.000000
    26  S    4.034217   5.082366   2.843190   5.876909   8.674246
    27  O    5.401135   5.002864   2.439457   5.929639   9.241716
    28  O    4.069883   6.035160   3.943180   6.769322   9.284006
    29  O    4.007353   6.021072   3.958877   6.746431   9.231712
    30  C    3.949173   7.251663   5.285753   7.908260   9.999927
    31  H    3.064468   7.183543   5.464678   7.745068   9.477653
    32  H    4.772913   7.900364   5.735417   8.619111  10.881630
    33  H    4.424409   7.797482   5.930220   8.421131  10.379950
                   26         27         28         29         30
    26  S    0.000000
    27  O    1.457736   0.000000
    28  O    1.461151   2.518429   0.000000
    29  O    1.650003   2.471306   2.515192   0.000000
    30  C    2.663553   3.680811   2.795959   1.443911   0.000000
    31  H    2.906965   4.193892   2.757001   2.090656   1.088267
    32  H    2.952806   3.781557   2.724161   2.093770   1.091413
    33  H    3.540935   4.398827   3.868538   2.012000   1.090054
                   31         32         33
    31  H    0.000000
    32  H    1.793519   0.000000
    33  H    1.789359   1.788231   0.000000
 Symmetry turned off by external request.
 Stoichiometry    C15H10O7S(1-,2)
 Framework group  C1[X(C15H10O7S)]
 Deg. of freedom    93
 Full point group                 C1      NOp   1
 Rotational constants (GHZ):           0.5234520           0.1507361           0.1208588
 Leave Link  202 at Sun Jan  7 04:55:27 2024, MaxMem=  4026531840 cpu:               0.4 elap:               0.2
 (Enter /sysapps/ubuntu-applications/gaussian/Gaussian/AVX2/g16/l301.exe)
 Standard basis: 6-311++G(d,p) (5D, 7F)
 Ernie: Thresh=  0.10000D-02 Tol=  0.10000D-05 Strict=F.
   584 basis functions,   932 primitive gaussians,   607 cartesian basis functions
    87 alpha electrons       86 beta electrons
       nuclear repulsion energy      2099.3270911942 Hartrees.
 IExCor=  402 DFT=T Ex+Corr=B3LYP ExCW=0 ScaHFX=  0.200000
 ScaDFX=  0.800000  0.720000  1.000000  0.810000 ScalE2=  1.000000  1.000000
 IRadAn=      5 IRanWt=     -1 IRanGd=            0 ICorTp=0 IEmpDi=  4
 NAtoms=   33 NActive=   33 NUniq=   33 SFac= 1.00D+00 NAtFMM=   60 NAOKFM=F Big=F
 Integral buffers will be    131072 words long.
 Raffenetti 2 integral format.
 Two-electron integral symmetry is turned off.
 Leave Link  301 at Sun Jan  7 04:55:27 2024, MaxMem=  4026531840 cpu:               0.5 elap:               0.2
 (Enter /sysapps/ubuntu-applications/gaussian/Gaussian/AVX2/g16/l302.exe)
 NPDir=0 NMtPBC=     1 NCelOv=     1 NCel=       1 NClECP=     1 NCelD=      1
         NCelK=      1 NCelE2=     1 NClLst=     1 CellRange=     0.0.
 One-electron integrals computed using PRISM.
 NBasis=   584 RedAO= T EigKep=  1.11D-06  NBF=   584
 NBsUse=   575 1.00D-06 EigRej=  9.52D-07 NBFU=   575
 Precomputing XC quadrature grid using
 IXCGrd= 4 IRadAn=           5 IRanWt=          -1 IRanGd=           0 AccXCQ= 0.00D+00.
 Generated NRdTot=       0 NPtTot=           0 NUsed=           0 NTot=          32
 NSgBfM=   602   602   602   602   602 MxSgAt=    33 MxSgA2=    33.
 Leave Link  302 at Sun Jan  7 04:55:29 2024, MaxMem=  4026531840 cpu:               9.1 elap:               1.5
 (Enter /sysapps/ubuntu-applications/gaussian/Gaussian/AVX2/g16/l303.exe)
 DipDrv:  MaxL=1.
 Leave Link  303 at Sun Jan  7 04:55:29 2024, MaxMem=  4026531840 cpu:               1.3 elap:               0.3
 (Enter /sysapps/ubuntu-applications/gaussian/Gaussian/AVX2/g16/l401.exe)
 ExpMin= 3.60D-02 ExpMax= 9.34D+04 ExpMxC= 3.17D+03 IAcc=3 IRadAn=         5 AccDes= 0.00D+00
 Harris functional with IExCor=  402 and IRadAn=       5 diagonalized for initial guess.
 HarFok:  IExCor=  402 AccDes= 0.00D+00 IRadAn=         5 IDoV= 1 UseB2=F ITyADJ=14
 ICtDFT=  3500011 ScaDFX=  1.000000  1.000000  1.000000  1.000000
 FoFCou: FMM=F IPFlag=           0 FMFlag=      100000 FMFlg1=           0
         NFxFlg=           0 DoJE=T BraDBF=F KetDBF=T FulRan=T
         wScrn=  0.000000 ICntrl=       500 IOpCl=  0 I1Cent=   200000004 NGrid=           0
         NMat0=    1 NMatS0=      1 NMatT0=    0 NMatD0=    1 NMtDS0=    0 NMtDT0=    0
 Symmetry not used in FoFCou.
 Harris En= -1502.93760044039    
 JPrj=0 DoOrth=F DoCkMO=F.
 Initial guess <Sx>= 0.0000 <Sy>= 0.0000 <Sz>= 0.5000 <S**2>= 0.7500 S= 0.5000
 Leave Link  401 at Sun Jan  7 04:55:35 2024, MaxMem=  4026531840 cpu:              44.2 elap:               5.7
 (Enter /sysapps/ubuntu-applications/gaussian/Gaussian/AVX2/g16/l502.exe)
 Two-electron integral symmetry not used.
 UHF open shell SCF:
 Using DIIS extrapolation, IDIIS=  1040.
 NGot=  4026531840 LenX=  4025785856 LenY=  4025416800
 Requested convergence on RMS density matrix=1.00D-08 within 128 cycles.
 Requested convergence on MAX density matrix=1.00D-06.
 Requested convergence on             energy=1.00D-06.
 No special actions if energy rises.
 Fock matrices will be formed incrementally for  20 cycles.

 Cycle   1  Pass 1  IDiag  1:
 FoFJK:  IHMeth= 1 ICntrl=       0 DoSepK=F KAlg= 0 I1Cent=           0 FoldK=F
 IRaf= 800000000 NMat=       1 IRICut=       1 DoRegI=T DoRafI=F ISym2E= 0 IDoP0=0 IntGTp=1.
 FoFCou: FMM=F IPFlag=           0 FMFlag=      100000 FMFlg1=           0
         NFxFlg=           0 DoJE=F BraDBF=F KetDBF=F FulRan=T
         wScrn=  0.000000 ICntrl=         0 IOpCl=  1 I1Cent=           0 NGrid=           0
         NMat0=    1 NMatS0=      1 NMatT0=    0 NMatD0=    1 NMtDS0=    0 NMtDT0=    0
 Symmetry not used in FoFCou.
 E= -1502.03802219475    
 DIIS: error= 3.33D-02 at cycle   1 NSaved=   1.
 NSaved= 1 IEnMin= 1 EnMin= -1502.03802219475     IErMin= 1 ErrMin= 3.33D-02
 ErrMax= 3.33D-02  0.00D+00 EMaxC= 1.00D-01 BMatC= 4.02D+00 BMatP= 4.02D+00
 IDIUse=3 WtCom= 6.67D-01 WtEn= 3.33D-01
 Coeff-Com:  0.100D+01
 Coeff-En:   0.100D+01
 Coeff:      0.100D+01
 Gap=     0.110 Goal=   None    Shift=    0.000
 Gap=     0.121 Goal=   None    Shift=    0.000
 GapD=    0.110 DampG=1.000 DampE=0.500 DampFc=0.5000 IDamp=-1.
 Damping current iteration by 5.00D-01
 RMSDP=6.36D-02 MaxDP=6.07D+00              OVMax= 4.46D-01

 Cycle   2  Pass 1  IDiag  1:
 RMSU=  2.44D-02    CP:  1.39D+00
 E= -1502.15899951854     Delta-E=       -0.120977323789 Rises=F Damp=T
 DIIS: error= 1.28D-02 at cycle   2 NSaved=   2.
 NSaved= 2 IEnMin= 2 EnMin= -1502.15899951854     IErMin= 2 ErrMin= 1.28D-02
 ErrMax= 1.28D-02  0.00D+00 EMaxC= 1.00D-01 BMatC= 7.17D-01 BMatP= 4.02D+00
 IDIUse=3 WtCom= 8.72D-01 WtEn= 1.28D-01
 Coeff-Com:  0.245D+00 0.755D+00
 Coeff-En:   0.419D+00 0.581D+00
 Coeff:      0.267D+00 0.733D+00
 Gap=     0.106 Goal=   None    Shift=    0.000
 Gap=     0.246 Goal=   None    Shift=    0.000
 RMSDP=2.22D-02 MaxDP=2.23D+00 DE=-1.21D-01 OVMax= 4.29D-01

 Cycle   3  Pass 1  IDiag  1:
 RMSU=  6.49D-03    CP:  1.16D+00  2.79D-01
 E= -1502.63459594299     Delta-E=       -0.475596424454 Rises=F Damp=F
 DIIS: error= 1.44D-02 at cycle   3 NSaved=   3.
 NSaved= 3 IEnMin= 3 EnMin= -1502.63459594299     IErMin= 2 ErrMin= 1.28D-02
 ErrMax= 1.44D-02  0.00D+00 EMaxC= 1.00D-01 BMatC= 5.28D-01 BMatP= 7.17D-01
 IDIUse=3 WtCom= 8.56D-01 WtEn= 1.44D-01
 Coeff-Com:  0.786D-01 0.463D+00 0.459D+00
 Coeff-En:   0.000D+00 0.000D+00 0.100D+01
 Coeff:      0.672D-01 0.396D+00 0.537D+00
 Gap=     0.098 Goal=   None    Shift=    0.000
 Gap=     0.117 Goal=   None    Shift=    0.000
 RMSDP=7.04D-03 MaxDP=5.92D-01 DE=-4.76D-01 OVMax= 2.26D-01

 Cycle   4  Pass 1  IDiag  1:
 RMSU=  3.25D-03    CP:  1.22D+00  4.79D-01  5.92D-01
 E= -1502.72224873234     Delta-E=       -0.087652789348 Rises=F Damp=F
 DIIS: error= 9.05D-03 at cycle   4 NSaved=   4.
 NSaved= 4 IEnMin= 4 EnMin= -1502.72224873234     IErMin= 4 ErrMin= 9.05D-03
 ErrMax= 9.05D-03  0.00D+00 EMaxC= 1.00D-01 BMatC= 1.61D-01 BMatP= 5.28D-01
 IDIUse=3 WtCom= 9.10D-01 WtEn= 9.05D-02
 Coeff-Com:  0.118D-01 0.129D+00 0.363D+00 0.495D+00
 Coeff-En:   0.000D+00 0.000D+00 0.276D+00 0.724D+00
 Coeff:      0.108D-01 0.118D+00 0.355D+00 0.516D+00
 Gap=     0.096 Goal=   None    Shift=    0.000
 Gap=     0.106 Goal=   None    Shift=    0.000
 RMSDP=2.35D-03 MaxDP=1.90D-01 DE=-8.77D-02 OVMax= 1.12D-01

 Cycle   5  Pass 1  IDiag  1:
 RMSU=  1.16D-03    CP:  1.19D+00  4.42D-01  6.54D-01  5.93D-01
 E= -1502.75780386310     Delta-E=       -0.035555130765 Rises=F Damp=F
 DIIS: error= 2.88D-03 at cycle   5 NSaved=   5.
 NSaved= 5 IEnMin= 5 EnMin= -1502.75780386310     IErMin= 5 ErrMin= 2.88D-03
 ErrMax= 2.88D-03  0.00D+00 EMaxC= 1.00D-01 BMatC= 8.66D-03 BMatP= 1.61D-01
 IDIUse=3 WtCom= 9.71D-01 WtEn= 2.88D-02
 Coeff-Com: -0.200D-02 0.217D-01 0.150D+00 0.293D+00 0.538D+00
 Coeff-En:   0.000D+00 0.000D+00 0.000D+00 0.000D+00 0.100D+01
 Coeff:     -0.195D-02 0.211D-01 0.145D+00 0.284D+00 0.551D+00
 Gap=     0.090 Goal=   None    Shift=    0.000
 Gap=     0.110 Goal=   None    Shift=    0.000
 RMSDP=1.04D-03 MaxDP=1.01D-01 DE=-3.56D-02 OVMax= 4.39D-02

 Cycle   6  Pass 1  IDiag  1:
 RMSU=  4.85D-04    CP:  1.18D+00  4.25D-01  6.39D-01  5.99D-01  7.93D-01
 E= -1502.75960063796     Delta-E=       -0.001796774856 Rises=F Damp=F
 DIIS: error= 1.43D-03 at cycle   6 NSaved=   6.
 NSaved= 6 IEnMin= 6 EnMin= -1502.75960063796     IErMin= 6 ErrMin= 1.43D-03
 ErrMax= 1.43D-03  0.00D+00 EMaxC= 1.00D-01 BMatC= 1.59D-03 BMatP= 8.66D-03
 IDIUse=3 WtCom= 9.86D-01 WtEn= 1.43D-02
 Coeff-Com: -0.223D-02-0.991D-04 0.460D-01 0.108D+00 0.349D+00 0.500D+00
 Coeff-En:   0.000D+00 0.000D+00 0.000D+00 0.000D+00 0.163D+00 0.837D+00
 Coeff:     -0.220D-02-0.977D-04 0.454D-01 0.106D+00 0.346D+00 0.505D+00
 Gap=     0.091 Goal=   None    Shift=    0.000
 Gap=     0.109 Goal=   None    Shift=    0.000
 RMSDP=3.20D-04 MaxDP=4.06D-02 DE=-1.80D-03 OVMax= 1.08D-02

 Cycle   7  Pass 1  IDiag  1:
 RMSU=  1.97D-04    CP:  1.18D+00  4.29D-01  6.43D-01  6.02D-01  8.71D-01
                    CP:  6.58D-01
 E= -1502.75998927842     Delta-E=       -0.000388640463 Rises=F Damp=F
 DIIS: error= 3.23D-04 at cycle   7 NSaved=   7.
 NSaved= 7 IEnMin= 7 EnMin= -1502.75998927842     IErMin= 7 ErrMin= 3.23D-04
 ErrMax= 3.23D-04  0.00D+00 EMaxC= 1.00D-01 BMatC= 2.19D-04 BMatP= 1.59D-03
 IDIUse=3 WtCom= 9.97D-01 WtEn= 3.23D-03
 Coeff-Com: -0.800D-03-0.333D-02 0.624D-02 0.218D-01 0.144D+00 0.311D+00
 Coeff-Com:  0.521D+00
 Coeff-En:   0.000D+00 0.000D+00 0.000D+00 0.000D+00 0.000D+00 0.487D-01
 Coeff-En:   0.951D+00
 Coeff:     -0.797D-03-0.332D-02 0.622D-02 0.218D-01 0.144D+00 0.310D+00
 Coeff:      0.522D+00
 Gap=     0.091 Goal=   None    Shift=    0.000
 Gap=     0.110 Goal=   None    Shift=    0.000
 RMSDP=1.18D-04 MaxDP=1.04D-02 DE=-3.89D-04 OVMax= 5.72D-03

 Cycle   8  Pass 1  IDiag  1:
 RMSU=  6.52D-05    CP:  1.18D+00  4.29D-01  6.48D-01  6.06D-01  8.40D-01
                    CP:  6.64D-01  6.96D-01
 E= -1502.76004233060     Delta-E=       -0.000053052182 Rises=F Damp=F
 DIIS: error= 1.59D-04 at cycle   8 NSaved=   8.
 NSaved= 8 IEnMin= 8 EnMin= -1502.76004233060     IErMin= 8 ErrMin= 1.59D-04
 ErrMax= 1.59D-04  0.00D+00 EMaxC= 1.00D-01 BMatC= 3.19D-05 BMatP= 2.19D-04
 IDIUse=3 WtCom= 9.98D-01 WtEn= 1.59D-03
 Coeff-Com:  0.107D-03-0.179D-02-0.424D-02-0.758D-02 0.206D-01 0.733D-01
 Coeff-Com:  0.289D+00 0.630D+00
 Coeff-En:   0.000D+00 0.000D+00 0.000D+00 0.000D+00 0.000D+00 0.000D+00
 Coeff-En:   0.000D+00 0.100D+01
 Coeff:      0.106D-03-0.178D-02-0.423D-02-0.757D-02 0.206D-01 0.732D-01
 Coeff:      0.289D+00 0.631D+00
 Gap=     0.091 Goal=   None    Shift=    0.000
 Gap=     0.110 Goal=   None    Shift=    0.000
 RMSDP=3.76D-05 MaxDP=2.50D-03 DE=-5.31D-05 OVMax= 2.14D-03

 Cycle   9  Pass 1  IDiag  1:
 RMSU=  2.89D-05    CP:  1.18D+00  4.29D-01  6.48D-01  6.05D-01  8.51D-01
                    CP:  6.56D-01  7.45D-01  8.15D-01
 E= -1502.76005245836     Delta-E=       -0.000010127753 Rises=F Damp=F
 DIIS: error= 8.90D-05 at cycle   9 NSaved=   9.
 NSaved= 9 IEnMin= 9 EnMin= -1502.76005245836     IErMin= 9 ErrMin= 8.90D-05
 ErrMax= 8.90D-05  0.00D+00 EMaxC= 1.00D-01 BMatC= 9.50D-06 BMatP= 3.19D-05
 IDIUse=1 WtCom= 1.00D+00 WtEn= 0.00D+00
 Coeff-Com:  0.352D-03-0.768D-04-0.399D-02-0.111D-01-0.301D-01-0.615D-01
 Coeff-Com:  0.130D-01 0.396D+00 0.697D+00
 Coeff:      0.352D-03-0.768D-04-0.399D-02-0.111D-01-0.301D-01-0.615D-01
 Coeff:      0.130D-01 0.396D+00 0.697D+00
 Gap=     0.092 Goal=   None    Shift=    0.000
 Gap=     0.110 Goal=   None    Shift=    0.000
 RMSDP=2.74D-05 MaxDP=1.66D-03 DE=-1.01D-05 OVMax= 1.80D-03

 Cycle  10  Pass 1  IDiag  1:
 RMSU=  1.70D-05    CP:  1.18D+00  4.29D-01  6.49D-01  6.03D-01  8.54D-01
                    CP:  6.60D-01  7.38D-01  1.09D+00  1.01D+00
 E= -1502.76005562119     Delta-E=       -0.000003162835 Rises=F Damp=F
 DIIS: error= 3.86D-05 at cycle  10 NSaved=  10.
 NSaved=10 IEnMin=10 EnMin= -1502.76005562119     IErMin=10 ErrMin= 3.86D-05
 ErrMax= 3.86D-05  0.00D+00 EMaxC= 1.00D-01 BMatC= 2.58D-06 BMatP= 9.50D-06
 IDIUse=1 WtCom= 1.00D+00 WtEn= 0.00D+00
 Coeff-Com:  0.193D-03 0.343D-03-0.167D-02-0.589D-02-0.248D-01-0.596D-01
 Coeff-Com: -0.495D-01 0.137D+00 0.443D+00 0.561D+00
 Coeff:      0.193D-03 0.343D-03-0.167D-02-0.589D-02-0.248D-01-0.596D-01
 Coeff:     -0.495D-01 0.137D+00 0.443D+00 0.561D+00
 Gap=     0.092 Goal=   None    Shift=    0.000
 Gap=     0.110 Goal=   None    Shift=    0.000
 RMSDP=1.19D-05 MaxDP=7.48D-04 DE=-3.16D-06 OVMax= 6.49D-04

 Cycle  11  Pass 1  IDiag  1:
 RMSU=  6.07D-06    CP:  1.18D+00  4.29D-01  6.49D-01  6.03D-01  8.55D-01
                    CP:  6.59D-01  7.72D-01  1.10D+00  1.13D+00  7.73D-01
 E= -1502.76005639111     Delta-E=       -0.000000769920 Rises=F Damp=F
 DIIS: error= 1.53D-05 at cycle  11 NSaved=  11.
 NSaved=11 IEnMin=11 EnMin= -1502.76005639111     IErMin=11 ErrMin= 1.53D-05
 ErrMax= 1.53D-05  0.00D+00 EMaxC= 1.00D-01 BMatC= 5.12D-07 BMatP= 2.58D-06
 IDIUse=1 WtCom= 1.00D+00 WtEn= 0.00D+00
 Coeff-Com: -0.982D-05 0.173D-03 0.313D-03 0.170D-03-0.471D-02-0.159D-01
 Coeff-Com: -0.283D-01-0.386D-01 0.120D-01 0.334D+00 0.741D+00
 Coeff:     -0.982D-05 0.173D-03 0.313D-03 0.170D-03-0.471D-02-0.159D-01
 Coeff:     -0.283D-01-0.386D-01 0.120D-01 0.334D+00 0.741D+00
 Gap=     0.092 Goal=   None    Shift=    0.000
 Gap=     0.110 Goal=   None    Shift=    0.000
 RMSDP=6.21D-06 MaxDP=5.16D-04 DE=-7.70D-07 OVMax= 3.63D-04

 Cycle  12  Pass 1  IDiag  1:
 RMSU=  3.30D-06    CP:  1.18D+00  4.29D-01  6.49D-01  6.03D-01  8.55D-01
                    CP:  6.57D-01  7.76D-01  1.15D+00  1.19D+00  8.92D-01
                    CP:  9.30D-01
 E= -1502.76005655147     Delta-E=       -0.000000160359 Rises=F Damp=F
 DIIS: error= 5.26D-06 at cycle  12 NSaved=  12.
 NSaved=12 IEnMin=12 EnMin= -1502.76005655147     IErMin=12 ErrMin= 5.26D-06
 ErrMax= 5.26D-06  0.00D+00 EMaxC= 1.00D-01 BMatC= 7.86D-08 BMatP= 5.12D-07
 IDIUse=1 WtCom= 1.00D+00 WtEn= 0.00D+00
 Coeff-Com: -0.205D-04 0.611D-04 0.346D-03 0.650D-03-0.311D-03-0.350D-02
 Coeff-Com: -0.110D-01-0.333D-01-0.377D-01 0.137D+00 0.418D+00 0.529D+00
 Coeff:     -0.205D-04 0.611D-04 0.346D-03 0.650D-03-0.311D-03-0.350D-02
 Coeff:     -0.110D-01-0.333D-01-0.377D-01 0.137D+00 0.418D+00 0.529D+00
 Gap=     0.092 Goal=   None    Shift=    0.000
 Gap=     0.110 Goal=   None    Shift=    0.000
 RMSDP=1.45D-06 MaxDP=1.21D-04 DE=-1.60D-07 OVMax= 8.32D-05

 Cycle  13  Pass 1  IDiag  1:
 RMSU=  1.08D-06    CP:  1.18D+00  4.29D-01  6.49D-01  6.03D-01  8.55D-01
                    CP:  6.56D-01  7.76D-01  1.15D+00  1.19D+00  9.15D-01
                    CP:  1.04D+00  8.79D-01
 E= -1502.76005656929     Delta-E=       -0.000000017820 Rises=F Damp=F
 DIIS: error= 3.87D-06 at cycle  13 NSaved=  13.
 NSaved=13 IEnMin=13 EnMin= -1502.76005656929     IErMin=13 ErrMin= 3.87D-06
 ErrMax= 3.87D-06  0.00D+00 EMaxC= 1.00D-01 BMatC= 2.28D-08 BMatP= 7.86D-08
 IDIUse=1 WtCom= 1.00D+00 WtEn= 0.00D+00
 Coeff-Com: -0.711D-05-0.209D-04 0.137D-03 0.365D-03 0.134D-02 0.279D-02
 Coeff-Com:  0.165D-02-0.896D-02-0.293D-01-0.153D-01 0.343D-01 0.356D+00
 Coeff-Com:  0.657D+00
 Coeff:     -0.711D-05-0.209D-04 0.137D-03 0.365D-03 0.134D-02 0.279D-02
 Coeff:      0.165D-02-0.896D-02-0.293D-01-0.153D-01 0.343D-01 0.356D+00
 Coeff:      0.657D+00
 Gap=     0.092 Goal=   None    Shift=    0.000
 Gap=     0.110 Goal=   None    Shift=    0.000
 RMSDP=1.01D-06 MaxDP=8.26D-05 DE=-1.78D-08 OVMax= 5.23D-05

 Cycle  14  Pass 1  IDiag  1:
 RMSU=  7.04D-07    CP:  1.18D+00  4.29D-01  6.49D-01  6.03D-01  8.55D-01
                    CP:  6.56D-01  7.75D-01  1.15D+00  1.19D+00  9.39D-01
                    CP:  1.05D+00  9.24D-01  8.23D-01
 E= -1502.76005657624     Delta-E=       -0.000000006951 Rises=F Damp=F
 DIIS: error= 1.72D-06 at cycle  14 NSaved=  14.
 NSaved=14 IEnMin=14 EnMin= -1502.76005657624     IErMin=14 ErrMin= 1.72D-06
 ErrMax= 1.72D-06  0.00D+00 EMaxC= 1.00D-01 BMatC= 5.16D-09 BMatP= 2.28D-08
 IDIUse=1 WtCom= 1.00D+00 WtEn= 0.00D+00
 Coeff-Com:  0.120D-05-0.260D-04 0.169D-04 0.850D-04 0.949D-03 0.252D-02
 Coeff-Com:  0.335D-02 0.223D-02-0.938D-02-0.371D-01-0.744D-01 0.967D-01
 Coeff-Com:  0.399D+00 0.616D+00
 Coeff:      0.120D-05-0.260D-04 0.169D-04 0.850D-04 0.949D-03 0.252D-02
 Coeff:      0.335D-02 0.223D-02-0.938D-02-0.371D-01-0.744D-01 0.967D-01
 Coeff:      0.399D+00 0.616D+00
 Gap=     0.092 Goal=   None    Shift=    0.000
 Gap=     0.110 Goal=   None    Shift=    0.000
 RMSDP=4.27D-07 MaxDP=3.49D-05 DE=-6.95D-09 OVMax= 4.11D-05

 Cycle  15  Pass 1  IDiag  1:
 RMSU=  2.80D-07    CP:  1.18D+00  4.29D-01  6.49D-01  6.03D-01  8.55D-01
                    CP:  6.56D-01  7.76D-01  1.15D+00  1.19D+00  9.42D-01
                    CP:  1.06D+00  9.70D-01  9.32D-01  9.14D-01
 E= -1502.76005657787     Delta-E=       -0.000000001631 Rises=F Damp=F
 DIIS: error= 1.17D-06 at cycle  15 NSaved=  15.
 NSaved=15 IEnMin=15 EnMin= -1502.76005657787     IErMin=15 ErrMin= 1.17D-06
 ErrMax= 1.17D-06  0.00D+00 EMaxC= 1.00D-01 BMatC= 1.43D-09 BMatP= 5.16D-09
 IDIUse=1 WtCom= 1.00D+00 WtEn= 0.00D+00
 Coeff-Com:  0.308D-05-0.932D-05-0.295D-04-0.585D-04 0.209D-03 0.778D-03
 Coeff-Com:  0.156D-02 0.402D-02 0.244D-02-0.180D-01-0.589D-01-0.382D-01
 Coeff-Com:  0.572D-01 0.402D+00 0.647D+00
 Coeff:      0.308D-05-0.932D-05-0.295D-04-0.585D-04 0.209D-03 0.778D-03
 Coeff:      0.156D-02 0.402D-02 0.244D-02-0.180D-01-0.589D-01-0.382D-01
 Coeff:      0.572D-01 0.402D+00 0.647D+00
 Gap=     0.092 Goal=   None    Shift=    0.000
 Gap=     0.110 Goal=   None    Shift=    0.000
 RMSDP=2.36D-07 MaxDP=1.36D-05 DE=-1.63D-09 OVMax= 1.76D-05

 Cycle  16  Pass 1  IDiag  1:
 RMSU=  1.46D-07    CP:  1.18D+00  4.29D-01  6.49D-01  6.03D-01  8.55D-01
                    CP:  6.56D-01  7.76D-01  1.15D+00  1.19D+00  9.42D-01
                    CP:  1.06D+00  9.93D-01  9.66D-01  9.99D-01  7.59D-01
 E= -1502.76005657839     Delta-E=       -0.000000000518 Rises=F Damp=F
 DIIS: error= 5.02D-07 at cycle  16 NSaved=  16.
 NSaved=16 IEnMin=16 EnMin= -1502.76005657839     IErMin=16 ErrMin= 5.02D-07
 ErrMax= 5.02D-07  0.00D+00 EMaxC= 1.00D-01 BMatC= 2.91D-10 BMatP= 1.43D-09
 IDIUse=1 WtCom= 1.00D+00 WtEn= 0.00D+00
 Coeff-Com:  0.144D-05-0.181D-05-0.215D-04-0.489D-04-0.230D-04 0.683D-04
 Coeff-Com:  0.400D-03 0.202D-02 0.285D-02-0.485D-02-0.242D-01-0.371D-01
 Coeff-Com: -0.322D-01 0.154D+00 0.391D+00 0.548D+00
 Coeff:      0.144D-05-0.181D-05-0.215D-04-0.489D-04-0.230D-04 0.683D-04
 Coeff:      0.400D-03 0.202D-02 0.285D-02-0.485D-02-0.242D-01-0.371D-01
 Coeff:     -0.322D-01 0.154D+00 0.391D+00 0.548D+00
 Gap=     0.092 Goal=   None    Shift=    0.000
 Gap=     0.110 Goal=   None    Shift=    0.000
 RMSDP=1.23D-07 MaxDP=9.75D-06 DE=-5.18D-10 OVMax= 9.56D-06

 Cycle  17  Pass 1  IDiag  1:
 RMSU=  8.07D-08    CP:  1.18D+00  4.29D-01  6.49D-01  6.03D-01  8.55D-01
                    CP:  6.56D-01  7.76D-01  1.16D+00  1.19D+00  9.42D-01
                    CP:  1.06D+00  1.00D+00  9.69D-01  1.03D+00  8.20D-01
                    CP:  7.26D-01
 E= -1502.76005657850     Delta-E=       -0.000000000111 Rises=F Damp=F
 DIIS: error= 3.18D-07 at cycle  17 NSaved=  17.
 NSaved=17 IEnMin=17 EnMin= -1502.76005657850     IErMin=17 ErrMin= 3.18D-07
 ErrMax= 3.18D-07  0.00D+00 EMaxC= 1.00D-01 BMatC= 5.98D-11 BMatP= 2.91D-10
 IDIUse=1 WtCom= 1.00D+00 WtEn= 0.00D+00
 Coeff-Com: -0.636D-06 0.248D-05-0.130D-05-0.503D-05-0.797D-04-0.216D-03
 Coeff-Com: -0.280D-03-0.330D-03 0.362D-03 0.342D-02 0.771D-02-0.160D-02
 Coeff-Com: -0.355D-01-0.487D-01-0.445D-01 0.273D+00 0.846D+00
 Coeff:     -0.636D-06 0.248D-05-0.130D-05-0.503D-05-0.797D-04-0.216D-03
 Coeff:     -0.280D-03-0.330D-03 0.362D-03 0.342D-02 0.771D-02-0.160D-02
 Coeff:     -0.355D-01-0.487D-01-0.445D-01 0.273D+00 0.846D+00
 Gap=     0.092 Goal=   None    Shift=    0.000
 Gap=     0.110 Goal=   None    Shift=    0.000
 RMSDP=6.31D-08 MaxDP=3.15D-06 DE=-1.11D-10 OVMax= 6.12D-06

 Cycle  18  Pass 1  IDiag  1:
 RMSU=  4.26D-08    CP:  1.18D+00  4.29D-01  6.49D-01  6.03D-01  8.55D-01
                    CP:  6.56D-01  7.76D-01  1.16D+00  1.19D+00  9.43D-01
                    CP:  1.06D+00  9.99D-01  9.71D-01  1.05D+00  8.53D-01
                    CP:  8.19D-01  9.66D-01
 E= -1502.76005657853     Delta-E=       -0.000000000027 Rises=F Damp=F
 DIIS: error= 1.32D-07 at cycle  18 NSaved=  18.
 NSaved=18 IEnMin=18 EnMin= -1502.76005657853     IErMin=18 ErrMin= 1.32D-07
 ErrMax= 1.32D-07  0.00D+00 EMaxC= 1.00D-01 BMatC= 1.58D-11 BMatP= 5.98D-11
 IDIUse=1 WtCom= 1.00D+00 WtEn= 0.00D+00
 Coeff-Com: -0.582D-06 0.166D-05 0.364D-05 0.749D-05-0.354D-04-0.126D-03
 Coeff-Com: -0.216D-03-0.546D-03-0.375D-03 0.270D-02 0.872D-02 0.677D-02
 Coeff-Com: -0.132D-01-0.516D-01-0.113D+00 0.355D-01 0.414D+00 0.712D+00
 Coeff:     -0.582D-06 0.166D-05 0.364D-05 0.749D-05-0.354D-04-0.126D-03
 Coeff:     -0.216D-03-0.546D-03-0.375D-03 0.270D-02 0.872D-02 0.677D-02
 Coeff:     -0.132D-01-0.516D-01-0.113D+00 0.355D-01 0.414D+00 0.712D+00
 Gap=     0.092 Goal=   None    Shift=    0.000
 Gap=     0.110 Goal=   None    Shift=    0.000
 RMSDP=3.71D-08 MaxDP=2.07D-06 DE=-2.68D-11 OVMax= 2.91D-06

 Cycle  19  Pass 1  IDiag  1:
 RMSU=  1.90D-08    CP:  1.18D+00  4.29D-01  6.49D-01  6.03D-01  8.55D-01
                    CP:  6.56D-01  7.76D-01  1.16D+00  1.19D+00  9.43D-01
                    CP:  1.06D+00  9.99D-01  9.59D-01  1.06D+00  8.57D-01
                    CP:  9.03D-01  1.10D+00  8.81D-01
 E= -1502.76005657854     Delta-E=       -0.000000000005 Rises=F Damp=F
 DIIS: error= 9.18D-08 at cycle  19 NSaved=  19.
 NSaved=19 IEnMin=19 EnMin= -1502.76005657854     IErMin=19 ErrMin= 9.18D-08
 ErrMax= 9.18D-08  0.00D+00 EMaxC= 1.00D-01 BMatC= 6.60D-12 BMatP= 1.58D-11
 IDIUse=1 WtCom= 1.00D+00 WtEn= 0.00D+00
 Coeff-Com: -0.813D-08-0.318D-06 0.297D-05 0.753D-05 0.169D-04 0.269D-04
 Coeff-Com: -0.822D-05-0.199D-03-0.460D-03 0.337D-04 0.169D-02 0.525D-02
 Coeff-Com:  0.867D-02-0.480D-02-0.585D-01-0.103D+00-0.165D+00 0.449D+00
 Coeff-Com:  0.867D+00
 Coeff:     -0.813D-08-0.318D-06 0.297D-05 0.753D-05 0.169D-04 0.269D-04
 Coeff:     -0.822D-05-0.199D-03-0.460D-03 0.337D-04 0.169D-02 0.525D-02
 Coeff:      0.867D-02-0.480D-02-0.585D-01-0.103D+00-0.165D+00 0.449D+00
 Coeff:      0.867D+00
 Gap=     0.092 Goal=   None    Shift=    0.000
 Gap=     0.110 Goal=   None    Shift=    0.000
 RMSDP=2.39D-08 MaxDP=2.29D-06 DE=-5.46D-12 OVMax= 2.55D-06

 Cycle  20  Pass 1  IDiag  1:
 RMSU=  1.08D-08    CP:  1.18D+00  4.29D-01  6.49D-01  6.03D-01  8.55D-01
                    CP:  6.56D-01  7.76D-01  1.16D+00  1.19D+00  9.43D-01
                    CP:  1.06D+00  1.00D+00  9.58D-01  1.06D+00  8.48D-01
                    CP:  9.62D-01  1.18D+00  1.10D+00  1.16D+00
 E= -1502.76005657854     Delta-E=       -0.000000000005 Rises=F Damp=F
 DIIS: error= 2.18D-08 at cycle  20 NSaved=  20.
 NSaved=20 IEnMin=20 EnMin= -1502.76005657854     IErMin=20 ErrMin= 2.18D-08
 ErrMax= 2.18D-08  0.00D+00 EMaxC= 1.00D-01 BMatC= 9.29D-13 BMatP= 6.60D-12
 IDIUse=1 WtCom= 1.00D+00 WtEn= 0.00D+00
 Coeff-Com:  0.122D-06-0.450D-06 0.653D-06 0.184D-05 0.143D-04 0.378D-04
 Coeff-Com:  0.370D-04 0.269D-04-0.122D-03-0.473D-03-0.102D-02 0.946D-03
 Coeff-Com:  0.582D-02 0.846D-02-0.500D-02-0.467D-01-0.142D+00 0.637D-01
 Coeff-Com:  0.363D+00 0.753D+00
 Coeff:      0.122D-06-0.450D-06 0.653D-06 0.184D-05 0.143D-04 0.378D-04
 Coeff:      0.370D-04 0.269D-04-0.122D-03-0.473D-03-0.102D-02 0.946D-03
 Coeff:      0.582D-02 0.846D-02-0.500D-02-0.467D-01-0.142D+00 0.637D-01
 Coeff:      0.363D+00 0.753D+00
 Gap=     0.092 Goal=   None    Shift=    0.000
 Gap=     0.110 Goal=   None    Shift=    0.000
 RMSDP=1.61D-08 MaxDP=1.74D-06 DE=-5.46D-12 OVMax= 8.97D-07

 Cycle  21  Pass 1  IDiag  1:
 Restarting incremental Fock formation.
 E= -1502.76005657855     Delta-E=       -0.000000000008 Rises=F Damp=F
 DIIS: error= 1.99D-08 at cycle  21 NSaved=  20.
 NSaved=20 IEnMin=20 EnMin= -1502.76005657855     IErMin=20 ErrMin= 1.99D-08
 ErrMax= 1.99D-08  0.00D+00 EMaxC= 1.00D-01 BMatC= 6.89D-13 BMatP= 9.29D-13
 IDIUse=1 WtCom= 1.00D+00 WtEn= 0.00D+00
 Coeff-Com: -0.291D-06 0.116D-07 0.263D-06 0.726D-05 0.209D-04 0.232D-04
 Coeff-Com:  0.436D-04 0.330D-05-0.242D-03-0.884D-03-0.583D-03 0.102D-02
 Coeff-Com:  0.566D-02 0.102D-01-0.137D-02-0.426D-01-0.865D-01-0.729D-02
 Coeff-Com:  0.560D+00 0.562D+00
 Coeff:     -0.291D-06 0.116D-07 0.263D-06 0.726D-05 0.209D-04 0.232D-04
 Coeff:      0.436D-04 0.330D-05-0.242D-03-0.884D-03-0.583D-03 0.102D-02
 Coeff:      0.566D-02 0.102D-01-0.137D-02-0.426D-01-0.865D-01-0.729D-02
 Coeff:      0.560D+00 0.562D+00
 Gap=     0.092 Goal=   None    Shift=    0.000
 Gap=     0.110 Goal=   None    Shift=    0.000
 RMSDP=7.84D-09 MaxDP=6.51D-07 DE=-7.73D-12 OVMax= 2.79D-07

 SCF Done:  E(UB3LYP) =  -1502.76005658     A.U. after   21 cycles
            NFock= 21  Conv=0.78D-08     -V/T= 2.0031
 <Sx>= 0.0000 <Sy>= 0.0000 <Sz>= 0.5000 <S**2>= 0.7601 S= 0.5051
 <L.S>=  0.00000000000    
 KE= 1.498140268155D+03 PE=-7.750999593162D+03 EE= 2.650772177234D+03
 Annihilation of the first spin contaminant:
 S**2 before annihilation     0.7601,   after     0.7501
 Leave Link  502 at Sun Jan  7 05:09:14 2024, MaxMem=  4026531840 cpu:            6138.8 elap:             819.1
 (Enter /sysapps/ubuntu-applications/gaussian/Gaussian/AVX2/g16/l601.exe)
 Copying SCF densities to generalized density rwf, IOpCl= 1 IROHF=0.

 **********************************************************************

            Population analysis using the SCF density.

 **********************************************************************

 Alpha  occ. eigenvalues --  -88.97806 -19.07032 -19.03527 -19.02533 -19.02363
 Alpha  occ. eigenvalues --  -19.02239 -18.99526 -18.99079 -10.14978 -10.14041
 Alpha  occ. eigenvalues --  -10.13652 -10.13495 -10.13411 -10.10765 -10.08848
 Alpha  occ. eigenvalues --  -10.08797 -10.08530 -10.08497 -10.08476 -10.08420
 Alpha  occ. eigenvalues --  -10.08313 -10.08236 -10.08001  -8.03838  -6.00232
 Alpha  occ. eigenvalues --   -6.00043  -5.99884  -1.04527  -0.96387  -0.95065
 Alpha  occ. eigenvalues --   -0.93965  -0.91616  -0.91177  -0.90695  -0.77408
 Alpha  occ. eigenvalues --   -0.75946  -0.70769  -0.66710  -0.66393  -0.64778
 Alpha  occ. eigenvalues --   -0.63395  -0.59104  -0.56543  -0.54497  -0.52242
 Alpha  occ. eigenvalues --   -0.50241  -0.48317  -0.45764  -0.44842  -0.43446
 Alpha  occ. eigenvalues --   -0.41901  -0.41439  -0.39936  -0.38716  -0.38178
 Alpha  occ. eigenvalues --   -0.37336  -0.36461  -0.35259  -0.34428  -0.34092
 Alpha  occ. eigenvalues --   -0.33576  -0.33170  -0.32667  -0.32279  -0.31109
 Alpha  occ. eigenvalues --   -0.30800  -0.30323  -0.29512  -0.28039  -0.27262
 Alpha  occ. eigenvalues --   -0.27062  -0.26038  -0.25895  -0.25240  -0.24600
 Alpha  occ. eigenvalues --   -0.23593  -0.22596  -0.21714  -0.21230  -0.20537
 Alpha  occ. eigenvalues --   -0.17892  -0.16792  -0.16456  -0.16124  -0.15026
 Alpha  occ. eigenvalues --   -0.11829  -0.05174
 Alpha virt. eigenvalues --    0.03996   0.05903   0.06758   0.07573   0.08768
 Alpha virt. eigenvalues --    0.09551   0.09954   0.10444   0.10775   0.11467
 Alpha virt. eigenvalues --    0.11844   0.12831   0.13197   0.13563   0.13686
 Alpha virt. eigenvalues --    0.14187   0.14934   0.15140   0.15624   0.15726
 Alpha virt. eigenvalues --    0.16187   0.16563   0.16978   0.17316   0.17809
 Alpha virt. eigenvalues --    0.18000   0.18157   0.18717   0.18847   0.19031
 Alpha virt. eigenvalues --    0.19236   0.19291   0.20162   0.20401   0.20979
 Alpha virt. eigenvalues --    0.21027   0.21500   0.21691   0.21894   0.22137
 Alpha virt. eigenvalues --    0.22691   0.22965   0.23222   0.23396   0.23602
 Alpha virt. eigenvalues --    0.23911   0.24290   0.24940   0.25281   0.25367
 Alpha virt. eigenvalues --    0.25758   0.26133   0.26830   0.27324   0.27808
 Alpha virt. eigenvalues --    0.28064   0.28442   0.28833   0.29026   0.29799
 Alpha virt. eigenvalues --    0.29886   0.30477   0.30829   0.31092   0.31596
 Alpha virt. eigenvalues --    0.31789   0.32088   0.32371   0.32818   0.33179
 Alpha virt. eigenvalues --    0.33656   0.33972   0.34568   0.34783   0.35297
 Alpha virt. eigenvalues --    0.35564   0.35752   0.36118   0.36282   0.36560
 Alpha virt. eigenvalues --    0.37111   0.37708   0.38247   0.38522   0.38620
 Alpha virt. eigenvalues --    0.38667   0.38897   0.39106   0.39279   0.39940
 Alpha virt. eigenvalues --    0.40038   0.40203   0.40619   0.41166   0.41585
 Alpha virt. eigenvalues --    0.41889   0.42506   0.42553   0.42906   0.43001
 Alpha virt. eigenvalues --    0.43284   0.43652   0.43975   0.44328   0.45125
 Alpha virt. eigenvalues --    0.45282   0.45593   0.46238   0.46614   0.46922
 Alpha virt. eigenvalues --    0.47061   0.47598   0.48360   0.49371   0.49525
 Alpha virt. eigenvalues --    0.50139   0.50311   0.51117   0.51234   0.51735
 Alpha virt. eigenvalues --    0.51927   0.52711   0.53334   0.54027   0.54562
 Alpha virt. eigenvalues --    0.55671   0.56294   0.57153   0.58651   0.59048
 Alpha virt. eigenvalues --    0.60549   0.60772   0.61587   0.62558   0.63066
 Alpha virt. eigenvalues --    0.63788   0.64082   0.64962   0.66183   0.66822
 Alpha virt. eigenvalues --    0.66956   0.67451   0.67754   0.68809   0.68821
 Alpha virt. eigenvalues --    0.69261   0.70191   0.70852   0.72451   0.72641
 Alpha virt. eigenvalues --    0.72906   0.73415   0.74183   0.74216   0.74948
 Alpha virt. eigenvalues --    0.75425   0.76067   0.76400   0.76605   0.77678
 Alpha virt. eigenvalues --    0.78323   0.79190   0.79777   0.80651   0.81078
 Alpha virt. eigenvalues --    0.81557   0.82483   0.83067   0.83748   0.85971
 Alpha virt. eigenvalues --    0.86720   0.87199   0.87334   0.87488   0.89787
 Alpha virt. eigenvalues --    0.90479   0.90844   0.91479   0.92250   0.94119
 Alpha virt. eigenvalues --    0.94918   0.97169   0.97672   0.98413   0.98563
 Alpha virt. eigenvalues --    0.99709   0.99940   1.01499   1.02729   1.03690
 Alpha virt. eigenvalues --    1.04467   1.04557   1.04845   1.05168   1.05777
 Alpha virt. eigenvalues --    1.06441   1.08902   1.09233   1.09663   1.10227
 Alpha virt. eigenvalues --    1.10585   1.10991   1.13191   1.13628   1.14569
 Alpha virt. eigenvalues --    1.15002   1.15368   1.16291   1.17199   1.17593
 Alpha virt. eigenvalues --    1.18947   1.19029   1.19941   1.20226   1.20929
 Alpha virt. eigenvalues --    1.22120   1.22909   1.23441   1.24346   1.25637
 Alpha virt. eigenvalues --    1.26108   1.26696   1.27185   1.28715   1.28894
 Alpha virt. eigenvalues --    1.29491   1.29948   1.31265   1.32656   1.34031
 Alpha virt. eigenvalues --    1.34511   1.34700   1.35357   1.36022   1.36738
 Alpha virt. eigenvalues --    1.37277   1.37684   1.37878   1.39734   1.40811
 Alpha virt. eigenvalues --    1.42769   1.43686   1.44274   1.45759   1.47850
 Alpha virt. eigenvalues --    1.48622   1.49581   1.52579   1.54145   1.54520
 Alpha virt. eigenvalues --    1.54797   1.56345   1.56909   1.58039   1.59965
 Alpha virt. eigenvalues --    1.60371   1.61389   1.62722   1.63086   1.63373
 Alpha virt. eigenvalues --    1.65063   1.65705   1.65866   1.66693   1.67148
 Alpha virt. eigenvalues --    1.70061   1.70470   1.72190   1.72646   1.73405
 Alpha virt. eigenvalues --    1.75514   1.75975   1.76504   1.77488   1.78775
 Alpha virt. eigenvalues --    1.79359   1.80139   1.81283   1.81666   1.82395
 Alpha virt. eigenvalues --    1.84419   1.85385   1.85999   1.86536   1.88868
 Alpha virt. eigenvalues --    1.90337   1.92190   1.92520   1.93555   1.95573
 Alpha virt. eigenvalues --    1.96975   1.98636   1.99334   1.99904   2.00206
 Alpha virt. eigenvalues --    2.00492   2.00847   2.03432   2.03691   2.04658
 Alpha virt. eigenvalues --    2.04769   2.07016   2.07762   2.08007   2.08134
 Alpha virt. eigenvalues --    2.08744   2.11214   2.12002   2.13550   2.15653
 Alpha virt. eigenvalues --    2.15721   2.17196   2.19067   2.20175   2.21811
 Alpha virt. eigenvalues --    2.23213   2.23511   2.24854   2.25321   2.27048
 Alpha virt. eigenvalues --    2.28969   2.31580   2.34499   2.36336   2.36586
 Alpha virt. eigenvalues --    2.42527   2.42609   2.43660   2.46200   2.47873
 Alpha virt. eigenvalues --    2.49459   2.53380   2.54180   2.57257   2.58018
 Alpha virt. eigenvalues --    2.58209   2.58583   2.61162   2.61284   2.63343
 Alpha virt. eigenvalues --    2.65585   2.71184   2.71875   2.73096   2.73845
 Alpha virt. eigenvalues --    2.74196   2.77881   2.78904   2.79947   2.81552
 Alpha virt. eigenvalues --    2.82453   2.83421   2.85953   2.86058   2.87029
 Alpha virt. eigenvalues --    2.87732   2.88157   2.89983   2.91027   2.91549
 Alpha virt. eigenvalues --    2.92380   2.93079   2.93455   2.93785   2.94219
 Alpha virt. eigenvalues --    2.95186   2.95731   2.96364   2.97198   2.97859
 Alpha virt. eigenvalues --    2.98214   2.98887   3.00491   3.02288   3.04034
 Alpha virt. eigenvalues --    3.05803   3.07385   3.10579   3.13124   3.13614
 Alpha virt. eigenvalues --    3.16096   3.18814   3.19099   3.21026   3.22316
 Alpha virt. eigenvalues --    3.22823   3.23155   3.23641   3.24206   3.24440
 Alpha virt. eigenvalues --    3.25196   3.27324   3.28638   3.30176   3.30722
 Alpha virt. eigenvalues --    3.31861   3.32457   3.33152   3.35409   3.37501
 Alpha virt. eigenvalues --    3.39309   3.40261   3.42717   3.42828   3.43909
 Alpha virt. eigenvalues --    3.50766   3.53153   3.54984   3.57563   3.60841
 Alpha virt. eigenvalues --    3.62374   3.62864   3.65217   3.67074   3.68610
 Alpha virt. eigenvalues --    3.69363   3.72267   3.73320   3.79615   3.82377
 Alpha virt. eigenvalues --    3.88009   3.91214   3.92693   3.93325   3.99173
 Alpha virt. eigenvalues --    4.01403   4.04655   4.06883   4.11905   4.13397
 Alpha virt. eigenvalues --    4.17230   4.26955   4.30318   4.34854   4.40454
 Alpha virt. eigenvalues --    4.43790   4.58958   4.92813   4.94634   4.96721
 Alpha virt. eigenvalues --    5.10315   5.12738   5.14223   5.15187   5.17357
 Alpha virt. eigenvalues --    5.18198   5.19285   5.21325   5.21433   5.23741
 Alpha virt. eigenvalues --    5.28585   5.38908   5.41816   5.42078   5.58290
 Alpha virt. eigenvalues --    5.61846   5.67982   5.83246   5.90587   5.94026
 Alpha virt. eigenvalues --    5.97034   8.29697  17.42340  17.53090  17.65270
 Alpha virt. eigenvalues --   23.60954  23.77634  23.97421  23.98644  24.01593
 Alpha virt. eigenvalues --   24.03783  24.03993  24.04780  24.06644  24.09987
 Alpha virt. eigenvalues --   24.11878  24.14519  24.20842  24.23686  24.28244
 Alpha virt. eigenvalues --   49.95753  49.98861  50.05697  50.09479  50.13369
 Alpha virt. eigenvalues --   50.16291  50.21886 189.40601
  Beta  occ. eigenvalues --  -88.97806 -19.07022 -19.03507 -19.02487 -19.02351
  Beta  occ. eigenvalues --  -19.02239 -18.99057 -18.98544 -10.14974 -10.13857
  Beta  occ. eigenvalues --  -10.13494 -10.13480 -10.13394 -10.10663 -10.08805
  Beta  occ. eigenvalues --  -10.08753 -10.08483 -10.08464 -10.08410 -10.08373
  Beta  occ. eigenvalues --  -10.08311 -10.08234 -10.07827  -8.03838  -6.00229
  Beta  occ. eigenvalues --   -6.00043  -5.99888  -1.04510  -0.96268  -0.94875
  Beta  occ. eigenvalues --   -0.93948  -0.91594  -0.90429  -0.89849  -0.77167
  Beta  occ. eigenvalues --   -0.75777  -0.70397  -0.66530  -0.66203  -0.64550
  Beta  occ. eigenvalues --   -0.63271  -0.58579  -0.56277  -0.54258  -0.52132
  Beta  occ. eigenvalues --   -0.50161  -0.48169  -0.45639  -0.44694  -0.43325
  Beta  occ. eigenvalues --   -0.41838  -0.41262  -0.39860  -0.38689  -0.37986
  Beta  occ. eigenvalues --   -0.37228  -0.36363  -0.35193  -0.34031  -0.33690
  Beta  occ. eigenvalues --   -0.33498  -0.33032  -0.32316  -0.32011  -0.30889
  Beta  occ. eigenvalues --   -0.30071  -0.29652  -0.29306  -0.27919  -0.26944
  Beta  occ. eigenvalues --   -0.25988  -0.25724  -0.25181  -0.24874  -0.24451
  Beta  occ. eigenvalues --   -0.23510  -0.22503  -0.21683  -0.20986  -0.20067
  Beta  occ. eigenvalues --   -0.16193  -0.16050  -0.15997  -0.15643  -0.14615
  Beta  occ. eigenvalues --   -0.10757
  Beta virt. eigenvalues --    0.00279   0.04965   0.06753   0.06891   0.07647
  Beta virt. eigenvalues --    0.08765   0.09876   0.09998   0.10464   0.10791
  Beta virt. eigenvalues --    0.11506   0.11864   0.13105   0.13385   0.13634
  Beta virt. eigenvalues --    0.13891   0.14291   0.15092   0.15319   0.15682
  Beta virt. eigenvalues --    0.15980   0.16547   0.16982   0.17087   0.17367
  Beta virt. eigenvalues --    0.17856   0.18042   0.18251   0.18756   0.18902
  Beta virt. eigenvalues --    0.19085   0.19279   0.19373   0.20193   0.20450
  Beta virt. eigenvalues --    0.21025   0.21069   0.21554   0.21786   0.21922
  Beta virt. eigenvalues --    0.22228   0.22826   0.22978   0.23299   0.23514
  Beta virt. eigenvalues --    0.23627   0.23983   0.24324   0.24977   0.25349
  Beta virt. eigenvalues --    0.25409   0.25794   0.26191   0.26853   0.27525
  Beta virt. eigenvalues --    0.27831   0.28166   0.28542   0.28932   0.29087
  Beta virt. eigenvalues --    0.29956   0.29995   0.30527   0.30915   0.31139
  Beta virt. eigenvalues --    0.31631   0.31877   0.32137   0.32478   0.32858
  Beta virt. eigenvalues --    0.33370   0.33962   0.34114   0.34601   0.34884
  Beta virt. eigenvalues --    0.35332   0.35647   0.35827   0.36205   0.36364
  Beta virt. eigenvalues --    0.36616   0.37155   0.37728   0.38334   0.38572
  Beta virt. eigenvalues --    0.38689   0.38780   0.39001   0.39262   0.39377
  Beta virt. eigenvalues --    0.40031   0.40165   0.40235   0.40716   0.41274
  Beta virt. eigenvalues --    0.41648   0.41930   0.42559   0.42651   0.42973
  Beta virt. eigenvalues --    0.43065   0.43362   0.43735   0.44046   0.44389
  Beta virt. eigenvalues --    0.45210   0.45363   0.45652   0.46315   0.46663
  Beta virt. eigenvalues --    0.47021   0.47139   0.47682   0.48410   0.49461
  Beta virt. eigenvalues --    0.49637   0.50173   0.50378   0.51238   0.51377
  Beta virt. eigenvalues --    0.51794   0.51990   0.52771   0.53409   0.54066
  Beta virt. eigenvalues --    0.54612   0.55747   0.56406   0.57252   0.58748
  Beta virt. eigenvalues --    0.59140   0.60641   0.60885   0.61701   0.62643
  Beta virt. eigenvalues --    0.63183   0.63914   0.64185   0.65074   0.66481
  Beta virt. eigenvalues --    0.67021   0.67117   0.67554   0.67847   0.68912
  Beta virt. eigenvalues --    0.69013   0.69334   0.70383   0.71039   0.72538
  Beta virt. eigenvalues --    0.72690   0.73056   0.73666   0.74258   0.74412
  Beta virt. eigenvalues --    0.75108   0.75613   0.76181   0.76543   0.76738
  Beta virt. eigenvalues --    0.77758   0.78583   0.79341   0.79969   0.80840
  Beta virt. eigenvalues --    0.81114   0.81654   0.82538   0.83281   0.83863
  Beta virt. eigenvalues --    0.86046   0.86769   0.87310   0.87417   0.87671
  Beta virt. eigenvalues --    0.89848   0.90566   0.90951   0.91631   0.92328
  Beta virt. eigenvalues --    0.94205   0.95079   0.97251   0.97749   0.98504
  Beta virt. eigenvalues --    0.98644   0.99818   1.00055   1.01632   1.02844
  Beta virt. eigenvalues --    1.03855   1.04557   1.04677   1.05033   1.05500
  Beta virt. eigenvalues --    1.05854   1.06599   1.09084   1.09407   1.09740
  Beta virt. eigenvalues --    1.10348   1.10773   1.11167   1.13260   1.13912
  Beta virt. eigenvalues --    1.14651   1.15058   1.15497   1.16450   1.17252
  Beta virt. eigenvalues --    1.17914   1.19095   1.19425   1.20247   1.20546
  Beta virt. eigenvalues --    1.21120   1.22411   1.23353   1.23652   1.24768
  Beta virt. eigenvalues --    1.25741   1.26248   1.26866   1.27359   1.28898
  Beta virt. eigenvalues --    1.28972   1.29613   1.30075   1.31315   1.32802
  Beta virt. eigenvalues --    1.34101   1.34680   1.35158   1.35829   1.36296
  Beta virt. eigenvalues --    1.36908   1.37407   1.37781   1.37966   1.39928
  Beta virt. eigenvalues --    1.40924   1.42861   1.43958   1.44383   1.45825
  Beta virt. eigenvalues --    1.47933   1.48685   1.49686   1.52747   1.54323
  Beta virt. eigenvalues --    1.54653   1.54986   1.56494   1.56979   1.58134
  Beta virt. eigenvalues --    1.60305   1.60484   1.61486   1.62981   1.63170
  Beta virt. eigenvalues --    1.63720   1.65109   1.65797   1.65931   1.66725
  Beta virt. eigenvalues --    1.67249   1.70318   1.70690   1.72255   1.72755
  Beta virt. eigenvalues --    1.73605   1.75654   1.76057   1.76672   1.77550
  Beta virt. eigenvalues --    1.78888   1.79485   1.80200   1.81411   1.81799
  Beta virt. eigenvalues --    1.82518   1.84535   1.85588   1.86206   1.86681
  Beta virt. eigenvalues --    1.88992   1.90480   1.92435   1.92629   1.93667
  Beta virt. eigenvalues --    1.95748   1.97097   1.98754   1.99650   2.00104
  Beta virt. eigenvalues --    2.00485   2.00673   2.01109   2.03626   2.03932
  Beta virt. eigenvalues --    2.04773   2.04980   2.07167   2.07824   2.08178
  Beta virt. eigenvalues --    2.08580   2.08857   2.11330   2.12144   2.13678
  Beta virt. eigenvalues --    2.15867   2.16063   2.17319   2.19177   2.20292
  Beta virt. eigenvalues --    2.21902   2.23355   2.23657   2.25154   2.25427
  Beta virt. eigenvalues --    2.27174   2.29045   2.31702   2.34668   2.36612
  Beta virt. eigenvalues --    2.36852   2.42863   2.42953   2.43939   2.46313
  Beta virt. eigenvalues --    2.48206   2.49542   2.53463   2.54211   2.57368
  Beta virt. eigenvalues --    2.58075   2.58376   2.58641   2.61187   2.61427
  Beta virt. eigenvalues --    2.63407   2.65607   2.71278   2.72293   2.73212
  Beta virt. eigenvalues --    2.73995   2.74511   2.77972   2.79383   2.79989
  Beta virt. eigenvalues --    2.81972   2.82557   2.83449   2.86020   2.86079
  Beta virt. eigenvalues --    2.87486   2.87764   2.88183   2.90275   2.91243
  Beta virt. eigenvalues --    2.91787   2.92582   2.93223   2.93504   2.93962
  Beta virt. eigenvalues --    2.94304   2.95523   2.96076   2.96733   2.97737
  Beta virt. eigenvalues --    2.98288   2.98325   2.99365   3.00533   3.02846
  Beta virt. eigenvalues --    3.04387   3.06363   3.07447   3.10616   3.13447
  Beta virt. eigenvalues --    3.13873   3.16123   3.18873   3.19410   3.21333
  Beta virt. eigenvalues --    3.22542   3.23055   3.23428   3.23705   3.24454
  Beta virt. eigenvalues --    3.24608   3.25328   3.27585   3.28974   3.30294
  Beta virt. eigenvalues --    3.30887   3.31979   3.32552   3.33490   3.35983
  Beta virt. eigenvalues --    3.37624   3.39463   3.41564   3.42913   3.43992
  Beta virt. eigenvalues --    3.44066   3.50912   3.53239   3.55147   3.57692
  Beta virt. eigenvalues --    3.60944   3.62501   3.62939   3.65299   3.67154
  Beta virt. eigenvalues --    3.68819   3.69555   3.72303   3.73405   3.79792
  Beta virt. eigenvalues --    3.82516   3.88017   3.91227   3.93078   3.93506
  Beta virt. eigenvalues --    3.99402   4.01506   4.04869   4.06959   4.11915
  Beta virt. eigenvalues --    4.13476   4.17358   4.27116   4.30418   4.34958
  Beta virt. eigenvalues --    4.40681   4.44068   4.59243   4.93013   4.94950
  Beta virt. eigenvalues --    4.96879   5.10328   5.12998   5.14498   5.15483
  Beta virt. eigenvalues --    5.17421   5.19866   5.21105   5.21335   5.21479
  Beta virt. eigenvalues --    5.23767   5.28594   5.39258   5.41902   5.42397
  Beta virt. eigenvalues --    5.58302   5.61906   5.68030   5.83537   5.90788
  Beta virt. eigenvalues --    5.94325   5.97212   8.29701  17.42345  17.53089
  Beta virt. eigenvalues --   17.65271  23.61028  23.77696  23.97492  23.98767
  Beta virt. eigenvalues --   24.01601  24.03923  24.04109  24.04856  24.06712
  Beta virt. eigenvalues --   24.10055  24.11942  24.14590  24.20865  24.23826
  Beta virt. eigenvalues --   24.28273  49.95763  49.98863  50.05709  50.09527
  Beta virt. eigenvalues --   50.13417  50.16778  50.22372 189.40601
          Condensed to atoms (all electrons):
[...]
 0006430,0.00001584,-0.00002246,0.00001330,-0.08067669,-0.00582177,-0.0
 0019139,0.00727705,0.03470082,0.00920122,0.05894610,-0.00072043,-0.000
 26559,0.00035704,0.00000971,0.00074074,-0.00041845,0.00022184,-0.00072
 048,0.00041490,0.00105155,0.00153235,-0.00135901,0.00119540,-0.0009757
 6,0.00042626,-0.00044386,0.00011289,0.00002435,0.00004391,-0.00367447,
 0.00234839,-0.00095875,0.00147672,0.00047241,0.00126168,0.00000520,-0.
 00032827,-0.00139774,0.00038946,-0.00023788,0.00484596,-0.01041086,0.0
 0429914,0.00024792,-0.01256471,-0.00659563,-0.00174860,-0.00020431,0.0
 0128815,-0.00506594,0.00187817,-0.00213936,-0.00066099,0.00316015,-0.0
 0154020,0.00028326,-0.00077884,0.00052330,-0.00077227,0.00697691,-0.00
 307369,-0.00000615,0.00003363,-0.00005100,-0.00012985,0.00002070,-0.00
 000063,-0.00007388,-0.00006750,0.00003906,-0.00052953,-0.00036058,0.00
 000424,0.00005571,-0.00092421,0.00091632,-0.00001793,0.00013775,-0.000
 95164,0.00001996,0.00007145,-0.00005280,0.00002837,-0.00004817,0.00001
 354,0.00684124,-0.47681753,-0.15945267,-0.00233431,-0.01009242,-0.0113
 4215,-0.00296557,0.50261346,0.00025564,0.00009252,-0.00007548,-0.00003
 439,-0.00023355,0.00014044,-0.00005934,0.00024302,-0.00012240,-0.00045
 408,-0.00043350,0.00048308,-0.00036217,0.00026931,-0.00016746,0.000120
 67,-0.00003008,0.00003169,0.00010562,0.00094798,-0.00074200,-0.0004286
 9,-0.00040924,-0.00044255,-0.00040045,-0.00000237,0.00022900,0.0003845
 7,-0.00005974,0.00002031,-0.00213955,0.00248085,-0.00069638,0.00733197
 ,0.00860015,0.00689929,0.00103862,-0.00025425,-0.00098506,-0.00047722,
 -0.00206896,0.00263962,0.00016184,-0.00081692,0.00068713,-0.00017254,0
 .00024462,-0.00004802,0.00014392,-0.00094055,0.00221207,-0.00000233,-0
 .00002011,-0.00001116,0.00003468,-0.00001275,-0.00000961,0.00001703,0.
 00001479,-0.00001912,0.00024051,-0.00015011,-0.00026059,-0.00032089,-0
 .00000210,0.00008923,-0.00013476,0.00027236,-0.00006965,0.00022121,-0.
 00004858,-0.00008661,-0.00000856,0.00000778,-0.00001815,0.00158575,-0.
 14779233,-0.13580844,-0.00488855,-0.00468374,0.01297783,0.00362119,0.1
 7939027,0.13128330,0.00012135,0.00001408,-0.00004943,-0.00002881,-0.00
 007076,0.00005070,0.00001103,0.00006017,-0.00002262,-0.00018496,-0.000
 23635,0.00026327,-0.00000870,0.00007177,-0.00011018,-0.00000589,-0.000
 01765,0.00004395,-0.00005947,0.00114920,-0.00063545,0.00057795,-0.0007
 4148,0.00003450,-0.00008964,0.00006018,-0.00000778,0.00005705,0.000187
 94,-0.00013757,-0.00156731,0.00478540,-0.00327766,0.00798624,-0.004017
 02,0.00473848,0.00046766,-0.00025463,-0.00015916,-0.00117207,0.0004957
 4,0.00110559,-0.00024777,-0.00104956,0.00078843,0.00014663,-0.00024230
 ,0.00014249,-0.00009594,-0.00203720,0.00339560,0.00002168,-0.00000422,
 -0.00001824,0.00000262,-0.00000071,-0.00000435,-0.00000493,-0.00000841
 ,-0.00000113,0.00111857,0.00006304,-0.00051905,0.00018407,-0.00041029,
 0.00015830,-0.00008201,-0.00069246,0.00026679,-0.00012132,-0.00004972,
 0.00001979,-0.00000245,-0.00000567,-0.00000252,-0.06165702,0.00172236,
 -0.02086183,-0.00403317,0.00970634,-0.02688683,0.00965046,0.00127326,-
 0.00719943,0.10761608,-0.00053603,-0.00021034,0.00024430,0.00000504,0.
 00052937,-0.00034959,0.00015565,-0.00053688,0.00030466,0.00087782,0.00
 125778,-0.00080443,0.00085105,-0.00074585,0.00026609,-0.00031504,0.000
 09797,-0.00000100,0.00001026,-0.00273718,0.00154457,-0.00055392,0.0001
 3191,-0.00127513,0.00094747,0.00008347,0.00002977,-0.00086977,0.000399
 95,0.00002150,0.00347362,-0.00596222,0.00295805,-0.00116095,0.00076509
 ,0.01670457,-0.00189114,-0.00059321,-0.00015355,-0.00166970,0.00411533
 ,0.00002086,-0.00062335,0.00234651,-0.00129294,0.00018928,-0.00058058,
 0.00030374,-0.00163291,0.00487079,-0.00172959,-0.00000427,0.00003198,-
 0.00001758,-0.00009654,0.00001937,0.00000785,-0.00005175,-0.00004456,0
 .00003730,-0.00019181,-0.00041511,0.00055699,0.00012276,-0.00065488,0.
 00017213,0.00046649,0.00052074,0.00004358,-0.00007035,0.00005961,-0.00
 006174,0.00002598,-0.00003170,0.00001219,0.01146242,-0.07772940,0.0033
 3862,0.01773827,0.00230481,0.02136609,-0.00803810,0.00095624,-0.028770
 86,-0.08240709,0.30468902,0.00070797,0.00032010,-0.00028267,0.00000927
 ,-0.00073064,0.00044316,-0.00020888,0.00074665,-0.00037501,-0.00111092
 ,-0.00168267,0.00106946,-0.00115135,0.00106656,-0.00029586,0.00043665,
 -0.00013044,-0.00002153,-0.00004946,0.00354631,-0.00206277,0.00079591,
 -0.00056456,0.00119926,-0.00111625,0.00012364,0.00012063,0.00114174,-0
 .00078186,-0.00004467,-0.00384568,0.00757672,-0.00374132,-0.00839256,0
 .00555466,-0.01036087,0.00143013,0.00054598,-0.00033437,0.00511581,-0.
 00406133,-0.00142988,0.00099101,-0.00288389,0.00181761,-0.00020185,0.0
 0096884,-0.00041285,0.00223704,-0.00595287,0.00363950,-0.00000516,-0.0
 0006222,0.00000536,0.00013604,-0.00003254,-0.00002150,0.00007322,0.000
 05792,-0.00006526,-0.00001021,0.00031851,-0.00057255,0.00013717,0.0013
 9789,-0.00043933,-0.00034520,-0.00071269,0.00000452,-0.00006696,-0.000
 07696,0.00007708,-0.00004269,0.00004021,-0.00002703,-0.02654063,-0.012
 29728,-0.13047593,-0.00391255,0.00149720,-0.00600704,-0.00982495,-0.00
 535362,-0.01921319,0.07328078,-0.05895016,0.25123123,-0.00018953,-0.00
 005227,0.00006815,0.00002144,0.00015048,-0.00011286,0.00002374,-0.0001
 4686,0.00008440,0.00034155,0.00042166,-0.00027430,0.00017010,-0.000232
 32,0.00008575,-0.00005020,0.00003905,-0.00001289,-0.00001686,-0.001065
 97,0.00069910,-0.00004042,0.00024942,-0.00053855,0.00027136,-0.0000463
 9,-0.00001482,-0.00016891,0.00000771,0.00007856,0.00143088,-0.00276038
 ,0.00169406,0.00054133,-0.00077253,0.00373563,-0.00045184,-0.00034594,
 0.00001344,-0.00072539,0.00096811,-0.00006946,-0.00007272,0.00101100,-
 0.00070231,-0.00000183,-0.00000933,-0.00000451,-0.00085490,0.00219533,
 -0.00091465,-0.00001155,0.00000614,0.00000612,-0.00001996,0.00000442,0
 .00000426,-0.00000724,-0.00000532,0.00000669,-0.00043650,-0.00020268,0
 .00057183,-0.00007015,0.00000024,-0.00001020,0.00000180,0.00006858,0.0
 0003787,-0.00000522,0.00000481,0.00000408,0.00000570,-0.00000469,0.000
 00338,-0.01046214,0.00804656,-0.01876038,-0.00199941,0.00030090,-0.002
 53042,-0.00049702,0.00113791,0.00271202,-0.06073878,0.03467257,-0.0119
 7943,0.56342286,0.00026224,0.00013007,-0.00012362,0.00001750,-0.000284
 14,0.00017059,-0.00006941,0.00027158,-0.00015967,-0.00040992,-0.000682
 81,0.00047322,-0.00040738,0.00042596,-0.00013759,0.00015095,-0.0000688
 0,0.00001289,-0.00013745,0.00160717,-0.00093835,0.00047309,-0.00060748
 ,0.00067696,-0.00042835,0.00003185,-0.00006144,0.00033412,-0.00029136,
 0.00005193,-0.00241562,0.00321557,-0.00059577,-0.00061480,0.00064824,-
 0.00320453,0.00065534,0.00008454,0.00006225,0.00143879,-0.00145623,0.0
 0022575,0.00037197,-0.00143334,0.00084523,-0.00000326,0.00030476,-0.00
 017853,0.00091516,-0.00452705,0.00313711,0.00000574,-0.00002007,0.0000
 0539,0.00005965,-0.00000999,-0.00000595,0.00003172,0.00002629,-0.00002
 162,0.00010518,0.00034239,-0.00048284,0.00007370,0.00041472,-0.0002402
 2,-0.00015633,-0.00031301,0.00011642,-0.00007793,-0.00006412,0.0000571
 1,-0.00002236,0.00001549,-0.00000659,0.00887774,0.00388522,0.03801740,
 -0.00711850,0.00337133,-0.00731740,-0.00116861,-0.00742407,-0.00681741
 ,0.03907408,-0.16973650,0.02632344,0.05000061,0.45740306,-0.00001264,-
 0.00004373,0.00002397,-0.00003695,0.00005787,-0.00003098,0.00001647,-0
 .00006253,0.00003227,-0.00000379,0.00009164,-0.00010184,0.00011324,-0.
 00008848,0.00004561,-0.00005127,0.00001584,-0.00000088,0.00014149,-0.0
 0006683,0.00007655,-0.00002980,0.00015383,0.00006777,-0.00001317,-0.00
 017603,0.00006244,0.00001754,0.00022018,-0.00014564,0.00022785,0.00101
 732,-0.00115375,0.00074644,-0.00044320,-0.00127975,-0.00016284,0.00022
 752,-0.00006961,-0.00016716,0.00007580,-0.00032690,-0.00026893,0.00001
 547,-0.00002610,-0.00000649,-0.00022673,0.00013146,0.00051616,0.000558
 62,-0.00036361,0.00000868,0.00001475,-0.00000221,-0.00002436,0.0000050
 7,0.00000591,-0.00001510,-0.00001119,0.00001146,0.00039324,0.00018248,
 -0.00019524,0.00004907,-0.00022715,0.00017061,-0.00008844,-0.00000820,
 -0.00006133,0.00003249,0.00004680,-0.00002680,0.00001243,-0.00000492,0
 .00000342,-0.01636473,0.02624789,-0.03610818,-0.00159491,0.00039557,0.
 00101692,0.00125316,0.00364168,0.00243882,-0.00783370,0.01187943,-0.07
 012308,-0.02583816,0.06715575,0.57413635,-0.00002029,0.00000536,-0.000
 00989,0.00001585,0.00000644,0.00000577,-0.00000297,0.00000149,-0.00000
 935,0.00003896,0.00000506,-0.00003773,-0.00001810,0.00001042,0.0000110
 6,0.00001440,0.00000265,0.00000006,-0.00009096,-0.00009689,0.00007537,
 0.00009259,0.00028968,0.00000178,0.00008538,-0.00004888,-0.00000564,0.
 00000234,-0.00008033,0.00001793,0.00079282,-0.00098223,0.00055676,-0.0
 0065812,-0.00027000,-0.00014282,-0.00007466,-0.00009562,0.00013932,0.0
 0004890,0.00011072,-0.00006312,0.00006763,0.00010506,-0.00012423,-0.00
 000416,0.00008137,-0.00004659,-0.00201781,-0.00046329,0.00085479,-0.00
 000672,-0.00000252,0.00000653,0.00000672,-0.00000086,-0.00000100,0.000
 00466,0.00000375,-0.00000277,-0.00038862,-0.00015739,0.00043360,-0.000
 02369,0.00010910,-0.00007359,-0.00000469,0.00000337,-0.00000466,-0.000
 01462,-0.00001466,0.00000885,-0.00000222,0.00000263,-0.00000040,0.0002
 3840,0.00347238,0.00452629,-0.00010233,-0.00043652,-0.00086301,0.00080
 568,-0.00206413,0.00012691,-0.00744618,0.01139513,-0.00201072,-0.21475
 980,0.06167211,0.11514727,0.22831145,-0.00006605,0.00000315,-0.0000044
 3,0.00002445,0.00003589,-0.00001129,-0.00000071,-0.00002109,0.00000552
 ,0.00011572,0.00009890,-0.00009982,-0.00000305,-0.00003530,0.00002302,
 0.00001319,0.00000930,-0.00000435,-0.00013439,-0.00042660,0.00026815,0
 .00002090,0.00046915,-0.00025530,0.00016431,-0.00000587,-0.00000833,-0
 .00003877,-0.00010076,0.00007751,0.00132926,-0.00250768,0.00117135,-0.
 00041669,-0.00025990,0.00022663,-0.00009790,-0.00016345,0.00013015,-0.
 00017598,0.00023504,-0.00005583,0.00038131,0.00039209,-0.00040129,-0.0
 0002550,0.00013216,-0.00007804,-0.00008649,0.00133090,-0.00145560,-0.0
 0001037,0.00000008,0.00001058,0.00000555,0.00000058,-0.00000181,0.0000
 0455,0.00000421,-0.00000275,-0.00093339,0.00029873,0.00020754,-0.00008
 753,0.00015724,-0.00008759,0.00000823,0.00007964,-0.00005131,0.0000103
 2,-0.00001305,0.00000503,-0.00000147,0.00000265,0.00000050,0.00053456,
 0.00027515,-0.00769701,0.00040227,-0.00030623,0.00156307,-0.00014915,0
 .00053256,0.00097880,0.02903349,-0.02428387,-0.00550285,0.05559923,-0.
 06988136,-0.04163932,-0.07369754,0.08551810,0.00001605,-0.00002859,0.0
 0000438,-0.00002059,0.00001627,0.00000354,0.00000734,-0.00002433,0.000
 00582,-0.00004682,-0.00000585,-0.00000542,0.00005620,-0.00002711,-0.00
 000266,-0.00002843,0.00000651,0.00000689,0.00014995,0.00010185,-0.0000
 6649,-0.00005481,-0.00033904,0.00010955,-0.00008578,-0.00000652,0.0000
 3836,0.00000845,0.00011959,-0.00003638,-0.00115432,0.00170820,-0.00090
 237,0.00066622,-0.00002463,0.00001921,0.00000317,0.00011365,-0.0000819
 5,-0.00005275,0.00000783,0.00005211,-0.00045435,-0.00015742,0.00010476
 ,0.00001087,-0.00014168,0.00007074,0.00078205,-0.00004304,-0.00131133,
 0.00000802,0.00000691,-0.00000072,-0.00001188,0.00000092,0.00000289,-0
 .00000676,-0.00000519,0.00000510,0.00107295,-0.00023012,0.00014023,0.0
 0005245,-0.00018290,0.00009132,0.00001177,-0.00003129,0.00002296,0.000
 00866,0.00001943,-0.00000886,0.00000372,-0.00000279,0.00000235,-0.0023
 7418,0.00124311,0.00400900,0.00001398,-0.00005280,-0.00091828,0.000465
 64,-0.00005113,-0.00082313,-0.01451230,0.01122927,0.00604130,0.1223557
 1,-0.05153448,-0.13704874,-0.12627974,0.04554761,0.14162660,0.00002283
 ,-0.00001236,-0.00000052,-0.00001488,-0.00000219,0.00000136,0.00000826
 ,-0.00000287,0.00000462,-0.00004554,-0.00001595,0.00003958,0.00002891,
 -0.00000168,-0.00000953,-0.00002006,-0.00000495,0.00000547,0.00004534,
 0.00018835,-0.00012767,0.00001768,-0.00015046,0.00013881,-0.00006404,-
 0.00001630,0.00000117,-0.00000105,0.00007837,-0.00005739,-0.00059497,0
 .00088177,-0.00039013,0.00000486,-0.00000080,-0.00025347,-0.00000309,0
 .00011662,-0.00004449,0.00005872,-0.00005158,0.00000826,-0.00014500,-0
 .00019062,0.00018156,0.00001807,-0.00009818,0.00006193,-0.00004995,-0.
 00090722,0.00114014,0.00000726,0.00000242,-0.00000597,-0.00000706,0.00
 000080,0.00000021,-0.00000517,-0.00000440,0.00000308,0.00034797,-0.000
 02486,-0.00013919,0.00004929,-0.00010290,0.00005775,0.,-0.00000385,-0.
 00000264,-0.00000292,0.00001207,-0.00001008,0.00000240,-0.00000253,0.0
 0000002,0.00126193,-0.00085458,-0.00088745,0.00006342,-0.00005369,0.00
 066156,-0.00040948,0.00152773,-0.00075449,0.01368409,0.01390244,-0.000
 88084,-0.20444339,-0.13258798,-0.00008509,-0.01557161,-0.01639673,-0.0
 0311462,0.21126149,-0.00005965,-0.00002370,0.00002907,-0.00000279,0.00
 006750,-0.00003646,0.00001924,-0.00006546,0.00003313,0.00009415,0.0001
 3616,-0.00011278,0.00010594,-0.00009151,0.00003417,-0.00003807,0.00001
 372,0.00000167,-0.00001438,-0.00029559,0.00016135,0.00001104,0.0001280
 8,-0.00010251,0.00010383,-0.00003960,0.00001742,-0.00008378,0.00007891
 ,-0.00002343,0.00050991,-0.00068058,0.00028855,0.00016809,-0.00015084,
 0.00122852,-0.00022415,-0.00003453,-0.00001569,-0.00022513,0.00037870,
 -0.00008041,-0.00006280,0.00025697,-0.00014152,0.00002578,-0.00009473,
 0.00005047,-0.00015003,0.00062767,-0.00063995,0.00000038,0.00000441,-0
 .00000175,-0.00001242,0.00000248,0.00000049,-0.00000726,-0.00000627,0.
 00000550,-0.00001611,-0.00002640,0.00007101,0.00002586,-0.00009610,0.0
 0004134,0.00001229,0.00003327,0.00000777,-0.00001244,0.00001083,-0.000
 00593,0.00000430,-0.00000407,0.00000126,-0.00402489,-0.00191499,-0.008
 00616,0.00046618,0.00003305,0.00035983,0.00053214,0.00192443,0.0003869
 2,-0.00930673,-0.03437251,0.01193167,-0.12716369,-0.15614379,-0.001709
 59,0.00574813,0.00927667,0.00015609,0.13880310,0.18333377,-0.00000296,
 0.00000143,-0.00000731,0.00000677,-0.00000414,0.00000501,-0.00000332,0
 .00000398,-0.00000502,0.00000998,0.00000407,0.00001439,-0.00001795,0.0
 0000899,-0.00000484,0.00000796,0.00000083,-0.00000289,-0.00002472,-0.0
 0003035,0.00000873,-0.00001136,0.00008117,0.00000634,0.00000848,0.0000
 2274,-0.00002912,-0.00000343,-0.00002457,0.00001961,0.00020414,-0.0002
 7049,0.00004100,-0.00029110,-0.00013646,-0.00071772,0.00002271,0.00002
 468,0.00005635,0.00002422,-0.00005101,-0.00007099,0.00008155,0.0000309
 9,-0.00004114,-0.00000548,0.00003447,-0.00002222,0.00008886,0.00042512
 ,-0.00047754,-0.00000146,-0.00000121,0.00000131,0.00000244,0.00000010,
 -0.00000088,0.00000142,0.00000137,-0.00000070,-0.00015265,-0.00000492,
 0.00001411,-0.00001047,0.00004265,-0.00001833,-0.00000063,0.00001003,-
 0.00002778,0.00000229,-0.00000107,0.00000251,-0.00000063,0.00000058,-0
 .00000017,0.00285715,0.00413102,0.00329571,0.00017693,-0.00051799,-0.0
 0015880,-0.00063817,-0.00165328,-0.00003480,0.00490714,0.01594430,-0.0
 0358106,-0.00207249,-0.00720617,-0.05076045,0.01364168,0.01171694,0.00
 232396,0.00359352,-0.00295424,0.04787787,0.00001757,0.00000837,-0.0000
 0601,0.00000065,-0.00002032,0.00001373,-0.00000958,0.00001975,-0.00001
 170,-0.00003066,-0.00004983,0.00002043,-0.00003895,0.00002915,-0.00000
 503,0.00001594,-0.00000101,-0.00000133,0.00001984,0.00006078,-0.000053
 06,0.00005239,-0.00001800,0.00008319,-0.00004493,-0.00001341,0.0000191
 1,0.00005593,-0.00003268,0.00000694,-0.00022545,0.00031443,-0.00013427
 ,0.00009175,0.00001365,-0.00011793,0.00005062,-0.00002835,-0.00000831,
 0.00007444,-0.00012360,0.00001737,-0.00006147,-0.00006630,0.00002502,-
 0.00001733,0.00003862,-0.00001937,-0.00031257,-0.00051330,0.00010204,-
 0.00000139,-0.00000052,0.00000277,0.00000397,-0.00000103,0.00000033,0.
 00000297,0.00000294,-0.00000221,0.00012584,-0.00003176,0.00007217,-0.0
 0000760,0.00004418,-0.00001348,-0.00001931,-0.00003042,0.00001304,0.00
 000441,-0.00000362,0.00000383,-0.00000127,0.00000143,-0.00000110,-0.00
 041832,0.00085039,0.00198844,-0.00085219,0.00048384,-0.00067535,0.0004
 8571,-0.00015547,-0.00026470,-0.00409905,0.00381647,-0.01479647,-0.070
 20700,-0.01890182,-0.06607801,0.01068176,0.00467437,0.02250411,-0.0055
 0431,-0.00522608,-0.02240043,0.07016760,-0.00004565,-0.00001524,0.0000
 1096,0.00000229,0.00003427,-0.00002873,0.00001077,-0.00003371,0.000021
 84,0.00007290,0.00010706,-0.00004399,0.00005179,-0.00006065,0.00000751
 ,-0.00001874,0.00000339,-0.00000057,-0.00001369,-0.00024988,0.00014488
 ,-0.00010673,0.00006182,-0.00012555,0.00008331,0.00001374,-0.00000847,
 -0.00007317,0.00001617,0.00001942,0.00045941,-0.00076767,0.00041184,-0
 .00004237,-0.00002746,0.00097666,-0.00006860,-0.00006801,0.00000482,-0
 .00026000,0.00022216,0.00001995,0.00001687,0.00021399,-0.00012508,0.00
 000762,-0.00001978,0.00000472,0.00003228,0.00062092,-0.00043156,-0.000
 00222,0.00000205,0.00000110,-0.00000412,0.00000157,0.00000115,-0.00000
 187,-0.00000144,0.00000239,-0.00016505,0.00000712,0.00000362,-0.000028
 24,-0.00004543,0.00000316,0.00006084,0.00007263,-0.00000421,0.00000642
 ,0.00000215,0.00000304,0.00000107,-0.00000150,0.00000145,0.00085595,-0
 .00569149,-0.00183821,0.00179715,-0.00067591,0.00150305,-0.00062525,0.
 00276669,-0.00038222,0.01385521,-0.00454517,0.03776029,-0.02207636,-0.
 05923411,-0.06729562,-0.00461400,-0.00084705,-0.00738834,-0.00402698,-
 0.00226595,-0.01962957,0.01485915,0.07040475,0.00004806,0.00002944,-0.
 00001999,0.00000698,-0.00005486,0.00003067,-0.00001617,0.00005848,-0.0
 0002585,-0.00006580,-0.00011323,0.00008232,-0.00009347,0.00007766,-0.0
 0002221,0.00003694,-0.00001022,-0.00000301,-0.00003958,0.00024126,-0.0
 0012642,0.00005186,-0.00002510,-0.00002326,-0.00005757,0.00001931,-0.0
 0001527,0.00007260,-0.00006407,0.00001755,-0.00017859,0.00018593,-0.00
 014826,0.00015606,0.00038257,-0.00032325,0.00015553,-0.00001151,-0.000
 01912,0.00017380,-0.00026201,0.00001315,0.00019817,-0.00016094,0.00012
 249,-0.00001173,0.00009217,-0.00004210,0.00052396,0.00010697,0.0001340
 9,-0.00000187,-0.00000756,-0.00000189,0.00001149,-0.00000286,-0.000002
 91,0.00000614,0.00000437,-0.00000603,-0.00021727,0.00004059,-0.0001301
 6,-0.00001413,0.00011023,-0.00004215,-0.00002914,-0.00004838,0.0000211
 6,-0.00000644,-0.00001389,0.00000621,-0.00000389,0.00000287,-0.0000025
 7,0.00075296,-0.00053221,0.00397182,-0.00070686,0.00054224,-0.00035523
 ,-0.00017193,0.00044234,-0.00049798,-0.00695656,0.00642072,-0.01576135
 ,-0.06832563,-0.05829926,-0.28039847,-0.00587871,-0.00457547,-0.013474
 71,0.00086455,-0.00097581,0.00229486,0.07971625,0.05640024,0.30474788\
 \-0.00000635,-0.00000018,0.00000200,0.00000230,0.00000325,-0.00000338,
 0.00000203,-0.00000340,0.00000013,0.00000562,0.00000892,0.00000178,-0.
 00000353,0.00001091,0.00000135,-0.00000215,-0.00000017,0.00000128,0.00
 001129,-0.00005571,-0.00001332,-0.00001287,-0.00000079,0.00001031,0.00
 000543,0.00000598,0.00000344,0.00000343,-0.00003693,-0.00000611,0.0000
 0466,0.00002142,-0.00001450,-0.00000097,0.00000184,0.00000455,-0.00000
 847,0.00002556,-0.00001335,0.00000110,-0.00000565,0.00000712,-0.000005
 38,0.00004769,0.00002015,-0.00000473,0.00002538,0.00000173,0.00004522,
 -0.00000562,0.00002095,0.00000058,-0.00000043,-0.00000113,-0.00000033,
 -0.00000078,-0.00000042,-0.00000073,0.00000058,-0.00000062,-0.00004952
 ,-0.00002613,-0.00002122,-0.00001283,-0.00002158,0.00001909,0.00000002
 ,0.00000047,0.00000056,0.00002041,0.00000201,-0.00001180,0.00000059,-0
 .00000001,-0.00000045,-0.00000059,-0.00000925,0.00001083,-0.00000631,0
 .00000342,0.00000135,0.00000369,0.00000375,0.00000425,-0.00000389,0.00
 002495,-0.00002466,0.00000843,-0.00002689,0.00001117,0.00000231,0.0000
 0167,-0.00000596,0.00000221,0.00000344,-0.00000218,-0.00000065,0.00000
 228,-0.00000296\\\@


 A MAN IS EXACTLY AS GREAT AS THE TIDE SURGING
 BENEATH HIM.      - BISMARCK
 Job cpu time:       0 days 19 hours 14 minutes 32.4 seconds.
 Elapsed time:       0 days  2 hours 32 minutes  5.8 seconds.
 File lengths (MBytes):  RWF=   2191 Int=      0 D2E=      0 Chk=     39 Scr=      1
 Normal termination of Gaussian 16 at Sun Jan  7 07:54:00 2024.
