
Running Job 1 of 1 055-an-SM12.in
qchem 055-an-SM12.in_110101.0 /expanse/lustre/scratch/selhajj/temp_project/qcscratch/28444948/qchem110101/ 0
/cm/shared/apps/spack/cpu/opt/spack/linux-centos8-zen2/gcc-10.2.0/qchem-5.4-akfmr7b3t57bfs6qan3padb2wnb2i7cl/exe/qcprog.exe_s 055-an-SM12.in_110101.0 /expanse/lustre/scratch/selhajj/temp_project/qcscratch/28444948/qchem110101/
                  Welcome to Q-Chem
     A Quantum Leap Into The Future Of Chemistry


 Q-Chem 5.4, Q-Chem, Inc., Pleasanton, CA (2021)

 License issued to: University of California, San Diego (site)

 E. Epifanovsky,  A. T. B. Gilbert,  Xintian Feng,  Joonho Lee,  Yuezhi Mao,  
 N. Mardirossian,  P. Pokhilko,  A. White,  M. Wormit,  M. P. Coons,  
 A. L. Dempwolff,  Zhengting Gan,  D. Hait,  P. R. Horn,  L. D. Jacobson,  
 I. Kaliman,  J. Kussmann,  A. W. Lange,  Ka Un Lao,  D. S. Levine,  Jie Liu,  
 S. C. McKenzie,  A. F. Morrison,  K. Nanda,  F. Plasser,  D. R. Rehn,  
 M. L. Vidal,  Zhi-Qiang You,  Ying Zhu,  B. Alam,  B. Albrecht,  
 A. Aldossary,  E. Alguire,  J. H. Andersen,  D. Barton,  K. Begam,  A. Behn,  
 Y. A. Bernard,  E. J. Berquist,  H. Burton,  A. Carreras,  K. Carter-Fenk,  
 R. Chakraborty,  A. D. Chien,  K. D. Closser,  V. Cofer-Shabica,  
 S. Dasgupta,  Jia Deng,  M. de Wergifosse,  M. Diedenhofen,  Hainam Do,  
 S. Ehlert,  Po-Tung Fang,  S. Fatehi,  Qingguo Feng,  J. Gayvert,  
 Qinghui Ge,  G. Gidofalvi,  M. Goldey,  J. Gomes,  C. Gonzalez-Espinoza,  
 S. Gulania,  A. Gunina,  M. W. D. Hanson-Heine,  P. H. P. Harbach,  
 A. W. Hauser,  M. F. Herbst,  M. Hernandez Vera,  M. Hodecker,  
 Z. C. Holden,  S. Houck,  Xunkun Huang,  Kerwin Hui,  B. C. Huynh,  
 M. Ivanov,  Hyunjun Ji,  Hanjie Jiang,  B. Kaduk,  S. Kaehler,  
 K. Khistyaev,  Jaehoon Kim,  P. Klunzinger,  Z. Koczor-Benda,  
 Joong Hoon Koh,  D. Kosenkov,  L. Koulias,  T. Kowalczyk,  C. M. Krauter,  
 K. Kue,  A. Kunitsa,  T. Kus,  A. Landau,  K. V. Lawler,  D. Lefrancois,  
 S. Lehtola,  Rain Li,  Yi-Pei Li,  Jiashu Liang,  M. Liebenthal,  
 Hung-Hsuan Lin,  You-Sheng Lin,  Fenglai Liu,  Kuan-Yu Liu,  
 M. Loipersberger,  A. Luenser,  A. Manjanath,  P. Manohar,  E. Mansoor,  
 S. F. Manzer,  Shan-Ping Mao,  A. V. Marenich,  T. Markovich,  S. Mason,  
 S. A. Maurer,  P. F. McLaughlin,  M. F. S. J. Menger,  J.-M. Mewes,  
 S. A. Mewes,  P. Morgante,  J. W. Mullinax,  T. S. Nguyen-Beck,  
 K. J. Oosterbaan,  G. Paran,  Alexander C. Paul,  Suranjan K. Paul,  
 F. Pavosevic,  Zheng Pei,  S. Prager,  E. I. Proynov,  E. Ramos,  B. Rana,  
 A. E. Rask,  A. Rettig,  R. M. Richard,  F. Rob,  E. Rossomme,  T. Scheele,  
 M. Scheurer,  M. Schneider,  N. Sergueev,  S. M. Sharada,  W. Skomorowski,  
 D. W. Small,  C. J. Stein,  Yu-Chuan Su,  E. J. Sundstrom,  Zhen Tao,  
 J. Thirman,  T. Tsuchimochi,  N. M. Tubman,  S. P. Veccham,  O. Vydrov,  
 J. Wenzel,  J. Witte,  A. Yamada,  Kun Yao,  S. Yeganeh,  S. R. Yost,  
 A. Zech,  Igor Ying Zhang,  Xing Zhang,  Yu Zhang,  D. Zuev,  
 A. Aspuru-Guzik,  A. T. Bell,  N. A. Besley,  K. B. Bravaya,  B. R. Brooks,  
 D. Casanova,  Jeng-Da Chai,  S. Coriani,  C. J. Cramer,  
 A. E. DePrince, III,  R. A. DiStasio Jr.,  A. Dreuw,  B. D. Dunietz,  
 T. R. Furlani,  W. A. Goddard III,  S. Grimme,  S. Hammes-Schiffer,  
 T. Head-Gordon,  W. J. Hehre,  Chao-Ping Hsu,  T.-C. Jagau,  Yousung Jung,  
 A. Klamt,  Jing Kong,  D. S. Lambrecht,  WanZhen Liang,  N. J. Mayhall,  
 C. W. McCurdy,  J. B. Neaton,  C. Ochsenfeld,  J. A. Parkhill,  R. Peverati,  
 V. A. Rassolov,  Yihan Shao,  L. V. Slipchenko,  T. Stauch,  R. P. Steele,  
 J. E. Subotnik,  A. J. W. Thom,  A. Tkatchenko,  D. G. Truhlar,  
 T. Van Voorhis,  T. A. Wesolowski,  K. B. Whaley,  H. L. Woodcock III,  
 P. M. Zimmerman,  S. Faraji,  P. M. W. Gill,  M. Head-Gordon,  
 J. M. Herbert,  A. I. Krylov

 Contributors to earlier versions of Q-Chem not listed above: 
 R. D. Adamson,  B. Austin,  R. Baer,  J. Baker,  G. J. O. Beran,  
 K. Brandhorst,  S. T. Brown,  E. F. C. Byrd,  A. K. Chakraborty,  
 G. K. L. Chan,  Chun-Min Chang,  Yunqing Chen,  C.-L. Cheng,  
 Siu Hung Chien,  D. M. Chipman,  D. L. Crittenden,  H. Dachsel,  
 R. J. Doerksen,  A. D. Dutoi,  R. G. Edgar,  J. Fosso-Tande,  
 L. Fusti-Molnar,  D. Ghosh,  A. Ghysels,  A. Golubeva-Zadorozhnaya,  
 J. Gonthier,  M. S. Gordon,  S. R. Gwaltney,  G. Hawkins,  J. E. Herr,  
 A. Heyden,  S. Hirata,  E. G. Hohenstein,  G. Kedziora,  F. J. Keil,  
 C. Kelley,  Jihan Kim,  R. A. King,  R. Z. Khaliullin,  P. P. Korambath,  
 W. Kurlancheek,  A. Laurent,  A. M. Lee,  M. S. Lee,  S. V. Levchenko,  
 Ching Yeh Lin,  D. Liotard,  E. Livshits,  R. C. Lochan,  I. Lotan,  
 L. A. Martinez-Martinez,  P. E. Maslen,  N. Nair,  D. P. O'Neill,  
 D. Neuhauser,  E. Neuscamman,  C. M. Oana,  R. Olivares-Amaya,  R. Olson,  
 T. M. Perrine,  B. Peters,  P. A. Pieniazek,  A. Prociuk,  Y. M. Rhee,  
 J. Ritchie,  M. A. Rohrdanz,  E. Rosta,  N. J. Russ,  H. F. Schaefer III,  
 M. W. Schmidt,  N. E. Schultz,  S. Sharma,  N. Shenvi,  C. D. Sherrill,  
 A. C. Simmonett,  A. Sodt,  T. Stein,  D. Stuck,  K. S. Thanthiriwatte,  
 V. Vanovschi,  L. Vogt,  Tao Wang,  A. Warshel,  M. A. Watson,  
 C. F. Williams,  Q. Wu,  X. Xu,  Jun Yang,  W. Zhang,  Yan Zhao

 Please cite Q-Chem as follows:
 Y. Shao et al., Mol. Phys. 113, 184-215 (2015)
 DOI: 10.1080/00268976.2014.952696

 Q-Chem 5.4.0 for Intel X86 EM64T Linux

 Parts of Q-Chem use Armadillo 9.800.1 (Horizon Scraper).
 http://arma.sourceforge.net/

 Q-Chem begins on Sat Feb  3 10:27:26 2024  

 Host: 
0

     Scratch files written to /expanse/lustre/scratch/selhajj/temp_project/qcscratch/28444948/qchem110101//
 May1621 |scratch|qcdevops|jenkins|workspace|build_RNUM    
 Processing $rem in /cm/shared/apps/spack/cpu/opt/spack/linux-centos8-zen2/gcc-10.2.0/qchem-5.4-akfmr7b3t57bfs6qan3padb2wnb2i7cl/config/preferences:
 Processing $rem in /home/selhajj/.qchemrc:
 Symmetry turned off for PCM/SM12/SMD calculation
 Method-specific promolecule density matrix will be built for SM12 calculation

 Checking the input file for inconsistencies... 	...done.

--------------------------------------------------------------
User input:
--------------------------------------------------------------
$molecule
-2 1
C                 -1.3928500000      0.2610430000     -0.2008680000
C                 -0.9349420000     -1.0479310000     -0.3315330000
C                  0.4289150000     -1.4079870000     -0.0224150000
C                  1.3110810000     -0.3237500000      0.3402100000
C                  0.8895100000      1.0034880000      0.3085870000
C                 -0.4926650000      1.3543260000      0.0812590000
O                 -0.9018880000      2.5803930000      0.1275760000
O                  0.8379290000     -2.6341450000     -0.0679870000
C                  1.8619380000      2.1494900000      0.4850190000
C                  2.7083640000     -0.7022330000      0.7810080000
C                  3.6582920000      0.4635580000      0.9662900000
C                  3.2587160000      1.7435470000      0.9091250000
C                 -2.8616980000      0.6038570000     -0.3228310000
C                 -3.7446910000     -0.5280550000     -0.8073230000
C                 -3.2981690000     -1.7845300000     -0.9597190000
C                 -1.8354520000     -2.1576480000     -0.8292160000
H                  1.4472750000      2.8356710000      1.2405430000
C                  1.9439600000      2.9795920000     -0.8284970000
H                  3.1298780000     -1.3870130000      0.0280300000
C                  2.6415270000     -1.5259880000      2.0992980000
C                  5.0954320000      0.0838030000      1.2816250000
C                  4.2031610000      2.8944760000      1.2126870000
C                 -5.1965210000     -0.1553790000     -1.0565930000
C                 -4.2265810000     -2.9273270000     -1.3351560000
C                 -1.3154760000     -2.6861820000     -2.1971460000
H                  2.3797990000      2.3685760000     -1.6267980000
H                  2.5627830000      3.8792990000     -0.7064420000
H                  0.9340420000      3.2828400000     -1.1071320000
H                  2.2568190000     -0.8975970000      2.9102730000
H                  3.6293350000     -1.9048480000      2.3959890000
H                  1.9729570000     -2.3731710000      1.9416610000
H                  5.3359200000     -0.8891200000      0.8405560000
H                  5.2824240000     -0.0073070000      2.3619050000
H                  5.8147020000      0.8094170000      0.8910540000
H                  4.9410100000      2.6387790000      1.9785640000
H                  3.6401420000      3.7615170000      1.5735860000
H                  4.7607150000      3.2303180000      0.3257800000
H                 -5.2733440000      0.8985890000     -1.3433320000
H                 -5.8262510000     -0.2836510000     -0.1637060000
H                 -5.6485940000     -0.7483620000     -1.8568350000
H                 -5.2302680000     -2.8046610000     -0.9181030000
H                 -3.8284610000     -3.8769930000     -0.9628020000
H                 -4.3402300000     -3.0407370000     -2.4234880000
C                 -3.3970810000      1.1262980000      1.0415410000
H                 -2.9574200000      1.4515920000     -1.0197960000
H                 -1.7468430000     -3.0070720000     -0.1333420000
H                 -1.4008810000     -1.8996610000     -2.9552210000
H                 -1.8850970000     -3.5603040000     -2.5418100000
H                 -0.2694960000     -2.9721110000     -2.0800830000
H                 -3.3619730000      0.3229300000      1.7858130000
H                 -4.4343460000      1.4808830000      0.9659520000
H                 -2.7651840000      1.9545980000      1.3643030000
$end

$rem
BASIS  =  6-311++G(d,p)
GUI  =  2
JOB_TYPE  =  SP
METHOD  =  B3LYP
SCF_CONVERGENCE  = 8
SOLVENT_METHOD = sm12
$end

$smx
solvent dimethylformamide
charges CM5
$end





--------------------------------------------------------------
 ----------------------------------------------------------------
             Standard Nuclear Orientation (Angstroms)
    I     Atom           X                Y                Z
 ----------------------------------------------------------------
    1      C      -1.3928500000     0.2610430000    -0.2008680000
    2      C      -0.9349420000    -1.0479310000    -0.3315330000
    3      C       0.4289150000    -1.4079870000    -0.0224150000
    4      C       1.3110810000    -0.3237500000     0.3402100000
    5      C       0.8895100000     1.0034880000     0.3085870000
    6      C      -0.4926650000     1.3543260000     0.0812590000
    7      O      -0.9018880000     2.5803930000     0.1275760000
    8      O       0.8379290000    -2.6341450000    -0.0679870000
    9      C       1.8619380000     2.1494900000     0.4850190000
   10      C       2.7083640000    -0.7022330000     0.7810080000
   11      C       3.6582920000     0.4635580000     0.9662900000
   12      C       3.2587160000     1.7435470000     0.9091250000
   13      C      -2.8616980000     0.6038570000    -0.3228310000
   14      C      -3.7446910000    -0.5280550000    -0.8073230000
   15      C      -3.2981690000    -1.7845300000    -0.9597190000
   16      C      -1.8354520000    -2.1576480000    -0.8292160000
   17      H       1.4472750000     2.8356710000     1.2405430000
   18      C       1.9439600000     2.9795920000    -0.8284970000
   19      H       3.1298780000    -1.3870130000     0.0280300000
   20      C       2.6415270000    -1.5259880000     2.0992980000
   21      C       5.0954320000     0.0838030000     1.2816250000
   22      C       4.2031610000     2.8944760000     1.2126870000
   23      C      -5.1965210000    -0.1553790000    -1.0565930000
   24      C      -4.2265810000    -2.9273270000    -1.3351560000
   25      C      -1.3154760000    -2.6861820000    -2.1971460000
   26      H       2.3797990000     2.3685760000    -1.6267980000
   27      H       2.5627830000     3.8792990000    -0.7064420000
   28      H       0.9340420000     3.2828400000    -1.1071320000
   29      H       2.2568190000    -0.8975970000     2.9102730000
   30      H       3.6293350000    -1.9048480000     2.3959890000
   31      H       1.9729570000    -2.3731710000     1.9416610000
   32      H       5.3359200000    -0.8891200000     0.8405560000
   33      H       5.2824240000    -0.0073070000     2.3619050000
   34      H       5.8147020000     0.8094170000     0.8910540000
   35      H       4.9410100000     2.6387790000     1.9785640000
   36      H       3.6401420000     3.7615170000     1.5735860000
   37      H       4.7607150000     3.2303180000     0.3257800000
   38      H      -5.2733440000     0.8985890000    -1.3433320000
   39      H      -5.8262510000    -0.2836510000    -0.1637060000
   40      H      -5.6485940000    -0.7483620000    -1.8568350000
   41      H      -5.2302680000    -2.8046610000    -0.9181030000
   42      H      -3.8284610000    -3.8769930000    -0.9628020000
   43      H      -4.3402300000    -3.0407370000    -2.4234880000
   44      C      -3.3970810000     1.1262980000     1.0415410000
   45      H      -2.9574200000     1.4515920000    -1.0197960000
   46      H      -1.7468430000    -3.0070720000    -0.1333420000
   47      H      -1.4008810000    -1.8996610000    -2.9552210000
   48      H      -1.8850970000    -3.5603040000    -2.5418100000
   49      H      -0.2694960000    -2.9721110000    -2.0800830000
   50      H      -3.3619730000     0.3229300000     1.7858130000
   51      H      -4.4343460000     1.4808830000     0.9659520000
   52      H      -2.7651840000     1.9545980000     1.3643030000
 ----------------------------------------------------------------
 Nuclear Repulsion Energy =        2140.12918800 hartrees
 There are       89 alpha and       89 beta electrons
 Requested basis set is 6-311++G(d,p)
 There are 284 shells and 724 basis functions

 Total QAlloc Memory Limit   8000 MB
 Mega-Array Size       188 MB
 MEM_STATIC part       192 MB
 A cutoff of  1.0D-11 yielded  28915 shell pairs
 There are    190933 function pairs (    202516 Cartesian)
 Smallest overlap matrix eigenvalue = 2.13E-08

 Q-Chem warning in module stvman/mkSTV.C, line 323:

 Overlap eigenvalue is smaller than square root of threshold
 Use THRESH >= 12 to get rid of this warning

 Linear dependence detected in AO basis
 Tighter screening thresholds may be required for diffuse basis sets
 Use S2THRESH > 14 and THRESH = 14 in case of SCF convergence issues
 Number of orthogonalized atomic orbitals = 712
 Maximum deviation from orthogonality = 1.077E-10

 Scale SEOQF with 1.000000e-02/1.000000e-01/1.000000e-01

 Standard Electronic Orientation quadrupole field applied
 Nucleus-field energy     =     0.0000000277 hartrees
 ================ Generating on-the-fly Promolecule Density  ================
Attempting to make child job directory: /expanse/lustre/scratch/selhajj/temp_project/qcscratch/28444948/qchem110101//Frg1/
Attempting to make child job directory: /expanse/lustre/scratch/selhajj/temp_project/qcscratch/28444948/qchem110101//Frg2/
Attempting to make child job directory: /expanse/lustre/scratch/selhajj/temp_project/qcscratch/28444948/qchem110101//Frg3/
Creating input file /expanse/lustre/scratch/selhajj/temp_project/qcscratch/28444948/qchem110101/Frg1.input
using default PutDataFrgm: nothing
calling putenv with: QCSCRATCH=/expanse/lustre/scratch/selhajj/temp_project/qcscratch/28444948/qchem110101/ 
Spawning Job For Fragment 0
Done Job For Fragment 0
calling putenv with: QCSCRATCH=/expanse/lustre/scratch/selhajj/temp_project/qcscratch/28444948 
calling putenv with: QCTHREADS=8 
Creating input file /expanse/lustre/scratch/selhajj/temp_project/qcscratch/28444948/qchem110101/Frg2.input
using default PutDataFrgm: nothing
calling putenv with: QCSCRATCH=/expanse/lustre/scratch/selhajj/temp_project/qcscratch/28444948/qchem110101/ 
Spawning Job For Fragment 1
Done Job For Fragment 1
calling putenv with: QCSCRATCH=/expanse/lustre/scratch/selhajj/temp_project/qcscratch/28444948 
calling putenv with: QCTHREADS=8 
Creating input file /expanse/lustre/scratch/selhajj/temp_project/qcscratch/28444948/qchem110101/Frg3.input
using default PutDataFrgm: nothing
calling putenv with: QCSCRATCH=/expanse/lustre/scratch/selhajj/temp_project/qcscratch/28444948/qchem110101/ 
Spawning Job For Fragment 2
Done Job For Fragment 2
calling putenv with: QCSCRATCH=/expanse/lustre/scratch/selhajj/temp_project/qcscratch/28444948 
calling putenv with: QCTHREADS=8 
 Time for running child jobs:  CPU 0.01 s  wall 4.67 s
 ============= Method Specific Promolecule Density Constructed =============
 Guess from superposition of atomic densities
 Warning:  Energy on first SCF cycle will be non-variational
 SAD guess density has 176.000000 electrons

 -----------------------------------------------------------------------
  General SCF calculation program by
  Eric Jon Sundstrom, Paul Horn, Yuezhi Mao, Dmitri Zuev, Alec White,
  David Stuck, Shaama M.S., Shane Yost, Joonho Lee, David Small,
  Daniel Levine, Susi Lehtola, Hugh Burton, Evgeny Epifanovsky,
  Bang C. Huynh
 -----------------------------------------------------------------------
 Exchange:     0.2000 Hartree-Fock + 0.0800 Slater + 0.7200 B88
 Correlation:  0.1900 VWN1RPA + 0.8100 LYP
 Using SG-1 standard quadrature grid
 using 8 threads for integral computing
 -------------------------------------------------------
 OpenMP Integral computing Module                
 Release: version 1.0, May 2013, Q-Chem Inc. Pittsburgh 
 -------------------------------------------------------
 
 SM12 calculation using CM5 charges
 Citation of the SM12 model:
 Marenich, A.V.; Cramer, C.J.; Truhlar, D.G.
 J. Chem. Theory Comput. 2013, 9, 609-612.
 iSolventCode=          91
 Solvent: dimethylformamide                                               
 
Hirshfeld: reading atomic densities from disk.
warning:  vdwdata pointer should have been initialzed before dftman
 Inaccurate integrated density:
   Number of electrons =   178
   Numerical integral  =   176.002064165368
   Relative error      =    -1.1224358622 %

 Charges (in A.U.) from CM5PAC (Nov. 11, 2011)
 -----------------------------------------------
 Center     Atomic      CM5         Hirshfeld
 Number     Number      Charge      Charge
 -----------------------------------------------
    1          6       -0.004151   -0.000250
    2          6       -0.004147   -0.000248
    3          6        0.030912    0.005193
    4          6       -0.004095   -0.000195
    5          6       -0.004026   -0.000127
    6          6        0.031058    0.005343
    7          8       -0.073384   -0.019527
    8          8       -0.073514   -0.019671
    9          6       -0.063403   -0.006492
   10          6       -0.063290   -0.006376
   11          6       -0.020046   -0.003334
   12          6       -0.020194   -0.003479
   13          6       -0.063045   -0.006133
   14          6       -0.019774   -0.003059
   15          6       -0.019806   -0.003091
   16          6       -0.062867   -0.005954
   17          1        0.067599    0.005338
   18          6       -0.149582   -0.004012
   19          1        0.067623    0.005352
   20          6       -0.149512   -0.003943
   21          6       -0.149862   -0.005663
   22          6       -0.149861   -0.005664
   23          6       -0.149804   -0.005606
   24          6       -0.149638   -0.005437
   25          6       -0.149142   -0.003574
   26          1        0.056874    0.004325
   27          1        0.054324    0.002619
   28          1        0.064173    0.005189
   29          1        0.056847    0.004297
   30          1        0.054328    0.002624
   31          1        0.064113    0.005153
   32          1        0.054942    0.002656
   33          1        0.053975    0.002950
   34          1        0.055091    0.002541
   35          1        0.055115    0.002556
   36          1        0.054910    0.002628
   37          1        0.054002    0.002974
   38          1        0.054916    0.002632
   39          1        0.053993    0.002966
   40          1        0.055155    0.002599
   41          1        0.055148    0.002591
   42          1        0.054949    0.002668
   43          1        0.054002    0.002972
   44          6       -0.149184   -0.003619
   45          1        0.067690    0.005415
   46          1        0.067667    0.005411
   47          1        0.056895    0.004343
   48          1        0.054361    0.002655
   49          1        0.064171    0.005190
   50          1        0.056910    0.004359
   51          1        0.054346    0.002646
   52          1        0.064174    0.005206
 -----------------------------------------------

 Dipole moment (in Debye)
 -----------------------------------------------
                 X        Y        Z     Total
 -----------------------------------------------
 CM5         -0.0392  -0.0138  -0.0129   0.0436
 Hirshfeld   -0.0396  -0.0142  -0.0115   0.0436
 -----------------------------------------------

 A restricted SCF calculation will be
 performed using DIIS
 SCF converges when DIIS error is below 1.0e-08
 ---------------------------------------
  Cycle       Energy         DIIS error
 ---------------------------------------
Hirshfeld: reading atomic densities from disk.

 Charges (in A.U.) from CM5PAC (Nov. 11, 2011)
 -----------------------------------------------
 Center     Atomic      CM5         Hirshfeld
 Number     Number      Charge      Charge
 -----------------------------------------------
    1          6       -0.144318   -0.140417
    2          6       -0.144278   -0.140379
    3          6        0.087819    0.062100
    4          6       -0.144639   -0.140739
    5          6       -0.144540   -0.140641
    6          6        0.087864    0.062149
    7          8       -0.738536   -0.684679
    8          8       -0.738623   -0.684780
    9          6       -0.148538   -0.091628
   10          6       -0.148523   -0.091609
   11          6       -0.085269   -0.068557
   12          6       -0.085442   -0.068727
   13          6       -0.148322   -0.091409
   14          6       -0.085081   -0.068366
   15          6       -0.085085   -0.068371
   16          6       -0.148169   -0.091257
   17          1        0.153686    0.091426
   18          6       -0.441676   -0.296107
   19          1        0.153684    0.091412
   20          6       -0.441588   -0.296019
   21          6       -0.413168   -0.268969
   22          6       -0.413222   -0.269025
   23          6       -0.413117   -0.268919
   24          6       -0.413026   -0.268825
   25          6       -0.441399   -0.295831
   26          1        0.143839    0.091289
   27          1        0.152648    0.100943
   28          1        0.135340    0.076356
   29          1        0.143813    0.091262
   30          1        0.152651    0.100947
   31          1        0.135334    0.076374
   32          1        0.157873    0.105587
   33          1        0.158586    0.107561
   34          1        0.155839    0.103289
   35          1        0.155850    0.103291
   36          1        0.157843    0.105561
   37          1        0.158604    0.107576
   38          1        0.157851    0.105567
   39          1        0.158614    0.107587
   40          1        0.155894    0.103338
   41          1        0.155874    0.103316
   42          1        0.157883    0.105602
   43          1        0.158617    0.107587
   44          6       -0.441423   -0.295858
   45          1        0.153752    0.091477
   46          1        0.153769    0.091513
   47          1        0.143857    0.091305
   48          1        0.152704    0.100998
   49          1        0.135293    0.076312
   50          1        0.143865    0.091314
   51          1        0.152695    0.100995
   52          1        0.135295    0.076327
 -----------------------------------------------

 Dipole moment (in Debye)
 -----------------------------------------------
                 X        Y        Z     Total
 -----------------------------------------------
 CM5          0.2727   0.2448  -0.2963   0.4713
 Hirshfeld    0.2724   0.2444  -0.2949   0.4700
 -----------------------------------------------

    1   -1010.9073809120      2.32e-02  
Hirshfeld: reading atomic densities from disk.

 Charges (in A.U.) from CM5PAC (Nov. 11, 2011)
 -----------------------------------------------
 Center     Atomic      CM5         Hirshfeld
 Number     Number      Charge      Charge
 -----------------------------------------------
    1          6        0.263955    0.267856
    2          6        0.263299    0.267199
    3          6        0.247016    0.221298
    4          6        0.264865    0.268765
    5          6        0.264173    0.268073
    6          6        0.246800    0.221085
    7          8        2.188544    2.242401
    8          8        2.188228    2.242070
    9          6        0.006309    0.063220
   10          6        0.007596    0.064510
   11          6        0.011125    0.027837
   12          6        0.010687    0.027401
   13          6        0.008056    0.064968
   14          6        0.012072    0.028787
   15          6        0.012173    0.028888
   16          6        0.007600    0.064513
   17          1       -0.110762   -0.173023
   18          6       -0.353169   -0.207599
   19          1       -0.107872   -0.170144
   20          6       -0.353875   -0.208306
   21          6       -0.116272    0.027927
   22          6       -0.117656    0.026541
   23          6       -0.115560    0.028639
   24          6       -0.114707    0.029494
   25          6       -0.350724   -0.205156
   26          1       -0.341751   -0.394300
   27          1       -0.457552   -0.509258
   28          1       -0.277179   -0.336162
   29          1       -0.343946   -0.396496
   30          1       -0.454642   -0.506346
   31          1       -0.280192   -0.339152
   32          1       -0.112043   -0.164329
   33          1       -0.171368   -0.222393
   34          1       -0.069042   -0.121592
   35          1       -0.068974   -0.121533
   36          1       -0.113865   -0.166147
   37          1       -0.172916   -0.223945
   38          1       -0.111709   -0.163993
   39          1       -0.169510   -0.220537
   40          1       -0.068241   -0.120797
   41          1       -0.067565   -0.120123
   42          1       -0.111555   -0.163836
   43          1       -0.169913   -0.220944
   44          6       -0.352062   -0.206497
   45          1       -0.106649   -0.168924
   46          1       -0.108369   -0.170625
   47          1       -0.340611   -0.393163
   48          1       -0.452585   -0.504291
   49          1       -0.278074   -0.337055
   50          1       -0.339465   -0.392015
   51          1       -0.453202   -0.504902
   52          1       -0.281433   -0.340401
 -----------------------------------------------

 Dipole moment (in Debye)
 -----------------------------------------------
                 X        Y        Z     Total
 -----------------------------------------------
 CM5         -0.2558  -0.0455  -0.4427   0.5133
 Hirshfeld   -0.2562  -0.0458  -0.4414   0.5124
 -----------------------------------------------

    2   -1005.1094135475      3.29e-03  
Hirshfeld: reading atomic densities from disk.

 Charges (in A.U.) from CM5PAC (Nov. 11, 2011)
 -----------------------------------------------
 Center     Atomic      CM5         Hirshfeld
 Number     Number      Charge      Charge
 -----------------------------------------------
    1          6       -0.032774   -0.028873
    2          6       -0.032858   -0.028958
    3          6       -0.102131   -0.127849
    4          6       -0.033692   -0.029792
    5          6       -0.033621   -0.029721
    6          6       -0.101969   -0.127684
    7          8       -0.931865   -0.878008
    8          8       -0.931933   -0.878091
    9          6       -0.067166   -0.010255
   10          6       -0.067025   -0.010111
   11          6       -0.002469    0.014243
   12          6       -0.002582    0.014133
   13          6       -0.066702   -0.009789
   14          6       -0.002030    0.014685
   15          6       -0.002099    0.014616
   16          6       -0.066610   -0.009698
   17          1        0.058354   -0.003907
   18          6       -0.127311    0.018258
   19          1        0.058325   -0.003947
   20          6       -0.127230    0.018339
   21          6       -0.111957    0.032242
   22          6       -0.112024    0.032173
   23          6       -0.111926    0.032273
   24          6       -0.111797    0.032404
   25          6       -0.126949    0.018619
   26          1        0.043171   -0.009378
   27          1        0.057572    0.005867
   28          1        0.042837   -0.016146
   29          1        0.043176   -0.009375
   30          1        0.057561    0.005857
   31          1        0.042789   -0.016171
   32          1        0.049475   -0.002811
   33          1        0.051369    0.000344
   34          1        0.055290    0.002740
   35          1        0.055327    0.002768
   36          1        0.049432   -0.002850
   37          1        0.051321    0.000292
   38          1        0.049458   -0.002826
   39          1        0.051378    0.000351
   40          1        0.055391    0.002835
   41          1        0.055401    0.002843
   42          1        0.049492   -0.002789
   43          1        0.051373    0.000343
   44          6       -0.126982    0.018583
   45          1        0.058365   -0.003910
   46          1        0.058400   -0.003855
   47          1        0.043202   -0.009350
   48          1        0.057625    0.005919
   49          1        0.042801   -0.016180
   50          1        0.043259   -0.009291
   51          1        0.057564    0.005864
   52          1        0.042805   -0.016163
 -----------------------------------------------

 Dipole moment (in Debye)
 -----------------------------------------------
                 X        Y        Z     Total
 -----------------------------------------------
 CM5          0.2519   0.2382  -0.3041   0.4612
 Hirshfeld    0.2515   0.2379  -0.3028   0.4599
 -----------------------------------------------

    3    -996.9614441942      8.13e-03  
Hirshfeld: reading atomic densities from disk.

 Charges (in A.U.) from CM5PAC (Nov. 11, 2011)
 -----------------------------------------------
 Center     Atomic      CM5         Hirshfeld
 Number     Number      Charge      Charge
 -----------------------------------------------
    1          6       -0.107923   -0.104022
    2          6       -0.107957   -0.104057
    3          6       -0.007662   -0.033381
    4          6       -0.108382   -0.104482
    5          6       -0.108305   -0.104406
    6          6       -0.007526   -0.033241
    7          8       -0.705917   -0.652059
    8          8       -0.706011   -0.652168
    9          6       -0.093561   -0.036651
   10          6       -0.093489   -0.036575
   11          6       -0.040311   -0.023599
   12          6       -0.040422   -0.023707
   13          6       -0.093243   -0.036331
   14          6       -0.039924   -0.023210
   15          6       -0.039996   -0.023282
   16          6       -0.093123   -0.036211
   17          1        0.076688    0.014428
   18          6       -0.227590   -0.082020
   19          1        0.076684    0.014412
   20          6       -0.227531   -0.081962
   21          6       -0.205201   -0.061001
   22          6       -0.205253   -0.061056
   23          6       -0.205124   -0.060925
   24          6       -0.205018   -0.060817
   25          6       -0.227268   -0.081699
   26          1        0.063274    0.010725
   27          1        0.074935    0.023229
   28          1        0.069733    0.010749
   29          1        0.063252    0.010702
   30          1        0.074933    0.023229
   31          1        0.069679    0.010719
   32          1        0.081410    0.029124
   33          1        0.081040    0.030015
   34          1        0.083536    0.030986
   35          1        0.083548    0.030989
   36          1        0.081361    0.029078
   37          1        0.081017    0.029989
   38          1        0.081401    0.029117
   39          1        0.081068    0.030042
   40          1        0.083625    0.031069
   41          1        0.083628    0.031070
   42          1        0.081431    0.029150
   43          1        0.081069    0.030039
   44          6       -0.227302   -0.081737
   45          1        0.076776    0.014501
   46          1        0.076803    0.014547
   47          1        0.063308    0.010757
   48          1        0.075018    0.023312
   49          1        0.069724    0.010743
   50          1        0.063346    0.010796
   51          1        0.074976    0.023276
   52          1        0.069701    0.010733
 -----------------------------------------------

 Dipole moment (in Debye)
 -----------------------------------------------
                 X        Y        Z     Total
 -----------------------------------------------
 CM5          0.2560   0.2397  -0.3004   0.4618
 Hirshfeld    0.2557   0.2394  -0.2990   0.4605
 -----------------------------------------------

    4   -1005.2667914190      3.12e-03  
Hirshfeld: reading atomic densities from disk.

 Charges (in A.U.) from CM5PAC (Nov. 11, 2011)
 -----------------------------------------------
 Center     Atomic      CM5         Hirshfeld
 Number     Number      Charge      Charge
 -----------------------------------------------
    1          6       -0.036424   -0.032523
    2          6       -0.036534   -0.032635
    3          6       -0.011543   -0.037262
    4          6       -0.036871   -0.032972
    5          6       -0.036790   -0.032891
    6          6       -0.011370   -0.037085
    7          8       -0.617976   -0.564119
    8          8       -0.618130   -0.564287
    9          6       -0.077008   -0.020098
   10          6       -0.076946   -0.020032
   11          6       -0.031177   -0.014465
   12          6       -0.031253   -0.014538
   13          6       -0.076647   -0.019735
   14          6       -0.030821   -0.014106
   15          6       -0.030897   -0.014182
   16          6       -0.076536   -0.019624
   17          1        0.053144   -0.009117
   18          6       -0.253408   -0.107838
   19          1        0.053172   -0.009099
   20          6       -0.253367   -0.107798
   21          6       -0.240021   -0.095822
   22          6       -0.240042   -0.095845
   23          6       -0.239959   -0.095760
   24          6       -0.239852   -0.095651
   25          6       -0.253107   -0.107539
   26          1        0.054913    0.002363
   27          1        0.051198   -0.000507
   28          1        0.064828    0.005844
   29          1        0.054832    0.002281
   30          1        0.051194   -0.000511
   31          1        0.064687    0.005727
   32          1        0.077355    0.025069
   33          1        0.074007    0.022982
   34          1        0.076590    0.024040
   35          1        0.076602    0.024043
   36          1        0.077305    0.025023
   37          1        0.074034    0.023006
   38          1        0.077364    0.025080
   39          1        0.074073    0.023047
   40          1        0.076693    0.024137
   41          1        0.076691    0.024134
   42          1        0.077383    0.025102
   43          1        0.074072    0.023042
   44          6       -0.253139   -0.107574
   45          1        0.053288   -0.008986
   46          1        0.053317   -0.008939
   47          1        0.054939    0.002388
   48          1        0.051279   -0.000427
   49          1        0.064821    0.005840
   50          1        0.054955    0.002405
   51          1        0.051237   -0.000463
   52          1        0.064695    0.005727
 -----------------------------------------------

 Dipole moment (in Debye)
 -----------------------------------------------
                 X        Y        Z     Total
 -----------------------------------------------
 CM5          0.2552   0.2411  -0.2988   0.4610
 Hirshfeld    0.2548   0.2407  -0.2975   0.4597
 -----------------------------------------------

    5   -1005.7272559939      1.27e-03  
Hirshfeld: reading atomic densities from disk.

 Charges (in A.U.) from CM5PAC (Nov. 11, 2011)
 -----------------------------------------------
 Center     Atomic      CM5         Hirshfeld
 Number     Number      Charge      Charge
 -----------------------------------------------
    1          6       -0.107392   -0.103491
    2          6       -0.107455   -0.103556
    3          6        0.014719   -0.010999
    4          6       -0.107682   -0.103782
    5          6       -0.107610   -0.103711
    6          6        0.014874   -0.010842
    7          8       -0.506976   -0.453118
    8          8       -0.507090   -0.453247
    9          6       -0.092552   -0.035641
   10          6       -0.092502   -0.035588
   11          6       -0.042611   -0.025899
   12          6       -0.042660   -0.025945
   13          6       -0.092264   -0.035352
   14          6       -0.042215   -0.025500
   15          6       -0.042296   -0.025582
   16          6       -0.092136   -0.035224
   17          1        0.059656   -0.002605
   18          6       -0.240265   -0.094695
   19          1        0.059665   -0.002606
   20          6       -0.240233   -0.094664
   21          6       -0.217379   -0.073180
   22          6       -0.217396   -0.073199
   23          6       -0.217289   -0.073090
   24          6       -0.217186   -0.072985
   25          6       -0.239975   -0.094407
   26          1        0.050686   -0.001863
   27          1        0.052896    0.001191
   28          1        0.064095    0.005112
   29          1        0.050634   -0.001916
   30          1        0.052878    0.001173
   31          1        0.063939    0.004979
   32          1        0.074633    0.022348
   33          1        0.070457    0.019431
   34          1        0.073069    0.020519
   35          1        0.073090    0.020531
   36          1        0.074597    0.022315
   37          1        0.070493    0.019464
   38          1        0.074637    0.022353
   39          1        0.070518    0.019492
   40          1        0.073164    0.020608
   41          1        0.073165    0.020607
   42          1        0.074660    0.022379
   43          1        0.070511    0.019481
   44          6       -0.240004   -0.094439
   45          1        0.059801   -0.002473
   46          1        0.059859   -0.002397
   47          1        0.050706   -0.001846
   48          1        0.052966    0.001260
   49          1        0.064098    0.005117
   50          1        0.050747   -0.001803
   51          1        0.052927    0.001228
   52          1        0.063943    0.004975
 -----------------------------------------------

 Dipole moment (in Debye)
 -----------------------------------------------
                 X        Y        Z     Total
 -----------------------------------------------
 CM5          0.2573   0.2413  -0.2974   0.4614
 Hirshfeld    0.2569   0.2410  -0.2961   0.4601
 -----------------------------------------------

    6   -1005.8351616618      6.80e-04  
Hirshfeld: reading atomic densities from disk.

 Charges (in A.U.) from CM5PAC (Nov. 11, 2011)
 -----------------------------------------------
 Center     Atomic      CM5         Hirshfeld
 Number     Number      Charge      Charge
 -----------------------------------------------
    1          6       -0.088460   -0.084558
    2          6       -0.088532   -0.084633
    3          6        0.022487   -0.003231
    4          6       -0.088662   -0.084763
    5          6       -0.088579   -0.084679
    6          6        0.022645   -0.003071
    7          8       -0.512644   -0.458786
    8          8       -0.512789   -0.458947
    9          6       -0.088738   -0.031828
   10          6       -0.088694   -0.031780
   11          6       -0.043528   -0.026816
   12          6       -0.043592   -0.026877
   13          6       -0.088455   -0.031542
   14          6       -0.043149   -0.026434
   15          6       -0.043233   -0.026519
   16          6       -0.088326   -0.031413
   17          1        0.055356   -0.006905
   18          6       -0.251061   -0.105491
   19          1        0.055386   -0.006886
   20          6       -0.251049   -0.105480
   21          6       -0.230628   -0.086429
   22          6       -0.230645   -0.086448
   23          6       -0.230534   -0.086335
   24          6       -0.230433   -0.086232
   25          6       -0.250772   -0.105204
   26          1        0.051284   -0.001266
   27          1        0.051644   -0.000061
   28          1        0.064453    0.005469
   29          1        0.051216   -0.001334
   30          1        0.051625   -0.000079
   31          1        0.064279    0.005319
   32          1        0.076430    0.024144
   33          1        0.072260    0.021235
   34          1        0.075205    0.022655
   35          1        0.075225    0.022666
   36          1        0.076395    0.024112
   37          1        0.072306    0.021278
   38          1        0.076439    0.024155
   39          1        0.072326    0.021300
   40          1        0.075300    0.022744
   41          1        0.075300    0.022742
   42          1        0.076463    0.024182
   43          1        0.072324    0.021294
   44          6       -0.250824   -0.105259
   45          1        0.055527   -0.006748
   46          1        0.055596   -0.006660
   47          1        0.051299   -0.001253
   48          1        0.051719    0.000013
   49          1        0.064460    0.005479
   50          1        0.051338   -0.001212
   51          1        0.051680   -0.000020
   52          1        0.064274    0.005306
 -----------------------------------------------

 Dipole moment (in Debye)
 -----------------------------------------------
                 X        Y        Z     Total
 -----------------------------------------------
 CM5          0.2578   0.2415  -0.2978   0.4620
 Hirshfeld    0.2574   0.2412  -0.2964   0.4608
 -----------------------------------------------

    7   -1005.8534458242      1.82e-04  
Hirshfeld: reading atomic densities from disk.

 Charges (in A.U.) from CM5PAC (Nov. 11, 2011)
 -----------------------------------------------
 Center     Atomic      CM5         Hirshfeld
 Number     Number      Charge      Charge
 -----------------------------------------------
    1          6       -0.089049   -0.085148
    2          6       -0.089130   -0.085230
    3          6        0.014301   -0.011417
    4          6       -0.089392   -0.085492
    5          6       -0.089314   -0.085415
    6          6        0.014455   -0.011260
    7          8       -0.509264   -0.455407
    8          8       -0.509373   -0.455530
    9          6       -0.088128   -0.031217
   10          6       -0.088077   -0.031163
   11          6       -0.041468   -0.024756
   12          6       -0.041518   -0.024803
   13          6       -0.087812   -0.030899
   14          6       -0.041083   -0.024369
   15          6       -0.041160   -0.024445
   16          6       -0.087684   -0.030772
   17          1        0.055609   -0.006652
   18          6       -0.250717   -0.105147
   19          1        0.055637   -0.006634
   20          6       -0.250692   -0.105123
   21          6       -0.230439   -0.086240
   22          6       -0.230453   -0.086256
   23          6       -0.230357   -0.086158
   24          6       -0.230252   -0.086051
   25          6       -0.250428   -0.104860
   26          1        0.051560   -0.000989
   27          1        0.051734    0.000029
   28          1        0.064476    0.005492
   29          1        0.051491   -0.001059
   30          1        0.051710    0.000005
   31          1        0.064296    0.005336
   32          1        0.076226    0.023941
   33          1        0.072002    0.020977
   34          1        0.074873    0.022323
   35          1        0.074894    0.022335
   36          1        0.076190    0.023908
   37          1        0.072048    0.021020
   38          1        0.076232    0.023948
   39          1        0.072068    0.021041
   40          1        0.074968    0.022412
   41          1        0.074967    0.022409
   42          1        0.076258    0.023977
   43          1        0.072064    0.021034
   44          6       -0.250466   -0.104901
   45          1        0.055770   -0.006504
   46          1        0.055844   -0.006412
   47          1        0.051572   -0.000980
   48          1        0.051802    0.000096
   49          1        0.064475    0.005494
   50          1        0.051611   -0.000939
   51          1        0.051759    0.000059
   52          1        0.064284    0.005316
 -----------------------------------------------

 Dipole moment (in Debye)
 -----------------------------------------------
                 X        Y        Z     Total
 -----------------------------------------------
 CM5          0.2569   0.2407  -0.2981   0.4613
 Hirshfeld    0.2566   0.2404  -0.2967   0.4600
 -----------------------------------------------

    8   -1005.8596486619      3.60e-05  
Hirshfeld: reading atomic densities from disk.

 Charges (in A.U.) from CM5PAC (Nov. 11, 2011)
 -----------------------------------------------
 Center     Atomic      CM5         Hirshfeld
 Number     Number      Charge      Charge
 -----------------------------------------------
    1          6       -0.089239   -0.085338
    2          6       -0.089313   -0.085413
    3          6        0.018150   -0.007568
    4          6       -0.089465   -0.085565
    5          6       -0.089384   -0.085485
    6          6        0.018307   -0.007408
    7          8       -0.511362   -0.457504
    8          8       -0.511500   -0.457657
    9          6       -0.088869   -0.031958
   10          6       -0.088820   -0.031906
   11          6       -0.042351   -0.025639
   12          6       -0.042408   -0.025693
   13          6       -0.088579   -0.031667
   14          6       -0.041970   -0.025256
   15          6       -0.042051   -0.025336
   16          6       -0.088450   -0.031537
   17          1        0.055647   -0.006614
   18          6       -0.250201   -0.104631
   19          1        0.055680   -0.006591
   20          6       -0.250182   -0.104613
   21          6       -0.229821   -0.085622
   22          6       -0.229837   -0.085640
   23          6       -0.229731   -0.085533
   24          6       -0.229627   -0.085427
   25          6       -0.249914   -0.104345
   26          1        0.051510   -0.001039
   27          1        0.051605   -0.000100
   28          1        0.064490    0.005506
   29          1        0.051441   -0.001109
   30          1        0.051582   -0.000122
   31          1        0.064310    0.005350
   32          1        0.076171    0.023885
   33          1        0.071966    0.020941
   34          1        0.074842    0.022292
   35          1        0.074864    0.022305
   36          1        0.076134    0.023852
   37          1        0.072013    0.020985
   38          1        0.076178    0.023894
   39          1        0.072034    0.021008
   40          1        0.074939    0.022383
   41          1        0.074939    0.022381
   42          1        0.076204    0.023923
   43          1        0.072031    0.021001
   44          6       -0.249958   -0.104393
   45          1        0.055819   -0.006456
   46          1        0.055894   -0.006362
   47          1        0.051525   -0.001026
   48          1        0.051680   -0.000026
   49          1        0.064492    0.005511
   50          1        0.051565   -0.000986
   51          1        0.051638   -0.000062
   52          1        0.064299    0.005331
 -----------------------------------------------

 Dipole moment (in Debye)
 -----------------------------------------------
                 X        Y        Z     Total
 -----------------------------------------------
 CM5          0.2577   0.2412  -0.2979   0.4619
 Hirshfeld    0.2573   0.2408  -0.2966   0.4606
 -----------------------------------------------

    9   -1005.8594085316      2.10e-05  
Hirshfeld: reading atomic densities from disk.

 Charges (in A.U.) from CM5PAC (Nov. 11, 2011)
 -----------------------------------------------
 Center     Atomic      CM5         Hirshfeld
 Number     Number      Charge      Charge
 -----------------------------------------------
    1          6       -0.089221   -0.085319
    2          6       -0.089298   -0.085398
    3          6        0.017763   -0.007956
    4          6       -0.089537   -0.085637
    5          6       -0.089456   -0.085556
    6          6        0.017914   -0.007802
    7          8       -0.511205   -0.457348
    8          8       -0.511318   -0.457475
    9          6       -0.088716   -0.031805
   10          6       -0.088667   -0.031753
   11          6       -0.042325   -0.025614
   12          6       -0.042381   -0.025666
   13          6       -0.088406   -0.031493
   14          6       -0.041941   -0.025227
   15          6       -0.042020   -0.025306
   16          6       -0.088277   -0.031364
   17          1        0.055603   -0.006658
   18          6       -0.250334   -0.104765
   19          1        0.055637   -0.006634
   20          6       -0.250316   -0.104747
   21          6       -0.229876   -0.085677
   22          6       -0.229892   -0.085695
   23          6       -0.229791   -0.085592
   24          6       -0.229687   -0.085486
   25          6       -0.250045   -0.104477
   26          1        0.051543   -0.001006
   27          1        0.051699   -0.000007
   28          1        0.064501    0.005517
   29          1        0.051474   -0.001076
   30          1        0.051675   -0.000030
   31          1        0.064320    0.005360
   32          1        0.076174    0.023888
   33          1        0.071982    0.020957
   34          1        0.074879    0.022329
   35          1        0.074900    0.022342
   36          1        0.076137    0.023854
   37          1        0.072029    0.021001
   38          1        0.076179    0.023895
   39          1        0.072048    0.021022
   40          1        0.074973    0.022417
   41          1        0.074973    0.022415
   42          1        0.076206    0.023925
   43          1        0.072046    0.021016
   44          6       -0.250090   -0.104525
   45          1        0.055771   -0.006504
   46          1        0.055847   -0.006409
   47          1        0.051556   -0.000996
   48          1        0.051768    0.000063
   49          1        0.064499    0.005518
   50          1        0.051596   -0.000955
   51          1        0.051726    0.000027
   52          1        0.064304    0.005336
 -----------------------------------------------

 Dipole moment (in Debye)
 -----------------------------------------------
                 X        Y        Z     Total
 -----------------------------------------------
 CM5          0.2570   0.2406  -0.2982   0.4614
 Hirshfeld    0.2566   0.2402  -0.2969   0.4601
 -----------------------------------------------

   10   -1005.8595318027      4.14e-06  
Hirshfeld: reading atomic densities from disk.

 Charges (in A.U.) from CM5PAC (Nov. 11, 2011)
 -----------------------------------------------
 Center     Atomic      CM5         Hirshfeld
 Number     Number      Charge      Charge
 -----------------------------------------------
    1          6       -0.089264   -0.085363
    2          6       -0.089338   -0.085438
    3          6        0.017759   -0.007960
    4          6       -0.089445   -0.085545
    5          6       -0.089364   -0.085465
    6          6        0.017918   -0.007797
    7          8       -0.511296   -0.457439
    8          8       -0.511448   -0.457605
    9          6       -0.088793   -0.031882
   10          6       -0.088742   -0.031828
   11          6       -0.042269   -0.025557
   12          6       -0.042326   -0.025611
   13          6       -0.088512   -0.031600
   14          6       -0.041890   -0.025176
   15          6       -0.041970   -0.025255
   16          6       -0.088383   -0.031470
   17          1        0.055594   -0.006667
   18          6       -0.250287   -0.104717
   19          1        0.055631   -0.006640
   20          6       -0.250267   -0.104698
   21          6       -0.229916   -0.085716
   22          6       -0.229932   -0.085735
   23          6       -0.229823   -0.085624
   24          6       -0.229719   -0.085518
   25          6       -0.250000   -0.104432
   26          1        0.051557   -0.000993
   27          1        0.051701   -0.000005
   28          1        0.064508    0.005524
   29          1        0.051488   -0.001063
   30          1        0.051677   -0.000027
   31          1        0.064328    0.005368
   32          1        0.076176    0.023890
   33          1        0.071992    0.020967
   34          1        0.074892    0.022342
   35          1        0.074914    0.022355
   36          1        0.076138    0.023856
   37          1        0.072039    0.021010
   38          1        0.076183    0.023899
   39          1        0.072061    0.021034
   40          1        0.074989    0.022433
   41          1        0.074989    0.022432
   42          1        0.076210    0.023929
   43          1        0.072059    0.021028
   44          6       -0.250046   -0.104481
   45          1        0.055772   -0.006502
   46          1        0.055850   -0.006406
   47          1        0.051574   -0.000978
   48          1        0.051779    0.000073
   49          1        0.064511    0.005530
   50          1        0.051613   -0.000937
   51          1        0.051736    0.000037
   52          1        0.064314    0.005346
 -----------------------------------------------

 Dipole moment (in Debye)
 -----------------------------------------------
                 X        Y        Z     Total
 -----------------------------------------------
 CM5          0.2579   0.2413  -0.2980   0.4621
 Hirshfeld    0.2575   0.2409  -0.2966   0.4608
 -----------------------------------------------

   11   -1005.8595212716      1.82e-06  
Hirshfeld: reading atomic densities from disk.

 Charges (in A.U.) from CM5PAC (Nov. 11, 2011)
 -----------------------------------------------
 Center     Atomic      CM5         Hirshfeld
 Number     Number      Charge      Charge
 -----------------------------------------------
    1          6       -0.089181   -0.085280
    2          6       -0.089258   -0.085358
    3          6        0.017760   -0.007959
    4          6       -0.089519   -0.085619
    5          6       -0.089437   -0.085538
    6          6        0.017908   -0.007807
    7          8       -0.511380   -0.457523
    8          8       -0.511485   -0.457642
    9          6       -0.088772   -0.031861
   10          6       -0.088722   -0.031808
   11          6       -0.042296   -0.025584
   12          6       -0.042351   -0.025636
   13          6       -0.088456   -0.031544
   14          6       -0.041911   -0.025196
   15          6       -0.041990   -0.025275
   16          6       -0.088327   -0.031415
   17          1        0.055593   -0.006668
   18          6       -0.250305   -0.104735
   19          1        0.055629   -0.006642
   20          6       -0.250287   -0.104718
   21          6       -0.229894   -0.085695
   22          6       -0.229910   -0.085713
   23          6       -0.229810   -0.085611
   24          6       -0.229706   -0.085505
   25          6       -0.250015   -0.104447
   26          1        0.051568   -0.000982
   27          1        0.051713    0.000008
   28          1        0.064516    0.005532
   29          1        0.051498   -0.001052
   30          1        0.051689   -0.000016
   31          1        0.064334    0.005374
   32          1        0.076176    0.023890
   33          1        0.071993    0.020968
   34          1        0.074892    0.022342
   35          1        0.074914    0.022355
   36          1        0.076139    0.023856
   37          1        0.072041    0.021012
   38          1        0.076181    0.023897
   39          1        0.072060    0.021033
   40          1        0.074987    0.022431
   41          1        0.074987    0.022429
   42          1        0.076208    0.023927
   43          1        0.072057    0.021027
   44          6       -0.250060   -0.104495
   45          1        0.055762   -0.006513
   46          1        0.055838   -0.006418
   47          1        0.051580   -0.000972
   48          1        0.051782    0.000076
   49          1        0.064513    0.005532
   50          1        0.051620   -0.000931
   51          1        0.051740    0.000041
   52          1        0.064317    0.005349
 -----------------------------------------------

 Dipole moment (in Debye)
 -----------------------------------------------
                 X        Y        Z     Total
 -----------------------------------------------
 CM5          0.2567   0.2404  -0.2983   0.4612
 Hirshfeld    0.2564   0.2400  -0.2970   0.4599
 -----------------------------------------------

   12   -1005.8595205598      7.44e-07  
Hirshfeld: reading atomic densities from disk.

 Charges (in A.U.) from CM5PAC (Nov. 11, 2011)
 -----------------------------------------------
 Center     Atomic      CM5         Hirshfeld
 Number     Number      Charge      Charge
 -----------------------------------------------
    1          6       -0.089226   -0.085325
    2          6       -0.089302   -0.085402
    3          6        0.017753   -0.007966
    4          6       -0.089467   -0.085567
    5          6       -0.089385   -0.085486
    6          6        0.017909   -0.007806
    7          8       -0.511378   -0.457520
    8          8       -0.511513   -0.457671
    9          6       -0.088759   -0.031848
   10          6       -0.088709   -0.031795
   11          6       -0.042294   -0.025582
   12          6       -0.042350   -0.025635
   13          6       -0.088465   -0.031553
   14          6       -0.041913   -0.025198
   15          6       -0.041992   -0.025277
   16          6       -0.088336   -0.031423
   17          1        0.055587   -0.006674
   18          6       -0.250307   -0.104737
   19          1        0.055625   -0.006647
   20          6       -0.250288   -0.104719
   21          6       -0.229894   -0.085695
   22          6       -0.229911   -0.085714
   23          6       -0.229805   -0.085606
   24          6       -0.229701   -0.085500
   25          6       -0.250019   -0.104451
   26          1        0.051568   -0.000982
   27          1        0.051713    0.000008
   28          1        0.064514    0.005530
   29          1        0.051498   -0.001052
   30          1        0.051689   -0.000015
   31          1        0.064333    0.005373
   32          1        0.076175    0.023889
   33          1        0.071992    0.020967
   34          1        0.074892    0.022342
   35          1        0.074914    0.022355
   36          1        0.076137    0.023855
   37          1        0.072039    0.021011
   38          1        0.076182    0.023898
   39          1        0.072061    0.021034
   40          1        0.074988    0.022432
   41          1        0.074988    0.022430
   42          1        0.076209    0.023928
   43          1        0.072058    0.021028
   44          6       -0.250064   -0.104499
   45          1        0.055763   -0.006512
   46          1        0.055840   -0.006416
   47          1        0.051583   -0.000969
   48          1        0.051788    0.000082
   49          1        0.064515    0.005534
   50          1        0.051623   -0.000928
   51          1        0.051746    0.000046
   52          1        0.064318    0.005350
 -----------------------------------------------

 Dipole moment (in Debye)
 -----------------------------------------------
                 X        Y        Z     Total
 -----------------------------------------------
 CM5          0.2574   0.2409  -0.2981   0.4617
 Hirshfeld    0.2570   0.2406  -0.2968   0.4605
 -----------------------------------------------

   13   -1005.8595195062      2.61e-07  
Hirshfeld: reading atomic densities from disk.

 Charges (in A.U.) from CM5PAC (Nov. 11, 2011)
 -----------------------------------------------
 Center     Atomic      CM5         Hirshfeld
 Number     Number      Charge      Charge
 -----------------------------------------------
    1          6       -0.089211   -0.085310
    2          6       -0.089287   -0.085387
    3          6        0.017754   -0.007965
    4          6       -0.089478   -0.085578
    5          6       -0.089397   -0.085498
    6          6        0.017907   -0.007808
    7          8       -0.511383   -0.457525
    8          8       -0.511508   -0.457665
    9          6       -0.088769   -0.031858
   10          6       -0.088719   -0.031805
   11          6       -0.042290   -0.025578
   12          6       -0.042346   -0.025631
   13          6       -0.088469   -0.031557
   14          6       -0.041908   -0.025193
   15          6       -0.041987   -0.025272
   16          6       -0.088339   -0.031427
   17          1        0.055587   -0.006673
   18          6       -0.250303   -0.104734
   19          1        0.055625   -0.006646
   20          6       -0.250285   -0.104716
   21          6       -0.229897   -0.085698
   22          6       -0.229913   -0.085716
   23          6       -0.229809   -0.085610
   24          6       -0.229705   -0.085504
   25          6       -0.250015   -0.104447
   26          1        0.051568   -0.000981
   27          1        0.051714    0.000009
   28          1        0.064514    0.005530
   29          1        0.051498   -0.001052
   30          1        0.051690   -0.000015
   31          1        0.064333    0.005373
   32          1        0.076175    0.023889
   33          1        0.071993    0.020968
   34          1        0.074893    0.022343
   35          1        0.074915    0.022356
   36          1        0.076138    0.023855
   37          1        0.072040    0.021012
   38          1        0.076181    0.023897
   39          1        0.072061    0.021034
   40          1        0.074989    0.022433
   41          1        0.074989    0.022431
   42          1        0.076208    0.023928
   43          1        0.072058    0.021028
   44          6       -0.250060   -0.104495
   45          1        0.055762   -0.006513
   46          1        0.055839   -0.006417
   47          1        0.051582   -0.000969
   48          1        0.051788    0.000082
   49          1        0.064514    0.005532
   50          1        0.051622   -0.000928
   51          1        0.051746    0.000046
   52          1        0.064317    0.005349
 -----------------------------------------------

 Dipole moment (in Debye)
 -----------------------------------------------
                 X        Y        Z     Total
 -----------------------------------------------
 CM5          0.2572   0.2408  -0.2982   0.4616
 Hirshfeld    0.2568   0.2404  -0.2968   0.4603
 -----------------------------------------------

   14   -1005.8595191844      9.67e-08  
Hirshfeld: reading atomic densities from disk.

 Charges (in A.U.) from CM5PAC (Nov. 11, 2011)
 -----------------------------------------------
 Center     Atomic      CM5         Hirshfeld
 Number     Number      Charge      Charge
 -----------------------------------------------
    1          6       -0.089212   -0.085311
    2          6       -0.089288   -0.085388
    3          6        0.017754   -0.007965
    4          6       -0.089479   -0.085579
    5          6       -0.089397   -0.085498
    6          6        0.017908   -0.007808
    7          8       -0.511380   -0.457522
    8          8       -0.511508   -0.457665
    9          6       -0.088768   -0.031857
   10          6       -0.088718   -0.031804
   11          6       -0.042291   -0.025579
   12          6       -0.042347   -0.025632
   13          6       -0.088468   -0.031556
   14          6       -0.041909   -0.025194
   15          6       -0.041988   -0.025273
   16          6       -0.088339   -0.031426
   17          1        0.055587   -0.006674
   18          6       -0.250303   -0.104734
   19          1        0.055625   -0.006647
   20          6       -0.250285   -0.104716
   21          6       -0.229897   -0.085698
   22          6       -0.229914   -0.085716
   23          6       -0.229809   -0.085611
   24          6       -0.229705   -0.085504
   25          6       -0.250015   -0.104447
   26          1        0.051568   -0.000982
   27          1        0.051714    0.000008
   28          1        0.064514    0.005530
   29          1        0.051498   -0.001052
   30          1        0.051690   -0.000015
   31          1        0.064333    0.005373
   32          1        0.076175    0.023889
   33          1        0.071993    0.020968
   34          1        0.074893    0.022343
   35          1        0.074915    0.022356
   36          1        0.076137    0.023855
   37          1        0.072040    0.021012
   38          1        0.076181    0.023897
   39          1        0.072061    0.021034
   40          1        0.074989    0.022433
   41          1        0.074989    0.022431
   42          1        0.076208    0.023928
   43          1        0.072059    0.021028
   44          6       -0.250060   -0.104495
   45          1        0.055761   -0.006513
   46          1        0.055838   -0.006418
   47          1        0.051582   -0.000969
   48          1        0.051788    0.000082
   49          1        0.064514    0.005533
   50          1        0.051622   -0.000928
   51          1        0.051745    0.000046
   52          1        0.064317    0.005349
 -----------------------------------------------

 Dipole moment (in Debye)
 -----------------------------------------------
                 X        Y        Z     Total
 -----------------------------------------------
 CM5          0.2572   0.2408  -0.2982   0.4616
 Hirshfeld    0.2568   0.2404  -0.2968   0.4603
 -----------------------------------------------

   15   -1005.8595191310      1.75e-08  
   16   -1005.8595190756      8.08e-09  Convergence criterion met
 ---------------------------------------
 SCF time:   CPU 23647.61s  wall 3629.00s 
(1)  E-EN(liq) elect-nuc energy of solute              -1005.859519076 a.u.
(2)  G-P(liq) polarization free energy of solvation          -163.6489 kcal/mol
(3)  G-ENP(liq) elect-nuc-pol free energy of system    -1006.120310167 a.u.
(4)  G-CDS(liq) cavity-dispersion-solvent structure 
     free energy                                               -7.8502 kcal/mol
(5)  G-P-CDS(liq) = G-P(liq) + G-CDS(liq) = (2) + (4)        -171.4990 kcal/mol
(6)  G-S(liq) free energy of system = (1) + (5)        -1006.132820184 a.u.
 SCF   energy in the final basis set =    -1006.1328201837
 Total energy in the final basis set =    -1006.1328201837
 
 --------------------------------------------------------------
 
                    Orbital Energies (a.u.)
 --------------------------------------------------------------
 
 Alpha MOs
 -- Occupied --
-19.0063 -19.0063 -10.1700 -10.1699 -10.1697 -10.1697 -10.1683 -10.1683
-10.1681 -10.1681 -10.1680 -10.1678 -10.1673 -10.1670 -10.1612 -10.1611
-10.1558 -10.1558 -10.1556 -10.1556 -10.1260 -10.1260 -10.1255 -10.1254
 -0.9258  -0.9227  -0.8410  -0.8399  -0.7813  -0.7784  -0.7778  -0.7587
 -0.7211  -0.7106  -0.7098  -0.6897  -0.6700  -0.6551  -0.6472  -0.6344
 -0.5991  -0.5947  -0.5729  -0.5535  -0.5171  -0.4886  -0.4835  -0.4709
 -0.4616  -0.4504  -0.4504  -0.4341  -0.4326  -0.4261  -0.4212  -0.4130
 -0.4083  -0.4066  -0.4039  -0.4024  -0.3988  -0.3951  -0.3923  -0.3835
 -0.3833  -0.3777  -0.3767  -0.3746  -0.3686  -0.3619  -0.3576  -0.3511
 -0.3404  -0.3401  -0.3390  -0.3383  -0.3223  -0.3180  -0.3148  -0.2968
 -0.2894  -0.2885  -0.2318  -0.2285  -0.2136  -0.2002  -0.1877  -0.1790
 -0.1075
 -- Virtual --
 -0.0626  -0.0543  -0.0540  -0.0533  -0.0410  -0.0401  -0.0379  -0.0378
 -0.0341  -0.0318  -0.0273  -0.0227  -0.0222  -0.0186  -0.0103  -0.0090
 -0.0050  -0.0048  -0.0027  -0.0013   0.0084   0.0162   0.0165   0.0180
  0.0215   0.0219   0.0272   0.0291   0.0295   0.0331   0.0375   0.0417
  0.0464   0.0497   0.0518   0.0577   0.0584   0.0586   0.0629   0.0637
  0.0691   0.0697   0.0722   0.0727   0.0741   0.0760   0.0808   0.0849
  0.0854   0.0861   0.0868   0.0874   0.0908   0.0923   0.0933   0.0981
  0.1010   0.1014   0.1032   0.1076   0.1094   0.1133   0.1154   0.1164
  0.1189   0.1227   0.1238   0.1252   0.1287   0.1326   0.1332   0.1352
  0.1375   0.1379   0.1441   0.1545   0.1563   0.1595   0.1597   0.1603
  0.1613   0.1673   0.1674   0.1747   0.1785   0.1798   0.1802   0.1811
  0.1814   0.1895   0.1903   0.1941   0.1944   0.1948   0.2007   0.2048
  0.2096   0.2106   0.2143   0.2181   0.2222   0.2226   0.2259   0.2282
  0.2323   0.2366   0.2375   0.2408   0.2462   0.2469   0.2499   0.2500
  0.2538   0.2543   0.2604   0.2609   0.2681   0.2695   0.2705   0.2761
  0.2854   0.2874   0.2911   0.2939   0.2957   0.2981   0.2987   0.3014
  0.3026   0.3077   0.3082   0.3119   0.3127   0.3133   0.3200   0.3282
  0.3291   0.3325   0.3328   0.3369   0.3444   0.3460   0.3487   0.3488
  0.3577   0.3624   0.3696   0.3777   0.3818   0.3835   0.3839   0.3910
  0.3974   0.4074   0.4096   0.4151   0.4218   0.4238   0.4276   0.4389
  0.4414   0.4520   0.4522   0.4564   0.4637   0.4638   0.4713   0.4721
  0.4735   0.4743   0.4837   0.4860   0.4949   0.5007   0.5022   0.5125
  0.5173   0.5193   0.5269   0.5307   0.5422   0.5538   0.5584   0.5595
  0.5607   0.5701   0.5712   0.5771   0.5775   0.5778   0.5912   0.6013
  0.6118   0.6120   0.6168   0.6213   0.6258   0.6301   0.6302   0.6313
  0.6347   0.6412   0.6441   0.6502   0.6575   0.6582   0.6701   0.6741
  0.6758   0.6773   0.6817   0.6822   0.6862   0.6883   0.6896   0.7003
  0.7023   0.7029   0.7147   0.7275   0.7294   0.7329   0.7332   0.7376
  0.7414   0.7417   0.7425   0.7448   0.7526   0.7536   0.7539   0.7564
  0.7588   0.7637   0.7659   0.7687   0.7728   0.7749   0.7810   0.7823
  0.7825   0.7857   0.8011   0.8013   0.8048   0.8143   0.8151   0.8364
  0.8455   0.8564   0.8605   0.8649   0.8702   0.8891   0.8958   0.9076
  0.9114   0.9159   0.9392   0.9413   0.9502   0.9508   0.9521   0.9525
  0.9634   0.9774   0.9897   1.0116   1.0121   1.0272   1.0325   1.0342
  1.0655   1.0666   1.0746   1.0895   1.1011   1.1023   1.1165   1.1211
  1.1239   1.1305   1.1441   1.1463   1.1622   1.1756   1.2027   1.2055
  1.2072   1.2226   1.2504   1.2531   1.2601   1.2605   1.2688   1.2843
  1.2897   1.3012   1.3133   1.3304   1.3314   1.3384   1.3399   1.3405
  1.3425   1.3611   1.3666   1.3878   1.3949   1.4047   1.4233   1.4278
  1.4309   1.4447   1.4538   1.4617   1.4720   1.4743   1.4813   1.4833
  1.4890   1.4909   1.4927   1.4961   1.5034   1.5084   1.5103   1.5132
  1.5156   1.5167   1.5385   1.5411   1.5431   1.5459   1.5512   1.5630
  1.5791   1.5795   1.5844   1.5969   1.5981   1.6080   1.6090   1.6214
  1.6259   1.6265   1.6444   1.6455   1.6474   1.6516   1.6524   1.6561
  1.6619   1.6667   1.6724   1.6741   1.6833   1.6854   1.6925   1.6944
  1.7009   1.7042   1.7131   1.7190   1.7206   1.7269   1.7287   1.7376
  1.7380   1.7479   1.7535   1.7742   1.7917   1.7987   1.8011   1.8102
  1.8116   1.8315   1.8369   1.8399   1.8410   1.8519   1.8562   1.8685
  1.8686   1.8731   1.8839   1.9084   1.9106   1.9237   1.9242   1.9301
  1.9345   1.9420   1.9443   1.9496   1.9745   1.9839   1.9899   1.9937
  1.9946   2.0157   2.0248   2.0280   2.0345   2.0457   2.0637   2.0678
  2.0754   2.0953   2.0994   2.1050   2.1124   2.1177   2.1220   2.1264
  2.1342   2.1433   2.1680   2.1702   2.1731   2.1741   2.1876   2.1956
  2.1972   2.2087   2.2092   2.2408   2.2443   2.2469   2.2587   2.2647
  2.2950   2.2961   2.2966   2.3083   2.3284   2.3332   2.3420   2.3646
  2.3716   2.3773   2.4131   2.4174   2.4203   2.4230   2.4476   2.4561
  2.4604   2.4626   2.4788   2.4886   2.4955   2.4970   2.5028   2.5086
  2.5093   2.5206   2.5229   2.5276   2.5289   2.5436   2.5439   2.5486
  2.5583   2.5791   2.5795   2.5804   2.5821   2.6089   2.6146   2.6181
  2.6189   2.6265   2.6295   2.6391   2.6417   2.6426   2.6431   2.6488
  2.6669   2.6729   2.6814   2.6852   2.6966   2.7049   2.7140   2.7290
  2.7361   2.7375   2.7425   2.7500   2.7520   2.7590   2.7703   2.7858
  2.7945   2.8040   2.8042   2.8131   2.8451   2.8576   2.8579   2.8665
  2.9071   2.9170   2.9309   2.9389   2.9401   2.9426   2.9449   2.9791
  2.9899   3.0014   3.0035   3.0068   3.0238   3.0434   3.0489   3.0589
  3.0689   3.0746   3.0771   3.0858   3.0960   3.1192   3.1288   3.1304
  3.1414   3.1453   3.1657   3.2024   3.2078   3.2339   3.2521   3.2556
  3.2690   3.2698   3.2743   3.2782   3.2918   3.3449   3.3550   3.3584
  3.3696   3.3837   3.4036   3.4342   3.4605   3.4674   3.5078   3.5616
  3.6069   3.6235   3.6487   3.6752   3.7832   3.7836   3.7866   3.7884
  3.7944   3.7968   3.8054   3.8076   3.8276   3.8297   3.8464   3.8502
  3.8529   3.8565   3.8657   3.8785   3.8897   3.9032   3.9138   3.9616
  3.9886   4.0825   4.0913   4.1035   4.1831   4.2346   4.2400   4.3032
  4.3037   4.3677   4.3709   4.3761   4.3862   4.5172   4.6866   4.7049
  4.9445   5.2091   5.2308   5.4229   5.4357   5.8233   5.9081  23.5915
 23.6859  23.7172  23.8783  23.8843  23.8880  23.8896  23.9283  23.9686
 23.9690  23.9746  23.9782  23.9930  24.0065  24.0135  24.0137  24.0363
 24.0486  24.1225  24.1498  24.2677  24.2695  50.1255  50.1675
 --------------------------------------------------------------
 
          Ground-State Mulliken Net Atomic Charges

     Atom                 Charge (a.u.)
  ----------------------------------------
      1 C                    -2.624601
      2 C                    -2.642793
      3 C                    -1.593169
      4 C                    -2.629057
      5 C                    -2.632955
      6 C                    -1.595744
      7 O                    -0.276866
      8 O                    -0.277151
      9 C                    -1.010676
     10 C                    -1.012982
     11 C                     1.118519
     12 C                     1.128602
     13 C                    -1.011728
     14 C                     1.128185
     15 C                     1.135845
     16 C                    -1.008333
     17 H                    -0.111252
     18 C                    -0.347360
     19 H                    -0.112149
     20 C                    -0.344658
     21 C                     2.009020
     22 C                     2.007047
     23 C                     2.011564
     24 C                     2.007590
     25 C                    -0.347849
     26 H                     0.050652
     27 H                     0.315468
     28 H                     0.054081
     29 H                     0.050046
     30 H                     0.315035
     31 H                     0.055230
     32 H                     0.348576
     33 H                     0.273502
     34 H                     0.359327
     35 H                     0.359912
     36 H                     0.347860
     37 H                     0.272659
     38 H                     0.348277
     39 H                     0.272961
     40 H                     0.359768
     41 H                     0.360028
     42 H                     0.347803
     43 H                     0.272789
     44 C                    -0.347232
     45 H                    -0.112551
     46 H                    -0.110585
     47 H                     0.050295
     48 H                     0.316509
     49 H                     0.052836
     50 H                     0.050384
     51 H                     0.315277
     52 H                     0.054041
  ----------------------------------------
  Sum of atomic charges =    -2.000000

 -----------------------------------------------------------------
                    Cartesian Multipole Moments
 -----------------------------------------------------------------
    Charge (ESU x 10^10)
                -9.6064
    Dipole Moment (Debye)
         X       0.2893      Y       0.2483      Z      -0.2948
       Tot       0.4819
    Quadrupole Moments (Debye-Ang)
        XX    -194.8111     XY       8.5380     YY    -216.8838
        XZ      -4.7570     YZ      -3.4323     ZZ    -170.7579
    Octopole Moments (Debye-Ang^2)
       XXX      25.7942    XXY      -0.9706    XYY       0.4387
       YYY      13.4246    XXZ     -16.1609    XYZ      14.6814
       YYZ       3.8872    XZZ       3.3045    YZZ      13.5127
       ZZZ     -13.5100
    Hexadecapole Moments (Debye-Ang^3)
      XXXX   -9128.9176   XXXY    -950.3156   XXYY   -2179.9480
      XYYY    -842.6550   YYYY   -4089.0263   XXXZ   -1048.1006
      XXYZ    -140.2279   XYYZ    -337.6905   YYYZ    -378.3410
      XXZZ   -1744.5669   XYZZ    -302.1701   YYZZ    -894.3906
      XZZZ   -1006.7470   YZZZ    -370.3882   ZZZZ   -1442.2526
 -----------------------------------------------------------------
 Total job time:  3650.03s(wall), 23656.56s(cpu) 
 Sat Feb  3 11:28:16 2024

        *************************************************************
        *                                                           *
        *  Thank you very much for using Q-Chem.  Have a nice day.  *
        *                                                           *
        *************************************************************


