 Entering Gaussian System, Link 0=g16
 Input=340-rad.com
 Output=340-rad.log
 Initial command:
 /sysapps/ubuntu-applications/gaussian/Gaussian/AVX2/g16/l1.exe "/scratch/selhajj1/4408533/Gau-1415595.inp" -scrdir="/scratch/selhajj1/4408533/"
 Entering Link 1 = /sysapps/ubuntu-applications/gaussian/Gaussian/AVX2/g16/l1.exe PID=   1415597.
  
 Copyright (c) 1988,1990,1992,1993,1995,1998,2003,2009,2016,
            Gaussian, Inc.  All Rights Reserved.
  
 This is part of the Gaussian(R) 16 program.  It is based on
 the Gaussian(R) 09 system (copyright 2009, Gaussian, Inc.),
 the Gaussian(R) 03 system (copyright 2003, Gaussian, Inc.),
 the Gaussian(R) 98 system (copyright 1998, Gaussian, Inc.),
 the Gaussian(R) 94 system (copyright 1995, Gaussian, Inc.),
 the Gaussian 92(TM) system (copyright 1992, Gaussian, Inc.),
 the Gaussian 90(TM) system (copyright 1990, Gaussian, Inc.),
 the Gaussian 88(TM) system (copyright 1988, Gaussian, Inc.),
 the Gaussian 86(TM) system (copyright 1986, Carnegie Mellon
 University), and the Gaussian 82(TM) system (copyright 1983,
 Carnegie Mellon University). Gaussian is a federally registered
 trademark of Gaussian, Inc.
  
 This software contains proprietary and confidential information,
 including trade secrets, belonging to Gaussian, Inc.
  
 This software is provided under written license and may be
 used, copied, transmitted, or stored only in accord with that
 written license.
  
 The following legend is applicable only to US Government
 contracts under FAR:
  
                    RESTRICTED RIGHTS LEGEND
  
 Use, reproduction and disclosure by the US Government is
 subject to restrictions as set forth in subparagraphs (a)
 and (c) of the Commercial Computer Software - Restricted
 Rights clause in FAR 52.227-19.
  
 Gaussian, Inc.
 340 Quinnipiac St., Bldg. 40, Wallingford CT 06492
  
  
 ---------------------------------------------------------------
 Warning -- This program may not be used in any manner that
 competes with the business of Gaussian, Inc. or will provide
 assistance to any competitor of Gaussian, Inc.  The licensee
 of this program is prohibited from giving any competitor of
 Gaussian, Inc. access to this program.  By using this program,
 the user acknowledges that Gaussian, Inc. is engaged in the
 business of creating and licensing software in the field of
 computational chemistry and represents and warrants to the
 licensee that it is not a competitor of Gaussian, Inc. and that
 it will not use this program in any manner prohibited above.
 ---------------------------------------------------------------
  

 Cite this work as:
 Gaussian 16, Revision A.03,
 M. J. Frisch, G. W. Trucks, H. B. Schlegel, G. E. Scuseria, 
 M. A. Robb, J. R. Cheeseman, G. Scalmani, V. Barone, 
 G. A. Petersson, H. Nakatsuji, X. Li, M. Caricato, A. V. Marenich, 
 J. Bloino, B. G. Janesko, R. Gomperts, B. Mennucci, H. P. Hratchian, 
 J. V. Ortiz, A. F. Izmaylov, J. L. Sonnenberg, D. Williams-Young, 
 F. Ding, F. Lipparini, F. Egidi, J. Goings, B. Peng, A. Petrone, 
 T. Henderson, D. Ranasinghe, V. G. Zakrzewski, J. Gao, N. Rega, 
 G. Zheng, W. Liang, M. Hada, M. Ehara, K. Toyota, R. Fukuda, 
 J. Hasegawa, M. Ishida, T. Nakajima, Y. Honda, O. Kitao, H. Nakai, 
 T. Vreven, K. Throssell, J. A. Montgomery, Jr., J. E. Peralta, 
 F. Ogliaro, M. J. Bearpark, J. J. Heyd, E. N. Brothers, K. N. Kudin, 
 V. N. Staroverov, T. A. Keith, R. Kobayashi, J. Normand, 
 K. Raghavachari, A. P. Rendell, J. C. Burant, S. S. Iyengar, 
 J. Tomasi, M. Cossi, J. M. Millam, M. Klene, C. Adamo, R. Cammi, 
 J. W. Ochterski, R. L. Martin, K. Morokuma, O. Farkas, 
 J. B. Foresman, and D. J. Fox, Gaussian, Inc., Wallingford CT, 2016.
 
 ******************************************
 Gaussian 16:  ES64L-G16RevA.03 25-Dec-2016
                11-Feb-2024 
 ******************************************
 %chk=340-rad.chk
 %nproc=8
 Will use up to    8 processors via shared memory.
 %mem=30GB
 ----------------------------------------------------------------------
 #P UB3LYP/6-311++G(d,p) nosym opt freq SCRF=(PCM,Solvent=n,n-DiMethylF
 ormamide)
 ----------------------------------------------------------------------
 1/18=20,19=15,26=3,38=1/1,3;
 2/9=110,12=2,15=1,17=6,18=5,40=1/2;
 3/5=4,6=6,7=1111,11=2,25=1,30=1,70=2201,71=1,72=148,74=-5,116=2/1,2,3;
 4//1;
 5/5=2,38=5,53=148/2;
 6/7=2,8=2,9=2,10=2,28=1/1;
 7/30=1/1,2,3,16;
 1/18=20,19=15,26=3/3(2);
 2/9=110,15=1/2;
 99//99;
 2/9=110,15=1/2;
 3/5=4,6=6,7=1111,11=2,25=1,30=1,70=2205,71=1,72=148,74=-5,116=2/1,2,3;
 4/5=5,16=3,69=1/1;
 5/5=2,38=5,53=148/2;
 7/30=1/1,2,3,16;
 1/18=20,19=15,26=3/3(-5);
 2/9=110,15=1/2;
 6/7=2,8=2,9=2,10=2,19=2,28=1/1;
 99/9=1/99;
 Leave Link    1 at Sun Feb 11 15:18:38 2024, MaxMem=  4026531840 cpu:               0.9 elap:               0.1
 (Enter /sysapps/ubuntu-applications/gaussian/Gaussian/AVX2/g16/l101.exe)
 -------
 Radical
 -------
 Symbolic Z-matrix:
 Charge = -1 Multiplicity = 2
 O                     2.26836   2.76787  -0.23501 
 C                     2.36104   1.41889  -0.15347 
 C                     3.6134    0.83352   0.01154 
 C                     3.73777  -0.55602   0.11403 
 C                     2.60014  -1.3648    0.03163 
 C                     1.34002  -0.80093  -0.15096 
 C                     0.12398  -1.66897  -0.38462 
 C                    -1.1891   -1.02282  -0.00358 
 C                    -2.3027   -1.79498   0.31733 
 C                    -3.54615  -1.19504   0.53853 
 C                    -3.67747   0.1939    0.43659 
 C                    -2.57316   0.98608   0.13431 
 O                    -2.72568   2.32967   0.05645 
 C                    -1.29157   0.38999  -0.08385 
 C                    -0.12431   1.21196  -0.30819 
 O                    -0.24677   2.52035  -0.43723 
 C                     1.18578   0.60747  -0.2283 
 H                     1.28591   2.95611  -0.33843 
 H                     4.48003   1.48365   0.06909 
 H                     4.7172   -1.00282   0.25269 
 H                     2.69613  -2.44555   0.09438 
 H                     0.23813  -2.63188   0.12491 
 H                     0.08173  -1.90532  -1.46454 
 H                    -2.20185  -2.8753    0.37972 
 H                    -4.41064  -1.80355   0.78453 
 H                    -4.63129   0.68427   0.60027 
 H                    -1.80892   2.68426  -0.15782 
 
 ITRead=  0  0  0  0  0  0  0  0  0  0  0  0  0  0  0  0  0  0  0  0
 ITRead=  0  0  0  0  0  0  0
 MicOpt= -1 -1 -1 -1 -1 -1 -1 -1 -1 -1 -1 -1 -1 -1 -1 -1 -1 -1 -1 -1
 MicOpt= -1 -1 -1 -1 -1 -1 -1
 NAtoms=     27 NQM=       27 NQMF=       0 NMMI=      0 NMMIF=      0
                NMic=       0 NMicF=      0.
                    Isotopes and Nuclear Properties:
 (Nuclear quadrupole moments (NQMom) in fm**2, nuclear magnetic moments (NMagM)
  in nuclear magnetons)

  Atom         1           2           3           4           5           6           7           8           9          10
 IAtWgt=          16          12          12          12          12          12          12          12          12          12
 AtmWgt=  15.9949146  12.0000000  12.0000000  12.0000000  12.0000000  12.0000000  12.0000000  12.0000000  12.0000000  12.0000000
 NucSpn=           0           0           0           0           0           0           0           0           0           0
 AtZEff=  -0.0000000  -0.0000000  -0.0000000  -0.0000000  -0.0000000  -0.0000000  -0.0000000  -0.0000000  -0.0000000  -0.0000000
 NQMom=    0.0000000   0.0000000   0.0000000   0.0000000   0.0000000   0.0000000   0.0000000   0.0000000   0.0000000   0.0000000
 NMagM=    0.0000000   0.0000000   0.0000000   0.0000000   0.0000000   0.0000000   0.0000000   0.0000000   0.0000000   0.0000000
 AtZNuc=   8.0000000   6.0000000   6.0000000   6.0000000   6.0000000   6.0000000   6.0000000   6.0000000   6.0000000   6.0000000

  Atom        11          12          13          14          15          16          17          18          19          20
 IAtWgt=          12          12          16          12          12          16          12           1           1           1
 AtmWgt=  12.0000000  12.0000000  15.9949146  12.0000000  12.0000000  15.9949146  12.0000000   1.0078250   1.0078250   1.0078250
 NucSpn=           0           0           0           0           0           0           0           1           1           1
 AtZEff=  -0.0000000  -0.0000000  -0.0000000  -0.0000000  -0.0000000  -0.0000000  -0.0000000  -0.0000000  -0.0000000  -0.0000000
 NQMom=    0.0000000   0.0000000   0.0000000   0.0000000   0.0000000   0.0000000   0.0000000   0.0000000   0.0000000   0.0000000
 NMagM=    0.0000000   0.0000000   0.0000000   0.0000000   0.0000000   0.0000000   0.0000000   2.7928460   2.7928460   2.7928460
 AtZNuc=   6.0000000   6.0000000   8.0000000   6.0000000   6.0000000   8.0000000   6.0000000   1.0000000   1.0000000   1.0000000

  Atom        21          22          23          24          25          26          27
 IAtWgt=           1           1           1           1           1           1           1
 AtmWgt=   1.0078250   1.0078250   1.0078250   1.0078250   1.0078250   1.0078250   1.0078250
 NucSpn=           1           1           1           1           1           1           1
 AtZEff=  -0.0000000  -0.0000000  -0.0000000  -0.0000000  -0.0000000  -0.0000000  -0.0000000
 NQMom=    0.0000000   0.0000000   0.0000000   0.0000000   0.0000000   0.0000000   0.0000000
 NMagM=    2.7928460   2.7928460   2.7928460   2.7928460   2.7928460   2.7928460   2.7928460
 AtZNuc=   1.0000000   1.0000000   1.0000000   1.0000000   1.0000000   1.0000000   1.0000000
 Leave Link  101 at Sun Feb 11 15:18:39 2024, MaxMem=  4026531840 cpu:               6.9 elap:               0.9
 (Enter /sysapps/ubuntu-applications/gaussian/Gaussian/AVX2/g16/l103.exe)

 GradGradGradGradGradGradGradGradGradGradGradGradGradGradGradGradGradGrad
 Berny optimization.
 Initialization pass.
                           ----------------------------
                           !    Initial Parameters    !
                           ! (Angstroms and Degrees)  !
 --------------------------                            --------------------------
 ! Name  Definition              Value          Derivative Info.                !
 --------------------------------------------------------------------------------
 ! R1    R(1,2)                  1.3546         estimate D2E/DX2                !
 ! R2    R(1,18)                 1.0057         estimate D2E/DX2                !
 ! R3    R(2,3)                  1.3922         estimate D2E/DX2                !
 ! R4    R(2,17)                 1.4301         estimate D2E/DX2                !
 ! R5    R(3,4)                  1.3989         estimate D2E/DX2                !
 ! R6    R(3,19)                 1.0849         estimate D2E/DX2                !
 ! R7    R(4,5)                  1.3983         estimate D2E/DX2                !
 ! R8    R(4,20)                 1.0854         estimate D2E/DX2                !
 ! R9    R(5,6)                  1.3925         estimate D2E/DX2                !
 ! R10   R(5,21)                 1.0868         estimate D2E/DX2                !
 ! R11   R(6,7)                  1.5122         estimate D2E/DX2                !
 ! R12   R(6,17)                 1.4189         estimate D2E/DX2                !
 ! R13   R(7,8)                  1.5122         estimate D2E/DX2                !
 ! R14   R(7,22)                 1.0954         estimate D2E/DX2                !
 ! R15   R(7,23)                 1.1063         estimate D2E/DX2                !
 ! R16   R(8,9)                  1.3926         estimate D2E/DX2                !
 ! R17   R(8,14)                 1.4188         estimate D2E/DX2                !
 ! R18   R(9,10)                 1.3982         estimate D2E/DX2                !
 ! R19   R(9,24)                 1.0868         estimate D2E/DX2                !
 ! R20   R(10,11)                1.3988         estimate D2E/DX2                !
 ! R21   R(10,25)                1.0854         estimate D2E/DX2                !
 ! R22   R(11,12)                1.3923         estimate D2E/DX2                !
 ! R23   R(11,26)                1.0849         estimate D2E/DX2                !
 ! R24   R(12,13)                1.3545         estimate D2E/DX2                !
 ! R25   R(12,14)                1.4302         estimate D2E/DX2                !
 ! R26   R(13,27)                1.006          estimate D2E/DX2                !
 ! R27   R(14,15)                1.4452         estimate D2E/DX2                !
 ! R28   R(15,16)                1.3204         estimate D2E/DX2                !
 ! R29   R(15,17)                1.445          estimate D2E/DX2                !
 ! A1    A(2,1,18)             105.0359         estimate D2E/DX2                !
 ! A2    A(1,2,3)              119.1685         estimate D2E/DX2                !
 ! A3    A(1,2,17)             120.3744         estimate D2E/DX2                !
 ! A4    A(3,2,17)             120.4561         estimate D2E/DX2                !
 ! A5    A(2,3,4)              120.4187         estimate D2E/DX2                !
 ! A6    A(2,3,19)             118.2213         estimate D2E/DX2                !
 ! A7    A(4,3,19)             121.3564         estimate D2E/DX2                !
 ! A8    A(3,4,5)              119.8618         estimate D2E/DX2                !
 ! A9    A(3,4,20)             119.8994         estimate D2E/DX2                !
 ! A10   A(5,4,20)             120.2382         estimate D2E/DX2                !
 ! A11   A(4,5,6)              120.6474         estimate D2E/DX2                !
 ! A12   A(4,5,21)             119.9947         estimate D2E/DX2                !
 ! A13   A(6,5,21)             119.3509         estimate D2E/DX2                !
 ! A14   A(5,6,7)              121.0307         estimate D2E/DX2                !
 ! A15   A(5,6,17)             120.4926         estimate D2E/DX2                !
 ! A16   A(7,6,17)             118.2889         estimate D2E/DX2                !
 ! A17   A(6,7,8)              114.4584         estimate D2E/DX2                !
 ! A18   A(6,7,22)             110.4209         estimate D2E/DX2                !
 ! A19   A(6,7,23)             107.7082         estimate D2E/DX2                !
 ! A20   A(8,7,22)             110.4197         estimate D2E/DX2                !
 ! A21   A(8,7,23)             107.7037         estimate D2E/DX2                !
 ! A22   A(22,7,23)            105.6794         estimate D2E/DX2                !
 ! A23   A(7,8,9)              121.03           estimate D2E/DX2                !
 ! A24   A(7,8,14)             118.2901         estimate D2E/DX2                !
 ! A25   A(9,8,14)             120.4922         estimate D2E/DX2                !
 ! A26   A(8,9,10)             120.6431         estimate D2E/DX2                !
 ! A27   A(8,9,24)             119.3532         estimate D2E/DX2                !
 ! A28   A(10,9,24)            119.9967         estimate D2E/DX2                !
 ! A29   A(9,10,11)            119.8669         estimate D2E/DX2                !
 ! A30   A(9,10,25)            120.2382         estimate D2E/DX2                !
 ! A31   A(11,10,25)           119.8943         estimate D2E/DX2                !
 ! A32   A(10,11,12)           120.4188         estimate D2E/DX2                !
 ! A33   A(10,11,26)           121.3546         estimate D2E/DX2                !
 ! A34   A(12,11,26)           118.223          estimate D2E/DX2                !
 ! A35   A(11,12,13)           119.1822         estimate D2E/DX2                !
 ! A36   A(11,12,14)           120.4466         estimate D2E/DX2                !
 ! A37   A(13,12,14)           120.3702         estimate D2E/DX2                !
 ! A38   A(12,13,27)           105.0271         estimate D2E/DX2                !
 ! A39   A(8,14,12)            118.1075         estimate D2E/DX2                !
 ! A40   A(8,14,15)            121.1196         estimate D2E/DX2                !
 ! A41   A(12,14,15)           120.6913         estimate D2E/DX2                !
 ! A42   A(14,15,16)           120.2551         estimate D2E/DX2                !
 ! A43   A(14,15,17)           119.0628         estimate D2E/DX2                !
 ! A44   A(16,15,17)           120.2645         estimate D2E/DX2                !
 ! A45   A(2,17,6)             118.0984         estimate D2E/DX2                !
 ! A46   A(2,17,15)            120.7034         estimate D2E/DX2                !
 ! A47   A(6,17,15)            121.1166         estimate D2E/DX2                !
 ! D1    D(18,1,2,3)          -179.3181         estimate D2E/DX2                !
 ! D2    D(18,1,2,17)            0.3236         estimate D2E/DX2                !
 ! D3    D(1,2,3,4)            179.273          estimate D2E/DX2                !
 ! D4    D(1,2,3,19)            -0.0365         estimate D2E/DX2                !
 ! D5    D(17,2,3,4)            -0.3684         estimate D2E/DX2                !
 ! D6    D(17,2,3,19)         -179.6779         estimate D2E/DX2                !
 ! D7    D(1,2,17,6)           179.383          estimate D2E/DX2                !
 ! D8    D(1,2,17,15)           -3.8657         estimate D2E/DX2                !
 ! D9    D(3,2,17,6)            -0.98           estimate D2E/DX2                !
 ! D10   D(3,2,17,15)          175.7713         estimate D2E/DX2                !
 ! D11   D(2,3,4,5)              0.901          estimate D2E/DX2                !
 ! D12   D(2,3,4,20)          -179.3763         estimate D2E/DX2                !
 ! D13   D(19,3,4,5)          -179.8114         estimate D2E/DX2                !
 ! D14   D(19,3,4,20)           -0.0887         estimate D2E/DX2                !
 ! D15   D(3,4,5,6)             -0.0484         estimate D2E/DX2                !
 ! D16   D(3,4,5,21)           178.982          estimate D2E/DX2                !
 ! D17   D(20,4,5,6)          -179.7702         estimate D2E/DX2                !
 ! D18   D(20,4,5,21)           -0.7398         estimate D2E/DX2                !
 ! D19   D(4,5,6,7)            173.5962         estimate D2E/DX2                !
 ! D20   D(4,5,6,17)            -1.3373         estimate D2E/DX2                !
 ! D21   D(21,5,6,7)            -5.4404         estimate D2E/DX2                !
 ! D22   D(21,5,6,17)          179.6261         estimate D2E/DX2                !
 ! D23   D(5,6,7,8)            155.9472         estimate D2E/DX2                !
 ! D24   D(5,6,7,22)            30.6133         estimate D2E/DX2                !
 ! D25   D(5,6,7,23)           -84.3222         estimate D2E/DX2                !
 ! D26   D(17,6,7,8)           -29.0105         estimate D2E/DX2                !
 ! D27   D(17,6,7,22)         -154.3444         estimate D2E/DX2                !
 ! D28   D(17,6,7,23)           90.7201         estimate D2E/DX2                !
 ! D29   D(5,6,17,2)             1.8257         estimate D2E/DX2                !
 ! D30   D(5,6,17,15)         -174.9115         estimate D2E/DX2                !
 ! D31   D(7,6,17,2)          -173.2443         estimate D2E/DX2                !
 ! D32   D(7,6,17,15)           10.0185         estimate D2E/DX2                !
 ! D33   D(6,7,8,9)           -155.948          estimate D2E/DX2                !
 ! D34   D(6,7,8,14)            29.0069         estimate D2E/DX2                !
 ! D35   D(22,7,8,9)           -30.6136         estimate D2E/DX2                !
 ! D36   D(22,7,8,14)          154.3413         estimate D2E/DX2                !
 ! D37   D(23,7,8,9)            84.3189         estimate D2E/DX2                !
 ! D38   D(23,7,8,14)          -90.7262         estimate D2E/DX2                !
 ! D39   D(7,8,9,10)          -173.5991         estimate D2E/DX2                !
 ! D40   D(7,8,9,24)             5.436          estimate D2E/DX2                !
 ! D41   D(14,8,9,10)            1.3373         estimate D2E/DX2                !
 ! D42   D(14,8,9,24)         -179.6276         estimate D2E/DX2                !
 ! D43   D(7,8,14,12)          173.2524         estimate D2E/DX2                !
 ! D44   D(7,8,14,15)          -10.011          estimate D2E/DX2                !
 ! D45   D(9,8,14,12)           -1.8204         estimate D2E/DX2                !
 ! D46   D(9,8,14,15)          174.9163         estimate D2E/DX2                !
 ! D47   D(8,9,10,11)            0.0452         estimate D2E/DX2                !
 ! D48   D(8,9,10,25)          179.7643         estimate D2E/DX2                !
 ! D49   D(24,9,10,11)        -178.9837         estimate D2E/DX2                !
 ! D50   D(24,9,10,25)           0.7354         estimate D2E/DX2                !
 ! D51   D(9,10,11,12)          -0.9002         estimate D2E/DX2                !
 ! D52   D(9,10,11,26)         179.8109         estimate D2E/DX2                !
 ! D53   D(25,10,11,12)        179.3797         estimate D2E/DX2                !
 ! D54   D(25,10,11,26)          0.0909         estimate D2E/DX2                !
 ! D55   D(10,11,12,13)       -179.2693         estimate D2E/DX2                !
 ! D56   D(10,11,12,14)          0.3733         estimate D2E/DX2                !
 ! D57   D(26,11,12,13)          0.0415         estimate D2E/DX2                !
 ! D58   D(26,11,12,14)        179.684          estimate D2E/DX2                !
 ! D59   D(11,12,13,27)        179.3264         estimate D2E/DX2                !
 ! D60   D(14,12,13,27)         -0.3165         estimate D2E/DX2                !
 ! D61   D(11,12,14,8)           0.9722         estimate D2E/DX2                !
 ! D62   D(11,12,14,15)       -175.7791         estimate D2E/DX2                !
 ! D63   D(13,12,14,8)        -179.3896         estimate D2E/DX2                !
 ! D64   D(13,12,14,15)          3.8592         estimate D2E/DX2                !
 ! D65   D(8,14,15,16)         177.0873         estimate D2E/DX2                !
 ! D66   D(8,14,15,17)         -10.3082         estimate D2E/DX2                !
 ! D67   D(12,14,15,16)         -6.2601         estimate D2E/DX2                !
 ! D68   D(12,14,15,17)        166.3444         estimate D2E/DX2                !
 ! D69   D(14,15,17,2)        -166.3486         estimate D2E/DX2                !
 ! D70   D(14,15,17,6)          10.3038         estimate D2E/DX2                !
 ! D71   D(16,15,17,2)           6.2551         estimate D2E/DX2                !
 ! D72   D(16,15,17,6)        -177.0924         estimate D2E/DX2                !
 --------------------------------------------------------------------------------
 Trust Radius=3.00D-01 FncErr=1.00D-07 GrdErr=1.00D-06 EigMax=2.50D+02 EigMin=1.00D-04
 Number of steps in this run=    158 maximum allowed number of steps=    162.
 GradGradGradGradGradGradGradGradGradGradGradGradGradGradGradGradGradGrad

 Leave Link  103 at Sun Feb 11 15:18:39 2024, MaxMem=  4026531840 cpu:               0.3 elap:               0.1
 (Enter /sysapps/ubuntu-applications/gaussian/Gaussian/AVX2/g16/l202.exe)
                          Input orientation:                          
 ---------------------------------------------------------------------
 Center     Atomic      Atomic             Coordinates (Angstroms)
 Number     Number       Type             X           Y           Z
 ---------------------------------------------------------------------
      1          8           0        2.268361    2.767871   -0.235007
      2          6           0        2.361036    1.418887   -0.153472
      3          6           0        3.613404    0.833517    0.011540
      4          6           0        3.737774   -0.556023    0.114032
      5          6           0        2.600136   -1.364798    0.031626
      6          6           0        1.340024   -0.800931   -0.150959
      7          6           0        0.123975   -1.668973   -0.384620
      8          6           0       -1.189103   -1.022817   -0.003576
      9          6           0       -2.302702   -1.794976    0.317325
     10          6           0       -3.546153   -1.195036    0.538528
     11          6           0       -3.677469    0.193895    0.436593
     12          6           0       -2.573163    0.986077    0.134314
     13          8           0       -2.725678    2.329665    0.056448
     14          6           0       -1.291572    0.389988   -0.083845
     15          6           0       -0.124308    1.211958   -0.308189
     16          8           0       -0.246771    2.520354   -0.437226
     17          6           0        1.185783    0.607470   -0.228304
     18          1           0        1.285910    2.956107   -0.338426
     19          1           0        4.480025    1.483653    0.069086
     20          1           0        4.717199   -1.002815    0.252686
     21          1           0        2.696130   -2.445550    0.094384
     22          1           0        0.238134   -2.631881    0.124909
     23          1           0        0.081730   -1.905320   -1.464542
     24          1           0       -2.201853   -2.875304    0.379720
     25          1           0       -4.410637   -1.803550    0.784526
     26          1           0       -4.631288    0.684273    0.600273
     27          1           0       -1.808924    2.684259   -0.157824
 ---------------------------------------------------------------------
                    Distance matrix (angstroms):
                    1          2          3          4          5
     1  O    0.000000
     2  C    1.354620   0.000000
     3  C    2.368892   1.392233   0.000000
     4  C    3.650928   2.422238   1.398855   0.000000
     5  C    4.154530   2.800059   2.420683   1.398259   0.000000
     6  C    3.688526   2.443371   2.804654   2.424748   1.392539
     7  C    4.930148   3.820046   4.312252   3.814034   2.529260
     8  C    5.135848   4.311366   5.148813   4.950338   3.804803
     9  C    6.482226   5.683398   6.480956   6.169577   4.929959
    10  C    7.078952   6.496641   7.460027   7.324215   6.169492
    11  C    6.513777   6.189695   7.331208   7.460044   6.480883
    12  C    5.172189   4.961498   6.189666   6.496646   5.683325
    13  O    5.021693   5.171870   6.513404   7.078610   6.481818
    14  C    4.283725   3.795395   4.925912   5.121368   4.270597
    15  C    2.855011   2.498738   3.770403   4.268455   3.765334
    16  O    2.535359   2.845066   4.236480   5.064048   4.839329
    17  C    2.416475   1.430111   2.449891   2.825521   2.440860
    18  H    1.005653   1.884980   3.169399   4.307135   4.531484
    19  H    2.575489   2.131629   1.084906   2.170999   3.413072
    20  H    4.522469   3.403103   2.156068   1.085413   2.159133
    21  H    5.241302   3.886849   3.405956   2.157712   1.086820
    22  H    5.780024   4.581804   4.838831   4.069003   2.682024
    23  H    5.303944   4.238454   4.706673   4.204659   2.978767
    24  H    7.225381   6.288428   6.907107   6.381914   5.045978
    25  H    8.157595   7.557744   8.481560   8.270580   7.064722
    26  H    7.255634   7.071095   8.267033   8.474430   7.537609
    27  H    4.078873   4.357723   5.731978   6.429556   5.989204
                    6          7          8          9         10
     6  C    0.000000
     7  C    1.512240   0.000000
     8  C    2.543116   1.512245   0.000000
     9  C    3.804848   2.529301   1.392591   0.000000
    10  C    4.950297   3.814008   2.424710   1.398224   0.000000
    11  C    5.148799   4.312267   2.804657   2.420706   1.398844
    12  C    4.311358   3.820096   2.443418   2.800160   2.422262
    13  O    5.135522   4.929926   3.688333   4.154471   3.650904
    14  C    2.889306   2.516656   1.418789   2.440776   2.825382
    15  C    2.494135   2.892620   2.494153   3.765411   4.268439
    16  O    3.691991   4.206029   3.691897   4.839243   5.063807
    17  C    1.418931   2.516757   2.889364   4.270713   5.121355
    18  H    3.762101   4.769024   4.697835   5.990070   6.430386
    19  H    3.889389   5.396302   6.198926   7.537667   8.474390
    20  H    3.407198   4.684830   5.911893   7.064751   8.270528
    21  H    2.145691   2.729194   4.138696   5.045916   6.381782
    22  H    2.154679   1.095374   2.154670   2.682029   4.068960
    23  H    2.128022   1.106289   2.127968   2.978715   4.204560
    24  H    4.138784   2.729272   2.145760   1.086817   2.157699
    25  H    5.911893   4.684839   3.407188   2.159106   1.085420
    26  H    6.198931   5.396323   3.889399   3.413070   2.170975
    27  H    4.697070   4.768455   3.761699   4.531350   4.307180
                   11         12         13         14         15
    11  C    0.000000
    12  C    1.392270   0.000000
    13  O    2.368951   1.354457   0.000000
    14  C    2.449860   1.430172   2.416338   0.000000
    15  C    3.770425   2.498744   2.854708   1.445154   0.000000
    16  O    4.236232   2.844778   2.534769   2.398947   1.320435
    17  C    4.925886   3.795327   4.283289   2.491075   1.445035
    18  H    5.732853   4.358549   4.079362   3.645983   2.243142
    19  H    8.266997   7.071018   7.255209   5.876293   4.627746
    20  H    8.481532   7.557717   8.157227   6.177255   5.353503
    21  H    6.906992   6.288331   7.224965   4.896306   4.636195
    22  H    4.838812   4.581823   5.779776   3.393416   3.885104
    23  H    4.706654   4.238511   5.303777   3.010103   3.331220
    24  H    3.405974   3.886947   5.241240   3.421350   4.636283
    25  H    2.156010   3.403102   4.522461   3.910786   5.353497
    26  H    1.084911   2.131685   2.575735   3.421743   4.627810
    27  H    3.169654   1.885001   1.006025   2.353042   2.242367
                   16         17         18         19         20
    16  O    0.000000
    17  C    2.398955   0.000000
    18  H    1.596481   2.353348   0.000000
    19  H    4.865563   3.421720   3.540700   0.000000
    20  H    6.126149   3.910917   5.272212   2.504493   0.000000
    21  H    5.796851   3.421433   5.599459   4.315270   2.488225
    22  H    5.205445   3.393552   5.704220   5.910531   4.767830
    23  H    4.555204   3.010204   5.133387   5.760395   5.025033
    24  H    5.796798   4.896477   6.832685   7.984015   7.169075
    25  H    6.125896   6.177278   7.507730   9.505863   9.178313
    26  H    4.865346   5.876287   6.407466   9.161724   9.505856
    27  H    1.595385   3.645036   3.111995   6.406545   7.506884
                   21         22         23         24         25
    21  H    0.000000
    22  H    2.465237   0.000000
    23  H    3.091470   1.754625   0.000000
    24  H    4.925073   2.465303   3.091427   0.000000
    25  H    7.169003   4.767840   5.024940   2.488223   0.000000
    26  H    7.983907   5.910509   5.760381   4.315250   2.504376
    27  H    6.831842   5.703659   5.132867   5.599293   5.272321
                   26         27
    26  H    0.000000
    27  H    3.541242   0.000000
 Symmetry turned off by external request.
 Stoichiometry    C14H10O3(1-,2)
 Framework group  C1[X(C14H10O3)]
 Deg. of freedom    75
 Full point group                 C1      NOp   1
 Rotational constants (GHZ):           0.9345413           0.3799893           0.2738200
 Leave Link  202 at Sun Feb 11 15:18:39 2024, MaxMem=  4026531840 cpu:               0.4 elap:               0.1
 (Enter /sysapps/ubuntu-applications/gaussian/Gaussian/AVX2/g16/l301.exe)
 Standard basis: 6-311++G(d,p) (5D, 7F)
 Ernie: Thresh=  0.10000D-02 Tol=  0.10000D-05 Strict=F.
   444 basis functions,   702 primitive gaussians,   461 cartesian basis functions
    60 alpha electrons       59 beta electrons
       nuclear repulsion energy      1139.2802723925 Hartrees.
 IExCor=  402 DFT=T Ex+Corr=B3LYP ExCW=0 ScaHFX=  0.200000
 ScaDFX=  0.800000  0.720000  1.000000  0.810000 ScalE2=  1.000000  1.000000
 IRadAn=      5 IRanWt=     -1 IRanGd=            0 ICorTp=0 IEmpDi=  4
 NAtoms=   27 NActive=   27 NUniq=   27 SFac= 1.00D+00 NAtFMM=   60 NAOKFM=F Big=F
 Integral buffers will be    131072 words long.
 Raffenetti 2 integral format.
 Two-electron integral symmetry is turned off.
 ------------------------------------------------------------------------------
 Polarizable Continuum Model (PCM)
 =================================
 Model                : PCM.
 Atomic radii         : UFF (Universal Force Field).
 Polarization charges : Total charges.
 Charge compensation  : None.
 Solution method      : On-the-fly selection.
 Cavity type          : Scaled VdW (van der Waals Surface) (Alpha=1.100).
 Cavity algorithm     : GePol (No added spheres)
                        Default sphere list used, NSphG=   27.
                        Lebedev-Laikov grids with approx.  5.0 points / Ang**2.
                        Smoothing algorithm: York/Karplus (Gamma=1.0000).
                        Polarization charges: spherical gaussians, with
                                              point-specific exponents (IZeta= 3).
                        Self-potential: point-specific (ISelfS= 7).
                        Self-field    : sphere-specific E.n sum rule (ISelfD= 2).
 1st derivatives      : Analytical E(r).r(x)/FMM algorithm (CHGder, D1EAlg=3).
                        Cavity 1st derivative terms included.
 Solvent              : n,n-DiMethylFormamide, Eps=  37.219000 Eps(inf)=   2.046330
 ------------------------------------------------------------------------------
 GePol: Number of generator spheres                  =      27
 GePol: Total number of spheres                      =      27
 GePol: Number of exposed spheres                    =      27 (100.00%)
 GePol: Number of points                             =    2102
 GePol: Average weight of points                     =       0.13
 GePol: Minimum weight of points                     =   0.14D-09
 GePol: Maximum weight of points                     =    0.20577
 GePol: Number of points with low weight             =     113
 GePol: Fraction of low-weight points (<1% of avg)   =       5.38%
 GePol: Cavity surface area                          =    266.671 Ang**2
 GePol: Cavity volume                                =    291.327 Ang**3
 Leave Link  301 at Sun Feb 11 15:18:39 2024, MaxMem=  4026531840 cpu:               1.1 elap:               0.2
 (Enter /sysapps/ubuntu-applications/gaussian/Gaussian/AVX2/g16/l302.exe)
 NPDir=0 NMtPBC=     1 NCelOv=     1 NCel=       1 NClECP=     1 NCelD=      1
         NCelK=      1 NCelE2=     1 NClLst=     1 CellRange=     0.0.
 One-electron integrals computed using PRISM.
 NBasis=   444 RedAO= T EigKep=  1.03D-06  NBF=   444
 NBsUse=   440 1.00D-06 EigRej=  4.59D-07 NBFU=   440
 Precomputing XC quadrature grid using
 IXCGrd= 4 IRadAn=           5 IRanWt=          -1 IRanGd=           0 AccXCQ= 0.00D+00.
 Generated NRdTot=       0 NPtTot=           0 NUsed=           0 NTot=          32
 NSgBfM=   461   461   461   461   461 MxSgAt=    27 MxSgA2=    27.
 Leave Link  302 at Sun Feb 11 15:18:40 2024, MaxMem=  4026531840 cpu:               3.6 elap:               0.5
 (Enter /sysapps/ubuntu-applications/gaussian/Gaussian/AVX2/g16/l303.exe)
 DipDrv:  MaxL=1.
 Leave Link  303 at Sun Feb 11 15:18:40 2024, MaxMem=  4026531840 cpu:               0.7 elap:               0.1
 (Enter /sysapps/ubuntu-applications/gaussian/Gaussian/AVX2/g16/l401.exe)
 ExpMin= 3.60D-02 ExpMax= 8.59D+03 ExpMxC= 1.30D+03 IAcc=3 IRadAn=         5 AccDes= 0.00D+00
 Harris functional with IExCor=  402 and IRadAn=       5 diagonalized for initial guess.
 HarFok:  IExCor=  402 AccDes= 0.00D+00 IRadAn=         5 IDoV= 1 UseB2=F ITyADJ=14
 ICtDFT=  3500011 ScaDFX=  1.000000  1.000000  1.000000  1.000000
 FoFCou: FMM=F IPFlag=           0 FMFlag=      100000 FMFlg1=           0
         NFxFlg=           0 DoJE=T BraDBF=F KetDBF=T FulRan=T
         wScrn=  0.000000 ICntrl=       500 IOpCl=  0 I1Cent=   200000004 NGrid=           0
         NMat0=    1 NMatS0=      1 NMatT0=    0 NMatD0=    1 NMtDS0=    0 NMtDT0=    0
 Symmetry not used in FoFCou.
 Harris En= -765.640411889940    
 JPrj=0 DoOrth=F DoCkMO=F.
 Initial guess <Sx>= 0.0000 <Sy>= 0.0000 <Sz>= 0.5000 <S**2>= 0.7500 S= 0.5000
 Leave Link  401 at Sun Feb 11 15:18:42 2024, MaxMem=  4026531840 cpu:              15.5 elap:               2.0
 (Enter /sysapps/ubuntu-applications/gaussian/Gaussian/AVX2/g16/l502.exe)
 Two-electron integral symmetry not used.
 UHF open shell SCF:
 Using DIIS extrapolation, IDIIS=  1040.
 NGot=  4026531840 LenX=  4026099796 LenY=  4025886814
 Requested convergence on RMS density matrix=1.00D-08 within 128 cycles.
 Requested convergence on MAX density matrix=1.00D-06.
 Requested convergence on             energy=1.00D-06.
 No special actions if energy rises.
 Fock matrices will be formed incrementally for  20 cycles.

 Cycle   1  Pass 1  IDiag  1:
 FoFJK:  IHMeth= 1 ICntrl=       0 DoSepK=F KAlg= 0 I1Cent=           0 FoldK=F
 IRaf= 880000000 NMat=       1 IRICut=       1 DoRegI=T DoRafI=F ISym2E= 0 IDoP0=0 IntGTp=1.
 FoFCou: FMM=F IPFlag=           0 FMFlag=      100000 FMFlg1=           0
         NFxFlg=           0 DoJE=F BraDBF=F KetDBF=F FulRan=T
         wScrn=  0.000000 ICntrl=         0 IOpCl=  1 I1Cent=           0 NGrid=           0
         NMat0=    1 NMatS0=      1 NMatT0=    0 NMatD0=    1 NMtDS0=    0 NMtDT0=    0
 Symmetry not used in FoFCou.
 Inv3:  Mode=1 IEnd=    13255212.
 Iteration    1 A*A^-1 deviation from unit magnitude is 2.89D-15 for    950.
 Iteration    1 A*A^-1 deviation from orthogonality  is 1.99D-15 for    897    186.
 Iteration    1 A^-1*A deviation from unit magnitude is 3.00D-15 for    950.
 Iteration    1 A^-1*A deviation from orthogonality  is 1.62D-15 for   1739    430.
 E= -765.103858676255    
 DIIS: error= 3.30D-02 at cycle   1 NSaved=   1.
 NSaved= 1 IEnMin= 1 EnMin= -765.103858676255     IErMin= 1 ErrMin= 3.30D-02
 ErrMax= 3.30D-02  0.00D+00 EMaxC= 1.00D-01 BMatC= 2.04D+00 BMatP= 2.04D+00
 IDIUse=3 WtCom= 6.70D-01 WtEn= 3.30D-01
 Coeff-Com:  0.100D+01
 Coeff-En:   0.100D+01
 Coeff:      0.100D+01
 Gap=     0.113 Goal=   None    Shift=    0.000
 Gap=     0.147 Goal=   None    Shift=    0.000
 GapD=    0.113 DampG=1.000 DampE=0.500 DampFc=0.5000 IDamp=-1.
 Damping current iteration by 5.00D-01
 RMSDP=7.86D-02 MaxDP=1.40D+01              OVMax= 2.86D-01

 Cycle   2  Pass 1  IDiag  1:
 RMSU=  3.63D-02    CP:  1.12D+00
 E= -765.292290417151     Delta-E=       -0.188431740896 Rises=F Damp=T
 DIIS: error= 6.63D-03 at cycle   2 NSaved=   2.
 NSaved= 2 IEnMin= 2 EnMin= -765.292290417151     IErMin= 2 ErrMin= 6.63D-03
 ErrMax= 6.63D-03  0.00D+00 EMaxC= 1.00D-01 BMatC= 1.25D-01 BMatP= 2.04D+00
 IDIUse=3 WtCom= 9.34D-01 WtEn= 6.63D-02
 Coeff-Com:  0.658D-01 0.934D+00
 Coeff-En:   0.131D+00 0.869D+00
 Coeff:      0.701D-01 0.930D+00
 Gap=     0.105 Goal=   None    Shift=    0.000
 Gap=     0.201 Goal=   None    Shift=    0.000
 RMSDP=3.77D-02 MaxDP=5.95D+00 DE=-1.88D-01 OVMax= 1.79D-01

 Cycle   3  Pass 1  IDiag  1:
 RMSU=  1.15D-02    CP:  8.87D-01  4.25D-01
 E= -765.519229831509     Delta-E=       -0.226939414359 Rises=F Damp=F
 DIIS: error= 1.19D-02 at cycle   3 NSaved=   3.
 NSaved= 3 IEnMin= 3 EnMin= -765.519229831509     IErMin= 2 ErrMin= 6.63D-03
 ErrMax= 1.19D-02  0.00D+00 EMaxC= 1.00D-01 BMatC= 1.23D-01 BMatP= 1.25D-01
 IDIUse=3 WtCom= 8.81D-01 WtEn= 1.19D-01
 Coeff-Com: -0.290D-01 0.500D+00 0.529D+00
 Coeff-En:   0.000D+00 0.000D+00 0.100D+01
 Coeff:     -0.256D-01 0.440D+00 0.585D+00
 Gap=     0.098 Goal=   None    Shift=    0.000
 Gap=     0.161 Goal=   None    Shift=    0.000
 RMSDP=7.36D-03 MaxDP=6.64D-01 DE=-2.27D-01 OVMax= 6.95D-02

 Cycle   4  Pass 1  IDiag  1:
 RMSU=  5.48D-03    CP:  9.18D-01  4.31D-01  7.40D-01
 E= -765.536938435436     Delta-E=       -0.017708603926 Rises=F Damp=F
 DIIS: error= 6.99D-03 at cycle   4 NSaved=   4.
 NSaved= 4 IEnMin= 4 EnMin= -765.536938435436     IErMin= 2 ErrMin= 6.63D-03
 ErrMax= 6.99D-03  0.00D+00 EMaxC= 1.00D-01 BMatC= 3.84D-02 BMatP= 1.23D-01
 IDIUse=3 WtCom= 9.30D-01 WtEn= 6.99D-02
 Coeff-Com: -0.229D-01 0.126D+00 0.384D+00 0.512D+00
 Coeff-En:   0.000D+00 0.000D+00 0.280D+00 0.720D+00
 Coeff:     -0.213D-01 0.118D+00 0.377D+00 0.527D+00
 Gap=     0.100 Goal=   None    Shift=    0.000
 Gap=     0.160 Goal=   None    Shift=    0.000
 RMSDP=5.40D-03 MaxDP=8.10D-01 DE=-1.77D-02 OVMax= 2.94D-02

 Cycle   5  Pass 1  IDiag  1:
 RMSU=  2.15D-03    CP:  8.87D-01  4.38D-01  8.96D-01  5.51D-01
 E= -765.545312333165     Delta-E=       -0.008373897729 Rises=F Damp=F
 DIIS: error= 1.14D-03 at cycle   5 NSaved=   5.
 NSaved= 5 IEnMin= 5 EnMin= -765.545312333165     IErMin= 5 ErrMin= 1.14D-03
 ErrMax= 1.14D-03  0.00D+00 EMaxC= 1.00D-01 BMatC= 1.65D-03 BMatP= 3.84D-02
 IDIUse=3 WtCom= 9.89D-01 WtEn= 1.14D-02
 Coeff-Com: -0.102D-01 0.346D-01 0.172D+00 0.292D+00 0.512D+00
 Coeff-En:   0.000D+00 0.000D+00 0.000D+00 0.000D+00 0.100D+01
 Coeff:     -0.101D-01 0.342D-01 0.170D+00 0.288D+00 0.518D+00
 Gap=     0.099 Goal=   None    Shift=    0.000
 Gap=     0.160 Goal=   None    Shift=    0.000
 RMSDP=1.46D-03 MaxDP=1.20D-01 DE=-8.37D-03 OVMax= 6.97D-03

 Cycle   6  Pass 1  IDiag  1:
 RMSU=  6.71D-04    CP:  8.79D-01  4.33D-01  8.71D-01  6.02D-01  6.38D-01
 E= -765.545638654449     Delta-E=       -0.000326321284 Rises=F Damp=F
 DIIS: error= 4.11D-04 at cycle   6 NSaved=   6.
 NSaved= 6 IEnMin= 6 EnMin= -765.545638654449     IErMin= 6 ErrMin= 4.11D-04
 ErrMax= 4.11D-04  0.00D+00 EMaxC= 1.00D-01 BMatC= 2.10D-04 BMatP= 1.65D-03
 IDIUse=3 WtCom= 9.96D-01 WtEn= 4.11D-03
 Coeff-Com: -0.172D-02-0.175D-02 0.274D-01 0.680D-01 0.283D+00 0.625D+00
 Coeff-En:   0.000D+00 0.000D+00 0.000D+00 0.000D+00 0.188D-01 0.981D+00
 Coeff:     -0.171D-02-0.174D-02 0.273D-01 0.678D-01 0.282D+00 0.627D+00
 Gap=     0.100 Goal=   None    Shift=    0.000
 Gap=     0.161 Goal=   None    Shift=    0.000
 RMSDP=5.40D-04 MaxDP=6.74D-02 DE=-3.26D-04 OVMax= 5.10D-03

 Cycle   7  Pass 1  IDiag  1:
 RMSU=  1.69D-04    CP:  8.81D-01  4.31D-01  8.83D-01  6.23D-01  7.73D-01
                    CP:  6.42D-01
 E= -765.545706489877     Delta-E=       -0.000067835428 Rises=F Damp=F
 DIIS: error= 2.32D-04 at cycle   7 NSaved=   7.
 NSaved= 7 IEnMin= 7 EnMin= -765.545706489877     IErMin= 7 ErrMin= 2.32D-04
 ErrMax= 2.32D-04  0.00D+00 EMaxC= 1.00D-01 BMatC= 2.82D-05 BMatP= 2.10D-04
 IDIUse=3 WtCom= 9.98D-01 WtEn= 2.32D-03
 Coeff-Com:  0.853D-03-0.529D-02-0.116D-01-0.127D-01 0.298D-01 0.236D+00
 Coeff-Com:  0.763D+00
 Coeff-En:   0.000D+00 0.000D+00 0.000D+00 0.000D+00 0.000D+00 0.000D+00
 Coeff-En:   0.100D+01
 Coeff:      0.851D-03-0.527D-02-0.115D-01-0.126D-01 0.298D-01 0.236D+00
 Coeff:      0.763D+00
 Gap=     0.101 Goal=   None    Shift=    0.000
 Gap=     0.161 Goal=   None    Shift=    0.000
 RMSDP=9.78D-05 MaxDP=8.15D-03 DE=-6.78D-05 OVMax= 2.77D-03

 Cycle   8  Pass 1  IDiag  1:
 RMSU=  6.14D-05    CP:  8.81D-01  4.30D-01  8.84D-01  6.30D-01  7.87D-01
                    CP:  7.05D-01  1.20D+00
 E= -765.545724859329     Delta-E=       -0.000018369453 Rises=F Damp=F
 DIIS: error= 1.27D-04 at cycle   8 NSaved=   8.
 NSaved= 8 IEnMin= 8 EnMin= -765.545724859329     IErMin= 8 ErrMin= 1.27D-04
 ErrMax= 1.27D-04  0.00D+00 EMaxC= 1.00D-01 BMatC= 1.23D-05 BMatP= 2.82D-05
 IDIUse=3 WtCom= 9.99D-01 WtEn= 1.27D-03
 Coeff-Com:  0.147D-02-0.257D-02-0.210D-01-0.426D-01-0.127D+00-0.169D+00
 Coeff-Com:  0.462D+00 0.899D+00
 Coeff-En:   0.000D+00 0.000D+00 0.000D+00 0.000D+00 0.000D+00 0.000D+00
 Coeff-En:   0.000D+00 0.100D+01
 Coeff:      0.147D-02-0.256D-02-0.210D-01-0.426D-01-0.127D+00-0.169D+00
 Coeff:      0.462D+00 0.899D+00
 Gap=     0.101 Goal=   None    Shift=    0.000
 Gap=     0.162 Goal=   None    Shift=    0.000
 RMSDP=1.54D-04 MaxDP=4.11D-02 DE=-1.84D-05 OVMax= 2.26D-03

 Cycle   9  Pass 1  IDiag  1:
 RMSU=  5.27D-05    CP:  8.81D-01  4.27D-01  8.86D-01  6.36D-01  8.19D-01
                    CP:  6.97D-01  1.39D+00  1.29D+00
 E= -765.545735959019     Delta-E=       -0.000011099690 Rises=F Damp=F
 DIIS: error= 4.82D-05 at cycle   9 NSaved=   9.
 NSaved= 9 IEnMin= 9 EnMin= -765.545735959019     IErMin= 9 ErrMin= 4.82D-05
 ErrMax= 4.82D-05  0.00D+00 EMaxC= 1.00D-01 BMatC= 2.16D-06 BMatP= 1.23D-05
 IDIUse=1 WtCom= 1.00D+00 WtEn= 0.00D+00
 Coeff-Com:  0.451D-03-0.361D-03-0.785D-02-0.174D-01-0.619D-01-0.111D+00
 Coeff-Com:  0.767D-01 0.402D+00 0.720D+00
 Coeff:      0.451D-03-0.361D-03-0.785D-02-0.174D-01-0.619D-01-0.111D+00
 Coeff:      0.767D-01 0.402D+00 0.720D+00
 Gap=     0.101 Goal=   None    Shift=    0.000
 Gap=     0.162 Goal=   None    Shift=    0.000
 RMSDP=3.52D-05 MaxDP=3.59D-03 DE=-1.11D-05 OVMax= 9.40D-04

 Cycle  10  Pass 1  IDiag  1:
 RMSU=  1.96D-05    CP:  8.81D-01  4.27D-01  8.86D-01  6.36D-01  8.19D-01
                    CP:  7.03D-01  1.47D+00  1.46D+00  7.47D-01
 E= -765.545737414742     Delta-E=       -0.000001455723 Rises=F Damp=F
 DIIS: error= 3.41D-05 at cycle  10 NSaved=  10.
 NSaved=10 IEnMin=10 EnMin= -765.545737414742     IErMin=10 ErrMin= 3.41D-05
 ErrMax= 3.41D-05  0.00D+00 EMaxC= 1.00D-01 BMatC= 1.07D-06 BMatP= 2.16D-06
 IDIUse=1 WtCom= 1.00D+00 WtEn= 0.00D+00
 Coeff-Com: -0.260D-03 0.833D-03 0.231D-02 0.364D-02 0.316D-02-0.130D-01
 Coeff-Com: -0.112D+00-0.366D-01 0.493D+00 0.660D+00
 Coeff:     -0.260D-03 0.833D-03 0.231D-02 0.364D-02 0.316D-02-0.130D-01
 Coeff:     -0.112D+00-0.366D-01 0.493D+00 0.660D+00
 Gap=     0.101 Goal=   None    Shift=    0.000
 Gap=     0.162 Goal=   None    Shift=    0.000
 RMSDP=1.98D-05 MaxDP=1.44D-03 DE=-1.46D-06 OVMax= 5.00D-04

 Cycle  11  Pass 1  IDiag  1:
 RMSU=  9.81D-06    CP:  8.81D-01  4.27D-01  8.86D-01  6.36D-01  8.18D-01
                    CP:  6.95D-01  1.45D+00  1.48D+00  9.26D-01  1.13D+00
 E= -765.545738007958     Delta-E=       -0.000000593216 Rises=F Damp=F
 DIIS: error= 1.21D-05 at cycle  11 NSaved=  11.
 NSaved=11 IEnMin=11 EnMin= -765.545738007958     IErMin=11 ErrMin= 1.21D-05
 ErrMax= 1.21D-05  0.00D+00 EMaxC= 1.00D-01 BMatC= 8.83D-08 BMatP= 1.07D-06
 IDIUse=1 WtCom= 1.00D+00 WtEn= 0.00D+00
 Coeff-Com: -0.163D-03 0.283D-03 0.218D-02 0.473D-02 0.134D-01 0.187D-01
 Coeff-Com: -0.506D-01-0.869D-01-0.184D-01 0.153D+00 0.963D+00
 Coeff:     -0.163D-03 0.283D-03 0.218D-02 0.473D-02 0.134D-01 0.187D-01
 Coeff:     -0.506D-01-0.869D-01-0.184D-01 0.153D+00 0.963D+00
 Gap=     0.101 Goal=   None    Shift=    0.000
 Gap=     0.162 Goal=   None    Shift=    0.000
 RMSDP=1.10D-05 MaxDP=1.18D-03 DE=-5.93D-07 OVMax= 2.78D-04

 Cycle  12  Pass 1  IDiag  1:
 RMSU=  5.11D-06    CP:  8.81D-01  4.27D-01  8.85D-01  6.36D-01  8.16D-01
                    CP:  6.94D-01  1.43D+00  1.49D+00  9.45D-01  1.31D+00
                    CP:  1.37D+00
 E= -765.545738101747     Delta-E=       -0.000000093789 Rises=F Damp=F
 DIIS: error= 5.90D-06 at cycle  12 NSaved=  12.
 NSaved=12 IEnMin=12 EnMin= -765.545738101747     IErMin=12 ErrMin= 5.90D-06
 ErrMax= 5.90D-06  0.00D+00 EMaxC= 1.00D-01 BMatC= 4.99D-08 BMatP= 8.83D-08
 IDIUse=1 WtCom= 1.00D+00 WtEn= 0.00D+00
 Coeff-Com: -0.338D-04-0.547D-05 0.682D-03 0.184D-02 0.659D-02 0.123D-01
 Coeff-Com: -0.557D-02-0.399D-01-0.113D+00-0.625D-01 0.581D+00 0.618D+00
 Coeff:     -0.338D-04-0.547D-05 0.682D-03 0.184D-02 0.659D-02 0.123D-01
 Coeff:     -0.557D-02-0.399D-01-0.113D+00-0.625D-01 0.581D+00 0.618D+00
 Gap=     0.101 Goal=   None    Shift=    0.000
 Gap=     0.162 Goal=   None    Shift=    0.000
 RMSDP=6.80D-06 MaxDP=1.52D-03 DE=-9.38D-08 OVMax= 1.09D-04

 Cycle  13  Pass 1  IDiag  1:
 RMSU=  2.20D-06    CP:  8.81D-01  4.27D-01  8.85D-01  6.35D-01  8.15D-01
                    CP:  6.95D-01  1.43D+00  1.49D+00  9.55D-01  1.37D+00
                    CP:  1.57D+00  7.83D-01
 E= -765.545738123681     Delta-E=       -0.000000021933 Rises=F Damp=F
 DIIS: error= 2.16D-06 at cycle  13 NSaved=  13.
 NSaved=13 IEnMin=13 EnMin= -765.545738123681     IErMin=13 ErrMin= 2.16D-06
 ErrMax= 2.16D-06  0.00D+00 EMaxC= 1.00D-01 BMatC= 6.40D-09 BMatP= 4.99D-08
 IDIUse=1 WtCom= 1.00D+00 WtEn= 0.00D+00
 Coeff-Com:  0.193D-04-0.611D-04-0.997D-04-0.424D-04 0.595D-03 0.189D-02
 Coeff-Com:  0.814D-02-0.104D-02-0.453D-01-0.694D-01 0.479D-01 0.296D+00
 Coeff-Com:  0.762D+00
 Coeff:      0.193D-04-0.611D-04-0.997D-04-0.424D-04 0.595D-03 0.189D-02
 Coeff:      0.814D-02-0.104D-02-0.453D-01-0.694D-01 0.479D-01 0.296D+00
 Coeff:      0.762D+00
 Gap=     0.101 Goal=   None    Shift=    0.000
 Gap=     0.162 Goal=   None    Shift=    0.000
 RMSDP=3.15D-06 MaxDP=2.11D-04 DE=-2.19D-08 OVMax= 4.46D-05

 Cycle  14  Pass 1  IDiag  1:
 RMSU=  5.94D-07    CP:  8.81D-01  4.27D-01  8.85D-01  6.35D-01  8.14D-01
                    CP:  6.95D-01  1.43D+00  1.49D+00  9.51D-01  1.39D+00
                    CP:  1.64D+00  1.00D+00  9.45D-01
 E= -765.545738126288     Delta-E=       -0.000000002607 Rises=F Damp=F
 DIIS: error= 1.02D-06 at cycle  14 NSaved=  14.
 NSaved=14 IEnMin=14 EnMin= -765.545738126288     IErMin=14 ErrMin= 1.02D-06
 ErrMax= 1.02D-06  0.00D+00 EMaxC= 1.00D-01 BMatC= 1.14D-09 BMatP= 6.40D-09
 IDIUse=1 WtCom= 1.00D+00 WtEn= 0.00D+00
 Coeff-Com:  0.131D-04-0.335D-04-0.117D-03-0.190D-03-0.234D-03-0.682D-05
 Coeff-Com:  0.508D-02 0.260D-02-0.161D-01-0.338D-01-0.213D-01 0.115D+00
 Coeff-Com:  0.425D+00 0.524D+00
 Coeff:      0.131D-04-0.335D-04-0.117D-03-0.190D-03-0.234D-03-0.682D-05
 Coeff:      0.508D-02 0.260D-02-0.161D-01-0.338D-01-0.213D-01 0.115D+00
 Coeff:      0.425D+00 0.524D+00
 Gap=     0.101 Goal=   None    Shift=    0.000
 Gap=     0.162 Goal=   None    Shift=    0.000
 RMSDP=5.45D-07 MaxDP=6.06D-05 DE=-2.61D-09 OVMax= 7.80D-06

 Cycle  15  Pass 1  IDiag  1:
 RMSU=  2.52D-07    CP:  8.81D-01  4.27D-01  8.85D-01  6.35D-01  8.14D-01
                    CP:  6.95D-01  1.43D+00  1.49D+00  9.52D-01  1.40D+00
                    CP:  1.65D+00  9.74D-01  1.04D+00  8.94D-01
 E= -765.545738126596     Delta-E=       -0.000000000308 Rises=F Damp=F
 DIIS: error= 2.53D-07 at cycle  15 NSaved=  15.
 NSaved=15 IEnMin=15 EnMin= -765.545738126596     IErMin=15 ErrMin= 2.53D-07
 ErrMax= 2.53D-07  0.00D+00 EMaxC= 1.00D-01 BMatC= 1.15D-10 BMatP= 1.14D-09
 IDIUse=1 WtCom= 1.00D+00 WtEn= 0.00D+00
 Coeff-Com: -0.120D-05 0.577D-05-0.151D-04-0.618D-04-0.269D-03-0.549D-03
 Coeff-Com: -0.549D-03 0.109D-02 0.775D-02 0.837D-02-0.225D-01-0.445D-01
 Coeff-Com: -0.565D-01 0.211D+00 0.896D+00
 Coeff:     -0.120D-05 0.577D-05-0.151D-04-0.618D-04-0.269D-03-0.549D-03
 Coeff:     -0.549D-03 0.109D-02 0.775D-02 0.837D-02-0.225D-01-0.445D-01
 Coeff:     -0.565D-01 0.211D+00 0.896D+00
 Gap=     0.101 Goal=   None    Shift=    0.000
 Gap=     0.162 Goal=   None    Shift=    0.000
 RMSDP=2.26D-07 MaxDP=3.83D-05 DE=-3.08D-10 OVMax= 3.02D-06

 Cycle  16  Pass 1  IDiag  1:
 RMSU=  8.24D-08    CP:  8.81D-01  4.27D-01  8.85D-01  6.35D-01  8.14D-01
                    CP:  6.95D-01  1.43D+00  1.49D+00  9.52D-01  1.39D+00
                    CP:  1.65D+00  9.90D-01  1.05D+00  9.67D-01  9.22D-01
 E= -765.545738126625     Delta-E=       -0.000000000029 Rises=F Damp=F
 DIIS: error= 6.23D-08 at cycle  16 NSaved=  16.
 NSaved=16 IEnMin=16 EnMin= -765.545738126625     IErMin=16 ErrMin= 6.23D-08
 ErrMax= 6.23D-08  0.00D+00 EMaxC= 1.00D-01 BMatC= 4.31D-12 BMatP= 1.15D-10
 IDIUse=1 WtCom= 1.00D+00 WtEn= 0.00D+00
 Coeff-Com: -0.101D-05 0.264D-05 0.635D-05 0.841D-05-0.139D-04-0.499D-04
 Coeff-Com: -0.407D-03-0.997D-04 0.177D-02 0.314D-02 0.953D-03-0.134D-01
 Coeff-Com: -0.376D-01-0.351D-01 0.369D-01 0.104D+01
 Coeff:     -0.101D-05 0.264D-05 0.635D-05 0.841D-05-0.139D-04-0.499D-04
 Coeff:     -0.407D-03-0.997D-04 0.177D-02 0.314D-02 0.953D-03-0.134D-01
 Coeff:     -0.376D-01-0.351D-01 0.369D-01 0.104D+01
 Gap=     0.101 Goal=   None    Shift=    0.000
 Gap=     0.162 Goal=   None    Shift=    0.000
 RMSDP=6.42D-08 MaxDP=1.11D-05 DE=-2.89D-11 OVMax= 8.35D-07

 Cycle  17  Pass 1  IDiag  1:
 RMSU=  2.82D-08    CP:  8.81D-01  4.27D-01  8.85D-01  6.35D-01  8.14D-01
                    CP:  6.95D-01  1.43D+00  1.49D+00  9.52D-01  1.39D+00
                    CP:  1.65D+00  9.87D-01  1.05D+00  9.78D-01  9.69D-01
                    CP:  1.24D+00
 E= -765.545738126608     Delta-E=        0.000000000016 Rises=F Damp=F
 DIIS: error= 3.30D-08 at cycle  17 NSaved=  17.
 NSaved=17 IEnMin=16 EnMin= -765.545738126625     IErMin=17 ErrMin= 3.30D-08
 ErrMax= 3.30D-08  0.00D+00 EMaxC= 1.00D-01 BMatC= 2.19D-12 BMatP= 4.31D-12
 IDIUse=1 WtCom= 1.00D+00 WtEn= 0.00D+00
 Coeff-Com: -0.361D-06 0.907D-06 0.450D-05 0.884D-05 0.141D-04 0.149D-04
 Coeff-Com: -0.149D-03-0.140D-03 0.263D-03 0.833D-03 0.238D-02-0.300D-02
 Coeff-Com: -0.143D-01-0.349D-01-0.595D-01 0.551D+00 0.557D+00
 Coeff:     -0.361D-06 0.907D-06 0.450D-05 0.884D-05 0.141D-04 0.149D-04
 Coeff:     -0.149D-03-0.140D-03 0.263D-03 0.833D-03 0.238D-02-0.300D-02
 Coeff:     -0.143D-01-0.349D-01-0.595D-01 0.551D+00 0.557D+00
 Gap=     0.101 Goal=   None    Shift=    0.000
 Gap=     0.162 Goal=   None    Shift=    0.000
 RMSDP=3.43D-08 MaxDP=8.98D-06 DE= 1.64D-11 OVMax= 2.20D-07

 Cycle  18  Pass 1  IDiag  1:
 RMSU=  1.25D-08    CP:  8.81D-01  4.27D-01  8.85D-01  6.35D-01  8.14D-01
                    CP:  6.95D-01  1.43D+00  1.49D+00  9.52D-01  1.39D+00
                    CP:  1.65D+00  9.86D-01  1.05D+00  9.70D-01  9.64D-01
                    CP:  1.29D+00  1.01D+00
 E= -765.545738126613     Delta-E=       -0.000000000005 Rises=F Damp=F
 DIIS: error= 9.92D-09 at cycle  18 NSaved=  18.
 NSaved=18 IEnMin=16 EnMin= -765.545738126625     IErMin=18 ErrMin= 9.92D-09
 ErrMax= 9.92D-09  0.00D+00 EMaxC= 1.00D-01 BMatC= 2.25D-13 BMatP= 2.19D-12
 IDIUse=1 WtCom= 1.00D+00 WtEn= 0.00D+00
 Coeff-Com:  0.454D-07-0.112D-06 0.106D-05 0.215D-05 0.984D-05 0.137D-04
 Coeff-Com:  0.143D-04-0.444D-04-0.174D-03-0.239D-03 0.739D-03 0.113D-02
 Coeff-Com:  0.530D-03-0.680D-02-0.309D-01 0.294D-01 0.214D+00 0.793D+00
 Coeff:      0.454D-07-0.112D-06 0.106D-05 0.215D-05 0.984D-05 0.137D-04
 Coeff:      0.143D-04-0.444D-04-0.174D-03-0.239D-03 0.739D-03 0.113D-02
 Coeff:      0.530D-03-0.680D-02-0.309D-01 0.294D-01 0.214D+00 0.793D+00
 Gap=     0.101 Goal=   None    Shift=    0.000
 Gap=     0.162 Goal=   None    Shift=    0.000
 RMSDP=1.69D-08 MaxDP=3.90D-06 DE=-4.55D-12 OVMax= 1.13D-07

 Cycle  19  Pass 1  IDiag  1:
 RMSU=  4.43D-09    CP:  8.81D-01  4.27D-01  8.85D-01  6.35D-01  8.14D-01
                    CP:  6.95D-01  1.43D+00  1.49D+00  9.52D-01  1.39D+00
                    CP:  1.65D+00  9.86D-01  1.05D+00  9.66D-01  9.66D-01
                    CP:  1.32D+00  1.05D+00  1.10D+00
 E= -765.545738126626     Delta-E=       -0.000000000013 Rises=F Damp=F
 DIIS: error= 4.51D-09 at cycle  19 NSaved=  19.
 NSaved=19 IEnMin=19 EnMin= -765.545738126626     IErMin=19 ErrMin= 4.51D-09
 ErrMax= 4.51D-09  0.00D+00 EMaxC= 1.00D-01 BMatC= 3.37D-14 BMatP= 2.25D-13
 IDIUse=1 WtCom= 1.00D+00 WtEn= 0.00D+00
 Coeff-Com:  0.639D-07-0.181D-06-0.537D-07-0.137D-06 0.319D-05 0.464D-05
 Coeff-Com:  0.225D-04-0.569D-05-0.105D-03-0.216D-03 0.687D-04 0.930D-03
 Coeff-Com:  0.204D-02 0.177D-02-0.613D-02-0.614D-01 0.191D-01 0.350D+00
 Coeff-Com:  0.694D+00
 Coeff:      0.639D-07-0.181D-06-0.537D-07-0.137D-06 0.319D-05 0.464D-05
 Coeff:      0.225D-04-0.569D-05-0.105D-03-0.216D-03 0.687D-04 0.930D-03
 Coeff:      0.204D-02 0.177D-02-0.613D-02-0.614D-01 0.191D-01 0.350D+00
 Coeff:      0.694D+00
 Gap=     0.101 Goal=   None    Shift=    0.000
 Gap=     0.162 Goal=   None    Shift=    0.000
 RMSDP=6.02D-09 MaxDP=1.48D-06 DE=-1.34D-11 OVMax= 5.86D-08

 Cycle  20  Pass 1  IDiag  1:
 RMSU=  1.52D-09    CP:  8.81D-01  4.27D-01  8.85D-01  6.35D-01  8.14D-01
                    CP:  6.95D-01  1.43D+00  1.49D+00  9.52D-01  1.39D+00
                    CP:  1.65D+00  9.85D-01  1.05D+00  9.65D-01  9.65D-01
                    CP:  1.32D+00  1.08D+00  1.23D+00  9.80D-01
 E= -765.545738126612     Delta-E=        0.000000000014 Rises=F Damp=F
 DIIS: error= 2.22D-09 at cycle  20 NSaved=  20.
 NSaved=20 IEnMin=19 EnMin= -765.545738126626     IErMin=20 ErrMin= 2.22D-09
 ErrMax= 2.22D-09  0.00D+00 EMaxC= 1.00D-01 BMatC= 4.76D-15 BMatP= 3.37D-14
 IDIUse=1 WtCom= 1.00D+00 WtEn= 0.00D+00
 Coeff-Com:  0.158D-07-0.444D-07-0.192D-06-0.411D-06-0.236D-06-0.142D-06
 Coeff-Com:  0.752D-05 0.575D-05-0.147D-04-0.550D-04-0.102D-03 0.180D-03
 Coeff-Com:  0.724D-03 0.190D-02 0.270D-02-0.303D-01-0.270D-01 0.113D-01
 Coeff-Com:  0.304D+00 0.737D+00
 Coeff:      0.158D-07-0.444D-07-0.192D-06-0.411D-06-0.236D-06-0.142D-06
 Coeff:      0.752D-05 0.575D-05-0.147D-04-0.550D-04-0.102D-03 0.180D-03
 Coeff:      0.724D-03 0.190D-02 0.270D-02-0.303D-01-0.270D-01 0.113D-01
 Coeff:      0.304D+00 0.737D+00
 Gap=     0.101 Goal=   None    Shift=    0.000
 Gap=     0.162 Goal=   None    Shift=    0.000
 RMSDP=1.57D-09 MaxDP=1.95D-07 DE= 1.43D-11 OVMax= 2.04D-08

 Error on total polarization charges =  0.02334
 SCF Done:  E(UB3LYP) =  -765.545738127     A.U. after   20 cycles
            NFock= 20  Conv=0.16D-08     -V/T= 2.0041
 <Sx>= 0.0000 <Sy>= 0.0000 <Sz>= 0.5000 <S**2>= 0.7704 S= 0.5101
 <L.S>=  0.00000000000    
 KE= 7.624477565943D+02 PE=-4.082910293446D+03 EE= 1.415636526333D+03
 Annihilation of the first spin contaminant:
 S**2 before annihilation     0.7704,   after     0.7504
 Leave Link  502 at Sun Feb 11 15:22:59 2024, MaxMem=  4026531840 cpu:            2029.8 elap:             257.5
 (Enter /sysapps/ubuntu-applications/gaussian/Gaussian/AVX2/g16/l601.exe)
 Copying SCF densities to generalized density rwf, IOpCl= 1 IROHF=0.

 **********************************************************************

            Population analysis using the SCF density.

 **********************************************************************

 Alpha  occ. eigenvalues --  -19.12340 -19.12335 -19.08036 -10.22313 -10.22313
 Alpha  occ. eigenvalues --  -10.21078 -10.17424 -10.17423 -10.17179 -10.16571
 Alpha  occ. eigenvalues --  -10.16570 -10.16476 -10.16476 -10.15724 -10.15724
 Alpha  occ. eigenvalues --  -10.15721 -10.15720  -1.04799  -1.04108  -0.98311
 Alpha  occ. eigenvalues --   -0.86098  -0.83793  -0.78565  -0.75181  -0.73609
 Alpha  occ. eigenvalues --   -0.72660  -0.68552  -0.63568  -0.62403  -0.58166
 Alpha  occ. eigenvalues --   -0.57994  -0.55346  -0.51493  -0.50808  -0.50777
 Alpha  occ. eigenvalues --   -0.46610  -0.46243  -0.45290  -0.43940  -0.42816
 Alpha  occ. eigenvalues --   -0.41250  -0.40705  -0.40604  -0.39943  -0.39841
 Alpha  occ. eigenvalues --   -0.38680  -0.37754  -0.36119  -0.36043  -0.35750
 Alpha  occ. eigenvalues --   -0.33708  -0.32646  -0.32275  -0.32159  -0.25955
 Alpha  occ. eigenvalues --   -0.25107  -0.24338  -0.21974  -0.21746  -0.11642
 Alpha virt. eigenvalues --   -0.01523  -0.00707  -0.00141   0.00613   0.01139
 Alpha virt. eigenvalues --    0.01303   0.01808   0.02448   0.03084   0.04031
 Alpha virt. eigenvalues --    0.04304   0.04376   0.04955   0.06053   0.06491
 Alpha virt. eigenvalues --    0.06622   0.07178   0.07492   0.08583   0.08878
 Alpha virt. eigenvalues --    0.09451   0.10288   0.10403   0.11170   0.11482
 Alpha virt. eigenvalues --    0.11633   0.12390   0.12622   0.12729   0.12806
 Alpha virt. eigenvalues --    0.13157   0.13232   0.13410   0.13710   0.14065
 Alpha virt. eigenvalues --    0.14097   0.15377   0.15766   0.15798   0.16627
 Alpha virt. eigenvalues --    0.17146   0.17422   0.17875   0.18034   0.18260
 Alpha virt. eigenvalues --    0.18609   0.18720   0.19302   0.19425   0.20431
 Alpha virt. eigenvalues --    0.20755   0.20953   0.21805   0.22179   0.22332
 Alpha virt. eigenvalues --    0.22464   0.23249   0.23405   0.23822   0.24416
 Alpha virt. eigenvalues --    0.25168   0.25341   0.25556   0.26695   0.26841
 Alpha virt. eigenvalues --    0.26846   0.27361   0.27374   0.27889   0.28272
 Alpha virt. eigenvalues --    0.28510   0.29065   0.29150   0.29587   0.29609
 Alpha virt. eigenvalues --    0.30980   0.31162   0.31441   0.31505   0.31552
 Alpha virt. eigenvalues --    0.32039   0.32382   0.33212   0.33413   0.34410
 Alpha virt. eigenvalues --    0.34739   0.34767   0.35133   0.35681   0.35719
 Alpha virt. eigenvalues --    0.36414   0.36820   0.38499   0.38608   0.39543
 Alpha virt. eigenvalues --    0.40250   0.40251   0.42047   0.43474   0.44723
 Alpha virt. eigenvalues --    0.44903   0.47758   0.47815   0.49166   0.51518
 Alpha virt. eigenvalues --    0.51881   0.54229   0.54534   0.54766   0.56166
 Alpha virt. eigenvalues --    0.56385   0.56712   0.56804   0.57692   0.58511
 Alpha virt. eigenvalues --    0.58911   0.60956   0.61717   0.61889   0.62043
 Alpha virt. eigenvalues --    0.62361   0.63430   0.63645   0.63789   0.64339
 Alpha virt. eigenvalues --    0.65865   0.66785   0.67133   0.68469   0.68602
 Alpha virt. eigenvalues --    0.69058   0.69756   0.69855   0.70231   0.73205
 Alpha virt. eigenvalues --    0.74108   0.74585   0.75667   0.76571   0.77109
 Alpha virt. eigenvalues --    0.77590   0.77862   0.79108   0.79913   0.80600
 Alpha virt. eigenvalues --    0.82039   0.82098   0.84254   0.86271   0.87113
 Alpha virt. eigenvalues --    0.87232   0.87732   0.90488   0.90578   0.91411
 Alpha virt. eigenvalues --    0.92140   0.92578   0.92777   0.93134   0.94623
 Alpha virt. eigenvalues --    0.95216   0.96518   0.97267   0.98381   1.01060
 Alpha virt. eigenvalues --    1.01408   1.02091   1.02783   1.04646   1.05320
 Alpha virt. eigenvalues --    1.05793   1.07323   1.08629   1.08864   1.09022
 Alpha virt. eigenvalues --    1.10853   1.11551   1.12460   1.13106   1.14727
 Alpha virt. eigenvalues --    1.18063   1.18558   1.20018   1.22743   1.22830
 Alpha virt. eigenvalues --    1.23878   1.24624   1.26417   1.28751   1.30024
 Alpha virt. eigenvalues --    1.31302   1.32430   1.33933   1.38177   1.43444
 Alpha virt. eigenvalues --    1.43594   1.44501   1.44695   1.47323   1.48155
 Alpha virt. eigenvalues --    1.49819   1.50383   1.51294   1.51980   1.52232
 Alpha virt. eigenvalues --    1.54426   1.56225   1.57391   1.57641   1.57806
 Alpha virt. eigenvalues --    1.59514   1.59648   1.60680   1.61589   1.62209
 Alpha virt. eigenvalues --    1.63946   1.64396   1.66979   1.67390   1.68741
 Alpha virt. eigenvalues --    1.70617   1.71967   1.74249   1.74627   1.76043
 Alpha virt. eigenvalues --    1.77060   1.78936   1.79300   1.80744   1.80940
 Alpha virt. eigenvalues --    1.82859   1.86733   1.91107   1.92359   1.92562
 Alpha virt. eigenvalues --    1.92585   1.93284   1.94142   1.94991   1.95170
 Alpha virt. eigenvalues --    1.96087   1.96750   1.97511   1.97535   1.98990
 Alpha virt. eigenvalues --    1.99035   2.00604   2.01946   2.03690   2.04831
 Alpha virt. eigenvalues --    2.05625   2.07892   2.08574   2.12116   2.14000
 Alpha virt. eigenvalues --    2.15296   2.16684   2.17382   2.19497   2.25115
 Alpha virt. eigenvalues --    2.28048   2.28785   2.31491   2.34416   2.35049
 Alpha virt. eigenvalues --    2.36062   2.39677   2.41808   2.43645   2.45142
 Alpha virt. eigenvalues --    2.46194   2.51199   2.52137   2.55953   2.57156
 Alpha virt. eigenvalues --    2.59840   2.60402   2.63012   2.66063   2.67117
 Alpha virt. eigenvalues --    2.71992   2.72545   2.73067   2.74082   2.75120
 Alpha virt. eigenvalues --    2.75495   2.76128   2.78376   2.78429   2.78614
 Alpha virt. eigenvalues --    2.78721   2.80460   2.80833   2.81300   2.81369
 Alpha virt. eigenvalues --    2.82784   2.84773   2.85175   2.86489   2.88824
 Alpha virt. eigenvalues --    2.89930   2.94470   2.94920   2.96051   3.00397
 Alpha virt. eigenvalues --    3.03234   3.06825   3.11261   3.11353   3.11852
 Alpha virt. eigenvalues --    3.12152   3.12517   3.14397   3.15947   3.20559
 Alpha virt. eigenvalues --    3.20687   3.20791   3.21209   3.24001   3.24297
 Alpha virt. eigenvalues --    3.25308   3.28224   3.33220   3.36662   3.39281
 Alpha virt. eigenvalues --    3.41622   3.43131   3.44847   3.50230   3.53827
 Alpha virt. eigenvalues --    3.54464   3.59099   3.60018   3.65557   3.66949
 Alpha virt. eigenvalues --    3.68030   3.72881   3.81901   3.85065   3.92188
 Alpha virt. eigenvalues --    3.92226   3.94885   4.06256   4.07022   4.12751
 Alpha virt. eigenvalues --    4.13071   4.20519   4.21469   4.22341   4.32402
 Alpha virt. eigenvalues --    4.45301   4.66114   4.84765   4.86421   5.03171
 Alpha virt. eigenvalues --    5.03951   5.09728   5.35228   5.50746   5.53760
 Alpha virt. eigenvalues --    5.74625   5.82519   5.82905  23.53454  23.66859
 Alpha virt. eigenvalues --   23.88764  23.90206  23.91520  23.94938  23.97823
 Alpha virt. eigenvalues --   23.98457  24.02414  24.04207  24.09435  24.10767
 Alpha virt. eigenvalues --   24.18355  24.18776  49.98702  50.01639  50.07234
  Beta  occ. eigenvalues --  -19.12259 -19.12255 -19.07521 -10.22142 -10.22142
  Beta  occ. eigenvalues --  -10.20496 -10.17223 -10.17198 -10.17185 -10.16696
  Beta  occ. eigenvalues --  -10.16695 -10.16250 -10.16250 -10.15821 -10.15821
  Beta  occ. eigenvalues --  -10.15792 -10.15791  -1.04535  -1.03934  -0.97345
  Beta  occ. eigenvalues --   -0.85822  -0.83598  -0.78288  -0.74805  -0.73412
  Beta  occ. eigenvalues --   -0.72513  -0.68369  -0.63004  -0.62116  -0.57878
  Beta  occ. eigenvalues --   -0.57844  -0.55139  -0.51338  -0.50718  -0.50509
  Beta  occ. eigenvalues --   -0.46424  -0.46038  -0.45201  -0.43346  -0.42620
  Beta  occ. eigenvalues --   -0.40890  -0.40364  -0.40013  -0.39612  -0.39482
  Beta  occ. eigenvalues --   -0.38567  -0.37637  -0.35949  -0.35758  -0.33664
  Beta  occ. eigenvalues --   -0.33373  -0.32530  -0.31892  -0.31546  -0.24702
  Beta  occ. eigenvalues --   -0.24345  -0.23783  -0.21529  -0.21406
  Beta virt. eigenvalues --   -0.05211  -0.00563  -0.00443   0.00154   0.00619
  Beta virt. eigenvalues --    0.01159   0.01853   0.01934   0.02449   0.03180
  Beta virt. eigenvalues --    0.04114   0.04298   0.04455   0.06112   0.06280
  Beta virt. eigenvalues --    0.06488   0.06928   0.07193   0.07511   0.08643
  Beta virt. eigenvalues --    0.08936   0.09474   0.10367   0.10428   0.11181
  Beta virt. eigenvalues --    0.11508   0.11640   0.12456   0.12643   0.12792
  Beta virt. eigenvalues --    0.12813   0.13219   0.13311   0.13434   0.13746
  Beta virt. eigenvalues --    0.14189   0.14430   0.15452   0.15804   0.15828
  Beta virt. eigenvalues --    0.16643   0.17191   0.17502   0.17882   0.18123
  Beta virt. eigenvalues --    0.18346   0.18825   0.18981   0.19410   0.19836
  Beta virt. eigenvalues --    0.20481   0.20912   0.21106   0.22008   0.22189
  Beta virt. eigenvalues --    0.22394   0.22572   0.23431   0.23431   0.23825
  Beta virt. eigenvalues --    0.24742   0.25204   0.25408   0.25689   0.26756
  Beta virt. eigenvalues --    0.26867   0.27073   0.27392   0.27470   0.27980
  Beta virt. eigenvalues --    0.28291   0.28677   0.29181   0.29239   0.29690
  Beta virt. eigenvalues --    0.29722   0.31109   0.31240   0.31469   0.31478
  Beta virt. eigenvalues --    0.31676   0.32141   0.32431   0.33290   0.33610
  Beta virt. eigenvalues --    0.34600   0.34764   0.34899   0.35214   0.35723
  Beta virt. eigenvalues --    0.35834   0.36476   0.37012   0.38605   0.38677
  Beta virt. eigenvalues --    0.39686   0.40320   0.40479   0.42119   0.43761
  Beta virt. eigenvalues --    0.44821   0.45041   0.47939   0.47958   0.49472
  Beta virt. eigenvalues --    0.51666   0.51962   0.54417   0.54739   0.54839
  Beta virt. eigenvalues --    0.56290   0.56656   0.56788   0.56881   0.57914
  Beta virt. eigenvalues --    0.58702   0.58963   0.61022   0.61885   0.61986
  Beta virt. eigenvalues --    0.62219   0.62684   0.63580   0.63988   0.63997
  Beta virt. eigenvalues --    0.64865   0.66212   0.66839   0.67301   0.68559
  Beta virt. eigenvalues --    0.68731   0.69046   0.70113   0.70251   0.70653
  Beta virt. eigenvalues --    0.73314   0.74219   0.74731   0.75735   0.76694
  Beta virt. eigenvalues --    0.77266   0.77646   0.78099   0.79212   0.80055
  Beta virt. eigenvalues --    0.80678   0.82079   0.82206   0.84390   0.86393
  Beta virt. eigenvalues --    0.87297   0.87411   0.87823   0.90552   0.90598
  Beta virt. eigenvalues --    0.91630   0.92611   0.92694   0.93173   0.93178
  Beta virt. eigenvalues --    0.94827   0.95382   0.96681   0.97510   0.98570
  Beta virt. eigenvalues --    1.01414   1.01673   1.02165   1.02995   1.04770
  Beta virt. eigenvalues --    1.05587   1.06036   1.07555   1.08881   1.09117
  Beta virt. eigenvalues --    1.09328   1.11490   1.11725   1.12657   1.13632
  Beta virt. eigenvalues --    1.14874   1.18286   1.18905   1.20156   1.22977
  Beta virt. eigenvalues --    1.23014   1.24255   1.24805   1.26951   1.29071
  Beta virt. eigenvalues --    1.30204   1.31420   1.32570   1.34123   1.38418
  Beta virt. eigenvalues --    1.43642   1.43946   1.44650   1.44923   1.47411
  Beta virt. eigenvalues --    1.48309   1.49942   1.50676   1.51421   1.52107
  Beta virt. eigenvalues --    1.52349   1.54526   1.56377   1.57724   1.57951
  Beta virt. eigenvalues --    1.57981   1.59708   1.59986   1.61194   1.61835
  Beta virt. eigenvalues --    1.62387   1.64226   1.64659   1.67217   1.67599
  Beta virt. eigenvalues --    1.68896   1.70782   1.72394   1.74537   1.74749
  Beta virt. eigenvalues --    1.76197   1.77231   1.79078   1.79334   1.80874
  Beta virt. eigenvalues --    1.81165   1.83083   1.86925   1.91233   1.92568
  Beta virt. eigenvalues --    1.92728   1.92751   1.93453   1.94306   1.95012
  Beta virt. eigenvalues --    1.95415   1.96252   1.96997   1.97567   1.98112
  Beta virt. eigenvalues --    1.99161   1.99337   2.01024   2.02042   2.03908
  Beta virt. eigenvalues --    2.05208   2.05916   2.08181   2.09096   2.12521
  Beta virt. eigenvalues --    2.14242   2.15475   2.16951   2.17614   2.19609
  Beta virt. eigenvalues --    2.25423   2.28247   2.29052   2.31641   2.34711
  Beta virt. eigenvalues --    2.35279   2.36452   2.39794   2.42035   2.43768
  Beta virt. eigenvalues --    2.45272   2.46310   2.51332   2.52245   2.56211
  Beta virt. eigenvalues --    2.57329   2.60022   2.60544   2.63089   2.66561
  Beta virt. eigenvalues --    2.67406   2.72077   2.72600   2.73317   2.74459
  Beta virt. eigenvalues --    2.75127   2.76072   2.76273   2.78464   2.78577
  Beta virt. eigenvalues --    2.78895   2.79021   2.80545   2.80994   2.81492
  Beta virt. eigenvalues --    2.81763   2.83011   2.84879   2.85373   2.86970
  Beta virt. eigenvalues --    2.89288   2.90326   2.94433   2.95583   2.96234
  Beta virt. eigenvalues --    3.01059   3.03967   3.06964   3.11379   3.11672
  Beta virt. eigenvalues --    3.12209   3.12428   3.12906   3.14810   3.16076
  Beta virt. eigenvalues --    3.20804   3.20932   3.21163   3.21303   3.24541
  Beta virt. eigenvalues --    3.24880   3.25463   3.29863   3.33423   3.36767
  Beta virt. eigenvalues --    3.39379   3.41742   3.43249   3.45028   3.50423
  Beta virt. eigenvalues --    3.53954   3.54638   3.59229   3.60114   3.65703
  Beta virt. eigenvalues --    3.66980   3.68141   3.72963   3.82074   3.85270
  Beta virt. eigenvalues --    3.92319   3.92531   3.95048   4.06465   4.07237
  Beta virt. eigenvalues --    4.12825   4.13151   4.20637   4.21555   4.22506
  Beta virt. eigenvalues --    4.32747   4.45553   4.66631   4.84945   4.86601
  Beta virt. eigenvalues --    5.03607   5.04288   5.11720   5.35562   5.50827
  Beta virt. eigenvalues --    5.53912   5.75022   5.82785   5.83009  23.53574
  Beta virt. eigenvalues --   23.66958  23.88868  23.90615  23.91669  23.95076
  Beta virt. eigenvalues --   23.97934  23.98420  24.02568  24.04290  24.09421
  Beta virt. eigenvalues --   24.10788  24.18409  24.18823  49.98803  50.01718
  Beta virt. eigenvalues --   50.07726
          Condensed to atoms (all electrons):
               1          2          3          4          5          6
     1  O    8.301863   0.494989  -0.612457   0.051390   0.015910  -0.094900
     2  C    0.494989  19.875540  -6.269722  -0.730496   3.351717  -7.065599
     3  C   -0.612457  -6.269722  16.602022  -0.035010  -1.746073   5.171678
     4  C    0.051390  -0.730496  -0.035010   6.400414   0.016825  -1.030017
     5  C    0.015910   3.351717  -1.746073   0.016825  12.027928  -1.887516
     6  C   -0.094900  -7.065599   5.171678  -1.030017  -1.887516  21.409912
     7  C   -0.006235   1.045028   0.848280  -0.402960   0.038311  -7.141999
     8  C   -0.017245  -2.218839  -0.161333   0.009353   1.403922   6.731234
     9  C   -0.003766  -0.694054   0.089027  -0.011402  -0.020491   1.405778
    10  C   -0.000119  -0.009817  -0.004593   0.004457  -0.011683   0.008154
    11  C    0.004203  -0.078436  -0.140471  -0.004614   0.089542  -0.160026
    12  C   -0.003008  -0.130173  -0.078256  -0.009867  -0.693530  -2.216342
    13  O   -0.001354  -0.003103   0.004200  -0.000119  -0.003776  -0.017242
    14  C   -0.014706   1.285192  -2.834344   0.298716  -0.956497  -4.995614
    15  C    0.002744   2.967918  -5.514313   0.246291  -0.216162  -5.254231
    16  O    0.006551   0.020908  -0.150471   0.000811   0.001526  -0.166683
    17  C    0.099891  -5.428078   0.426902   1.084484  -5.680988   1.189474
    18  H    0.201258  -0.147491   0.267814   0.004789  -0.010376   0.110032
    19  H   -0.027622  -0.132437   0.632157  -0.072852   0.033489   0.046524
    20  H    0.001010  -0.023760  -0.122819   0.479613  -0.120032   0.016841
    21  H    0.000428   0.084438  -0.018395  -0.072239   0.491926  -0.151025
    22  H    0.000349  -0.024757   0.012934   0.036232  -0.058985  -0.066265
    23  H   -0.000258  -0.032310  -0.010008  -0.006619   0.085109   0.214106
    24  H   -0.000052   0.001245   0.001285  -0.001290   0.007294  -0.045709
    25  H   -0.000000  -0.000305  -0.000427   0.000358   0.000414   0.011198
    26  H    0.000052  -0.000540   0.000034  -0.000167  -0.000095  -0.001795
    27  H    0.000746  -0.026879  -0.013878   0.001388   0.003591   0.023342
               7          8          9         10         11         12
     1  O   -0.006235  -0.017245  -0.003766  -0.000119   0.004203  -0.003008
     2  C    1.045028  -2.218839  -0.694054  -0.009817  -0.078436  -0.130173
     3  C    0.848280  -0.161333   0.089027  -0.004593  -0.140471  -0.078256
     4  C   -0.402960   0.009353  -0.011402   0.004457  -0.004614  -0.009867
     5  C    0.038311   1.403922  -0.020491  -0.011683   0.089542  -0.693530
     6  C   -7.141999   6.731234   1.405778   0.008154  -0.160026  -2.216342
     7  C   25.967474  -7.141981   0.036667  -0.401748   0.848137   1.041929
     8  C   -7.141981  21.392398  -1.883312  -1.031630   5.170080  -7.059917
     9  C    0.036667  -1.883312  12.024938   0.017225  -1.743987   3.348810
    10  C   -0.401748  -1.031630   0.017225   6.399899  -0.035936  -0.728370
    11  C    0.848137   5.170080  -1.743987  -0.035936  16.598535  -6.274398
    12  C    1.041929  -7.059917   3.348810  -0.728370  -6.274398  19.870457
    13  O   -0.006298  -0.094693   0.015853   0.051408  -0.611969   0.494862
    14  C   -5.200861   1.190530  -5.677960   1.083118   0.432676  -5.425027
    15  C    2.024435  -5.250078  -0.217032   0.247332  -5.512432   2.969045
    16  O   -0.096181  -0.166523   0.001536   0.000868  -0.150706   0.020658
    17  C   -5.205498  -4.986016  -0.958490   0.299709  -2.834618   1.285764
    18  H    0.011509   0.023313   0.003584   0.001387  -0.013862  -0.026874
    19  H    0.004505  -0.001823  -0.000097  -0.000167   0.000033  -0.000536
    20  H   -0.027982   0.011235   0.000416   0.000358  -0.000428  -0.000304
    21  H    0.082144  -0.045763   0.007298  -0.001293   0.001290   0.001239
    22  H    0.330816  -0.066000  -0.058952   0.036186   0.012960  -0.024706
    23  H    0.182526   0.214035   0.085004  -0.006599  -0.010062  -0.032326
    24  H    0.082025  -0.150917   0.491747  -0.072121  -0.018316   0.084342
    25  H   -0.027917   0.016710  -0.119925   0.479588  -0.122827  -0.023622
    26  H    0.004486   0.046565   0.033500  -0.072790   0.632084  -0.132551
    27  H    0.011575   0.109910  -0.010293   0.004770   0.267611  -0.147471
              13         14         15         16         17         18
     1  O   -0.001354  -0.014706   0.002744   0.006551   0.099891   0.201258
     2  C   -0.003103   1.285192   2.967918   0.020908  -5.428078  -0.147491
     3  C    0.004200  -2.834344  -5.514313  -0.150471   0.426902   0.267814
     4  C   -0.000119   0.298716   0.246291   0.000811   1.084484   0.004789
     5  C   -0.003776  -0.956497  -0.216162   0.001526  -5.680988  -0.010376
     6  C   -0.017242  -4.995614  -5.254231  -0.166683   1.189474   0.110032
     7  C   -0.006298  -5.200861   2.024435  -0.096181  -5.205498   0.011509
     8  C   -0.094693   1.190530  -5.250078  -0.166523  -4.986016   0.023313
     9  C    0.015853  -5.677960  -0.217032   0.001536  -0.958490   0.003584
    10  C    0.051408   1.083118   0.247332   0.000868   0.299709   0.001387
    11  C   -0.611969   0.432676  -5.512432  -0.150706  -2.834618  -0.013862
    12  C    0.494862  -5.425027   2.969045   0.020658   1.285764  -0.026874
    13  O    8.302358   0.100161   0.002110   0.006576  -0.014827   0.000748
    14  C    0.100161  37.096831  -1.778566  -0.223395  -8.987003  -0.192933
    15  C    0.002110  -1.778566  23.127307   1.015616  -1.775392  -0.198725
    16  O    0.006576  -0.223395   1.015616   8.588162  -0.223542   0.051387
    17  C   -0.014827  -8.987003  -1.775392  -0.223542  37.100535   0.169604
    18  H    0.000748  -0.192933  -0.198725   0.051387   0.169604   0.361953
    19  H    0.000052  -0.011014  -0.038540   0.000141  -0.128127   0.000532
    20  H   -0.000000   0.001591  -0.001894  -0.000185   0.106360   0.000027
    21  H   -0.000052  -0.019635   0.007821   0.000548  -0.056065   0.000212
    22  H    0.000350   0.111056   0.025136  -0.000294   0.111068   0.000362
    23  H   -0.000257  -0.192504  -0.026487   0.000599  -0.192404   0.000462
    24  H    0.000426  -0.055899   0.007759   0.000548  -0.019677  -0.000149
    25  H    0.001012   0.106217  -0.001876  -0.000183   0.001610   0.000031
    26  H   -0.027607  -0.127972  -0.038583   0.000137  -0.011042  -0.000227
    27  H    0.201101   0.169487  -0.198497   0.051514  -0.192895  -0.006376
              19         20         21         22         23         24
     1  O   -0.027622   0.001010   0.000428   0.000349  -0.000258  -0.000052
     2  C   -0.132437  -0.023760   0.084438  -0.024757  -0.032310   0.001245
     3  C    0.632157  -0.122819  -0.018395   0.012934  -0.010008   0.001285
     4  C   -0.072852   0.479613  -0.072239   0.036232  -0.006619  -0.001290
     5  C    0.033489  -0.120032   0.491926  -0.058985   0.085109   0.007294
     6  C    0.046524   0.016841  -0.151025  -0.066265   0.214106  -0.045709
     7  C    0.004505  -0.027982   0.082144   0.330816   0.182526   0.082025
     8  C   -0.001823   0.011235  -0.045763  -0.066000   0.214035  -0.150917
     9  C   -0.000097   0.000416   0.007298  -0.058952   0.085004   0.491747
    10  C   -0.000167   0.000358  -0.001293   0.036186  -0.006599  -0.072121
    11  C    0.000033  -0.000428   0.001290   0.012960  -0.010062  -0.018316
    12  C   -0.000536  -0.000304   0.001239  -0.024706  -0.032326   0.084342
    13  O    0.000052  -0.000000  -0.000052   0.000350  -0.000257   0.000426
    14  C   -0.011014   0.001591  -0.019635   0.111056  -0.192504  -0.055899
    15  C   -0.038540  -0.001894   0.007821   0.025136  -0.026487   0.007759
    16  O    0.000141  -0.000185   0.000548  -0.000294   0.000599   0.000548
    17  C   -0.128127   0.106360  -0.056065   0.111068  -0.192404  -0.019677
    18  H    0.000532   0.000027   0.000212   0.000362   0.000462  -0.000149
    19  H    0.542400  -0.021610   0.002073  -0.000579  -0.000017   0.000008
    20  H   -0.021610   0.541425  -0.019797   0.001219   0.000519  -0.000101
    21  H    0.002073  -0.019797   0.544647  -0.005211   0.002185   0.000299
    22  H   -0.000579   0.001219  -0.005211   0.597310  -0.057424  -0.005200
    23  H   -0.000017   0.000519   0.002185  -0.057424   0.572361   0.002183
    24  H    0.000008  -0.000101   0.000299  -0.005200   0.002183   0.544647
    25  H   -0.000005   0.000014  -0.000101   0.001217   0.000518  -0.019792
    26  H    0.000008  -0.000005   0.000008  -0.000578  -0.000018   0.002072
    27  H   -0.000228   0.000031  -0.000149   0.000361   0.000460   0.000214
              25         26         27
[...]
 1535,-0.00027616,0.00017186,0.00031363,-0.00025329,0.00048657,0.006266
 75,-0.00196133,0.00054085,0.00200988,-0.03435571,0.01629662,-0.0354970
 2,-0.00166592,0.00081656,0.00218956,-0.00039410,-0.00008603,0.00586235
 ,-0.00023116,-0.00010395,0.00032777,-0.00001875,-0.00009526,-0.0000975
 9,-0.00003416,0.00000873,0.00012252,0.00003040,-0.00008710,0.00000576,
 0.00001153,0.00010876,-0.00000738,-0.00006469,-0.00003285,0.00004303,-
 0.00000590,0.00001448,-0.00002413,0.00004195,0.00006407,-0.00002596,-0
 .00002933,-0.00008360,-0.00041522,-0.00004029,-0.00004099,0.00006501,0
 .00030978,0.00000628,-0.00117687,0.00010229,0.00001630,-0.00013697,0.0
 0056190,-0.00026592,-0.00376524,0.03775814,-0.01764403,0.02769825,0.00
 038819,0.00010138,0.00011353,-0.00120369,-0.00020137,-0.00006238,-0.00
 373288,-0.00226016,-0.00106076,0.00643405,-0.02643654,0.00160997,-0.05
 979939,0.02458227,-0.00446013,0.00049479,0.02821814,-0.00147169,0.0012
 9328,0.00127759,0.00019284,-0.00008380,-0.00012762,0.00016016,0.000054
 03,-0.00003370,-0.00004428,-0.00003576,-0.00001151,0.00001630,0.000014
 50,0.00001192,0.00000047,-0.00005209,-0.00003435,-0.00000525,-0.000077
 23,-0.00006200,0.00002890,0.00009202,0.00000267,-0.00007283,0.00100922
 ,0.00107566,-0.00009980,-0.00057924,0.00039127,0.00004012,-0.00491362,
 0.00113777,-0.00135312,-0.00012095,-0.00010467,0.00000321,0.00012930,-
 0.00127891,0.00010165,0.00102098,0.00076873,0.00055369,0.05982069,0.00
 008576,-0.00056216,0.00000283,0.00026811,0.00102766,-0.00009058,-0.003
 68118,0.00050909,-0.00017634,0.00466860,-0.01413434,0.00108022,0.02482
 476,-0.32526080,0.01692142,-0.00078991,-0.01115731,0.00057675,-0.00139
 325,0.00057176,-0.00024680,0.00007155,0.00049314,-0.00027173,-0.000001
 90,-0.00008920,0.00001465,0.00013680,0.00028153,-0.00005318,-0.0001273
 3,-0.00027616,0.00005334,0.00034057,0.00027136,-0.00006254,0.00010926,
 -0.00017295,-0.00000897,-0.00054220,-0.00041082,0.00014082,-0.00012174
 ,0.00005225,0.00002924,0.00044409,-0.00069978,0.00002672,0.00170918,0.
 00126909,0.00049397,-0.00001225,0.00007949,-0.00001510,0.00020697,-0.0
 0082166,0.00015495,-0.00018025,0.00091129,-0.00021834,-0.02656916,0.34
 732129,0.00017153,-0.00010690,-0.00057778,-0.00053394,-0.00008957,-0.0
 0073072,-0.00067930,-0.00031724,0.00618350,0.00073162,-0.00166206,0.00
 174672,-0.00564907,0.01663841,-0.03355977,0.00084370,0.00353427,0.0022
 7474,0.00089544,-0.00069263,-0.00341568,0.00019206,0.00010228,0.000053
 39,0.00006681,-0.00005051,-0.00001460,-0.00000120,-0.00000264,-0.00001
 793,0.00000135,0.00001199,-0.00000090,0.00000719,-0.00002392,0.0000027
 5,-0.00001148,0.00000153,-0.00000118,-0.00000033,0.00001845,0.00000713
 ,0.00032433,0.00023015,0.00067877,-0.00012489,0.00006974,-0.00031020,-
 0.00159791,0.00069872,0.00626995,-0.00003986,-0.00003133,-0.00010512,-
 0.00005313,-0.00007848,0.00054709,0.00058648,-0.00016322,-0.00376197,0
 .00556167,-0.01839605,0.02522023,-0.00029879,-0.00046167,0.00012066,0.
 00122926,-0.00074526,-0.00064760,-0.00052642,0.00023849,0.00010971,0.0
 0027646,-0.00034680,0.00021416,0.00100083,-0.00104273,-0.00023840,0.00
 317055,-0.02316514,0.01290409,-0.05194042,0.02313650,-0.01270409,-0.00
 270104,0.02485241,-0.01357824,0.00134195,0.00108116,0.00023806,0.00003
 552,0.00042601,-0.00011757,-0.00049664,-0.00041809,-0.00002669,0.00132
 100,0.00098791,0.00053919,-0.00045048,0.00049368,-0.00009664,-0.005138
 26,0.00046361,0.00117921,-0.00007073,-0.00009938,-0.00001297,0.0002855
 8,0.00005336,-0.00001729,-0.00465791,-0.00139031,-0.00060157,-0.000194
 14,0.00008098,-0.00004096,-0.00002179,0.00004170,-0.00005649,0.0000261
 1,0.00003137,-0.00007309,-0.00025468,0.00054417,-0.00018410,0.05852032
 ,-0.00035330,-0.00073265,0.00011375,0.00104417,-0.00034426,-0.00027475
 ,-0.00013194,0.00041846,-0.00008238,-0.00065689,-0.00039970,-0.0006183
 2,0.00295986,0.00094570,-0.00054670,0.00040250,-0.01785014,0.00733077,
 0.02289990,-0.23819871,0.10840503,0.00310059,-0.01334140,0.00480647,-0
 .00292554,0.00062514,-0.00016659,0.00065588,-0.00022041,-0.00072664,-0
 .00003656,0.00036884,-0.00009921,-0.00077660,-0.00035021,-0.00006622,0
 .00041126,-0.00058253,0.00004876,0.00289429,0.00058456,0.00001360,-0.0
 0008740,0.00094590,0.00010182,0.00006191,-0.00040128,0.00002840,-0.003
 78588,-0.00017455,0.00024788,-0.00004905,0.00012271,-0.00002023,-0.000
 08227,0.00003112,0.00007632,-0.00004392,-0.00000437,0.00004238,-0.0005
 4252,0.00066769,0.00059438,-0.02499491,0.26156661,-0.00008185,-0.00007
 586,-0.00005638,-0.00017713,-0.00037290,0.00012820,0.00016369,-0.00015
 727,0.00005317,0.00028214,0.00005735,-0.00007356,0.00012438,-0.0002728
 5,0.00048601,-0.00064189,-0.00819306,0.00296075,-0.01298932,0.11193055
 ,-0.10396780,0.00268952,-0.01071633,0.00430448,-0.00014353,-0.00040850
 ,0.00046624,-0.00030972,-0.00004207,-0.00001978,-0.00006789,-0.0001393
 7,0.00007408,0.00010680,-0.00044665,0.00004120,0.00013523,-0.00011460,
 -0.00005596,0.00171078,-0.00005048,0.00010889,0.00001450,-0.00021279,-
 0.00013087,-0.00000798,-0.00007792,0.00003700,-0.00108342,-0.00018972,
 0.00037715,-0.00000798,0.00001015,0.00000490,0.00000497,-0.00000520,-0
 .00000374,0.00003354,0.00002039,-0.00004748,0.00025880,-0.00000315,-0.
 00001173,0.01366147,-0.11802560,0.11279243,-0.00008337,-0.00013659,-0.
 00014798,0.00094346,0.00038760,0.00100296,-0.00115287,0.00054297,-0.00
 033556,0.00037857,-0.00107441,0.00137000,-0.00019138,-0.00112934,0.000
 04633,-0.00571684,-0.00986997,-0.02558380,-0.03969545,-0.00121113,-0.0
 0873476,-0.00436859,0.00930696,0.02871481,-0.00012561,0.00099510,0.000
 04375,-0.00004897,0.00121545,-0.00142291,-0.00105460,-0.00080125,0.000
 49063,0.00095070,-0.00022066,-0.00121001,-0.00008020,0.00013049,0.0001
 7176,-0.00282791,-0.00266257,0.00073148,0.00361995,0.00030179,-0.00031
 219,-0.00019309,-0.00011112,0.00004569,-0.00320428,0.00224787,-0.00041
 545,-0.00006941,0.00001362,-0.00000054,-0.00000834,0.00000655,-0.00009
 365,-0.00012694,-0.00001091,0.00003504,-0.00004240,0.00017003,-0.00053
 579,-0.00004485,-0.00058200,-0.00342119,0.05330046,-0.00003127,-0.0006
 5452,-0.00012557,0.00075459,0.00057872,0.00074681,-0.00072390,0.001133
 69,-0.00022443,-0.00152298,-0.00185402,0.00043889,0.00295803,0.0002312
 9,0.00022079,-0.00720865,-0.00601916,-0.01951761,-0.00152088,-0.054132
 94,-0.04863121,0.00508532,-0.00327685,-0.01546254,-0.00295836,-0.00010
 038,0.00056530,0.00186192,-0.00135574,-0.00000931,0.00030811,0.0011079
 1,-0.00021049,-0.00059765,0.00040785,0.00063199,0.00011456,-0.00062001
 ,-0.00010625,0.00102217,0.00004476,-0.00008332,0.00029057,0.00088444,0
 .00076561,-0.00001909,-0.00012211,-0.00018074,-0.00158305,0.00023114,-
 0.00003583,-0.00006766,0.00004934,-0.00000117,-0.00004897,0.00000047,0
 .00000047,-0.00007725,-0.00001614,0.00010302,0.00006776,0.00009280,-0.
 00028356,0.00111854,0.00551683,0.02743493,0.00272053,0.05776789,-0.000
 10271,-0.00090191,-0.00003196,0.00021362,0.00073374,0.00014800,-0.0002
 4266,0.00109975,-0.00007810,-0.00192829,-0.00159433,0.00002614,0.00249
 401,-0.00048814,0.00107650,-0.00768072,-0.00426464,-0.00253081,-0.0091
 9526,-0.04333975,-0.26327185,0.00846467,-0.00394829,-0.00662257,-0.002
 20334,-0.00102091,0.00135872,0.00217028,-0.00136698,-0.00005248,0.0001
 5625,0.00121038,-0.00014694,-0.00041962,0.00071086,0.00031182,0.000262
 12,-0.00088397,-0.00007223,0.00094328,0.00146521,-0.00050503,-0.000332
 90,0.00101169,-0.00058519,0.00018810,-0.00180101,0.00031747,-0.0008631
 6,0.00102661,-0.00033302,0.00014599,0.00010329,-0.00000593,-0.00006668
 ,-0.00002539,-0.00005267,-0.00009707,-0.00003668,0.00005554,0.00002587
 ,0.00002350,-0.00046668,-0.00085344,-0.00185287,-0.01740554,0.00898255
 ,0.05405666,0.28940152,-0.00007282,0.00008097,-0.00001960,0.00001208,-
 0.00001503,0.00001556,-0.00001549,0.00003620,-0.00000855,-0.00000474,-
 0.00003986,-0.00000791,0.00004095,0.00005097,0.00003480,-0.00011405,0.
 00003491,-0.00009545,0.00108797,-0.00127010,-0.00064714,0.00480339,-0.
 02482897,0.00128978,-0.05858032,0.02442251,0.00411232,0.00181165,0.028
 90510,-0.00204688,-0.00427475,0.00134317,0.00227644,-0.00104998,-0.000
 17884,0.00011605,0.00034772,0.00005250,-0.00022065,-0.00379099,-0.0019
 6631,0.00243097,0.00110962,-0.00085867,0.00005149,-0.00043037,-0.00033
 057,-0.00002656,-0.00000955,0.00007082,0.00004885,0.00012558,-0.000016
 90,0.00001351,-0.00000106,0.00000421,0.00000134,0.00000891,0.00000191,
 -0.00000097,-0.00001567,-0.00000341,0.00000357,-0.00024541,0.00048703,
 -0.00023273,0.00006161,-0.00010313,-0.00009398,0.05846904,-0.00009180,
 -0.00017427,-0.00000164,-0.00038929,0.00020618,-0.00001636,0.00017828,
 -0.00024500,0.00003436,-0.00018965,0.00024827,-0.00003538,0.00002689,-
 0.00007711,0.00001922,-0.00021405,0.00048427,-0.00028228,0.00147332,0.
 00058550,-0.00046696,0.00367882,-0.01545469,0.00057094,0.02420136,-0.3
 2533457,0.01738783,-0.00169588,-0.00979189,0.00109433,0.00277128,0.001
 39712,-0.00026861,-0.00064420,0.00094048,-0.00002080,0.00007755,-0.000
 55530,-0.00002591,-0.00256679,0.00061146,0.00107377,0.00031849,-0.0000
 8590,0.00001543,-0.00039235,-0.00083023,0.00007108,0.00062608,-0.00029
 713,0.00008283,0.00021807,0.00004520,0.00001731,-0.00002035,-0.0000132
 5,-0.00000181,-0.00001655,0.00000727,-0.00000603,-0.00000424,0.0000238
 0,0.00000111,-0.00067823,0.00066351,0.00000892,-0.00017905,0.00004525,
 0.00003536,-0.02657179,0.34731434,0.00002057,-0.00000252,-0.00000027,-
 0.00000015,-0.00002607,0.00000199,-0.00000335,0.00001035,0.,0.00000257
 ,-0.00000078,-0.00001690,-0.00006349,-0.00006631,-0.00001126,-0.000189
 67,0.00006135,0.00008766,-0.00129093,-0.00073030,-0.00322876,-0.001757
 59,0.00640308,0.00224857,0.00531897,0.01728357,-0.03465754,-0.00041158
 ,-0.00502830,0.00203947,0.00191446,-0.00029614,0.00583852,0.00057656,0
 .00000667,-0.00080393,-0.00025817,-0.00013770,-0.00053359,0.00263870,0
 .00124429,0.00580368,-0.00040762,0.00027500,0.00071198,0.00012764,0.00
 013638,-0.00032164,-0.00000591,0.00001484,0.00000130,-0.00003666,-0.00
 000119,-0.00002401,0.00000165,-0.00000067,0.00000254,-0.00000871,-0.00
 000496,0.00000390,-0.00000105,0.00000053,0.00000859,0.00011567,0.00056
 071,0.00000135,0.00051288,-0.00018376,-0.00051835,-0.00588448,-0.01904
 839,0.02650158,-0.00004233,-0.00012811,0.00000063,-0.00002866,0.000112
 24,-0.00001131,0.00000157,-0.00004850,0.00000696,-0.00008700,0.0000640
 9,-0.00003134,-0.00009472,-0.00017764,0.00000576,-0.00018586,0.0004576
 1,0.00017030,-0.00049133,-0.00124748,0.00009482,-0.00299316,0.00405905
 ,0.00183797,-0.01670218,-0.01813981,0.00569845,-0.23232456,-0.12270365
 ,0.05510606,0.00545171,0.00374644,-0.00105053,0.00156039,0.00179771,0.
 00081957,0.00007747,-0.00026527,0.00009819,0.00009049,0.00056279,-0.00
 034585,0.00009204,0.00012028,-0.00008388,-0.00010450,-0.00029107,0.000
 04809,0.00003326,-0.00006905,-0.00001098,0.00006348,0.00002501,0.00000
 822,-0.00001268,-0.00000815,-0.00000044,-0.00002928,-0.00000793,-0.000
 00864,0.00000730,0.00001636,0.00000913,0.00002649,0.00005481,-0.000045
 45,-0.00013031,0.00006750,0.00012247,0.00093706,0.00017234,-0.00109635
 ,0.24427090,-0.00004678,-0.00007032,-0.00000283,-0.00016539,0.00007284
 ,-0.00000399,0.00008196,-0.00009820,0.00001287,-0.00008114,0.00009152,
 -0.00000036,0.00007697,0.00002816,0.00003268,0.00003584,-0.00000467,-0
 .00008579,0.00041777,0.00042020,-0.00005560,0.00290804,-0.00035612,-0.
 00019993,0.01185712,0.01094344,-0.00331684,-0.12251379,-0.14501852,0.0
 3722562,-0.02618567,-0.01242818,0.00701684,0.00265424,-0.00359135,0.00
 036189,-0.00185319,-0.00167355,0.00054273,0.00066969,-0.00046616,-0.00
 017084,-0.00032892,0.00017354,-0.00002873,-0.00027193,-0.00002910,0.00
 006074,0.00020426,-0.00015226,0.00001448,0.00009325,0.00003378,0.00000
 965,-0.00000844,-0.00000470,-0.00000255,0.00000108,0.00000545,-0.00000
 691,-0.00000245,0.00000987,-0.00000316,-0.00002401,-0.00000042,0.00001
 678,-0.00001346,-0.00000368,-0.00001714,-0.00076380,0.00080338,-0.0002
 1764,0.13231673,0.15027981,0.00000586,0.00003005,-0.00002474,0.0000777
 4,-0.00003399,0.00003650,-0.00003142,0.00011148,-0.00000587,-0.0000041
 9,-0.00009896,0.00001187,0.00005703,0.00003615,0.00011800,0.00004445,-
 0.00014517,-0.00012080,0.00033797,0.00008174,0.00028924,0.00140401,-0.
 00042513,0.00560379,0.00357463,0.00313237,0.00137358,0.05491566,0.0373
 2908,-0.04601452,0.00167968,0.00058691,0.00184815,0.00068620,0.0004072
 5,0.00614747,0.00028563,0.00026534,0.00026706,-0.00045475,-0.00012427,
 -0.00109881,-0.00001597,-0.00009602,-0.00040916,0.00006946,-0.00000039
 ,0.00005350,-0.00005909,0.00006424,-0.00001920,-0.00001566,-0.00001259
 ,0.00001900,0.00000326,0.00000360,-0.00000431,0.00001042,-0.00000471,-
 0.00002280,0.00000164,-0.00000772,0.00000268,0.00005610,0.00004793,-0.
 00005035,-0.00003075,0.00008861,0.00004628,-0.00104604,-0.00037529,-0.
 00357080,-0.06040564,-0.04051330,0.03923727,-0.00001631,-0.00015193,0.
 00001860,-0.00025937,0.00028084,-0.00005997,0.00006076,-0.00019655,0.0
 0002319,-0.00010266,0.00014983,-0.00001745,0.00000986,-0.00003268,-0.0
 0001107,0.00005581,0.00014768,-0.00002424,-0.00000340,-0.00005699,-0.0
 0011697,0.00003113,-0.00095103,-0.00017355,0.00236693,0.00018464,0.000
 90200,0.00151349,-0.00100451,0.00007252,-0.27206174,0.10616232,0.04302
 786,-0.01893275,0.01513614,0.00389306,0.00233863,0.00078531,-0.0013629
 7,-0.00198778,-0.00388286,0.00190127,-0.00065258,0.00167710,0.00003165
 ,0.00032997,-0.00051523,-0.00001820,-0.00004422,-0.00064393,0.00005145
 ,0.00008591,0.00003368,-0.00000417,-0.00002983,-0.00000466,-0.00000249
 ,-0.00001514,0.00000604,-0.00000260,-0.00000452,0.00002150,-0.00000082
 ,-0.00002145,0.00008084,-0.00000255,0.00000310,0.00004813,0.00006230,-
 0.00008077,-0.00006147,0.00013925,0.00051470,0.00033572,-0.00100954,0.
 28714766,-0.00000503,0.00011013,-0.00000611,0.00015637,-0.00002173,0.0
 0000326,-0.00012206,0.00010234,-0.00003155,0.00009559,-0.00012686,0.00
 002207,-0.00002385,0.00004490,-0.00000123,0.00008832,-0.00019479,-0.00
 000415,0.00014525,0.00014340,-0.00004545,-0.00053420,-0.00056364,0.000
 04178,-0.00096173,-0.00511278,0.00125816,0.02839009,-0.00769531,-0.005
 39647,0.10789326,-0.11054369,-0.01649417,-0.01543309,0.00936006,0.0029
 9026,0.00095004,0.00221288,-0.00069251,-0.00305381,-0.00201508,0.00128
 303,0.00001213,0.00037407,0.00003072,0.00005769,0.00031996,-0.00005997
 ,-0.00052060,-0.00003757,0.00000459,-0.00002218,-0.00001159,0.00000018
 ,-0.00000179,0.00001022,0.00000209,0.00000671,-0.00000215,0.00000232,-
 0.00000261,-0.00001057,-0.00000053,-0.00005250,0.00003596,-0.00000060,
 -0.00000978,0.00000710,-0.00001358,0.00139382,-0.00060852,-0.00021844,
 -0.00058238,0.00131700,-0.00033524,-0.11755011,0.11279351,-0.00001090,
 0.00005154,0.00000284,0.00011905,-0.00006069,0.00000384,-0.00005638,0.
 00008135,0.00002900,0.00002788,-0.00007600,0.00000986,0.00000472,0.000
 00072,0.00001227,0.00000815,-0.00002094,0.00000836,-0.00012033,-0.0001
 7733,-0.00046837,-0.00018688,0.00025964,-0.00087892,0.00137689,0.00103
 197,0.00603762,-0.00277487,0.00151411,0.00174347,0.04298950,-0.0163769
 8,-0.03938732,0.00599236,-0.00383432,0.00339047,-0.00131809,-0.0005308
 0,-0.00325162,0.00188161,0.00103787,0.00514034,0.00036098,-0.00025944,
 0.00018974,-0.00010522,0.00003653,0.00004716,-0.00009648,0.00005951,-0
 .00031342,-0.00000771,-0.00001043,-0.00000437,0.00000507,0.00000298,-0
 .00000613,0.00000228,-0.00000328,-0.00000403,-0.00000012,-0.00000475,0
 .00000278,0.00004508,0.00007574,-0.00000911,0.00008574,0.00001031,-0.0
 0007122,-0.00006563,0.00015219,0.00054593,-0.00087503,-0.00055058,-0.0
 0359667,-0.04722056,0.01764890,0.03143189,0.00848010,-0.00144049,0.001
 20316,-0.00145165,0.00245037,-0.00013208,0.00031154,-0.00058651,0.0000
 2335,0.00030153,-0.00012108,0.00001271,0.00006599,-0.00073647,0.000056
 95,0.00131573,0.00108505,0.00038706,0.00015337,0.00033243,-0.00021251,
 -0.00269061,-0.00236462,0.00067414,0.00056649,0.00191129,-0.00014829,0
 .00000730,-0.00247955,0.00050448,0.00314043,0.01099722,-0.00113361,0.0
 0748671,-0.02738020,0.00039286,-0.27963734,-0.08549998,0.06062786,-0.0
 0013827,0.00495128,-0.00029112,-0.00380924,0.03225680,-0.00283310,0.02
 846268,-0.02042667,-0.00483173,0.00139101,-0.00629247,0.00082461,-0.01
 152434,-0.00331467,-0.00166554,0.00008909,0.00003734,-0.00000435,0.000
 08228,-0.00008243,0.00001136,0.00015758,-0.00019514,0.00001694,-0.0001
 7107,-0.00000423,0.00002680,-0.00009244,0.00004509,-0.00015168,-0.0001
 2961,-0.00002677,0.00004680,0.00009973,0.00060629,-0.00013672,-0.00024
 543,-0.00031353,-0.00006113,0.24777844,-0.00106369,0.00011031,-0.00018
 058,-0.00066916,-0.00009628,-0.00009330,0.00017608,-0.00025365,0.00005
 523,-0.00022521,0.00027995,-0.00003778,0.00004817,-0.00018777,0.000013
 21,0.00035922,0.00040877,0.00000456,0.00009048,0.00027656,-0.00008420,
 -0.00124264,-0.00113624,0.00033503,0.00052266,0.00068064,-0.00015589,-
 0.00161689,-0.00014041,0.00051175,0.00302269,-0.00457793,-0.00012878,-
 0.04126339,-0.03430634,0.01115302,-0.06293848,-0.07887759,0.01746937,0
 .00053207,0.00062597,-0.00008885,0.01063907,-0.00223863,-0.00146816,-0
 .00465011,-0.01486550,0.00070362,0.00036557,-0.00214746,0.00030011,0.0
 0131648,0.00013820,0.00031039,-0.00001794,-0.00001026,-0.00000666,-0.0
 0001717,0.00001426,-0.00000780,0.00003664,0.00001366,0.00000075,-0.000
 13087,0.00010761,0.00002587,-0.00002674,0.00005607,0.00007854,0.000063
 26,0.00009179,-0.00003360,0.00009608,-0.00028179,-0.00001199,0.0000021
 8,0.00011276,-0.00005781,0.09659166,0.13620330,-0.00235404,0.00040582,
 -0.00028284,0.00035310,-0.00081375,0.00016915,-0.00008331,0.00019316,-
 0.00015249,-0.00000847,-0.00003167,0.00001325,-0.00000390,0.00020406,-
 0.00007649,-0.00034881,-0.00023133,0.00010947,-0.00004867,-0.00011805,
 0.00012886,0.00045804,0.00041057,-0.00082959,-0.00004244,-0.00038094,0
 .00004940,0.00036953,0.00064131,0.00138654,-0.00034104,-0.00161839,0.0
 0255602,0.00139068,0.00807543,-0.00166603,0.05926832,0.02246559,-0.035
 54169,0.00020519,-0.00103438,0.00027594,-0.00038719,-0.00562208,0.0010
 2606,-0.00783086,0.00345518,-0.01124070,-0.00017953,0.00171228,0.00076
 887,0.00292986,0.00098539,0.00024951,-0.00000680,-0.00000323,-0.000003
 96,-0.00001647,0.00001746,0.00001870,-0.00003744,0.00003629,-0.0000240
 5,0.00006575,-0.00001445,-0.00000356,0.00001096,-0.00000761,0.00000859
 ,0.00000191,-0.00001522,-0.00011000,-0.00006119,-0.00011808,-0.0001163
 2,-0.00009597,0.00001266,-0.00060440,-0.05320720,-0.02860604,0.0438918
 0\\-0.00001883,0.00001038,-0.00000286,-0.00000587,-0.00002206,-0.00000
 086,0.00000285,-0.00000539,0.00000106,0.00000514,0.00000608,0.00000363
 ,-0.00001088,0.00000280,0.00000126,0.00000760,-0.00001403,0.00000407,-
 0.00000039,0.00000473,0.00000358,-0.00000609,-0.00001667,0.00000309,0.
 00000941,0.00000502,-0.00000192,-0.00000504,0.00000631,0.00000064,-0.0
 0000385,-0.00000605,-0.00000170,0.00000702,-0.00000651,-0.00000478,-0.
 00002987,-0.00000150,0.00000323,-0.00000001,0.00001410,-0.00000139,0.0
 0000350,-0.00001125,-0.00000140,0.00002955,0.00000108,-0.00000477,-0.0
 0000208,0.00002126,-0.00000044,0.00000242,0.00000436,-0.00000364,-0.00
 000150,0.00000204,0.00000015,-0.00000086,0.00000038,0.00000358,-0.0000
 0020,-0.00000003,0.00000498,0.00000053,0.00000011,0.00000284,0.0000008
 6,-0.00000180,0.00000187,-0.00000027,-0.00000002,0.00000283,0.00000043
 ,0.00000061,-0.00000069,0.00000053,0.00000211,-0.00000420,0.00001590,0
 .00000395,-0.00000815\\\@


 THE MORE PROGRESS PHYSICAL SCIENCES MAKE, THE MORE THEY TEND TO ENTER
 THE DOMAIN OF MATHEMATICS, WHICH IS A KIND OF CENTRE TO WHICH THEY ALL
 CONVERGE.  WE MAY EVEN JUDGE THE DEGREE OF PERFECTION TO WHICH A 
 SCIENCE HAS ARRIVED BY THE FACILITY WITH WHICH IT MAY BE SUBMITTED
 TO CALCULATION.

                               -- ADOLPHE QUETELET, 1796-1874
 Job cpu time:       0 days  4 hours 24 minutes 30.7 seconds.
 Elapsed time:       0 days  0 hours 33 minutes 12.7 seconds.
 File lengths (MBytes):  RWF=   1058 Int=      0 D2E=      0 Chk=     32 Scr=      1
 Normal termination of Gaussian 16 at Sun Feb 11 16:26:58 2024.
