
Running Job 1 of 1 271-rad-SM12.in
qchem 271-rad-SM12.in_4143639.0 /expanse/lustre/scratch/selhajj/temp_project/qcscratch/28446839/qchem4143639/ 0
/cm/shared/apps/spack/cpu/opt/spack/linux-centos8-zen2/gcc-10.2.0/qchem-5.4-akfmr7b3t57bfs6qan3padb2wnb2i7cl/exe/qcprog.exe_s 271-rad-SM12.in_4143639.0 /expanse/lustre/scratch/selhajj/temp_project/qcscratch/28446839/qchem4143639/
                  Welcome to Q-Chem
     A Quantum Leap Into The Future Of Chemistry


 Q-Chem 5.4, Q-Chem, Inc., Pleasanton, CA (2021)

 License issued to: University of California, San Diego (site)

 E. Epifanovsky,  A. T. B. Gilbert,  Xintian Feng,  Joonho Lee,  Yuezhi Mao,  
 N. Mardirossian,  P. Pokhilko,  A. White,  M. Wormit,  M. P. Coons,  
 A. L. Dempwolff,  Zhengting Gan,  D. Hait,  P. R. Horn,  L. D. Jacobson,  
 I. Kaliman,  J. Kussmann,  A. W. Lange,  Ka Un Lao,  D. S. Levine,  Jie Liu,  
 S. C. McKenzie,  A. F. Morrison,  K. Nanda,  F. Plasser,  D. R. Rehn,  
 M. L. Vidal,  Zhi-Qiang You,  Ying Zhu,  B. Alam,  B. Albrecht,  
 A. Aldossary,  E. Alguire,  J. H. Andersen,  D. Barton,  K. Begam,  A. Behn,  
 Y. A. Bernard,  E. J. Berquist,  H. Burton,  A. Carreras,  K. Carter-Fenk,  
 R. Chakraborty,  A. D. Chien,  K. D. Closser,  V. Cofer-Shabica,  
 S. Dasgupta,  Jia Deng,  M. de Wergifosse,  M. Diedenhofen,  Hainam Do,  
 S. Ehlert,  Po-Tung Fang,  S. Fatehi,  Qingguo Feng,  J. Gayvert,  
 Qinghui Ge,  G. Gidofalvi,  M. Goldey,  J. Gomes,  C. Gonzalez-Espinoza,  
 S. Gulania,  A. Gunina,  M. W. D. Hanson-Heine,  P. H. P. Harbach,  
 A. W. Hauser,  M. F. Herbst,  M. Hernandez Vera,  M. Hodecker,  
 Z. C. Holden,  S. Houck,  Xunkun Huang,  Kerwin Hui,  B. C. Huynh,  
 M. Ivanov,  Hyunjun Ji,  Hanjie Jiang,  B. Kaduk,  S. Kaehler,  
 K. Khistyaev,  Jaehoon Kim,  P. Klunzinger,  Z. Koczor-Benda,  
 Joong Hoon Koh,  D. Kosenkov,  L. Koulias,  T. Kowalczyk,  C. M. Krauter,  
 K. Kue,  A. Kunitsa,  T. Kus,  A. Landau,  K. V. Lawler,  D. Lefrancois,  
 S. Lehtola,  Rain Li,  Yi-Pei Li,  Jiashu Liang,  M. Liebenthal,  
 Hung-Hsuan Lin,  You-Sheng Lin,  Fenglai Liu,  Kuan-Yu Liu,  
 M. Loipersberger,  A. Luenser,  A. Manjanath,  P. Manohar,  E. Mansoor,  
 S. F. Manzer,  Shan-Ping Mao,  A. V. Marenich,  T. Markovich,  S. Mason,  
 S. A. Maurer,  P. F. McLaughlin,  M. F. S. J. Menger,  J.-M. Mewes,  
 S. A. Mewes,  P. Morgante,  J. W. Mullinax,  T. S. Nguyen-Beck,  
 K. J. Oosterbaan,  G. Paran,  Alexander C. Paul,  Suranjan K. Paul,  
 F. Pavosevic,  Zheng Pei,  S. Prager,  E. I. Proynov,  E. Ramos,  B. Rana,  
 A. E. Rask,  A. Rettig,  R. M. Richard,  F. Rob,  E. Rossomme,  T. Scheele,  
 M. Scheurer,  M. Schneider,  N. Sergueev,  S. M. Sharada,  W. Skomorowski,  
 D. W. Small,  C. J. Stein,  Yu-Chuan Su,  E. J. Sundstrom,  Zhen Tao,  
 J. Thirman,  T. Tsuchimochi,  N. M. Tubman,  S. P. Veccham,  O. Vydrov,  
 J. Wenzel,  J. Witte,  A. Yamada,  Kun Yao,  S. Yeganeh,  S. R. Yost,  
 A. Zech,  Igor Ying Zhang,  Xing Zhang,  Yu Zhang,  D. Zuev,  
 A. Aspuru-Guzik,  A. T. Bell,  N. A. Besley,  K. B. Bravaya,  B. R. Brooks,  
 D. Casanova,  Jeng-Da Chai,  S. Coriani,  C. J. Cramer,  
 A. E. DePrince, III,  R. A. DiStasio Jr.,  A. Dreuw,  B. D. Dunietz,  
 T. R. Furlani,  W. A. Goddard III,  S. Grimme,  S. Hammes-Schiffer,  
 T. Head-Gordon,  W. J. Hehre,  Chao-Ping Hsu,  T.-C. Jagau,  Yousung Jung,  
 A. Klamt,  Jing Kong,  D. S. Lambrecht,  WanZhen Liang,  N. J. Mayhall,  
 C. W. McCurdy,  J. B. Neaton,  C. Ochsenfeld,  J. A. Parkhill,  R. Peverati,  
 V. A. Rassolov,  Yihan Shao,  L. V. Slipchenko,  T. Stauch,  R. P. Steele,  
 J. E. Subotnik,  A. J. W. Thom,  A. Tkatchenko,  D. G. Truhlar,  
 T. Van Voorhis,  T. A. Wesolowski,  K. B. Whaley,  H. L. Woodcock III,  
 P. M. Zimmerman,  S. Faraji,  P. M. W. Gill,  M. Head-Gordon,  
 J. M. Herbert,  A. I. Krylov

 Contributors to earlier versions of Q-Chem not listed above: 
 R. D. Adamson,  B. Austin,  R. Baer,  J. Baker,  G. J. O. Beran,  
 K. Brandhorst,  S. T. Brown,  E. F. C. Byrd,  A. K. Chakraborty,  
 G. K. L. Chan,  Chun-Min Chang,  Yunqing Chen,  C.-L. Cheng,  
 Siu Hung Chien,  D. M. Chipman,  D. L. Crittenden,  H. Dachsel,  
 R. J. Doerksen,  A. D. Dutoi,  R. G. Edgar,  J. Fosso-Tande,  
 L. Fusti-Molnar,  D. Ghosh,  A. Ghysels,  A. Golubeva-Zadorozhnaya,  
 J. Gonthier,  M. S. Gordon,  S. R. Gwaltney,  G. Hawkins,  J. E. Herr,  
 A. Heyden,  S. Hirata,  E. G. Hohenstein,  G. Kedziora,  F. J. Keil,  
 C. Kelley,  Jihan Kim,  R. A. King,  R. Z. Khaliullin,  P. P. Korambath,  
 W. Kurlancheek,  A. Laurent,  A. M. Lee,  M. S. Lee,  S. V. Levchenko,  
 Ching Yeh Lin,  D. Liotard,  E. Livshits,  R. C. Lochan,  I. Lotan,  
 L. A. Martinez-Martinez,  P. E. Maslen,  N. Nair,  D. P. O'Neill,  
 D. Neuhauser,  E. Neuscamman,  C. M. Oana,  R. Olivares-Amaya,  R. Olson,  
 T. M. Perrine,  B. Peters,  P. A. Pieniazek,  A. Prociuk,  Y. M. Rhee,  
 J. Ritchie,  M. A. Rohrdanz,  E. Rosta,  N. J. Russ,  H. F. Schaefer III,  
 M. W. Schmidt,  N. E. Schultz,  S. Sharma,  N. Shenvi,  C. D. Sherrill,  
 A. C. Simmonett,  A. Sodt,  T. Stein,  D. Stuck,  K. S. Thanthiriwatte,  
 V. Vanovschi,  L. Vogt,  Tao Wang,  A. Warshel,  M. A. Watson,  
 C. F. Williams,  Q. Wu,  X. Xu,  Jun Yang,  W. Zhang,  Yan Zhao

 Please cite Q-Chem as follows:
 Y. Shao et al., Mol. Phys. 113, 184-215 (2015)
 DOI: 10.1080/00268976.2014.952696

 Q-Chem 5.4.0 for Intel X86 EM64T Linux

 Parts of Q-Chem use Armadillo 9.800.1 (Horizon Scraper).
 http://arma.sourceforge.net/

 Q-Chem begins on Sat Feb  3 13:15:21 2024  

 Host: 
0

     Scratch files written to /expanse/lustre/scratch/selhajj/temp_project/qcscratch/28446839/qchem4143639//
 May1621 |scratch|qcdevops|jenkins|workspace|build_RNUM    
 Processing $rem in /cm/shared/apps/spack/cpu/opt/spack/linux-centos8-zen2/gcc-10.2.0/qchem-5.4-akfmr7b3t57bfs6qan3padb2wnb2i7cl/config/preferences:
 Processing $rem in /home/selhajj/.qchemrc:
 Symmetry turned off for PCM/SM12/SMD calculation
 Method-specific promolecule density matrix will be built for SM12 calculation

 Checking the input file for inconsistencies... 	...done.

--------------------------------------------------------------
User input:
--------------------------------------------------------------
$molecule
-1 2
C                 -0.9955690000      3.9305460000      0.0208170000
C                 -2.1702460000      3.2147930000      0.1630670000
C                 -2.1456700000      1.8048850000      0.1481470000
C                  0.2421410000      3.2719470000     -0.1385120000
C                  0.2650240000      1.8492300000     -0.1496650000
C                 -0.9418750000      1.1393540000     -0.0079600000
C                  1.4654950000      4.0454350000     -0.2973060000
C                  2.7146590000      3.3079850000     -0.4675020000
C                  2.7278540000      1.9168750000     -0.4067230000
C                  1.5250490000      1.1269560000     -0.3029990000
O                  1.4827670000      5.3103140000     -0.3037600000
O                  1.5836670000     -0.1387620000     -0.3646230000
N                  3.8192900000      4.0845540000     -0.7367660000
H                 -0.9900030000      5.0144650000      0.0253140000
H                 -3.1138620000      3.7386470000      0.2853860000
H                 -3.0687560000      1.2438790000      0.2593140000
H                 -0.8919080000      0.0565720000     -0.0234750000
H                  3.6193240000      5.0635860000     -0.5626250000
H                  4.7038150000      3.7247310000     -0.3872240000
N                  3.8623110000      1.0805080000     -0.5905250000
C                  5.1611860000      1.2099420000     -0.2385360000
C                  6.0127840000     -0.0266290000     -0.4999260000
H                  3.5197820000      0.1340820000     -0.7617370000
H                  5.4363990000     -0.8930740000     -0.8303070000
H                  6.5507760000     -0.2770630000      0.4171520000
H                  6.7580580000      0.2146400000     -1.2628360000
O                  5.6849890000      2.2208430000      0.2413380000
$end

$rem
BASIS  =  6-311++G(d,p)
GUI  =  2
JOB_TYPE  =  SP
METHOD  =  B3LYP
SCF_CONVERGENCE  = 8
SOLVENT_METHOD = sm12
$end

$smx
solvent dimethylformamide
charges CM5
$end





--------------------------------------------------------------
 ----------------------------------------------------------------
             Standard Nuclear Orientation (Angstroms)
    I     Atom           X                Y                Z
 ----------------------------------------------------------------
    1      C      -0.9955690000     3.9305460000     0.0208170000
    2      C      -2.1702460000     3.2147930000     0.1630670000
    3      C      -2.1456700000     1.8048850000     0.1481470000
    4      C       0.2421410000     3.2719470000    -0.1385120000
    5      C       0.2650240000     1.8492300000    -0.1496650000
    6      C      -0.9418750000     1.1393540000    -0.0079600000
    7      C       1.4654950000     4.0454350000    -0.2973060000
    8      C       2.7146590000     3.3079850000    -0.4675020000
    9      C       2.7278540000     1.9168750000    -0.4067230000
   10      C       1.5250490000     1.1269560000    -0.3029990000
   11      O       1.4827670000     5.3103140000    -0.3037600000
   12      O       1.5836670000    -0.1387620000    -0.3646230000
   13      N       3.8192900000     4.0845540000    -0.7367660000
   14      H      -0.9900030000     5.0144650000     0.0253140000
   15      H      -3.1138620000     3.7386470000     0.2853860000
   16      H      -3.0687560000     1.2438790000     0.2593140000
   17      H      -0.8919080000     0.0565720000    -0.0234750000
   18      H       3.6193240000     5.0635860000    -0.5626250000
   19      H       4.7038150000     3.7247310000    -0.3872240000
   20      N       3.8623110000     1.0805080000    -0.5905250000
   21      C       5.1611860000     1.2099420000    -0.2385360000
   22      C       6.0127840000    -0.0266290000    -0.4999260000
   23      H       3.5197820000     0.1340820000    -0.7617370000
   24      H       5.4363990000    -0.8930740000    -0.8303070000
   25      H       6.5507760000    -0.2770630000     0.4171520000
   26      H       6.7580580000     0.2146400000    -1.2628360000
   27      O       5.6849890000     2.2208430000     0.2413380000
 ----------------------------------------------------------------
 Nuclear Repulsion Energy =        1147.04490748 hartrees
 There are       61 alpha and       60 beta electrons
 Requested basis set is 6-311++G(d,p)
 There are 152 shells and 444 basis functions

 Total QAlloc Memory Limit   8000 MB
 Mega-Array Size       188 MB
 MEM_STATIC part       192 MB
 A cutoff of  1.0D-11 yielded   8928 shell pairs
 There are     79123 function pairs (     84855 Cartesian)
 Smallest overlap matrix eigenvalue = 1.43E-07

 Q-Chem warning in module stvman/mkSTV.C, line 323:

 Overlap eigenvalue is smaller than square root of threshold
 Use THRESH >= 12 to get rid of this warning

 Linear dependence detected in AO basis
 Tighter screening thresholds may be required for diffuse basis sets
 Use S2THRESH > 14 and THRESH = 14 in case of SCF convergence issues
 Number of orthogonalized atomic orbitals = 440
 Maximum deviation from orthogonality = 2.282E-10

 Scale SEOQF with 1.000000e-02/1.000000e-02/1.000000e-01

 Standard Electronic Orientation quadrupole field applied
 Nucleus-field energy     =     0.0000000093 hartrees
 ================ Generating on-the-fly Promolecule Density  ================
Attempting to make child job directory: /expanse/lustre/scratch/selhajj/temp_project/qcscratch/28446839/qchem4143639//Frg1/
Attempting to make child job directory: /expanse/lustre/scratch/selhajj/temp_project/qcscratch/28446839/qchem4143639//Frg2/
Attempting to make child job directory: /expanse/lustre/scratch/selhajj/temp_project/qcscratch/28446839/qchem4143639//Frg3/
Attempting to make child job directory: /expanse/lustre/scratch/selhajj/temp_project/qcscratch/28446839/qchem4143639//Frg4/
Creating input file /expanse/lustre/scratch/selhajj/temp_project/qcscratch/28446839/qchem4143639/Frg1.input
using default PutDataFrgm: nothing
calling putenv with: QCSCRATCH=/expanse/lustre/scratch/selhajj/temp_project/qcscratch/28446839/qchem4143639/ 
Spawning Job For Fragment 0
Done Job For Fragment 0
calling putenv with: QCSCRATCH=/expanse/lustre/scratch/selhajj/temp_project/qcscratch/28446839 
calling putenv with: QCTHREADS=8 
Creating input file /expanse/lustre/scratch/selhajj/temp_project/qcscratch/28446839/qchem4143639/Frg2.input
using default PutDataFrgm: nothing
calling putenv with: QCSCRATCH=/expanse/lustre/scratch/selhajj/temp_project/qcscratch/28446839/qchem4143639/ 
Spawning Job For Fragment 1
Done Job For Fragment 1
calling putenv with: QCSCRATCH=/expanse/lustre/scratch/selhajj/temp_project/qcscratch/28446839 
calling putenv with: QCTHREADS=8 
Creating input file /expanse/lustre/scratch/selhajj/temp_project/qcscratch/28446839/qchem4143639/Frg3.input
using default PutDataFrgm: nothing
calling putenv with: QCSCRATCH=/expanse/lustre/scratch/selhajj/temp_project/qcscratch/28446839/qchem4143639/ 
Spawning Job For Fragment 2
Done Job For Fragment 2
calling putenv with: QCSCRATCH=/expanse/lustre/scratch/selhajj/temp_project/qcscratch/28446839 
calling putenv with: QCTHREADS=8 
Creating input file /expanse/lustre/scratch/selhajj/temp_project/qcscratch/28446839/qchem4143639/Frg4.input
using default PutDataFrgm: nothing
calling putenv with: QCSCRATCH=/expanse/lustre/scratch/selhajj/temp_project/qcscratch/28446839/qchem4143639/ 
Spawning Job For Fragment 3
Done Job For Fragment 3
calling putenv with: QCSCRATCH=/expanse/lustre/scratch/selhajj/temp_project/qcscratch/28446839 
calling putenv with: QCTHREADS=8 
 Time for running child jobs:  CPU 0.01 s  wall 7.72 s
 ============= Method Specific Promolecule Density Constructed =============
 Guess from superposition of atomic densities
 Warning:  Energy on first SCF cycle will be non-variational
 SAD guess density has 120.000000 electrons

 -----------------------------------------------------------------------
  General SCF calculation program by
  Eric Jon Sundstrom, Paul Horn, Yuezhi Mao, Dmitri Zuev, Alec White,
  David Stuck, Shaama M.S., Shane Yost, Joonho Lee, David Small,
  Daniel Levine, Susi Lehtola, Hugh Burton, Evgeny Epifanovsky,
  Bang C. Huynh
 -----------------------------------------------------------------------
 Exchange:     0.2000 Hartree-Fock + 0.0800 Slater + 0.7200 B88
 Correlation:  0.1900 VWN1RPA + 0.8100 LYP
 Using SG-1 standard quadrature grid
 using 8 threads for integral computing
 -------------------------------------------------------
 OpenMP Integral computing Module                
 Release: version 1.0, May 2013, Q-Chem Inc. Pittsburgh 
 -------------------------------------------------------
 
 SM12 calculation using CM5 charges
 Citation of the SM12 model:
 Marenich, A.V.; Cramer, C.J.; Truhlar, D.G.
 J. Chem. Theory Comput. 2013, 9, 609-612.
 iSolventCode=          91
 Solvent: dimethylformamide                                               
 
Hirshfeld: reading atomic densities from disk.
warning:  vdwdata pointer should have been initialzed before dftman
 Inaccurate integrated density:
   Number of electrons =   121
   Numerical integral  =   120.000002905871
   Relative error      =    -0.8264438794 %

 Charges (in A.U.) from CM5PAC (Nov. 11, 2011)
 -----------------------------------------------
 Center     Atomic      CM5         Hirshfeld
 Number     Number      Charge      Charge
 -----------------------------------------------
    1          6       -0.052140   -0.000546
    2          6       -0.057964   -0.002874
    3          6       -0.058001   -0.002881
    4          6       -0.001887   -0.000222
    5          6       -0.001951   -0.000239
    6          6       -0.052098   -0.000543
    7          6        0.042554    0.008100
    8          6        0.070902    0.006171
    9          6        0.069254    0.007120
   10          6        0.042463    0.008175
   11          8       -0.065066   -0.017239
   12          8       -0.069202   -0.017493
   13          7       -0.461119   -0.016811
   14          1        0.065777    0.005330
   15          1        0.058503    0.003044
   16          1        0.058500    0.003042
   17          1        0.065848    0.005345
   18          1        0.208158    0.010215
   19          1        0.217145    0.010777
   20          7       -0.360263   -0.018563
   21          6        0.102234    0.010612
   22          6       -0.139059   -0.002346
   23          1        0.215898    0.009337
   24          1        0.058455    0.002958
   25          1        0.058195    0.003674
   26          1        0.057648    0.003552
   27          8       -0.072787   -0.017697
 -----------------------------------------------

 Dipole moment (in Debye)
 -----------------------------------------------
                 X        Y        Z     Total
 -----------------------------------------------
 CM5         -0.4054  -0.7677   0.4290   0.9684
 Hirshfeld   -0.0933  -0.0680  -0.0141   0.1163
 -----------------------------------------------

 A unrestricted SCF calculation will be
 performed using DIIS
 SCF converges when DIIS error is below 1.0e-08
 ---------------------------------------
  Cycle       Energy         DIIS error
 ---------------------------------------
Hirshfeld: reading atomic densities from disk.

 Charges (in A.U.) from CM5PAC (Nov. 11, 2011)
 -----------------------------------------------
 Center     Atomic      CM5         Hirshfeld
 Number     Number      Charge      Charge
 -----------------------------------------------
    1          6       -0.179651   -0.128057
    2          6       -0.189545   -0.134455
    3          6       -0.189461   -0.134341
    4          6       -0.085618   -0.083952
    5          6       -0.082090   -0.080378
    6          6       -0.177333   -0.125778
    7          6        0.220527    0.186072
    8          6        0.102666    0.037935
    9          6        0.073174    0.011040
   10          6        0.216627    0.182340
   11          8       -0.629581   -0.581754
   12          8       -0.624157   -0.572449
   13          7       -0.773092   -0.328784
   14          1        0.168188    0.107741
   15          1        0.177219    0.121759
   16          1        0.177292    0.121834
   17          1        0.169053    0.108550
   18          1        0.371572    0.173628
   19          1        0.353684    0.147316
   20          7       -0.435459   -0.093760
   21          6        0.478900    0.387277
   22          6       -0.418004   -0.281291
   23          1        0.381245    0.174684
   24          1        0.165486    0.109989
   25          1        0.162290    0.107769
   26          1        0.164011    0.109915
   27          8       -0.597719   -0.542629
 -----------------------------------------------

 Dipole moment (in Debye)
 -----------------------------------------------
                 X        Y        Z     Total
 -----------------------------------------------
 CM5         -8.3323 -16.6606   0.6413  18.6390
 Hirshfeld   -8.0201 -15.9609   0.1982  17.8637
 -----------------------------------------------

    1    -802.6608802089      1.59e-02  
Hirshfeld: reading atomic densities from disk.

 Charges (in A.U.) from CM5PAC (Nov. 11, 2011)
 -----------------------------------------------
 Center     Atomic      CM5         Hirshfeld
 Number     Number      Charge      Charge
 -----------------------------------------------
    1          6       -0.029444    0.022150
    2          6       -0.016765    0.038325
    3          6       -0.023888    0.031232
    4          6       -0.032054   -0.030388
    5          6       -0.033900   -0.032188
    6          6       -0.025588    0.025968
    7          6       -0.227620   -0.262074
    8          6       -0.071610   -0.136341
    9          6       -0.137726   -0.199860
   10          6       -0.209128   -0.243416
   11          8        0.097687    0.145514
   12          8        0.095241    0.146949
   13          7       -0.444920   -0.000612
   14          1       -0.021652   -0.082099
   15          1       -0.005448   -0.060908
   16          1       -0.006590   -0.062048
   17          1       -0.016188   -0.076691
   18          1        0.159686   -0.038257
   19          1        0.189077   -0.017291
   20          7       -0.513700   -0.172000
   21          6       -0.163687   -0.255310
   22          6       -0.024647    0.112065
   23          1        0.205044   -0.001517
   24          1        0.024627   -0.030869
   25          1        0.038076   -0.016445
   26          1        0.035378   -0.018718
   27          8        0.161512    0.216602
 -----------------------------------------------

 Dipole moment (in Debye)
 -----------------------------------------------
                 X        Y        Z     Total
 -----------------------------------------------
 CM5         -8.0516 -11.5040   2.4427  14.2526
 Hirshfeld   -7.7394 -10.8043   1.9995  13.4398
 -----------------------------------------------

    2    -798.4198625719      2.11e-03  
Hirshfeld: reading atomic densities from disk.

 Charges (in A.U.) from CM5PAC (Nov. 11, 2011)
 -----------------------------------------------
 Center     Atomic      CM5         Hirshfeld
 Number     Number      Charge      Charge
 -----------------------------------------------
    1          6       -0.092195   -0.040601
    2          6       -0.111900   -0.056810
    3          6       -0.112808   -0.057688
    4          6       -0.004871   -0.003206
    5          6       -0.006027   -0.004314
    6          6       -0.092367   -0.040811
    7          6        0.123470    0.089016
    8          6        0.116825    0.052094
    9          6        0.107501    0.045367
   10          6        0.129899    0.095611
   11          8       -0.532867   -0.485040
   12          8       -0.535182   -0.483474
   13          7       -0.606866   -0.162558
   14          1        0.067102    0.006655
   15          1        0.068929    0.013469
   16          1        0.068423    0.012965
   17          1        0.067764    0.007261
   18          1        0.261587    0.063644
   19          1        0.259279    0.052911
   20          7       -0.329852    0.011847
   21          6        0.265949    0.174326
   22          6       -0.153661   -0.016948
   23          1        0.283503    0.076942
   24          1        0.080583    0.025087
   25          1        0.080373    0.025852
   26          1        0.080589    0.026493
   27          8       -0.482190   -0.427100
 -----------------------------------------------

 Dipole moment (in Debye)
 -----------------------------------------------
                 X        Y        Z     Total
 -----------------------------------------------
 CM5         -8.4042 -15.4700   0.6042  17.6158
 Hirshfeld   -8.0921 -14.7703   0.1610  16.8424
 -----------------------------------------------

    3    -797.8765114173      3.47e-03  
Hirshfeld: reading atomic densities from disk.

 Charges (in A.U.) from CM5PAC (Nov. 11, 2011)
 -----------------------------------------------
 Center     Atomic      CM5         Hirshfeld
 Number     Number      Charge      Charge
 -----------------------------------------------
    1          6       -0.111197   -0.059603
    2          6       -0.116681   -0.061591
    3          6       -0.119464   -0.064344
    4          6       -0.060604   -0.058939
    5          6       -0.060171   -0.058459
    6          6       -0.107515   -0.055959
    7          6        0.080371    0.045916
    8          6        0.060512   -0.004219
    9          6        0.020450   -0.041683
   10          6        0.084251    0.049963
   11          8       -0.393039   -0.345212
   12          8       -0.393358   -0.341650
   13          7       -0.652694   -0.208386
   14          1        0.090481    0.030035
   15          1        0.093127    0.037667
   16          1        0.092514    0.037056
   17          1        0.091609    0.031106
   18          1        0.286287    0.088344
   19          1        0.280872    0.074505
   20          7       -0.449259   -0.107559
   21          6        0.267929    0.176306
   22          6       -0.228283   -0.091570
   23          1        0.304627    0.098066
   24          1        0.099840    0.044343
   25          1        0.102862    0.048342
   26          1        0.102705    0.048608
   27          8       -0.365325   -0.310236
 -----------------------------------------------

 Dipole moment (in Debye)
 -----------------------------------------------
                 X        Y        Z     Total
 -----------------------------------------------
 CM5         -8.3965 -14.9009   1.1690  17.1436
 Hirshfeld   -8.0843 -14.2012   0.7258  16.3571
 -----------------------------------------------

    4    -798.7579992770      7.66e-04  
Hirshfeld: reading atomic densities from disk.

 Charges (in A.U.) from CM5PAC (Nov. 11, 2011)
 -----------------------------------------------
 Center     Atomic      CM5         Hirshfeld
 Number     Number      Charge      Charge
 -----------------------------------------------
    1          6       -0.109519   -0.057925
    2          6       -0.118297   -0.063208
    3          6       -0.121012   -0.065892
    4          6       -0.040639   -0.038973
    5          6       -0.040546   -0.038833
    6          6       -0.107996   -0.056440
    7          6        0.068379    0.033925
    8          6        0.065254    0.000523
    9          6        0.029645   -0.032489
   10          6        0.076715    0.042428
   11          8       -0.409611   -0.361784
   12          8       -0.414744   -0.363036
   13          7       -0.623407   -0.179099
   14          1        0.086817    0.026370
   15          1        0.090048    0.034588
   16          1        0.089433    0.033975
   17          1        0.088108    0.027605
   18          1        0.279878    0.081934
   19          1        0.277522    0.071154
   20          7       -0.413442   -0.071743
   21          6        0.235437    0.143815
   22          6       -0.223837   -0.087124
   23          1        0.301770    0.095209
   24          1        0.099574    0.044077
   25          1        0.101781    0.047260
   26          1        0.102085    0.047989
   27          8       -0.368536   -0.313447
 -----------------------------------------------

 Dipole moment (in Debye)
 -----------------------------------------------
                 X        Y        Z     Total
 -----------------------------------------------
 CM5         -8.2950 -14.7862   1.0467  16.9863
 Hirshfeld   -7.9829 -14.0865   0.6035  16.2024
 -----------------------------------------------

    5    -798.8026834348      1.59e-04  
Hirshfeld: reading atomic densities from disk.

 Charges (in A.U.) from CM5PAC (Nov. 11, 2011)
 -----------------------------------------------
 Center     Atomic      CM5         Hirshfeld
 Number     Number      Charge      Charge
 -----------------------------------------------
    1          6       -0.108907   -0.057313
    2          6       -0.116211   -0.061122
    3          6       -0.118815   -0.063695
    4          6       -0.046049   -0.044384
    5          6       -0.046237   -0.044525
    6          6       -0.106231   -0.054675
    7          6        0.076154    0.041700
    8          6        0.067169    0.002439
    9          6        0.031665   -0.030469
   10          6        0.082357    0.048069
   11          8       -0.407859   -0.360032
   12          8       -0.409469   -0.357761
   13          7       -0.637058   -0.192750
   14          1        0.085705    0.025258
   15          1        0.088720    0.033261
   16          1        0.088041    0.032583
   17          1        0.086885    0.026382
   18          1        0.280856    0.082913
   19          1        0.277729    0.071362
   20          7       -0.424010   -0.082310
   21          6        0.251119    0.159496
   22          6       -0.215845   -0.079132
   23          1        0.301239    0.094678
   24          1        0.097107    0.041611
   25          1        0.099510    0.044990
   26          1        0.099592    0.045496
   27          8       -0.376287   -0.321198
 -----------------------------------------------

 Dipole moment (in Debye)
 -----------------------------------------------
                 X        Y        Z     Total
 -----------------------------------------------
 CM5         -8.3555 -14.9138   1.0661  17.1281
 Hirshfeld   -8.0433 -14.2141   0.6229  16.3439
 -----------------------------------------------

    6    -798.8056943877      6.86e-05  
Hirshfeld: reading atomic densities from disk.

 Charges (in A.U.) from CM5PAC (Nov. 11, 2011)
 -----------------------------------------------
 Center     Atomic      CM5         Hirshfeld
 Number     Number      Charge      Charge
 -----------------------------------------------
    1          6       -0.108801   -0.057207
    2          6       -0.116829   -0.061739
    3          6       -0.119590   -0.064470
    4          6       -0.046195   -0.044530
    5          6       -0.046169   -0.044457
    6          6       -0.106289   -0.054733
    7          6        0.076157    0.041703
    8          6        0.067430    0.002699
    9          6        0.030882   -0.031251
   10          6        0.083051    0.048763
   11          8       -0.407818   -0.359991
   12          8       -0.412818   -0.361110
   13          7       -0.634115   -0.189807
   14          1        0.086037    0.025591
   15          1        0.089043    0.033584
   16          1        0.088366    0.032908
   17          1        0.087289    0.026786
   18          1        0.280561    0.082618
   19          1        0.277288    0.070920
   20          7       -0.423620   -0.081921
   21          6        0.249419    0.157796
   22          6       -0.218722   -0.082009
   23          1        0.301237    0.094676
   24          1        0.097572    0.042076
   25          1        0.099981    0.045461
   26          1        0.100089    0.045993
   27          8       -0.372568   -0.317478
 -----------------------------------------------

 Dipole moment (in Debye)
 -----------------------------------------------
                 X        Y        Z     Total
 -----------------------------------------------
 CM5         -8.3158 -14.8374   1.0711  17.0425
 Hirshfeld   -8.0036 -14.1377   0.6279  16.2581
 -----------------------------------------------

    7    -798.8059551261      1.85e-05  
Hirshfeld: reading atomic densities from disk.

 Charges (in A.U.) from CM5PAC (Nov. 11, 2011)
 -----------------------------------------------
 Center     Atomic      CM5         Hirshfeld
 Number     Number      Charge      Charge
 -----------------------------------------------
    1          6       -0.109049   -0.057455
    2          6       -0.116775   -0.061685
    3          6       -0.119516   -0.064396
    4          6       -0.045658   -0.043993
    5          6       -0.045726   -0.044014
    6          6       -0.106517   -0.054961
    7          6        0.074852    0.040397
    8          6        0.066747    0.002016
    9          6        0.030911   -0.031223
   10          6        0.081907    0.047619
   11          8       -0.407486   -0.359659
   12          8       -0.410259   -0.358550
   13          7       -0.634568   -0.190260
   14          1        0.086052    0.025605
   15          1        0.089043    0.033584
   16          1        0.088352    0.032894
   17          1        0.087257    0.026754
   18          1        0.280780    0.082837
   19          1        0.277544    0.071176
   20          7       -0.422153   -0.080453
   21          6        0.249625    0.158002
   22          6       -0.218466   -0.081754
   23          1        0.301250    0.094690
   24          1        0.097684    0.042188
   25          1        0.100032    0.045511
   26          1        0.100159    0.046062
   27          8       -0.375154   -0.320065
 -----------------------------------------------

 Dipole moment (in Debye)
 -----------------------------------------------
                 X        Y        Z     Total
 -----------------------------------------------
 CM5         -8.3403 -14.8829   1.0622  17.0935
 Hirshfeld   -8.0281 -14.1832   0.6190  16.3094
 -----------------------------------------------

    8    -798.8060608630      9.45e-06  
Hirshfeld: reading atomic densities from disk.

 Charges (in A.U.) from CM5PAC (Nov. 11, 2011)
 -----------------------------------------------
 Center     Atomic      CM5         Hirshfeld
 Number     Number      Charge      Charge
 -----------------------------------------------
    1          6       -0.109163   -0.057569
    2          6       -0.116773   -0.061683
    3          6       -0.119489   -0.064369
    4          6       -0.045419   -0.043754
    5          6       -0.045584   -0.043872
    6          6       -0.106585   -0.055030
    7          6        0.075114    0.040660
    8          6        0.067480    0.002750
    9          6        0.031107   -0.031027
   10          6        0.082081    0.047793
   11          8       -0.407058   -0.359231
   12          8       -0.411578   -0.359870
   13          7       -0.634912   -0.190604
   14          1        0.085994    0.025547
   15          1        0.088985    0.033525
   16          1        0.088288    0.032830
   17          1        0.087236    0.026733
   18          1        0.280822    0.082879
   19          1        0.277580    0.071212
   20          7       -0.423159   -0.081460
   21          6        0.249293    0.157670
   22          6       -0.218087   -0.081374
   23          1        0.301376    0.094815
   24          1        0.097586    0.042090
   25          1        0.099969    0.045448
   26          1        0.100093    0.045997
   27          8       -0.374326   -0.319237
 -----------------------------------------------

 Dipole moment (in Debye)
 -----------------------------------------------
                 X        Y        Z     Total
 -----------------------------------------------
 CM5         -8.3315 -14.8546   1.0653  17.0648
 Hirshfeld   -8.0193 -14.1549   0.6222  16.2806
 -----------------------------------------------

    9    -798.8060367034      5.82e-06  
Hirshfeld: reading atomic densities from disk.

 Charges (in A.U.) from CM5PAC (Nov. 11, 2011)
 -----------------------------------------------
 Center     Atomic      CM5         Hirshfeld
 Number     Number      Charge      Charge
 -----------------------------------------------
    1          6       -0.109109   -0.057515
    2          6       -0.116843   -0.061753
    3          6       -0.119610   -0.064490
    4          6       -0.045799   -0.044134
    5          6       -0.045830   -0.044117
    6          6       -0.106507   -0.054952
    7          6        0.075194    0.040739
    8          6        0.067276    0.002545
    9          6        0.031014   -0.031119
   10          6        0.082313    0.048026
   11          8       -0.407212   -0.359385
   12          8       -0.411197   -0.359489
   13          7       -0.634557   -0.190249
   14          1        0.086015    0.025568
   15          1        0.089005    0.033546
   16          1        0.088306    0.032848
   17          1        0.087246    0.026743
   18          1        0.280755    0.082811
   19          1        0.277510    0.071142
   20          7       -0.422747   -0.081048
   21          6        0.249575    0.157952
   22          6       -0.218318   -0.081606
   23          1        0.301277    0.094717
   24          1        0.097590    0.042094
   25          1        0.099961    0.045440
   26          1        0.100082    0.045986
   27          8       -0.374521   -0.319432
 -----------------------------------------------

 Dipole moment (in Debye)
 -----------------------------------------------
                 X        Y        Z     Total
 -----------------------------------------------
 CM5         -8.3272 -14.8622   1.0637  17.0692
 Hirshfeld   -8.0150 -14.1625   0.6205  16.2850
 -----------------------------------------------

   10    -798.8060711272      2.54e-06  
Hirshfeld: reading atomic densities from disk.

 Charges (in A.U.) from CM5PAC (Nov. 11, 2011)
 -----------------------------------------------
 Center     Atomic      CM5         Hirshfeld
 Number     Number      Charge      Charge
 -----------------------------------------------
    1          6       -0.109106   -0.057512
    2          6       -0.116853   -0.061763
    3          6       -0.119603   -0.064484
    4          6       -0.045637   -0.043972
    5          6       -0.045734   -0.044022
    6          6       -0.106539   -0.054984
    7          6        0.075129    0.040675
    8          6        0.067274    0.002544
    9          6        0.030998   -0.031136
   10          6        0.082263    0.047975
   11          8       -0.406983   -0.359157
   12          8       -0.411334   -0.359626
   13          7       -0.634651   -0.190343
   14          1        0.085989    0.025542
   15          1        0.088985    0.033525
   16          1        0.088288    0.032830
   17          1        0.087230    0.026727
   18          1        0.280766    0.082823
   19          1        0.277514    0.071146
   20          7       -0.422761   -0.081062
   21          6        0.249591    0.157968
   22          6       -0.218344   -0.081631
   23          1        0.301286    0.094725
   24          1        0.097601    0.042104
   25          1        0.099969    0.045449
   26          1        0.100090    0.045994
   27          8       -0.374558   -0.319468
 -----------------------------------------------

 Dipole moment (in Debye)
 -----------------------------------------------
                 X        Y        Z     Total
 -----------------------------------------------
 CM5         -8.3285 -14.8578   1.0638  17.0661
 Hirshfeld   -8.0164 -14.1581   0.6207  16.2819
 -----------------------------------------------

   11    -798.8060719803      7.46e-07  
Hirshfeld: reading atomic densities from disk.

 Charges (in A.U.) from CM5PAC (Nov. 11, 2011)
 -----------------------------------------------
 Center     Atomic      CM5         Hirshfeld
 Number     Number      Charge      Charge
 -----------------------------------------------
    1          6       -0.109122   -0.057528
    2          6       -0.116831   -0.061741
    3          6       -0.119582   -0.064463
    4          6       -0.045681   -0.044016
    5          6       -0.045749   -0.044036
    6          6       -0.106525   -0.054969
    7          6        0.075143    0.040688
    8          6        0.067321    0.002590
    9          6        0.031018   -0.031116
   10          6        0.082244    0.047957
   11          8       -0.407091   -0.359264
   12          8       -0.411256   -0.359548
   13          7       -0.634642   -0.190334
   14          1        0.085994    0.025547
   15          1        0.088985    0.033525
   16          1        0.088287    0.032829
   17          1        0.087230    0.026727
   18          1        0.280770    0.082827
   19          1        0.277515    0.071147
   20          7       -0.422818   -0.081118
   21          6        0.249540    0.157917
   22          6       -0.218308   -0.081596
   23          1        0.301289    0.094728
   24          1        0.097595    0.042098
   25          1        0.099964    0.045444
   26          1        0.100085    0.045989
   27          8       -0.374505   -0.319415
 -----------------------------------------------

 Dipole moment (in Debye)
 -----------------------------------------------
                 X        Y        Z     Total
 -----------------------------------------------
 CM5         -8.3284 -14.8597   1.0640  17.0676
 Hirshfeld   -8.0162 -14.1600   0.6208  16.2834
 -----------------------------------------------

   12    -798.8060767866      4.36e-07  
Hirshfeld: reading atomic densities from disk.

 Charges (in A.U.) from CM5PAC (Nov. 11, 2011)
 -----------------------------------------------
 Center     Atomic      CM5         Hirshfeld
 Number     Number      Charge      Charge
 -----------------------------------------------
    1          6       -0.109115   -0.057521
    2          6       -0.116839   -0.061749
    3          6       -0.119592   -0.064473
    4          6       -0.045704   -0.044039
    5          6       -0.045765   -0.044052
    6          6       -0.106523   -0.054968
    7          6        0.075134    0.040680
    8          6        0.067307    0.002576
    9          6        0.031015   -0.031119
   10          6        0.082257    0.047969
   11          8       -0.407033   -0.359207
   12          8       -0.411282   -0.359574
   13          7       -0.634629   -0.190321
   14          1        0.085996    0.025549
   15          1        0.088988    0.033528
   16          1        0.088291    0.032832
   17          1        0.087233    0.026730
   18          1        0.280767    0.082824
   19          1        0.277515    0.071147
   20          7       -0.422796   -0.081096
   21          6        0.249549    0.157927
   22          6       -0.218298   -0.081585
   23          1        0.301288    0.094727
   24          1        0.097592    0.042095
   25          1        0.099961    0.045441
   26          1        0.100082    0.045986
   27          8       -0.374528   -0.319439
 -----------------------------------------------

 Dipole moment (in Debye)
 -----------------------------------------------
                 X        Y        Z     Total
 -----------------------------------------------
 CM5         -8.3282 -14.8589   1.0638  17.0668
 Hirshfeld   -8.0160 -14.1592   0.6207  16.2826
 -----------------------------------------------

   13    -798.8060751677      1.82e-07  
Hirshfeld: reading atomic densities from disk.

 Charges (in A.U.) from CM5PAC (Nov. 11, 2011)
 -----------------------------------------------
 Center     Atomic      CM5         Hirshfeld
 Number     Number      Charge      Charge
 -----------------------------------------------
    1          6       -0.109116   -0.057522
    2          6       -0.116843   -0.061753
    3          6       -0.119594   -0.064474
    4          6       -0.045683   -0.044018
    5          6       -0.045750   -0.044038
    6          6       -0.106528   -0.054972
    7          6        0.075143    0.040689
    8          6        0.067303    0.002573
    9          6        0.031007   -0.031127
   10          6        0.082257    0.047970
   11          8       -0.407049   -0.359222
   12          8       -0.411276   -0.359568
   13          7       -0.634637   -0.190330
   14          1        0.085993    0.025546
   15          1        0.088986    0.033526
   16          1        0.088289    0.032831
   17          1        0.087231    0.026728
   18          1        0.280769    0.082826
   19          1        0.277516    0.071148
   20          7       -0.422799   -0.081099
   21          6        0.249554    0.157931
   22          6       -0.218311   -0.081598
   23          1        0.301286    0.094726
   24          1        0.097593    0.042097
   25          1        0.099963    0.045443
   26          1        0.100084    0.045988
   27          8       -0.374522   -0.319433
 -----------------------------------------------

 Dipole moment (in Debye)
 -----------------------------------------------
                 X        Y        Z     Total
 -----------------------------------------------
 CM5         -8.3282 -14.8590   1.0639  17.0669
 Hirshfeld   -8.0160 -14.1593   0.6207  16.2827
 -----------------------------------------------

   14    -798.8060751078      9.02e-08  
Hirshfeld: reading atomic densities from disk.

 Charges (in A.U.) from CM5PAC (Nov. 11, 2011)
 -----------------------------------------------
 Center     Atomic      CM5         Hirshfeld
 Number     Number      Charge      Charge
 -----------------------------------------------
    1          6       -0.109120   -0.057525
    2          6       -0.116837   -0.061748
    3          6       -0.119588   -0.064468
    4          6       -0.045693   -0.044028
    5          6       -0.045754   -0.044042
    6          6       -0.106525   -0.054970
    7          6        0.075138    0.040683
    8          6        0.067311    0.002581
    9          6        0.031010   -0.031124
   10          6        0.082255    0.047967
   11          8       -0.407045   -0.359219
   12          8       -0.411279   -0.359571
   13          7       -0.634633   -0.190325
   14          1        0.085994    0.025547
   15          1        0.088985    0.033526
   16          1        0.088289    0.032830
   17          1        0.087232    0.026729
   18          1        0.280769    0.082826
   19          1        0.277516    0.071148
   20          7       -0.422799   -0.081099
   21          6        0.249553    0.157931
   22          6       -0.218312   -0.081599
   23          1        0.301287    0.094726
   24          1        0.097594    0.042097
   25          1        0.099964    0.045443
   26          1        0.100084    0.045988
   27          8       -0.374526   -0.319437
 -----------------------------------------------

 Dipole moment (in Debye)
 -----------------------------------------------
                 X        Y        Z     Total
 -----------------------------------------------
 CM5         -8.3283 -14.8589   1.0639  17.0669
 Hirshfeld   -8.0161 -14.1592   0.6207  16.2827
 -----------------------------------------------

   15    -798.8060758044      3.81e-08  
Hirshfeld: reading atomic densities from disk.

 Charges (in A.U.) from CM5PAC (Nov. 11, 2011)
 -----------------------------------------------
 Center     Atomic      CM5         Hirshfeld
 Number     Number      Charge      Charge
 -----------------------------------------------
    1          6       -0.109117   -0.057523
    2          6       -0.116842   -0.061752
    3          6       -0.119592   -0.064473
    4          6       -0.045691   -0.044025
    5          6       -0.045752   -0.044040
    6          6       -0.106526   -0.054970
    7          6        0.075139    0.040685
    8          6        0.067308    0.002577
    9          6        0.031009   -0.031125
   10          6        0.082257    0.047970
   11          8       -0.407046   -0.359219
   12          8       -0.411279   -0.359570
   13          7       -0.634634   -0.190326
   14          1        0.085994    0.025547
   15          1        0.088986    0.033526
   16          1        0.088289    0.032831
   17          1        0.087232    0.026729
   18          1        0.280770    0.082826
   19          1        0.277517    0.071149
   20          7       -0.422799   -0.081099
   21          6        0.249551    0.157928
   22          6       -0.218308   -0.081596
   23          1        0.301287    0.094726
   24          1        0.097593    0.042097
   25          1        0.099963    0.045442
   26          1        0.100083    0.045987
   27          8       -0.374526   -0.319436
 -----------------------------------------------

 Dipole moment (in Debye)
 -----------------------------------------------
                 X        Y        Z     Total
 -----------------------------------------------
 CM5         -8.3282 -14.8590   1.0639  17.0669
 Hirshfeld   -8.0161 -14.1593   0.6207  16.2827
 -----------------------------------------------

   16    -798.8060756416      2.30e-08  
Hirshfeld: reading atomic densities from disk.

 Charges (in A.U.) from CM5PAC (Nov. 11, 2011)
 -----------------------------------------------
 Center     Atomic      CM5         Hirshfeld
 Number     Number      Charge      Charge
 -----------------------------------------------
    1          6       -0.109118   -0.057524
    2          6       -0.116840   -0.061750
    3          6       -0.119590   -0.064470
    4          6       -0.045691   -0.044026
    5          6       -0.045752   -0.044040
    6          6       -0.106526   -0.054970
    7          6        0.075139    0.040685
    8          6        0.067309    0.002578
    9          6        0.031007   -0.031127
   10          6        0.082256    0.047969
   11          8       -0.407046   -0.359220
   12          8       -0.411278   -0.359570
   13          7       -0.634633   -0.190325
   14          1        0.085994    0.025547
   15          1        0.088986    0.033526
   16          1        0.088289    0.032831
   17          1        0.087232    0.026729
   18          1        0.280770    0.082827
   19          1        0.277517    0.071149
   20          7       -0.422799   -0.081099
   21          6        0.249552    0.157929
   22          6       -0.218309   -0.081596
   23          1        0.301287    0.094726
   24          1        0.097593    0.042097
   25          1        0.099963    0.045442
   26          1        0.100083    0.045987
   27          8       -0.374526   -0.319436
 -----------------------------------------------

 Dipole moment (in Debye)
 -----------------------------------------------
                 X        Y        Z     Total
 -----------------------------------------------
 CM5         -8.3283 -14.8589   1.0639  17.0669
 Hirshfeld   -8.0161 -14.1592   0.6207  16.2827
 -----------------------------------------------

   17    -798.8060757351      1.00e-08  
   18    -798.8060756979      5.31e-09  Convergence criterion met
 ---------------------------------------
 SCF time:   CPU 5319.03s  wall 678.00s 
<S^2> =          0.759671849
(1)  E-EN(liq) elect-nuc energy of solute               -798.806075698 a.u.
(2)  G-P(liq) polarization free energy of solvation           -46.3535 kcal/mol
(3)  G-ENP(liq) elect-nuc-pol free energy of system     -798.879944701 a.u.
(4)  G-CDS(liq) cavity-dispersion-solvent structure 
     free energy                                               -8.1295 kcal/mol
(5)  G-P-CDS(liq) = G-P(liq) + G-CDS(liq) = (2) + (4)         -54.4830 kcal/mol
(6)  G-S(liq) free energy of system = (1) + (5)         -798.892899863 a.u.
 SCF   energy in the final basis set =     -798.8928998633
 Total energy in the final basis set =     -798.8928998633
 
 --------------------------------------------------------------
 
                    Orbital Energies (a.u.)
 --------------------------------------------------------------
 
 Alpha MOs
 -- Occupied --
-19.0972 -19.0818 -19.0808 -14.3512 -14.3116 -10.2827 -10.2292 -10.2248
-10.2151 -10.2049 -10.1816 -10.1807 -10.1805 -10.1801 -10.1789 -10.1783
-10.1733  -1.0457  -1.0094  -1.0061  -0.9383  -0.9089  -0.8645  -0.7992
 -0.7585  -0.7559  -0.7229  -0.6803  -0.6389  -0.6246  -0.5883  -0.5719
 -0.5424  -0.5203  -0.5107  -0.4891  -0.4794  -0.4586  -0.4577  -0.4462
 -0.4352  -0.4317  -0.4231  -0.4161  -0.4116  -0.4004  -0.3904  -0.3860
 -0.3795  -0.3652  -0.3581  -0.3459  -0.3284  -0.3019  -0.2719  -0.2694
 -0.2644  -0.2563  -0.2469  -0.2116  -0.1512
 -- Virtual --
 -0.0421  -0.0277  -0.0224  -0.0202  -0.0163  -0.0053  -0.0026   0.0112
  0.0152   0.0194   0.0254   0.0268   0.0340   0.0377   0.0439   0.0466
  0.0491   0.0527   0.0572   0.0661   0.0689   0.0733   0.0772   0.0793
  0.0803   0.0877   0.0907   0.0926   0.0984   0.1027   0.1059   0.1085
  0.1105   0.1163   0.1207   0.1243   0.1260   0.1284   0.1325   0.1361
  0.1429   0.1474   0.1543   0.1556   0.1581   0.1634   0.1664   0.1713
  0.1763   0.1784   0.1858   0.1886   0.1915   0.2059   0.2085   0.2113
  0.2141   0.2197   0.2244   0.2261   0.2294   0.2354   0.2382   0.2404
  0.2452   0.2460   0.2536   0.2557   0.2608   0.2625   0.2667   0.2698
  0.2741   0.2822   0.2853   0.2907   0.2914   0.3012   0.3092   0.3121
  0.3155   0.3187   0.3199   0.3234   0.3276   0.3349   0.3360   0.3365
  0.3443   0.3535   0.3557   0.3588   0.3767   0.3879   0.3902   0.4070
  0.4126   0.4234   0.4282   0.4320   0.4429   0.4622   0.4774   0.4868
  0.5076   0.5123   0.5215   0.5301   0.5403   0.5429   0.5511   0.5582
  0.5689   0.5876   0.5884   0.5939   0.5993   0.6103   0.6262   0.6278
  0.6322   0.6377   0.6437   0.6512   0.6521   0.6609   0.6688   0.6719
  0.6737   0.6834   0.6897   0.7027   0.7079   0.7196   0.7379   0.7426
  0.7529   0.7596   0.7650   0.7777   0.7857   0.8056   0.8082   0.8162
  0.8382   0.8416   0.8486   0.8505   0.8676   0.8736   0.8856   0.9020
  0.9076   0.9142   0.9235   0.9304   0.9387   0.9459   0.9537   0.9663
  0.9724   0.9786   0.9932   1.0014   1.0280   1.0353   1.0453   1.0606
  1.0725   1.0805   1.0866   1.0911   1.0982   1.1073   1.1271   1.1359
  1.1564   1.1651   1.1723   1.2068   1.2294   1.2388   1.2485   1.2555
  1.2592   1.2661   1.2717   1.2921   1.3009   1.3098   1.3197   1.3659
  1.3835   1.3963   1.4161   1.4505   1.4610   1.4840   1.4957   1.5020
  1.5141   1.5182   1.5252   1.5388   1.5541   1.5616   1.5684   1.5780
  1.5937   1.6070   1.6234   1.6293   1.6489   1.6547   1.6672   1.6818
  1.6949   1.7087   1.7169   1.7223   1.7423   1.7520   1.7618   1.7692
  1.7828   1.8077   1.8167   1.8232   1.8451   1.8535   1.8659   1.8703
  1.8856   1.8984   1.9079   1.9180   1.9291   1.9426   1.9597   1.9639
  1.9777   1.9841   2.0071   2.0226   2.0387   2.0480   2.0685   2.0758
  2.1247   2.1384   2.1547   2.1784   2.1915   2.2244   2.2400   2.2583
  2.2691   2.2944   2.3094   2.3451   2.3536   2.3702   2.4178   2.4356
  2.4537   2.4781   2.4855   2.4998   2.5196   2.5359   2.5505   2.5651
  2.5728   2.6298   2.6356   2.6485   2.6524   2.6763   2.6850   2.6943
  2.7191   2.7301   2.7438   2.7615   2.7665   2.7725   2.7801   2.7948
  2.8051   2.8215   2.8361   2.8485   2.8610   2.8681   2.8851   2.8909
  2.8969   2.9115   2.9247   2.9490   2.9525   2.9679   2.9715   2.9836
  3.0105   3.0400   3.0609   3.0957   3.1054   3.1198   3.1302   3.1867
  3.2026   3.2252   3.2399   3.2695   3.3206   3.3279   3.3331   3.3452
  3.3526   3.3616   3.3843   3.4309   3.4425   3.5144   3.5216   3.5479
  3.5711   3.5870   3.6231   3.6544   3.7475   3.8023   3.8207   3.8228
  3.8863   3.9004   3.9681   4.0335   4.0379   4.0582   4.1294   4.2002
  4.2034   4.2918   4.3556   4.7884   4.8069   4.8404   4.8450   4.9555
  5.0794   5.0928   5.0957   5.1140   5.2901   5.3049   5.3259   5.7550
  5.8047   5.8333  23.5603  23.7801  23.8462  23.9207  23.9376  23.9538
 23.9617  23.9829  24.0254  24.0804  24.1069  24.1814  35.6176  35.6860
 50.0059  50.0448  50.0883
 
 Beta MOs
 -- Occupied --
-19.0971 -19.0758 -19.0749 -14.3512 -14.3108 -10.2827 -10.2277 -10.2227
-10.2138 -10.2049 -10.1813 -10.1800 -10.1799 -10.1793 -10.1788 -10.1780
-10.1733  -1.0454  -1.0010  -0.9950  -0.9369  -0.9063  -0.8623  -0.7953
 -0.7562  -0.7549  -0.7215  -0.6727  -0.6369  -0.6227  -0.5863  -0.5698
 -0.5405  -0.5194  -0.5090  -0.4883  -0.4763  -0.4578  -0.4566  -0.4443
 -0.4324  -0.4291  -0.4156  -0.4147  -0.4055  -0.3990  -0.3870  -0.3799
 -0.3671  -0.3597  -0.3528  -0.3443  -0.3135  -0.2974  -0.2710  -0.2567
 -0.2517  -0.2510  -0.2412  -0.2036
 -- Virtual --
 -0.0877  -0.0353  -0.0277  -0.0206  -0.0163  -0.0129  -0.0053  -0.0026
  0.0129   0.0172   0.0200   0.0256   0.0273   0.0344   0.0380   0.0447
  0.0471   0.0528   0.0574   0.0659   0.0673   0.0693   0.0735   0.0774
  0.0794   0.0828   0.0889   0.0913   0.0941   0.0988   0.1032   0.1062
  0.1087   0.1110   0.1169   0.1209   0.1248   0.1273   0.1293   0.1334
  0.1365   0.1432   0.1478   0.1554   0.1563   0.1588   0.1636   0.1667
  0.1716   0.1765   0.1793   0.1865   0.1887   0.1917   0.2062   0.2090
  0.2136   0.2187   0.2210   0.2257   0.2274   0.2297   0.2361   0.2392
  0.2412   0.2459   0.2471   0.2540   0.2574   0.2618   0.2630   0.2677
  0.2709   0.2751   0.2830   0.2866   0.2918   0.2924   0.3024   0.3101
  0.3139   0.3171   0.3194   0.3206   0.3244   0.3283   0.3360   0.3374
  0.3388   0.3451   0.3545   0.3560   0.3599   0.3777   0.3889   0.3916
  0.4084   0.4137   0.4248   0.4296   0.4352   0.4438   0.4629   0.4778
  0.4878   0.5085   0.5145   0.5229   0.5316   0.5420   0.5441   0.5519
  0.5620   0.5701   0.5888   0.5902   0.5951   0.6000   0.6111   0.6278
  0.6288   0.6371   0.6394   0.6455   0.6525   0.6551   0.6619   0.6695
  0.6735   0.6747   0.6849   0.6905   0.7035   0.7116   0.7206   0.7383
  0.7430   0.7535   0.7605   0.7659   0.7786   0.7867   0.8068   0.8097
  0.8177   0.8390   0.8430   0.8495   0.8516   0.8690   0.8749   0.8868
  0.9027   0.9096   0.9153   0.9252   0.9323   0.9404   0.9473   0.9555
  0.9687   0.9736   0.9804   0.9955   1.0039   1.0297   1.0360   1.0461
  1.0621   1.0752   1.0833   1.0894   1.0937   1.0993   1.1112   1.1300
  1.1418   1.1611   1.1686   1.1798   1.2078   1.2327   1.2440   1.2530
  1.2589   1.2610   1.2703   1.2756   1.2936   1.3022   1.3119   1.3220
  1.3687   1.3856   1.3979   1.4166   1.4516   1.4616   1.4867   1.4975
  1.5044   1.5149   1.5195   1.5267   1.5418   1.5546   1.5634   1.5701
  1.5784   1.5941   1.6077   1.6259   1.6298   1.6503   1.6573   1.6681
  1.6830   1.6962   1.7112   1.7201   1.7236   1.7440   1.7538   1.7638
  1.7704   1.7854   1.8121   1.8185   1.8263   1.8464   1.8548   1.8681
  1.8716   1.8870   1.9000   1.9109   1.9201   1.9317   1.9449   1.9616
  1.9668   1.9788   1.9858   2.0085   2.0247   2.0398   2.0491   2.0699
  2.0771   2.1262   2.1406   2.1566   2.1796   2.1935   2.2261   2.2415
  2.2607   2.2700   2.2978   2.3128   2.3461   2.3562   2.3737   2.4201
  2.4362   2.4546   2.4783   2.4856   2.5005   2.5201   2.5362   2.5507
  2.5666   2.5751   2.6314   2.6395   2.6496   2.6546   2.6772   2.6875
  2.6984   2.7195   2.7315   2.7446   2.7622   2.7713   2.7748   2.7807
  2.7983   2.8087   2.8238   2.8392   2.8501   2.8671   2.8736   2.8914
  2.8951   2.8992   2.9158   2.9294   2.9515   2.9596   2.9717   2.9828
  2.9903   3.0131   3.0448   3.0654   3.0987   3.1100   3.1221   3.1323
  3.1907   3.2046   3.2261   3.2419   3.2712   3.3275   3.3337   3.3372
  3.3516   3.3594   3.3654   3.3864   3.4319   3.4429   3.5165   3.5242
  3.5492   3.5731   3.5881   3.6243   3.6566   3.7494   3.8024   3.8219
  3.8249   3.8869   3.9033   3.9687   4.0354   4.0390   4.0605   4.1327
  4.2013   4.2038   4.2951   4.3584   4.7914   4.8083   4.8418   4.8470
  4.9567   5.0922   5.0993   5.1125   5.1273   5.2946   5.3061   5.3301
  5.7596   5.8056   5.8380  23.5611  23.7809  23.8463  23.9228  23.9385
 23.9551  23.9628  23.9830  24.0262  24.0812  24.1072  24.1818  35.6176
 35.6868  50.0061  50.0506  50.0942
 --------------------------------------------------------------
 
          Ground-State Mulliken Net Atomic Charges

     Atom                 Charge (a.u.)    Spin (a.u.)
  --------------------------------------------------------
      1 C                     0.022812       0.057071
      2 C                     1.037127       0.020525
      3 C                     0.838959       0.063046
      4 C                    -0.716316       0.020566
      5 C                    -0.550337       0.066212
      6 C                     0.218124       0.024582
      7 C                    -1.669250       0.132758
      8 C                    -0.264268       0.054995
      9 C                     0.330957       0.003933
     10 C                    -1.552034       0.083568
     11 O                    -0.345139       0.255891
     12 O                    -0.289884       0.186644
     13 N                    -0.378586       0.045767
     14 H                     0.155434      -0.003414
     15 H                     0.349917      -0.001697
     16 H                     0.351505      -0.004514
     17 H                     0.175086      -0.000471
     18 H                     0.291355      -0.003030
     19 H                     0.277132       0.000067
     20 N                     0.023755      -0.003413
     21 C                    -0.275712      -0.001539
     22 C                     0.359974       0.002033
     23 H                     0.337444      -0.002365
     24 H                     0.257148       0.000366
     25 H                     0.234122       0.000150
     26 H                     0.241325       0.000248
     27 O                    -0.460649       0.002020
  --------------------------------------------------------
  Sum of atomic charges =    -1.000000
  Sum of spin   charges =     1.000000

 -----------------------------------------------------------------
                    Cartesian Multipole Moments
 -----------------------------------------------------------------
    Charge (ESU x 10^10)
                -4.8032
    Dipole Moment (Debye)
         X      -8.5057      Y     -14.7413      Z       0.8896
       Tot      17.0425
    Quadrupole Moments (Debye-Ang)
        XX    -130.5698     XY     -33.2023     YY    -168.1477
        XZ      -1.9985     YZ       4.6509     ZZ    -107.5322
    Octopole Moments (Debye-Ang^2)
       XXX    -708.9984    XXY    -368.0878    XYY    -305.6129
       YYY   -1016.2500    XXZ       3.7205    XYZ       5.9934
       YYZ      50.4136    XZZ    -188.4686    YZZ    -252.4028
       ZZZ      75.8613
    Hexadecapole Moments (Debye-Ang^3)
      XXXX   -7033.7623   XXXY   -1674.2345   XXYY   -2170.9841
      XYYY   -1416.5697   YYYY   -6478.5309   XXXZ      73.8722
      XXYZ      51.2119   XYYZ     132.0454   YYYZ     288.7907
      XXZZ   -1106.2300   XYZZ    -343.7686   YYZZ    -915.9690
      XZZZ     274.6039   YZZZ     167.9589   ZZZZ    -220.9712
 -----------------------------------------------------------------
 Total job time:  690.08s(wall), 5326.10s(cpu) 
 Sat Feb  3 13:26:51 2024

        *************************************************************
        *                                                           *
        *  Thank you very much for using Q-Chem.  Have a nice day.  *
        *                                                           *
        *************************************************************


