 Entering Gaussian System, Link 0=g16
 Input=266-rad-PCM.com
 Output=266-rad-PCM.log
 Initial command:
 /sysapps/ubuntu-applications/gaussian/Gaussian/AVX2/g16/l1.exe "/scratch/selhajj1/4304506/Gau-675946.inp" -scrdir="/scratch/selhajj1/4304506/"
 Entering Link 1 = /sysapps/ubuntu-applications/gaussian/Gaussian/AVX2/g16/l1.exe PID=    675952.
  
 Copyright (c) 1988,1990,1992,1993,1995,1998,2003,2009,2016,
            Gaussian, Inc.  All Rights Reserved.
  
 This is part of the Gaussian(R) 16 program.  It is based on
 the Gaussian(R) 09 system (copyright 2009, Gaussian, Inc.),
 the Gaussian(R) 03 system (copyright 2003, Gaussian, Inc.),
 the Gaussian(R) 98 system (copyright 1998, Gaussian, Inc.),
 the Gaussian(R) 94 system (copyright 1995, Gaussian, Inc.),
 the Gaussian 92(TM) system (copyright 1992, Gaussian, Inc.),
 the Gaussian 90(TM) system (copyright 1990, Gaussian, Inc.),
 the Gaussian 88(TM) system (copyright 1988, Gaussian, Inc.),
 the Gaussian 86(TM) system (copyright 1986, Carnegie Mellon
 University), and the Gaussian 82(TM) system (copyright 1983,
 Carnegie Mellon University). Gaussian is a federally registered
 trademark of Gaussian, Inc.
  
 This software contains proprietary and confidential information,
 including trade secrets, belonging to Gaussian, Inc.
  
 This software is provided under written license and may be
 used, copied, transmitted, or stored only in accord with that
 written license.
  
 The following legend is applicable only to US Government
 contracts under FAR:
  
                    RESTRICTED RIGHTS LEGEND
  
 Use, reproduction and disclosure by the US Government is
 subject to restrictions as set forth in subparagraphs (a)
 and (c) of the Commercial Computer Software - Restricted
 Rights clause in FAR 52.227-19.
  
 Gaussian, Inc.
 340 Quinnipiac St., Bldg. 40, Wallingford CT 06492
  
  
 ---------------------------------------------------------------
 Warning -- This program may not be used in any manner that
 competes with the business of Gaussian, Inc. or will provide
 assistance to any competitor of Gaussian, Inc.  The licensee
 of this program is prohibited from giving any competitor of
 Gaussian, Inc. access to this program.  By using this program,
 the user acknowledges that Gaussian, Inc. is engaged in the
 business of creating and licensing software in the field of
 computational chemistry and represents and warrants to the
 licensee that it is not a competitor of Gaussian, Inc. and that
 it will not use this program in any manner prohibited above.
 ---------------------------------------------------------------
  

 Cite this work as:
 Gaussian 16, Revision A.03,
 M. J. Frisch, G. W. Trucks, H. B. Schlegel, G. E. Scuseria, 
 M. A. Robb, J. R. Cheeseman, G. Scalmani, V. Barone, 
 G. A. Petersson, H. Nakatsuji, X. Li, M. Caricato, A. V. Marenich, 
 J. Bloino, B. G. Janesko, R. Gomperts, B. Mennucci, H. P. Hratchian, 
 J. V. Ortiz, A. F. Izmaylov, J. L. Sonnenberg, D. Williams-Young, 
 F. Ding, F. Lipparini, F. Egidi, J. Goings, B. Peng, A. Petrone, 
 T. Henderson, D. Ranasinghe, V. G. Zakrzewski, J. Gao, N. Rega, 
 G. Zheng, W. Liang, M. Hada, M. Ehara, K. Toyota, R. Fukuda, 
 J. Hasegawa, M. Ishida, T. Nakajima, Y. Honda, O. Kitao, H. Nakai, 
 T. Vreven, K. Throssell, J. A. Montgomery, Jr., J. E. Peralta, 
 F. Ogliaro, M. J. Bearpark, J. J. Heyd, E. N. Brothers, K. N. Kudin, 
 V. N. Staroverov, T. A. Keith, R. Kobayashi, J. Normand, 
 K. Raghavachari, A. P. Rendell, J. C. Burant, S. S. Iyengar, 
 J. Tomasi, M. Cossi, J. M. Millam, M. Klene, C. Adamo, R. Cammi, 
 J. W. Ochterski, R. L. Martin, K. Morokuma, O. Farkas, 
 J. B. Foresman, and D. J. Fox, Gaussian, Inc., Wallingford CT, 2016.
 
 ******************************************
 Gaussian 16:  ES64L-G16RevA.03 25-Dec-2016
                21-Jan-2024 
 ******************************************
 %chk=266-rad-PCM.chk
 %nproc=8
 Will use up to    8 processors via shared memory.
 %mem=30GB
 ----------------------------------------------------------------
 #P UB3LYP/6-311++G(d,p) SCRF=(PCM,Solvent=n,n-DiMethylFormamide)
 ----------------------------------------------------------------
 1/38=1,172=1/1;
 2/12=2,17=6,18=5,40=1/2;
 3/5=4,6=6,7=1111,11=2,25=1,30=1,70=2201,72=148,74=-5,116=2/1,2,3;
 4//1;
 5/5=2,38=5,53=148/2;
 6/7=2,8=2,9=2,10=2,28=1/1;
 99/5=1,9=1/99;
 Leave Link    1 at Sun Jan 21 08:25:57 2024, MaxMem=  4026531840 cpu:               0.8 elap:               0.1
 (Enter /sysapps/ubuntu-applications/gaussian/Gaussian/AVX2/g16/l101.exe)
 ------------------
 Radical PCM in DMF
 ------------------
 Symbolic Z-matrix:
 Charge = -1 Multiplicity = 2
 C                    -1.23534   2.87447  -0.08219 
 C                    -2.53356   2.39951  -0.09704 
 C                    -2.77855   1.0118   -0.04986 
 C                    -0.13591   1.9914   -0.02066 
 C                    -0.38535   0.59184   0.02719 
 C                    -1.71467   0.12922   0.01134 
 C                     1.22384   2.54573  -0.00486 
 C                     2.28567   1.55582   0.05831 
 C                     2.04628   0.19663   0.10392 
 C                     0.72601  -0.37219   0.0927 
 O                     1.44945   3.7826   -0.04029 
 O                     0.53008  -1.61566   0.13454 
 H                    -1.02047   3.93648  -0.11738 
 H                    -1.86834  -0.94356   0.04888 
 O                     3.54727   2.10362   0.06854 
 C                     4.65395   1.23566   0.22544 
 C                     5.89039   2.07886   0.31125 
 C                     7.02516   1.8266   -0.33637 
 H                    -3.36627   3.09562  -0.14529 
 H                    -3.7986    0.63881  -0.06151 
 H                     2.8562   -0.52139   0.14696 
 H                     4.72677   0.52486  -0.60861 
 H                     4.53962   0.64889   1.15039 
 H                     5.81334   2.93819   0.97297 
 H                     7.11618   0.98651  -1.01903 
 H                     7.90276   2.4514   -0.21002 
 
 ITRead=  0  0  0  0  0  0  0  0  0  0  0  0  0  0  0  0  0  0  0  0
 ITRead=  0  0  0  0  0  0
 MicOpt= -1 -1 -1 -1 -1 -1 -1 -1 -1 -1 -1 -1 -1 -1 -1 -1 -1 -1 -1 -1
 MicOpt= -1 -1 -1 -1 -1 -1
 NAtoms=     26 NQM=       26 NQMF=       0 NMMI=      0 NMMIF=      0
                NMic=       0 NMicF=      0.
                    Isotopes and Nuclear Properties:
 (Nuclear quadrupole moments (NQMom) in fm**2, nuclear magnetic moments (NMagM)
  in nuclear magnetons)

  Atom         1           2           3           4           5           6           7           8           9          10
 IAtWgt=          12          12          12          12          12          12          12          12          12          12
 AtmWgt=  12.0000000  12.0000000  12.0000000  12.0000000  12.0000000  12.0000000  12.0000000  12.0000000  12.0000000  12.0000000
 NucSpn=           0           0           0           0           0           0           0           0           0           0
 AtZEff=  -0.0000000  -0.0000000  -0.0000000  -0.0000000  -0.0000000  -0.0000000  -0.0000000  -0.0000000  -0.0000000  -0.0000000
 NQMom=    0.0000000   0.0000000   0.0000000   0.0000000   0.0000000   0.0000000   0.0000000   0.0000000   0.0000000   0.0000000
 NMagM=    0.0000000   0.0000000   0.0000000   0.0000000   0.0000000   0.0000000   0.0000000   0.0000000   0.0000000   0.0000000
 AtZNuc=   6.0000000   6.0000000   6.0000000   6.0000000   6.0000000   6.0000000   6.0000000   6.0000000   6.0000000   6.0000000

  Atom        11          12          13          14          15          16          17          18          19          20
 IAtWgt=          16          16           1           1          16          12          12          12           1           1
 AtmWgt=  15.9949146  15.9949146   1.0078250   1.0078250  15.9949146  12.0000000  12.0000000  12.0000000   1.0078250   1.0078250
 NucSpn=           0           0           1           1           0           0           0           0           1           1
 AtZEff=  -0.0000000  -0.0000000  -0.0000000  -0.0000000  -0.0000000  -0.0000000  -0.0000000  -0.0000000  -0.0000000  -0.0000000
 NQMom=    0.0000000   0.0000000   0.0000000   0.0000000   0.0000000   0.0000000   0.0000000   0.0000000   0.0000000   0.0000000
 NMagM=    0.0000000   0.0000000   2.7928460   2.7928460   0.0000000   0.0000000   0.0000000   0.0000000   2.7928460   2.7928460
 AtZNuc=   8.0000000   8.0000000   1.0000000   1.0000000   8.0000000   6.0000000   6.0000000   6.0000000   1.0000000   1.0000000

  Atom        21          22          23          24          25          26
 IAtWgt=           1           1           1           1           1           1
 AtmWgt=   1.0078250   1.0078250   1.0078250   1.0078250   1.0078250   1.0078250
 NucSpn=           1           1           1           1           1           1
 AtZEff=  -0.0000000  -0.0000000  -0.0000000  -0.0000000  -0.0000000  -0.0000000
 NQMom=    0.0000000   0.0000000   0.0000000   0.0000000   0.0000000   0.0000000
 NMagM=    2.7928460   2.7928460   2.7928460   2.7928460   2.7928460   2.7928460
 AtZNuc=   1.0000000   1.0000000   1.0000000   1.0000000   1.0000000   1.0000000
 Leave Link  101 at Sun Jan 21 08:25:57 2024, MaxMem=  4026531840 cpu:               1.1 elap:               0.3
 (Enter /sysapps/ubuntu-applications/gaussian/Gaussian/AVX2/g16/l202.exe)
                          Input orientation:                          
 ---------------------------------------------------------------------
 Center     Atomic      Atomic             Coordinates (Angstroms)
 Number     Number       Type             X           Y           Z
 ---------------------------------------------------------------------
      1          6           0       -1.235340    2.874471   -0.082185
      2          6           0       -2.533563    2.399508   -0.097040
      3          6           0       -2.778550    1.011798   -0.049862
      4          6           0       -0.135913    1.991397   -0.020661
      5          6           0       -0.385349    0.591842    0.027191
      6          6           0       -1.714674    0.129216    0.011338
      7          6           0        1.223842    2.545734   -0.004857
      8          6           0        2.285674    1.555820    0.058307
      9          6           0        2.046275    0.196626    0.103919
     10          6           0        0.726014   -0.372192    0.092703
     11          8           0        1.449450    3.782599   -0.040294
     12          8           0        0.530079   -1.615664    0.134542
     13          1           0       -1.020471    3.936478   -0.117383
     14          1           0       -1.868337   -0.943558    0.048875
     15          8           0        3.547265    2.103617    0.068543
     16          6           0        4.653950    1.235662    0.225442
     17          6           0        5.890387    2.078863    0.311252
     18          6           0        7.025160    1.826602   -0.336367
     19          1           0       -3.366266    3.095616   -0.145292
     20          1           0       -3.798599    0.638813   -0.061514
     21          1           0        2.856204   -0.521390    0.146957
     22          1           0        4.726771    0.524862   -0.608611
     23          1           0        4.539621    0.648894    1.150389
     24          1           0        5.813345    2.938185    0.972969
     25          1           0        7.116177    0.986507   -1.019031
     26          1           0        7.902757    2.451404   -0.210021
 ---------------------------------------------------------------------
                    Distance matrix (angstroms):
                    1          2          3          4          5
     1  C    0.000000
     2  C    1.382459   0.000000
     3  C    2.419110   1.409959   0.000000
     4  C    1.411504   2.433334   2.818510   0.000000
     5  C    2.438205   2.810323   2.430990   1.422414   0.000000
     6  C    2.788357   2.415895   1.383665   2.441563   1.407615
     7  C    2.482262   3.761379   4.286505   1.468493   2.531446
     8  C    3.762462   4.894996   5.094509   2.461716   2.839821
     9  C    4.239633   5.086058   4.895619   2.828192   2.464727
    10  C    3.797146   4.282892   3.770639   2.518397   1.472678
    11  O    2.834528   4.216699   5.055038   2.392105   3.681300
    12  O    4.829595   5.055802   4.229017   3.671311   2.392199
    13  H    1.084097   2.156882   3.413086   2.138957   3.407473
    14  H    3.872365   3.411731   2.159086   3.408825   2.134754
    15  O    4.846674   6.090274   6.420438   3.685967   4.213387
    16  C    6.120790   7.288270   7.440965   4.855357   5.084126
    17  C    7.180792   8.439932   8.741825   6.036067   6.455756
    18  C    8.330576   9.578867   9.841683   7.169923   7.521466
    19  H    2.143300   1.086411   2.167214   3.416140   3.896729
    20  H    3.401307   2.168323   1.086165   3.904667   3.414726
    21  H    5.322134   6.135207   5.842932   3.910877   3.429474
    22  H    6.429973   7.515880   7.541827   5.112935   5.151942
    23  H    6.310516   7.392608   7.424818   5.003428   5.051748
    24  H    7.127508   8.432435   8.864413   6.105520   6.695045
    25  H    8.613357   9.796128   9.942110   7.389138   7.584407
    26  H    9.148778  10.437061  10.779074   8.054047   8.497467
                    6          7          8          9         10
     6  C    0.000000
     7  C    3.804563   0.000000
     8  C    4.247374   1.453068   0.000000
     9  C    3.762692   2.491292   1.380870   0.000000
    10  C    2.492988   2.961696   2.480111   1.437626   0.000000
    11  O    4.833379   1.257772   2.380659   3.638159   4.219400
    12  O    2.845822   4.221134   3.625774   2.363088   1.259509
    13  H    3.872174   2.642683   4.077866   4.841529   4.653921
    14  H    1.084373   4.662576   4.847967   4.077651   2.656885
    15  O    5.620457   2.366252   1.375427   2.427105   3.753621
    16  C    6.467568   3.678990   2.395656   2.809685   4.246351
    17  C    7.856718   4.700482   3.651234   4.285207   5.720680
    18  C    8.909922   5.855112   4.763593   5.257373   6.685659
    19  H    3.398797   4.625060   5.861472   6.145067   5.369273
    20  H    2.146565   5.372567   6.154156   5.863911   4.638754
    21  H    4.618940   3.477773   2.155960   1.083229   2.136098
    22  H    6.483293   4.088882   2.732510   2.792937   4.159640
    23  H    6.378378   3.990863   2.663726   2.741609   4.087165
    24  H    8.092349   4.708896   3.897692   4.739431   6.133058
    25  H    8.931995   6.178944   4.981820   5.252507   6.626930
    26  H    9.896289   6.682731   5.694356   6.283388   7.718159
                   11         12         13         14         15
    11  O    0.000000
    12  O    5.478782   0.000000
    13  H    2.475910   5.770091   0.000000
    14  H    5.775138   2.492281   4.955933   0.000000
    15  O    2.689173   4.789657   4.925257   6.214049   0.000000
    16  C    4.101990   5.014443   6.293726   6.878983   1.415173
    17  C    4.769510   6.512577   7.168990   8.330766   2.355789
    18  C    5.916259   7.365937   8.320559   9.322901   3.512327
    19  H    4.865603   6.120128   2.492104   4.312357   6.987610
    20  H    6.117668   4.884522   4.312274   2.498399   7.491614
    21  H    4.531925   2.570690   5.913634   4.744379   2.715580
    22  H    4.655821   4.769314   6.701583   6.788519   2.083804
    23  H    4.559275   4.715569   6.582559   6.694114   2.066732
    24  H    4.558872   7.025198   6.991888   8.656218   2.578684
    25  H    6.394361   7.174867   8.701743   9.251328   3.894597
    26  H    6.591362   8.427108   9.046437  10.347322   4.378226
                   16         17         18         19         20
    16  C    0.000000
    17  C    1.499042   0.000000
    18  C    2.507484   1.330697   0.000000
    19  H    8.241404   9.323510  10.470370   0.000000
    20  H    8.478453   9.802507  10.892206   2.495959   0.000000
    21  H    2.515011   3.999322   4.809040   7.203282   6.758397
    22  H    1.098264   2.148271   2.655416   8.504157   8.543666
    23  H    1.101315   2.138582   3.126555   8.376651   8.425837
    24  H    2.191250   1.087308   2.102016   9.248813   9.937139
    25  H    2.770082   2.113162   1.086312  10.728158  10.962211
    26  H    3.496055   2.111906   1.084674  11.287607  11.841844
                   21         22         23         24         25
    21  H    0.000000
    22  H    2.272564   0.000000
    23  H    2.282615   1.773271   0.000000
    24  H    4.625542   3.083207   2.625777   0.000000
    25  H    4.666975   2.467959   3.385115   3.078065   0.000000
    26  H    5.867933   3.735950   4.050980   2.449911   1.849089
                   26
    26  H    0.000000
 Stoichiometry    C13H10O3(1-,2)
 Framework group  C1[X(C13H10O3)]
 Deg. of freedom    72
 Full point group                 C1      NOp   1
 Largest Abelian subgroup         C1      NOp   1
 Largest concise Abelian subgroup C1      NOp   1
                         Standard orientation:                         
 ---------------------------------------------------------------------
 Center     Atomic      Atomic             Coordinates (Angstroms)
 Number     Number       Type             X           Y           Z
 ---------------------------------------------------------------------
      1          6           0        2.520807   -1.679786   -0.039087
      2          6           0        3.851798   -1.306513   -0.057094
      3          6           0        4.202535    0.059109   -0.050519
      4          6           0        1.492220   -0.713480   -0.014507
      5          6           0        1.848299    0.663626   -0.007583
      6          6           0        3.209356    1.022187   -0.025933
      7          6           0        0.093767   -1.161103    0.006350
      8          6           0       -0.889128   -0.091157    0.029610
      9          6           0       -0.546147    1.246427    0.035449
     10          6           0        0.814015    1.711655    0.018383
     11          8           0       -0.226117   -2.377518    0.007035
     12          8           0        1.104781    2.937131    0.023632
     13          1           0        2.225085   -2.722761   -0.043454
     14          1           0        3.444869    2.080660   -0.020100
     15          8           0       -2.189171   -0.539969    0.045568
     16          6           0       -3.226773    0.414821    0.165875
     17          6           0       -4.524955   -0.327935    0.266689
     18          6           0       -5.632757   -0.009819   -0.398393
     19          1           0        4.628760   -2.065619   -0.076524
     20          1           0        5.248314    0.352194   -0.064641
     21          1           0       -1.298683    2.025454    0.049194
     22          1           0       -3.239307    1.102582   -0.690286
     23          1           0       -3.073591    1.019833    1.073284
     24          1           0       -4.518531   -1.169440    0.955215
     25          1           0       -5.654459    0.812939   -1.107386
     26          1           0       -6.556626   -0.561183   -0.260621
 ---------------------------------------------------------------------
 Rotational constants (GHZ):           1.2123023           0.2941417           0.2383017
 Leave Link  202 at Sun Jan 21 08:25:57 2024, MaxMem=  4026531840 cpu:               0.4 elap:               0.1
 (Enter /sysapps/ubuntu-applications/gaussian/Gaussian/AVX2/g16/l301.exe)
 Standard basis: 6-311++G(d,p) (5D, 7F)
 Ernie: Thresh=  0.10000D-02 Tol=  0.10000D-05 Strict=F.
 There are   438 symmetry adapted cartesian basis functions of A   symmetry.
 There are   422 symmetry adapted basis functions of A   symmetry.
   422 basis functions,   666 primitive gaussians,   438 cartesian basis functions
    57 alpha electrons       56 beta electrons
       nuclear repulsion energy       992.4486888907 Hartrees.
 IExCor=  402 DFT=T Ex+Corr=B3LYP ExCW=0 ScaHFX=  0.200000
 ScaDFX=  0.800000  0.720000  1.000000  0.810000 ScalE2=  1.000000  1.000000
 IRadAn=      5 IRanWt=     -1 IRanGd=            0 ICorTp=0 IEmpDi=  4
 NAtoms=   26 NActive=   26 NUniq=   26 SFac= 1.00D+00 NAtFMM=   60 NAOKFM=F Big=F
 Integral buffers will be    131072 words long.
 Raffenetti 2 integral format.
 Two-electron integral symmetry is turned on.
 ------------------------------------------------------------------------------
 Polarizable Continuum Model (PCM)
 =================================
 Model                : PCM.
 Atomic radii         : UFF (Universal Force Field).
 Polarization charges : Total charges.
 Charge compensation  : None.
 Solution method      : On-the-fly selection.
 Cavity type          : Scaled VdW (van der Waals Surface) (Alpha=1.100).
 Cavity algorithm     : GePol (No added spheres)
                        Default sphere list used, NSphG=   26.
                        Lebedev-Laikov grids with approx.  5.0 points / Ang**2.
                        Smoothing algorithm: York/Karplus (Gamma=1.0000).
                        Polarization charges: spherical gaussians, with
                                              point-specific exponents (IZeta= 3).
                        Self-potential: point-specific (ISelfS= 7).
                        Self-field    : sphere-specific E.n sum rule (ISelfD= 2).
 Solvent              : n,n-DiMethylFormamide, Eps=  37.219000 Eps(inf)=   2.046330
 ------------------------------------------------------------------------------
 GePol: Number of generator spheres                  =      26
 GePol: Total number of spheres                      =      26
 GePol: Number of exposed spheres                    =      26 (100.00%)
 GePol: Number of points                             =    2199
 GePol: Average weight of points                     =       0.13
 GePol: Minimum weight of points                     =   0.17D-10
 GePol: Maximum weight of points                     =    0.20577
 GePol: Number of points with low weight             =     132
 GePol: Fraction of low-weight points (<1% of avg)   =       6.00%
 GePol: Cavity surface area                          =    279.901 Ang**2
 GePol: Cavity volume                                =    293.884 Ang**3
 Leave Link  301 at Sun Jan 21 08:25:58 2024, MaxMem=  4026531840 cpu:               0.8 elap:               0.2
 (Enter /sysapps/ubuntu-applications/gaussian/Gaussian/AVX2/g16/l302.exe)
 NPDir=0 NMtPBC=     1 NCelOv=     1 NCel=       1 NClECP=     1 NCelD=      1
         NCelK=      1 NCelE2=     1 NClLst=     1 CellRange=     0.0.
 One-electron integrals computed using PRISM.
 One-electron integral symmetry used in STVInt
 NBasis=   422 RedAO= T EigKep=  1.29D-06  NBF=   422
 NBsUse=   419 1.00D-06 EigRej=  6.18D-07 NBFU=   419
 Precomputing XC quadrature grid using
 IXCGrd= 4 IRadAn=           5 IRanWt=          -1 IRanGd=           0 AccXCQ= 0.00D+00.
 Generated NRdTot=       0 NPtTot=           0 NUsed=           0 NTot=          32
 NSgBfM=   436   436   436   436   436 MxSgAt=    26 MxSgA2=    26.
 Leave Link  302 at Sun Jan 21 08:25:58 2024, MaxMem=  4026531840 cpu:               5.1 elap:               0.7
 (Enter /sysapps/ubuntu-applications/gaussian/Gaussian/AVX2/g16/l303.exe)
 DipDrv:  MaxL=1.
 Leave Link  303 at Sun Jan 21 08:25:58 2024, MaxMem=  4026531840 cpu:               1.0 elap:               0.2
 (Enter /sysapps/ubuntu-applications/gaussian/Gaussian/AVX2/g16/l401.exe)
 ExpMin= 3.60D-02 ExpMax= 8.59D+03 ExpMxC= 1.30D+03 IAcc=3 IRadAn=         5 AccDes= 0.00D+00
 Harris functional with IExCor=  402 and IRadAn=       5 diagonalized for initial guess.
 HarFok:  IExCor=  402 AccDes= 0.00D+00 IRadAn=         5 IDoV= 1 UseB2=F ITyADJ=14
 ICtDFT=  3500011 ScaDFX=  1.000000  1.000000  1.000000  1.000000
 FoFCou: FMM=F IPFlag=           0 FMFlag=      100000 FMFlg1=           0
         NFxFlg=           0 DoJE=T BraDBF=F KetDBF=T FulRan=T
         wScrn=  0.000000 ICntrl=       500 IOpCl=  0 I1Cent=   200000004 NGrid=           0
         NMat0=    1 NMatS0=      1 NMatT0=    0 NMatD0=    1 NMtDS0=    0 NMtDT0=    0
 Petite list used in FoFCou.
 Harris En= -727.489435325806    
 JPrj=0 DoOrth=F DoCkMO=F.
 Initial guess <Sx>= 0.0000 <Sy>= 0.0000 <Sz>= 0.5000 <S**2>= 0.7500 S= 0.5000
 Leave Link  401 at Sun Jan 21 08:26:02 2024, MaxMem=  4026531840 cpu:              28.9 elap:               3.7
 (Enter /sysapps/ubuntu-applications/gaussian/Gaussian/AVX2/g16/l502.exe)
 Integral symmetry usage will be decided dynamically.
 UHF open shell SCF:
 Using DIIS extrapolation, IDIIS=  1040.
 NGot=  4026531840 LenX=  4026140474 LenY=  4025948189
 Requested convergence on RMS density matrix=1.00D-08 within 128 cycles.
 Requested convergence on MAX density matrix=1.00D-06.
 Requested convergence on             energy=1.00D-06.
 No special actions if energy rises.
 Fock matrices will be formed incrementally for  20 cycles.

 Cycle   1  Pass 1  IDiag  1:
 FoFJK:  IHMeth= 1 ICntrl=       0 DoSepK=F KAlg= 0 I1Cent=           0 FoldK=F
 IRaf= 840000000 NMat=       1 IRICut=       1 DoRegI=T DoRafI=F ISym2E= 0 IDoP0=0 IntGTp=1.
 FoFCou: FMM=F IPFlag=           0 FMFlag=      100000 FMFlg1=           0
         NFxFlg=           0 DoJE=F BraDBF=F KetDBF=F FulRan=T
         wScrn=  0.000000 ICntrl=         0 IOpCl=  1 I1Cent=           0 NGrid=           0
         NMat0=    1 NMatS0=      1 NMatT0=    0 NMatD0=    1 NMtDS0=    0 NMtDT0=    0
 Symmetry not used in FoFCou.
 Inv3:  Mode=1 IEnd=    14506803.
 Iteration    1 A*A^-1 deviation from unit magnitude is 2.89D-15 for     55.
 Iteration    1 A*A^-1 deviation from orthogonality  is 1.59D-15 for   1327    594.
 Iteration    1 A^-1*A deviation from unit magnitude is 2.89D-15 for     55.
 Iteration    1 A^-1*A deviation from orthogonality  is 2.00D-15 for   1633    267.
 E= -726.949483068431    
 DIIS: error= 4.11D-02 at cycle   1 NSaved=   1.
 NSaved= 1 IEnMin= 1 EnMin= -726.949483068431     IErMin= 1 ErrMin= 4.11D-02
 ErrMax= 4.11D-02  0.00D+00 EMaxC= 1.00D-01 BMatC= 2.04D+00 BMatP= 2.04D+00
 IDIUse=3 WtCom= 5.89D-01 WtEn= 4.11D-01
 Coeff-Com:  0.100D+01
 Coeff-En:   0.100D+01
 Coeff:      0.100D+01
 Gap=     0.132 Goal=   None    Shift=    0.000
 Gap=     0.151 Goal=   None    Shift=    0.000
 GapD=    0.132 DampG=1.000 DampE=0.500 DampFc=0.5000 IDamp=-1.
 Damping current iteration by 5.00D-01
 RMSDP=5.33D-02 MaxDP=7.11D+00              OVMax= 2.87D-01

 Cycle   2  Pass 1  IDiag  1:
 RMSU=  2.41D-02    CP:  1.20D+00
 E= -727.087905278821     Delta-E=       -0.138422210391 Rises=F Damp=T
 DIIS: error= 1.87D-02 at cycle   2 NSaved=   2.
 NSaved= 2 IEnMin= 2 EnMin= -727.087905278821     IErMin= 2 ErrMin= 1.87D-02
 ErrMax= 1.87D-02  0.00D+00 EMaxC= 1.00D-01 BMatC= 2.68D-01 BMatP= 2.04D+00
 IDIUse=3 WtCom= 8.13D-01 WtEn= 1.87D-01
 Coeff-Com:  0.174D+00 0.826D+00
 Coeff-En:   0.290D+00 0.710D+00
 Coeff:      0.196D+00 0.804D+00
 Gap=     0.152 Goal=   None    Shift=    0.000
 Gap=     0.174 Goal=   None    Shift=    0.000
 RMSDP=2.94D-02 MaxDP=4.19D+00 DE=-1.38D-01 OVMax= 2.72D-01

 Cycle   3  Pass 1  IDiag  1:
 RMSU=  6.58D-03    CP:  8.98D-01  5.13D-02
 E= -727.322985444054     Delta-E=       -0.235080165233 Rises=F Damp=F
 DIIS: error= 2.17D-02 at cycle   3 NSaved=   3.
 NSaved= 3 IEnMin= 3 EnMin= -727.322985444054     IErMin= 2 ErrMin= 1.87D-02
 ErrMax= 2.17D-02  0.00D+00 EMaxC= 1.00D-01 BMatC= 2.93D-01 BMatP= 2.68D-01
 IDIUse=3 WtCom= 7.83D-01 WtEn= 2.17D-01
 Coeff-Com:  0.198D-01 0.510D+00 0.470D+00
 Coeff-En:   0.000D+00 0.000D+00 0.100D+01
 Coeff:      0.155D-01 0.399D+00 0.585D+00
 Gap=     0.114 Goal=   None    Shift=    0.000
 Gap=     0.153 Goal=   None    Shift=    0.000
 RMSDP=6.44D-03 MaxDP=6.96D-01 DE=-2.35D-01 OVMax= 1.32D-01

 Cycle   4  Pass 1  IDiag  1:
 RMSU=  3.86D-03    CP:  9.63D-01  1.94D-01  8.48D-01
 E= -727.362843606374     Delta-E=       -0.039858162320 Rises=F Damp=F
 DIIS: error= 1.52D-02 at cycle   4 NSaved=   4.
 NSaved= 4 IEnMin= 4 EnMin= -727.362843606374     IErMin= 4 ErrMin= 1.52D-02
 ErrMax= 1.52D-02  0.00D+00 EMaxC= 1.00D-01 BMatC= 1.04D-01 BMatP= 2.68D-01
 IDIUse=3 WtCom= 8.48D-01 WtEn= 1.52D-01
 Coeff-Com:  0.382D-02 0.750D-01 0.377D+00 0.544D+00
 Coeff-En:   0.000D+00 0.000D+00 0.304D+00 0.696D+00
 Coeff:      0.324D-02 0.636D-01 0.366D+00 0.567D+00
 Gap=     0.117 Goal=   None    Shift=    0.000
 Gap=     0.154 Goal=   None    Shift=    0.000
 RMSDP=4.47D-03 MaxDP=7.02D-01 DE=-3.99D-02 OVMax= 3.97D-02

 Cycle   5  Pass 1  IDiag  1:
 RMSU=  1.16D-03    CP:  8.97D-01  1.28D-01  8.62D-01  6.27D-01
 E= -727.383849685552     Delta-E=       -0.021006079178 Rises=F Damp=F
 DIIS: error= 2.00D-03 at cycle   5 NSaved=   5.
 NSaved= 5 IEnMin= 5 EnMin= -727.383849685552     IErMin= 5 ErrMin= 2.00D-03
 ErrMax= 2.00D-03  0.00D+00 EMaxC= 1.00D-01 BMatC= 2.34D-03 BMatP= 1.04D-01
 IDIUse=3 WtCom= 9.80D-01 WtEn= 2.00D-02
 Coeff-Com: -0.355D-04 0.624D-02 0.157D+00 0.297D+00 0.539D+00
 Coeff-En:   0.000D+00 0.000D+00 0.000D+00 0.000D+00 0.100D+01
 Coeff:     -0.348D-04 0.611D-02 0.154D+00 0.291D+00 0.549D+00
 Gap=     0.115 Goal=   None    Shift=    0.000
 Gap=     0.145 Goal=   None    Shift=    0.000
 RMSDP=5.64D-04 MaxDP=4.71D-02 DE=-2.10D-02 OVMax= 8.30D-03

 Cycle   6  Pass 1  IDiag  1:
 RMSU=  4.28D-04    CP:  8.93D-01  1.24D-01  8.72D-01  6.19D-01  8.14D-01
 E= -727.384293853687     Delta-E=       -0.000444168135 Rises=F Damp=F
 DIIS: error= 6.55D-04 at cycle   6 NSaved=   6.
 NSaved= 6 IEnMin= 6 EnMin= -727.384293853687     IErMin= 6 ErrMin= 6.55D-04
 ErrMax= 6.55D-04  0.00D+00 EMaxC= 1.00D-01 BMatC= 3.69D-04 BMatP= 2.34D-03
 IDIUse=3 WtCom= 9.93D-01 WtEn= 6.55D-03
 Coeff-Com: -0.828D-04-0.619D-02 0.332D-01 0.837D-01 0.326D+00 0.563D+00
 Coeff-En:   0.000D+00 0.000D+00 0.000D+00 0.000D+00 0.844D-01 0.916D+00
 Coeff:     -0.823D-04-0.615D-02 0.329D-01 0.832D-01 0.325D+00 0.565D+00
 Gap=     0.115 Goal=   None    Shift=    0.000
 Gap=     0.146 Goal=   None    Shift=    0.000
 RMSDP=2.36D-04 MaxDP=1.90D-02 DE=-4.44D-04 OVMax= 3.38D-03

 Cycle   7  Pass 1  IDiag  1:
 RMSU=  1.58D-04    CP:  8.94D-01  1.23D-01  8.79D-01  6.31D-01  8.89D-01
                    CP:  7.51D-01
 E= -727.384367960675     Delta-E=       -0.000074106989 Rises=F Damp=F
 DIIS: error= 2.65D-04 at cycle   7 NSaved=   7.
 NSaved= 7 IEnMin= 7 EnMin= -727.384367960675     IErMin= 7 ErrMin= 2.65D-04
 ErrMax= 2.65D-04  0.00D+00 EMaxC= 1.00D-01 BMatC= 5.87D-05 BMatP= 3.69D-04
 IDIUse=3 WtCom= 9.97D-01 WtEn= 2.65D-03
 Coeff-Com:  0.304D-03-0.446D-02-0.258D-03 0.861D-02 0.115D+00 0.331D+00
 Coeff-Com:  0.550D+00
 Coeff-En:   0.000D+00 0.000D+00 0.000D+00 0.000D+00 0.000D+00 0.000D+00
 Coeff-En:   0.100D+01
 Coeff:      0.303D-03-0.445D-02-0.257D-03 0.859D-02 0.115D+00 0.330D+00
 Coeff:      0.551D+00
 Gap=     0.116 Goal=   None    Shift=    0.000
 Gap=     0.146 Goal=   None    Shift=    0.000
 RMSDP=8.82D-05 MaxDP=1.39D-02 DE=-7.41D-05 OVMax= 1.65D-03

 Cycle   8  Pass 1  IDiag  1:
 RMSU=  6.51D-05    CP:  8.94D-01  1.22D-01  8.79D-01  6.25D-01  8.72D-01
                    CP:  7.38D-01  7.32D-01
 E= -727.384381059713     Delta-E=       -0.000013099037 Rises=F Damp=F
 DIIS: error= 1.23D-04 at cycle   8 NSaved=   8.
 NSaved= 8 IEnMin= 8 EnMin= -727.384381059713     IErMin= 8 ErrMin= 1.23D-04
 ErrMax= 1.23D-04  0.00D+00 EMaxC= 1.00D-01 BMatC= 9.93D-06 BMatP= 5.87D-05
 IDIUse=3 WtCom= 9.99D-01 WtEn= 1.23D-03
 Coeff-Com:  0.434D-03-0.896D-03-0.944D-02-0.221D-01-0.473D-01-0.112D-01
 Coeff-Com:  0.268D+00 0.822D+00
 Coeff-En:   0.000D+00 0.000D+00 0.000D+00 0.000D+00 0.000D+00 0.000D+00
 Coeff-En:   0.000D+00 0.100D+01
 Coeff:      0.434D-03-0.895D-03-0.943D-02-0.221D-01-0.472D-01-0.112D-01
 Coeff:      0.268D+00 0.823D+00
 Gap=     0.116 Goal=   None    Shift=    0.000
 Gap=     0.146 Goal=   None    Shift=    0.000
 RMSDP=5.11D-05 MaxDP=6.65D-03 DE=-1.31D-05 OVMax= 1.02D-03

 Cycle   9  Pass 1  IDiag  1:
 RMSU=  3.77D-05    CP:  8.94D-01  1.21D-01  8.79D-01  6.19D-01  8.72D-01
                    CP:  7.53D-01  8.19D-01  1.07D+00
 E= -727.384384894893     Delta-E=       -0.000003835181 Rises=F Damp=F
 DIIS: error= 6.61D-05 at cycle   9 NSaved=   9.
 NSaved= 9 IEnMin= 9 EnMin= -727.384384894893     IErMin= 9 ErrMin= 6.61D-05
 ErrMax= 6.61D-05  0.00D+00 EMaxC= 1.00D-01 BMatC= 2.84D-06 BMatP= 9.93D-06
 IDIUse=1 WtCom= 1.00D+00 WtEn= 0.00D+00
 Coeff-Com:  0.225D-03 0.139D-03-0.532D-02-0.147D-01-0.501D-01-0.665D-01
 Coeff-Com:  0.564D-01 0.482D+00 0.598D+00
 Coeff:      0.225D-03 0.139D-03-0.532D-02-0.147D-01-0.501D-01-0.665D-01
 Coeff:      0.564D-01 0.482D+00 0.598D+00
 Gap=     0.116 Goal=   None    Shift=    0.000
 Gap=     0.146 Goal=   None    Shift=    0.000
 RMSDP=1.90D-05 MaxDP=3.21D-03 DE=-3.84D-06 OVMax= 6.75D-04

 Cycle  10  Pass 1  IDiag  1:
 RMSU=  1.14D-05    CP:  8.94D-01  1.21D-01  8.79D-01  6.19D-01  8.75D-01
                    CP:  7.54D-01  8.35D-01  1.23D+00  9.57D-01
 E= -727.384385811840     Delta-E=       -0.000000916946 Rises=F Damp=F
 DIIS: error= 1.88D-05 at cycle  10 NSaved=  10.
 NSaved=10 IEnMin=10 EnMin= -727.384385811840     IErMin=10 ErrMin= 1.88D-05
 ErrMax= 1.88D-05  0.00D+00 EMaxC= 1.00D-01 BMatC= 4.88D-07 BMatP= 2.84D-06
 IDIUse=1 WtCom= 1.00D+00 WtEn= 0.00D+00
 Coeff-Com: -0.305D-04 0.361D-03-0.256D-03-0.220D-02-0.160D-01-0.362D-01
 Coeff-Com: -0.463D-01 0.273D-01 0.323D+00 0.750D+00
 Coeff:     -0.305D-04 0.361D-03-0.256D-03-0.220D-02-0.160D-01-0.362D-01
 Coeff:     -0.463D-01 0.273D-01 0.323D+00 0.750D+00
 Gap=     0.116 Goal=   None    Shift=    0.000
 Gap=     0.146 Goal=   None    Shift=    0.000
 RMSDP=8.83D-06 MaxDP=1.11D-03 DE=-9.17D-07 OVMax= 2.27D-04

 Cycle  11  Pass 1  IDiag  1:
 RMSU=  5.51D-06    CP:  8.94D-01  1.21D-01  8.79D-01  6.18D-01  8.75D-01
                    CP:  7.58D-01  8.53D-01  1.27D+00  1.05D+00  1.22D+00
 E= -727.384385986560     Delta-E=       -0.000000174721 Rises=F Damp=F
 DIIS: error= 1.27D-05 at cycle  11 NSaved=  11.
 NSaved=11 IEnMin=11 EnMin= -727.384385986560     IErMin=11 ErrMin= 1.27D-05
 ErrMax= 1.27D-05  0.00D+00 EMaxC= 1.00D-01 BMatC= 1.07D-07 BMatP= 4.88D-07
 IDIUse=1 WtCom= 1.00D+00 WtEn= 0.00D+00
 Coeff-Com: -0.384D-04 0.185D-03 0.363D-03 0.165D-03-0.414D-02-0.138D-01
 Coeff-Com: -0.302D-01-0.316D-01 0.120D+00 0.438D+00 0.521D+00
 Coeff:     -0.384D-04 0.185D-03 0.363D-03 0.165D-03-0.414D-02-0.138D-01
 Coeff:     -0.302D-01-0.316D-01 0.120D+00 0.438D+00 0.521D+00
 Gap=     0.116 Goal=   None    Shift=    0.000
 Gap=     0.146 Goal=   None    Shift=    0.000
 RMSDP=2.53D-06 MaxDP=3.04D-04 DE=-1.75D-07 OVMax= 7.06D-05

 Cycle  12  Pass 1  IDiag  1:
 RMSU=  1.66D-06    CP:  8.94D-01  1.21D-01  8.79D-01  6.18D-01  8.75D-01
                    CP:  7.59D-01  8.55D-01  1.27D+00  1.05D+00  1.33D+00
                    CP:  1.07D+00
 E= -727.384386011638     Delta-E=       -0.000000025077 Rises=F Damp=F
 DIIS: error= 3.72D-06 at cycle  12 NSaved=  12.
 NSaved=12 IEnMin=12 EnMin= -727.384386011638     IErMin=12 ErrMin= 3.72D-06
 ErrMax= 3.72D-06  0.00D+00 EMaxC= 1.00D-01 BMatC= 9.08D-09 BMatP= 1.07D-07
 IDIUse=1 WtCom= 1.00D+00 WtEn= 0.00D+00
 Coeff-Com: -0.120D-04 0.898D-05 0.226D-03 0.537D-03 0.142D-02 0.714D-03
 Coeff-Com: -0.405D-02-0.201D-01-0.157D-01 0.449D-01 0.229D+00 0.764D+00
 Coeff:     -0.120D-04 0.898D-05 0.226D-03 0.537D-03 0.142D-02 0.714D-03
 Coeff:     -0.405D-02-0.201D-01-0.157D-01 0.449D-01 0.229D+00 0.764D+00
 Gap=     0.116 Goal=   None    Shift=    0.000
 Gap=     0.146 Goal=   None    Shift=    0.000
 RMSDP=1.23D-06 MaxDP=8.30D-05 DE=-2.51D-08 OVMax= 2.86D-05

 Cycle  13  Pass 1  IDiag  1:
 RMSU=  7.88D-07    CP:  8.94D-01  1.21D-01  8.79D-01  6.18D-01  8.75D-01
                    CP:  7.59D-01  8.54D-01  1.28D+00  1.06D+00  1.36D+00
                    CP:  1.10D+00  7.51D-01
 E= -727.384386014645     Delta-E=       -0.000000003007 Rises=F Damp=F
 DIIS: error= 1.42D-06 at cycle  13 NSaved=  13.
 NSaved=13 IEnMin=13 EnMin= -727.384386014645     IErMin=13 ErrMin= 1.42D-06
 ErrMax= 1.42D-06  0.00D+00 EMaxC= 1.00D-01 BMatC= 1.56D-09 BMatP= 9.08D-09
 IDIUse=1 WtCom= 1.00D+00 WtEn= 0.00D+00
 Coeff-Com:  0.225D-05-0.208D-04 0.503D-04 0.195D-03 0.120D-02 0.192D-02
 Coeff-Com:  0.236D-02-0.408D-02-0.210D-01-0.392D-01 0.327D-01 0.322D+00
 Coeff-Com:  0.704D+00
 Coeff:      0.225D-05-0.208D-04 0.503D-04 0.195D-03 0.120D-02 0.192D-02
 Coeff:      0.236D-02-0.408D-02-0.210D-01-0.392D-01 0.327D-01 0.322D+00
 Coeff:      0.704D+00
 Gap=     0.116 Goal=   None    Shift=    0.000
 Gap=     0.146 Goal=   None    Shift=    0.000
 RMSDP=4.44D-07 MaxDP=4.95D-05 DE=-3.01D-09 OVMax= 1.13D-05

 Cycle  14  Pass 1  IDiag  1:
 RMSU=  2.44D-07    CP:  8.94D-01  1.21D-01  8.79D-01  6.18D-01  8.75D-01
                    CP:  7.58D-01  8.54D-01  1.27D+00  1.06D+00  1.36D+00
                    CP:  1.12D+00  7.84D-01  8.96D-01
 E= -727.384386015225     Delta-E=       -0.000000000580 Rises=F Damp=F
 DIIS: error= 9.60D-07 at cycle  14 NSaved=  14.
 NSaved=14 IEnMin=14 EnMin= -727.384386015225     IErMin=14 ErrMin= 9.60D-07
 ErrMax= 9.60D-07  0.00D+00 EMaxC= 1.00D-01 BMatC= 3.58D-10 BMatP= 1.56D-09
 IDIUse=1 WtCom= 1.00D+00 WtEn= 0.00D+00
 Coeff-Com:  0.447D-05-0.127D-04-0.281D-04-0.379D-04 0.255D-03 0.622D-03
 Coeff-Com:  0.215D-02 0.309D-02-0.501D-02-0.320D-01-0.403D-01-0.408D-01
 Coeff-Com:  0.327D+00 0.785D+00
 Coeff:      0.447D-05-0.127D-04-0.281D-04-0.379D-04 0.255D-03 0.622D-03
 Coeff:      0.215D-02 0.309D-02-0.501D-02-0.320D-01-0.403D-01-0.408D-01
 Coeff:      0.327D+00 0.785D+00
 Gap=     0.116 Goal=   None    Shift=    0.000
 Gap=     0.146 Goal=   None    Shift=    0.000
 RMSDP=2.68D-07 MaxDP=5.99D-05 DE=-5.80D-10 OVMax= 8.45D-06

 Cycle  15  Pass 1  IDiag  1:
 RMSU=  1.09D-07    CP:  8.94D-01  1.21D-01  8.79D-01  6.18D-01  8.75D-01
                    CP:  7.58D-01  8.55D-01  1.27D+00  1.06D+00  1.37D+00
                    CP:  1.14D+00  7.79D-01  9.56D-01  1.10D+00
 E= -727.384386015409     Delta-E=       -0.000000000184 Rises=F Damp=F
 DIIS: error= 5.89D-07 at cycle  15 NSaved=  15.
 NSaved=15 IEnMin=15 EnMin= -727.384386015409     IErMin=15 ErrMin= 5.89D-07
 ErrMax= 5.89D-07  0.00D+00 EMaxC= 1.00D-01 BMatC= 5.51D-11 BMatP= 3.58D-10
 IDIUse=1 WtCom= 1.00D+00 WtEn= 0.00D+00
 Coeff-Com:  0.952D-06-0.782D-06-0.167D-04-0.387D-04-0.596D-04-0.419D-04
 Coeff-Com:  0.497D-03 0.133D-02 0.155D-02-0.673D-02-0.163D-01-0.546D-01
 Coeff-Com:  0.136D-01 0.255D+00 0.806D+00
 Coeff:      0.952D-06-0.782D-06-0.167D-04-0.387D-04-0.596D-04-0.419D-04
 Coeff:      0.497D-03 0.133D-02 0.155D-02-0.673D-02-0.163D-01-0.546D-01
 Coeff:      0.136D-01 0.255D+00 0.806D+00
 Gap=     0.116 Goal=   None    Shift=    0.000
 Gap=     0.146 Goal=   None    Shift=    0.000
 RMSDP=1.35D-07 MaxDP=1.42D-05 DE=-1.84D-10 OVMax= 4.25D-06

 Cycle  16  Pass 1  IDiag  1:
 RMSU=  4.37D-08    CP:  8.94D-01  1.21D-01  8.79D-01  6.18D-01  8.75D-01
                    CP:  7.58D-01  8.55D-01  1.27D+00  1.06D+00  1.36D+00
                    CP:  1.13D+00  7.64D-01  1.02D+00  1.16D+00  1.15D+00
 E= -727.384386015452     Delta-E=       -0.000000000043 Rises=F Damp=F
 DIIS: error= 3.40D-07 at cycle  16 NSaved=  16.
 NSaved=16 IEnMin=16 EnMin= -727.384386015452     IErMin=16 ErrMin= 3.40D-07
 ErrMax= 3.40D-07  0.00D+00 EMaxC= 1.00D-01 BMatC= 2.62D-11 BMatP= 5.51D-11
 IDIUse=1 WtCom= 1.00D+00 WtEn= 0.00D+00
 Coeff-Com: -0.136D-05 0.383D-05 0.823D-06-0.691D-05-0.125D-03-0.263D-03
 Coeff-Com: -0.474D-03-0.564D-03 0.306D-02 0.795D-02 0.696D-02-0.139D-01
 Coeff-Com: -0.115D+00-0.150D+00 0.470D+00 0.793D+00
 Coeff:     -0.136D-05 0.383D-05 0.823D-06-0.691D-05-0.125D-03-0.263D-03
 Coeff:     -0.474D-03-0.564D-03 0.306D-02 0.795D-02 0.696D-02-0.139D-01
 Coeff:     -0.115D+00-0.150D+00 0.470D+00 0.793D+00
 Gap=     0.116 Goal=   None    Shift=    0.000
 Gap=     0.146 Goal=   None    Shift=    0.000
 RMSDP=6.47D-08 MaxDP=8.81D-06 DE=-4.33D-11 OVMax= 3.40D-06

 Cycle  17  Pass 1  IDiag  1:
 RMSU=  3.06D-08    CP:  8.94D-01  1.21D-01  8.79D-01  6.18D-01  8.75D-01
                    CP:  7.58D-01  8.55D-01  1.27D+00  1.06D+00  1.36D+00
                    CP:  1.13D+00  7.62D-01  1.02D+00  1.22D+00  1.31D+00
                    CP:  1.18D+00
 E= -727.384386015481     Delta-E=       -0.000000000029 Rises=F Damp=F
 DIIS: error= 1.58D-07 at cycle  17 NSaved=  17.
 NSaved=17 IEnMin=17 EnMin= -727.384386015481     IErMin=17 ErrMin= 1.58D-07
 ErrMax= 1.58D-07  0.00D+00 EMaxC= 1.00D-01 BMatC= 4.63D-12 BMatP= 2.62D-11
 IDIUse=1 WtCom= 1.00D+00 WtEn= 0.00D+00
 Coeff-Com: -0.678D-06 0.160D-05 0.396D-05 0.668D-05-0.315D-04-0.873D-04
 Coeff-Com: -0.246D-03-0.589D-03 0.726D-03 0.427D-02 0.646D-02 0.846D-02
 Coeff-Com: -0.413D-01-0.115D+00-0.677D-01 0.289D+00 0.916D+00
 Coeff:     -0.678D-06 0.160D-05 0.396D-05 0.668D-05-0.315D-04-0.873D-04
 Coeff:     -0.246D-03-0.589D-03 0.726D-03 0.427D-02 0.646D-02 0.846D-02
 Coeff:     -0.413D-01-0.115D+00-0.677D-01 0.289D+00 0.916D+00
 Gap=     0.116 Goal=   None    Shift=    0.000
 Gap=     0.146 Goal=   None    Shift=    0.000
 RMSDP=3.49D-08 MaxDP=3.42D-06 DE=-2.94D-11 OVMax= 1.99D-06

 Cycle  18  Pass 1  IDiag  1:
 RMSU=  1.18D-08    CP:  8.94D-01  1.21D-01  8.79D-01  6.18D-01  8.75D-01
                    CP:  7.58D-01  8.55D-01  1.27D+00  1.06D+00  1.36D+00
                    CP:  1.13D+00  7.60D-01  1.02D+00  1.25D+00  1.41D+00
                    CP:  1.31D+00  1.19D+00
 E= -727.384386015468     Delta-E=        0.000000000014 Rises=F Damp=F
 DIIS: error= 5.18D-08 at cycle  18 NSaved=  18.
 NSaved=18 IEnMin=17 EnMin= -727.384386015481     IErMin=18 ErrMin= 5.18D-08
 ErrMax= 5.18D-08  0.00D+00 EMaxC= 1.00D-01 BMatC= 1.85D-12 BMatP= 4.63D-12
 IDIUse=1 WtCom= 1.00D+00 WtEn= 0.00D+00
 Coeff-Com: -0.218D-07-0.551D-07 0.225D-05 0.569D-05 0.123D-04 0.999D-05
 Coeff-Com: -0.191D-04-0.211D-03-0.320D-03 0.544D-03 0.208D-02 0.810D-02
 Coeff-Com:  0.449D-02-0.303D-01-0.164D+00-0.229D-01 0.537D+00 0.665D+00
 Coeff:     -0.218D-07-0.551D-07 0.225D-05 0.569D-05 0.123D-04 0.999D-05
 Coeff:     -0.191D-04-0.211D-03-0.320D-03 0.544D-03 0.208D-02 0.810D-02
 Coeff:      0.449D-02-0.303D-01-0.164D+00-0.229D-01 0.537D+00 0.665D+00
 Gap=     0.116 Goal=   None    Shift=    0.000
 Gap=     0.146 Goal=   None    Shift=    0.000
 RMSDP=1.56D-08 MaxDP=9.62D-07 DE= 1.38D-11 OVMax= 8.61D-07

 Cycle  19  Pass 1  IDiag  1:
 RMSU=  7.37D-09    CP:  8.94D-01  1.21D-01  8.79D-01  6.18D-01  8.75D-01
                    CP:  7.58D-01  8.55D-01  1.27D+00  1.06D+00  1.36D+00
                    CP:  1.13D+00  7.60D-01  1.03D+00  1.24D+00  1.44D+00
                    CP:  1.39D+00  1.23D+00  1.16D+00
 E= -727.384386015475     Delta-E=       -0.000000000008 Rises=F Damp=F
 DIIS: error= 1.96D-08 at cycle  19 NSaved=  19.
 NSaved=19 IEnMin=17 EnMin= -727.384386015481     IErMin=19 ErrMin= 1.96D-08
 ErrMax= 1.96D-08  0.00D+00 EMaxC= 1.00D-01 BMatC= 2.44D-13 BMatP= 1.85D-12
 IDIUse=1 WtCom= 1.00D+00 WtEn= 0.00D+00
 Coeff-Com:  0.181D-06-0.407D-06 0.489D-07 0.591D-06 0.133D-04 0.240D-04
 Coeff-Com:  0.511D-04 0.633D-04-0.326D-03-0.807D-03-0.721D-03 0.122D-02
 Coeff-Com:  0.120D-01 0.171D-01-0.487D-01-0.778D-01-0.154D-01 0.249D+00
 Coeff-Com:  0.864D+00
 Coeff:      0.181D-06-0.407D-06 0.489D-07 0.591D-06 0.133D-04 0.240D-04
 Coeff:      0.511D-04 0.633D-04-0.326D-03-0.807D-03-0.721D-03 0.122D-02
 Coeff:      0.120D-01 0.171D-01-0.487D-01-0.778D-01-0.154D-01 0.249D+00
 Coeff:      0.864D+00
 Gap=     0.116 Goal=   None    Shift=    0.000
 Gap=     0.146 Goal=   None    Shift=    0.000
 RMSDP=7.13D-09 MaxDP=1.03D-06 DE=-7.84D-12 OVMax= 4.34D-07

 Cycle  20  Pass 1  IDiag  1:
 RMSU=  4.41D-09    CP:  8.94D-01  1.21D-01  8.79D-01  6.18D-01  8.75D-01
                    CP:  7.58D-01  8.55D-01  1.27D+00  1.06D+00  1.36D+00
                    CP:  1.13D+00  7.60D-01  1.03D+00  1.24D+00  1.43D+00
                    CP:  1.41D+00  1.30D+00  1.25D+00  8.98D-01
 E= -727.384386015482     Delta-E=       -0.000000000007 Rises=F Damp=F
 DIIS: error= 8.19D-09 at cycle  20 NSaved=  20.
 NSaved=20 IEnMin=20 EnMin= -727.384386015482     IErMin=20 ErrMin= 8.19D-09
 ErrMax= 8.19D-09  0.00D+00 EMaxC= 1.00D-01 BMatC= 6.09D-14 BMatP= 2.44D-13
 IDIUse=1 WtCom= 1.00D+00 WtEn= 0.00D+00
 Coeff-Com:  0.723D-07-0.177D-06-0.307D-06-0.538D-06 0.446D-05 0.916D-05
 Coeff-Com:  0.218D-04 0.625D-04-0.982D-04-0.420D-03-0.686D-03-0.779D-03
 Coeff-Com:  0.417D-02 0.128D-01 0.625D-02-0.298D-01-0.972D-01-0.157D-01
 Coeff-Com:  0.365D+00 0.756D+00
 Coeff:      0.723D-07-0.177D-06-0.307D-06-0.538D-06 0.446D-05 0.916D-05
 Coeff:      0.218D-04 0.625D-04-0.982D-04-0.420D-03-0.686D-03-0.779D-03
 Coeff:      0.417D-02 0.128D-01 0.625D-02-0.298D-01-0.972D-01-0.157D-01
 Coeff:      0.365D+00 0.756D+00
 Gap=     0.116 Goal=   None    Shift=    0.000
 Gap=     0.146 Goal=   None    Shift=    0.000
 RMSDP=3.47D-09 MaxDP=3.45D-07 DE=-6.59D-12 OVMax= 1.74D-07

 Error on total polarization charges =  0.02271
 SCF Done:  E(UB3LYP) =  -727.384386015     A.U. after   20 cycles
            NFock= 20  Conv=0.35D-08     -V/T= 2.0041
 <Sx>= 0.0000 <Sy>= 0.0000 <Sz>= 0.5000 <S**2>= 0.7587 S= 0.5043
 <L.S>=  0.00000000000    
 KE= 7.243882018943D+02 PE=-3.699417337046D+03 EE= 1.255196060245D+03
 Annihilation of the first spin contaminant:
 S**2 before annihilation     0.7587,   after     0.7500
 Leave Link  502 at Sun Jan 21 08:30:57 2024, MaxMem=  4026531840 cpu:            2276.6 elap:             295.2
 (Enter /sysapps/ubuntu-applications/gaussian/Gaussian/AVX2/g16/l601.exe)
 Copying SCF densities to generalized density rwf, IOpCl= 1 IROHF=0.

 **********************************************************************

            Population analysis using the SCF density.

 **********************************************************************

 Orbital symmetries:
 Alpha Orbitals:
       Occupied  (A) (A) (A) (A) (A) (A) (A) (A) (A) (A) (A) (A)
                 (A) (A) (A) (A) (A) (A) (A) (A) (A) (A) (A) (A)
                 (A) (A) (A) (A) (A) (A) (A) (A) (A) (A) (A) (A)
                 (A) (A) (A) (A) (A) (A) (A) (A) (A) (A) (A) (A)
                 (A) (A) (A) (A) (A) (A) (A) (A) (A)
       Virtual   (A) (A) (A) (A) (A) (A) (A) (A) (A) (A) (A) (A)
                 (A) (A) (A) (A) (A) (A) (A) (A) (A) (A) (A) (A)
                 (A) (A) (A) (A) (A) (A) (A) (A) (A) (A) (A) (A)
                 (A) (A) (A) (A) (A) (A) (A) (A) (A) (A) (A) (A)
                 (A) (A) (A) (A) (A) (A) (A) (A) (A) (A) (A) (A)
                 (A) (A) (A) (A) (A) (A) (A) (A) (A) (A) (A) (A)
                 (A) (A) (A) (A) (A) (A) (A) (A) (A) (A) (A) (A)
                 (A) (A) (A) (A) (A) (A) (A) (A) (A) (A) (A) (A)
                 (A) (A) (A) (A) (A) (A) (A) (A) (A) (A) (A) (A)
                 (A) (A) (A) (A) (A) (A) (A) (A) (A) (A) (A) (A)
                 (A) (A) (A) (A) (A) (A) (A) (A) (A) (A) (A) (A)
                 (A) (A) (A) (A) (A) (A) (A) (A) (A) (A) (A) (A)
                 (A) (A) (A) (A) (A) (A) (A) (A) (A) (A) (A) (A)
                 (A) (A) (A) (A) (A) (A) (A) (A) (A) (A) (A) (A)
                 (A) (A) (A) (A) (A) (A) (A) (A) (A) (A) (A) (A)
                 (A) (A) (A) (A) (A) (A) (A) (A) (A) (A) (A) (A)
                 (A) (A) (A) (A) (A) (A) (A) (A) (A) (A) (A) (A)
                 (A) (A) (A) (A) (A) (A) (A) (A) (A) (A) (A) (A)
                 (A) (A) (A) (A) (A) (A) (A) (A) (A) (A) (A) (A)
                 (A) (A) (A) (A) (A) (A) (A) (A) (A) (A) (A) (A)
                 (A) (A) (A) (A) (A) (A) (A) (A) (A) (A) (A) (A)
                 (A) (A) (A) (A) (A) (A) (A) (A) (A) (A) (A) (A)
                 (A) (A) (A) (A) (A) (A) (A) (A) (A) (A) (A) (A)
                 (A) (A) (A) (A) (A) (A) (A) (A) (A) (A) (A) (A)
                 (A) (A) (A) (A) (A) (A) (A) (A) (A) (A) (A) (A)
                 (A) (A) (A) (A) (A) (A) (A) (A) (A) (A) (A) (A)
                 (A) (A) (A) (A) (A) (A) (A) (A) (A) (A) (A) (A)
                 (A) (A) (A) (A) (A) (A) (A) (A) (A) (A) (A) (A)
                 (A) (A) (A) (A) (A) (A) (A) (A) (A) (A) (A) (A)
                 (A) (A) (A) (A) (A) (A) (A) (A) (A) (A) (A) (A)
                 (A) (A)
 Beta  Orbitals:
       Occupied  (A) (A) (A) (A) (A) (A) (A) (A) (A) (A) (A) (A)
                 (A) (A) (A) (A) (A) (A) (A) (A) (A) (A) (A) (A)
                 (A) (A) (A) (A) (A) (A) (A) (A) (A) (A) (A) (A)
                 (A) (A) (A) (A) (A) (A) (A) (A) (A) (A) (A) (A)
                 (A) (A) (A) (A) (A) (A) (A) (A)
       Virtual   (A) (A) (A) (A) (A) (A) (A) (A) (A) (A) (A) (A)
                 (A) (A) (A) (A) (A) (A) (A) (A) (A) (A) (A) (A)
                 (A) (A) (A) (A) (A) (A) (A) (A) (A) (A) (A) (A)
                 (A) (A) (A) (A) (A) (A) (A) (A) (A) (A) (A) (A)
                 (A) (A) (A) (A) (A) (A) (A) (A) (A) (A) (A) (A)
                 (A) (A) (A) (A) (A) (A) (A) (A) (A) (A) (A) (A)
                 (A) (A) (A) (A) (A) (A) (A) (A) (A) (A) (A) (A)
                 (A) (A) (A) (A) (A) (A) (A) (A) (A) (A) (A) (A)
                 (A) (A) (A) (A) (A) (A) (A) (A) (A) (A) (A) (A)
                 (A) (A) (A) (A) (A) (A) (A) (A) (A) (A) (A) (A)
                 (A) (A) (A) (A) (A) (A) (A) (A) (A) (A) (A) (A)
                 (A) (A) (A) (A) (A) (A) (A) (A) (A) (A) (A) (A)
                 (A) (A) (A) (A) (A) (A) (A) (A) (A) (A) (A) (A)
                 (A) (A) (A) (A) (A) (A) (A) (A) (A) (A) (A) (A)
                 (A) (A) (A) (A) (A) (A) (A) (A) (A) (A) (A) (A)
                 (A) (A) (A) (A) (A) (A) (A) (A) (A) (A) (A) (A)
                 (A) (A) (A) (A) (A) (A) (A) (A) (A) (A) (A) (A)
                 (A) (A) (A) (A) (A) (A) (A) (A) (A) (A) (A) (A)
                 (A) (A) (A) (A) (A) (A) (A) (A) (A) (A) (A) (A)
                 (A) (A) (A) (A) (A) (A) (A) (A) (A) (A) (A) (A)
                 (A) (A) (A) (A) (A) (A) (A) (A) (A) (A) (A) (A)
                 (A) (A) (A) (A) (A) (A) (A) (A) (A) (A) (A) (A)
                 (A) (A) (A) (A) (A) (A) (A) (A) (A) (A) (A) (A)
                 (A) (A) (A) (A) (A) (A) (A) (A) (A) (A) (A) (A)
                 (A) (A) (A) (A) (A) (A) (A) (A) (A) (A) (A) (A)
                 (A) (A) (A) (A) (A) (A) (A) (A) (A) (A) (A) (A)
                 (A) (A) (A) (A) (A) (A) (A) (A) (A) (A) (A) (A)
                 (A) (A) (A) (A) (A) (A) (A) (A) (A) (A) (A) (A)
                 (A) (A) (A) (A) (A) (A) (A) (A) (A) (A) (A) (A)
                 (A) (A) (A) (A) (A) (A) (A) (A) (A) (A) (A) (A)
                 (A) (A) (A)
 The electronic state is 2-A.
 Alpha  occ. eigenvalues --  -19.15514 -19.07726 -19.07382 -10.22921 -10.22898
 Alpha  occ. eigenvalues --  -10.22374 -10.22216 -10.18243 -10.17353 -10.17262
 Alpha  occ. eigenvalues --  -10.17229 -10.17175 -10.17151 -10.16958 -10.16918
 Alpha  occ. eigenvalues --  -10.15829  -1.07148  -1.00002  -0.99780  -0.85744
 Alpha  occ. eigenvalues --   -0.81228  -0.78964  -0.74997  -0.73884  -0.70719
 Alpha  occ. eigenvalues --   -0.66314  -0.62014  -0.60403  -0.57313  -0.55894
 Alpha  occ. eigenvalues --   -0.52840  -0.51435  -0.49059  -0.48875  -0.46323
 Alpha  occ. eigenvalues --   -0.45494  -0.44065  -0.42688  -0.42176  -0.41573
 Alpha  occ. eigenvalues --   -0.40914  -0.40768  -0.39756  -0.37981  -0.37046
 Alpha  occ. eigenvalues --   -0.35743  -0.35451  -0.34244  -0.33438  -0.33070
 Alpha  occ. eigenvalues --   -0.27631  -0.26609  -0.25657  -0.24601  -0.23905
 Alpha  occ. eigenvalues --   -0.23830  -0.14910
 Alpha virt. eigenvalues --   -0.03325  -0.01122  -0.01025  -0.00235   0.00399
 Alpha virt. eigenvalues --    0.01236   0.01842   0.02120   0.02820   0.03648
 Alpha virt. eigenvalues --    0.04342   0.04705   0.04836   0.05634   0.05735
 Alpha virt. eigenvalues --    0.06312   0.06740   0.06924   0.07997   0.08421
 Alpha virt. eigenvalues --    0.09083   0.09192   0.09755   0.10051   0.10528
 Alpha virt. eigenvalues --    0.11263   0.11441   0.11643   0.12085   0.12472
 Alpha virt. eigenvalues --    0.12675   0.13090   0.13282   0.13747   0.13917
 Alpha virt. eigenvalues --    0.14266   0.14705   0.15138   0.15243   0.15385
 Alpha virt. eigenvalues --    0.15785   0.16002   0.16379   0.16587   0.17521
 Alpha virt. eigenvalues --    0.17963   0.18206   0.18331   0.19573   0.20067
 Alpha virt. eigenvalues --    0.20239   0.20445   0.21105   0.21412   0.21824
 Alpha virt. eigenvalues --    0.22357   0.22725   0.23328   0.23622   0.24066
 Alpha virt. eigenvalues --    0.24559   0.25013   0.25451   0.26058   0.26359
 Alpha virt. eigenvalues --    0.26662   0.27048   0.27683   0.28246   0.28820
 Alpha virt. eigenvalues --    0.29540   0.29705   0.30234   0.30420   0.30688
 Alpha virt. eigenvalues --    0.31206   0.31309   0.32065   0.32803   0.33091
 Alpha virt. eigenvalues --    0.33593   0.34449   0.34763   0.35226   0.35660
 Alpha virt. eigenvalues --    0.35741   0.37127   0.37591   0.37974   0.38165
 Alpha virt. eigenvalues --    0.39236   0.40651   0.41402   0.41787   0.42291
 Alpha virt. eigenvalues --    0.42549   0.43993   0.45427   0.48783   0.49001
 Alpha virt. eigenvalues --    0.50245   0.51619   0.52470   0.53029   0.53525
 Alpha virt. eigenvalues --    0.54727   0.54997   0.55809   0.56305   0.56979
 Alpha virt. eigenvalues --    0.57511   0.58539   0.59602   0.59726   0.61175
 Alpha virt. eigenvalues --    0.61536   0.62748   0.63420   0.63967   0.64316
 Alpha virt. eigenvalues --    0.64798   0.65510   0.66933   0.67191   0.67919
 Alpha virt. eigenvalues --    0.68339   0.68594   0.70134   0.70538   0.71555
 Alpha virt. eigenvalues --    0.72864   0.73970   0.74392   0.75496   0.76583
 Alpha virt. eigenvalues --    0.76764   0.78911   0.79600   0.81162   0.81384
 Alpha virt. eigenvalues --    0.81969   0.83405   0.84791   0.85771   0.86437
 Alpha virt. eigenvalues --    0.87547   0.88501   0.90285   0.91133   0.92545
 Alpha virt. eigenvalues --    0.94099   0.94397   0.94865   0.95396   0.96798
 Alpha virt. eigenvalues --    0.97375   0.98596   1.00330   1.01256   1.01933
 Alpha virt. eigenvalues --    1.04100   1.04606   1.05771   1.06971   1.07732
 Alpha virt. eigenvalues --    1.08880   1.09598   1.10403   1.11248   1.12280
 Alpha virt. eigenvalues --    1.12611   1.13213   1.14691   1.15201   1.16714
 Alpha virt. eigenvalues --    1.19982   1.22567   1.24287   1.24887   1.25412
 Alpha virt. eigenvalues --    1.26166   1.30324   1.31108   1.31916   1.32082
 Alpha virt. eigenvalues --    1.36116   1.39067   1.40234   1.43984   1.45933
 Alpha virt. eigenvalues --    1.47609   1.48794   1.50470   1.51510   1.51966
 Alpha virt. eigenvalues --    1.53439   1.54327   1.54861   1.55578   1.57155
 Alpha virt. eigenvalues --    1.57618   1.59164   1.60730   1.61964   1.63012
 Alpha virt. eigenvalues --    1.63637   1.65991   1.67262   1.67885   1.69208
 Alpha virt. eigenvalues --    1.69596   1.71967   1.74009   1.74395   1.75449
 Alpha virt. eigenvalues --    1.76071   1.76875   1.79316   1.80332   1.80685
 Alpha virt. eigenvalues --    1.82140   1.84941   1.85312   1.87292   1.89372
 Alpha virt. eigenvalues --    1.90801   1.91248   1.93180   1.94851   1.95364
 Alpha virt. eigenvalues --    1.96726   1.97468   1.98628   1.99417   2.01234
 Alpha virt. eigenvalues --    2.02433   2.02984   2.03949   2.06670   2.08125
 Alpha virt. eigenvalues --    2.09663   2.14319   2.15453   2.16841   2.17850
 Alpha virt. eigenvalues --    2.19466   2.21355   2.22185   2.24737   2.26631
 Alpha virt. eigenvalues --    2.29361   2.30637   2.32467   2.34590   2.37557
 Alpha virt. eigenvalues --    2.39826   2.44003   2.47708   2.48402   2.50330
 Alpha virt. eigenvalues --    2.50994   2.52394   2.53867   2.57180   2.61757
 Alpha virt. eigenvalues --    2.62514   2.63999   2.66572   2.67518   2.69914
 Alpha virt. eigenvalues --    2.70550   2.71746   2.72824   2.73474   2.74520
 Alpha virt. eigenvalues --    2.74941   2.76951   2.77780   2.78394   2.78610
 Alpha virt. eigenvalues --    2.80050   2.80710   2.81189   2.85951   2.85987
 Alpha virt. eigenvalues --    2.87934   2.89171   2.90109   2.90977   2.93142
 Alpha virt. eigenvalues --    2.94921   2.96423   2.96925   2.97070   3.03677
 Alpha virt. eigenvalues --    3.04697   3.06200   3.10159   3.12640   3.15050
 Alpha virt. eigenvalues --    3.15338   3.19636   3.22660   3.23987   3.24847
 Alpha virt. eigenvalues --    3.27068   3.30679   3.33546   3.34583   3.36052
 Alpha virt. eigenvalues --    3.39325   3.40940   3.44460   3.50231   3.51342
 Alpha virt. eigenvalues --    3.53076   3.55315   3.57552   3.59665   3.65384
 Alpha virt. eigenvalues --    3.70850   3.73666   3.81057   3.81862   3.84691
 Alpha virt. eigenvalues --    3.98376   4.04567   4.07094   4.10844   4.14744
 Alpha virt. eigenvalues --    4.20279   4.22281   4.28350   4.34557   4.40154
 Alpha virt. eigenvalues --    4.79622   4.84904   5.03853   5.08309   5.10244
 Alpha virt. eigenvalues --    5.24779   5.27892   5.43257   5.71926   5.81074
 Alpha virt. eigenvalues --    5.86119  23.58144  23.76040  23.79233  23.87924
 Alpha virt. eigenvalues --   23.93022  23.95379  23.95573  23.96310  24.03498
 Alpha virt. eigenvalues --   24.11689  24.13671  24.19214  24.27093  49.96609
 Alpha virt. eigenvalues --   50.05634  50.09755
  Beta  occ. eigenvalues --  -19.15431 -19.07060 -19.06841 -10.22925 -10.22735
  Beta  occ. eigenvalues --  -10.22234 -10.21999 -10.18243 -10.17319 -10.17244
  Beta  occ. eigenvalues --  -10.17229 -10.17115 -10.17069 -10.16969 -10.16890
  Beta  occ. eigenvalues --  -10.15765  -1.06948  -0.98945  -0.98724  -0.85525
  Beta  occ. eigenvalues --   -0.80964  -0.78727  -0.74795  -0.73708  -0.70470
  Beta  occ. eigenvalues --   -0.65596  -0.61835  -0.60154  -0.57247  -0.55696
  Beta  occ. eigenvalues --   -0.52648  -0.51254  -0.48809  -0.48712  -0.46102
  Beta  occ. eigenvalues --   -0.45395  -0.43876  -0.42494  -0.41814  -0.41088
  Beta  occ. eigenvalues --   -0.40335  -0.40052  -0.39465  -0.36967  -0.35948
  Beta  occ. eigenvalues --   -0.35334  -0.34874  -0.34176  -0.33206  -0.31792
  Beta  occ. eigenvalues --   -0.27552  -0.24990  -0.24599  -0.24023  -0.23361
  Beta  occ. eigenvalues --   -0.22957
  Beta virt. eigenvalues --   -0.08337  -0.02574  -0.01078  -0.00224   0.00094
  Beta virt. eigenvalues --    0.00402   0.01252   0.01863   0.02125   0.02844
  Beta virt. eigenvalues --    0.03666   0.04369   0.04849   0.05280   0.05704
  Beta virt. eigenvalues --    0.06256   0.06550   0.06980   0.07341   0.08035
  Beta virt. eigenvalues --    0.08521   0.09131   0.09594   0.10014   0.10106
  Beta virt. eigenvalues --    0.10571   0.11301   0.11456   0.11716   0.12121
  Beta virt. eigenvalues --    0.12548   0.12719   0.13138   0.13328   0.13835
  Beta virt. eigenvalues --    0.14014   0.14302   0.14775   0.15154   0.15290
  Beta virt. eigenvalues --    0.15428   0.15889   0.16045   0.16399   0.16647
  Beta virt. eigenvalues --    0.17561   0.17985   0.18239   0.18520   0.19623
  Beta virt. eigenvalues --    0.20103   0.20271   0.20518   0.21208   0.21527
  Beta virt. eigenvalues --    0.21891   0.22793   0.22952   0.23449   0.23723
  Beta virt. eigenvalues --    0.24108   0.24634   0.25054   0.25604   0.26147
  Beta virt. eigenvalues --    0.26443   0.26762   0.27158   0.27742   0.28297
  Beta virt. eigenvalues --    0.28913   0.29687   0.29809   0.30446   0.30569
  Beta virt. eigenvalues --    0.30883   0.31413   0.31538   0.32109   0.32976
  Beta virt. eigenvalues --    0.33234   0.33710   0.34586   0.34866   0.35270
  Beta virt. eigenvalues --    0.35726   0.35805   0.37266   0.37650   0.38067
  Beta virt. eigenvalues --    0.38220   0.39340   0.40734   0.41463   0.41818
  Beta virt. eigenvalues --    0.42422   0.42925   0.44139   0.45560   0.48853
  Beta virt. eigenvalues --    0.49134   0.50352   0.51665   0.52606   0.53157
  Beta virt. eigenvalues --    0.53675   0.54795   0.55102   0.56224   0.56447
  Beta virt. eigenvalues --    0.57187   0.57561   0.58576   0.59705   0.59902
  Beta virt. eigenvalues --    0.61268   0.61651   0.62864   0.63735   0.64125
  Beta virt. eigenvalues --    0.64525   0.65184   0.65723   0.66999   0.67337
  Beta virt. eigenvalues --    0.68091   0.68476   0.68784   0.70242   0.70604
  Beta virt. eigenvalues --    0.71964   0.72936   0.74026   0.74425   0.75530
  Beta virt. eigenvalues --    0.76719   0.76930   0.78987   0.79637   0.81238
  Beta virt. eigenvalues --    0.81410   0.82015   0.83571   0.84864   0.85834
  Beta virt. eigenvalues --    0.86484   0.87637   0.88571   0.90348   0.91323
  Beta virt. eigenvalues --    0.92606   0.94367   0.94507   0.95005   0.95468
  Beta virt. eigenvalues --    0.97186   0.97800   0.98721   1.00547   1.01388
  Beta virt. eigenvalues --    1.02125   1.04173   1.04983   1.05929   1.07016
  Beta virt. eigenvalues --    1.08026   1.09137   1.09771   1.10693   1.11399
  Beta virt. eigenvalues --    1.12562   1.12911   1.14021   1.15060   1.15663
  Beta virt. eigenvalues --    1.17647   1.20199   1.22702   1.25147   1.25250
  Beta virt. eigenvalues --    1.25888   1.26722   1.30481   1.31498   1.32102
  Beta virt. eigenvalues --    1.32420   1.36240   1.39264   1.40404   1.43999
  Beta virt. eigenvalues --    1.46084   1.47626   1.48894   1.50944   1.51631
  Beta virt. eigenvalues --    1.52007   1.53524   1.54460   1.55090   1.55589
  Beta virt. eigenvalues --    1.57238   1.57728   1.59205   1.60823   1.62160
  Beta virt. eigenvalues --    1.63092   1.63905   1.66123   1.67310   1.67933
  Beta virt. eigenvalues --    1.69474   1.69886   1.72200   1.74144   1.74477
  Beta virt. eigenvalues --    1.75807   1.76217   1.77050   1.79550   1.80541
  Beta virt. eigenvalues --    1.81028   1.82417   1.85295   1.85390   1.87371
  Beta virt. eigenvalues --    1.89838   1.91115   1.91430   1.93363   1.95071
  Beta virt. eigenvalues --    1.95462   1.97053   1.97649   1.98804   1.99512
  Beta virt. eigenvalues --    2.01366   2.02684   2.03222   2.04185   2.06802
  Beta virt. eigenvalues --    2.08265   2.09719   2.14450   2.15592   2.17147
  Beta virt. eigenvalues --    2.17987   2.19602   2.21437   2.22374   2.24888
  Beta virt. eigenvalues --    2.26670   2.29457   2.30943   2.32806   2.34707
  Beta virt. eigenvalues --    2.37881   2.40112   2.44104   2.47721   2.48419
  Beta virt. eigenvalues --    2.50366   2.51057   2.52464   2.53962   2.57236
  Beta virt. eigenvalues --    2.62030   2.62666   2.64443   2.66710   2.67835
  Beta virt. eigenvalues --    2.70006   2.70614   2.71815   2.72921   2.73630
  Beta virt. eigenvalues --    2.74955   2.75051   2.76989   2.77928   2.78627
  Beta virt. eigenvalues --    2.79007   2.80190   2.80818   2.81476   2.86035
  Beta virt. eigenvalues --    2.86679   2.88749   2.89799   2.90428   2.91145
  Beta virt. eigenvalues --    2.93988   2.96267   2.96981   2.97975   2.98059
  Beta virt. eigenvalues --    3.03959   3.05275   3.06610   3.10516   3.12823
  Beta virt. eigenvalues --    3.15181   3.15541   3.20124   3.22767   3.24375
  Beta virt. eigenvalues --    3.25040   3.27270   3.30743   3.34640   3.35057
  Beta virt. eigenvalues --    3.37633   3.39482   3.41058   3.44616   3.50439
  Beta virt. eigenvalues --    3.51489   3.53238   3.55485   3.57731   3.59762
  Beta virt. eigenvalues --    3.65589   3.71018   3.73702   3.81261   3.82101
  Beta virt. eigenvalues --    3.85054   3.98387   4.04646   4.07214   4.10952
  Beta virt. eigenvalues --    4.14953   4.20407   4.22536   4.28679   4.34614
  Beta virt. eigenvalues --    4.40455   4.80123   4.85006   5.04639   5.10566
  Beta virt. eigenvalues --    5.12533   5.25267   5.28349   5.43399   5.72338
  Beta virt. eigenvalues --    5.81458   5.86460  23.58219  23.76043  23.79369
  Beta virt. eigenvalues --   23.87927  23.93204  23.95420  23.95778  23.96399
  Beta virt. eigenvalues --   24.03563  24.11714  24.13775  24.19245  24.27093
  Beta virt. eigenvalues --   49.96747  50.06184  50.10358
          Condensed to atoms (all electrons):
               1          2          3          4          5          6
     1  C    8.930866   0.157313  -1.150802  -0.802565  -3.050656   2.072713
     2  C    0.157313   7.089208   0.126666  -0.249240  -1.169744  -0.369822
     3  C   -1.150802   0.126666   6.839417   0.046233   0.708533  -0.142528
     4  C   -0.802565  -0.249240   0.046233  21.108882  -5.185158  -1.930196
     5  C   -3.050656  -1.169744   0.708533  -5.185158  24.370617  -2.460461
     6  C    2.072713  -0.369822  -0.142528  -1.930196  -2.460461   9.534331
     7  C   -1.282319   0.020852   0.171024  -1.506240   0.241840  -0.037591
     8  C    0.462536   0.060651  -0.075712  -4.070916  -0.719610  -0.448079
     9  C    0.283914   0.085897  -0.134439  -3.142907  -3.549664   0.885480
    10  C   -0.294922   0.275507  -0.395713   2.210031  -3.051788  -1.813202
    11  O    0.241658   0.093284  -0.017204  -0.291078  -0.388661   0.010006
    12  O   -0.018872  -0.013803   0.070245  -0.342558  -0.120282   0.206956
    13  H    0.386234  -0.102915   0.005725  -0.071526   0.059604   0.030606
    14  H    0.040529   0.020025  -0.126860   0.096947  -0.123915   0.422570
    15  O    0.020021   0.001593   0.000373  -0.036681   0.008960  -0.013536
    16  C   -0.037369  -0.003433   0.005373   0.032350   0.078161  -0.037698
    17  C   -0.003448  -0.000484   0.000180   0.045929   0.027483   0.000841
    18  C    0.000871   0.000147   0.000075   0.009460  -0.003760  -0.000036
    19  H   -0.085116   0.469448  -0.036542   0.024205  -0.063329   0.001236
    20  H   -0.028244  -0.062945   0.469807  -0.034199   0.068431  -0.091606
    21  H   -0.016912   0.004348   0.001085   0.072057  -0.198868  -0.003732
    22  H    0.004640   0.000347  -0.000123  -0.027322   0.013302   0.002578
    23  H    0.003787   0.000413  -0.000364  -0.012870   0.009502   0.000046
    24  H   -0.001497  -0.000082  -0.000025  -0.006026   0.001335  -0.001012
    25  H   -0.000142  -0.000005  -0.000004   0.000595  -0.000265  -0.000187
    26  H    0.000047   0.000004   0.000004   0.000372  -0.000206   0.000060
               7          8          9         10         11         12
     1  C   -1.282319   0.462536   0.283914  -0.294922   0.241658  -0.018872
     2  C    0.020852   0.060651   0.085897   0.275507   0.093284  -0.013803
     3  C    0.171024  -0.075712  -0.134439  -0.395713  -0.017204   0.070245
     4  C   -1.506240  -4.070916  -3.142907   2.210031  -0.291078  -0.342558
     5  C    0.241840  -0.719610  -3.549664  -3.051788  -0.388661  -0.120282
     6  C   -0.037591  -0.448079   0.885480  -1.813202   0.010006   0.206956
     7  C   11.979081   0.171090  -3.712927  -0.599518   0.740318   0.018826
     8  C    0.171090  16.600299  -3.551497  -2.026424  -0.316974   0.058722
     9  C   -3.712927  -3.551497  17.278677   1.913605  -0.052006  -0.166419
    10  C   -0.599518  -2.026424   1.913605   9.893144   0.022206   0.335826
    11  O    0.740318  -0.316974  -0.052006   0.022206   8.398733  -0.000037
    12  O    0.018826   0.058722  -0.166419   0.335826  -0.000037   8.461139
    13  H    0.040107   0.003427   0.003875  -0.011772  -0.005055   0.000609
    14  H    0.004410  -0.019880   0.004076   0.024518   0.000650  -0.004429
    15  O   -0.308425  -0.034327   0.287379   0.063127   0.046152  -0.001322
    16  C    0.562457   0.117113  -0.779419  -0.337311   0.014294   0.015625
    17  C    0.049880   0.750655  -0.852939  -0.051425  -0.005114   0.002926
    18  C    0.025300  -0.038273  -0.011763   0.007897   0.001204  -0.000054
    19  H    0.019393   0.007567  -0.001855  -0.009672   0.002531  -0.000308
    20  H   -0.016840  -0.002409   0.004571   0.015267  -0.000438   0.002649
    21  H   -0.055425  -0.222444   0.693459   0.053178   0.001280  -0.020057
    22  H   -0.037127  -0.068850   0.043973   0.021722  -0.001331   0.001153
    23  H   -0.019095  -0.129767   0.151818   0.029904  -0.000235   0.000576
    24  H    0.012377   0.012804  -0.032821  -0.006929  -0.001627   0.000020
    25  H    0.003859   0.008941  -0.011382  -0.002748  -0.000080   0.000002
    26  H   -0.001368  -0.000734   0.001178   0.000709   0.000087  -0.000004
              13         14         15         16         17         18
     1  C    0.386234   0.040529   0.020021  -0.037369  -0.003448   0.000871
     2  C   -0.102915   0.020025   0.001593  -0.003433  -0.000484   0.000147
     3  C    0.005725  -0.126860   0.000373   0.005373   0.000180   0.000075
     4  C   -0.071526   0.096947  -0.036681   0.032350   0.045929   0.009460
     5  C    0.059604  -0.123915   0.008960   0.078161   0.027483  -0.003760
     6  C    0.030606   0.422570  -0.013536  -0.037698   0.000841  -0.000036
     7  C    0.040107   0.004410  -0.308425   0.562457   0.049880   0.025300
     8  C    0.003427  -0.019880  -0.034327   0.117113   0.750655  -0.038273
     9  C    0.003875   0.004076   0.287379  -0.779419  -0.852939  -0.011763
    10  C   -0.011772   0.024518   0.063127  -0.337311  -0.051425   0.007897
    11  O   -0.005055   0.000650   0.046152   0.014294  -0.005114   0.001204
    12  O    0.000609  -0.004429  -0.001322   0.015625   0.002926  -0.000054
    13  H    0.516634   0.001522  -0.000901  -0.001615  -0.000307  -0.000037
    14  H    0.001522   0.518059  -0.000043  -0.002698  -0.000179  -0.000002
    15  O   -0.000901  -0.000043   8.285555   0.167387  -0.245326   0.006712
    16  C   -0.001615  -0.002698   0.167387   6.293374  -0.688198   0.075930
    17  C   -0.000307  -0.000179  -0.245326  -0.688198   6.596534   0.287958
    18  C   -0.000037  -0.000002   0.006712   0.075930   0.287958   5.372208
    19  H   -0.015414   0.000930  -0.000029  -0.000128   0.000020  -0.000001
    20  H    0.000335  -0.016421   0.000051   0.000013  -0.000022  -0.000001
    21  H   -0.000080   0.001031  -0.031413   0.012400  -0.027258  -0.000186
    22  H    0.000049   0.000040  -0.038483   0.361538  -0.001076  -0.002685
    23  H   -0.000030   0.000038  -0.042481   0.473096  -0.153212  -0.002948
    24  H    0.000025  -0.000013  -0.005979   0.023561   0.348823  -0.062538
    25  H   -0.000003  -0.000004  -0.000489  -0.002473  -0.015618   0.368935
    26  H   -0.000002   0.000001  -0.001668   0.024014  -0.084333   0.436478
              19         20         21         22         23         24
     1  C   -0.085116  -0.028244  -0.016912   0.004640   0.003787  -0.001497
     2  C    0.469448  -0.062945   0.004348   0.000347   0.000413  -0.000082
     3  C   -0.036542   0.469807   0.001085  -0.000123  -0.000364  -0.000025
     4  C    0.024205  -0.034199   0.072057  -0.027322  -0.012870  -0.006026
     5  C   -0.063329   0.068431  -0.198868   0.013302   0.009502   0.001335
     6  C    0.001236  -0.091606  -0.003732   0.002578   0.000046  -0.001012
     7  C    0.019393  -0.016840  -0.055425  -0.037127  -0.019095   0.012377
     8  C    0.007567  -0.002409  -0.222444  -0.068850  -0.129767   0.012804
     9  C   -0.001855   0.004571   0.693459   0.043973   0.151818  -0.032821
    10  C   -0.009672   0.015267   0.053178   0.021722   0.029904  -0.006929
    11  O    0.002531  -0.000438   0.001280  -0.001331  -0.000235  -0.001627
    12  O   -0.000308   0.002649  -0.020057   0.001153   0.000576   0.000020
    13  H   -0.015414   0.000335  -0.000080   0.000049  -0.000030   0.000025
    14  H    0.000930  -0.016421   0.001031   0.000040   0.000038  -0.000013
    15  O   -0.000029   0.000051  -0.031413  -0.038483  -0.042481  -0.005979
    16  C   -0.000128   0.000013   0.012400   0.361538   0.473096   0.023561
    17  C    0.000020  -0.000022  -0.027258  -0.001076  -0.153212   0.348823
    18  C   -0.000001  -0.000001  -0.000186  -0.002685  -0.002948  -0.062538
    19  H    0.519460  -0.013743  -0.000017  -0.000012   0.000006  -0.000003
    20  H   -0.013743   0.524338  -0.000135  -0.000015   0.000003  -0.000000
    21  H   -0.000017  -0.000135   0.555977  -0.021413  -0.004668  -0.000754
    22  H   -0.000012  -0.000015  -0.021413   0.664431  -0.083739   0.010925
    23  H    0.000006   0.000003  -0.004668  -0.083739   0.618072  -0.008252
    24  H   -0.000003  -0.000000  -0.000754   0.010925  -0.008252   0.527643
    25  H    0.000000   0.000000   0.000494  -0.001307   0.001571   0.009337
    26  H   -0.000000  -0.000000   0.000213   0.001336  -0.003748  -0.017213
              25         26
     1  C   -0.000142   0.000047
     2  C   -0.000005   0.000004
     3  C   -0.000004   0.000004
     4  C    0.000595   0.000372
     5  C   -0.000265  -0.000206
     6  C   -0.000187   0.000060
     7  C    0.003859  -0.001368
     8  C    0.008941  -0.000734
     9  C   -0.011382   0.001178
    10  C   -0.002748   0.000709
    11  O   -0.000080   0.000087
    12  O    0.000002  -0.000004
    13  H   -0.000003  -0.000002
    14  H   -0.000004   0.000001
    15  O   -0.000489  -0.001668
    16  C   -0.002473   0.024014
    17  C   -0.015618  -0.084333
    18  C    0.368935   0.436478
    19  H    0.000000  -0.000000
    20  H    0.000000  -0.000000
    21  H    0.000494   0.000213
    22  H   -0.001307   0.001336
    23  H    0.001571  -0.003748
    24  H    0.009337  -0.017213
    25  H    0.527811  -0.031634
    26  H   -0.031634   0.512926
          Atomic-Atomic Spin Densities.
               1          2          3          4          5          6
     1  C   -0.008025  -0.001028  -0.008983  -0.097951   0.111899  -0.006936
     2  C   -0.001028   0.000995  -0.017304  -0.043853   0.080200  -0.001775
     3  C   -0.008983  -0.017304   0.044411   0.089115  -0.061752  -0.007644
     4  C   -0.097951  -0.043853   0.089115  -0.195854  -0.014613   0.080934
     5  C    0.111899   0.080200  -0.061752  -0.014613  -0.149743  -0.058485
     6  C   -0.006936  -0.001775  -0.007644   0.080934  -0.058485  -0.056422
     7  C    0.059550   0.009637  -0.006333   0.176519  -0.086222  -0.017811
     8  C   -0.001322  -0.008788   0.006861   0.131101  -0.020030   0.008328
     9  C    0.012946   0.008651  -0.007780   0.037284   0.108716  -0.003061
    10  C   -0.005064  -0.009803   0.026939  -0.112110   0.156416   0.074843
    11  O    0.015127  -0.003871   0.000660  -0.059277   0.002077  -0.001404
    12  O   -0.001128  -0.000125  -0.005749   0.012987  -0.032592  -0.001973
    13  H   -0.003747  -0.001526   0.001148   0.003926   0.008816  -0.000943
    14  H    0.000074   0.000858  -0.000488   0.005529   0.000420  -0.002333
    15  O   -0.001120  -0.000341   0.000051  -0.009880   0.007656   0.000907
    16  C   -0.001238  -0.000086  -0.000136  -0.000159   0.001601  -0.000469
    17  C    0.000445   0.000038  -0.000023  -0.003619  -0.000206   0.000179
    18  C   -0.000023   0.000007   0.000006  -0.000812   0.000060  -0.000028
    19  H    0.001564  -0.000706  -0.000901  -0.000259  -0.000116   0.000458
    20  H   -0.000150  -0.000411  -0.001575  -0.000154   0.000139   0.002098
    21  H    0.000475   0.000186  -0.000142   0.000455  -0.001275  -0.000063
    22  H   -0.000309  -0.000085   0.000049  -0.000251  -0.000492  -0.000018
    23  H   -0.000013   0.000032  -0.000020   0.002441  -0.000770   0.000314
    24  H   -0.000064  -0.000020   0.000004  -0.000678   0.000168  -0.000011
    25  H   -0.000007  -0.000000   0.000001  -0.000095   0.000030   0.000002
    26  H    0.000005   0.000000  -0.000000   0.000023  -0.000002  -0.000000
               7          8          9         10         11         12
     1  C    0.059550  -0.001322   0.012946  -0.005064   0.015127  -0.001128
     2  C    0.009637  -0.008788   0.008651  -0.009803  -0.003871  -0.000125
     3  C   -0.006333   0.006861  -0.007780   0.026939   0.000660  -0.005749
     4  C    0.176519   0.131101   0.037284  -0.112110  -0.059277   0.012987
     5  C   -0.086222  -0.020030   0.108716   0.156416   0.002077  -0.032592
     6  C   -0.017811   0.008328  -0.003061   0.074843  -0.001404  -0.001973
     7  C   -0.016600   0.064108   0.021221   0.025478  -0.085525  -0.001383
     8  C    0.064108   0.165902  -0.180440  -0.017436   0.010808   0.004857
     9  C    0.021221  -0.180440  -0.002804   0.007331   0.013790  -0.013258
    10  C    0.025478  -0.017436   0.007331  -0.020578  -0.000390  -0.041465
    11  O   -0.085525   0.010808   0.013790  -0.000390   0.361131  -0.000166
    12  O   -0.001383   0.004857  -0.013258  -0.041465  -0.000166   0.276818
    13  H   -0.001945  -0.002682  -0.000542   0.000258  -0.003212  -0.000005
    14  H   -0.000024   0.000313  -0.001675  -0.000393   0.000015  -0.002623
    15  O   -0.010871  -0.049949   0.031439  -0.001527   0.002807  -0.000079
    16  C    0.005509  -0.011697   0.009907   0.001544  -0.000995  -0.000671
    17  C   -0.006082   0.020603  -0.008336  -0.001111   0.000098  -0.000025
    18  C   -0.000524  -0.004568   0.002172   0.000726   0.000005  -0.000002
    19  H    0.000008  -0.000037   0.000155  -0.000045  -0.000031   0.000001
    20  H    0.000150   0.000073  -0.000139   0.000205   0.000008   0.000039
    21  H   -0.000399   0.004121   0.000101  -0.003967   0.000068   0.000045
    22  H    0.001163   0.010717  -0.011344  -0.000875  -0.000204   0.000258
    23  H   -0.000018  -0.003061   0.000182   0.001034  -0.000382   0.000347
    24  H   -0.000209   0.001199  -0.000779  -0.000199   0.000093  -0.000013
    25  H   -0.000090   0.000064   0.000042   0.000012  -0.000020  -0.000001
    26  H   -0.000023   0.000010   0.000077   0.000013   0.000012   0.000000
              13         14         15         16         17         18
     1  C   -0.003747   0.000074  -0.001120  -0.001238   0.000445  -0.000023
     2  C   -0.001526   0.000858  -0.000341  -0.000086   0.000038   0.000007
     3  C    0.001148  -0.000488   0.000051  -0.000136  -0.000023   0.000006
     4  C    0.003926   0.005529  -0.009880  -0.000159  -0.003619  -0.000812
     5  C    0.008816   0.000420   0.007656   0.001601  -0.000206   0.000060
     6  C   -0.000943  -0.002333   0.000907  -0.000469   0.000179  -0.000028
     7  C   -0.001945  -0.000024  -0.010871   0.005509  -0.006082  -0.000524
     8  C   -0.002682   0.000313  -0.049949  -0.011697   0.020603  -0.004568
     9  C   -0.000542  -0.001675   0.031439   0.009907  -0.008336   0.002172
    10  C    0.000258  -0.000393  -0.001527   0.001544  -0.001111   0.000726
    11  O   -0.003212   0.000015   0.002807  -0.000995   0.000098   0.000005
    12  O   -0.000005  -0.002623  -0.000079  -0.000671  -0.000025  -0.000002
    13  H   -0.002939  -0.000117   0.000082   0.000054   0.000002  -0.000003
    14  H   -0.000117  -0.000500  -0.000019   0.000046   0.000012   0.000000
    15  O    0.000082  -0.000019   0.050128   0.003091  -0.003596   0.000657
    16  C    0.000054   0.000046   0.003091   0.010679  -0.014302   0.001749
    17  C    0.000002   0.000012  -0.003596  -0.014302   0.021744  -0.005740
    18  C   -0.000003   0.000000   0.000657   0.001749  -0.005740   0.003732
    19  H   -0.000191   0.000064  -0.000004   0.000001   0.000000  -0.000000
    20  H    0.000085  -0.000162   0.000001  -0.000010  -0.000002  -0.000000
    21  H   -0.000027   0.000081   0.001225   0.001225   0.000027  -0.000113
    22  H   -0.000001  -0.000006  -0.003010  -0.006955   0.002137   0.004184
    23  H    0.000007  -0.000001  -0.001376   0.007327  -0.002040  -0.004438
    24  H    0.000002  -0.000000   0.000623  -0.004323   0.000370   0.001780
    25  H    0.000000   0.000000  -0.000020  -0.000581   0.000859  -0.000359
    26  H   -0.000000   0.000000  -0.000001   0.000339  -0.001011   0.000680
              19         20         21         22         23         24
     1  C    0.001564  -0.000150   0.000475  -0.000309  -0.000013  -0.000064
     2  C   -0.000706  -0.000411   0.000186  -0.000085   0.000032  -0.000020
     3  C   -0.000901  -0.001575  -0.000142   0.000049  -0.000020   0.000004
     4  C   -0.000259  -0.000154   0.000455  -0.000251   0.002441  -0.000678
     5  C   -0.000116   0.000139  -0.001275  -0.000492  -0.000770   0.000168
     6  C    0.000458   0.002098  -0.000063  -0.000018   0.000314  -0.000011
     7  C    0.000008   0.000150  -0.000399   0.001163  -0.000018  -0.000209
     8  C   -0.000037   0.000073   0.004121   0.010717  -0.003061   0.001199
     9  C    0.000155  -0.000139   0.000101  -0.011344   0.000182  -0.000779
    10  C   -0.000045   0.000205  -0.003967  -0.000875   0.001034  -0.000199
    11  O   -0.000031   0.000008   0.000068  -0.000204  -0.000382   0.000093
    12  O    0.000001   0.000039   0.000045   0.000258   0.000347  -0.000013
    13  H   -0.000191   0.000085  -0.000027  -0.000001   0.000007   0.000002
    14  H    0.000064  -0.000162   0.000081  -0.000006  -0.000001  -0.000000
    15  O   -0.000004   0.000001   0.001225  -0.003010  -0.001376   0.000623
    16  C    0.000001  -0.000010   0.001225  -0.006955   0.007327  -0.004323
    17  C    0.000000  -0.000002   0.000027   0.002137  -0.002040   0.000370
    18  C   -0.000000  -0.000000  -0.000113   0.004184  -0.004438   0.001780
    19  H   -0.001473   0.000165   0.000003  -0.000001   0.000001  -0.000000
    20  H    0.000165  -0.004049  -0.000006   0.000000   0.000001  -0.000000
    21  H    0.000003  -0.000006  -0.007945  -0.000042   0.000346  -0.000007
    22  H   -0.000001   0.000000  -0.000042   0.009706  -0.005002   0.001607
    23  H    0.000001   0.000001   0.000346  -0.005002   0.007972  -0.001859
    24  H   -0.000000  -0.000000  -0.000007   0.001607  -0.001859   0.002204
    25  H   -0.000000  -0.000000   0.000002   0.000050  -0.000021   0.000050
    26  H    0.000000   0.000000  -0.000000  -0.000055   0.000016   0.000026
              25         26
     1  C   -0.000007   0.000005
     2  C   -0.000000   0.000000
     3  C    0.000001  -0.000000
     4  C   -0.000095   0.000023
     5  C    0.000030  -0.000002
     6  C    0.000002  -0.000000
     7  C   -0.000090  -0.000023
     8  C    0.000064   0.000010
     9  C    0.000042   0.000077
    10  C    0.000012   0.000013
    11  O   -0.000020   0.000012
    12  O   -0.000001   0.000000
    13  H    0.000000  -0.000000
    14  H    0.000000   0.000000
    15  O   -0.000020  -0.000001
    16  C   -0.000581   0.000339
    17  C    0.000859  -0.001011
    18  C   -0.000359   0.000680
    19  H   -0.000000   0.000000
    20  H   -0.000000   0.000000
    21  H    0.000002  -0.000000
    22  H    0.000050  -0.000055
    23  H   -0.000021   0.000016
    24  H    0.000050   0.000026
    25  H    0.000004   0.000093
    26  H    0.000093  -0.000182
 Mulliken charges and spin densities:
               1          2
     1  C    0.167736   0.064978
     2  C   -0.433230   0.010882
     3  C   -0.364424   0.050412
     4  C    0.062421   0.000750
     5  C    0.498597   0.051904
     6  C    0.182265   0.008687
     7  C   -0.483939   0.129285
     8  C   -0.527908   0.129052
     9  C    0.362135   0.023858
    10  C   -0.265220   0.079837
    11  O   -0.492567   0.251221
    12  O   -0.487128   0.194093
    13  H    0.160908  -0.003500
    14  H    0.159097  -0.000928
    15  O   -0.126208   0.016875
    16  C   -0.366342   0.001453
    17  C    0.017712   0.000423
    18  C   -0.470892  -0.000853
    19  H    0.181372  -0.001346
    20  H    0.181551  -0.003693
    21  H    0.207841  -0.005626
    22  H    0.157449   0.001221
    23  H    0.172579   0.001019
    24  H    0.197919  -0.000039
    25  H    0.144792   0.000016
    26  H    0.163482   0.000022
 Sum of Mulliken charges =  -1.00000   1.00000
 Mulliken charges and spin densities with hydrogens summed into heavy atoms:
               1          2
     1  C    0.328644   0.061477
     2  C   -0.251858   0.009536
     3  C   -0.182872   0.046719
     4  C    0.062421   0.000750
     5  C    0.498597   0.051904
     6  C    0.341362   0.007758
     7  C   -0.483939   0.129285
     8  C   -0.527908   0.129052
     9  C    0.569976   0.018231
    10  C   -0.265220   0.079837
    11  O   -0.492567   0.251221
    12  O   -0.487128   0.194093
    15  O   -0.126208   0.016875
    16  C   -0.036313   0.003693
    17  C    0.215631   0.000384
    18  C   -0.162618  -0.000816
 Electronic spatial extent (au):  <R**2>=           4414.5832
 Charge=             -1.0000 electrons
 Dipole moment (field-independent basis, Debye):
    X=             -3.1543    Y=             -0.0401    Z=              0.1582  Tot=              3.1585
 Quadrupole moment (field-independent basis, Debye-Ang):
   XX=            -90.7830   YY=           -132.7005   ZZ=            -98.9102
   XY=            -14.2622   XZ=             -0.2577   YZ=             -1.5463
 Traceless Quadrupole moment (field-independent basis, Debye-Ang):
   XX=             16.6815   YY=            -25.2359   ZZ=              8.5544
   XY=            -14.2622   XZ=             -0.2577   YZ=             -1.5463
 Octapole moment (field-independent basis, Debye-Ang**2):
  XXX=            -36.4434  YYY=            -40.7119  ZZZ=              1.4095  XYY=            -18.7946
  XXY=             -4.6477  XXZ=             -5.2182  XZZ=            -15.6205  YZZ=              1.0968
  YYZ=             -0.0856  XYZ=              7.6120
 Hexadecapole moment (field-independent basis, Debye-Ang**3):
 XXXX=          -4462.1542 YYYY=          -1512.5682 ZZZZ=           -141.5814 XXXY=             12.4251
 XXXZ=             42.9264 YYYX=           -109.3718 YYYZ=             -4.2659 ZZZX=             -0.8213
 ZZZY=             -3.1403 XXYY=          -1004.8666 XXZZ=           -892.4070 YYZZ=           -226.5284
 XXYZ=            -39.1104 YYXZ=             -4.4084 ZZXY=              3.1908
 N-N= 9.924486888907D+02 E-N=-3.699417336601D+03  KE= 7.243882018943D+02
                          Isotropic Fermi Contact Couplings
        Atom                 a.u.       MegaHertz       Gauss      10(-4) cm-1
     1  C(13)             -0.00068      -0.76117      -0.27160      -0.25390
     2  C(13)             -0.00126      -1.41649      -0.50544      -0.47249
     3  C(13)              0.00211       2.36972       0.84558       0.79045
     4  C(13)             -0.00648      -7.28780      -2.60047      -2.43095
     5  C(13)             -0.00103      -1.16112      -0.41432      -0.38731
     6  C(13)             -0.00370      -4.15439      -1.48239      -1.38576
     7  C(13)             -0.00366      -4.10999      -1.46655      -1.37094
     8  C(13)             -0.00120      -1.34657      -0.48049      -0.44917
     9  C(13)             -0.00464      -5.21320      -1.86020      -1.73894
    10  C(13)             -0.00391      -4.40046      -1.57019      -1.46784
    11  O(17)              0.02446     -14.82816      -5.29106      -4.94614
    12  O(17)              0.02061     -12.49203      -4.45747      -4.16689
    13  H(1)              -0.00042      -1.88185      -0.67149      -0.62772
    14  H(1)               0.00003       0.12768       0.04556       0.04259
    15  O(17)              0.00343      -2.07755      -0.74132      -0.69300
    16  C(13)             -0.00110      -1.23916      -0.44216      -0.41334
    17  C(13)             -0.00009      -0.10417      -0.03717      -0.03475
    18  C(13)             -0.00010      -0.11544      -0.04119      -0.03851
    19  H(1)              -0.00024      -1.07100      -0.38216      -0.35725
    20  H(1)              -0.00073      -3.28432      -1.17193      -1.09553
    21  H(1)              -0.00097      -4.31842      -1.54092      -1.44047
    22  H(1)               0.00083       3.71914       1.32708       1.24057
    23  H(1)               0.00087       3.87626       1.38315       1.29298
    24  H(1)              -0.00002      -0.07616      -0.02717      -0.02540
    25  H(1)               0.00001       0.04686       0.01672       0.01563
    26  H(1)               0.00001       0.02360       0.00842       0.00787
 --------------------------------------------------------
       Center         ----  Spin Dipole Couplings  ----
                      3XX-RR        3YY-RR        3ZZ-RR
 --------------------------------------------------------
     1   Atom       -0.007776     -0.015452      0.023228
     2   Atom       -0.006225     -0.008227      0.014452
     3   Atom       -0.024662     -0.027706      0.052368
     4   Atom       -0.017300     -0.022939      0.040239
     5   Atom       -0.037423     -0.038813      0.076236
     6   Atom        0.008585      0.001383     -0.009968
     7   Atom       -0.111376     -0.086892      0.198268
     8   Atom       -0.073895     -0.073611      0.147506
     9   Atom       -0.032941     -0.030564      0.063505
    10   Atom       -0.074313     -0.054350      0.128663
    11   Atom       -0.508761     -0.520272      1.029033
    12   Atom       -0.412069     -0.420669      0.832737
    13   Atom        0.003299      0.000345     -0.003645
    14   Atom        0.004508     -0.001040     -0.003468
    15   Atom       -0.065134     -0.072195      0.137330
    16   Atom        0.003340     -0.000594     -0.002746
    17   Atom        0.002050     -0.001004     -0.001046
    18   Atom        0.001354     -0.000647     -0.000707
    19   Atom        0.002280     -0.000864     -0.001415
    20   Atom        0.004941     -0.003958     -0.000983
    21   Atom        0.005354     -0.000999     -0.004355
    22   Atom        0.002275     -0.000346     -0.001929
    23   Atom        0.002187     -0.000501     -0.001686
    24   Atom        0.002000     -0.000939     -0.001061
    25   Atom        0.000995     -0.000433     -0.000562
    26   Atom        0.000804     -0.000377     -0.000426
 --------------------------------------------------------
                        XY            XZ            YZ
 --------------------------------------------------------
     1   Atom       -0.001176      0.000662     -0.000515
     2   Atom        0.000007      0.000239     -0.000209
     3   Atom        0.000143      0.001236     -0.000687
     4   Atom        0.001142      0.001342     -0.000663
     5   Atom       -0.000968      0.001677     -0.001258
     6   Atom       -0.002078     -0.000367      0.000098
     7   Atom        0.004947      0.003941      0.000213
     8   Atom       -0.003073      0.005316     -0.002052
     9   Atom        0.001551      0.000903     -0.001692
    10   Atom        0.005742      0.003498     -0.001543
    11   Atom       -0.003954      0.026870     -0.004944
    12   Atom       -0.002584      0.020929     -0.009843
    13   Atom       -0.001341     -0.000133      0.000056
    14   Atom       -0.000700     -0.000135      0.000035
    15   Atom       -0.006038      0.009151     -0.008805
    16   Atom       -0.002121     -0.000501      0.000296
    17   Atom       -0.000356     -0.000337      0.000244
    18   Atom       -0.000017      0.000236     -0.000364
    19   Atom       -0.002004     -0.000080      0.000035
    20   Atom        0.001199     -0.000084     -0.000046
    21   Atom       -0.005582     -0.000196      0.000073
    22   Atom       -0.001603      0.000961     -0.000547
    23   Atom       -0.001518     -0.001480      0.000795
    24   Atom        0.000331     -0.000740     -0.000079
    25   Atom       -0.000274      0.000325     -0.000046
    26   Atom       -0.000008      0.000072     -0.000006
 --------------------------------------------------------


 ---------------------------------------------------------------------------------
              Anisotropic Spin Dipole Couplings in Principal Axis System
 ---------------------------------------------------------------------------------

       Atom             a.u.   MegaHertz   Gauss  10(-4) cm-1        Axes

              Baa    -0.0156    -2.098    -0.749    -0.700  0.1471  0.9891  0.0106
     1 C(13)  Bbb    -0.0076    -1.022    -0.365    -0.341  0.9889 -0.1468 -0.0237
              Bcc     0.0233     3.120     1.113     1.041  0.0219 -0.0140  0.9997
 
              Baa    -0.0082    -1.104    -0.394    -0.368 -0.0048  0.9999  0.0092
     2 C(13)  Bbb    -0.0062    -0.836    -0.298    -0.279  0.9999  0.0049 -0.0115
              Bcc     0.0145     1.940     0.692     0.647  0.0116 -0.0092  0.9999
 
              Baa    -0.0277    -3.720    -1.327    -1.241 -0.0505  0.9987  0.0093
     3 C(13)  Bbb    -0.0247    -3.311    -1.181    -1.104  0.9986  0.0506 -0.0156
              Bcc     0.0524     7.031     2.509     2.345  0.0160 -0.0085  0.9998
 
              Baa    -0.0232    -3.110    -1.110    -1.037 -0.1940  0.9809  0.0144
     4 C(13)  Bbb    -0.0171    -2.295    -0.819    -0.766  0.9807  0.1942 -0.0207
              Bcc     0.0403     5.405     1.929     1.803  0.0231 -0.0101  0.9997
 
              Baa    -0.0393    -5.275    -1.882    -1.760  0.4541  0.8909  0.0031
     5 C(13)  Bbb    -0.0370    -4.960    -1.770    -1.655  0.8908 -0.4540 -0.0182
              Bcc     0.0763    10.235     3.652     3.414  0.0148 -0.0111  0.9998
 
              Baa    -0.0100    -1.339    -0.478    -0.447  0.0192 -0.0051  0.9998
     6 C(13)  Bbb     0.0008     0.111     0.040     0.037  0.2588  0.9659 -0.0000
              Bcc     0.0091     1.228     0.438     0.410  0.9658 -0.2587 -0.0199
 
              Baa    -0.1124   -15.081    -5.381    -5.030  0.9816 -0.1904 -0.0123
     7 C(13)  Bbb    -0.0859   -11.531    -4.115    -3.846  0.1903  0.9817 -0.0034
              Bcc     0.1983    26.612     9.496     8.877  0.0127  0.0010  0.9999
 
              Baa    -0.0769   -10.313    -3.680    -3.440  0.7296  0.6838 -0.0110
     8 C(13)  Bbb    -0.0708    -9.500    -3.390    -3.169 -0.6835  0.7296  0.0235
              Bcc     0.1477    19.814     7.070     6.609  0.0241 -0.0096  0.9997
 
              Baa    -0.0337    -4.526    -1.615    -1.510  0.8946 -0.4466 -0.0161
     9 C(13)  Bbb    -0.0298    -4.000    -1.427    -1.334  0.4468  0.8946  0.0119
              Bcc     0.0635     8.527     3.043     2.844  0.0091 -0.0178  0.9998
 
              Baa    -0.0759   -10.187    -3.635    -3.398  0.9658 -0.2585 -0.0185
    10 C(13)  Bbb    -0.0528    -7.088    -2.529    -2.364  0.2586  0.9660  0.0032
              Bcc     0.1287    17.275     6.164     5.762  0.0170 -0.0079  0.9998
 
              Baa    -0.5215    37.736    13.465    12.587  0.3005  0.9538 -0.0022
    11 O(17)  Bbb    -0.5080    36.759    13.117    12.262  0.9536 -0.3005 -0.0176
              Bcc     1.0295   -74.495   -26.582   -24.849  0.0175 -0.0032  0.9998
 
              Baa    -0.4214    30.492    10.880    10.171  0.2602  0.9656  0.0032
    12 O(17)  Bbb    -0.4118    29.795    10.632     9.939  0.9654 -0.2601 -0.0183
              Bcc     0.8332   -60.287   -21.512   -20.110  0.0168 -0.0079  0.9998
 
              Baa    -0.0036    -1.946    -0.694    -0.649  0.0175 -0.0082  0.9998
    13 H(1)   Bbb    -0.0002    -0.092    -0.033    -0.031  0.3604  0.9328  0.0013
              Bcc     0.0038     2.038     0.727     0.680  0.9326 -0.3603 -0.0193
 
              Baa    -0.0035    -1.852    -0.661    -0.618  0.0160 -0.0096  0.9998
    14 H(1)   Bbb    -0.0011    -0.601    -0.214    -0.200  0.1235  0.9923  0.0075
              Bcc     0.0046     2.453     0.875     0.818  0.9922 -0.1234 -0.0171
 
              Baa    -0.0757     5.478     1.955     1.827  0.4859  0.8739  0.0152
    15 O(17)  Bbb    -0.0624     4.517     1.612     1.507  0.8728 -0.4843 -0.0613
              Bcc     0.1381    -9.995    -3.567    -3.334  0.0462 -0.0431  0.9980
 
              Baa    -0.0028    -0.375    -0.134    -0.125  0.0523 -0.0835  0.9951
    16 C(13)  Bbb    -0.0015    -0.203    -0.073    -0.068  0.4044  0.9129  0.0553
              Bcc     0.0043     0.579     0.207     0.193  0.9131 -0.3996 -0.0815
 
              Baa    -0.0013    -0.170    -0.061    -0.057  0.0030 -0.6733  0.7393
    17 C(13)  Bbb    -0.0009    -0.116    -0.041    -0.039  0.1660  0.7294  0.6636
              Bcc     0.0021     0.286     0.102     0.095  0.9861 -0.1207 -0.1140
 
              Baa    -0.0011    -0.141    -0.050    -0.047 -0.0683  0.6642  0.7445
    18 C(13)  Bbb    -0.0003    -0.044    -0.016    -0.015  0.0996  0.7470 -0.6573
              Bcc     0.0014     0.185     0.066     0.062  0.9927 -0.0293  0.1172
 
              Baa    -0.0018    -0.981    -0.350    -0.327  0.4377  0.8991  0.0090
    19 H(1)   Bbb    -0.0014    -0.756    -0.270    -0.252  0.0128 -0.0162  0.9998
              Bcc     0.0033     1.737     0.620     0.580  0.8990 -0.4375 -0.0186
 
              Baa    -0.0041    -2.197    -0.784    -0.733 -0.1311  0.9913  0.0111
    20 H(1)   Bbb    -0.0010    -0.525    -0.187    -0.175  0.0160 -0.0091  0.9998
              Bcc     0.0051     2.722     0.971     0.908  0.9912  0.1312 -0.0147
 
              Baa    -0.0044    -2.331    -0.832    -0.777  0.1521  0.2311  0.9610
    21 H(1)   Bbb    -0.0042    -2.260    -0.806    -0.754  0.4793  0.8330 -0.2762
              Bcc     0.0086     4.590     1.638     1.531  0.8644 -0.5026 -0.0159
 
              Baa    -0.0022    -1.157    -0.413    -0.386 -0.1541  0.1571  0.9755
    22 H(1)   Bbb    -0.0011    -0.587    -0.209    -0.196  0.4448  0.8926 -0.0735
              Bcc     0.0033     1.744     0.622     0.582  0.8822 -0.4226  0.2075
 
              Baa    -0.0022    -1.199    -0.428    -0.400  0.2394 -0.2221  0.9452
    23 H(1)   Bbb    -0.0012    -0.626    -0.223    -0.209  0.4448  0.8904  0.0966
              Bcc     0.0034     1.825     0.651     0.609  0.8630 -0.3973 -0.3120
 
              Baa    -0.0012    -0.656    -0.234    -0.219  0.2223  0.0111  0.9749
    24 H(1)   Bbb    -0.0010    -0.521    -0.186    -0.174 -0.1073  0.9941  0.0131
              Bcc     0.0022     1.177     0.420     0.393  0.9691  0.1076 -0.2222
 
              Baa    -0.0006    -0.335    -0.120    -0.112 -0.2056 -0.0577  0.9769
    25 H(1)   Bbb    -0.0005    -0.257    -0.092    -0.086  0.1620  0.9825  0.0921
              Bcc     0.0011     0.592     0.211     0.198  0.9651 -0.1772  0.1927
 
              Baa    -0.0004    -0.230    -0.082    -0.077 -0.0571  0.0956  0.9938
    26 H(1)   Bbb    -0.0004    -0.201    -0.072    -0.067  0.0122  0.9954 -0.0951
              Bcc     0.0008     0.431     0.154     0.144  0.9983 -0.0067  0.0580
 

 ---------------------------------------------------------------------------------

 No NMR shielding tensors so no spin-rotation constants.
 Leave Link  601 at Sun Jan 21 08:30:59 2024, MaxMem=  4026531840 cpu:               9.5 elap:               1.5
 (Enter /sysapps/ubuntu-applications/gaussian/Gaussian/AVX2/g16/l9999.exe)
 1\1\GINC-ACIDSGN003\SP\UB3LYP\6-311++G(d,p)\C13H10O3(1-,2)\SELHAJJ1\21
 -Jan-2024\0\\#P UB3LYP/6-311++G(d,p) SCRF=(PCM,Solvent=n,n-DiMethylFor
 mamide)\\Radical PCM in DMF\\-1,2\C,0,-1.23534,2.874471,-0.082185\C,0,
 -2.533563,2.399508,-0.09704\C,0,-2.77855,1.011798,-0.049862\C,0,-0.135
 913,1.991397,-0.020661\C,0,-0.385349,0.591842,0.027191\C,0,-1.714674,0
 .129216,0.011338\C,0,1.223842,2.545734,-0.004857\C,0,2.285674,1.55582,
 0.058307\C,0,2.046275,0.196626,0.103919\C,0,0.726014,-0.372192,0.09270
 3\O,0,1.44945,3.782599,-0.040294\O,0,0.530079,-1.615664,0.134542\H,0,-
 1.020471,3.936478,-0.117383\H,0,-1.868337,-0.943558,0.048875\O,0,3.547
 265,2.103617,0.068543\C,0,4.65395,1.235662,0.225442\C,0,5.890387,2.078
 863,0.311252\C,0,7.02516,1.826602,-0.336367\H,0,-3.366266,3.095616,-0.
 145292\H,0,-3.798599,0.638813,-0.061514\H,0,2.856204,-0.52139,0.146957
 \H,0,4.726771,0.524862,-0.608611\H,0,4.539621,0.648894,1.150389\H,0,5.
 813345,2.938185,0.972969\H,0,7.116177,0.986507,-1.019031\H,0,7.902757,
 2.451404,-0.210021\\Version=ES64L-G16RevA.03\State=2-A\HF=-727.384386\
 S2=0.758704\S2-1=0.\S2A=0.750033\RMSD=3.474e-09\Dipole=1.2355356,0.113
 133,0.0697087\Quadrupole=13.8386285,-20.1087257,6.2700972,-8.095896,0.
 4184711,1.905135\PG=C01 [X(C13H10O3)]\\@


 ... SUBJECTS WHICH DISCLOSE THEIR FULL POWER, MEANING AND BEAUTY AS SOON
 AS THEY ARE PRESENTED TO THE MIND HAVE VERY LITTLE OF THOSE QUALITIES
 TO DISCLOSE.
                           -- CHARLES DUTTON (1882)
 Job cpu time:       0 days  0 hours 38 minutes 45.0 seconds.
 Elapsed time:       0 days  0 hours  5 minutes  2.3 seconds.
 File lengths (MBytes):  RWF=    259 Int=      0 D2E=      0 Chk=     14 Scr=      1
 Normal termination of Gaussian 16 at Sun Jan 21 08:30:59 2024.
