
Running Job 1 of 1 261-COSMO.in
qchem 261-COSMO.in_2236079.0 /expanse/lustre/scratch/selhajj/temp_project/qcscratch/28872110/qchem2236079/ 0
/cm/shared/apps/spack/cpu/opt/spack/linux-centos8-zen2/gcc-10.2.0/qchem-5.4-akfmr7b3t57bfs6qan3padb2wnb2i7cl/exe/qcprog.exe_s 261-COSMO.in_2236079.0 /expanse/lustre/scratch/selhajj/temp_project/qcscratch/28872110/qchem2236079/
                  Welcome to Q-Chem
     A Quantum Leap Into The Future Of Chemistry


 Q-Chem 5.4, Q-Chem, Inc., Pleasanton, CA (2021)

 License issued to: University of California, San Diego (site)

 E. Epifanovsky,  A. T. B. Gilbert,  Xintian Feng,  Joonho Lee,  Yuezhi Mao,  
 N. Mardirossian,  P. Pokhilko,  A. White,  M. Wormit,  M. P. Coons,  
 A. L. Dempwolff,  Zhengting Gan,  D. Hait,  P. R. Horn,  L. D. Jacobson,  
 I. Kaliman,  J. Kussmann,  A. W. Lange,  Ka Un Lao,  D. S. Levine,  Jie Liu,  
 S. C. McKenzie,  A. F. Morrison,  K. Nanda,  F. Plasser,  D. R. Rehn,  
 M. L. Vidal,  Zhi-Qiang You,  Ying Zhu,  B. Alam,  B. Albrecht,  
 A. Aldossary,  E. Alguire,  J. H. Andersen,  D. Barton,  K. Begam,  A. Behn,  
 Y. A. Bernard,  E. J. Berquist,  H. Burton,  A. Carreras,  K. Carter-Fenk,  
 R. Chakraborty,  A. D. Chien,  K. D. Closser,  V. Cofer-Shabica,  
 S. Dasgupta,  Jia Deng,  M. de Wergifosse,  M. Diedenhofen,  Hainam Do,  
 S. Ehlert,  Po-Tung Fang,  S. Fatehi,  Qingguo Feng,  J. Gayvert,  
 Qinghui Ge,  G. Gidofalvi,  M. Goldey,  J. Gomes,  C. Gonzalez-Espinoza,  
 S. Gulania,  A. Gunina,  M. W. D. Hanson-Heine,  P. H. P. Harbach,  
 A. W. Hauser,  M. F. Herbst,  M. Hernandez Vera,  M. Hodecker,  
 Z. C. Holden,  S. Houck,  Xunkun Huang,  Kerwin Hui,  B. C. Huynh,  
 M. Ivanov,  Hyunjun Ji,  Hanjie Jiang,  B. Kaduk,  S. Kaehler,  
 K. Khistyaev,  Jaehoon Kim,  P. Klunzinger,  Z. Koczor-Benda,  
 Joong Hoon Koh,  D. Kosenkov,  L. Koulias,  T. Kowalczyk,  C. M. Krauter,  
 K. Kue,  A. Kunitsa,  T. Kus,  A. Landau,  K. V. Lawler,  D. Lefrancois,  
 S. Lehtola,  Rain Li,  Yi-Pei Li,  Jiashu Liang,  M. Liebenthal,  
 Hung-Hsuan Lin,  You-Sheng Lin,  Fenglai Liu,  Kuan-Yu Liu,  
 M. Loipersberger,  A. Luenser,  A. Manjanath,  P. Manohar,  E. Mansoor,  
 S. F. Manzer,  Shan-Ping Mao,  A. V. Marenich,  T. Markovich,  S. Mason,  
 S. A. Maurer,  P. F. McLaughlin,  M. F. S. J. Menger,  J.-M. Mewes,  
 S. A. Mewes,  P. Morgante,  J. W. Mullinax,  T. S. Nguyen-Beck,  
 K. J. Oosterbaan,  G. Paran,  Alexander C. Paul,  Suranjan K. Paul,  
 F. Pavosevic,  Zheng Pei,  S. Prager,  E. I. Proynov,  E. Ramos,  B. Rana,  
 A. E. Rask,  A. Rettig,  R. M. Richard,  F. Rob,  E. Rossomme,  T. Scheele,  
 M. Scheurer,  M. Schneider,  N. Sergueev,  S. M. Sharada,  W. Skomorowski,  
 D. W. Small,  C. J. Stein,  Yu-Chuan Su,  E. J. Sundstrom,  Zhen Tao,  
 J. Thirman,  T. Tsuchimochi,  N. M. Tubman,  S. P. Veccham,  O. Vydrov,  
 J. Wenzel,  J. Witte,  A. Yamada,  Kun Yao,  S. Yeganeh,  S. R. Yost,  
 A. Zech,  Igor Ying Zhang,  Xing Zhang,  Yu Zhang,  D. Zuev,  
 A. Aspuru-Guzik,  A. T. Bell,  N. A. Besley,  K. B. Bravaya,  B. R. Brooks,  
 D. Casanova,  Jeng-Da Chai,  S. Coriani,  C. J. Cramer,  
 A. E. DePrince, III,  R. A. DiStasio Jr.,  A. Dreuw,  B. D. Dunietz,  
 T. R. Furlani,  W. A. Goddard III,  S. Grimme,  S. Hammes-Schiffer,  
 T. Head-Gordon,  W. J. Hehre,  Chao-Ping Hsu,  T.-C. Jagau,  Yousung Jung,  
 A. Klamt,  Jing Kong,  D. S. Lambrecht,  WanZhen Liang,  N. J. Mayhall,  
 C. W. McCurdy,  J. B. Neaton,  C. Ochsenfeld,  J. A. Parkhill,  R. Peverati,  
 V. A. Rassolov,  Yihan Shao,  L. V. Slipchenko,  T. Stauch,  R. P. Steele,  
 J. E. Subotnik,  A. J. W. Thom,  A. Tkatchenko,  D. G. Truhlar,  
 T. Van Voorhis,  T. A. Wesolowski,  K. B. Whaley,  H. L. Woodcock III,  
 P. M. Zimmerman,  S. Faraji,  P. M. W. Gill,  M. Head-Gordon,  
 J. M. Herbert,  A. I. Krylov

 Contributors to earlier versions of Q-Chem not listed above: 
 R. D. Adamson,  B. Austin,  R. Baer,  J. Baker,  G. J. O. Beran,  
 K. Brandhorst,  S. T. Brown,  E. F. C. Byrd,  A. K. Chakraborty,  
 G. K. L. Chan,  Chun-Min Chang,  Yunqing Chen,  C.-L. Cheng,  
 Siu Hung Chien,  D. M. Chipman,  D. L. Crittenden,  H. Dachsel,  
 R. J. Doerksen,  A. D. Dutoi,  R. G. Edgar,  J. Fosso-Tande,  
 L. Fusti-Molnar,  D. Ghosh,  A. Ghysels,  A. Golubeva-Zadorozhnaya,  
 J. Gonthier,  M. S. Gordon,  S. R. Gwaltney,  G. Hawkins,  J. E. Herr,  
 A. Heyden,  S. Hirata,  E. G. Hohenstein,  G. Kedziora,  F. J. Keil,  
 C. Kelley,  Jihan Kim,  R. A. King,  R. Z. Khaliullin,  P. P. Korambath,  
 W. Kurlancheek,  A. Laurent,  A. M. Lee,  M. S. Lee,  S. V. Levchenko,  
 Ching Yeh Lin,  D. Liotard,  E. Livshits,  R. C. Lochan,  I. Lotan,  
 L. A. Martinez-Martinez,  P. E. Maslen,  N. Nair,  D. P. O'Neill,  
 D. Neuhauser,  E. Neuscamman,  C. M. Oana,  R. Olivares-Amaya,  R. Olson,  
 T. M. Perrine,  B. Peters,  P. A. Pieniazek,  A. Prociuk,  Y. M. Rhee,  
 J. Ritchie,  M. A. Rohrdanz,  E. Rosta,  N. J. Russ,  H. F. Schaefer III,  
 M. W. Schmidt,  N. E. Schultz,  S. Sharma,  N. Shenvi,  C. D. Sherrill,  
 A. C. Simmonett,  A. Sodt,  T. Stein,  D. Stuck,  K. S. Thanthiriwatte,  
 V. Vanovschi,  L. Vogt,  Tao Wang,  A. Warshel,  M. A. Watson,  
 C. F. Williams,  Q. Wu,  X. Xu,  Jun Yang,  W. Zhang,  Yan Zhao

 Please cite Q-Chem as follows:
 Y. Shao et al., Mol. Phys. 113, 184-215 (2015)
 DOI: 10.1080/00268976.2014.952696

 Q-Chem 5.4.0 for Intel X86 EM64T Linux

 Parts of Q-Chem use Armadillo 9.800.1 (Horizon Scraper).
 http://arma.sourceforge.net/

 Q-Chem begins on Thu Feb 22 07:53:00 2024  

 Host: 
0

     Scratch files written to /expanse/lustre/scratch/selhajj/temp_project/qcscratch/28872110/qchem2236079//
 May1621 |scratch|qcdevops|jenkins|workspace|build_RNUM    
 Processing $rem in /cm/shared/apps/spack/cpu/opt/spack/linux-centos8-zen2/gcc-10.2.0/qchem-5.4-akfmr7b3t57bfs6qan3padb2wnb2i7cl/config/preferences:
 Processing $rem in /home/selhajj/.qchemrc:

 Checking the input file for inconsistencies... 
 Q-Chem warning in module libgen/CheckREMs.C, line 172:

 Found a $solvent section, which is only used for PCM and Kirkwood-Onsager solvation models

	...done.

--------------------------------------------------------------
User input:
--------------------------------------------------------------
$molecule
0 1
C                  2.9064240000      2.5203060000     -0.3617340000
O                  2.5440130000      1.1511030000     -0.2392320000
C                  1.2388050000      0.8123170000     -0.1632530000
C                  0.2170920000      1.7673700000     -0.1917370000
C                 -1.1135770000      1.3941090000     -0.1176010000
C                 -1.4825980000      0.0489260000     -0.0118490000
O                 -2.7739820000     -0.3406100000      0.0570870000
C                 -3.8041890000      0.6380760000      0.0144990000
C                 -0.4711600000     -0.9420990000      0.0200750000
C                 -0.8369580000     -2.3914790000      0.1283760000
O                 -1.9808040000     -2.7995330000      0.2517110000
C                  0.2628690000     -3.3807160000      0.0837050000
C                  1.5458830000     -3.0207300000      0.0134990000
C                  1.9708560000     -1.6036710000     -0.0253970000
O                  3.1660450000     -1.3554020000     -0.0292920000
C                  0.8975440000     -0.5581430000     -0.0556460000
H                  3.9936600000      2.5257290000     -0.4092960000
H                  2.5792870000      3.1026960000      0.5063690000
H                  2.5013120000      2.9640820000     -1.2776480000
H                  0.4553400000      2.8184750000     -0.2728090000
H                 -1.8692170000      2.1664390000     -0.1433080000
H                 -4.7347180000      0.0775530000      0.0801670000
H                 -3.7378940000      1.3297120000      0.8613030000
H                 -3.7860760000      1.2017650000     -0.9245720000
H                 -0.0543060000     -4.4168640000      0.1301870000
H                  2.3573510000     -3.7402130000     -0.0017270000
$end
$rem
MAX_SCF_CYCLES=200
BASIS  =  6-311++G(d,p)
GUI  =  2
JOB_TYPE  =  SP
METHOD  =  B3LYP
SOLVENT_METHOD = COSMO
$end
$solvent
dielectric 37.219
opticaldielectric 1.43
$end





--------------------------------------------------------------
 ----------------------------------------------------------------
             Standard Nuclear Orientation (Angstroms)
    I     Atom           X                Y                Z
 ----------------------------------------------------------------
    1      C       3.4898779341    -2.0743425324     0.0206804319
    2      O       2.7656012513    -0.8511827387     0.0014779855
    3      C       1.4152649182    -0.8772803045    -0.0037555554
    4      C       0.6920406213    -2.0746803823     0.0000779238
    5      C      -0.6919752272    -2.0746912045    -0.0001200593
    6      C      -1.4152338439    -0.8772941825    -0.0039453104
    7      O      -2.7655905511    -0.8512413420     0.0006498832
    8      C      -3.4898539063    -2.0744057957     0.0173171784
    9      C      -0.7117743526     0.3520474032    -0.0084763184
   10      C      -1.4601734467     1.6505613066    -0.0081503517
   11      O      -2.6765792343     1.7374758725    -0.0620584104
   12      C      -0.6671574000     2.8982168496     0.0603037667
   13      C       0.6672497890     2.8982057921     0.0592172348
   14      C       1.4601179750     1.6505339775    -0.0103977177
   15      O       2.6764112159     1.7374298698    -0.0670481297
   16      C       0.7117797946     0.3520618418    -0.0088069185
   17      H       4.5392134822    -1.7858590507     0.0274524878
   18      H       3.2860491768    -2.6770904572    -0.8709183144
   19      H       3.2690024107    -2.6594741135     0.9200059359
   20      H       1.2089318888    -3.0238743017     0.0033674102
   21      H      -1.2088122218    -3.0239097765     0.0030282395
   22      H      -4.5392061053    -1.7859434983     0.0229744768
   23      H      -3.2848115187    -2.6760473450    -0.8747688395
   24      H      -3.2702372920    -2.6606603756     0.9162063944
   25      H      -1.2540516879     3.8097097905     0.0934541574
   26      H       1.2542032804     3.8096992217     0.0913615979
 ----------------------------------------------------------------
 Molecular Point Group                 C1    NOp =  1
 Largest Abelian Subgroup              C1    NOp =  1
 Nuclear Repulsion Energy =        1068.52843280 hartrees
 There are       57 alpha and       57 beta electrons
 Requested basis set is 6-311++G(d,p)
 There are 146 shells and 422 basis functions

 Total QAlloc Memory Limit   8000 MB
 Mega-Array Size       188 MB
 MEM_STATIC part       192 MB
 A cutoff of  1.0D-08 yielded   7675 shell pairs
 There are     66707 function pairs (     71358 Cartesian)
 Smallest overlap matrix eigenvalue = 4.76E-08

 Q-Chem warning in module stvman/mkSTV.C, line 323:

 Overlap eigenvalue is smaller than square root of threshold
 Use THRESH >= 12 to get rid of this warning

 Linear dependence detected in AO basis
 Tighter screening thresholds may be required for diffuse basis sets
 Use S2THRESH > 14 and THRESH = 14 in case of SCF convergence issues
 Number of orthogonalized atomic orbitals = 418
 Maximum deviation from orthogonality = 1.331E-10

 Scale SEOQF with 1.000000e-01/1.000000e-01/1.000000e-01

 Standard Electronic Orientation quadrupole field applied
 Nucleus-field energy     =     0.0000000468 hartrees
 Guess from superposition of atomic densities
 Warning:  Energy on first SCF cycle will be non-variational
 SAD guess density has 114.000000 electrons

 -----------------------------------------------------------------------
  General SCF calculation program by
  Eric Jon Sundstrom, Paul Horn, Yuezhi Mao, Dmitri Zuev, Alec White,
  David Stuck, Shaama M.S., Shane Yost, Joonho Lee, David Small,
  Daniel Levine, Susi Lehtola, Hugh Burton, Evgeny Epifanovsky,
  Bang C. Huynh
 -----------------------------------------------------------------------
 Exchange:     0.2000 Hartree-Fock + 0.0800 Slater + 0.7200 B88
 Correlation:  0.1900 VWN1RPA + 0.8100 LYP
 Using SG-1 standard quadrature grid
 using 8 threads for integral computing
 -------------------------------------------------------
 OpenMP Integral computing Module                
 Release: version 1.0, May 2013, Q-Chem Inc. Pittsburgh 
 -------------------------------------------------------
 A restricted SCF calculation will be
 performed using DIIS
 SCF converges when DIIS error is below 1.0e-05
 ---------------------------------------
  Cycle       Energy         DIIS error
 ---------------------------------------
    1    -767.9893130503      3.22e-02  
    2    -764.0982138133      3.67e-03  
    3    -763.6909082931      6.28e-03  
    4    -764.3009887804      1.59e-03  
    5    -764.3481732179      3.16e-04  
    6    -764.3497687301      1.35e-04  
    7    -764.3500999798      4.88e-05  
    8    -764.3501509384      1.83e-05  
    9    -764.3501565865      2.88e-06  Convergence criterion met
 ---------------------------------------
 SCF time:   CPU 169.41s  wall 21.00s 
 SCF   energy in the final basis set =     -764.3501565865
 Total energy in the final basis set =     -764.3501565865
 Exchange:     0.2000 Hartree-Fock + 0.0800 Slater + 0.7200 B88
 Correlation:  0.1900 VWN1RPA + 0.8100 LYP
 Using SG-1 standard quadrature grid
 in get_qchem_info
 IBasis=      401111
 IBasis=      401111
 USING 1082 GRID
 MICHARGE=           0
 Set epsilon to    37.2190017700195     
==== cosmo data ====
outfile: 261-COSMO.out.cosmo.0
phsran:    0.00000D+00
ampran:    0.10000D-04
volume:   1656.1294596
area:    831.0540093
routf:      0.8500000
rsolv [a.u]:      2.4566438
disex:     10.0000000
disex2:   4462.5981277
fepsi:      0.9602322
eps :    37.2190018
lcavity:     1
nppa:  1082
nspa:    92
nsph:    32
maxnps:  1792
natoms:    26
Atom   Radius [a.u.] nuc. charge
    1      3.7794520    6
    2      3.2503287    8
    3      3.7794520    6
    4      3.7794520    6
    5      3.7794520    6
    6      3.7794520    6
    7      3.2503287    8
    8      3.7794520    6
    9      3.7794520    6
   10      3.7794520    6
   11      3.2503287    8
   12      3.7794520    6
   13      3.7794520    6
   14      3.7794520    6
   15      3.2503287    8
   16      3.7794520    6
   17      2.4566438    1
   18      2.4566438    1
   19      2.4566438    1
   20      2.4566438    1
   21      2.4566438    1
   22      2.4566438    1
   23      2.4566438    1
   24      2.4566438    1
   25      2.4566438    1
   26      2.4566438    1
=== end cosmo data ===
 number of segments:         1021
 f_epsilon=  0.960232245562971     
Ediel:   -0.0192995
 A restricted SCF calculation will be
 performed using Roothaan-Hall, DIIS
 SCF converges when DIIS error is below 1.0e-05
 ---------------------------------------
  Cycle       Energy         DIIS error
 ---------------------------------------
 number of segments:         1021
 f_epsilon=  0.960232245562971     
Ediel:   -0.0329048
    1    -764.3694594580      2.68e-04  Roothaan Step
 ---------------------------------------
  Cycle       Energy         DIIS error
 ---------------------------------------
 number of segments:         1021
 f_epsilon=  0.960232245562971     
Ediel:   -0.0244579
    1    -764.3717753508      3.61e-04  
 number of segments:         1021
 f_epsilon=  0.960232245562971     
Ediel:   -0.0298724
    2    -764.3640353756      7.81e-04  
 number of segments:         1021
 f_epsilon=  0.960232245562971     
Ediel:   -0.0302216
    3    -764.3740877963      4.37e-05  
 number of segments:         1021
 f_epsilon=  0.960232245562971     
Ediel:   -0.0302492
    4    -764.3741194371      2.50e-05  
    5    -764.3741334222      3.95e-06  Convergence criterion met
 ---------------------------------------
 SCF time:   CPU 130.89s  wall 17.00s 
before final oc correction, ETot:      -764.3741334222
 number of outlayer segments:          436
SCF energy after oc correction:      -764.3742968944
 SCF   energy in the final basis set =     -764.3742968944
 Total energy in the final basis set =     -764.3741334222
 
 --------------------------------------------------------------
 
                    Orbital Energies (a.u.)
 --------------------------------------------------------------
 
 Alpha MOs
 -- Occupied --
-19.1688 -19.1688 -19.1270 -19.1270 -10.2803 -10.2803 -10.2614 -10.2614
-10.2232 -10.2232 -10.2115 -10.2111 -10.2031 -10.2022 -10.1988 -10.1982
 -1.0904  -1.0892  -1.0614  -1.0598  -0.8852  -0.8360  -0.7858  -0.7816
 -0.7291  -0.7017  -0.6929  -0.6474  -0.6369  -0.5820  -0.5481  -0.5454
 -0.5231  -0.5229  -0.4970  -0.4856  -0.4826  -0.4779  -0.4625  -0.4486
 -0.4441  -0.4374  -0.4253  -0.4250  -0.4153  -0.4129  -0.3942  -0.3928
 -0.3622  -0.3558  -0.3491  -0.3157  -0.3023  -0.2837  -0.2752  -0.2648
 -0.2300
 -- Virtual --
 -0.1217  -0.0376  -0.0354  -0.0052   0.0056   0.0066   0.0210   0.0244
  0.0269   0.0303   0.0333   0.0423   0.0447   0.0492   0.0537   0.0591
  0.0605   0.0616   0.0742   0.0853   0.0884   0.0888   0.0948   0.0976
  0.0993   0.1062   0.1135   0.1146   0.1205   0.1237   0.1262   0.1325
  0.1379   0.1398   0.1408   0.1427   0.1474   0.1484   0.1499   0.1520
  0.1536   0.1641   0.1651   0.1721   0.1755   0.1797   0.1836   0.1840
  0.1852   0.1906   0.1919   0.1929   0.2122   0.2154   0.2159   0.2214
  0.2269   0.2326   0.2439   0.2480   0.2572   0.2585   0.2633   0.2643
  0.2647   0.2721   0.2728   0.2780   0.2789   0.2822   0.2896   0.2919
  0.2932   0.3026   0.3043   0.3105   0.3209   0.3258   0.3327   0.3346
  0.3353   0.3439   0.3463   0.3484   0.3506   0.3547   0.3611   0.3725
  0.3771   0.3827   0.3911   0.4120   0.4142   0.4226   0.4382   0.4469
  0.4537   0.4673   0.4686   0.4712   0.4875   0.4993   0.5247   0.5287
  0.5331   0.5385   0.5468   0.5669   0.5677   0.5904   0.5915   0.6001
  0.6057   0.6109   0.6124   0.6126   0.6309   0.6419   0.6471   0.6506
  0.6512   0.6564   0.6588   0.6636   0.6759   0.6886   0.6912   0.7052
  0.7266   0.7331   0.7467   0.7557   0.7595   0.7678   0.7728   0.7749
  0.8013   0.8306   0.8387   0.8458   0.8652   0.8776   0.8814   0.8937
  0.9011   0.9103   0.9129   0.9187   0.9417   0.9634   0.9679   0.9698
  0.9874   1.0122   1.0178   1.0305   1.0322   1.0366   1.0422   1.0438
  1.0465   1.0566   1.0822   1.0899   1.0932   1.0970   1.1039   1.1156
  1.1200   1.1344   1.1586   1.1861   1.2088   1.2148   1.2178   1.2294
  1.2316   1.2588   1.2804   1.2851   1.3075   1.3423   1.3806   1.3922
  1.4223   1.4375   1.4439   1.4516   1.4709   1.4793   1.4861   1.4970
  1.5159   1.5230   1.5378   1.5502   1.5515   1.5619   1.5681   1.5691
  1.5826   1.6061   1.6076   1.6535   1.6560   1.6816   1.6936   1.7006
  1.7067   1.7110   1.7169   1.7390   1.7414   1.7508   1.7644   1.7933
  1.7935   1.8074   1.8167   1.8622   1.8766   1.8785   1.8818   1.8882
  1.8948   1.9031   1.9210   1.9292   1.9725   1.9754   1.9865   2.0117
  2.0349   2.0531   2.0774   2.0827   2.0906   2.1045   2.1195   2.1300
  2.1406   2.1569   2.1708   2.1960   2.2112   2.2246   2.2590   2.3092
  2.3157   2.3397   2.4008   2.4338   2.4530   2.4704   2.4708   2.4743
  2.4894   2.5198   2.5407   2.5458   2.5520   2.5801   2.5983   2.6001
  2.6381   2.6503   2.6701   2.6833   2.6942   2.7014   2.7116   2.7200
  2.7315   2.7425   2.7716   2.7989   2.8141   2.8149   2.8271   2.8421
  2.8469   2.8841   2.8910   2.9227   2.9277   2.9284   2.9728   2.9937
  3.0449   3.0540   3.0546   3.0555   3.0876   3.1148   3.1431   3.1452
  3.1872   3.2034   3.2178   3.2253   3.2358   3.2496   3.2609   3.3273
  3.3463   3.3536   3.3911   3.4137   3.4587   3.4660   3.5318   3.5364
  3.5920   3.6364   3.6461   3.7019   3.7520   3.7738   3.7774   3.8206
  3.8597   3.8695   4.0438   4.0754   4.0840   4.1194   4.1334   4.1772
  4.2403   4.2861   4.3679   4.6924   4.8474   5.0140   5.0335   5.0363
  5.0622   5.2110   5.2339   5.4269   5.4596   5.7128   5.7862   5.8047
  5.8568  23.5598  23.7465  23.8508  23.8939  23.9015  23.9086  23.9371
 23.9394  23.9920  24.0058  24.1577  24.2496  49.9605  50.0106  50.0147
 50.0558
 --------------------------------------------------------------
 
          Ground-State Mulliken Net Atomic Charges

     Atom                 Charge (a.u.)
  ----------------------------------------
      1 C                    -0.332900
      2 O                    -0.156045
      3 C                     0.023827
      4 C                    -0.079151
      5 C                    -0.081365
      6 C                     0.025440
      7 O                    -0.155987
      8 C                    -0.332771
      9 C                    -0.030735
     10 C                     0.025686
     11 O                    -0.343563
     12 C                    -0.166989
     13 C                    -0.168195
     14 C                     0.027253
     15 O                    -0.343752
     16 C                    -0.032097
     17 H                     0.215201
     18 H                     0.176894
     19 H                     0.175782
     20 H                     0.245929
     21 H                     0.247109
     22 H                     0.215280
     23 H                     0.176680
     24 H                     0.175685
     25 H                     0.246407
     26 H                     0.246376
  ----------------------------------------
  Sum of atomic charges =     0.000000

 -----------------------------------------------------------------
                    Cartesian Multipole Moments
 -----------------------------------------------------------------
    Charge (ESU x 10^10)
                 0.0000
    Dipole Moment (Debye)
         X      -0.0003      Y      -7.3002      Z       0.3930
       Tot       7.3107
    Quadrupole Moments (Debye-Ang)
        XX    -102.4406     XY       0.0003     YY     -69.1996
        XZ       0.0405     YZ       0.6712     ZZ     -93.1237
    Octopole Moments (Debye-Ang^2)
       XXX      -0.0003    XXY    -107.3724    XYY      -0.0051
       YYY     -19.0950    XXZ       3.4078    XYZ       0.0170
       YYZ       2.3784    XZZ      -0.0046    YZZ      -2.3650
       ZZZ      -0.4464
    Hexadecapole Moments (Debye-Ang^3)
      XXXX   -2486.6351   XXXY      -0.0093   XXYY    -683.3389
      XYYY      -0.0012   YYYY   -1667.5271   XXXZ       0.4652
      XXYZ       3.7918   XYYZ       0.1196   YYYZ       6.8766
      XXZZ    -442.5303   XYZZ      -0.0144   YYZZ    -354.4508
      XZZZ      -0.0062   YZZZ      -1.5193   ZZZZ    -112.7655
 -----------------------------------------------------------------
 Total job time:  99.72s(wall), 309.65s(cpu) 
 Thu Feb 22 07:54:40 2024

        *************************************************************
        *                                                           *
        *  Thank you very much for using Q-Chem.  Have a nice day.  *
        *                                                           *
        *************************************************************


