 Entering Gaussian System, Link 0=g16
 Input=115-an.com
 Output=115-an.log
 Initial command:
 /sysapps/ubuntu-applications/gaussian/Gaussian/AVX2/g16/l1.exe "/scratch/selhajj1/4219884/Gau-2860446.inp" -scrdir="/scratch/selhajj1/4219884/"
 Entering Link 1 = /sysapps/ubuntu-applications/gaussian/Gaussian/AVX2/g16/l1.exe PID=   2860448.
  
 Copyright (c) 1988,1990,1992,1993,1995,1998,2003,2009,2016,
            Gaussian, Inc.  All Rights Reserved.
  
 This is part of the Gaussian(R) 16 program.  It is based on
 the Gaussian(R) 09 system (copyright 2009, Gaussian, Inc.),
 the Gaussian(R) 03 system (copyright 2003, Gaussian, Inc.),
 the Gaussian(R) 98 system (copyright 1998, Gaussian, Inc.),
 the Gaussian(R) 94 system (copyright 1995, Gaussian, Inc.),
 the Gaussian 92(TM) system (copyright 1992, Gaussian, Inc.),
 the Gaussian 90(TM) system (copyright 1990, Gaussian, Inc.),
 the Gaussian 88(TM) system (copyright 1988, Gaussian, Inc.),
 the Gaussian 86(TM) system (copyright 1986, Carnegie Mellon
 University), and the Gaussian 82(TM) system (copyright 1983,
 Carnegie Mellon University). Gaussian is a federally registered
 trademark of Gaussian, Inc.
  
 This software contains proprietary and confidential information,
 including trade secrets, belonging to Gaussian, Inc.
  
 This software is provided under written license and may be
 used, copied, transmitted, or stored only in accord with that
 written license.
  
 The following legend is applicable only to US Government
 contracts under FAR:
  
                    RESTRICTED RIGHTS LEGEND
  
 Use, reproduction and disclosure by the US Government is
 subject to restrictions as set forth in subparagraphs (a)
 and (c) of the Commercial Computer Software - Restricted
 Rights clause in FAR 52.227-19.
  
 Gaussian, Inc.
 340 Quinnipiac St., Bldg. 40, Wallingford CT 06492
  
  
 ---------------------------------------------------------------
 Warning -- This program may not be used in any manner that
 competes with the business of Gaussian, Inc. or will provide
 assistance to any competitor of Gaussian, Inc.  The licensee
 of this program is prohibited from giving any competitor of
 Gaussian, Inc. access to this program.  By using this program,
 the user acknowledges that Gaussian, Inc. is engaged in the
 business of creating and licensing software in the field of
 computational chemistry and represents and warrants to the
 licensee that it is not a competitor of Gaussian, Inc. and that
 it will not use this program in any manner prohibited above.
 ---------------------------------------------------------------
  

 Cite this work as:
 Gaussian 16, Revision A.03,
 M. J. Frisch, G. W. Trucks, H. B. Schlegel, G. E. Scuseria, 
 M. A. Robb, J. R. Cheeseman, G. Scalmani, V. Barone, 
 G. A. Petersson, H. Nakatsuji, X. Li, M. Caricato, A. V. Marenich, 
 J. Bloino, B. G. Janesko, R. Gomperts, B. Mennucci, H. P. Hratchian, 
 J. V. Ortiz, A. F. Izmaylov, J. L. Sonnenberg, D. Williams-Young, 
 F. Ding, F. Lipparini, F. Egidi, J. Goings, B. Peng, A. Petrone, 
 T. Henderson, D. Ranasinghe, V. G. Zakrzewski, J. Gao, N. Rega, 
 G. Zheng, W. Liang, M. Hada, M. Ehara, K. Toyota, R. Fukuda, 
 J. Hasegawa, M. Ishida, T. Nakajima, Y. Honda, O. Kitao, H. Nakai, 
 T. Vreven, K. Throssell, J. A. Montgomery, Jr., J. E. Peralta, 
 F. Ogliaro, M. J. Bearpark, J. J. Heyd, E. N. Brothers, K. N. Kudin, 
 V. N. Staroverov, T. A. Keith, R. Kobayashi, J. Normand, 
 K. Raghavachari, A. P. Rendell, J. C. Burant, S. S. Iyengar, 
 J. Tomasi, M. Cossi, J. M. Millam, M. Klene, C. Adamo, R. Cammi, 
 J. W. Ochterski, R. L. Martin, K. Morokuma, O. Farkas, 
 J. B. Foresman, and D. J. Fox, Gaussian, Inc., Wallingford CT, 2016.
 
 ******************************************
 Gaussian 16:  ES64L-G16RevA.03 25-Dec-2016
                20-Dec-2023 
 ******************************************
 %chk=115-an.chk
 %nproc=8
 Will use up to    8 processors via shared memory.
 %mem=30GB
 --------------------------------------
 #P UB3LYP/6-311++G(d,p) nosym opt freq
 --------------------------------------
 1/18=20,19=15,26=3,38=1/1,3;
 2/9=110,12=2,15=1,17=6,18=5,40=1/2;
 3/5=4,6=6,7=1111,11=2,25=1,30=1,71=1,74=-5,116=2/1,2,3;
 4//1;
 5/5=2,38=5/2;
 6/7=2,8=2,9=2,10=2,28=1/1;
 7/30=1/1,2,3,16;
 1/18=20,19=15,26=3/3(2);
 2/9=110,15=1/2;
 99//99;
 2/9=110,15=1/2;
 3/5=4,6=6,7=1111,11=2,25=1,30=1,71=1,74=-5,116=2/1,2,3;
 4/5=5,16=3,69=1/1;
 5/5=2,38=5/2;
 7/30=1/1,2,3,16;
 1/18=20,19=15,26=3/3(-5);
 2/9=110,15=1/2;
 6/7=2,8=2,9=2,10=2,19=2,28=1/1;
 99/9=1/99;
 Leave Link    1 at Wed Dec 20 01:44:08 2023, MaxMem=  4026531840 cpu:               1.0 elap:               0.3
 (Enter /sysapps/ubuntu-applications/gaussian/Gaussian/AVX2/g16/l101.exe)
 -------
 Reduced
 -------
 Symbolic Z-matrix:
 Charge = -2 Multiplicity = 1
 C                    -2.20004  -3.78248   1.21989 
 C                    -0.73808  -3.8665    1.41036 
 C                     0.00408  -2.77443   1.59888 
 C                    -0.60382  -1.43074   1.62406 
 C                    -2.0601   -1.33583   1.41849 
 C                    -2.81378  -2.42654   1.22914 
 O                    -2.84195  -4.81449   1.06738 
 O                     0.10372  -0.44912   1.80951 
 Cl                   -4.53051  -2.37275   1.0073 
 C                    -2.69496  -0.01526   1.41971 
 O                    -3.01898   0.58653   0.409 
 O                    -2.88545   0.37757   2.70324 
 C                    -3.50825   1.65715   2.82456 
 H                    -0.30586  -4.86077   1.39093 
 H                     1.07781  -2.82403   1.74161 
 H                    -3.6476    1.86658   3.8887 
 H                    -4.4904    1.65519   2.34114 
 H                    -2.8672    2.43488   2.398 
 
 ITRead=  0  0  0  0  0  0  0  0  0  0  0  0  0  0  0  0  0  0
 MicOpt= -1 -1 -1 -1 -1 -1 -1 -1 -1 -1 -1 -1 -1 -1 -1 -1 -1 -1
 NAtoms=     18 NQM=       18 NQMF=       0 NMMI=      0 NMMIF=      0
                NMic=       0 NMicF=      0.
                    Isotopes and Nuclear Properties:
 (Nuclear quadrupole moments (NQMom) in fm**2, nuclear magnetic moments (NMagM)
  in nuclear magnetons)

  Atom         1           2           3           4           5           6           7           8           9          10
 IAtWgt=          12          12          12          12          12          12          16          16          35          12
 AtmWgt=  12.0000000  12.0000000  12.0000000  12.0000000  12.0000000  12.0000000  15.9949146  15.9949146  34.9688527  12.0000000
 NucSpn=           0           0           0           0           0           0           0           0           3           0
 AtZEff=  -0.0000000  -0.0000000  -0.0000000  -0.0000000  -0.0000000  -0.0000000  -0.0000000  -0.0000000  -0.0000000  -0.0000000
 NQMom=    0.0000000   0.0000000   0.0000000   0.0000000   0.0000000   0.0000000   0.0000000   0.0000000  -8.1650000   0.0000000
 NMagM=    0.0000000   0.0000000   0.0000000   0.0000000   0.0000000   0.0000000   0.0000000   0.0000000   0.8218740   0.0000000
 AtZNuc=   6.0000000   6.0000000   6.0000000   6.0000000   6.0000000   6.0000000   8.0000000   8.0000000  17.0000000   6.0000000

  Atom        11          12          13          14          15          16          17          18
 IAtWgt=          16          16          12           1           1           1           1           1
 AtmWgt=  15.9949146  15.9949146  12.0000000   1.0078250   1.0078250   1.0078250   1.0078250   1.0078250
 NucSpn=           0           0           0           1           1           1           1           1
 AtZEff=  -0.0000000  -0.0000000  -0.0000000  -0.0000000  -0.0000000  -0.0000000  -0.0000000  -0.0000000
 NQMom=    0.0000000   0.0000000   0.0000000   0.0000000   0.0000000   0.0000000   0.0000000   0.0000000
 NMagM=    0.0000000   0.0000000   0.0000000   2.7928460   2.7928460   2.7928460   2.7928460   2.7928460
 AtZNuc=   8.0000000   8.0000000   6.0000000   1.0000000   1.0000000   1.0000000   1.0000000   1.0000000
 Leave Link  101 at Wed Dec 20 01:44:08 2023, MaxMem=  4026531840 cpu:               3.3 elap:               0.6
 (Enter /sysapps/ubuntu-applications/gaussian/Gaussian/AVX2/g16/l103.exe)

 GradGradGradGradGradGradGradGradGradGradGradGradGradGradGradGradGradGrad
 Berny optimization.
 Initialization pass.
                           ----------------------------
                           !    Initial Parameters    !
                           ! (Angstroms and Degrees)  !
 --------------------------                            --------------------------
 ! Name  Definition              Value          Derivative Info.                !
 --------------------------------------------------------------------------------
 ! R1    R(1,2)                  1.4767         estimate D2E/DX2                !
 ! R2    R(1,6)                  1.4884         estimate D2E/DX2                !
 ! R3    R(1,7)                  1.2249         estimate D2E/DX2                !
 ! R4    R(2,3)                  1.3338         estimate D2E/DX2                !
 ! R5    R(2,14)                 1.0843         estimate D2E/DX2                !
 ! R6    R(3,4)                  1.475          estimate D2E/DX2                !
 ! R7    R(3,15)                 1.0843         estimate D2E/DX2                !
 ! R8    R(4,5)                  1.4738         estimate D2E/DX2                !
 ! R9    R(4,8)                  1.2242         estimate D2E/DX2                !
 ! R10   R(5,6)                  1.3392         estimate D2E/DX2                !
 ! R11   R(5,10)                 1.4652         estimate D2E/DX2                !
 ! R12   R(6,9)                  1.7318         estimate D2E/DX2                !
 ! R13   R(10,11)                1.2201         estimate D2E/DX2                !
 ! R14   R(10,12)                1.3557         estimate D2E/DX2                !
 ! R15   R(12,13)                1.4283         estimate D2E/DX2                !
 ! R16   R(13,16)                1.0935         estimate D2E/DX2                !
 ! R17   R(13,17)                1.0947         estimate D2E/DX2                !
 ! R18   R(13,18)                1.0944         estimate D2E/DX2                !
 ! A1    A(2,1,6)              117.3395         estimate D2E/DX2                !
 ! A2    A(2,1,7)              119.1399         estimate D2E/DX2                !
 ! A3    A(6,1,7)              123.5203         estimate D2E/DX2                !
 ! A4    A(1,2,3)              121.5016         estimate D2E/DX2                !
 ! A5    A(1,2,14)             116.3905         estimate D2E/DX2                !
 ! A6    A(3,2,14)             122.1077         estimate D2E/DX2                !
 ! A7    A(2,3,4)              121.2631         estimate D2E/DX2                !
 ! A8    A(2,3,15)             122.1513         estimate D2E/DX2                !
 ! A9    A(4,3,15)             116.5855         estimate D2E/DX2                !
 ! A10   A(3,4,5)              117.6146         estimate D2E/DX2                !
 ! A11   A(3,4,8)              119.6604         estimate D2E/DX2                !
 ! A12   A(5,4,8)              122.7249         estimate D2E/DX2                !
 ! A13   A(4,5,6)              121.5581         estimate D2E/DX2                !
 ! A14   A(4,5,10)             119.0818         estimate D2E/DX2                !
 ! A15   A(6,5,10)             119.36           estimate D2E/DX2                !
 ! A16   A(1,6,5)              120.7152         estimate D2E/DX2                !
 ! A17   A(1,6,9)              115.8649         estimate D2E/DX2                !
 ! A18   A(5,6,9)              123.4134         estimate D2E/DX2                !
 ! A19   A(5,10,11)            123.9796         estimate D2E/DX2                !
 ! A20   A(5,10,12)            108.8328         estimate D2E/DX2                !
 ! A21   A(11,10,12)           127.1585         estimate D2E/DX2                !
 ! A22   A(10,12,13)           113.6579         estimate D2E/DX2                !
 ! A23   A(12,13,16)           108.0487         estimate D2E/DX2                !
 ! A24   A(12,13,17)           110.6168         estimate D2E/DX2                !
 ! A25   A(12,13,18)           110.3731         estimate D2E/DX2                !
 ! A26   A(16,13,17)           108.4073         estimate D2E/DX2                !
 ! A27   A(16,13,18)           108.5326         estimate D2E/DX2                !
 ! A28   A(17,13,18)           110.774          estimate D2E/DX2                !
 ! D1    D(6,1,2,3)              0.7563         estimate D2E/DX2                !
 ! D2    D(6,1,2,14)          -179.4017         estimate D2E/DX2                !
 ! D3    D(7,1,2,3)           -179.0677         estimate D2E/DX2                !
 ! D4    D(7,1,2,14)             0.7744         estimate D2E/DX2                !
 ! D5    D(2,1,6,5)             -0.7163         estimate D2E/DX2                !
 ! D6    D(2,1,6,9)           -179.8235         estimate D2E/DX2                !
 ! D7    D(7,1,6,5)            179.0993         estimate D2E/DX2                !
 ! D8    D(7,1,6,9)             -0.008          estimate D2E/DX2                !
 ! D9    D(1,2,3,4)             -0.0688         estimate D2E/DX2                !
 ! D10   D(1,2,3,15)           179.8853         estimate D2E/DX2                !
 ! D11   D(14,2,3,4)          -179.9018         estimate D2E/DX2                !
 ! D12   D(14,2,3,15)            0.0523         estimate D2E/DX2                !
 ! D13   D(2,3,4,5)             -0.6594         estimate D2E/DX2                !
 ! D14   D(2,3,4,8)            179.4414         estimate D2E/DX2                !
 ! D15   D(15,3,4,5)           179.384          estimate D2E/DX2                !
 ! D16   D(15,3,4,8)            -0.5151         estimate D2E/DX2                !
 ! D17   D(3,4,5,6)              0.6957         estimate D2E/DX2                !
 ! D18   D(3,4,5,10)          -179.2043         estimate D2E/DX2                !
 ! D19   D(8,4,5,6)           -179.4085         estimate D2E/DX2                !
 ! D20   D(8,4,5,10)             0.6915         estimate D2E/DX2                !
 ! D21   D(4,5,6,1)             -0.0048         estimate D2E/DX2                !
 ! D22   D(4,5,6,9)            179.0328         estimate D2E/DX2                !
 ! D23   D(10,5,6,1)           179.8949         estimate D2E/DX2                !
 ! D24   D(10,5,6,9)            -1.0675         estimate D2E/DX2                !
 ! D25   D(4,5,10,11)          100.9829         estimate D2E/DX2                !
 ! D26   D(4,5,10,12)          -80.8549         estimate D2E/DX2                !
 ! D27   D(6,5,10,11)          -78.9193         estimate D2E/DX2                !
 ! D28   D(6,5,10,12)           99.2429         estimate D2E/DX2                !
 ! D29   D(5,10,12,13)        -179.7043         estimate D2E/DX2                !
 ! D30   D(11,10,12,13)         -1.6165         estimate D2E/DX2                !
 ! D31   D(10,12,13,16)        178.1162         estimate D2E/DX2                !
 ! D32   D(10,12,13,17)         59.5987         estimate D2E/DX2                !
 ! D33   D(10,12,13,18)        -63.3542         estimate D2E/DX2                !
 --------------------------------------------------------------------------------
 Trust Radius=3.00D-01 FncErr=1.00D-07 GrdErr=1.00D-06 EigMax=2.50D+02 EigMin=1.00D-04
 Number of steps in this run=     89 maximum allowed number of steps=    108.
 GradGradGradGradGradGradGradGradGradGradGradGradGradGradGradGradGradGrad

 Leave Link  103 at Wed Dec 20 01:44:09 2023, MaxMem=  4026531840 cpu:               0.2 elap:               0.2
 (Enter /sysapps/ubuntu-applications/gaussian/Gaussian/AVX2/g16/l202.exe)
                          Input orientation:                          
 ---------------------------------------------------------------------
 Center     Atomic      Atomic             Coordinates (Angstroms)
 Number     Number       Type             X           Y           Z
 ---------------------------------------------------------------------
      1          6           0       -2.200040   -3.782480    1.219890
      2          6           0       -0.738080   -3.866500    1.410360
      3          6           0        0.004080   -2.774430    1.598880
      4          6           0       -0.603820   -1.430740    1.624060
      5          6           0       -2.060100   -1.335830    1.418490
      6          6           0       -2.813780   -2.426540    1.229140
      7          8           0       -2.841950   -4.814490    1.067380
      8          8           0        0.103720   -0.449120    1.809510
      9         17           0       -4.530510   -2.372750    1.007300
     10          6           0       -2.694960   -0.015260    1.419710
     11          8           0       -3.018980    0.586530    0.409000
     12          8           0       -2.885450    0.377570    2.703240
     13          6           0       -3.508250    1.657150    2.824560
     14          1           0       -0.305860   -4.860770    1.390930
     15          1           0        1.077810   -2.824030    1.741610
     16          1           0       -3.647600    1.866580    3.888700
     17          1           0       -4.490400    1.655190    2.341140
     18          1           0       -2.867200    2.434880    2.398000
 ---------------------------------------------------------------------
                    Distance matrix (angstroms):
                    1          2          3          4          5
     1  C    0.000000
     2  C    1.476708   0.000000
     3  C    2.453150   1.333776   0.000000
     4  C    2.870880   2.448800   1.475018   0.000000
     5  C    2.458683   2.855187   2.522489   1.473777   0.000000
     6  C    1.488400   2.532757   2.863227   2.455912   1.339229
     7  O    1.224889   2.332936   3.541783   4.094983   3.582687
     8  O    4.094661   3.542095   2.336955   1.224166   2.370921
     9  Cl   2.731963   4.095885   4.590623   4.084932   2.710573
    10  C    3.804842   4.319898   3.863928   2.533418   1.465249
    11  O    4.518457   5.102421   4.674479   3.373240   2.373603
    12  O    4.469466   4.928982   4.416344   3.104907   2.295109
    13  C    5.820305   6.339126   5.785988   4.405903   3.610000
    14  H    2.186294   1.084327   2.119462   3.450831   3.937425
    15  H    3.454724   2.119888   1.084310   2.186997   3.487926
    16  H    6.413256   6.890260   6.333800   5.026481   4.344827
    17  H    6.005931   6.740572   6.353962   5.014247   3.962807
    18  H    6.363066   6.724282   6.001646   4.545865   3.978581
                    6          7          8          9         10
     6  C    0.000000
     7  O    2.393588   0.000000
     8  O    3.571950   5.318288   0.000000
     9  Cl   1.731840   2.969333   5.081337   0.000000
    10  C    2.421716   4.814390   2.858809   3.016137   0.000000
    11  O    3.129429   5.443879   3.575647   3.376392   1.220113
    12  O    3.168776   5.443842   3.227585   3.625837   1.355747
    13  C    4.438939   6.738973   4.302677   4.537350   2.330665
    14  H    3.498759   2.557065   4.450351   4.917833   5.402554
    15  H    3.945263   4.447588   2.567812   5.674162   4.714510
    16  H    5.118534   7.296959   4.874208   5.201338   3.247269
    17  H    4.550617   6.796809   5.081013   4.243234   2.619741
    18  H    5.000249   7.370519   4.182122   5.273894   2.643843
                   11         12         13         14         15
    11  O    0.000000
    12  O    2.307603   0.000000
    13  C    2.687107   1.428259   0.000000
    14  H    6.164275   5.984701   7.402289   0.000000
    15  H    5.494675   5.184824   6.502746   2.487133   0.000000
    16  H    3.760585   2.050205   1.093468   7.916017   6.995807
    17  H    2.653352   2.083097   1.094677   7.801987   7.171319
    18  H    2.719477   2.079911   1.094423   7.797510   6.606821
                   16         17         18
    16  H    0.000000
    17  H    1.774807   0.000000
    18  H    1.776000   1.801646   0.000000
 Symmetry turned off by external request.
 Stoichiometry    C8H5ClO4(2-)
 Framework group  C1[X(C8H5ClO4)]
 Deg. of freedom    48
 Full point group                 C1      NOp   1
 Rotational constants (GHZ):           0.9907302           0.6394239           0.4273243
 Leave Link  202 at Wed Dec 20 01:44:09 2023, MaxMem=  4026531840 cpu:               0.3 elap:               0.1
 (Enter /sysapps/ubuntu-applications/gaussian/Gaussian/AVX2/g16/l301.exe)
 Standard basis: 6-311++G(d,p) (5D, 7F)
 Ernie: Thresh=  0.10000D-02 Tol=  0.10000D-05 Strict=F.
   329 basis functions,   530 primitive gaussians,   342 cartesian basis functions
    52 alpha electrons       52 beta electrons
       nuclear repulsion energy       870.2730672767 Hartrees.
 IExCor=  402 DFT=T Ex+Corr=B3LYP ExCW=0 ScaHFX=  0.200000
 ScaDFX=  0.800000  0.720000  1.000000  0.810000 ScalE2=  1.000000  1.000000
 IRadAn=      5 IRanWt=     -1 IRanGd=            0 ICorTp=0 IEmpDi=  4
 NAtoms=   18 NActive=   18 NUniq=   18 SFac= 1.00D+00 NAtFMM=   60 NAOKFM=F Big=F
 Integral buffers will be    131072 words long.
 Raffenetti 2 integral format.
 Two-electron integral symmetry is turned off.
 Leave Link  301 at Wed Dec 20 01:44:09 2023, MaxMem=  4026531840 cpu:               0.3 elap:               0.1
 (Enter /sysapps/ubuntu-applications/gaussian/Gaussian/AVX2/g16/l302.exe)
 NPDir=0 NMtPBC=     1 NCelOv=     1 NCel=       1 NClECP=     1 NCelD=      1
         NCelK=      1 NCelE2=     1 NClLst=     1 CellRange=     0.0.
 One-electron integrals computed using PRISM.
 NBasis=   329 RedAO= T EigKep=  1.05D-06  NBF=   329
 NBsUse=   329 1.00D-06 EigRej= -1.00D+00 NBFU=   329
 Precomputing XC quadrature grid using
 IXCGrd= 4 IRadAn=           5 IRanWt=          -1 IRanGd=           0 AccXCQ= 0.00D+00.
 Generated NRdTot=       0 NPtTot=           0 NUsed=           0 NTot=          32
 NSgBfM=   342   342   342   342   342 MxSgAt=    18 MxSgA2=    18.
 Leave Link  302 at Wed Dec 20 01:44:09 2023, MaxMem=  4026531840 cpu:               2.4 elap:               0.5
 (Enter /sysapps/ubuntu-applications/gaussian/Gaussian/AVX2/g16/l303.exe)
 DipDrv:  MaxL=1.
 Leave Link  303 at Wed Dec 20 01:44:10 2023, MaxMem=  4026531840 cpu:               0.7 elap:               0.2
 (Enter /sysapps/ubuntu-applications/gaussian/Gaussian/AVX2/g16/l401.exe)
 ExpMin= 3.60D-02 ExpMax= 1.06D+05 ExpMxC= 3.62D+03 IAcc=3 IRadAn=         5 AccDes= 0.00D+00
 Harris functional with IExCor=  402 and IRadAn=       5 diagonalized for initial guess.
 HarFok:  IExCor=  402 AccDes= 0.00D+00 IRadAn=         5 IDoV= 1 UseB2=F ITyADJ=14
 ICtDFT=  3500011 ScaDFX=  1.000000  1.000000  1.000000  1.000000
 FoFCou: FMM=F IPFlag=           0 FMFlag=      100000 FMFlg1=           0
         NFxFlg=           0 DoJE=T BraDBF=F KetDBF=T FulRan=T
         wScrn=  0.000000 ICntrl=       500 IOpCl=  0 I1Cent=   200000004 NGrid=           0
         NMat0=    1 NMatS0=      1 NMatT0=    0 NMatD0=    1 NMtDS0=    0 NMtDT0=    0
 Symmetry not used in FoFCou.
 Harris En= -1069.53850040843    
 JPrj=0 DoOrth=F DoCkMO=F.
 Initial guess <Sx>= 0.0000 <Sy>= 0.0000 <Sz>= 0.0000 <S**2>=-0.0000 S=-0.0000
 Leave Link  401 at Wed Dec 20 01:44:11 2023, MaxMem=  4026531840 cpu:               7.1 elap:               1.2
 (Enter /sysapps/ubuntu-applications/gaussian/Gaussian/AVX2/g16/l502.exe)
 Two-electron integral symmetry not used.
 UHF open shell SCF:
 Using DIIS extrapolation, IDIIS=  1040.
 NGot=  4026531840 LenX=  4026292736 LenY=  4026175331
 Requested convergence on RMS density matrix=1.00D-08 within 128 cycles.
 Requested convergence on MAX density matrix=1.00D-06.
 Requested convergence on             energy=1.00D-06.
 No special actions if energy rises.
 Fock matrices will be formed incrementally for  20 cycles.

 Cycle   1  Pass 1  IDiag  1:
 FoFJK:  IHMeth= 1 ICntrl=       0 DoSepK=F KAlg= 0 I1Cent=           0 FoldK=F
 IRaf= 890000000 NMat=       1 IRICut=       1 DoRegI=T DoRafI=F ISym2E= 0 IDoP0=0 IntGTp=1.
 FoFCou: FMM=F IPFlag=           0 FMFlag=      100000 FMFlg1=           0
         NFxFlg=           0 DoJE=F BraDBF=F KetDBF=F FulRan=T
         wScrn=  0.000000 ICntrl=         0 IOpCl=  1 I1Cent=           0 NGrid=           0
         NMat0=    1 NMatS0=      1 NMatT0=    0 NMatD0=    1 NMtDS0=    0 NMtDT0=    0
 Symmetry not used in FoFCou.
 E= -1068.49990372347    
 DIIS: error= 3.07D-02 at cycle   1 NSaved=   1.
 NSaved= 1 IEnMin= 1 EnMin= -1068.49990372347     IErMin= 1 ErrMin= 3.07D-02
 ErrMax= 3.07D-02  0.00D+00 EMaxC= 1.00D-01 BMatC= 2.77D+00 BMatP= 2.77D+00
 IDIUse=3 WtCom= 6.93D-01 WtEn= 3.07D-01
 Coeff-Com:  0.100D+01
 Coeff-En:   0.100D+01
 Coeff:      0.100D+01
 Gap=     0.075 Goal=   None    Shift=    0.000
 Gap=     0.075 Goal=   None    Shift=    0.000
 GapD=    0.075 DampG=0.500 DampE=0.500 DampFc=0.2500 IDamp=-1.
 Damping current iteration by 2.50D-01
 RMSDP=1.16D+01 MaxDP=1.90D+03              OVMax= 9.95D-01

 Cycle   2  Pass 1  IDiag  1:
 RMSU=  2.79D+00    CP:  3.00D+00
 E= -1068.33282773611     Delta-E=        0.167075987356 Rises=F Damp=T
 DIIS: error= 8.40D-03 at cycle   2 NSaved=   2.
 NSaved= 2 IEnMin= 1 EnMin= -1068.49990372347     IErMin= 2 ErrMin= 8.40D-03
 ErrMax= 8.40D-03  0.00D+00 EMaxC= 1.00D-01 BMatC= 3.97D-01 BMatP= 2.77D+00
 IDIUse=3 WtCom= 9.16D-01 WtEn= 8.40D-02
 Coeff-Com: -0.104D-01 0.101D+01
 Coeff-En:   0.602D+00 0.398D+00
 Coeff:      0.411D-01 0.959D+00
 Gap=    -0.118 Goal=   None    Shift=    0.000
 Gap=    -0.118 Goal=   None    Shift=    0.000
 RMSDP=2.83D+00 MaxDP=4.61D+02 DE= 1.67D-01 OVMax= 8.88D-01

 Cycle   3  Pass 1  IDiag  1:
 RMSU=  5.24D-02    CP:  1.66D+00  1.32D-02
 E= -1068.64797594207     Delta-E=       -0.315148205956 Rises=F Damp=F
 DIIS: error= 2.76D-02 at cycle   3 NSaved=   3.
 NSaved= 3 IEnMin= 3 EnMin= -1068.64797594207     IErMin= 2 ErrMin= 8.40D-03
 ErrMax= 2.76D-02  0.00D+00 EMaxC= 1.00D-01 BMatC= 1.70D+00 BMatP= 3.97D-01
 IDIUse=2 WtCom= 0.00D+00 WtEn= 1.00D+00
 EnCoef did     3 forward-backward iterations
 Coeff-En:   0.543D-01 0.315D+00 0.630D+00
 Coeff:      0.543D-01 0.315D+00 0.630D+00
 Gap=     0.277 Goal=   None    Shift=    0.000
 Gap=     0.277 Goal=   None    Shift=    0.000
 RMSDP=8.31D-01 MaxDP=9.00D+01 DE=-3.15D-01 OVMax= 9.88D-01

 Cycle   4  Pass 1  IDiag  1:
 RMSU=  7.62D-01    CP:  3.00D+00  6.22D-02 -1.91D+00
 E= -1068.07738007635     Delta-E=        0.570595865723 Rises=F Damp=F
 DIIS: error= 5.05D-02 at cycle   4 NSaved=   4.
 NSaved= 4 IEnMin= 3 EnMin= -1068.64797594207     IErMin= 2 ErrMin= 8.40D-03
 ErrMax= 5.05D-02  0.00D+00 EMaxC= 1.00D-01 BMatC= 3.53D+00 BMatP= 3.97D-01
 IDIUse=2 WtCom= 0.00D+00 WtEn= 1.00D+00
 Coeff-En:   0.000D+00 0.000D+00 0.635D+00 0.365D+00
 Coeff:      0.000D+00 0.000D+00 0.635D+00 0.365D+00
 Gap=     0.174 Goal=   None    Shift=    0.000
 Gap=     0.174 Goal=   None    Shift=    0.000
 RMSDP=8.37D-01 MaxDP=9.04D+01 DE= 5.71D-01 OVMax= 9.80D-01

 Cycle   5  Pass 1  IDiag  1:
 RMSU=  5.11D-02    CP:  1.43D+00  8.47D-03  1.73D-01 -1.29D-03
 E= -1069.03904651031     Delta-E=       -0.961666433964 Rises=F Damp=F
 DIIS: error= 7.47D-03 at cycle   5 NSaved=   5.
 NSaved= 5 IEnMin= 5 EnMin= -1069.03904651031     IErMin= 5 ErrMin= 7.47D-03
 ErrMax= 7.47D-03  0.00D+00 EMaxC= 1.00D-01 BMatC= 1.85D-01 BMatP= 3.97D-01
 IDIUse=3 WtCom= 9.25D-01 WtEn= 7.47D-02
 Coeff-Com: -0.166D+00 0.325D+00 0.275D+00 0.539D-01 0.512D+00
 Coeff-En:   0.000D+00 0.000D+00 0.000D+00 0.324D-01 0.968D+00
 Coeff:     -0.153D+00 0.301D+00 0.255D+00 0.523D-01 0.546D+00
 Gap=     0.050 Goal=   None    Shift=    0.000
 Gap=     0.050 Goal=   None    Shift=    0.000
 RMSDP=3.35D-02 MaxDP=3.52D+00 DE=-9.62D-01 OVMax= 2.01D-01

 Cycle   6  Pass 1  IDiag  1:
 RMSU=  1.31D-02    CP:  1.23D+00  3.59D-03  6.74D-02 -1.12D-03  5.73D-01
 E= -1069.02547934481     Delta-E=        0.013567165501 Rises=F Damp=F
 DIIS: error= 1.10D-02 at cycle   6 NSaved=   6.
 NSaved= 6 IEnMin= 5 EnMin= -1069.03904651031     IErMin= 5 ErrMin= 7.47D-03
 ErrMax= 1.10D-02  0.00D+00 EMaxC= 1.00D-01 BMatC= 1.90D-01 BMatP= 1.85D-01
 IDIUse=3 WtCom= 9.25D-01 WtEn= 7.47D-02
 EnCoef did     3 forward-backward iterations
 Coeff-Com: -0.190D+00 0.264D+00 0.951D-01 0.163D-03 0.429D+00 0.401D+00
 Coeff-En:   0.000D+00 0.000D+00 0.000D+00 0.632D-01 0.470D+00 0.467D+00
 Coeff:     -0.176D+00 0.244D+00 0.880D-01 0.487D-02 0.432D+00 0.406D+00
 Gap=     0.042 Goal=   None    Shift=    0.000
 Gap=     0.042 Goal=   None    Shift=    0.000
 RMSDP=1.81D-02 MaxDP=1.87D+00 DE= 1.36D-02 OVMax= 1.28D-01

 Cycle   7  Pass 1  IDiag  1:
 RMSU=  6.96D-03    CP:  1.35D+00  6.05D-03  1.12D-01 -1.11D-03  7.64D-01
                    CP:  5.05D-01
 E= -1069.06991332572     Delta-E=       -0.044433980912 Rises=F Damp=F
 DIIS: error= 5.73D-03 at cycle   7 NSaved=   7.
 NSaved= 7 IEnMin= 7 EnMin= -1069.06991332572     IErMin= 7 ErrMin= 5.73D-03
 ErrMax= 5.73D-03  0.00D+00 EMaxC= 1.00D-01 BMatC= 4.93D-02 BMatP= 1.85D-01
 IDIUse=3 WtCom= 9.43D-01 WtEn= 5.73D-02
 Coeff-Com: -0.942D-01 0.127D+00-0.658D-01 0.108D-01 0.720D-01 0.182D+00
 Coeff-Com:  0.768D+00
 Coeff-En:   0.000D+00 0.000D+00 0.000D+00 0.595D-01 0.000D+00 0.000D+00
 Coeff-En:   0.941D+00
 Coeff:     -0.888D-01 0.120D+00-0.621D-01 0.136D-01 0.679D-01 0.171D+00
 Coeff:      0.778D+00
 Gap=     0.003 Goal=   None    Shift=    0.000
 Gap=     0.003 Goal=   None    Shift=    0.000
 RMSDP=2.43D-01 MaxDP=3.08D+01 DE=-4.44D-02 OVMax= 4.69D-01

 Cycle   8  Pass 1  IDiag  1:
 RMSU=  1.22D-01    CP:  2.22D+00  6.30D-03  1.37D-01  2.47D-01  9.08D-01
                    CP: -2.58D+00  3.00D+00
 E= -1069.09159626242     Delta-E=       -0.021682936701 Rises=F Damp=F
 DIIS: error= 2.28D-03 at cycle   8 NSaved=   8.
 NSaved= 8 IEnMin= 8 EnMin= -1069.09159626242     IErMin= 8 ErrMin= 2.28D-03
 ErrMax= 2.28D-03  0.00D+00 EMaxC= 1.00D-01 BMatC= 1.29D-02 BMatP= 4.93D-02
 IDIUse=3 WtCom= 9.77D-01 WtEn= 2.28D-02
 Coeff-Com: -0.613D-01 0.768D-01-0.460D-01 0.749D-02 0.644D-01 0.113D+00
 Coeff-Com:  0.585D+00 0.260D+00
 Coeff-En:   0.000D+00 0.000D+00 0.000D+00 0.000D+00 0.000D+00 0.000D+00
 Coeff-En:   0.203D+00 0.797D+00
 Coeff:     -0.599D-01 0.750D-01-0.449D-01 0.732D-02 0.629D-01 0.111D+00
 Coeff:      0.576D+00 0.273D+00
 Gap=     0.010 Goal=   None    Shift=    0.000
 Gap=     0.010 Goal=   None    Shift=    0.000
 RMSDP=1.16D-01 MaxDP=1.52D+01 DE=-2.17D-02 OVMax= 1.74D-01

 Cycle   9  Pass 1  IDiag  1:
 RMSU=  1.01D-02    CP:  1.85D+00  7.01D-03  1.56D-01  1.25D-01  9.30D-01
                    CP: -1.22D+00  3.00D+00  5.18D-01
 E= -1069.09443153573     Delta-E=       -0.002835273303 Rises=F Damp=F
 DIIS: error= 1.09D-03 at cycle   9 NSaved=   9.
 NSaved= 9 IEnMin= 9 EnMin= -1069.09443153573     IErMin= 9 ErrMin= 1.09D-03
 ErrMax= 1.09D-03  0.00D+00 EMaxC= 1.00D-01 BMatC= 1.51D-03 BMatP= 1.29D-02
 IDIUse=3 WtCom= 9.89D-01 WtEn= 1.09D-02
 Coeff-Com: -0.110D-01 0.109D-01-0.656D-02 0.164D-02 0.289D-01 0.120D-01
 Coeff-Com:  0.733D-01 0.214D+00 0.677D+00
 Coeff-En:   0.000D+00 0.000D+00 0.000D+00 0.000D+00 0.000D+00 0.000D+00
 Coeff-En:   0.000D+00 0.360D+00 0.640D+00
 Coeff:     -0.109D-01 0.108D-01-0.649D-02 0.162D-02 0.286D-01 0.118D-01
 Coeff:      0.725D-01 0.215D+00 0.677D+00
 Gap=     0.008 Goal=   None    Shift=    0.000
 Gap=     0.008 Goal=   None    Shift=    0.000
 RMSDP=4.52D-01 MaxDP=6.26D+01 DE=-2.84D-03 OVMax= 4.23D-01

 Cycle  10  Pass 1  IDiag  1:
 RMSU=  8.56D-02    CP:  3.00D+00  3.60D-03 -6.55D-02  6.24D-01  6.86D-01
                    CP: -3.00D+00  3.00D+00  2.05D+00 -3.00D+00
 E= -1069.05005038614     Delta-E=        0.044381149585 Rises=F Damp=F
 DIIS: error= 7.88D-03 at cycle  10 NSaved=  10.
 NSaved=10 IEnMin= 9 EnMin= -1069.09443153573     IErMin= 9 ErrMin= 1.09D-03
 ErrMax= 7.88D-03  0.00D+00 EMaxC= 1.00D-01 BMatC= 7.99D-02 BMatP= 1.51D-03
 IDIUse=3 WtCom= 9.89D-01 WtEn= 1.09D-02
 EnCoef did   100 forward-backward iterations
 Coeff-Com: -0.111D-01 0.106D-01-0.230D-02-0.219D-02 0.391D-01 0.155D-01
 Coeff-Com:  0.600D-01 0.510D-01 0.738D+00 0.102D+00
 Coeff-En:   0.000D+00 0.000D+00 0.000D+00 0.000D+00 0.000D+00 0.000D+00
 Coeff-En:   0.000D+00 0.272D+00 0.692D+00 0.363D-01
 Coeff:     -0.110D-01 0.105D-01-0.227D-02-0.216D-02 0.387D-01 0.153D-01
 Coeff:      0.593D-01 0.534D-01 0.737D+00 0.101D+00
 Gap=     0.012 Goal=   None    Shift=    0.000
 Gap=     0.012 Goal=   None    Shift=    0.000
 RMSDP=1.39D-01 MaxDP=1.94D+01 DE= 4.44D-02 OVMax= 1.23D-01

 Cycle  11  Pass 1  IDiag  1:
 RMSU=  1.32D-02    CP:  2.73D+00  2.55D-03  6.62D-02  4.69D-01  7.63D-01
                    CP: -3.00D+00  3.00D+00  1.63D+00 -2.70D+00  5.87D-01
 E= -1069.07946769677     Delta-E=       -0.029417310630 Rises=F Damp=F
 DIIS: error= 4.80D-03 at cycle  11 NSaved=  11.
 NSaved=11 IEnMin= 9 EnMin= -1069.09443153573     IErMin= 9 ErrMin= 1.09D-03
 ErrMax= 4.80D-03  0.00D+00 EMaxC= 1.00D-01 BMatC= 3.11D-02 BMatP= 1.51D-03
 IDIUse=3 WtCom= 9.89D-01 WtEn= 1.09D-02
 Coeff-Com: -0.661D-02 0.764D-02 0.315D-02-0.368D-03 0.261D-01 0.163D-01
 Coeff-Com:  0.372D-01-0.147D+00 0.503D+00-0.546D+00 0.111D+01
 Coeff-En:   0.000D+00 0.000D+00 0.000D+00 0.000D+00 0.000D+00 0.000D+00
 Coeff-En:   0.000D+00 0.000D+00 0.768D+00 0.000D+00 0.232D+00
 Coeff:     -0.654D-02 0.755D-02 0.312D-02-0.364D-03 0.258D-01 0.161D-01
 Coeff:      0.368D-01-0.145D+00 0.506D+00-0.540D+00 0.110D+01
 Gap=     0.014 Goal=   None    Shift=    0.000
 Gap=     0.014 Goal=   None    Shift=    0.000
 RMSDP=4.66D-02 MaxDP=6.15D+00 DE=-2.94D-02 OVMax= 5.44D-02

 Cycle  12  Pass 1  IDiag  1:
 RMSU=  5.50D-03    CP:  2.59D+00  2.73D-03  5.67D-02  4.18D-01  7.54D-01
                    CP: -3.00D+00  3.00D+00  1.46D+00 -2.08D+00  5.14D-01
                    CP:  9.83D-01
 E= -1069.08857838610     Delta-E=       -0.009110689326 Rises=F Damp=F
 DIIS: error= 3.21D-03 at cycle  12 NSaved=  12.
 NSaved=12 IEnMin= 9 EnMin= -1069.09443153573     IErMin= 9 ErrMin= 1.09D-03
 ErrMax= 3.21D-03  0.00D+00 EMaxC= 1.00D-01 BMatC= 1.44D-02 BMatP= 1.51D-03
 IDIUse=3 WtCom= 9.89D-01 WtEn= 1.09D-02
 Coeff-Com: -0.455D-02 0.503D-02 0.523D-03 0.132D-02 0.168D-01 0.149D-01
 Coeff-Com:  0.589D-01-0.176D+00 0.363D+00-0.587D+00 0.860D+00 0.447D+00
 Coeff-En:   0.000D+00 0.000D+00 0.000D+00 0.000D+00 0.000D+00 0.000D+00
 Coeff-En:   0.000D+00 0.000D+00 0.680D+00 0.000D+00 0.000D+00 0.320D+00
 Coeff:     -0.450D-02 0.497D-02 0.517D-03 0.131D-02 0.167D-01 0.147D-01
 Coeff:      0.583D-01-0.174D+00 0.366D+00-0.581D+00 0.851D+00 0.445D+00
 Gap=     0.015 Goal=   None    Shift=    0.000
 Gap=     0.015 Goal=   None    Shift=    0.000
 RMSDP=3.70D-02 MaxDP=5.09D+00 DE=-9.11D-03 OVMax= 3.78D-02

 Cycle  13  Pass 1  IDiag  1:
 RMSU=  1.23D-03    CP:  2.48D+00  3.02D-03  6.19D-02  3.77D-01  7.56D-01
                    CP: -3.00D+00  3.00D+00  1.33D+00 -1.57D+00  4.35D-01
                    CP:  9.09D-01  1.45D+00
 E= -1069.09263300389     Delta-E=       -0.004054617787 Rises=F Damp=F
 DIIS: error= 2.25D-03 at cycle  13 NSaved=  13.
 NSaved=13 IEnMin= 9 EnMin= -1069.09443153573     IErMin= 9 ErrMin= 1.09D-03
 ErrMax= 2.25D-03  0.00D+00 EMaxC= 1.00D-01 BMatC= 7.40D-03 BMatP= 1.51D-03
 IDIUse=3 WtCom= 9.89D-01 WtEn= 1.09D-02
 Coeff-Com: -0.321D-02 0.398D-02-0.462D-03 0.145D-02 0.984D-02 0.121D-01
 Coeff-Com:  0.567D-01-0.142D+00 0.204D+00-0.342D+00 0.207D+00 0.112D+00
 Coeff-Com:  0.880D+00
 Coeff-En:   0.000D+00 0.000D+00 0.000D+00 0.000D+00 0.000D+00 0.000D+00
 Coeff-En:   0.000D+00 0.000D+00 0.586D+00 0.000D+00 0.000D+00 0.000D+00
 Coeff-En:   0.414D+00
 Coeff:     -0.318D-02 0.394D-02-0.457D-03 0.144D-02 0.973D-02 0.120D-01
 Coeff:      0.561D-01-0.140D+00 0.208D+00-0.338D+00 0.205D+00 0.111D+00
 Coeff:      0.875D+00
 Gap=     0.016 Goal=   None    Shift=    0.000
 Gap=     0.016 Goal=   None    Shift=    0.000
 RMSDP=6.26D-02 MaxDP=8.55D+00 DE=-4.05D-03 OVMax= 6.45D-02

 Cycle  14  Pass 1  IDiag  1:
 RMSU=  7.43D-04    CP:  2.29D+00  3.58D-03  6.89D-02  3.09D-01  7.65D-01
                    CP: -3.00D+00  3.00D+00  1.12D+00 -7.56D-01  2.95D-01
                    CP:  7.62D-01  2.18D+00  2.25D+00
 E= -1069.09638653197     Delta-E=       -0.003753528083 Rises=F Damp=F
 DIIS: error= 7.84D-04 at cycle  14 NSaved=  14.
 NSaved=14 IEnMin=14 EnMin= -1069.09638653197     IErMin=14 ErrMin= 7.84D-04
 ErrMax= 7.84D-04  0.00D+00 EMaxC= 1.00D-01 BMatC= 9.99D-04 BMatP= 1.51D-03
 IDIUse=3 WtCom= 9.92D-01 WtEn= 7.84D-03
 Coeff-Com: -0.887D-03 0.102D-02 0.436D-03 0.133D-03 0.398D-02 0.397D-02
 Coeff-Com:  0.166D-01-0.538D-01 0.469D-01 0.590D-01-0.331D+00-0.315D+00
 Coeff-Com:  0.743D+00 0.825D+00
 Coeff-En:   0.000D+00 0.000D+00 0.000D+00 0.000D+00 0.000D+00 0.000D+00
 Coeff-En:   0.000D+00 0.000D+00 0.243D+00 0.000D+00 0.000D+00 0.000D+00
 Coeff-En:   0.000D+00 0.757D+00
 Coeff:     -0.880D-03 0.101D-02 0.432D-03 0.132D-03 0.395D-02 0.394D-02
 Coeff:      0.165D-01-0.533D-01 0.484D-01 0.586D-01-0.328D+00-0.313D+00
 Coeff:      0.738D+00 0.825D+00
 Gap=     0.018 Goal=   None    Shift=    0.000
 Gap=     0.018 Goal=   None    Shift=    0.000
 RMSDP=3.90D-02 MaxDP=5.27D+00 DE=-3.75D-03 OVMax= 4.50D-02

 Cycle  15  Pass 1  IDiag  1:
 RMSU=  5.46D-04    CP:  2.17D+00  3.82D-03  7.20D-02  2.66D-01  7.61D-01
                    CP: -3.00D+00  3.00D+00  9.81D-01 -2.85D-01  2.16D-01
                    CP:  6.89D-01  2.72D+00  2.98D+00  1.94D+00
 E= -1069.09692552925     Delta-E=       -0.000538997283 Rises=F Damp=F
 DIIS: error= 1.53D-04 at cycle  15 NSaved=  15.
 NSaved=15 IEnMin=15 EnMin= -1069.09692552925     IErMin=15 ErrMin= 1.53D-04
 ErrMax= 1.53D-04  0.00D+00 EMaxC= 1.00D-01 BMatC= 3.81D-05 BMatP= 9.99D-04
 IDIUse=3 WtCom= 9.98D-01 WtEn= 1.53D-03
 Coeff-Com: -0.208D-03-0.165D-04 0.361D-03-0.529D-04 0.160D-02 0.104D-02
 Coeff-Com:  0.336D-02-0.242D-01 0.912D-02 0.561D-01-0.175D+00-0.171D+00
 Coeff-Com:  0.307D+00 0.509D+00 0.484D+00
 Coeff-En:   0.000D+00 0.000D+00 0.000D+00 0.000D+00 0.000D+00 0.000D+00
 Coeff-En:   0.000D+00 0.000D+00 0.000D+00 0.000D+00 0.000D+00 0.000D+00
 Coeff-En:   0.000D+00 0.136D+00 0.864D+00
 Coeff:     -0.208D-03-0.164D-04 0.360D-03-0.529D-04 0.159D-02 0.104D-02
 Coeff:      0.335D-02-0.242D-01 0.911D-02 0.560D-01-0.175D+00-0.171D+00
 Coeff:      0.306D+00 0.509D+00 0.484D+00
 Gap=     0.018 Goal=   None    Shift=    0.000
 Gap=     0.018 Goal=   None    Shift=    0.000
 RMSDP=6.64D-03 MaxDP=9.29D-01 DE=-5.39D-04 OVMax= 5.87D-03

 Cycle  16  Pass 1  IDiag  1:
 RMSU=  2.44D-04    CP:  2.19D+00  3.74D-03  6.88D-02  2.73D-01  7.59D-01
                    CP: -3.00D+00  3.00D+00  1.00D+00 -3.64D-01  2.35D-01
                    CP:  7.17D-01  2.71D+00  2.66D+00  1.76D+00  1.13D+00
 E= -1069.09694823737     Delta-E=       -0.000022708116 Rises=F Damp=F
 DIIS: error= 5.81D-05 at cycle  16 NSaved=  16.
 NSaved=16 IEnMin=16 EnMin= -1069.09694823737     IErMin=16 ErrMin= 5.81D-05
 ErrMax= 5.81D-05  0.00D+00 EMaxC= 1.00D-01 BMatC= 5.56D-06 BMatP= 3.81D-05
 IDIUse=1 WtCom= 1.00D+00 WtEn= 0.00D+00
 Coeff-Com: -0.684D-04 0.202D-04 0.178D-03-0.736D-04 0.365D-03-0.137D-04
 Coeff-Com: -0.280D-04-0.800D-02-0.578D-03 0.159D-01-0.436D-01-0.422D-01
 Coeff-Com:  0.790D-01 0.171D+00 0.290D+00 0.538D+00
 Coeff:     -0.684D-04 0.202D-04 0.178D-03-0.736D-04 0.365D-03-0.137D-04
 Coeff:     -0.280D-04-0.800D-02-0.578D-03 0.159D-01-0.436D-01-0.422D-01
 Coeff:      0.790D-01 0.171D+00 0.290D+00 0.538D+00
 Gap=     0.017 Goal=   None    Shift=    0.000
 Gap=     0.017 Goal=   None    Shift=    0.000
 RMSDP=3.82D-03 MaxDP=5.32D-01 DE=-2.27D-05 OVMax= 3.62D-03

 Cycle  17  Pass 1  IDiag  1:
 RMSU=  4.03D-05    CP:  2.20D+00  3.68D-03  6.68D-02  2.77D-01  7.57D-01
                    CP: -3.00D+00  3.00D+00  1.02D+00 -4.09D-01  2.45D-01
                    CP:  7.30D-01  2.70D+00  2.45D+00  1.65D+00  1.31D+00
                    CP:  1.47D+00
 E= -1069.09695192783     Delta-E=       -0.000003690465 Rises=F Damp=F
 DIIS: error= 5.12D-06 at cycle  17 NSaved=  17.
 NSaved=17 IEnMin=17 EnMin= -1069.09695192783     IErMin=17 ErrMin= 5.12D-06
 ErrMax= 5.12D-06  0.00D+00 EMaxC= 1.00D-01 BMatC= 8.18D-08 BMatP= 5.56D-06
 IDIUse=1 WtCom= 1.00D+00 WtEn= 0.00D+00
 Coeff-Com: -0.306D-04 0.337D-04 0.475D-04-0.319D-04 0.970D-04-0.103D-03
 Coeff-Com:  0.121D-03-0.284D-02-0.380D-03 0.306D-02-0.861D-02-0.924D-02
 Coeff-Com:  0.195D-01 0.481D-01 0.107D+00 0.267D+00 0.576D+00
 Coeff:     -0.306D-04 0.337D-04 0.475D-04-0.319D-04 0.970D-04-0.103D-03
 Coeff:      0.121D-03-0.284D-02-0.380D-03 0.306D-02-0.861D-02-0.924D-02
 Coeff:      0.195D-01 0.481D-01 0.107D+00 0.267D+00 0.576D+00
 Gap=     0.017 Goal=   None    Shift=    0.000
 Gap=     0.017 Goal=   None    Shift=    0.000
 RMSDP=3.72D-04 MaxDP=5.29D-02 DE=-3.69D-06 OVMax= 3.11D-04

 Cycle  18  Pass 1  IDiag  1:
 RMSU=  2.05D-05    CP:  2.20D+00  3.68D-03  6.61D-02  2.77D-01  7.57D-01
                    CP: -3.00D+00  3.00D+00  1.02D+00 -4.14D-01  2.46D-01
                    CP:  7.32D-01  2.71D+00  2.38D+00  1.64D+00  1.36D+00
                    CP:  1.67D+00  1.21D+00
 E= -1069.09695187618     Delta-E=        0.000000051657 Rises=F Damp=F
 DIIS: error= 9.30D-06 at cycle  18 NSaved=  18.
 NSaved=18 IEnMin=17 EnMin= -1069.09695192783     IErMin=17 ErrMin= 5.12D-06
 ErrMax= 9.30D-06  0.00D+00 EMaxC= 1.00D-01 BMatC= 1.60D-07 BMatP= 8.18D-08
 IDIUse=1 WtCom= 1.00D+00 WtEn= 0.00D+00
 Coeff-Com:  0.206D-05 0.186D-05-0.569D-05-0.336D-05 0.873D-05-0.726D-04
 Coeff-Com:  0.149D-03-0.491D-04-0.696D-03 0.382D-03 0.514D-03-0.440D-03
 Coeff-Com: -0.385D-02-0.283D-02 0.151D-02 0.281D-01 0.253D+00 0.724D+00
 Coeff:      0.206D-05 0.186D-05-0.569D-05-0.336D-05 0.873D-05-0.726D-04
 Coeff:      0.149D-03-0.491D-04-0.696D-03 0.382D-03 0.514D-03-0.440D-03
 Coeff:     -0.385D-02-0.283D-02 0.151D-02 0.281D-01 0.253D+00 0.724D+00
 Gap=     0.017 Goal=   None    Shift=    0.000
 Gap=     0.017 Goal=   None    Shift=    0.000
 RMSDP=4.31D-04 MaxDP=5.26D-02 DE= 5.17D-08 OVMax= 5.29D-04

 Cycle  19  Pass 1  IDiag  1:
 RMSU=  5.94D-06    CP:  2.20D+00  3.68D-03  6.56D-02  2.77D-01  7.57D-01
                    CP: -3.00D+00  3.00D+00  1.02D+00 -4.10D-01  2.45D-01
                    CP:  7.31D-01  2.72D+00  2.34D+00  1.65D+00  1.41D+00
                    CP:  1.81D+00  1.38D+00  1.99D+00
 E= -1069.09695197082     Delta-E=       -0.000000094641 Rises=F Damp=F
 DIIS: error= 7.97D-07 at cycle  19 NSaved=  19.
 NSaved=19 IEnMin=19 EnMin= -1069.09695197082     IErMin=19 ErrMin= 7.97D-07
 ErrMax= 7.97D-07  0.00D+00 EMaxC= 1.00D-01 BMatC= 1.52D-09 BMatP= 8.18D-08
 IDIUse=1 WtCom= 1.00D+00 WtEn= 0.00D+00
 Coeff-Com:  0.187D-05-0.491D-06-0.435D-05 0.391D-06-0.521D-05-0.233D-04
 Coeff-Com:  0.456D-04 0.198D-03-0.220D-03 0.305D-03-0.119D-03-0.682D-03
 Coeff-Com: -0.109D-02-0.189D-02-0.800D-02-0.220D-01-0.202D-01 0.196D+00
 Coeff-Com:  0.857D+00
 Coeff:      0.187D-05-0.491D-06-0.435D-05 0.391D-06-0.521D-05-0.233D-04
 Coeff:      0.456D-04 0.198D-03-0.220D-03 0.305D-03-0.119D-03-0.682D-03
 Coeff:     -0.109D-02-0.189D-02-0.800D-02-0.220D-01-0.202D-01 0.196D+00
 Coeff:      0.857D+00
 Gap=     0.017 Goal=   None    Shift=    0.000
 Gap=     0.017 Goal=   None    Shift=    0.000
 RMSDP=8.73D-05 MaxDP=6.95D-03 DE=-9.46D-08 OVMax= 1.10D-04

 Cycle  20  Pass 1  IDiag  1:
 RMSU=  2.36D-06    CP:  2.20D+00  3.68D-03  6.53D-02  2.77D-01  7.57D-01
                    CP: -3.00D+00  3.00D+00  1.02D+00 -4.09D-01  2.45D-01
                    CP:  7.32D-01  2.72D+00  2.31D+00  1.65D+00  1.43D+00
                    CP:  1.87D+00  1.50D+00  2.58D+00  1.64D+00
 E= -1069.09695196674     Delta-E=        0.000000004074 Rises=F Damp=F
 DIIS: error= 2.33D-06 at cycle  20 NSaved=  20.
 NSaved=20 IEnMin=19 EnMin= -1069.09695197082     IErMin=19 ErrMin= 7.97D-07
 ErrMax= 2.33D-06  0.00D+00 EMaxC= 1.00D-01 BMatC= 9.68D-09 BMatP= 1.52D-09
 IDIUse=1 WtCom= 1.00D+00 WtEn= 0.00D+00
 Coeff-Com: -0.398D-06 0.551D-06-0.224D-05 0.965D-06-0.673D-05-0.995D-06
 Coeff-Com:  0.133D-05 0.741D-04 0.323D-04 0.927D-04-0.319D-03-0.448D-03
 Coeff-Com:  0.971D-03 0.602D-03-0.474D-02-0.181D-01-0.713D-01-0.267D-01
 Coeff-Com:  0.554D+00 0.566D+00
 Coeff:     -0.398D-06 0.551D-06-0.224D-05 0.965D-06-0.673D-05-0.995D-06
 Coeff:      0.133D-05 0.741D-04 0.323D-04 0.927D-04-0.319D-03-0.448D-03
 Coeff:      0.971D-03 0.602D-03-0.474D-02-0.181D-01-0.713D-01-0.267D-01
 Coeff:      0.554D+00 0.566D+00
 Gap=     0.017 Goal=   None    Shift=    0.000
 Gap=     0.017 Goal=   None    Shift=    0.000
 RMSDP=6.16D-05 MaxDP=8.75D-03 DE= 4.07D-09 OVMax= 6.83D-05

 Cycle  21  Pass 1  IDiag  1:
 Restarting incremental Fock formation.
 E= -1069.09695197113     Delta-E=       -0.000000004383 Rises=F Damp=F
 DIIS: error= 1.14D-06 at cycle  21 NSaved=  20.
 NSaved=20 IEnMin=20 EnMin= -1069.09695197113     IErMin=18 ErrMin= 7.97D-07
 ErrMax= 1.14D-06  0.00D+00 EMaxC= 1.00D-01 BMatC= 2.32D-09 BMatP= 1.52D-09
 IDIUse=1 WtCom= 1.00D+00 WtEn= 0.00D+00
 Coeff-Com: -0.442D-06-0.178D-06-0.568D-06-0.322D-05 0.406D-05-0.231D-04
 Coeff-Com: -0.161D-04 0.764D-04 0.350D-04-0.287D-03-0.286D-03 0.134D-02
 Coeff-Com:  0.123D-02-0.630D-03-0.492D-02-0.385D-01-0.556D-01 0.114D+00
 Coeff-Com:  0.274D+00 0.710D+00
 Coeff:     -0.442D-06-0.178D-06-0.568D-06-0.322D-05 0.406D-05-0.231D-04
 Coeff:     -0.161D-04 0.764D-04 0.350D-04-0.287D-03-0.286D-03 0.134D-02
 Coeff:      0.123D-02-0.630D-03-0.492D-02-0.385D-01-0.556D-01 0.114D+00
 Coeff:      0.274D+00 0.710D+00
 Gap=     0.017 Goal=   None    Shift=    0.000
 Gap=     0.017 Goal=   None    Shift=    0.000
 RMSDP=5.08D-05 MaxDP=7.37D-03 DE=-4.38D-09 OVMax= 5.72D-05

 Cycle  22  Pass 1  IDiag  1:
 RMSU=  2.10D-05    CP:  1.00D+00
 E= -1069.09695197255     Delta-E=       -0.000000001422 Rises=F Damp=F
 DIIS: error= 1.10D-07 at cycle  22 NSaved=  20.
 NSaved=20 IEnMin=20 EnMin= -1069.09695197255     IErMin=20 ErrMin= 1.10D-07
 ErrMax= 1.10D-07  0.00D+00 EMaxC= 1.00D-01 BMatC= 2.40D-11 BMatP= 1.52D-09
 IDIUse=1 WtCom= 1.00D+00 WtEn= 0.00D+00
 Coeff-Com: -0.189D-06 0.443D-06-0.649D-06 0.241D-05-0.147D-04-0.118D-04
 Coeff-Com:  0.252D-04 0.327D-04-0.166D-03-0.144D-03 0.624D-03 0.578D-03
 Coeff-Com:  0.111D-03-0.105D-02-0.127D-01-0.224D-01 0.330D-02 0.674D-01
 Coeff-Com:  0.316D+00 0.648D+00
 Coeff:     -0.189D-06 0.443D-06-0.649D-06 0.241D-05-0.147D-04-0.118D-04
 Coeff:      0.252D-04 0.327D-04-0.166D-03-0.144D-03 0.624D-03 0.578D-03
 Coeff:      0.111D-03-0.105D-02-0.127D-01-0.224D-01 0.330D-02 0.674D-01
 Coeff:      0.316D+00 0.648D+00
 Gap=     0.017 Goal=   None    Shift=    0.000
 Gap=     0.017 Goal=   None    Shift=    0.000
 RMSDP=2.83D-06 MaxDP=2.59D-04 DE=-1.42D-09 OVMax= 4.15D-06

 Cycle  23  Pass 1  IDiag  1:
 RMSU=  2.73D-06    CP:  1.00D+00  1.03D+00
 E= -1069.09695197254     Delta-E=        0.000000000007 Rises=F Damp=F
 DIIS: error= 9.94D-08 at cycle  23 NSaved=  20.
 NSaved=20 IEnMin=19 EnMin= -1069.09695197255     IErMin=20 ErrMin= 9.94D-08
 ErrMax= 9.94D-08  0.00D+00 EMaxC= 1.00D-01 BMatC= 1.49D-11 BMatP= 2.40D-11
 IDIUse=1 WtCom= 1.00D+00 WtEn= 0.00D+00
 Coeff-Com:  0.365D-06 0.111D-06 0.599D-06-0.548D-05-0.283D-05 0.237D-05
 Coeff-Com:  0.872D-05-0.326D-04-0.186D-04 0.969D-04 0.108D-03 0.177D-03
 Coeff-Com:  0.152D-03-0.554D-03-0.199D-02-0.131D-01-0.952D-02 0.305D-01
 Coeff-Com:  0.327D+00 0.667D+00
 Coeff:      0.365D-06 0.111D-06 0.599D-06-0.548D-05-0.283D-05 0.237D-05
 Coeff:      0.872D-05-0.326D-04-0.186D-04 0.969D-04 0.108D-03 0.177D-03
 Coeff:      0.152D-03-0.554D-03-0.199D-02-0.131D-01-0.952D-02 0.305D-01
 Coeff:      0.327D+00 0.667D+00
 Gap=     0.017 Goal=   None    Shift=    0.000
 Gap=     0.017 Goal=   None    Shift=    0.000
 RMSDP=4.44D-06 MaxDP=8.48D-04 DE= 6.82D-12 OVMax= 6.93D-06

 Cycle  24  Pass 1  IDiag  1:
 RMSU=  2.83D-06    CP:  1.00D+00  1.08D+00  1.94D+00
 E= -1069.09695197256     Delta-E=       -0.000000000015 Rises=F Damp=F
 DIIS: error= 4.56D-08 at cycle  24 NSaved=  20.
 NSaved=20 IEnMin=20 EnMin= -1069.09695197256     IErMin=20 ErrMin= 4.56D-08
 ErrMax= 4.56D-08  0.00D+00 EMaxC= 1.00D-01 BMatC= 1.80D-12 BMatP= 1.49D-11
 IDIUse=1 WtCom= 1.00D+00 WtEn= 0.00D+00
 Coeff-Com: -0.258D-06 0.539D-06-0.298D-05-0.139D-05 0.426D-06 0.548D-05
 Coeff-Com: -0.231D-04-0.760D-05 0.697D-04 0.648D-04 0.122D-03 0.972D-04
 Coeff-Com: -0.332D-03-0.131D-02-0.103D-01-0.810D-02 0.213D-01 0.259D+00
 Coeff-Com:  0.549D+00 0.191D+00
 Coeff:     -0.258D-06 0.539D-06-0.298D-05-0.139D-05 0.426D-06 0.548D-05
 Coeff:     -0.231D-04-0.760D-05 0.697D-04 0.648D-04 0.122D-03 0.972D-04
 Coeff:     -0.332D-03-0.131D-02-0.103D-01-0.810D-02 0.213D-01 0.259D+00
 Coeff:      0.549D+00 0.191D+00
 Gap=     0.017 Goal=   None    Shift=    0.000
 Gap=     0.017 Goal=   None    Shift=    0.000
 RMSDP=2.10D-06 MaxDP=3.37D-04 DE=-1.46D-11 OVMax= 2.54D-06

 Cycle  25  Pass 1  IDiag  1:
 RMSU=  2.01D-07    CP:  1.00D+00  1.09D+00  2.43D+00  1.55D+00
 E= -1069.09695197257     Delta-E=       -0.000000000018 Rises=F Damp=F
 DIIS: error= 4.02D-08 at cycle  25 NSaved=  20.
 NSaved=20 IEnMin=20 EnMin= -1069.09695197257     IErMin=20 ErrMin= 4.02D-08
 ErrMax= 4.02D-08  0.00D+00 EMaxC= 1.00D-01 BMatC= 1.06D-12 BMatP= 1.80D-12
 IDIUse=1 WtCom= 1.00D+00 WtEn= 0.00D+00
 Coeff-Com: -0.229D-06-0.161D-05 0.475D-06-0.414D-05 0.346D-05-0.606D-05
 Coeff-Com:  0.864D-05 0.140D-05-0.750D-06 0.148D-03 0.301D-03 0.147D-02
 Coeff-Com:  0.176D-02-0.106D-01-0.171D-01-0.222D-01 0.173D+00 0.513D+00
 Coeff-Com:  0.241D+01-0.205D+01
 Coeff:     -0.229D-06-0.161D-05 0.475D-06-0.414D-05 0.346D-05-0.606D-05
 Coeff:      0.864D-05 0.140D-05-0.750D-06 0.148D-03 0.301D-03 0.147D-02
 Coeff:      0.176D-02-0.106D-01-0.171D-01-0.222D-01 0.173D+00 0.513D+00
 Coeff:      0.241D+01-0.205D+01
 Gap=     0.017 Goal=   None    Shift=    0.000
 Gap=     0.017 Goal=   None    Shift=    0.000
 RMSDP=7.86D-06 MaxDP=1.10D-03 DE=-1.82D-11 OVMax= 7.83D-06

 Cycle  26  Pass 1  IDiag  1:
 RMSU=  3.36D-07    CP:  1.00D+00  1.07D+00  5.11D-01 -4.83D-01 -3.00D+00
 E= -1069.09695197255     Delta-E=        0.000000000024 Rises=F Damp=F
 DIIS: error= 2.12D-08 at cycle  26 NSaved=  20.
 NSaved=20 IEnMin=19 EnMin= -1069.09695197257     IErMin=20 ErrMin= 2.12D-08
 ErrMax= 2.12D-08  0.00D+00 EMaxC= 1.00D-01 BMatC= 5.87D-13 BMatP= 1.06D-12
 IDIUse=1 WtCom= 1.00D+00 WtEn= 0.00D+00
 Coeff-Com:  0.596D-08-0.759D-06-0.982D-06-0.210D-05 0.450D-05 0.985D-05
 Coeff-Com: -0.129D-04-0.149D-04 0.871D-04 0.217D-03 0.125D-02 0.155D-02
 Coeff-Com: -0.509D-02-0.105D-01-0.259D-01 0.241D-01 0.155D+00 0.165D+01
 Coeff-Com: -0.148D+01 0.690D+00
 Coeff:      0.596D-08-0.759D-06-0.982D-06-0.210D-05 0.450D-05 0.985D-05
 Coeff:     -0.129D-04-0.149D-04 0.871D-04 0.217D-03 0.125D-02 0.155D-02
 Coeff:     -0.509D-02-0.105D-01-0.259D-01 0.241D-01 0.155D+00 0.165D+01
 Coeff:     -0.148D+01 0.690D+00
 Gap=     0.017 Goal=   None    Shift=    0.000
 Gap=     0.017 Goal=   None    Shift=    0.000
 RMSDP=1.73D-06 MaxDP=3.08D-04 DE= 2.36D-11 OVMax= 2.53D-06

 Cycle  27  Pass 1  IDiag  1:
 RMSU=  1.28D-07    CP:  1.00D+00  1.08D+00  9.45D-02 -8.68D-01 -3.00D+00
                    CP:  2.19D+00
 E= -1069.09695197255     Delta-E=       -0.000000000005 Rises=F Damp=F
 DIIS: error= 2.79D-09 at cycle  27 NSaved=  20.
 NSaved=20 IEnMin=18 EnMin= -1069.09695197257     IErMin=20 ErrMin= 2.79D-09
 ErrMax= 2.79D-09  0.00D+00 EMaxC= 1.00D-01 BMatC= 1.35D-14 BMatP= 5.87D-13
 IDIUse=1 WtCom= 1.00D+00 WtEn= 0.00D+00
 Large coefficients: NSaved= 20 BigCof=    0.00 CofMax=   10.00 Det=-3.67D-15
 Inversion failed.  Reducing to 19 matrices.
 Large coefficients: NSaved= 19 BigCof=    0.00 CofMax=   10.00 Det=-3.67D-15
 Inversion failed.  Reducing to 18 matrices.
 Large coefficients: NSaved= 18 BigCof=    0.00 CofMax=   10.00 Det=-3.72D-15
 Inversion failed.  Reducing to 17 matrices.
 Large coefficients: NSaved= 17 BigCof=    0.00 CofMax=   10.00 Det=-3.96D-15
 Inversion failed.  Reducing to 16 matrices.
 Large coefficients: NSaved= 16 BigCof=    0.00 CofMax=   10.00 Det=-4.46D-15
 Inversion failed.  Reducing to 15 matrices.
 Coeff-Com: -0.158D-06 0.187D-05 0.234D-04 0.533D-04 0.179D-03 0.200D-03
 Coeff-Com:  0.561D-03-0.143D-03-0.515D-02-0.179D-01-0.219D-01 0.351D+00
 Coeff-Com: -0.341D+00 0.309D+00 0.725D+00
 Coeff:     -0.158D-06 0.187D-05 0.234D-04 0.533D-04 0.179D-03 0.200D-03
 Coeff:      0.561D-03-0.143D-03-0.515D-02-0.179D-01-0.219D-01 0.351D+00
 Coeff:     -0.341D+00 0.309D+00 0.725D+00
 Gap=     0.017 Goal=   None    Shift=    0.000
 Gap=     0.017 Goal=   None    Shift=    0.000
 RMSDP=3.44D-07 MaxDP=5.45D-05 DE=-4.55D-12 OVMax= 3.34D-07

 Cycle  28  Pass 1  IDiag  1:
 RMSU=  2.71D-08    CP:  1.00D+00  1.08D+00  6.92D-03 -9.19D-01 -3.00D+00
                    CP:  2.67D+00  1.45D+00
 E= -1069.09695197256     Delta-E=       -0.000000000007 Rises=F Damp=F
 DIIS: error= 1.85D-09 at cycle  28 NSaved=  16.
 NSaved=16 IEnMin=13 EnMin= -1069.09695197257     IErMin=16 ErrMin= 1.85D-09
 ErrMax= 1.85D-09  0.00D+00 EMaxC= 1.00D-01 BMatC= 8.28D-15 BMatP= 1.35D-14
 IDIUse=1 WtCom= 1.00D+00 WtEn= 0.00D+00
 Large coefficients: NSaved= 16 BigCof=    0.00 CofMax=   10.00 Det=-3.31D-15
 Inversion failed.  Reducing to 15 matrices.
 Coeff-Com: -0.158D-05 0.356D-05 0.213D-05-0.204D-04-0.113D-03 0.637D-04
 Coeff-Com:  0.741D-04-0.106D-02-0.723D-02-0.132D-01 0.390D-01-0.399D-01
 Coeff-Com:  0.817D-01 0.277D+00 0.664D+00
 Coeff:     -0.158D-05 0.356D-05 0.213D-05-0.204D-04-0.113D-03 0.637D-04
 Coeff:      0.741D-04-0.106D-02-0.723D-02-0.132D-01 0.390D-01-0.399D-01
 Coeff:      0.817D-01 0.277D+00 0.664D+00
 Gap=     0.017 Goal=   None    Shift=    0.000
 Gap=     0.017 Goal=   None    Shift=    0.000
 RMSDP=1.91D-07 MaxDP=3.39D-05 DE=-6.82D-12 OVMax= 2.61D-07

 Cycle  29  Pass 1  IDiag  1:
 RMSU=  8.91D-09    CP:  1.00D+00  1.07D+00  4.56D-02 -9.07D-01 -3.00D+00
                    CP:  2.71D+00  1.50D+00  1.62D+00
 E= -1069.09695197259     Delta-E=       -0.000000000026 Rises=F Damp=F
 DIIS: error= 7.96D-10 at cycle  29 NSaved=  16.
 NSaved=16 IEnMin=16 EnMin= -1069.09695197259     IErMin=16 ErrMin= 7.96D-10
 ErrMax= 7.96D-10  0.00D+00 EMaxC= 1.00D-01 BMatC= 1.45D-15 BMatP= 8.28D-15
 IDIUse=1 WtCom= 1.00D+00 WtEn= 0.00D+00
 Large coefficients: NSaved= 16 BigCof=    0.00 CofMax=   10.00 Det=-1.22D-15
 Inversion failed.  Reducing to 15 matrices.
 Coeff-Com: -0.264D-05-0.817D-05-0.692D-04-0.116D-03 0.395D-03 0.689D-03
 Coeff-Com:  0.992D-03-0.555D-02-0.165D-01-0.862D-01 0.766D-01-0.992D-02
 Coeff-Com:  0.743D-01 0.344D+00 0.622D+00
 Coeff:     -0.264D-05-0.817D-05-0.692D-04-0.116D-03 0.395D-03 0.689D-03
 Coeff:      0.992D-03-0.555D-02-0.165D-01-0.862D-01 0.766D-01-0.992D-02
 Coeff:      0.743D-01 0.344D+00 0.622D+00
 Gap=     0.017 Goal=   None    Shift=    0.000
 Gap=     0.017 Goal=   None    Shift=    0.000
 RMSDP=5.36D-08 MaxDP=5.08D-06 DE=-2.64D-11 OVMax= 5.89D-08

 Cycle  30  Pass 1  IDiag  1:
 RMSU=  2.89D-09    CP:  1.00D+00  1.07D+00  3.50D-02 -9.05D-01 -3.00D+00
                    CP:  2.83D+00  1.61D+00  2.01D+00  1.27D+00
 E= -1069.09695197255     Delta-E=        0.000000000038 Rises=F Damp=F
 DIIS: error= 3.78D-10 at cycle  30 NSaved=  16.
 NSaved=16 IEnMin=15 EnMin= -1069.09695197259     IErMin=16 ErrMin= 3.78D-10
 ErrMax= 3.78D-10  0.00D+00 EMaxC= 1.00D-01 BMatC= 2.36D-16 BMatP= 1.45D-15
 IDIUse=1 WtCom= 1.00D+00 WtEn= 0.00D+00
 Large coefficients: NSaved= 16 BigCof=    0.00 CofMax=   10.00 Det=-3.02D-16
 Inversion failed.  Reducing to 15 matrices.
 Coeff-Com:  0.708D-07-0.429D-05-0.173D-04-0.156D-05 0.323D-04 0.185D-03
 Coeff-Com: -0.377D-03-0.208D-02-0.267D-01 0.244D-01-0.121D-01-0.681D-02
 Coeff-Com:  0.896D-01 0.334D+00 0.600D+00
 Coeff:      0.708D-07-0.429D-05-0.173D-04-0.156D-05 0.323D-04 0.185D-03
 Coeff:     -0.377D-03-0.208D-02-0.267D-01 0.244D-01-0.121D-01-0.681D-02
 Coeff:      0.896D-01 0.334D+00 0.600D+00
 Gap=     0.017 Goal=   None    Shift=    0.000
 Gap=     0.017 Goal=   None    Shift=    0.000
 RMSDP=2.49D-08 MaxDP=2.41D-06 DE= 3.77D-11 OVMax= 3.62D-08

 Cycle  31  Pass 1  IDiag  1:
 RMSU=  1.47D-09    CP:  1.00D+00  1.07D+00  3.33D-02 -9.03D-01 -3.00D+00
                    CP:  2.86D+00  1.63D+00  2.16D+00  1.38D+00  1.86D+00
 E= -1069.09695197255     Delta-E=       -0.000000000000 Rises=F Damp=F
 DIIS: error= 2.56D-10 at cycle  31 NSaved=  16.
 NSaved=16 IEnMin=14 EnMin= -1069.09695197259     IErMin=16 ErrMin= 2.56D-10
 ErrMax= 2.56D-10  0.00D+00 EMaxC= 1.00D-01 BMatC= 1.19D-16 BMatP= 2.36D-16
 IDIUse=1 WtCom= 1.00D+00 WtEn= 0.00D+00
 Large coefficients: NSaved= 16 BigCof=    0.00 CofMax=   10.00 Det=-4.64D-17
 Inversion failed.  Reducing to 15 matrices.
 Coeff-Com:  0.115D-05 0.476D-05-0.103D-04-0.674D-05 0.151D-03 0.602D-03
 Coeff-Com:  0.619D-03-0.989D-02 0.962D-02-0.102D-01-0.254D-01-0.296D-01
 Coeff-Com:  0.809D-01 0.257D+00 0.726D+00
 Coeff:      0.115D-05 0.476D-05-0.103D-04-0.674D-05 0.151D-03 0.602D-03
 Coeff:      0.619D-03-0.989D-02 0.962D-02-0.102D-01-0.254D-01-0.296D-01
 Coeff:      0.809D-01 0.257D+00 0.726D+00
 Gap=     0.017 Goal=   None    Shift=    0.000
 Gap=     0.017 Goal=   None    Shift=    0.000
 RMSDP=1.87D-08 MaxDP=2.44D-06 DE=-4.55D-13 OVMax= 1.43D-08

 Cycle  32  Pass 1  IDiag  1:
 RMSU=  1.33D-09    CP:  1.00D+00  1.07D+00  3.25D-02 -9.01D-01 -3.00D+00
                    CP:  2.89D+00  1.66D+00  2.28D+00  1.53D+00  2.56D+00
                    CP:  1.63D+00
 E= -1069.09695197254     Delta-E=        0.000000000009 Rises=F Damp=F
 DIIS: error= 1.27D-10 at cycle  32 NSaved=  16.
 NSaved=16 IEnMin=13 EnMin= -1069.09695197259     IErMin=16 ErrMin= 1.27D-10
 ErrMax= 1.27D-10  0.00D+00 EMaxC= 1.00D-01 BMatC= 3.66D-17 BMatP= 1.19D-16
 IDIUse=1 WtCom= 1.00D+00 WtEn= 0.00D+00
 Large coefficients: NSaved= 16 BigCof=    0.00 CofMax=   10.00 Det=-9.03D-18
 Inversion failed.  Reducing to 15 matrices.
 Coeff-Com:  0.167D-06-0.143D-04-0.115D-04 0.689D-04 0.403D-03 0.609D-03
 Coeff-Com:  0.111D-02-0.665D-03-0.189D-02-0.933D-02-0.298D-01-0.277D-01
 Coeff-Com:  0.338D-01 0.418D+00 0.615D+00
 Coeff:      0.167D-06-0.143D-04-0.115D-04 0.689D-04 0.403D-03 0.609D-03
 Coeff:      0.111D-02-0.665D-03-0.189D-02-0.933D-02-0.298D-01-0.277D-01
 Coeff:      0.338D-01 0.418D+00 0.615D+00
 Gap=     0.017 Goal=   None    Shift=    0.000
 Gap=     0.017 Goal=   None    Shift=    0.000
 RMSDP=1.07D-08 MaxDP=1.82D-06 DE= 8.64D-12 OVMax= 9.98D-09

 Cycle  33  Pass 1  IDiag  1:
 RMSU=  1.07D-09    CP:  1.00D+00  1.07D+00  3.34D-02 -9.00D-01 -3.00D+00
                    CP:  2.90D+00  1.66D+00  2.32D+00  1.58D+00  2.90D+00
                    CP:  2.12D+00  1.33D+00
 E= -1069.09695197255     Delta-E=       -0.000000000007 Rises=F Damp=F
 DIIS: error= 5.42D-11 at cycle  33 NSaved=  16.
 NSaved=16 IEnMin=12 EnMin= -1069.09695197259     IErMin=16 ErrMin= 5.42D-11
 ErrMax= 5.42D-11  0.00D+00 EMaxC= 1.00D-01 BMatC= 6.84D-19 BMatP= 3.66D-17
 IDIUse=1 WtCom= 1.00D+00 WtEn= 0.00D+00
 Large coefficients: NSaved= 16 BigCof=    0.00 CofMax=   10.00 Det=-2.97D-18
 Inversion failed.  Reducing to 15 matrices.
 Coeff-Com: -0.385D-05-0.814D-05-0.286D-06 0.183D-03 0.442D-03 0.326D-02
 Coeff-Com: -0.305D-02 0.923D-03-0.803D-03-0.132D-01-0.321D-01-0.409D-01
 Coeff-Com:  0.112D+00 0.374D+00 0.599D+00
 Coeff:     -0.385D-05-0.814D-05-0.286D-06 0.183D-03 0.442D-03 0.326D-02
 Coeff:     -0.305D-02 0.923D-03-0.803D-03-0.132D-01-0.321D-01-0.409D-01
 Coeff:      0.112D+00 0.374D+00 0.599D+00
 Gap=     0.017 Goal=   None    Shift=    0.000
 Gap=     0.017 Goal=   None    Shift=    0.000
 RMSDP=4.22D-09 MaxDP=7.92D-07 DE=-6.82D-12 OVMax= 3.55D-09

 SCF Done:  E(UB3LYP) =  -1069.09695197     A.U. after   33 cycles
            NFock= 33  Conv=0.42D-08     -V/T= 2.0025
 <Sx>= 0.0000 <Sy>= 0.0000 <Sz>= 0.0000 <S**2>=-0.0000 S=-0.0000
 <L.S>=  0.00000000000    
 KE= 1.066381529687D+03 PE=-4.290760673373D+03 EE= 1.285009124436D+03
 Annihilation of the first spin contaminant:
 S**2 before annihilation    -0.0000,   after     0.0000
 Leave Link  502 at Wed Dec 20 01:46:42 2023, MaxMem=  4026531840 cpu:            1057.4 elap:             151.2
 (Enter /sysapps/ubuntu-applications/gaussian/Gaussian/AVX2/g16/l601.exe)
 Copying SCF densities to generalized density rwf, IOpCl= 1 IROHF=0.

 **********************************************************************

            Population analysis using the SCF density.

 **********************************************************************

 Alpha  occ. eigenvalues -- -101.30117 -18.93930 -18.87855 -18.79421 -18.79268
 Alpha  occ. eigenvalues --  -10.06338 -10.00051  -9.95702  -9.95523  -9.95199
 Alpha  occ. eigenvalues --   -9.91025  -9.90314  -9.90044  -9.21631  -6.98026
 Alpha  occ. eigenvalues --   -6.97158  -6.97099  -0.87285  -0.78715  -0.74082
 Alpha  occ. eigenvalues --   -0.73777  -0.62374  -0.55211  -0.52215  -0.47948
 Alpha  occ. eigenvalues --   -0.40165  -0.37004  -0.32550  -0.31616  -0.26351
 Alpha  occ. eigenvalues --   -0.25459  -0.24706  -0.22311  -0.20573  -0.19396
 Alpha  occ. eigenvalues --   -0.18339  -0.15807  -0.14879  -0.14124  -0.13162
 Alpha  occ. eigenvalues --   -0.12151  -0.11558  -0.10679  -0.08780  -0.07860
 Alpha  occ. eigenvalues --   -0.06358  -0.04906  -0.00637   0.00442   0.02921
 Alpha  occ. eigenvalues --    0.03483   0.13616
 Alpha virt. eigenvalues --    0.15362   0.17996   0.19024   0.19681   0.19980
 Alpha virt. eigenvalues --    0.22020   0.23497   0.24133   0.25169   0.26031
 Alpha virt. eigenvalues --    0.26543   0.27335   0.27788   0.28123   0.28664
 Alpha virt. eigenvalues --    0.29016   0.29301   0.29772   0.30639   0.30871
 Alpha virt. eigenvalues --    0.30996   0.31550   0.32538   0.32727   0.33097
 Alpha virt. eigenvalues --    0.33328   0.33740   0.34262   0.34534   0.35363
 Alpha virt. eigenvalues --    0.36345   0.36588   0.37344   0.38083   0.38957
 Alpha virt. eigenvalues --    0.40107   0.41239   0.41673   0.42190   0.42405
 Alpha virt. eigenvalues --    0.43107   0.43794   0.44410   0.45040   0.45839
 Alpha virt. eigenvalues --    0.45929   0.47587   0.48134   0.48999   0.49429
 Alpha virt. eigenvalues --    0.49991   0.50198   0.51443   0.51610   0.52407
 Alpha virt. eigenvalues --    0.52597   0.53358   0.53747   0.54417   0.55183
 Alpha virt. eigenvalues --    0.55662   0.56149   0.56838   0.57709   0.59862
 Alpha virt. eigenvalues --    0.60128   0.60586   0.60764   0.61535   0.63070
 Alpha virt. eigenvalues --    0.64333   0.64828   0.65766   0.66752   0.69546
 Alpha virt. eigenvalues --    0.70040   0.70586   0.71685   0.72519   0.72741
 Alpha virt. eigenvalues --    0.74527   0.76486   0.78612   0.80039   0.80646
 Alpha virt. eigenvalues --    0.81045   0.83867   0.84629   0.85669   0.86100
 Alpha virt. eigenvalues --    0.86763   0.87386   0.88806   0.90573   0.91298
 Alpha virt. eigenvalues --    0.91356   0.92512   0.93542   0.94480   0.95886
 Alpha virt. eigenvalues --    0.98897   1.01068   1.02307   1.03734   1.05519
 Alpha virt. eigenvalues --    1.08590   1.09972   1.11379   1.12063   1.13171
 Alpha virt. eigenvalues --    1.14571   1.16855   1.17566   1.19323   1.19635
 Alpha virt. eigenvalues --    1.21437   1.22684   1.23894   1.25227   1.25410
 Alpha virt. eigenvalues --    1.28311   1.28783   1.31881   1.32407   1.33245
 Alpha virt. eigenvalues --    1.34559   1.37119   1.39112   1.41586   1.44556
 Alpha virt. eigenvalues --    1.45626   1.46531   1.47281   1.48035   1.49557
 Alpha virt. eigenvalues --    1.51544   1.52056   1.53069   1.56113   1.57681
 Alpha virt. eigenvalues --    1.57957   1.58165   1.59580   1.61195   1.64193
 Alpha virt. eigenvalues --    1.66597   1.68787   1.73566   1.74503   1.75869
 Alpha virt. eigenvalues --    1.77184   1.78252   1.81820   1.83120   1.83949
 Alpha virt. eigenvalues --    1.91140   1.91759   1.92246   1.93899   1.94258
 Alpha virt. eigenvalues --    1.94835   1.97171   2.01383   2.02281   2.04776
 Alpha virt. eigenvalues --    2.04885   2.07507   2.07941   2.09525   2.14064
 Alpha virt. eigenvalues --    2.14606   2.19498   2.20282   2.22212   2.22851
 Alpha virt. eigenvalues --    2.24699   2.28986   2.33892   2.34691   2.35045
 Alpha virt. eigenvalues --    2.39395   2.40797   2.45271   2.47417   2.51118
 Alpha virt. eigenvalues --    2.51856   2.55289   2.61764   2.64782   2.66209
 Alpha virt. eigenvalues --    2.68208   2.70473   2.73322   2.74847   2.75170
 Alpha virt. eigenvalues --    2.83128   2.85498   2.86387   2.88178   2.91457
 Alpha virt. eigenvalues --    2.96044   2.98508   2.99799   3.01350   3.03107
 Alpha virt. eigenvalues --    3.06423   3.07809   3.10727   3.11861   3.13480
 Alpha virt. eigenvalues --    3.15861   3.21929   3.22289   3.23390   3.25290
 Alpha virt. eigenvalues --    3.28039   3.30049   3.31113   3.32992   3.33237
 Alpha virt. eigenvalues --    3.42575   3.45616   3.47889   3.51616   3.54073
 Alpha virt. eigenvalues --    3.55966   3.57290   3.62038   3.64922   3.67451
 Alpha virt. eigenvalues --    3.75634   3.77601   3.79207   3.86335   3.91010
 Alpha virt. eigenvalues --    3.91874   3.97047   4.01765   4.04499   4.07256
 Alpha virt. eigenvalues --    4.25119   4.25861   4.33990   4.35771   4.40973
 Alpha virt. eigenvalues --    4.49171   4.51508   5.01854   5.25989   5.34793
 Alpha virt. eigenvalues --    5.36675   5.38580   5.45957   5.51559   5.55653
 Alpha virt. eigenvalues --    5.62797   5.86495   6.01640   6.06955   6.10093
 Alpha virt. eigenvalues --   10.07650  23.84221  24.05124  24.10386  24.14614
 Alpha virt. eigenvalues --   24.17645  24.23194  24.46823  24.54962  26.12167
 Alpha virt. eigenvalues --   26.49073  26.97533  50.13662  50.22598  50.32955
 Alpha virt. eigenvalues --   50.37261 216.07661
  Beta  occ. eigenvalues -- -101.30117 -18.93930 -18.87855 -18.79421 -18.79268
  Beta  occ. eigenvalues --  -10.06338 -10.00051  -9.95702  -9.95523  -9.95199
  Beta  occ. eigenvalues --   -9.91025  -9.90314  -9.90044  -9.21631  -6.98026
  Beta  occ. eigenvalues --   -6.97158  -6.97099  -0.87285  -0.78715  -0.74082
  Beta  occ. eigenvalues --   -0.73777  -0.62374  -0.55211  -0.52215  -0.47948
  Beta  occ. eigenvalues --   -0.40165  -0.37004  -0.32550  -0.31616  -0.26351
  Beta  occ. eigenvalues --   -0.25459  -0.24706  -0.22311  -0.20573  -0.19396
  Beta  occ. eigenvalues --   -0.18339  -0.15807  -0.14879  -0.14124  -0.13162
  Beta  occ. eigenvalues --   -0.12151  -0.11558  -0.10679  -0.08780  -0.07860
  Beta  occ. eigenvalues --   -0.06358  -0.04906  -0.00637   0.00442   0.02921
  Beta  occ. eigenvalues --    0.03483   0.13616
  Beta virt. eigenvalues --    0.15362   0.17996   0.19024   0.19681   0.19980
  Beta virt. eigenvalues --    0.22020   0.23497   0.24133   0.25169   0.26031
  Beta virt. eigenvalues --    0.26543   0.27335   0.27788   0.28123   0.28664
  Beta virt. eigenvalues --    0.29016   0.29301   0.29772   0.30639   0.30871
  Beta virt. eigenvalues --    0.30996   0.31550   0.32538   0.32727   0.33097
  Beta virt. eigenvalues --    0.33328   0.33740   0.34262   0.34534   0.35363
  Beta virt. eigenvalues --    0.36345   0.36588   0.37344   0.38083   0.38957
  Beta virt. eigenvalues --    0.40107   0.41239   0.41673   0.42190   0.42405
  Beta virt. eigenvalues --    0.43107   0.43794   0.44410   0.45040   0.45839
  Beta virt. eigenvalues --    0.45929   0.47587   0.48134   0.48999   0.49429
  Beta virt. eigenvalues --    0.49991   0.50198   0.51443   0.51610   0.52407
  Beta virt. eigenvalues --    0.52597   0.53358   0.53747   0.54417   0.55183
  Beta virt. eigenvalues --    0.55662   0.56149   0.56838   0.57709   0.59862
  Beta virt. eigenvalues --    0.60128   0.60586   0.60764   0.61535   0.63070
  Beta virt. eigenvalues --    0.64333   0.64828   0.65766   0.66752   0.69546
  Beta virt. eigenvalues --    0.70040   0.70586   0.71685   0.72519   0.72741
  Beta virt. eigenvalues --    0.74527   0.76486   0.78612   0.80039   0.80646
  Beta virt. eigenvalues --    0.81045   0.83867   0.84629   0.85669   0.86100
  Beta virt. eigenvalues --    0.86763   0.87386   0.88806   0.90573   0.91298
  Beta virt. eigenvalues --    0.91356   0.92512   0.93542   0.94480   0.95886
  Beta virt. eigenvalues --    0.98897   1.01068   1.02307   1.03734   1.05519
  Beta virt. eigenvalues --    1.08590   1.09972   1.11379   1.12063   1.13171
  Beta virt. eigenvalues --    1.14571   1.16855   1.17566   1.19323   1.19635
  Beta virt. eigenvalues --    1.21437   1.22684   1.23894   1.25227   1.25410
  Beta virt. eigenvalues --    1.28311   1.28783   1.31881   1.32407   1.33245
  Beta virt. eigenvalues --    1.34559   1.37119   1.39112   1.41586   1.44556
  Beta virt. eigenvalues --    1.45626   1.46531   1.47281   1.48035   1.49557
  Beta virt. eigenvalues --    1.51544   1.52056   1.53069   1.56113   1.57681
  Beta virt. eigenvalues --    1.57957   1.58165   1.59580   1.61195   1.64193
  Beta virt. eigenvalues --    1.66597   1.68787   1.73566   1.74503   1.75869
  Beta virt. eigenvalues --    1.77184   1.78252   1.81820   1.83120   1.83949
  Beta virt. eigenvalues --    1.91140   1.91759   1.92246   1.93899   1.94258
  Beta virt. eigenvalues --    1.94835   1.97171   2.01383   2.02281   2.04776
  Beta virt. eigenvalues --    2.04885   2.07507   2.07941   2.09525   2.14064
  Beta virt. eigenvalues --    2.14606   2.19498   2.20282   2.22212   2.22851
  Beta virt. eigenvalues --    2.24699   2.28986   2.33892   2.34691   2.35045
  Beta virt. eigenvalues --    2.39395   2.40797   2.45271   2.47417   2.51118
  Beta virt. eigenvalues --    2.51856   2.55289   2.61764   2.64782   2.66209
  Beta virt. eigenvalues --    2.68208   2.70473   2.73322   2.74847   2.75170
  Beta virt. eigenvalues --    2.83128   2.85498   2.86387   2.88178   2.91457
  Beta virt. eigenvalues --    2.96044   2.98508   2.99799   3.01350   3.03107
  Beta virt. eigenvalues --    3.06423   3.07809   3.10727   3.11861   3.13480
  Beta virt. eigenvalues --    3.15861   3.21929   3.22289   3.23390   3.25290
  Beta virt. eigenvalues --    3.28039   3.30049   3.31113   3.32992   3.33237
  Beta virt. eigenvalues --    3.42575   3.45616   3.47889   3.51616   3.54073
  Beta virt. eigenvalues --    3.55966   3.57290   3.62038   3.64922   3.67451
  Beta virt. eigenvalues --    3.75634   3.77601   3.79207   3.86335   3.91010
  Beta virt. eigenvalues --    3.91874   3.97047   4.01765   4.04499   4.07256
  Beta virt. eigenvalues --    4.25119   4.25861   4.33990   4.35771   4.40973
  Beta virt. eigenvalues --    4.49171   4.51508   5.01854   5.25989   5.34793
  Beta virt. eigenvalues --    5.36675   5.38580   5.45957   5.51559   5.55653
  Beta virt. eigenvalues --    5.62797   5.86495   6.01640   6.06955   6.10093
  Beta virt. eigenvalues --   10.07650  23.84221  24.05124  24.10386  24.14614
  Beta virt. eigenvalues --   24.17645  24.23194  24.46823  24.54962  26.12167
  Beta virt. eigenvalues --   26.49073  26.97533  50.13662  50.22598  50.32955
  Beta virt. eigenvalues --   50.37261 216.07661
          Condensed to atoms (all electrons):
               1          2          3          4          5          6
     1  C   22.398606  -1.999552   5.254291  -5.173544  -0.163094  -7.505589
     2  C   -1.999552  14.177643  -4.612432   4.413460  -0.888545  -4.089892
     3  C    5.254291  -4.612432  18.203714  -6.617855   2.121498  -0.439119
     4  C   -5.173544   4.413460  -6.617855  23.993125  -8.750551  -5.428486
     5  C   -0.163094  -0.888545   2.121498  -8.750551  96.329026 -19.865521
     6  C   -7.505589  -4.089892  -0.439119  -5.428486 -19.865521  53.840926
     7  O    0.091336  -0.338714  -0.071734   0.023021   0.041832   0.093970
     8  O    0.037716  -0.030607  -0.240820   0.195245   0.082493  -0.177238
     9  Cl   0.893653   0.730700  -0.089729   0.453252   2.741950  -2.809811
    10  C   -7.193955  -1.693920  -8.157606   4.246768 -67.611827  -8.593289
    11  O    0.196056  -0.001595   0.152786  -0.199354   1.954194   0.265110
    12  O    0.014382  -0.022705  -0.030734   0.117412  -3.632670  -0.084053
    13  C    0.719359   0.050605   0.859202  -0.411250  18.288640   0.480883
    14  H    0.074735   0.222820   0.038841  -0.097931   0.125789   0.061866
    15  H   -0.063110   0.023487   0.073171   0.237567  -0.162905   0.033089
    16  H   -0.277350  -0.010217  -0.366255   0.181391  -7.176851  -0.161185
    17  H   -0.230646  -0.013979  -0.168354   0.144325  -4.313721  -0.384378
    18  H   -0.128814  -0.020195  -0.199165  -0.033972  -4.334428  -0.103720
               7          8          9         10         11         12
     1  C    0.091336   0.037716   0.893653  -7.193955   0.196056   0.014382
     2  C   -0.338714  -0.030607   0.730700  -1.693920  -0.001595  -0.022705
     3  C   -0.071734  -0.240820  -0.089729  -8.157606   0.152786  -0.030734
     4  C    0.023021   0.195245   0.453252   4.246768  -0.199354   0.117412
     5  C    0.041832   0.082493   2.741950 -67.611827   1.954194  -3.632670
     6  C    0.093970  -0.177238  -2.809811  -8.593289   0.265110  -0.084053
     7  O    8.450350   0.000359   0.049371   0.093485  -0.002316   0.000150
     8  O    0.000359   8.455755  -0.012486   0.141070   0.011934   0.009550
     9  Cl   0.049371  -0.012486  18.239144  -3.567322   0.013783  -0.084699
    10  C    0.093485   0.141070  -3.567322 101.400385  -2.127229   3.487120
    11  O   -0.002316   0.011934   0.013783  -2.127229   8.143290  -0.213318
    12  O    0.000150   0.009550  -0.084699   3.487120  -0.213318   9.074131
    13  C    0.001958  -0.084714   0.712448 -19.875309   0.070899  -4.078458
    14  H   -0.007333  -0.000922  -0.003458  -0.138171   0.001215  -0.000809
    15  H   -0.000727  -0.007965   0.005655   0.143020  -0.001803   0.001536
    16  H   -0.001282   0.039470  -0.280718   7.658867  -0.029622   1.711520
    17  H    0.000088   0.004735  -0.201219   4.685767  -0.007462   0.884761
    18  H    0.000110   0.012716  -0.109823   4.417243  -0.006954   0.872617
              13         14         15         16         17         18
     1  C    0.719359   0.074735  -0.063110  -0.277350  -0.230646  -0.128814
     2  C    0.050605   0.222820   0.023487  -0.010217  -0.013979  -0.020195
     3  C    0.859202   0.038841   0.073171  -0.366255  -0.168354  -0.199165
     4  C   -0.411250  -0.097931   0.237567   0.181391   0.144325  -0.033972
     5  C   18.288640   0.125789  -0.162905  -7.176851  -4.313721  -4.334428
     6  C    0.480883   0.061866   0.033089  -0.161185  -0.384378  -0.103720
     7  O    0.001958  -0.007333  -0.000727  -0.001282   0.000088   0.000110
     8  O   -0.084714  -0.000922  -0.007965   0.039470   0.004735   0.012716
     9  Cl   0.712448  -0.003458   0.005655  -0.280718  -0.201219  -0.109823
    10  C  -19.875309  -0.138171   0.143020   7.658867   4.685767   4.417243
    11  O    0.070899   0.001215  -0.001803  -0.029622  -0.007462  -0.006954
    12  O   -4.078458  -0.000809   0.001536   1.711520   0.884761   0.872617
    13  C   34.473611   0.005851  -0.014926 -13.748645  -6.586850  -6.279312
    14  H    0.005851   0.686369  -0.051954  -0.002657  -0.001364  -0.001312
    15  H   -0.014926  -0.051954   0.686537   0.006222   0.002512   0.004000
    16  H  -13.748645  -0.002657   0.006222   8.272495   3.176355   3.046972
    17  H   -6.586850  -0.001364   0.002512   3.176355   2.839522   1.529724
    18  H   -6.279312  -0.001312   0.004000   3.046972   1.529724   2.663630
          Atomic-Atomic Spin Densities.
               1          2          3          4          5          6
     1  C    0.000000  -0.000001   0.000001  -0.000000  -0.000001   0.000000
     2  C   -0.000001   0.000001  -0.000001   0.000001  -0.000000  -0.000000
     3  C    0.000001  -0.000001   0.000001  -0.000001   0.000000   0.000000
     4  C   -0.000000   0.000001  -0.000001   0.000001  -0.000001   0.000000
     5  C   -0.000001  -0.000000   0.000000  -0.000001  -0.000004   0.000005
     6  C    0.000000  -0.000000   0.000000   0.000000   0.000005  -0.000005
     7  O   -0.000000  -0.000000  -0.000000   0.000000   0.000000  -0.000000
     8  O    0.000000  -0.000000   0.000000  -0.000000  -0.000000   0.000000
     9  Cl  -0.000000   0.000000  -0.000000   0.000000  -0.000000   0.000000
    10  C    0.000001  -0.000000  -0.000000   0.000000   0.000000  -0.000001
    11  O   -0.000000  -0.000000   0.000000  -0.000000  -0.000000   0.000000
    12  O    0.000000  -0.000000  -0.000000   0.000000   0.000000  -0.000000
    13  C   -0.000000   0.000000   0.000000  -0.000000  -0.000000   0.000000
    14  H   -0.000000  -0.000000  -0.000000   0.000000  -0.000000   0.000000
    15  H    0.000000   0.000000   0.000000  -0.000000   0.000000  -0.000000
    16  H    0.000000  -0.000000  -0.000000   0.000000   0.000000  -0.000000
    17  H    0.000000   0.000000  -0.000000   0.000000  -0.000000  -0.000000
    18  H    0.000000  -0.000000  -0.000000   0.000000   0.000000  -0.000000
               7          8          9         10         11         12
     1  C   -0.000000   0.000000  -0.000000   0.000001  -0.000000   0.000000
     2  C   -0.000000  -0.000000   0.000000  -0.000000  -0.000000  -0.000000
     3  C   -0.000000   0.000000  -0.000000  -0.000000   0.000000  -0.000000
     4  C    0.000000  -0.000000   0.000000   0.000000  -0.000000   0.000000
     5  C    0.000000  -0.000000  -0.000000   0.000000  -0.000000   0.000000
     6  C   -0.000000   0.000000   0.000000  -0.000001   0.000000  -0.000000
     7  O   -0.000000   0.000000   0.000000  -0.000000   0.000000  -0.000000
     8  O    0.000000  -0.000000  -0.000000  -0.000000   0.000000   0.000000
     9  Cl   0.000000  -0.000000   0.000000  -0.000000   0.000000   0.000000
    10  C   -0.000000  -0.000000  -0.000000   0.000000  -0.000000   0.000000
    11  O    0.000000   0.000000   0.000000  -0.000000   0.000000   0.000000
    12  O   -0.000000   0.000000   0.000000   0.000000   0.000000   0.000000
    13  C    0.000000  -0.000000   0.000000  -0.000000  -0.000000  -0.000000
    14  H    0.000000  -0.000000  -0.000000   0.000000  -0.000000  -0.000000
    15  H   -0.000000   0.000000   0.000000  -0.000000   0.000000  -0.000000
    16  H   -0.000000   0.000000  -0.000000   0.000000   0.000000   0.000000
    17  H   -0.000000   0.000000  -0.000000   0.000000   0.000000   0.000000
    18  H   -0.000000   0.000000   0.000000   0.000000   0.000000  -0.000000
              13         14         15         16         17         18
     1  C   -0.000000  -0.000000   0.000000   0.000000   0.000000   0.000000
     2  C    0.000000  -0.000000   0.000000  -0.000000   0.000000  -0.000000
     3  C    0.000000  -0.000000   0.000000  -0.000000  -0.000000  -0.000000
     4  C   -0.000000   0.000000  -0.000000   0.000000   0.000000   0.000000
     5  C   -0.000000  -0.000000   0.000000   0.000000  -0.000000   0.000000
     6  C    0.000000   0.000000  -0.000000  -0.000000  -0.000000  -0.000000
     7  O    0.000000   0.000000  -0.000000  -0.000000  -0.000000  -0.000000
     8  O   -0.000000  -0.000000   0.000000   0.000000   0.000000   0.000000
     9  Cl   0.000000  -0.000000   0.000000  -0.000000  -0.000000   0.000000
    10  C   -0.000000   0.000000  -0.000000   0.000000   0.000000   0.000000
    11  O   -0.000000  -0.000000   0.000000   0.000000   0.000000   0.000000
    12  O   -0.000000  -0.000000  -0.000000   0.000000   0.000000  -0.000000
    13  C    0.000000  -0.000000   0.000000  -0.000000  -0.000000   0.000000
    14  H   -0.000000  -0.000000   0.000000   0.000000   0.000000   0.000000
    15  H    0.000000   0.000000  -0.000000  -0.000000  -0.000000  -0.000000
    16  H   -0.000000   0.000000  -0.000000   0.000000   0.000000  -0.000000
    17  H   -0.000000   0.000000  -0.000000   0.000000   0.000000   0.000000
    18  H    0.000000   0.000000  -0.000000  -0.000000   0.000000  -0.000000
 Mulliken charges and spin densities:
               1          2
     1  C   -0.944478   0.000000
     2  C    0.103637   0.000000
     3  C    0.290300  -0.000000
     4  C   -1.292621   0.000000
     5  C    1.214690  -0.000000
     6  C    0.866437   0.000000
     7  O   -0.423924   0.000000
     8  O   -0.436291  -0.000000
     9  Cl   0.319309  -0.000000
    10  C   -1.315094   0.000000
    11  O   -0.219613   0.000000
    12  O   -0.025733   0.000000
    13  C    1.416008  -0.000000
    14  H    0.088425  -0.000000
    15  H    0.086593  -0.000000
    16  H   -1.038510   0.000000
    17  H   -0.359816   0.000000
[...]
 0064886,-2.3512914,-0.8688105,0.5030535,-4.6787184,-1.6627167,0.121112
 ,-0.8483114,-0.7970103,-1.7185052,1.0595044,0.7337091,-2.3541049,1.874
 8787,1.3011884,-0.4181641,0.5078095,-0.2272587,-0.6058867,-1.149854,-0
 .6573758,-0.0260496,-0.0609856,0.0429105,-0.0823294,-0.0947333,-0.2095
 318,-0.0301567,1.0602373,1.0048138,0.4855248,-1.685256,-1.5722677,0.56
 7108,-1.1403677,0.8544639,-0.1722159,-0.6152023,-0.7028866,-0.2416182,
 0.4952098,0.9729947,-0.1844741,0.2033743,-0.9703355,-0.0177763,-0.5909
 462,-0.2352688,-0.7532379,1.4715824,0.6616647,-0.4876371,1.2929137,-0.
 0905261,0.1412439,0.3847018,0.0362333,0.400834,-0.3627856,-0.1514512,0
 .1203168,-0.4543321,-0.0683486,-0.0527757,0.1520272,0.0071116,0.252257
 2,-0.4416527,-0.1229086,-0.0328421,-0.0027332,0.1105243,-0.3879373,0.2
 733098,0.053084,-0.0459992,0.1049211,0.0180816,-0.0928001,0.0326478,0.
 1298687,-0.1992093,0.2312662,0.1929436,0.1148512,-0.4831335,-0.3922282
 ,-0.0435098,0.1476238,-0.0588824,-0.0771887,-0.0308135,-0.0081865,0.06
 61358,-0.0729034,0.0835846,0.0934676,-0.2160638,-0.1338534,-0.0542389,
 -0.0715081,-0.0206246,0.0098003,-0.2040208,0.0505774,0.0512358,-0.0604
 321,-0.0876638\Polar=370.5119518,-334.216024,1048.2393183,-122.7779335
 ,406.2861031,405.7413782\Quadrupole=-4.3661445,-24.0305581,28.3967027,
 -36.3784559,17.4133634,9.9305983\PG=C01 [X(C8H5Cl1O4)]\NImag=0\\0.5422
 2752,0.07226668,0.64405709,0.07666356,0.07379377,0.18401864,-0.2115129
 8,-0.01160995,-0.02805198,0.56757373,0.04040040,-0.11915641,0.00147726
 ,0.00073445,0.69848194,-0.02344867,-0.00880890,-0.06937049,0.08825640,
 0.07611189,0.12932312,-0.01904366,-0.02312130,-0.00673435,-0.17997169,
 -0.12415468,-0.04250180,0.65823489,-0.06004551,0.03607745,-0.00773215,
 -0.07257834,-0.28893963,-0.04649489,0.04029222,0.61796262,-0.01199613,
 0.00054783,-0.00221262,-0.03508418,-0.05546894,-0.05390988,0.10863345,
 0.07063759,0.12929039,-0.04123131,0.02831342,-0.00443742,0.05396307,0.
 01398764,0.01144991,-0.15369271,0.03503722,-0.01148946,0.52836508,0.02
 977827,-0.01928655,0.00386632,-0.02291283,-0.05005051,-0.01085914,0.07
 389894,-0.18561890,0.00079582,0.05033878,0.64658649,-0.00169315,0.0017
 3246,0.00189682,0.00530364,-0.00504470,0.00128141,-0.00718071,-0.00695
 411,-0.06779118,0.06759093,0.05915140,0.18031868,0.04709036,-0.0176818
 0,0.00516878,-0.02961711,-0.01507166,-0.00815119,-0.02077839,0.0454285
 6,-0.00065915,-0.18389887,0.01444256,-0.01601269,0.51127740,0.01979155
 ,-0.04805128,-0.00294712,-0.01790266,-0.01922015,-0.00678346,0.0242041
 6,0.02502003,0.00852028,0.03659202,-0.12500103,-0.00954674,-0.00273384
 ,0.60951542,0.01420283,-0.01130559,0.00071903,-0.00988172,-0.00672046,
 0.00311628,-0.00051755,0.01313688,0.00437823,-0.01558669,-0.01097018,-
 0.06824899,0.08086161,0.06540019,0.15790997,-0.11954859,0.07193832,-0.
 00103242,-0.02233234,0.01786756,-0.00172316,-0.00514450,-0.00290555,-0
 .00189320,-0.02755085,-0.02100132,-0.00888713,-0.12938123,-0.09319073,
 -0.03409871,0.37754238,0.02583857,-0.18801043,-0.01048496,0.05653442,0
 .02798118,0.01369928,-0.00066978,-0.04997246,-0.00769475,-0.07216874,0
 .03349301,-0.00723289,-0.04666941,-0.23932714,-0.03407202,0.02093249,0
 .57115360,-0.01008976,-0.00218737,-0.06271850,0.00401989,0.00748321,0.
 00175829,-0.00152237,-0.00828166,0.00215497,-0.01560676,0.00112025,0.0
 0167760,-0.02705794,-0.03830636,-0.03978947,0.05603621,0.06553180,0.09
 564011,-0.15319392,-0.13215080,-0.03312445,-0.04319181,-0.05528946,-0.
 01735243,-0.00283057,0.01310977,0.00061483,0.00706454,-0.00533333,0.00
 043743,-0.00693888,-0.00278370,-0.00270283,0.01515457,0.00310437,0.001
 25891,0.17538243,-0.13391324,-0.30944097,-0.05545016,-0.03290117,-0.00
 600223,-0.00853289,-0.00032040,-0.00204650,-0.00088631,-0.00186470,0.0
 0362297,0.00034385,0.00735507,0.00416023,0.00269224,-0.00829626,-0.081
 51935,-0.01390556,0.17612645,0.39174226,-0.03266390,-0.05495853,-0.070
 31676,-0.01541934,-0.01313986,0.01098445,-0.00128149,0.00215495,0.0040
 7970,0.00178609,-0.00049864,-0.00278780,-0.00068040,-0.00099507,0.0022
 4388,-0.00102508,-0.01117915,0.01440656,0.04803812,0.07671384,0.046358
 51,0.00670569,-0.00238629,0.00147378,-0.00652238,-0.00132708,-0.002136
 15,0.02425879,0.00195326,0.00321514,-0.16020502,-0.13606659,-0.0313186
 3,-0.04902718,-0.05049078,-0.01718201,-0.00079074,0.01440628,0.0018915
 4,-0.00159883,-0.00241446,-0.00083377,0.18583431,-0.00731166,0.0061925
 9,-0.00093037,0.01438053,0.00530119,0.00305783,-0.01663537,-0.07974206
 ,-0.01304625,-0.12717053,-0.30385341,-0.04341977,-0.04478452,0.0070073
 4,-0.00701440,-0.00028047,-0.00404255,-0.00205759,0.00061422,-0.002609
 36,-0.00008727,0.18053466,0.37496659,0.00054203,-0.00019422,-0.0022097
 3,0.00038616,0.00004874,0.00340073,-0.00017711,-0.00978853,0.01538405,
 -0.02920408,-0.04738400,-0.06639635,-0.01660703,-0.00857854,0.01189144
 ,-0.00059084,0.00261290,0.00262043,0.00003656,-0.00003643,0.00091450,0
 .04144258,0.06418419,0.04176277,-0.04505728,-0.00928109,-0.00877011,0.
 00130822,0.00973426,0.00065870,-0.00148070,0.00195514,-0.00000496,0.00
 679275,-0.00664628,0.00039728,-0.03281233,0.00251450,-0.00478356,-0.09
 202001,0.00373715,-0.01122333,0.00769212,-0.00173559,0.00152175,-0.002
 29217,0.00209495,-0.00024603,0.16101014,0.02265087,0.00080437,0.002796
 38,0.00082773,-0.00387202,-0.00094439,-0.00041598,0.00018689,-0.000103
 84,0.00204363,-0.00282302,0.00026604,-0.02112207,0.00442107,-0.0024320
 2,-0.00109142,-0.03753156,-0.00376374,0.00362647,0.00272829,0.00148249
 ,-0.00160829,-0.00016289,-0.00051922,-0.00229192,0.03980281,-0.0045230
 0,-0.00203050,0.00421924,-0.00059845,0.00050238,0.00382058,-0.00010612
 ,0.00053847,0.00008548,0.00142103,-0.00192807,0.00264925,-0.00848794,0
 .00070066,-0.00170111,-0.01211758,-0.00212563,-0.01628801,0.00213863,0
 .00046606,-0.00270753,-0.00103154,0.00002615,0.00043022,0.02311615,0.0
 0283792,0.01207250,0.00304778,-0.00877174,-0.00009501,-0.00227359,-0.0
 0449857,-0.00076271,-0.00658939,0.00120812,-0.00185091,-0.00954528,0.0
 3646750,-0.00498236,-0.12611635,0.03213495,-0.00949656,0.02018931,0.00
 233481,0.01056319,-0.00034874,0.00103817,-0.00117175,0.00276361,-0.004
 42230,0.00278347,-0.00278399,-0.00073095,-0.00013371,0.34508861,-0.011
 50966,0.01302112,-0.00232921,-0.00080970,0.00563544,0.00102553,-0.0018
 0798,-0.00258436,-0.00444668,0.02176462,0.02158948,0.01486488,0.043447
 72,-0.16196323,0.00265352,0.00555037,-0.05337316,-0.01118915,-0.000737
 02,-0.00752773,-0.00043957,0.00013737,-0.01413588,-0.00133810,0.002789
 08,-0.00246626,0.00130142,-0.20525048,0.59765682,-0.00209285,0.0045970
 1,0.00358435,-0.00235446,0.00083055,-0.00094767,-0.00258981,0.00010475
 ,0.00374085,-0.00568407,0.00984987,0.00578617,0.00455411,-0.00154689,-
 0.06135241,0.00748014,-0.01389782,-0.00362076,-0.00293699,-0.00579830,
 -0.00051368,0.00491849,0.00067810,-0.00792217,-0.00297985,0.00105986,-
 0.00306116,0.15404381,-0.17108206,0.64932605,-0.00296883,0.00412080,-0
 .00042130,0.00099638,0.00214488,0.00053529,0.00140892,-0.00137189,0.00
 055118,-0.00080828,0.00036161,0.00426637,0.00742696,0.03419993,-0.0151
 5300,-0.00814630,-0.00793736,-0.00733173,0.00061022,-0.00123366,0.0007
 7108,0.00049507,-0.00032678,-0.00164434,0.00200407,-0.00284526,0.00065
 039,-0.15055501,0.11250617,-0.16045260,0.12626851,0.00248148,-0.004741
 92,-0.00006764,0.00066322,-0.00175256,-0.00009903,0.00215528,0.0014911
 8,0.00016428,-0.00448496,-0.01246560,-0.00351769,0.02355599,-0.0230872
 2,0.02887602,0.00300674,0.01260123,0.00441539,0.00094848,0.00261273,-0
 .00000372,-0.00085401,0.00421073,-0.00046680,-0.00182070,-0.00159168,0
 .00003314,0.12119378,-0.25390159,0.22532142,-0.14196764,0.25014492,-0.
 00196077,0.00056436,-0.00100872,0.00184140,0.00097159,0.00060079,-0.00
 005690,-0.00207007,-0.00100270,0.00384921,0.00451567,0.00466088,-0.014
 17289,0.01759427,0.00171455,-0.00447467,-0.00299043,-0.00329865,0.0015
 3005,0.00161995,0.00100452,-0.00111251,-0.00353477,0.00088367,0.002632
 31,-0.00083411,0.00125826,-0.16012338,0.22627718,-0.42338101,0.1923376
 3,-0.25796538,0.53314754,0.00132104,0.00203392,-0.00028223,-0.00152765
 ,-0.00004717,-0.00036836,0.00029946,0.00227676,0.00035223,-0.00567473,
 -0.00766067,-0.00081728,0.01083450,0.01497953,0.01482771,-0.00400743,-
 0.00291986,-0.00156086,-0.00108418,-0.00146982,-0.00013772,-0.00232025
 ,0.00816369,0.00263150,0.00028473,-0.00025408,-0.00024492,-0.06805480,
 0.01921458,0.00120407,0.02523297,-0.00161748,-0.01753401,0.12100448,-0
 .00062719,-0.00771540,0.00066090,0.00371892,-0.00071023,0.00044473,0.0
 0105167,-0.00249778,0.00120661,0.00163323,-0.00103051,-0.00258062,0.00
 482024,-0.03251380,-0.03693555,0.00384205,0.01324971,0.00318764,0.0036
 1406,0.00629805,0.00117296,-0.00290069,-0.00366676,-0.00078893,0.00107
 263,-0.00016038,-0.00057077,0.01263796,-0.10297548,-0.03269421,0.00412
 069,0.02394512,0.00383787,-0.10092684,0.35715503,0.00030704,-0.0060140
 7,0.00055829,0.00218976,-0.00082305,0.00026616,0.00072280,-0.00119848,
 0.00063836,0.00071746,-0.00090943,-0.00419450,0.00012751,-0.02209248,-
 0.01054028,0.00124890,0.01090846,0.00470880,0.00255469,0.00472491,0.00
 061725,-0.00204093,-0.00228862,0.00253510,0.00123484,-0.00046959,0.000
 44036,-0.00473810,-0.01000819,-0.15855392,-0.01604377,0.00604065,-0.11
 528506,0.00873873,0.04574019,0.36051587,-0.00009433,-0.00109023,0.0000
 5968,0.00100909,0.00025228,0.00023525,0.00037428,-0.00132954,0.0001629
 6,0.00163719,0.00162328,-0.00065274,0.00467525,0.00029738,-0.00077299,
 -0.00063392,0.00278590,0.00136606,0.00057580,0.00123117,0.00012923,-0.
 00075325,-0.00318780,-0.00051814,0.00004594,0.00003593,0.00002450,-0.0
 0322874,0.01308847,0.01638356,-0.00569644,-0.00111927,-0.00507118,-0.0
 7780338,0.03587281,-0.00260119,0.54600772,0.00159415,0.00200059,-0.000
 11241,-0.00226307,-0.00057349,-0.00051722,-0.00086697,0.00235561,0.000
 53679,-0.00292107,-0.00537914,-0.00024524,0.00420110,0.00376825,-0.000
 70847,0.00090624,-0.00331263,-0.00177264,-0.00189448,-0.00241398,-0.00
 024529,0.00026068,0.00569940,0.00133767,-0.00125106,0.00044055,0.00012
 527,0.01180345,-0.03695618,-0.04175741,0.00135309,-0.00360798,0.018384
 36,0.03883500,-0.17022493,-0.00164162,0.04044258,0.43916467,0.00003291
 ,0.00115321,0.00017372,-0.00102945,-0.00023385,-0.00022169,-0.00019973
 ,0.00125762,0.00028100,-0.00160359,-0.00264058,-0.00000905,0.00015348,
 -0.00047040,-0.00366399,0.00197517,-0.00233880,-0.00067085,-0.00080569
 ,-0.00151784,-0.00024466,0.00110689,0.00319662,0.00032382,-0.00091140,
 0.00020505,-0.00004389,0.01667273,-0.04444751,-0.00486567,0.00106076,-
 0.00113362,0.00053845,-0.00782082,0.01808493,-0.08729467,0.00163197,-0
 .00293226,0.59127964,-0.01121114,0.03104031,0.00058419,-0.11526508,0.1
 1098361,-0.00263052,0.00969486,-0.01457501,-0.00037643,0.00005600,-0.0
 0215910,-0.00174531,-0.00070738,-0.00141331,-0.00028036,-0.00354918,-0
 .00110413,-0.00134942,0.00379089,-0.00202889,0.00118040,-0.00005602,-0
 .00056293,0.00000812,-0.00290971,0.00128009,-0.00017786,-0.00021966,0.
 00025139,-0.00000544,0.00019342,-0.00008057,0.00009681,0.00002266,-0.0
 0002109,-0.00002342,-0.00001952,-0.00003841,0.00001274,0.11915333,-0.0
 0253764,-0.00352920,-0.00167644,0.11281731,-0.25052467,-0.00640406,0.0
 1621376,-0.01933486,0.00032262,-0.00560084,-0.00011973,-0.00184339,0.0
 0032431,0.00075220,0.00029552,0.00113414,0.00035100,-0.00030494,-0.000
 37840,0.00280207,0.00077248,0.00086121,-0.00159702,0.00004719,0.000366
 70,0.00002192,0.00018680,0.00014716,-0.00035697,-0.00035512,-0.0000607
 0,0.00009842,0.00013721,-0.00007648,0.00040753,0.00032006,0.00006766,-
 0.00014551,-0.00010201,-0.12203760,0.27047370,-0.00335638,0.00486096,0
 .00555136,-0.00243538,-0.00666778,-0.03002689,0.00385585,-0.00528389,0
 .00191360,-0.00232049,-0.00162657,0.00671579,0.00032903,-0.00021061,-0
 .00086996,-0.00134555,-0.00063133,0.00350120,0.00130728,0.00038283,-0.
 00353787,0.00000981,-0.00044700,-0.00036155,-0.00041111,0.00040709,-0.
 00069251,-0.00009061,0.00054873,0.00001165,0.00006213,-0.00015100,0.00
 013518,-0.00002427,-0.00011192,-0.00014749,-0.00004674,-0.00001781,-0.
 00000338,0.00354040,0.00825409,0.02228849,0.00344316,-0.00305121,-0.00
 116271,-0.01293956,0.00422502,-0.00208504,-0.30461313,0.01201521,-0.05
 004770,-0.01583352,-0.00612775,-0.00443975,-0.00171164,0.00421739,-0.0
 0030316,0.00123433,0.00135622,0.00041978,-0.00141933,-0.00027642,-0.00
 023078,0.00362421,-0.00048020,0.00120880,-0.00031529,-0.00004036,0.000
 02692,-0.00120984,-0.00078702,0.00005508,0.00009249,0.00050077,-0.0003
 3013,0.00022479,-0.00012029,-0.00012699,-0.00006833,0.00017093,0.00016
 548,0.00103455,-0.00129263,0.00090619,0.32854103,-0.00000268,-0.003220
 72,-0.00133103,-0.02698630,0.00427947,-0.00454369,0.01037421,-0.054691
 18,-0.00138939,0.02690972,0.00372320,0.00493637,0.00301986,-0.00445209
 ,-0.00066392,-0.00063431,-0.00119668,-0.00042489,-0.00134399,-0.000414
 85,-0.00026788,-0.00236751,0.00237598,0.00021945,-0.00003001,0.0001478
 7,0.00008845,0.00142740,0.00144030,0.00050253,-0.00008836,-0.00081426,
 0.00023651,-0.00006721,-0.00046507,-0.00030467,-0.00011119,0.00012535,
 0.00002861,0.00044258,0.00088174,0.00072839,-0.01059013,0.05229833,-0.
 00046176,-0.00216466,0.00724626,-0.00659201,0.00094394,0.00007901,-0.0
 5020008,-0.00050620,-0.03714411,-0.00035460,-0.00182141,0.00424331,0.0
 0000850,-0.00020307,0.00324904,0.00003083,0.00016064,0.00030234,-0.000
 52294,-0.00011140,-0.00047526,0.00108765,0.00094716,-0.00325641,0.0000
 1353,0.00002485,-0.00050062,-0.00012830,0.00033735,-0.00028632,0.00002
 122,0.00000173,0.00008462,0.00019118,-0.00021497,-0.00020606,-0.000053
 44,0.00001911,0.00001276,0.00116721,0.00042367,-0.00449638,0.05586396,
 0.00216494,0.03117496,-0.00015898,-0.00070471,-0.00009907,0.00056274,0
 .00014841,0.00012591,0.00010838,-0.00065623,-0.00013102,0.00062249,0.0
 0091208,0.00006951,-0.00032545,-0.00030312,0.00031449,-0.00068272,0.00
 101540,0.00016780,0.00048353,0.00087716,0.00015618,-0.00063380,-0.0011
 4481,-0.00035634,0.00042060,-0.00005184,0.00001320,-0.00119191,0.00281
 502,-0.00219886,0.00152957,-0.00147294,0.00004877,-0.00114747,0.007294
 56,0.01387280,-0.05048933,-0.00369369,-0.00446623,-0.00001153,0.000070
 66,0.00001084,-0.00008540,-0.00001320,-0.00002032,0.04724765,0.0005461
 6,0.00094699,0.00018032,-0.00106825,-0.00043255,-0.00018351,-0.0001728
 1,0.00129790,0.00021468,-0.00133069,-0.00197475,-0.00018646,0.00099179
 ,-0.00020440,-0.00074036,0.00128504,-0.00115132,-0.00031384,-0.0008418
 9,-0.00144789,-0.00025800,0.00131320,0.00228916,0.00042153,-0.00070586
 ,0.00004033,-0.00002521,0.00266788,-0.00532491,0.00574578,-0.00120773,
 0.00317573,-0.00043467,0.00479726,-0.02159737,-0.03973887,-0.00327994,
 -0.05310066,-0.04351856,0.00002225,-0.00012951,-0.00002461,0.00018059,
 0.00001474,0.00000489,-0.00351097,0.07011663,0.00054517,-0.00087711,-0
 .00011885,0.00011269,-0.00024382,-0.00002078,-0.00001030,-0.00008668,0
 .00002933,0.00010679,0.00002560,-0.00000089,-0.00004749,-0.00202762,0.
 00025090,-0.00001847,0.00173389,0.00012211,0.00014936,0.00054389,0.000
 15280,-0.00005824,-0.00038552,-0.00007019,0.00017327,-0.00009697,0.000
 03557,-0.00256248,0.00437870,0.00170760,0.00120406,-0.00280979,0.00011
 825,0.00199483,-0.00492242,-0.00143193,-0.00151526,-0.05159614,-0.2957
 8569,-0.00001772,0.00002200,0.00001061,-0.00001396,-0.00002214,-0.0000
 3396,0.00085567,0.06032347,0.31837000,0.00019339,0.00011525,0.00015086
 ,-0.00024688,-0.00009525,-0.00009410,-0.00015308,0.00030343,0.00008765
 ,-0.00051069,-0.00063311,-0.00023036,0.00084360,0.00009490,0.00056562,
 -0.00031920,-0.00038306,0.00007612,-0.00012223,-0.00011124,-0.00008525
 ,0.00033503,0.00110377,0.00025501,0.00002585,-0.00000737,0.00001169,-0
 .00013862,-0.00067574,-0.00869023,0.00190496,-0.00282745,0.00258396,-0
 .00926180,0.01539274,0.00163940,-0.26200368,0.01005831,-0.08719127,0.0
 0000253,0.00000012,-0.00001006,0.00000915,0.00002774,-0.00002219,0.002
 40986,-0.00138359,0.00063244,0.28524681,-0.00001908,0.00010916,-0.0000
 2703,-0.00012505,-0.00006486,-0.00001083,0.00004353,0.00021099,-0.0000
 8166,-0.00008576,0.00008822,0.00010801,-0.00116117,-0.00046256,-0.0005
 0795,0.00072702,0.00000228,0.00022312,-0.00010936,-0.00023178,-0.00004
 897,0.00026469,0.00004075,-0.00006165,-0.00030405,0.00003425,-0.000048
 91,0.00132633,0.00091329,0.00775087,-0.00112392,0.00125314,-0.00325062
 ,0.03800389,-0.01718207,0.00838812,0.00607981,-0.04798467,0.00406675,-
 0.00000188,-0.00001536,0.00000091,0.00002015,-0.00001402,0.00002944,-0
 .00619060,0.00132257,-0.00115382,-0.02045135,0.05893203,0.00006299,0.0
 0077841,0.00006284,-0.00049628,-0.00007696,-0.00012904,-0.00016049,0.0
 0047050,0.00006375,-0.00054457,-0.00044816,0.00006183,0.00004738,0.000
 53337,0.00035173,0.00036712,-0.00126416,-0.00025550,-0.00042830,-0.000
 82526,-0.00014385,0.00056743,0.00095286,0.00016420,-0.00028128,0.00004
 347,-0.00001281,0.00215609,-0.00263133,0.00012493,-0.00016734,0.000672
 69,-0.00042254,0.00338500,0.00343936,0.00324282,-0.09124927,0.00536409
 ,-0.08596566,0.00001142,-0.00006559,0.00000754,0.00006259,0.00003956,0
 .00000262,-0.02798135,0.00118292,-0.01000153,0.09893762,-0.00758670,0.
 08634248,-0.00000791,0.00002041,0.00011021,-0.00001215,0.00000536,-0.0
 0000732,-0.00008177,-0.00011760,-0.00008429,0.00045012,0.00071795,-0.0
 0010506,-0.00083324,-0.00020816,-0.00001308,-0.00001358,-0.00019327,-0
 .00005732,-0.00002562,-0.00006218,-0.00005337,0.00018292,-0.00058445,0
 .00004967,0.00008706,-0.00000516,0.00001859,0.00116660,0.00001281,0.00
 134590,0.00001131,0.00173927,-0.00008368,0.01165705,0.00952452,-0.0077
 7954,-0.15353436,-0.09669678,0.08121605,0.00000097,-0.00001875,0.00001
 907,-0.00000767,0.00003337,-0.00002844,0.00134179,0.00169756,-0.001530
 35,-0.01821500,-0.01689320,0.01571125,0.15783349,0.00061851,-0.0000564
 9,0.00031359,-0.00051924,-0.00037992,-0.00015726,-0.00006851,0.0008250
 5,0.00017133,-0.00099297,-0.00150021,-0.00083138,0.00163727,-0.0003616
 5,-0.00098346,0.00021010,0.00060528,0.00054632,-0.00028139,-0.00031197
 ,-0.00017476,0.00068435,0.00172620,0.00028475,-0.00019786,-0.00002054,
 -0.00007763,-0.00071349,0.00130930,0.01069104,-0.00064390,0.00242962,-
 0.00305894,-0.01326502,-0.04031566,0.00936669,-0.09165929,-0.12985525,
 0.07134265,0.00000269,-0.00003574,-0.00001051,0.00007973,-0.00001810,-
 0.00003600,0.00460882,0.00615931,-0.00280553,-0.00052810,0.00304863,-0
 .00057908,0.10102830,0.15675214,-0.00007016,0.00051293,-0.00007489,-0.
 00016669,0.00004984,-0.00000437,0.00002669,0.00009589,0.00002078,-0.00
 008967,-0.00023875,0.00013704,0.00062634,0.00095958,0.00034117,0.00006
 843,-0.00073503,-0.00025068,-0.00019222,-0.00042343,-0.00003476,0.0000
 0048,0.00016865,-0.00009453,-0.00013621,0.00004071,-0.00000381,-0.0000
 8340,-0.00347552,0.00022317,-0.00024603,0.00068937,0.00025197,-0.00453
 477,0.00104420,0.00413093,0.08248774,0.07577923,-0.11384017,0.00000519
 ,-0.00003010,0.00000061,0.00003141,0.00000280,0.00000418,0.01961803,0.
 01735051,-0.01333334,-0.00861689,-0.00778908,0.00650618,-0.08872828,-0
 .08400180,0.11602051\\0.00002593,0.00006619,0.00000727,0.00000520,-0.0
 0000220,0.00000051,-0.00000062,-0.00000654,-0.00000171,-0.00002175,-0.
 00001073,-0.00000399,0.00001691,0.00001479,-0.00000096,-0.00003175,-0.
 00001964,-0.00000360,-0.00002414,-0.00004352,-0.00000744,0.00000880,0.
 00000900,0.00000256,0.00002154,-0.00000359,0.00000219,0.00000587,0.000
 00151,0.00003804,-0.00000332,-0.00000661,-0.00004550,0.00000762,-0.000
 01165,0.00000352,-0.00000453,0.00001224,0.00000073,-0.00000387,0.00000
 340,-0.00000046,-0.00000234,0.00000262,0.00000018,0.00000137,-0.000003
 00,0.00000364,0.00000281,0.00000044,0.00000367,-0.00000373,-0.00000274
 ,0.00000136\\\@


 BREAD HAS TO MOLD IN ORDER TO GET PENICILLIN.
          -- JERRY BOATZ
 Job cpu time:       0 days  0 hours 51 minutes 52.6 seconds.
 Elapsed time:       0 days  0 hours  7 minutes 30.9 seconds.
 File lengths (MBytes):  RWF=    435 Int=      0 D2E=      0 Chk=     13 Scr=      1
 Normal termination of Gaussian 16 at Wed Dec 20 02:24:58 2023.
