 Entering Gaussian System, Link 0=g16
 Input=089-rad.com
 Output=089-rad.log
 Initial command:
 /sysapps/ubuntu-applications/gaussian/Gaussian/AVX2/g16/l1.exe "/scratch/selhajj1/4219803/Gau-2847329.inp" -scrdir="/scratch/selhajj1/4219803/"
 Entering Link 1 = /sysapps/ubuntu-applications/gaussian/Gaussian/AVX2/g16/l1.exe PID=   2847379.
  
 Copyright (c) 1988,1990,1992,1993,1995,1998,2003,2009,2016,
            Gaussian, Inc.  All Rights Reserved.
  
 This is part of the Gaussian(R) 16 program.  It is based on
 the Gaussian(R) 09 system (copyright 2009, Gaussian, Inc.),
 the Gaussian(R) 03 system (copyright 2003, Gaussian, Inc.),
 the Gaussian(R) 98 system (copyright 1998, Gaussian, Inc.),
 the Gaussian(R) 94 system (copyright 1995, Gaussian, Inc.),
 the Gaussian 92(TM) system (copyright 1992, Gaussian, Inc.),
 the Gaussian 90(TM) system (copyright 1990, Gaussian, Inc.),
 the Gaussian 88(TM) system (copyright 1988, Gaussian, Inc.),
 the Gaussian 86(TM) system (copyright 1986, Carnegie Mellon
 University), and the Gaussian 82(TM) system (copyright 1983,
 Carnegie Mellon University). Gaussian is a federally registered
 trademark of Gaussian, Inc.
  
 This software contains proprietary and confidential information,
 including trade secrets, belonging to Gaussian, Inc.
  
 This software is provided under written license and may be
 used, copied, transmitted, or stored only in accord with that
 written license.
  
 The following legend is applicable only to US Government
 contracts under FAR:
  
                    RESTRICTED RIGHTS LEGEND
  
 Use, reproduction and disclosure by the US Government is
 subject to restrictions as set forth in subparagraphs (a)
 and (c) of the Commercial Computer Software - Restricted
 Rights clause in FAR 52.227-19.
  
 Gaussian, Inc.
 340 Quinnipiac St., Bldg. 40, Wallingford CT 06492
  
  
 ---------------------------------------------------------------
 Warning -- This program may not be used in any manner that
 competes with the business of Gaussian, Inc. or will provide
 assistance to any competitor of Gaussian, Inc.  The licensee
 of this program is prohibited from giving any competitor of
 Gaussian, Inc. access to this program.  By using this program,
 the user acknowledges that Gaussian, Inc. is engaged in the
 business of creating and licensing software in the field of
 computational chemistry and represents and warrants to the
 licensee that it is not a competitor of Gaussian, Inc. and that
 it will not use this program in any manner prohibited above.
 ---------------------------------------------------------------
  

 Cite this work as:
 Gaussian 16, Revision A.03,
 M. J. Frisch, G. W. Trucks, H. B. Schlegel, G. E. Scuseria, 
 M. A. Robb, J. R. Cheeseman, G. Scalmani, V. Barone, 
 G. A. Petersson, H. Nakatsuji, X. Li, M. Caricato, A. V. Marenich, 
 J. Bloino, B. G. Janesko, R. Gomperts, B. Mennucci, H. P. Hratchian, 
 J. V. Ortiz, A. F. Izmaylov, J. L. Sonnenberg, D. Williams-Young, 
 F. Ding, F. Lipparini, F. Egidi, J. Goings, B. Peng, A. Petrone, 
 T. Henderson, D. Ranasinghe, V. G. Zakrzewski, J. Gao, N. Rega, 
 G. Zheng, W. Liang, M. Hada, M. Ehara, K. Toyota, R. Fukuda, 
 J. Hasegawa, M. Ishida, T. Nakajima, Y. Honda, O. Kitao, H. Nakai, 
 T. Vreven, K. Throssell, J. A. Montgomery, Jr., J. E. Peralta, 
 F. Ogliaro, M. J. Bearpark, J. J. Heyd, E. N. Brothers, K. N. Kudin, 
 V. N. Staroverov, T. A. Keith, R. Kobayashi, J. Normand, 
 K. Raghavachari, A. P. Rendell, J. C. Burant, S. S. Iyengar, 
 J. Tomasi, M. Cossi, J. M. Millam, M. Klene, C. Adamo, R. Cammi, 
 J. W. Ochterski, R. L. Martin, K. Morokuma, O. Farkas, 
 J. B. Foresman, and D. J. Fox, Gaussian, Inc., Wallingford CT, 2016.
 
 ******************************************
 Gaussian 16:  ES64L-G16RevA.03 25-Dec-2016
                20-Dec-2023 
 ******************************************
 %chk=089-rad.chk
 %nproc=8
 Will use up to    8 processors via shared memory.
 %mem=30GB
 --------------------------------------
 #P UB3LYP/6-311++G(d,p) nosym opt freq
 --------------------------------------
 1/18=20,19=15,26=3,38=1/1,3;
 2/9=110,12=2,15=1,17=6,18=5,40=1/2;
 3/5=4,6=6,7=1111,11=2,25=1,30=1,71=1,74=-5,116=2/1,2,3;
 4//1;
 5/5=2,38=5/2;
 6/7=2,8=2,9=2,10=2,28=1/1;
 7/30=1/1,2,3,16;
 1/18=20,19=15,26=3/3(2);
 2/9=110,15=1/2;
 99//99;
 2/9=110,15=1/2;
 3/5=4,6=6,7=1111,11=2,25=1,30=1,71=1,74=-5,116=2/1,2,3;
 4/5=5,16=3,69=1/1;
 5/5=2,38=5/2;
 7/30=1/1,2,3,16;
 1/18=20,19=15,26=3/3(-5);
 2/9=110,15=1/2;
 6/7=2,8=2,9=2,10=2,19=2,28=1/1;
 99/9=1/99;
 Leave Link    1 at Wed Dec 20 01:21:57 2023, MaxMem=  4026531840 cpu:               0.9 elap:               0.2
 (Enter /sysapps/ubuntu-applications/gaussian/Gaussian/AVX2/g16/l101.exe)
 -------
 Radical
 -------
 Symbolic Z-matrix:
 Charge = -1 Multiplicity = 2
 C                     1.48427   1.30917  -0.65366 
 C                     0.23312   1.87567  -0.10257 
 C                    -0.73715   1.05938   0.32251 
 C                    -0.56131  -0.40789   0.25526 
 C                     0.71198  -1.01882  -0.29067 
 C                     1.69326  -0.19062  -0.74167 
 O                     2.3666    2.07576  -1.04159 
 O                    -1.47748  -1.12987   0.65152 
 O                     2.92169  -0.41894  -1.29016 
 C                     3.63087  -1.60275  -1.52161 
 C                     0.12682   3.37545  -0.05412 
 C                    -2.05545   1.51063   0.88999 
 H                     4.61049  -1.32422  -1.92517 
 H                     3.15078  -2.20563  -2.29141 
 H                     3.82522  -2.13885  -0.59334 
 O                     0.59963  -2.37655  -0.21965 
 C                     1.44428  -3.40294  -0.65684 
 H                     0.93668  -4.35276  -0.45615 
 H                     2.36619  -3.4283   -0.07721 
 H                     1.5974   -3.36131  -1.73467 
 H                     1.01875   3.88755  -0.42593 
 H                    -0.02289   3.71467   0.97675 
 H                    -0.71396   3.71883  -0.66643 
 H                    -2.15683   2.59849   0.93213 
 H                    -2.1799    1.13566   1.9116 
 H                    -2.88214   1.13445   0.27742 
 
 ITRead=  0  0  0  0  0  0  0  0  0  0  0  0  0  0  0  0  0  0  0  0
 ITRead=  0  0  0  0  0  0
 MicOpt= -1 -1 -1 -1 -1 -1 -1 -1 -1 -1 -1 -1 -1 -1 -1 -1 -1 -1 -1 -1
 MicOpt= -1 -1 -1 -1 -1 -1
 NAtoms=     26 NQM=       26 NQMF=       0 NMMI=      0 NMMIF=      0
                NMic=       0 NMicF=      0.
                    Isotopes and Nuclear Properties:
 (Nuclear quadrupole moments (NQMom) in fm**2, nuclear magnetic moments (NMagM)
  in nuclear magnetons)

  Atom         1           2           3           4           5           6           7           8           9          10
 IAtWgt=          12          12          12          12          12          12          16          16          16          12
 AtmWgt=  12.0000000  12.0000000  12.0000000  12.0000000  12.0000000  12.0000000  15.9949146  15.9949146  15.9949146  12.0000000
 NucSpn=           0           0           0           0           0           0           0           0           0           0
 AtZEff=  -0.0000000  -0.0000000  -0.0000000  -0.0000000  -0.0000000  -0.0000000  -0.0000000  -0.0000000  -0.0000000  -0.0000000
 NQMom=    0.0000000   0.0000000   0.0000000   0.0000000   0.0000000   0.0000000   0.0000000   0.0000000   0.0000000   0.0000000
 NMagM=    0.0000000   0.0000000   0.0000000   0.0000000   0.0000000   0.0000000   0.0000000   0.0000000   0.0000000   0.0000000
 AtZNuc=   6.0000000   6.0000000   6.0000000   6.0000000   6.0000000   6.0000000   8.0000000   8.0000000   8.0000000   6.0000000

  Atom        11          12          13          14          15          16          17          18          19          20
 IAtWgt=          12          12           1           1           1          16          12           1           1           1
 AtmWgt=  12.0000000  12.0000000   1.0078250   1.0078250   1.0078250  15.9949146  12.0000000   1.0078250   1.0078250   1.0078250
 NucSpn=           0           0           1           1           1           0           0           1           1           1
 AtZEff=  -0.0000000  -0.0000000  -0.0000000  -0.0000000  -0.0000000  -0.0000000  -0.0000000  -0.0000000  -0.0000000  -0.0000000
 NQMom=    0.0000000   0.0000000   0.0000000   0.0000000   0.0000000   0.0000000   0.0000000   0.0000000   0.0000000   0.0000000
 NMagM=    0.0000000   0.0000000   2.7928460   2.7928460   2.7928460   0.0000000   0.0000000   2.7928460   2.7928460   2.7928460
 AtZNuc=   6.0000000   6.0000000   1.0000000   1.0000000   1.0000000   8.0000000   6.0000000   1.0000000   1.0000000   1.0000000

  Atom        21          22          23          24          25          26
 IAtWgt=           1           1           1           1           1           1
 AtmWgt=   1.0078250   1.0078250   1.0078250   1.0078250   1.0078250   1.0078250
 NucSpn=           1           1           1           1           1           1
 AtZEff=  -0.0000000  -0.0000000  -0.0000000  -0.0000000  -0.0000000  -0.0000000
 NQMom=    0.0000000   0.0000000   0.0000000   0.0000000   0.0000000   0.0000000
 NMagM=    2.7928460   2.7928460   2.7928460   2.7928460   2.7928460   2.7928460
 AtZNuc=   1.0000000   1.0000000   1.0000000   1.0000000   1.0000000   1.0000000
 Leave Link  101 at Wed Dec 20 01:21:58 2023, MaxMem=  4026531840 cpu:               4.0 elap:               0.6
 (Enter /sysapps/ubuntu-applications/gaussian/Gaussian/AVX2/g16/l103.exe)

 GradGradGradGradGradGradGradGradGradGradGradGradGradGradGradGradGradGrad
 Berny optimization.
 Initialization pass.
                           ----------------------------
                           !    Initial Parameters    !
                           ! (Angstroms and Degrees)  !
 --------------------------                            --------------------------
 ! Name  Definition              Value          Derivative Info.                !
 --------------------------------------------------------------------------------
 ! R1    R(1,2)                  1.4799         estimate D2E/DX2                !
 ! R2    R(1,6)                  1.5168         estimate D2E/DX2                !
 ! R3    R(1,7)                  1.2315         estimate D2E/DX2                !
 ! R4    R(2,3)                  1.3373         estimate D2E/DX2                !
 ! R5    R(2,11)                 1.5043         estimate D2E/DX2                !
 ! R6    R(3,4)                  1.4793         estimate D2E/DX2                !
 ! R7    R(3,12)                 1.5045         estimate D2E/DX2                !
 ! R8    R(4,5)                  1.5141         estimate D2E/DX2                !
 ! R9    R(4,8)                  1.2319         estimate D2E/DX2                !
 ! R10   R(5,6)                  1.361          estimate D2E/DX2                !
 ! R11   R(5,16)                 1.3642         estimate D2E/DX2                !
 ! R12   R(6,9)                  1.3646         estimate D2E/DX2                !
 ! R13   R(9,10)                 1.3993         estimate D2E/DX2                !
 ! R14   R(10,13)                1.0955         estimate D2E/DX2                !
 ! R15   R(10,14)                1.0893         estimate D2E/DX2                !
 ! R16   R(10,15)                1.0894         estimate D2E/DX2                !
 ! R17   R(11,21)                1.0936         estimate D2E/DX2                !
 ! R18   R(11,22)                1.0955         estimate D2E/DX2                !
 ! R19   R(11,23)                1.0953         estimate D2E/DX2                !
 ! R20   R(12,24)                1.0934         estimate D2E/DX2                !
 ! R21   R(12,25)                1.0953         estimate D2E/DX2                !
 ! R22   R(12,26)                1.0955         estimate D2E/DX2                !
 ! R23   R(16,17)                1.3993         estimate D2E/DX2                !
 ! R24   R(17,18)                1.0955         estimate D2E/DX2                !
 ! R25   R(17,19)                1.0893         estimate D2E/DX2                !
 ! R26   R(17,20)                1.0894         estimate D2E/DX2                !
 ! A1    A(2,1,6)              121.1042         estimate D2E/DX2                !
 ! A2    A(2,1,7)              118.9956         estimate D2E/DX2                !
 ! A3    A(6,1,7)              119.8999         estimate D2E/DX2                !
 ! A4    A(1,2,3)              119.8747         estimate D2E/DX2                !
 ! A5    A(1,2,11)             116.9611         estimate D2E/DX2                !
 ! A6    A(3,2,11)             123.1642         estimate D2E/DX2                !
 ! A7    A(2,3,4)              120.3137         estimate D2E/DX2                !
 ! A8    A(2,3,12)             124.9279         estimate D2E/DX2                !
 ! A9    A(4,3,12)             114.7584         estimate D2E/DX2                !
 ! A10   A(3,4,5)              121.1019         estimate D2E/DX2                !
 ! A11   A(3,4,8)              118.5724         estimate D2E/DX2                !
 ! A12   A(5,4,8)              120.3255         estimate D2E/DX2                !
 ! A13   A(4,5,6)              118.7038         estimate D2E/DX2                !
 ! A14   A(4,5,16)             108.2729         estimate D2E/DX2                !
 ! A15   A(6,5,16)             133.0216         estimate D2E/DX2                !
 ! A16   A(1,6,5)              118.8901         estimate D2E/DX2                !
 ! A17   A(1,6,9)              108.228          estimate D2E/DX2                !
 ! A18   A(5,6,9)              132.8803         estimate D2E/DX2                !
 ! A19   A(6,9,10)             131.6297         estimate D2E/DX2                !
 ! A20   A(9,10,13)            107.4006         estimate D2E/DX2                !
 ! A21   A(9,10,14)            111.2085         estimate D2E/DX2                !
 ! A22   A(9,10,15)            111.4568         estimate D2E/DX2                !
 ! A23   A(13,10,14)           105.9325         estimate D2E/DX2                !
 ! A24   A(13,10,15)           106.2289         estimate D2E/DX2                !
 ! A25   A(14,10,15)           114.1062         estimate D2E/DX2                !
 ! A26   A(2,11,21)            113.4696         estimate D2E/DX2                !
 ! A27   A(2,11,22)            110.4059         estimate D2E/DX2                !
 ! A28   A(2,11,23)            110.413          estimate D2E/DX2                !
 ! A29   A(21,11,22)           106.641          estimate D2E/DX2                !
 ! A30   A(21,11,23)           106.8091         estimate D2E/DX2                !
 ! A31   A(22,11,23)           108.9086         estimate D2E/DX2                !
 ! A32   A(3,12,24)            113.2158         estimate D2E/DX2                !
 ! A33   A(3,12,25)            110.4062         estimate D2E/DX2                !
 ! A34   A(3,12,26)            110.3231         estimate D2E/DX2                !
 ! A35   A(24,12,25)           107.1048         estimate D2E/DX2                !
 ! A36   A(24,12,26)           107.0512         estimate D2E/DX2                !
 ! A37   A(25,12,26)           108.556          estimate D2E/DX2                !
 ! A38   A(5,16,17)            131.6084         estimate D2E/DX2                !
 ! A39   A(16,17,18)           107.3999         estimate D2E/DX2                !
 ! A40   A(16,17,19)           111.2045         estimate D2E/DX2                !
 ! A41   A(16,17,20)           111.4637         estimate D2E/DX2                !
 ! A42   A(18,17,19)           105.9317         estimate D2E/DX2                !
 ! A43   A(18,17,20)           106.2303         estimate D2E/DX2                !
 ! A44   A(19,17,20)           114.1034         estimate D2E/DX2                !
 ! D1    D(6,1,2,3)             -0.2669         estimate D2E/DX2                !
 ! D2    D(6,1,2,11)           179.7731         estimate D2E/DX2                !
 ! D3    D(7,1,2,3)            179.9308         estimate D2E/DX2                !
 ! D4    D(7,1,2,11)            -0.0293         estimate D2E/DX2                !
 ! D5    D(2,1,6,5)             -0.6649         estimate D2E/DX2                !
 ! D6    D(2,1,6,9)            179.7386         estimate D2E/DX2                !
 ! D7    D(7,1,6,5)            179.1357         estimate D2E/DX2                !
 ! D8    D(7,1,6,9)             -0.4608         estimate D2E/DX2                !
 ! D9    D(1,2,3,4)              0.523          estimate D2E/DX2                !
 ! D10   D(1,2,3,12)          -179.4506         estimate D2E/DX2                !
 ! D11   D(11,2,3,4)          -179.5195         estimate D2E/DX2                !
 ! D12   D(11,2,3,12)            0.5069         estimate D2E/DX2                !
 ! D13   D(1,2,11,21)           -1.0471         estimate D2E/DX2                !
 ! D14   D(1,2,11,22)         -120.6923         estimate D2E/DX2                !
 ! D15   D(1,2,11,23)          118.8189         estimate D2E/DX2                !
 ! D16   D(3,2,11,21)          178.9943         estimate D2E/DX2                !
 ! D17   D(3,2,11,22)           59.3491         estimate D2E/DX2                !
 ! D18   D(3,2,11,23)          -61.1398         estimate D2E/DX2                !
 ! D19   D(2,3,4,5)              0.0695         estimate D2E/DX2                !
 ! D20   D(2,3,4,8)           -179.7656         estimate D2E/DX2                !
 ! D21   D(12,3,4,5)          -179.9544         estimate D2E/DX2                !
 ! D22   D(12,3,4,8)             0.2105         estimate D2E/DX2                !
 ! D23   D(2,3,12,24)           -0.2773         estimate D2E/DX2                !
 ! D24   D(2,3,12,25)         -120.3456         estimate D2E/DX2                !
 ! D25   D(2,3,12,26)          119.6634         estimate D2E/DX2                !
 ! D26   D(4,3,12,24)          179.7478         estimate D2E/DX2                !
 ! D27   D(4,3,12,25)           59.6795         estimate D2E/DX2                !
 ! D28   D(4,3,12,26)          -60.3115         estimate D2E/DX2                !
 ! D29   D(3,4,5,6)             -0.997          estimate D2E/DX2                !
 ! D30   D(3,4,5,16)           179.4096         estimate D2E/DX2                !
 ! D31   D(8,4,5,6)            178.8352         estimate D2E/DX2                !
 ! D32   D(8,4,5,16)            -0.7582         estimate D2E/DX2                !
 ! D33   D(4,5,6,1)              1.2247         estimate D2E/DX2                !
 ! D34   D(4,5,6,9)           -179.2984         estimate D2E/DX2                !
 ! D35   D(16,5,6,1)          -179.3035         estimate D2E/DX2                !
 ! D36   D(16,5,6,9)             0.1735         estimate D2E/DX2                !
 ! D37   D(4,5,16,17)          175.7256         estimate D2E/DX2                !
 ! D38   D(6,5,16,17)           -3.7865         estimate D2E/DX2                !
 ! D39   D(1,6,9,10)           175.9269         estimate D2E/DX2                !
 ! D40   D(5,6,9,10)            -3.591          estimate D2E/DX2                !
 ! D41   D(6,9,10,13)         -176.467          estimate D2E/DX2                !
 ! D42   D(6,9,10,14)           68.0541         estimate D2E/DX2                !
 ! D43   D(6,9,10,15)          -60.4993         estimate D2E/DX2                !
 ! D44   D(5,16,17,18)        -176.3367         estimate D2E/DX2                !
 ! D45   D(5,16,17,19)          68.1879         estimate D2E/DX2                !
 ! D46   D(5,16,17,20)         -60.364          estimate D2E/DX2                !
 --------------------------------------------------------------------------------
 Trust Radius=3.00D-01 FncErr=1.00D-07 GrdErr=1.00D-06 EigMax=2.50D+02 EigMin=1.00D-04
 Number of steps in this run=    126 maximum allowed number of steps=    156.
 GradGradGradGradGradGradGradGradGradGradGradGradGradGradGradGradGradGrad

 Leave Link  103 at Wed Dec 20 01:21:58 2023, MaxMem=  4026531840 cpu:               0.4 elap:               0.2
 (Enter /sysapps/ubuntu-applications/gaussian/Gaussian/AVX2/g16/l202.exe)
                          Input orientation:                          
 ---------------------------------------------------------------------
 Center     Atomic      Atomic             Coordinates (Angstroms)
 Number     Number       Type             X           Y           Z
 ---------------------------------------------------------------------
      1          6           0        1.484270    1.309170   -0.653660
      2          6           0        0.233120    1.875670   -0.102570
      3          6           0       -0.737150    1.059380    0.322510
      4          6           0       -0.561310   -0.407890    0.255260
      5          6           0        0.711980   -1.018820   -0.290670
      6          6           0        1.693260   -0.190620   -0.741670
      7          8           0        2.366600    2.075760   -1.041590
      8          8           0       -1.477480   -1.129870    0.651520
      9          8           0        2.921690   -0.418940   -1.290160
     10          6           0        3.630870   -1.602750   -1.521610
     11          6           0        0.126820    3.375450   -0.054120
     12          6           0       -2.055450    1.510630    0.889990
     13          1           0        4.610490   -1.324220   -1.925170
     14          1           0        3.150780   -2.205630   -2.291410
     15          1           0        3.825220   -2.138850   -0.593340
     16          8           0        0.599630   -2.376550   -0.219650
     17          6           0        1.444280   -3.402940   -0.656840
     18          1           0        0.936680   -4.352760   -0.456150
     19          1           0        2.366190   -3.428300   -0.077210
     20          1           0        1.597400   -3.361310   -1.734670
     21          1           0        1.018750    3.887550   -0.425930
     22          1           0       -0.022890    3.714670    0.976750
     23          1           0       -0.713960    3.718830   -0.666430
     24          1           0       -2.156830    2.598490    0.932130
     25          1           0       -2.179900    1.135660    1.911600
     26          1           0       -2.882140    1.134450    0.277420
 ---------------------------------------------------------------------
                    Distance matrix (angstroms):
                    1          2          3          4          5
     1  C    0.000000
     2  C    1.479864   0.000000
     3  C    2.439264   1.337328   0.000000
     4  C    2.821140   2.444137   1.479298   0.000000
     5  C    2.479462   2.939857   2.606700   1.514114   0.000000
     6  C    1.516836   2.609600   2.932895   2.474704   1.360965
     7  O    1.231526   2.339558   3.539359   4.052529   3.588603
     8  O    4.052700   3.539502   2.334342   1.231927   2.386166
     9  O    2.336166   3.728809   4.263009   3.810477   2.498330
    10  C    3.720283   5.065351   5.437583   4.707370   3.221196
    11  C    2.543940   1.504323   2.500495   3.857836   4.439367
    12  C    3.866919   2.521107   1.504518   2.513176   3.930743
    13  H    4.280740   5.720361   6.271433   5.686954   4.238306
    14  H    4.220580   5.473643   5.710417   4.847371   3.370345
    15  H    4.168036   5.409289   5.646475   4.791450   3.322400
    16  O    3.815165   4.269592   3.726464   2.334297   1.364220
    17  C    4.712281   5.444065   5.062614   3.718150   2.520788
    18  H    5.691776   6.278006   5.718328   4.279261   3.345599
    19  H    4.853215   5.716881   5.470810   4.219439   2.930456
    20  H    4.795286   5.652519   5.405979   4.164438   2.890738
    21  H    2.629945   2.183904   3.412022   4.627247   4.917811
    22  H    3.273560   2.147648   2.826440   4.219709   4.955029
    23  H    3.261723   2.147589   2.837466   4.231150   4.961837
    24  H    4.175486   2.702764   2.180823   3.470181   4.776007
    25  H    4.476249   3.229112   2.147686   2.783135   4.225488
    26  H    4.467994   3.224693   2.146777   2.786675   4.228120
                    6          7          8          9         10
     6  C    0.000000
     7  O    2.383237   0.000000
     8  O    3.588420   5.283904   0.000000
     9  O    1.364555   2.567769   4.860889   0.000000
    10  C    2.521260   3.919213   5.571476   1.399254   0.000000
    11  C    3.955163   2.771445   4.834213   4.872011   6.262138
    12  C    4.428249   4.858487   2.713514   5.766127   6.916877
    13  H    3.346035   4.168407   6.613659   2.018617   1.095488
    14  H    2.930243   4.528497   5.589176   2.060885   1.089285
    15  H    2.891860   4.482347   5.539526   2.063980   1.089431
    16  O    2.499364   4.860127   2.574400   3.220278   3.388552
    17  C    3.223071   5.569099   3.926237   3.389409   2.961366
    18  H    4.239970   6.611602   4.176377   4.484504   3.994549
    19  H    3.372968   5.587907   4.537359   3.291819   2.649215
    20  H    3.323930   5.534777   4.486437   3.257127   2.696837
    21  H    4.145615   2.340581   5.706712   4.786850   6.177951
    22  H    4.598851   3.531202   5.068646   5.558432   6.918578
    23  H    4.591750   3.511449   5.082307   5.543296   6.923012
    24  H    5.040232   4.962886   3.800122   6.311483   7.561001
    25  H    4.878548   5.502343   2.685856   6.220472   7.283603
    26  H    4.871205   5.493189   2.690756   6.209249   7.290272
                   11         12         13         14         15
    11  C    0.000000
    12  C    3.021787   0.000000
    13  H    6.759514   7.771503   0.000000
    14  H    6.730398   7.143999   1.744067   0.000000
    15  H    6.661563   7.078224   1.747582   1.828325   0.000000
    16  O    5.773773   4.836416   4.483659   3.290862   3.255853
    17  C    6.931489   6.227677   3.994324   2.649059   2.696448
    18  H    7.780921   6.718949   4.982665   3.588953   3.641961
    19  H    7.162843   6.699209   3.588731   2.648242   2.014408
    20  H    7.097238   6.630833   3.642079   2.014583   2.785718
    21  H    1.093631   4.102694   6.504680   6.719554   6.649947
    22  H    1.095526   2.999437   7.435036   7.470141   7.178916
    23  H    1.095328   3.016320   7.440870   7.257823   7.410932
    24  H    2.606034   1.093386   8.327571   7.851210   7.781669
    25  H    3.768511   1.095343   8.178093   7.566086   7.284134
    26  H    3.766409   1.095523   8.187549   7.358746   7.514080
                   16         17         18         19         20
    16  O    0.000000
    17  C    1.399302   0.000000
    18  H    2.018648   1.095487   0.000000
    19  H    2.060874   1.089281   1.744053   0.000000
    20  H    2.064118   1.089448   1.747609   1.828305   0.000000
    21  H    6.281494   7.306548   8.240774   7.447071   7.388749
    22  H    6.238739   7.448596   8.249691   7.605298   7.748976
    23  H    6.251303   7.441619   8.241322   7.804868   7.524088
    24  H    5.803076   7.177045   7.734145   7.602544   7.531619
    25  H    4.960205   6.350626   6.741073   6.741812   6.912743
    26  H    4.969600   6.338664   6.725398   6.963434   6.657826
                   21         22         23         24         25
    21  H    0.000000
    22  H    1.755680   0.000000
    23  H    1.757439   1.782592   0.000000
    24  H    3.686504   2.408640   2.427433   0.000000
    25  H    4.823723   3.489689   3.932936   1.760615   0.000000
    26  H    4.826096   3.914321   3.502981   1.760151   1.778676
                   26
    26  H    0.000000
 Symmetry turned off by external request.
 Stoichiometry    C10H12O4(1-,2)
 Framework group  C1[X(C10H12O4)]
 Deg. of freedom    72
 Full point group                 C1      NOp   1
 Rotational constants (GHZ):           0.9595240           0.6047864           0.3746220
 Leave Link  202 at Wed Dec 20 01:21:58 2023, MaxMem=  4026531840 cpu:               0.8 elap:               0.2
 (Enter /sysapps/ubuntu-applications/gaussian/Gaussian/AVX2/g16/l301.exe)
 Standard basis: 6-311++G(d,p) (5D, 7F)
 Ernie: Thresh=  0.10000D-02 Tol=  0.10000D-05 Strict=F.
   392 basis functions,   612 primitive gaussians,   406 cartesian basis functions
    53 alpha electrons       52 beta electrons
       nuclear repulsion energy       913.9681499433 Hartrees.
 IExCor=  402 DFT=T Ex+Corr=B3LYP ExCW=0 ScaHFX=  0.200000
 ScaDFX=  0.800000  0.720000  1.000000  0.810000 ScalE2=  1.000000  1.000000
 IRadAn=      5 IRanWt=     -1 IRanGd=            0 ICorTp=0 IEmpDi=  4
 NAtoms=   26 NActive=   26 NUniq=   26 SFac= 1.00D+00 NAtFMM=   60 NAOKFM=F Big=F
 Integral buffers will be    131072 words long.
 Raffenetti 2 integral format.
 Two-electron integral symmetry is turned off.
 Leave Link  301 at Wed Dec 20 01:21:58 2023, MaxMem=  4026531840 cpu:               0.5 elap:               0.2
 (Enter /sysapps/ubuntu-applications/gaussian/Gaussian/AVX2/g16/l302.exe)
 NPDir=0 NMtPBC=     1 NCelOv=     1 NCel=       1 NClECP=     1 NCelD=      1
         NCelK=      1 NCelE2=     1 NClLst=     1 CellRange=     0.0.
 One-electron integrals computed using PRISM.
 NBasis=   392 RedAO= T EigKep=  1.48D-06  NBF=   392
 NBsUse=   390 1.00D-06 EigRej=  6.85D-07 NBFU=   390
 Precomputing XC quadrature grid using
 IXCGrd= 4 IRadAn=           5 IRanWt=          -1 IRanGd=           0 AccXCQ= 0.00D+00.
 Generated NRdTot=       0 NPtTot=           0 NUsed=           0 NTot=          32
 NSgBfM=   406   406   406   406   406 MxSgAt=    26 MxSgA2=    26.
 Leave Link  302 at Wed Dec 20 01:22:00 2023, MaxMem=  4026531840 cpu:               9.1 elap:               1.4
 (Enter /sysapps/ubuntu-applications/gaussian/Gaussian/AVX2/g16/l303.exe)
 DipDrv:  MaxL=1.
 Leave Link  303 at Wed Dec 20 01:22:00 2023, MaxMem=  4026531840 cpu:               1.3 elap:               0.3
 (Enter /sysapps/ubuntu-applications/gaussian/Gaussian/AVX2/g16/l401.exe)
 ExpMin= 3.60D-02 ExpMax= 8.59D+03 ExpMxC= 1.30D+03 IAcc=3 IRadAn=         5 AccDes= 0.00D+00
 Harris functional with IExCor=  402 and IRadAn=       5 diagonalized for initial guess.
 HarFok:  IExCor=  402 AccDes= 0.00D+00 IRadAn=         5 IDoV= 1 UseB2=F ITyADJ=14
 ICtDFT=  3500011 ScaDFX=  1.000000  1.000000  1.000000  1.000000
 FoFCou: FMM=F IPFlag=           0 FMFlag=      100000 FMFlg1=           0
         NFxFlg=           0 DoJE=T BraDBF=F KetDBF=T FulRan=T
         wScrn=  0.000000 ICntrl=       500 IOpCl=  0 I1Cent=   200000004 NGrid=           0
         NMat0=    1 NMatS0=      1 NMatT0=    0 NMatD0=    1 NMtDS0=    0 NMtDT0=    0
 Symmetry not used in FoFCou.
 Harris En= -689.572140620049    
 JPrj=0 DoOrth=F DoCkMO=F.
 Initial guess <Sx>= 0.0000 <Sy>= 0.0000 <Sz>= 0.5000 <S**2>= 0.7500 S= 0.5000
 Leave Link  401 at Wed Dec 20 01:22:03 2023, MaxMem=  4026531840 cpu:              21.4 elap:               2.8
 (Enter /sysapps/ubuntu-applications/gaussian/Gaussian/AVX2/g16/l502.exe)
 Two-electron integral symmetry not used.
 UHF open shell SCF:
 Using DIIS extrapolation, IDIIS=  1040.
 NGot=  4026531840 LenX=  4026195912 LenY=  4026030635
 Requested convergence on RMS density matrix=1.00D-08 within 128 cycles.
 Requested convergence on MAX density matrix=1.00D-06.
 Requested convergence on             energy=1.00D-06.
 No special actions if energy rises.
 Fock matrices will be formed incrementally for  20 cycles.

 Cycle   1  Pass 1  IDiag  1:
 FoFJK:  IHMeth= 1 ICntrl=       0 DoSepK=F KAlg= 0 I1Cent=           0 FoldK=F
 IRaf= 880000000 NMat=       1 IRICut=       1 DoRegI=T DoRafI=F ISym2E= 0 IDoP0=0 IntGTp=1.
 FoFCou: FMM=F IPFlag=           0 FMFlag=      100000 FMFlg1=           0
         NFxFlg=           0 DoJE=F BraDBF=F KetDBF=F FulRan=T
         wScrn=  0.000000 ICntrl=         0 IOpCl=  1 I1Cent=           0 NGrid=           0
         NMat0=    1 NMatS0=      1 NMatT0=    0 NMatD0=    1 NMtDS0=    0 NMtDT0=    0
 Symmetry not used in FoFCou.
 E= -688.882770886344    
 DIIS: error= 3.84D-02 at cycle   1 NSaved=   1.
 NSaved= 1 IEnMin= 1 EnMin= -688.882770886344     IErMin= 1 ErrMin= 3.84D-02
 ErrMax= 3.84D-02  0.00D+00 EMaxC= 1.00D-01 BMatC= 2.20D+00 BMatP= 2.20D+00
 IDIUse=3 WtCom= 6.16D-01 WtEn= 3.84D-01
 Coeff-Com:  0.100D+01
 Coeff-En:   0.100D+01
 Coeff:      0.100D+01
 Gap=     0.112 Goal=   None    Shift=    0.000
 Gap=     0.217 Goal=   None    Shift=    0.000
 GapD=    0.112 DampG=1.000 DampE=0.500 DampFc=0.5000 IDamp=-1.
 Damping current iteration by 5.00D-01
 RMSDP=1.69D+00 MaxDP=1.48D+02              OVMax= 9.97D-01

 Cycle   2  Pass 1  IDiag  1:
 RMSU=  7.65D-01    CP:  3.00D+00
 E= -688.102987414970     Delta-E=        0.779783471373 Rises=F Damp=T
 DIIS: error= 5.48D-02 at cycle   2 NSaved=   2.
 NSaved= 2 IEnMin= 1 EnMin= -688.882770886344     IErMin= 1 ErrMin= 3.84D-02
 ErrMax= 5.48D-02  0.00D+00 EMaxC= 1.00D-01 BMatC= 1.44D+00 BMatP= 2.20D+00
 IDIUse=3 WtCom= 4.52D-01 WtEn= 5.48D-01
 Coeff-Com:  0.431D+00 0.569D+00
 Coeff-En:   0.774D+00 0.226D+00
 Coeff:      0.619D+00 0.381D+00
 Gap=     0.161 Goal=   None    Shift=    0.000
 Gap=    -0.087 Goal=   None    Shift=    0.000
 RMSDP=8.30D-01 MaxDP=7.32D+01 DE= 7.80D-01 OVMax= 9.41D-01

 Cycle   3  Pass 1  IDiag  1:
 RMSU=  1.69D-02    CP:  1.31D+00  4.42D-03
 E= -689.193413317345     Delta-E=       -1.090425902375 Rises=F Damp=F
 DIIS: error= 2.85D-02 at cycle   3 NSaved=   3.
 NSaved= 3 IEnMin= 3 EnMin= -689.193413317345     IErMin= 3 ErrMin= 2.85D-02
 ErrMax= 2.85D-02  0.00D+00 EMaxC= 1.00D-01 BMatC= 6.13D-01 BMatP= 1.44D+00
 IDIUse=3 WtCom= 7.15D-01 WtEn= 2.85D-01
 Coeff-Com:  0.251D+00 0.304D+00 0.445D+00
 Coeff-En:   0.121D+00 0.000D+00 0.879D+00
 Coeff:      0.214D+00 0.217D+00 0.569D+00
 Gap=     0.079 Goal=   None    Shift=    0.000
 Gap=     0.163 Goal=   None    Shift=    0.000
 RMSDP=1.09D-02 MaxDP=6.49D-01 DE=-1.09D+00 OVMax= 1.57D-01

 Cycle   4  Pass 1  IDiag  1:
 RMSU=  8.52D-03    CP:  1.37D+00  8.89D-04  7.18D-01
 E= -689.310168551927     Delta-E=       -0.116755234582 Rises=F Damp=F
 DIIS: error= 1.42D-02 at cycle   4 NSaved=   4.
 NSaved= 4 IEnMin= 4 EnMin= -689.310168551927     IErMin= 4 ErrMin= 1.42D-02
 ErrMax= 1.42D-02  0.00D+00 EMaxC= 1.00D-01 BMatC= 1.47D-01 BMatP= 6.13D-01
 IDIUse=3 WtCom= 8.58D-01 WtEn= 1.42D-01
 Coeff-Com:  0.402D-01 0.118D+00 0.303D+00 0.538D+00
 Coeff-En:   0.000D+00 0.000D+00 0.166D+00 0.834D+00
 Coeff:      0.345D-01 0.102D+00 0.284D+00 0.580D+00
 Gap=     0.078 Goal=   None    Shift=    0.000
 Gap=     0.161 Goal=   None    Shift=    0.000
 RMSDP=7.90D-03 MaxDP=4.44D-01 DE=-1.17D-01 OVMax= 1.16D-01

 Cycle   5  Pass 1  IDiag  1:
 RMSU=  6.22D-03    CP:  1.43D+00 -3.23D-04  6.98D-01  1.20D+00
 E= -689.340703117836     Delta-E=       -0.030534565909 Rises=F Damp=F
 DIIS: error= 7.00D-03 at cycle   5 NSaved=   5.
 NSaved= 5 IEnMin= 5 EnMin= -689.340703117836     IErMin= 5 ErrMin= 7.00D-03
 ErrMax= 7.00D-03  0.00D+00 EMaxC= 1.00D-01 BMatC= 2.49D-02 BMatP= 1.47D-01
 IDIUse=3 WtCom= 9.30D-01 WtEn= 7.00D-02
 Coeff-Com: -0.199D-01 0.515D-01 0.741D-01 0.334D+00 0.560D+00
 Coeff-En:   0.000D+00 0.000D+00 0.000D+00 0.666D-01 0.933D+00
 Coeff:     -0.185D-01 0.479D-01 0.689D-01 0.315D+00 0.586D+00
 Gap=     0.061 Goal=   None    Shift=    0.000
 Gap=     0.153 Goal=   None    Shift=    0.000
 RMSDP=2.67D-03 MaxDP=2.10D-01 DE=-3.05D-02 OVMax= 3.61D-02

 Cycle   6  Pass 1  IDiag  1:
 RMSU=  1.01D-03    CP:  1.46D+00 -8.32D-04  6.60D-01  1.37D+00  1.05D+00
 E= -689.345955970243     Delta-E=       -0.005252852407 Rises=F Damp=F
 DIIS: error= 1.73D-03 at cycle   6 NSaved=   6.
 NSaved= 6 IEnMin= 6 EnMin= -689.345955970243     IErMin= 6 ErrMin= 1.73D-03
 ErrMax= 1.73D-03  0.00D+00 EMaxC= 1.00D-01 BMatC= 2.95D-03 BMatP= 2.49D-02
 IDIUse=3 WtCom= 9.83D-01 WtEn= 1.73D-02
 Coeff-Com: -0.239D-01 0.153D-01-0.407D-01 0.501D-01 0.304D+00 0.695D+00
 Coeff-En:   0.000D+00 0.000D+00 0.000D+00 0.000D+00 0.000D+00 0.100D+01
 Coeff:     -0.235D-01 0.150D-01-0.400D-01 0.492D-01 0.299D+00 0.700D+00
 Gap=     0.057 Goal=   None    Shift=    0.000
 Gap=     0.143 Goal=   None    Shift=    0.000
 RMSDP=2.46D-03 MaxDP=1.98D-01 DE=-5.25D-03 OVMax= 1.69D-02

 Cycle   7  Pass 1  IDiag  1:
 RMSU=  6.44D-04    CP:  1.49D+00 -1.04D-03  6.81D-01  1.47D+00  1.13D+00
                    CP:  9.67D-01
 E= -689.346684831908     Delta-E=       -0.000728861665 Rises=F Damp=F
 DIIS: error= 1.07D-03 at cycle   7 NSaved=   7.
 NSaved= 7 IEnMin= 7 EnMin= -689.346684831908     IErMin= 7 ErrMin= 1.07D-03
 ErrMax= 1.07D-03  0.00D+00 EMaxC= 1.00D-01 BMatC= 4.56D-04 BMatP= 2.95D-03
 IDIUse=3 WtCom= 9.89D-01 WtEn= 1.07D-02
 Coeff-Com: -0.117D-01 0.743D-02-0.306D-01-0.499D-02 0.864D-01 0.339D+00
 Coeff-Com:  0.614D+00
 Coeff-En:   0.000D+00 0.000D+00 0.000D+00 0.000D+00 0.000D+00 0.000D+00
 Coeff-En:   0.100D+01
 Coeff:     -0.116D-01 0.735D-02-0.302D-01-0.494D-02 0.855D-01 0.336D+00
 Coeff:      0.618D+00
 Gap=     0.057 Goal=   None    Shift=    0.000
 Gap=     0.142 Goal=   None    Shift=    0.000
 RMSDP=7.57D-04 MaxDP=5.70D-02 DE=-7.29D-04 OVMax= 5.14D-03

 Cycle   8  Pass 1  IDiag  1:
 RMSU=  2.44D-04    CP:  1.49D+00 -1.09D-03  6.79D-01  1.50D+00  1.16D+00
                    CP:  1.22D+00  8.14D-01
 E= -689.346765798830     Delta-E=       -0.000080966922 Rises=F Damp=F
 DIIS: error= 6.12D-04 at cycle   8 NSaved=   8.
 NSaved= 8 IEnMin= 8 EnMin= -689.346765798830     IErMin= 8 ErrMin= 6.12D-04
 ErrMax= 6.12D-04  0.00D+00 EMaxC= 1.00D-01 BMatC= 1.59D-04 BMatP= 4.56D-04
 IDIUse=3 WtCom= 9.94D-01 WtEn= 6.12D-03
 Coeff-Com: -0.242D-02 0.207D-02-0.120D-01-0.179D-01-0.342D-01 0.287D-01
 Coeff-Com:  0.460D+00 0.576D+00
 Coeff-En:   0.000D+00 0.000D+00 0.000D+00 0.000D+00 0.000D+00 0.000D+00
 Coeff-En:   0.632D-01 0.937D+00
 Coeff:     -0.240D-02 0.206D-02-0.119D-01-0.178D-01-0.340D-01 0.286D-01
 Coeff:      0.457D+00 0.578D+00
 Gap=     0.056 Goal=   None    Shift=    0.000
 Gap=     0.141 Goal=   None    Shift=    0.000
 RMSDP=4.22D-04 MaxDP=3.07D-02 DE=-8.10D-05 OVMax= 3.53D-03

 Cycle   9  Pass 1  IDiag  1:
 RMSU=  8.76D-05    CP:  1.50D+00 -1.19D-03  6.72D-01  1.52D+00  1.18D+00
                    CP:  1.19D+00  1.06D+00  3.69D-01
 E= -689.346807194219     Delta-E=       -0.000041395389 Rises=F Damp=F
 DIIS: error= 2.46D-04 at cycle   9 NSaved=   9.
 NSaved= 9 IEnMin= 9 EnMin= -689.346807194219     IErMin= 9 ErrMin= 2.46D-04
 ErrMax= 2.46D-04  0.00D+00 EMaxC= 1.00D-01 BMatC= 2.54D-05 BMatP= 1.59D-04
 IDIUse=3 WtCom= 9.98D-01 WtEn= 2.46D-03
 Coeff-Com:  0.155D-04 0.237D-03-0.322D-02-0.108D-01-0.396D-01-0.424D-01
 Coeff-Com:  0.200D+00 0.377D+00 0.519D+00
 Coeff-En:   0.000D+00 0.000D+00 0.000D+00 0.000D+00 0.000D+00 0.000D+00
 Coeff-En:   0.000D+00 0.000D+00 0.100D+01
 Coeff:      0.154D-04 0.236D-03-0.321D-02-0.107D-01-0.395D-01-0.423D-01
 Coeff:      0.199D+00 0.376D+00 0.520D+00
 Gap=     0.055 Goal=   None    Shift=    0.000
 Gap=     0.141 Goal=   None    Shift=    0.000
 RMSDP=1.81D-04 MaxDP=1.55D-02 DE=-4.14D-05 OVMax= 1.66D-03

 Cycle  10  Pass 1  IDiag  1:
 RMSU=  4.93D-05    CP:  1.50D+00 -1.20D-03  6.72D-01  1.53D+00  1.19D+00
                    CP:  1.25D+00  1.05D+00  6.56D-01  8.22D-01
 E= -689.346814545632     Delta-E=       -0.000007351412 Rises=F Damp=F
 DIIS: error= 8.58D-05 at cycle  10 NSaved=  10.
 NSaved=10 IEnMin=10 EnMin= -689.346814545632     IErMin=10 ErrMin= 8.58D-05
 ErrMax= 8.58D-05  0.00D+00 EMaxC= 1.00D-01 BMatC= 3.47D-06 BMatP= 2.54D-05
 IDIUse=1 WtCom= 1.00D+00 WtEn= 0.00D+00
 Coeff-Com:  0.652D-03-0.376D-03 0.178D-02-0.743D-03-0.137D-01-0.339D-01
 Coeff-Com: -0.203D-01 0.353D-01 0.293D+00 0.738D+00
 Coeff:      0.652D-03-0.376D-03 0.178D-02-0.743D-03-0.137D-01-0.339D-01
 Coeff:     -0.203D-01 0.353D-01 0.293D+00 0.738D+00
 Gap=     0.055 Goal=   None    Shift=    0.000
 Gap=     0.140 Goal=   None    Shift=    0.000
 RMSDP=8.81D-05 MaxDP=8.10D-03 DE=-7.35D-06 OVMax= 7.83D-04

 Cycle  11  Pass 1  IDiag  1:
 RMSU=  2.18D-05    CP:  1.50D+00 -1.21D-03  6.72D-01  1.53D+00  1.19D+00
                    CP:  1.24D+00  1.07D+00  5.92D-01  9.50D-01  8.49D-01
 E= -689.346815751830     Delta-E=       -0.000001206198 Rises=F Damp=F
 DIIS: error= 5.68D-05 at cycle  11 NSaved=  11.
 NSaved=11 IEnMin=11 EnMin= -689.346815751830     IErMin=11 ErrMin= 5.68D-05
 ErrMax= 5.68D-05  0.00D+00 EMaxC= 1.00D-01 BMatC= 9.63D-07 BMatP= 3.47D-06
 IDIUse=1 WtCom= 1.00D+00 WtEn= 0.00D+00
 Coeff-Com:  0.425D-03-0.294D-03 0.158D-02 0.136D-02-0.291D-03-0.885D-02
 Coeff-Com: -0.391D-01-0.434D-01 0.579D-01 0.385D+00 0.645D+00
 Coeff:      0.425D-03-0.294D-03 0.158D-02 0.136D-02-0.291D-03-0.885D-02
 Coeff:     -0.391D-01-0.434D-01 0.579D-01 0.385D+00 0.645D+00
 Gap=     0.055 Goal=   None    Shift=    0.000
 Gap=     0.140 Goal=   None    Shift=    0.000
 RMSDP=3.48D-05 MaxDP=2.98D-03 DE=-1.21D-06 OVMax= 2.90D-04

 Cycle  12  Pass 1  IDiag  1:
 RMSU=  1.15D-05    CP:  1.50D+00 -1.21D-03  6.72D-01  1.53D+00  1.19D+00
                    CP:  1.24D+00  1.07D+00  6.10D-01  9.28D-01  9.11D-01
                    CP:  6.67D-01
 E= -689.346815989126     Delta-E=       -0.000000237296 Rises=F Damp=F
 DIIS: error= 2.16D-05 at cycle  12 NSaved=  12.
 NSaved=12 IEnMin=12 EnMin= -689.346815989126     IErMin=12 ErrMin= 2.16D-05
 ErrMax= 2.16D-05  0.00D+00 EMaxC= 1.00D-01 BMatC= 3.18D-07 BMatP= 9.63D-07
 IDIUse=1 WtCom= 1.00D+00 WtEn= 0.00D+00
 Coeff-Com:  0.125D-03-0.134D-03 0.462D-03 0.100D-02 0.454D-02 0.636D-02
 Coeff-Com: -0.131D-01-0.334D-01-0.684D-01-0.410D-01 0.345D+00 0.799D+00
 Coeff:      0.125D-03-0.134D-03 0.462D-03 0.100D-02 0.454D-02 0.636D-02
 Coeff:     -0.131D-01-0.334D-01-0.684D-01-0.410D-01 0.345D+00 0.799D+00
 Gap=     0.055 Goal=   None    Shift=    0.000
 Gap=     0.140 Goal=   None    Shift=    0.000
 RMSDP=2.76D-05 MaxDP=1.98D-03 DE=-2.37D-07 OVMax= 1.27D-04

 Cycle  13  Pass 1  IDiag  1:
 RMSU=  4.85D-06    CP:  1.50D+00 -1.20D-03  6.72D-01  1.53D+00  1.19D+00
                    CP:  1.24D+00  1.06D+00  6.02D-01  9.52D-01  9.40D-01
                    CP:  9.04D-01  1.03D+00
 E= -689.346816069540     Delta-E=       -0.000000080415 Rises=F Damp=F
 DIIS: error= 8.59D-06 at cycle  13 NSaved=  13.
 NSaved=13 IEnMin=13 EnMin= -689.346816069540     IErMin=13 ErrMin= 8.59D-06
 ErrMax= 8.59D-06  0.00D+00 EMaxC= 1.00D-01 BMatC= 3.44D-08 BMatP= 3.18D-07
 IDIUse=1 WtCom= 1.00D+00 WtEn= 0.00D+00
 Coeff-Com:  0.254D-04-0.223D-04 0.189D-04 0.200D-03 0.167D-02 0.301D-02
 Coeff-Com:  0.137D-02-0.394D-02-0.271D-01-0.602D-01 0.145D-01 0.233D+00
 Coeff-Com:  0.837D+00
 Coeff:      0.254D-04-0.223D-04 0.189D-04 0.200D-03 0.167D-02 0.301D-02
 Coeff:      0.137D-02-0.394D-02-0.271D-01-0.602D-01 0.145D-01 0.233D+00
 Coeff:      0.837D+00
 Gap=     0.055 Goal=   None    Shift=    0.000
 Gap=     0.140 Goal=   None    Shift=    0.000
 RMSDP=1.04D-05 MaxDP=6.14D-04 DE=-8.04D-08 OVMax= 3.61D-05

 Cycle  14  Pass 1  IDiag  1:
 RMSU=  1.51D-06    CP:  1.50D+00 -1.20D-03  6.72D-01  1.53D+00  1.19D+00
                    CP:  1.24D+00  1.06D+00  6.04D-01  9.47D-01  9.35D-01
                    CP:  9.42D-01  1.14D+00  1.02D+00
 E= -689.346816078735     Delta-E=       -0.000000009194 Rises=F Damp=F
 DIIS: error= 2.75D-06 at cycle  14 NSaved=  14.
 NSaved=14 IEnMin=14 EnMin= -689.346816078735     IErMin=14 ErrMin= 2.75D-06
 ErrMax= 2.75D-06  0.00D+00 EMaxC= 1.00D-01 BMatC= 4.66D-09 BMatP= 3.44D-08
 IDIUse=1 WtCom= 1.00D+00 WtEn= 0.00D+00
 Coeff-Com:  0.427D-05-0.610D-05-0.273D-04 0.206D-04 0.465D-03 0.880D-03
 Coeff-Com:  0.201D-02 0.125D-02-0.730D-02-0.272D-01-0.324D-01 0.399D-01
 Coeff-Com:  0.454D+00 0.569D+00
 Coeff:      0.427D-05-0.610D-05-0.273D-04 0.206D-04 0.465D-03 0.880D-03
 Coeff:      0.201D-02 0.125D-02-0.730D-02-0.272D-01-0.324D-01 0.399D-01
 Coeff:      0.454D+00 0.569D+00
 Gap=     0.055 Goal=   None    Shift=    0.000
 Gap=     0.140 Goal=   None    Shift=    0.000
 RMSDP=2.34D-06 MaxDP=2.06D-04 DE=-9.19D-09 OVMax= 1.08D-05

 Cycle  15  Pass 1  IDiag  1:
 RMSU=  6.37D-07    CP:  1.50D+00 -1.20D-03  6.72D-01  1.53D+00  1.19D+00
                    CP:  1.24D+00  1.06D+00  6.02D-01  9.48D-01  9.41D-01
                    CP:  9.53D-01  1.15D+00  1.07D+00  8.48D-01
 E= -689.346816079694     Delta-E=       -0.000000000959 Rises=F Damp=F
 DIIS: error= 5.13D-07 at cycle  15 NSaved=  15.
 NSaved=15 IEnMin=15 EnMin= -689.346816079694     IErMin=15 ErrMin= 5.13D-07
 ErrMax= 5.13D-07  0.00D+00 EMaxC= 1.00D-01 BMatC= 4.61D-10 BMatP= 4.66D-09
 IDIUse=1 WtCom= 1.00D+00 WtEn= 0.00D+00
 Coeff-Com: -0.787D-06 0.185D-06-0.105D-04-0.761D-05 0.266D-04 0.120D-04
 Coeff-Com:  0.647D-03 0.908D-03 0.273D-03-0.399D-02-0.167D-01-0.104D-01
 Coeff-Com:  0.101D+00 0.300D+00 0.628D+00
 Coeff:     -0.787D-06 0.185D-06-0.105D-04-0.761D-05 0.266D-04 0.120D-04
 Coeff:      0.647D-03 0.908D-03 0.273D-03-0.399D-02-0.167D-01-0.104D-01
 Coeff:      0.101D+00 0.300D+00 0.628D+00
 Gap=     0.055 Goal=   None    Shift=    0.000
 Gap=     0.140 Goal=   None    Shift=    0.000
 RMSDP=9.25D-07 MaxDP=6.34D-05 DE=-9.59D-10 OVMax= 4.79D-06

 Cycle  16  Pass 1  IDiag  1:
 RMSU=  1.67D-07    CP:  1.50D+00 -1.20D-03  6.72D-01  1.53D+00  1.19D+00
                    CP:  1.24D+00  1.06D+00  6.03D-01  9.47D-01  9.40D-01
                    CP:  9.49D-01  1.16D+00  1.08D+00  9.49D-01  6.37D-01
 E= -689.346816079768     Delta-E=       -0.000000000074 Rises=F Damp=F
 DIIS: error= 2.52D-07 at cycle  16 NSaved=  16.
 NSaved=16 IEnMin=16 EnMin= -689.346816079768     IErMin=16 ErrMin= 2.52D-07
 ErrMax= 2.52D-07  0.00D+00 EMaxC= 1.00D-01 BMatC= 1.01D-10 BMatP= 4.61D-10
 IDIUse=1 WtCom= 1.00D+00 WtEn= 0.00D+00
 Coeff-Com: -0.101D-05 0.768D-06-0.295D-05-0.508D-05-0.213D-04-0.746D-04
 Coeff-Com:  0.147D-03 0.347D-03 0.816D-03 0.461D-03-0.603D-02-0.924D-02
 Coeff-Com:  0.144D-01 0.126D+00 0.386D+00 0.487D+00
 Coeff:     -0.101D-05 0.768D-06-0.295D-05-0.508D-05-0.213D-04-0.746D-04
 Coeff:      0.147D-03 0.347D-03 0.816D-03 0.461D-03-0.603D-02-0.924D-02
 Coeff:      0.144D-01 0.126D+00 0.386D+00 0.487D+00
 Gap=     0.055 Goal=   None    Shift=    0.000
 Gap=     0.140 Goal=   None    Shift=    0.000
 RMSDP=2.11D-07 MaxDP=1.47D-05 DE=-7.44D-11 OVMax= 2.34D-06

 Cycle  17  Pass 1  IDiag  1:
 RMSU=  6.66D-08    CP:  1.50D+00 -1.20D-03  6.72D-01  1.53D+00  1.19D+00
                    CP:  1.24D+00  1.06D+00  6.03D-01  9.47D-01  9.40D-01
                    CP:  9.48D-01  1.16D+00  1.08D+00  9.21D-01  7.76D-01
                    CP:  7.12D-01
 E= -689.346816079802     Delta-E=       -0.000000000034 Rises=F Damp=F
 DIIS: error= 5.92D-08 at cycle  17 NSaved=  17.
 NSaved=17 IEnMin=17 EnMin= -689.346816079802     IErMin=17 ErrMin= 5.92D-08
 ErrMax= 5.92D-08  0.00D+00 EMaxC= 1.00D-01 BMatC= 6.89D-12 BMatP= 1.01D-10
 IDIUse=1 WtCom= 1.00D+00 WtEn= 0.00D+00
 Coeff-Com: -0.496D-06 0.908D-07-0.535D-07-0.191D-05-0.126D-04-0.374D-04
 Coeff-Com: -0.361D-04-0.529D-05 0.260D-03 0.734D-03 0.151D-03-0.224D-02
 Coeff-Com: -0.831D-02 0.659D-02 0.524D-01 0.203D+00 0.748D+00
 Coeff:     -0.496D-06 0.908D-07-0.535D-07-0.191D-05-0.126D-04-0.374D-04
 Coeff:     -0.361D-04-0.529D-05 0.260D-03 0.734D-03 0.151D-03-0.224D-02
 Coeff:     -0.831D-02 0.659D-02 0.524D-01 0.203D+00 0.748D+00
 Gap=     0.055 Goal=   None    Shift=    0.000
 Gap=     0.140 Goal=   None    Shift=    0.000
 RMSDP=1.13D-07 MaxDP=7.42D-06 DE=-3.39D-11 OVMax= 1.15D-06

 Cycle  18  Pass 1  IDiag  1:
 RMSU=  2.10D-08    CP:  1.50D+00 -1.20D-03  6.72D-01  1.53D+00  1.19D+00
                    CP:  1.24D+00  1.06D+00  6.03D-01  9.47D-01  9.40D-01
                    CP:  9.49D-01  1.16D+00  1.08D+00  9.34D-01  7.66D-01
                    CP:  8.56D-01  9.52D-01
 E= -689.346816079785     Delta-E=        0.000000000017 Rises=F Damp=F
 DIIS: error= 4.51D-08 at cycle  18 NSaved=  18.
 NSaved=18 IEnMin=17 EnMin= -689.346816079802     IErMin=18 ErrMin= 4.51D-08
 ErrMax= 4.51D-08  0.00D+00 EMaxC= 1.00D-01 BMatC= 1.70D-12 BMatP= 6.89D-12
 IDIUse=1 WtCom= 1.00D+00 WtEn= 0.00D+00
 Coeff-Com: -0.863D-07 0.868D-07 0.388D-06-0.679D-06-0.482D-05-0.120D-04
 Coeff-Com: -0.339D-04-0.507D-04 0.292D-04 0.368D-03 0.964D-03 0.241D-03
 Coeff-Com: -0.673D-02-0.154D-01-0.365D-01 0.205D-01 0.380D+00 0.656D+00
 Coeff:     -0.863D-07 0.868D-07 0.388D-06-0.679D-06-0.482D-05-0.120D-04
 Coeff:     -0.339D-04-0.507D-04 0.292D-04 0.368D-03 0.964D-03 0.241D-03
 Coeff:     -0.673D-02-0.154D-01-0.365D-01 0.205D-01 0.380D+00 0.656D+00
 Gap=     0.055 Goal=   None    Shift=    0.000
 Gap=     0.140 Goal=   None    Shift=    0.000
 RMSDP=3.43D-08 MaxDP=2.39D-06 DE= 1.66D-11 OVMax= 5.04D-07

 Cycle  19  Pass 1  IDiag  1:
 RMSU=  9.42D-09    CP:  1.50D+00 -1.20D-03  6.72D-01  1.53D+00  1.19D+00
                    CP:  1.24D+00  1.06D+00  6.03D-01  9.47D-01  9.40D-01
                    CP:  9.49D-01  1.16D+00  1.08D+00  9.36D-01  7.71D-01
                    CP:  8.65D-01  1.09D+00  9.84D-01
 E= -689.346816079790     Delta-E=       -0.000000000005 Rises=F Damp=F
 DIIS: error= 1.08D-08 at cycle  19 NSaved=  19.
 NSaved=19 IEnMin=17 EnMin= -689.346816079802     IErMin=19 ErrMin= 1.08D-08
 ErrMax= 1.08D-08  0.00D+00 EMaxC= 1.00D-01 BMatC= 1.69D-13 BMatP= 1.70D-12
 IDIUse=1 WtCom= 1.00D+00 WtEn= 0.00D+00
 Coeff-Com:  0.528D-07-0.904D-08 0.467D-07 0.165D-06 0.171D-05 0.451D-05
 Coeff-Com: -0.118D-05-0.249D-04-0.622D-04-0.346D-04 0.288D-03 0.700D-03
 Coeff-Com: -0.648D-03-0.691D-02-0.264D-01-0.373D-01-0.171D-01 0.225D+00
 Coeff-Com:  0.862D+00
 Coeff:      0.528D-07-0.904D-08 0.467D-07 0.165D-06 0.171D-05 0.451D-05
 Coeff:     -0.118D-05-0.249D-04-0.622D-04-0.346D-04 0.288D-03 0.700D-03
 Coeff:     -0.648D-03-0.691D-02-0.264D-01-0.373D-01-0.171D-01 0.225D+00
 Coeff:      0.862D+00
 Gap=     0.055 Goal=   None    Shift=    0.000
 Gap=     0.140 Goal=   None    Shift=    0.000
 RMSDP=1.68D-08 MaxDP=1.22D-06 DE=-5.00D-12 OVMax= 2.62D-07

 Cycle  20  Pass 1  IDiag  1:
 RMSU=  2.89D-09    CP:  1.50D+00 -1.20D-03  6.72D-01  1.53D+00  1.19D+00
                    CP:  1.24D+00  1.06D+00  6.03D-01  9.47D-01  9.40D-01
                    CP:  9.49D-01  1.16D+00  1.08D+00  9.36D-01  7.70D-01
                    CP:  8.85D-01  1.14D+00  1.07D+00  1.24D+00
 E= -689.346816079788     Delta-E=        0.000000000002 Rises=F Damp=F
 DIIS: error= 3.82D-09 at cycle  20 NSaved=  20.
 NSaved=20 IEnMin=17 EnMin= -689.346816079802     IErMin=20 ErrMin= 3.82D-09
 ErrMax= 3.82D-09  0.00D+00 EMaxC= 1.00D-01 BMatC= 1.14D-14 BMatP= 1.69D-13
 IDIUse=1 WtCom= 1.00D+00 WtEn= 0.00D+00
 Coeff-Com:  0.159D-07-0.378D-08-0.332D-07 0.954D-07 0.553D-06 0.135D-05
 Coeff-Com:  0.410D-05 0.270D-05-0.417D-05-0.377D-04-0.923D-04 0.338D-04
 Coeff-Com:  0.584D-03 0.965D-03 0.165D-02-0.407D-02-0.409D-01-0.497D-01
 Coeff-Com:  0.591D-01 0.103D+01
 Coeff:      0.159D-07-0.378D-08-0.332D-07 0.954D-07 0.553D-06 0.135D-05
 Coeff:      0.410D-05 0.270D-05-0.417D-05-0.377D-04-0.923D-04 0.338D-04
 Coeff:      0.584D-03 0.965D-03 0.165D-02-0.407D-02-0.409D-01-0.497D-01
 Coeff:      0.591D-01 0.103D+01
 Gap=     0.055 Goal=   None    Shift=    0.000
 Gap=     0.140 Goal=   None    Shift=    0.000
 RMSDP=2.81D-09 MaxDP=1.50D-07 DE= 2.05D-12 OVMax= 1.33D-07

 SCF Done:  E(UB3LYP) =  -689.346816080     A.U. after   20 cycles
            NFock= 20  Conv=0.28D-08     -V/T= 2.0036
 <Sx>= 0.0000 <Sy>= 0.0000 <Sz>= 0.5000 <S**2>= 0.7581 S= 0.5040
 <L.S>=  0.00000000000    
 KE= 6.868777808083D+02 PE=-3.457004835133D+03 EE= 1.166812088302D+03
 Annihilation of the first spin contaminant:
 S**2 before annihilation     0.7581,   after     0.7500
 Leave Link  502 at Wed Dec 20 01:27:15 2023, MaxMem=  4026531840 cpu:            2299.5 elap:             312.2
 (Enter /sysapps/ubuntu-applications/gaussian/Gaussian/AVX2/g16/l601.exe)
 Copying SCF densities to generalized density rwf, IOpCl= 1 IROHF=0.

 **********************************************************************

            Population analysis using the SCF density.

 **********************************************************************

 Alpha  occ. eigenvalues --  -19.01542 -19.01518 -18.91548 -18.91537 -10.11518
 Alpha  occ. eigenvalues --  -10.11516 -10.08495 -10.08416 -10.06928 -10.06808
 Alpha  occ. eigenvalues --  -10.02490 -10.02388 -10.01474 -10.01338  -0.94045
 Alpha  occ. eigenvalues --   -0.92831  -0.85448  -0.85225  -0.68142  -0.65410
 Alpha  occ. eigenvalues --   -0.61482  -0.58454  -0.57913  -0.52347  -0.48346
 Alpha  occ. eigenvalues --   -0.43400  -0.42416  -0.41102  -0.37450  -0.36744
 Alpha  occ. eigenvalues --   -0.34886  -0.34780  -0.32486  -0.31418  -0.29942
 Alpha  occ. eigenvalues --   -0.28309  -0.27194  -0.26495  -0.25995  -0.24885
 Alpha  occ. eigenvalues --   -0.24761  -0.22692  -0.21982  -0.21331  -0.20456
 Alpha  occ. eigenvalues --   -0.19501  -0.18615  -0.17885  -0.11404  -0.08922
 Alpha  occ. eigenvalues --   -0.07701  -0.07468   0.01686
 Alpha virt. eigenvalues --    0.07228   0.09455   0.09481   0.10986   0.11517
 Alpha virt. eigenvalues --    0.12069   0.12230   0.12625   0.13960   0.14173
 Alpha virt. eigenvalues --    0.15041   0.15298   0.15652   0.16524   0.17108
 Alpha virt. eigenvalues --    0.18010   0.18089   0.19200   0.19431   0.19625
 Alpha virt. eigenvalues --    0.20238   0.20598   0.20778   0.21009   0.21396
 Alpha virt. eigenvalues --    0.22317   0.23009   0.23131   0.23551   0.23828
 Alpha virt. eigenvalues --    0.23907   0.23947   0.25005   0.25471   0.25791
 Alpha virt. eigenvalues --    0.26508   0.26658   0.27151   0.27350   0.27727
 Alpha virt. eigenvalues --    0.28504   0.29048   0.29590   0.29873   0.29936
 Alpha virt. eigenvalues --    0.30334   0.30442   0.30895   0.32043   0.32802
 Alpha virt. eigenvalues --    0.33643   0.33829   0.34605   0.34955   0.35572
 Alpha virt. eigenvalues --    0.35612   0.36316   0.36544   0.37960   0.38177
 Alpha virt. eigenvalues --    0.38852   0.39387   0.40072   0.41056   0.41522
 Alpha virt. eigenvalues --    0.41862   0.42584   0.43171   0.43652   0.44390
 Alpha virt. eigenvalues --    0.44965   0.45868   0.46076   0.46236   0.46900
 Alpha virt. eigenvalues --    0.47469   0.47976   0.48832   0.49517   0.50139
 Alpha virt. eigenvalues --    0.50887   0.51678   0.52269   0.53075   0.54456
 Alpha virt. eigenvalues --    0.55326   0.56295   0.56832   0.57163   0.58057
 Alpha virt. eigenvalues --    0.59143   0.60247   0.60563   0.61068   0.62132
 Alpha virt. eigenvalues --    0.63360   0.64298   0.65573   0.66232   0.68500
 Alpha virt. eigenvalues --    0.68821   0.69684   0.70859   0.71487   0.73151
 Alpha virt. eigenvalues --    0.73963   0.74985   0.75957   0.76046   0.76971
 Alpha virt. eigenvalues --    0.78086   0.78295   0.79303   0.79987   0.80100
 Alpha virt. eigenvalues --    0.80641   0.81042   0.82612   0.84195   0.84543
 Alpha virt. eigenvalues --    0.85060   0.85764   0.87287   0.88065   0.89580
 Alpha virt. eigenvalues --    0.91737   0.92694   0.94241   0.95134   0.95656
 Alpha virt. eigenvalues --    1.02572   1.03653   1.04230   1.04623   1.07771
 Alpha virt. eigenvalues --    1.09023   1.09743   1.10280   1.11526   1.12278
 Alpha virt. eigenvalues --    1.13142   1.13664   1.14769   1.15467   1.17117
 Alpha virt. eigenvalues --    1.17296   1.18450   1.20294   1.21856   1.22670
 Alpha virt. eigenvalues --    1.22970   1.27653   1.28702   1.29073   1.30829
 Alpha virt. eigenvalues --    1.36371   1.38084   1.39578   1.39848   1.41361
 Alpha virt. eigenvalues --    1.41802   1.44542   1.45683   1.45989   1.48006
 Alpha virt. eigenvalues --    1.48039   1.51189   1.51474   1.52663   1.53442
 Alpha virt. eigenvalues --    1.54215   1.54785   1.58951   1.59161   1.60655
 Alpha virt. eigenvalues --    1.61449   1.63292   1.64472   1.66894   1.69919
 Alpha virt. eigenvalues --    1.70626   1.70945   1.72364   1.72728   1.72773
 Alpha virt. eigenvalues --    1.73557   1.77055   1.77884   1.78993   1.79569
 Alpha virt. eigenvalues --    1.80359   1.80897   1.82376   1.82450   1.83861
 Alpha virt. eigenvalues --    1.84322   1.85885   1.87465   1.89505   1.90222
 Alpha virt. eigenvalues --    1.94499   1.94981   1.95952   1.96819   1.97512
 Alpha virt. eigenvalues --    1.99868   2.00189   2.01401   2.02642   2.03326
 Alpha virt. eigenvalues --    2.05928   2.07624   2.10740   2.11541   2.12919
 Alpha virt. eigenvalues --    2.14863   2.15470   2.24781   2.26222   2.26396
 Alpha virt. eigenvalues --    2.27699   2.29016   2.30146   2.33373   2.35235
 Alpha virt. eigenvalues --    2.36328   2.36750   2.39055   2.43344   2.45580
 Alpha virt. eigenvalues --    2.47788   2.51966   2.54431   2.55696   2.56443
 Alpha virt. eigenvalues --    2.57517   2.58696   2.61264   2.61395   2.61705
 Alpha virt. eigenvalues --    2.62384   2.64627   2.65332   2.67034   2.68407
 Alpha virt. eigenvalues --    2.70069   2.70557   2.72353   2.74499   2.75450
 Alpha virt. eigenvalues --    2.76370   2.78647   2.80471   2.83937   2.88114
 Alpha virt. eigenvalues --    2.89892   2.91710   2.94799   2.98898   3.01502
 Alpha virt. eigenvalues --    3.01717   3.03504   3.04232   3.05858   3.08528
 Alpha virt. eigenvalues --    3.08990   3.11724   3.12879   3.13038   3.16891
 Alpha virt. eigenvalues --    3.17192   3.18024   3.20105   3.23101   3.25083
 Alpha virt. eigenvalues --    3.26099   3.30596   3.34266   3.37620   3.39496
 Alpha virt. eigenvalues --    3.40957   3.44061   3.44557   3.45513   3.49820
 Alpha virt. eigenvalues --    3.52315   3.55224   3.56690   3.66025   3.68326
 Alpha virt. eigenvalues --    3.72796   3.80159   3.81823   3.89968   3.92823
 Alpha virt. eigenvalues --    3.94426   3.94765   3.95601   3.96278   3.96972
 Alpha virt. eigenvalues --    3.97424   3.99056   4.08254   4.27537   4.30289
 Alpha virt. eigenvalues --    4.35215   4.40957   4.44925   4.46713   4.56403
 Alpha virt. eigenvalues --    4.91618   5.15826   5.19833   5.24995   5.29018
 Alpha virt. eigenvalues --    5.38059   5.41018   5.51561   5.59238   5.85776
 Alpha virt. eigenvalues --    5.96745   5.97355   6.11038  23.74302  23.87825
 Alpha virt. eigenvalues --   24.02275  24.04367  24.06744  24.10904  24.12199
 Alpha virt. eigenvalues --   24.12670  24.27385  24.41177  50.03473  50.16452
 Alpha virt. eigenvalues --   50.21439  50.27321
  Beta  occ. eigenvalues --  -19.01509 -19.01486 -18.90929 -18.90899 -10.11521
  Beta  occ. eigenvalues --  -10.11518 -10.08425 -10.08347 -10.06759 -10.06633
  Beta  occ. eigenvalues --  -10.02504 -10.02402 -10.01330 -10.01198  -0.93954
  Beta  occ. eigenvalues --   -0.92739  -0.84384  -0.84152  -0.67688  -0.65261
  Beta  occ. eigenvalues --   -0.61386  -0.58235  -0.57782  -0.52201  -0.47640
  Beta  occ. eigenvalues --   -0.43004  -0.42250  -0.40892  -0.37376  -0.36508
  Beta  occ. eigenvalues --   -0.34711  -0.34670  -0.32395  -0.31274  -0.29399
  Beta  occ. eigenvalues --   -0.27895  -0.26915  -0.25918  -0.25846  -0.24693
  Beta  occ. eigenvalues --   -0.24220  -0.21746  -0.21177  -0.21121  -0.19448
  Beta  occ. eigenvalues --   -0.18789  -0.17809  -0.17125  -0.08933  -0.08347
  Beta  occ. eigenvalues --   -0.07094  -0.06811
  Beta virt. eigenvalues --    0.07230   0.08657   0.09457   0.09472   0.11000
  Beta virt. eigenvalues --    0.11510   0.12085   0.12230   0.12635   0.13953
  Beta virt. eigenvalues --    0.14211   0.15259   0.15317   0.15654   0.16537
  Beta virt. eigenvalues --    0.18094   0.18288   0.19201   0.19292   0.19620
  Beta virt. eigenvalues --    0.20252   0.20585   0.20622   0.20881   0.21054
  Beta virt. eigenvalues --    0.21398   0.22384   0.23051   0.23143   0.23568
  Beta virt. eigenvalues --    0.23858   0.23947   0.24100   0.25063   0.25505
  Beta virt. eigenvalues --    0.25819   0.26539   0.26706   0.27200   0.27384
  Beta virt. eigenvalues --    0.27795   0.28715   0.29170   0.29625   0.29964
  Beta virt. eigenvalues --    0.30312   0.30409   0.30483   0.30909   0.32186
  Beta virt. eigenvalues --    0.32789   0.33710   0.33874   0.34718   0.35360
  Beta virt. eigenvalues --    0.35657   0.35750   0.36417   0.36999   0.38008
  Beta virt. eigenvalues --    0.38336   0.38997   0.39406   0.40133   0.41110
  Beta virt. eigenvalues --    0.41701   0.42082   0.42647   0.43266   0.43688
  Beta virt. eigenvalues --    0.44532   0.45130   0.45978   0.46190   0.46545
  Beta virt. eigenvalues --    0.47140   0.47560   0.48237   0.48949   0.49582
  Beta virt. eigenvalues --    0.50247   0.50962   0.51867   0.52419   0.53148
  Beta virt. eigenvalues --    0.54524   0.55375   0.56376   0.56867   0.57203
  Beta virt. eigenvalues --    0.58170   0.59266   0.60409   0.60658   0.61437
  Beta virt. eigenvalues --    0.62427   0.63472   0.64485   0.65678   0.66358
  Beta virt. eigenvalues --    0.68602   0.69321   0.69748   0.70935   0.71586
  Beta virt. eigenvalues --    0.73279   0.73973   0.75004   0.76128   0.76199
  Beta virt. eigenvalues --    0.77290   0.78193   0.78771   0.79410   0.80108
  Beta virt. eigenvalues --    0.80293   0.80962   0.81099   0.82699   0.84353
  Beta virt. eigenvalues --    0.85125   0.85190   0.85834   0.87525   0.88160
  Beta virt. eigenvalues --    0.89689   0.91800   0.93001   0.94290   0.95201
  Beta virt. eigenvalues --    0.95800   1.02865   1.03771   1.04398   1.04832
  Beta virt. eigenvalues --    1.07908   1.09157   1.09930   1.10498   1.11603
  Beta virt. eigenvalues --    1.12417   1.13247   1.14315   1.14989   1.15585
  Beta virt. eigenvalues --    1.17164   1.17373   1.18612   1.20479   1.22128
  Beta virt. eigenvalues --    1.22901   1.23524   1.27794   1.29149   1.29880
  Beta virt. eigenvalues --    1.32108   1.36527   1.38327   1.39884   1.40526
  Beta virt. eigenvalues --    1.42060   1.42234   1.44703   1.46085   1.46332
  Beta virt. eigenvalues --    1.48183   1.48245   1.51260   1.51790   1.52867
  Beta virt. eigenvalues --    1.54010   1.54361   1.54955   1.59102   1.59216
  Beta virt. eigenvalues --    1.60687   1.61496   1.63343   1.64567   1.66952
  Beta virt. eigenvalues --    1.70044   1.70805   1.70971   1.72440   1.72859
  Beta virt. eigenvalues --    1.72928   1.73734   1.77289   1.77980   1.79032
  Beta virt. eigenvalues --    1.79710   1.80560   1.80950   1.82504   1.83057
  Beta virt. eigenvalues --    1.83993   1.84489   1.85950   1.87558   1.89555
  Beta virt. eigenvalues --    1.90355   1.94696   1.95490   1.96310   1.97406
  Beta virt. eigenvalues --    1.97708   2.00158   2.00465   2.01595   2.02991
  Beta virt. eigenvalues --    2.03622   2.06266   2.08090   2.10958   2.11737
  Beta virt. eigenvalues --    2.12950   2.15116   2.15568   2.24893   2.26363
  Beta virt. eigenvalues --    2.26545   2.27738   2.29097   2.30550   2.33538
  Beta virt. eigenvalues --    2.35592   2.36462   2.36952   2.39259   2.43640
  Beta virt. eigenvalues --    2.45717   2.47917   2.52214   2.54765   2.55957
  Beta virt. eigenvalues --    2.56469   2.57569   2.58711   2.61289   2.61473
  Beta virt. eigenvalues --    2.61729   2.62417   2.64705   2.65489   2.67188
  Beta virt. eigenvalues --    2.68539   2.70152   2.70712   2.72382   2.74708
  Beta virt. eigenvalues --    2.75547   2.76905   2.78724   2.80504   2.84005
  Beta virt. eigenvalues --    2.88943   2.90687   2.91779   2.94890   2.99026
  Beta virt. eigenvalues --    3.01786   3.02667   3.03846   3.05452   3.06017
  Beta virt. eigenvalues --    3.09618   3.09842   3.12095   3.13816   3.14061
  Beta virt. eigenvalues --    3.17164   3.17428   3.18412   3.20633   3.23235
  Beta virt. eigenvalues --    3.25959   3.26485   3.30874   3.34286   3.37664
  Beta virt. eigenvalues --    3.39789   3.41252   3.44335   3.44767   3.45722
  Beta virt. eigenvalues --    3.49997   3.53865   3.56710   3.56758   3.66225
  Beta virt. eigenvalues --    3.68585   3.73307   3.80302   3.82070   3.90239
  Beta virt. eigenvalues --    3.92944   3.94724   3.94791   3.95654   3.96332
  Beta virt. eigenvalues --    3.96985   3.97595   3.99113   4.08476   4.27627
  Beta virt. eigenvalues --    4.30444   4.35461   4.41304   4.45252   4.46782
  Beta virt. eigenvalues --    4.56631   4.92161   5.16157   5.20598   5.27409
  Beta virt. eigenvalues --    5.30989   5.38381   5.41360   5.51804   5.59444
  Beta virt. eigenvalues --    5.86066   5.97115   5.97789   6.11126  23.74412
  Beta virt. eigenvalues --   23.87977  24.02453  24.04365  24.06829  24.11023
  Beta virt. eigenvalues --   24.12196  24.12679  24.27464  24.41327  50.03540
  Beta virt. eigenvalues --   50.16607  50.22035  50.27829
          Condensed to atoms (all electrons):
               1          2          3          4          5          6
     1  C   22.039756   4.037017  -4.068732   0.012953 -11.583677  -3.804328
     2  C    4.037017  22.321984  -7.841416  -3.724529  -5.424346  -3.610493
     3  C   -4.068732  -7.841416  23.776505   4.772948  -4.580781  -5.983567
     4  C    0.012953  -3.724529   4.772948  24.905217  -4.542447 -15.063072
     5  C  -11.583677  -5.424346  -4.580781  -4.542447  35.307616  -0.859277
     6  C   -3.804328  -3.610493  -5.983567 -15.063072  -0.859277  37.440507
     7  O    0.770681  -0.432097   0.058792  -0.099603   0.013461  -0.229366
     8  O   -0.078963   0.009927  -0.584197   0.957460  -0.253036  -0.004115
     9  O   -0.382091   0.158110  -0.116380  -0.020805  -0.045518   0.324706
    10  C   -0.057859  -0.257930   0.181540   0.043751   0.306399  -0.414115
    11  C   -0.573648   1.119827  -0.666973   0.277413  -0.215859  -2.072545
    12  C    0.687803  -0.770813   0.205696  -0.269620  -2.029206  -0.177150
    13  H    0.039252   0.015569  -0.010699  -0.041324  -0.128332   0.168711
    14  H   -0.094255  -0.050872   0.039576   0.062263   0.279807  -0.261956
    15  H    0.027664   0.027453  -0.023689  -0.040840  -0.128030   0.130550
    16  O   -0.016983  -0.115384   0.199582  -0.359067   0.294546  -0.075934
    17  C    0.028288   0.180499  -0.217713  -0.119138  -0.461376   0.406351
    18  H   -0.039150  -0.011595   0.014293   0.023283   0.161875  -0.111205
    19  H    0.048466   0.041391  -0.051717  -0.124622  -0.244284   0.307150
    20  H   -0.025191  -0.027565   0.025262   0.047578   0.093784  -0.119649
    21  H    0.188311  -0.195034   0.006564  -0.012110   0.008740   0.094642
    22  H   -0.079604  -0.145822   0.057968   0.004352   0.041193  -0.010507
    23  H   -0.048383  -0.123811   0.016327   0.003926   0.026692   0.018709
    24  H   -0.024678   0.121323  -0.205325   0.015052  -0.038154  -0.027082
    25  H    0.005257  -0.045611   0.052916   0.029446  -0.020851  -0.010717
    26  H   -0.003203  -0.051411   0.080875   0.026882  -0.006840  -0.012397
               7          8          9         10         11         12
     1  C    0.770681  -0.078963  -0.382091  -0.057859  -0.573648   0.687803
     2  C   -0.432097   0.009927   0.158110  -0.257930   1.119827  -0.770813
     3  C    0.058792  -0.584197  -0.116380   0.181540  -0.666973   0.205696
     4  C   -0.099603   0.957460  -0.020805   0.043751   0.277413  -0.269620
     5  C    0.013461  -0.253036  -0.045518   0.306399  -0.215859  -2.029206
     6  C   -0.229366  -0.004115   0.324706  -0.414115  -2.072545  -0.177150
     7  O    8.256625   0.000430   0.044481  -0.000292  -0.028755  -0.004205
     8  O    0.000430   8.213398   0.000503   0.003065  -0.003544   0.075218
     9  O    0.044481   0.000503   8.229638   0.247050   0.029176  -0.010220
    10  C   -0.000292   0.003065   0.247050   5.231836  -0.034818   0.023973
    11  C   -0.028755  -0.003544   0.029176  -0.034818   8.794540  -1.382912
    12  C   -0.004205   0.075218  -0.010220   0.023973  -1.382912   9.021491
    13  H   -0.001569   0.000309  -0.097982   0.376122  -0.001154  -0.000154
    14  H   -0.001185   0.000109  -0.056938   0.447917  -0.004712   0.002956
    15  H    0.000394   0.000016  -0.046704   0.356460   0.003387  -0.002998
    16  O    0.000287   0.047043  -0.008529  -0.021282  -0.009583   0.019621
    17  C    0.002909  -0.000342  -0.019505  -0.217948   0.016359  -0.037987
    18  H    0.000290  -0.001809  -0.000828   0.005868  -0.000681  -0.001718
    19  H    0.000152  -0.001057  -0.009150  -0.038451   0.003057  -0.006193
    20  H   -0.000063   0.000290  -0.000710   0.024541  -0.002518   0.004687
    21  H    0.010693  -0.000904  -0.003347  -0.001605   0.251713   0.018813
    22  H    0.008881   0.000706   0.000232  -0.000917   0.503761  -0.059647
    23  H    0.008630   0.001024   0.000729   0.000448   0.437036  -0.016486
    24  H   -0.004599   0.007917   0.000446   0.000123  -0.003315   0.496555
    25  H    0.000502  -0.008194  -0.000230   0.000042  -0.007486   0.346201
    26  H    0.000554  -0.009024  -0.000415  -0.000255   0.005900   0.308099
              13         14         15         16         17         18
     1  C    0.039252  -0.094255   0.027664  -0.016983   0.028288  -0.039150
     2  C    0.015569  -0.050872   0.027453  -0.115384   0.180499  -0.011595
     3  C   -0.010699   0.039576  -0.023689   0.199582  -0.217713   0.014293
     4  C   -0.041324   0.062263  -0.040840  -0.359067  -0.119138   0.023283
     5  C   -0.128332   0.279807  -0.128030   0.294546  -0.461376   0.161875
     6  C    0.168711  -0.261956   0.130550  -0.075934   0.406351  -0.111205
     7  O   -0.001569  -0.001185   0.000394   0.000287   0.002909   0.000290
     8  O    0.000309   0.000109   0.000016   0.047043  -0.000342  -0.001809
     9  O   -0.097982  -0.056938  -0.046704  -0.008529  -0.019505  -0.000828
    10  C    0.376122   0.447917   0.356460  -0.021282  -0.217948   0.005868
    11  C   -0.001154  -0.004712   0.003387  -0.009583   0.016359  -0.000681
    12  C   -0.000154   0.002956  -0.002998   0.019621  -0.037987  -0.001718
    13  H    0.576458  -0.030940  -0.035563  -0.000897   0.006007  -0.000779
    14  H   -0.030940   0.722313  -0.103331  -0.008731  -0.039966   0.000071
    15  H   -0.035563  -0.103331   0.693762  -0.000578   0.023095   0.005784
    16  O   -0.000897  -0.008731  -0.000578   8.225845   0.241540  -0.093752
    17  C    0.006007  -0.039966   0.023095   0.241540   5.227195   0.379303
    18  H   -0.000779   0.000071   0.005784  -0.093752   0.379303   0.574295
    19  H    0.000443  -0.012266   0.009677  -0.058314   0.445203  -0.030552
    20  H    0.005457   0.009117  -0.006438  -0.045364   0.353440  -0.035582
    21  H   -0.000423  -0.000068   0.000029   0.000737   0.000321   0.000023
    22  H   -0.000013  -0.000187   0.000256  -0.000292   0.000593   0.000025
    23  H    0.000095   0.000142  -0.000105  -0.000453  -0.000312  -0.000011
    24  H   -0.000003   0.000022  -0.000034  -0.000042  -0.000614  -0.000128
    25  H    0.000002  -0.000126   0.000237   0.000766  -0.000111   0.000047
    26  H   -0.000032   0.000208  -0.000192   0.001078   0.000669   0.000110
              19         20         21         22         23         24
     1  C    0.048466  -0.025191   0.188311  -0.079604  -0.048383  -0.024678
     2  C    0.041391  -0.027565  -0.195034  -0.145822  -0.123811   0.121323
     3  C   -0.051717   0.025262   0.006564   0.057968   0.016327  -0.205325
     4  C   -0.124622   0.047578  -0.012110   0.004352   0.003926   0.015052
     5  C   -0.244284   0.093784   0.008740   0.041193   0.026692  -0.038154
     6  C    0.307150  -0.119649   0.094642  -0.010507   0.018709  -0.027082
     7  O    0.000152  -0.000063   0.010693   0.008881   0.008630  -0.004599
     8  O   -0.001057   0.000290  -0.000904   0.000706   0.001024   0.007917
     9  O   -0.009150  -0.000710  -0.003347   0.000232   0.000729   0.000446
    10  C   -0.038451   0.024541  -0.001605  -0.000917   0.000448   0.000123
    11  C    0.003057  -0.002518   0.251713   0.503761   0.437036  -0.003315
    12  C   -0.006193   0.004687   0.018813  -0.059647  -0.016486   0.496555
    13  H    0.000443   0.005457  -0.000423  -0.000013   0.000095  -0.000003
    14  H   -0.012266   0.009117  -0.000068  -0.000187   0.000142   0.000022
    15  H    0.009677  -0.006438   0.000029   0.000256  -0.000105  -0.000034
    16  O   -0.058314  -0.045364   0.000737  -0.000292  -0.000453  -0.000042
    17  C    0.445203   0.353440   0.000321   0.000593  -0.000312  -0.000614
    18  H   -0.030552  -0.035582   0.000023   0.000025  -0.000011  -0.000128
    19  H    0.726427  -0.105535   0.000013   0.000165  -0.000108  -0.000048
    20  H   -0.105535   0.695165  -0.000057  -0.000173   0.000175   0.000103
    21  H    0.000013  -0.000057   0.485485  -0.018407  -0.021911  -0.000598
    22  H    0.000165  -0.000173  -0.018407   0.670972  -0.081725  -0.006660
    23  H   -0.000108   0.000175  -0.021911  -0.081725   0.667627  -0.005654
    24  H   -0.000048   0.000103  -0.000598  -0.006660  -0.005654   0.632982
    25  H   -0.000398   0.000388   0.000735  -0.000979   0.000197  -0.041723
    26  H    0.000336  -0.000545   0.001108   0.000434  -0.000821  -0.044259
              25         26
     1  C    0.005257  -0.003203
     2  C   -0.045611  -0.051411
     3  C    0.052916   0.080875
     4  C    0.029446   0.026882
     5  C   -0.020851  -0.006840
     6  C   -0.010717  -0.012397
     7  O    0.000502   0.000554
     8  O   -0.008194  -0.009024
     9  O   -0.000230  -0.000415
    10  C    0.000042  -0.000255
    11  C   -0.007486   0.005900
    12  C    0.346201   0.308099
    13  H    0.000002  -0.000032
    14  H   -0.000126   0.000208
    15  H    0.000237  -0.000192
    16  O    0.000766   0.001078
    17  C   -0.000111   0.000669
    18  H    0.000047   0.000110
    19  H   -0.000398   0.000336
    20  H    0.000388  -0.000545
    21  H    0.000735   0.001108
    22  H   -0.000979   0.000434
    23  H    0.000197  -0.000821
    24  H   -0.041723  -0.044259
    25  H    0.613722  -0.058894
    26  H   -0.058894   0.615846
          Atomic-Atomic Spin Densities.
               1          2          3          4          5          6
     1  C   -0.169546   0.004272   0.062071  -0.000639   0.148437   0.098612
     2  C    0.004272   0.063013  -0.254202   0.058822   0.036643   0.297434
     3  C    0.062071  -0.254202   0.039331   0.017310   0.279273  -0.005304
     4  C   -0.000639   0.058822   0.017310  -0.165164   0.100428   0.139321
     5  C    0.148437   0.036643   0.279273   0.100428  -0.311851  -0.205267
     6  C    0.098612   0.297434  -0.005304   0.139321  -0.205267  -0.276434
     7  O   -0.057492  -0.084326   0.019436  -0.004467   0.006405   0.007910
     8  O   -0.005383   0.021434  -0.059965  -0.079846   0.001479   0.011048
     9  O   -0.001251  -0.013564   0.005503  -0.005390   0.006782  -0.009845
    10  C    0.009986   0.004942  -0.005034  -0.008232  -0.015503   0.012443
    11  C    0.011889  -0.099261   0.074168   0.001440   0.006511   0.021480
    12  C   -0.001147   0.074260  -0.047112   0.012836   0.022557   0.004002
    13  H   -0.001407  -0.000053   0.000011   0.000312   0.000290   0.001357
    14  H   -0.000149   0.001445  -0.000832   0.001197  -0.002456   0.001333
    15  H   -0.000335   0.000799  -0.001277  -0.000414  -0.006770   0.008766
    16  O   -0.005915   0.003649  -0.009559  -0.004369  -0.011766   0.009863
    17  C   -0.006764  -0.005813   0.005558   0.013160   0.012031  -0.018447
    18  H    0.000555  -0.000058  -0.000249  -0.001250   0.000716   0.000762
    19  H   -0.000272  -0.001644   0.002144   0.002365   0.008015  -0.009719
    20  H    0.001642  -0.000559  -0.000008  -0.003468   0.000807   0.001810
    21  H   -0.004253   0.001794   0.002506   0.001780   0.000699  -0.002976
    22  H   -0.001340  -0.017005   0.014753  -0.001824   0.000764  -0.002512
    23  H    0.004241  -0.020637   0.008695  -0.001339   0.000271  -0.001736
    24  H    0.001637  -0.001601   0.005635  -0.003690  -0.001756   0.000331
    25  H   -0.000242   0.016358  -0.036638   0.004137   0.004207   0.002899
    26  H   -0.002923   0.012501  -0.018124   0.001508  -0.008478   0.000681
               7          8          9         10         11         12
     1  C   -0.057492  -0.005383  -0.001251   0.009986   0.011889  -0.001147
     2  C   -0.084326   0.021434  -0.013564   0.004942  -0.099261   0.074260
     3  C    0.019436  -0.059965   0.005503  -0.005034   0.074168  -0.047112
     4  C   -0.004467  -0.079846  -0.005390  -0.008232   0.001440   0.012836
     5  C    0.006405   0.001479   0.006782  -0.015503   0.006511   0.022557
     6  C    0.007910   0.011048  -0.009845   0.012443   0.021480   0.004002
     7  O    0.346260  -0.000214   0.002502   0.001245   0.000225   0.001027
     8  O   -0.000214   0.330719  -0.000112  -0.000183  -0.000288  -0.004053
     9  O    0.002502  -0.000112   0.019202   0.000710   0.000010   0.000207
    10  C    0.001245  -0.000183   0.000710  -0.004407   0.000790  -0.000657
    11  C    0.000225  -0.000288   0.000010   0.000790  -0.058056   0.018292
    12  C    0.001027  -0.004053   0.000207  -0.000657   0.018292  -0.084862
    13  H   -0.000149  -0.000000  -0.000416  -0.000235   0.000040  -0.000034
    14  H   -0.000339   0.000082  -0.002336   0.001448  -0.000018  -0.000071
    15  H   -0.000466   0.000156  -0.001157  -0.003419  -0.000025   0.000097
    16  O   -0.000124   0.002459  -0.000784   0.000525  -0.000242   0.000523
    17  C   -0.000236   0.000860   0.000425   0.003176  -0.000736   0.001149
    18  H    0.000001  -0.000166   0.000119   0.000259  -0.000028   0.000112
    19  H    0.000087  -0.000332   0.000858   0.002661  -0.000093   0.000083
    20  H    0.000166  -0.000458   0.001229  -0.001020   0.000141  -0.000057
    21  H   -0.003890   0.000009  -0.000031   0.000007   0.003746  -0.000280
    22  H    0.001365  -0.000205   0.000038   0.000072   0.005631  -0.001757
    23  H    0.001467  -0.000239   0.000056  -0.000025   0.007755   0.000119
    24  H    0.000069  -0.000332   0.000003   0.000001  -0.000061   0.000814
    25  H   -0.000245   0.004360  -0.000038  -0.000199   0.001208  -0.000851
    26  H   -0.000289   0.004834  -0.000057   0.000146  -0.004868   0.009373
              13         14         15         16         17         18
     1  C   -0.001407  -0.000149  -0.000335  -0.005915  -0.006764   0.000555
     2  C   -0.000053   0.001445   0.000799   0.003649  -0.005813  -0.000058
     3  C    0.000011  -0.000832  -0.001277  -0.009559   0.005558  -0.000249
     4  C    0.000312   0.001197  -0.000414  -0.004369   0.013160  -0.001250
     5  C    0.000290  -0.002456  -0.006770  -0.011766   0.012031   0.000716
     6  C    0.001357   0.001333   0.008766   0.009863  -0.018447   0.000762
     7  O   -0.000149  -0.000339  -0.000466  -0.000124  -0.000236   0.000001
     8  O   -0.000000   0.000082   0.000156   0.002459   0.000860  -0.000166
     9  O   -0.000416  -0.002336  -0.001157  -0.000784   0.000425   0.000119
    10  C   -0.000235   0.001448  -0.003419   0.000525   0.003176   0.000259
    11  C    0.000040  -0.000018  -0.000025  -0.000242  -0.000736  -0.000028
    12  C   -0.000034  -0.000071   0.000097   0.000523   0.001149   0.000112
    13  H   -0.000581   0.000035   0.000061   0.000123   0.000344   0.000047
    14  H    0.000035   0.005414  -0.004285   0.000775   0.001568  -0.000289
    15  H    0.000061  -0.004285   0.009103   0.001281   0.000151   0.000314
    16  O    0.000123   0.000775   0.001281   0.019245   0.000409  -0.000437
    17  C    0.000344   0.001568   0.000151   0.000409  -0.005051  -0.000339
    18  H    0.000047  -0.000289   0.000314  -0.000437  -0.000339  -0.000440
    19  H   -0.000111   0.004374  -0.006989  -0.002541   0.000262  -0.000386
    20  H    0.000110  -0.006915   0.005189  -0.001012  -0.002200   0.000574
    21  H    0.000018   0.000018  -0.000019  -0.000033  -0.000012  -0.000002
    22  H   -0.000005   0.000058  -0.000105  -0.000035   0.000004  -0.000003
    23  H    0.000004  -0.000078   0.000085  -0.000012  -0.000029   0.000003
    24  H   -0.000002   0.000002  -0.000002   0.000013  -0.000005   0.000002
    25  H   -0.000003  -0.000092   0.000178   0.000249   0.000163   0.000056
    26  H    0.000004   0.000117  -0.000141   0.000190  -0.000007  -0.000063
              19         20         21         22         23         24
     1  C   -0.000272   0.001642  -0.004253  -0.001340   0.004241   0.001637
     2  C   -0.001644  -0.000559   0.001794  -0.017005  -0.020637  -0.001601
     3  C    0.002144  -0.000008   0.002506   0.014753   0.008695   0.005635
     4  C    0.002365  -0.003468   0.001780  -0.001824  -0.001339  -0.003690
     5  C    0.008015   0.000807   0.000699   0.000764   0.000271  -0.001756
[...]
 28,-0.00006835,-0.00007031,0.00070733,0.00147267,0.00091463,-0.0001400
 7,0.00011302,-0.00006980,-0.00001809,0.00001209,0.00003874,0.00001747,
 0.00001360,0.00001065,-0.00000383,-0.00002327,-0.00001752,-0.00000152,
 0.00000922,-0.00000575,-0.00002197,-0.00001070,-0.00000038,-0.00000536
 ,-0.00001129,-0.00001653,0.00468647,-0.02805367,0.00018121,-0.07619800
 ,0.08469549,-0.01282415,-0.00532088,0.02747966,-0.00734766,0.07763589,
 0.00016337,0.00043099,0.00025116,-0.00021288,-0.00014233,0.00008764,0.
 00024166,0.00029778,0.00005450,-0.00043082,-0.00072842,0.00034973,-0.0
 0413936,0.00130186,-0.00234166,0.00145832,-0.00087090,-0.00099596,-0.0
 0032360,-0.00045076,0.00015075,0.00036112,0.00037264,-0.00047728,-0.00
 093734,0.00022904,0.00021848,0.00037599,0.00009276,0.00016122,0.000009
 87,0.00004011,-0.00003324,-0.00004283,-0.00004465,0.00002719,-0.000003
 40,-0.00003827,-0.00002361,-0.00011658,0.00001717,0.00003814,-0.000016
 86,-0.00000255,-0.00010779,-0.00009061,-0.02726598,-0.00256378,0.07554
 428,-0.26843772,0.03976432,0.00224797,-0.00221441,0.00154000,-0.077425
 35,0.30309939,-0.00017752,0.00012372,0.00022844,-0.00002429,-0.0000270
 6,-0.00004881,0.00020102,-0.00000287,0.00009298,0.00010516,-0.00022358
 ,0.00003205,-0.00212405,-0.00119133,-0.00044990,0.00047741,-0.00093850
 ,-0.00023658,-0.00001861,-0.00016342,0.00002314,0.00003047,-0.00011917
 ,-0.00048842,-0.00017331,0.00002226,-0.00000020,0.00001319,0.00004151,
 0.00005669,0.00000143,0.00000311,-0.00000605,-0.00001206,-0.00003148,-
 0.00001208,0.00000834,-0.00000462,-0.00000348,-0.00000711,0.00000424,-
 0.00001296,-0.00000511,0.00000292,-0.00001273,0.00250441,-0.02458906,0
 .00047242,-0.01276530,0.04697627,-0.05689012,0.00306187,-0.01012149,0.
 00293846,0.01898358,-0.03835688,0.05729084,-0.00011429,0.00023212,-0.0
 0007833,-0.00008985,-0.00009365,0.00000858,0.00018279,0.00045346,-0.00
 017162,-0.00038555,-0.00121970,0.00047381,0.00012855,0.00429854,-0.000
 03077,0.00052780,-0.00042781,0.00004581,0.00000617,-0.00004008,0.00000
 767,0.00024632,0.00159216,0.00028243,-0.00044069,0.00028191,0.00036208
 ,-0.00002680,0.00011763,-0.00010698,0.00001981,0.00002978,0.00001181,0
 .00000025,-0.00002428,0.00000373,0.00004535,0.00000879,0.00002922,-0.0
 0003948,-0.00000440,0.00000697,0.00000095,-0.00001691,0.00000842,-0.00
 311539,-0.00399788,-0.02889283,-0.05350032,-0.00649528,0.03181675,0.00
 067049,-0.00913784,0.02805183,0.00146931,0.00322994,-0.01010777,0.0543
 5818,0.00006591,-0.00004093,0.00005285,-0.00001407,0.00001548,-0.00010
 887,0.00018486,-0.00007649,-0.00005137,0.00026292,-0.00039063,0.000441
 37,0.00064463,0.00506873,-0.00272193,-0.00044167,0.00021265,0.00082891
 ,0.00004368,0.00007774,-0.00003687,-0.00007835,-0.00012007,-0.00007048
 ,-0.00013284,-0.00012725,-0.00011137,-0.00006683,0.00005690,-0.0000692
 1,0.00000270,-0.00000156,0.00002368,-0.00000539,-0.00004533,-0.0000017
 1,0.00000195,0.00000182,0.00001119,0.00002387,-0.00000234,-0.00000857,
 -0.00000686,-0.00000179,0.00002356,-0.00545610,-0.00129751,-0.02642314
 ,-0.00357486,-0.06680773,0.06282167,0.00131004,0.00274494,-0.00460827,
 -0.00402717,-0.00550800,0.02862784,0.01125750,0.06622830,-0.00019937,0
 .00061968,-0.00015613,-0.00006028,-0.00020731,0.00003883,0.00025393,0.
 00013223,0.00012325,0.00046568,-0.00079790,-0.00021220,-0.00070045,0.0
 0573678,0.00120669,0.00057091,-0.00176308,-0.00038296,-0.00021086,-0.0
 0041854,0.00024156,0.00011697,-0.00027703,-0.00020063,-0.00059414,0.00
 007008,0.00058578,0.00016117,0.00018034,-0.00003168,-0.00000753,0.0000
 3797,-0.00003700,-0.00003694,-0.00005182,0.00000882,0.00004113,-0.0000
 2744,0.00002522,-0.00009713,0.00001967,0.00002117,0.00002595,0.0000030
 8,0.00000722,-0.01164980,-0.01089530,-0.02284631,0.03013071,0.05937016
 ,-0.26938183,0.00191105,0.00476014,-0.00880949,0.00148530,0.00229839,-
 0.00296095,-0.02169748,-0.05861841,0.30278723,-0.00138211,0.00144169,0
 .00102809,0.00493550,-0.00154121,-0.00294942,-0.00019063,0.00103837,0.
 00039700,0.00041953,0.00032149,0.00002916,0.00007971,0.00023582,-0.000
 09494,-0.00014865,-0.00072024,0.00025058,-0.00181935,0.00216636,-0.000
 10246,-0.00024196,-0.00018488,0.00006445,0.00014336,-0.00006091,-0.000
 05698,-0.00005112,0.00006695,-0.00002711,-0.21875657,-0.09457341,0.086
 74999,-0.00027978,-0.00008850,-0.00015652,-0.00003170,0.00000978,0.000
 00115,0.00003095,-0.00002796,-0.00001058,0.00000183,-0.00002621,0.0000
 2651,-0.00006836,-0.00029434,-0.00001024,0.00005913,0.00007599,0.00007
 827,-0.00001776,0.00001475,0.00000443,0.00000327,-0.00003085,-0.000004
 38,-0.00000261,0.00000400,-0.00003075,0.23666361,-0.00311526,-0.003012
 08,0.00177119,-0.02794694,-0.01530607,0.01417991,0.00272654,-0.0060147
 8,-0.00091371,-0.00162214,0.00048177,0.00077823,-0.00005111,-0.0002303
 7,0.00003810,-0.00018295,0.00059496,0.00012105,0.00092056,0.00358743,-
 0.00074871,0.00015496,-0.00088381,-0.00001731,0.00019266,0.00015567,-0
 .00017793,-0.00006130,-0.00007827,0.00001722,-0.09001555,-0.09384900,0
 .04581259,0.00076577,-0.00022271,-0.00040044,0.00007618,-0.00000664,0.
 00002874,0.00000543,0.00002570,0.00000689,0.00000284,0.00003453,-0.000
 00879,0.00013564,0.00006530,-0.00005832,-0.00003169,-0.00002541,-0.000
 00547,0.00001834,0.00000603,0.00000601,0.00000418,-0.00000270,0.000001
 20,0.00000597,-0.00000053,-0.00000393,0.10128708,0.10650903,0.00116423
 ,-0.00055325,0.00011868,-0.00147875,0.00164938,-0.00075095,0.00032897,
 -0.00013984,0.00063650,0.00013830,-0.00014919,0.00049089,-0.00006861,-
 0.00010736,0.00000065,0.00023951,0.00034346,0.00008106,0.00003565,-0.0
 0128503,-0.00156609,0.00004447,0.00012622,-0.00016677,-0.00013492,0.00
 001163,0.00001519,0.00005188,0.00000040,0.00003623,0.08664920,0.047984
 07,-0.09338827,-0.00020144,0.00002921,-0.00051097,0.00001066,0.0000063
 0,0.00002136,-0.00001489,0.00000927,-0.00000131,-0.00000777,0.00002775
 ,-0.00002454,0.00001155,0.00015183,-0.00002238,-0.00002943,-0.00004397
 ,-0.00002782,0.00000812,-0.00000472,-0.00000301,-0.00000058,0.00001437
 ,0.00000067,0.00000074,-0.00000351,0.00001069,-0.09591612,-0.05208286,
 0.09768849,-0.00030473,0.00025233,0.00033667,-0.00157822,0.00354133,0.
 00342813,-0.00071416,-0.00132403,0.00060648,-0.00023529,0.00026928,0.0
 0029506,0.00005705,-0.00018977,-0.00001998,-0.00007553,0.00006227,0.00
 012155,-0.00057550,0.00121114,-0.00057896,0.00010205,0.00011850,-0.000
 09455,-0.00019751,0.00019650,0.00001332,0.00008593,0.00001785,0.000074
 51,-0.04693835,0.00735034,0.02830474,0.00067754,-0.00083050,-0.0009304
 8,0.00002062,-0.00001430,0.00001946,-0.00001844,0.00000907,-0.00000398
 ,-0.00000776,0.00002139,-0.00002900,-0.00000870,0.00017572,-0.00004530
 ,-0.00004050,-0.00005238,-0.00003272,0.00000791,-0.00000296,-0.0000008
 7,-0.00000166,0.00001034,0.00000126,0.00000326,-0.00000179,0.00001315,
 -0.00045671,0.01010233,0.02409346,0.04777326,-0.00240004,-0.00504476,0
 .00103589,0.00465405,-0.01498448,-0.02853879,0.00200480,0.00079508,-0.
 00002333,0.00093739,-0.00000202,0.00106380,-0.00041450,0.00020117,-0.0
 0019348,0.00084156,0.00069521,0.00066846,0.00017638,0.00201086,-0.0010
 8967,-0.00027185,0.00002193,-0.00003596,0.00059607,-0.00045318,-0.0001
 3999,-0.00032718,-0.00008344,-0.00014485,0.00847015,-0.07137135,-0.080
 27148,-0.00046690,0.00005084,-0.00155312,0.00000014,0.00005904,0.00001
 034,0.00005748,-0.00000461,-0.00000284,0.00002260,-0.00001203,0.000052
 52,-0.00008276,-0.00060406,0.00004521,0.00016566,0.00012264,0.00008309
 ,-0.00001427,0.00001504,0.00000025,0.00000388,-0.00007057,-0.00000926,
 -0.00001122,0.00001131,-0.00005561,0.00080183,0.00461885,0.01314274,-0
 .01235240,0.08129752,-0.00087138,0.00002294,-0.00041878,0.00048974,-0.
 00221446,0.00419888,0.00251608,0.00061541,0.00016936,0.00010217,-0.000
 09910,-0.00053017,-0.00026939,0.00030406,-0.00006944,-0.00018021,0.000
 17619,-0.00007547,0.00043309,-0.00049101,0.00020562,-0.00037358,-0.000
 23015,0.00027725,0.00028826,-0.00013258,0.00000023,-0.00016170,-0.0000
 2737,-0.00008504,0.02728450,-0.07742576,-0.25960768,-0.00003949,0.0012
 7022,0.00044779,-0.00001982,0.00003032,-0.00001082,0.00003496,-0.00001
 468,-0.00001076,0.00001042,-0.00001957,0.00003977,-0.00001552,-0.00040
 770,0.00009356,0.00010315,0.00011242,0.00005606,-0.00001569,0.00001193
 ,0.,0.00000638,-0.00004179,-0.00000127,-0.00001155,0.00000811,-0.00002
 831,0.00010327,-0.00353787,-0.01160665,-0.03017678,0.08752621,0.284961
 02,0.00010697,0.00043882,-0.00087768,-0.00130974,0.00469749,0.00074951
 ,-0.00168546,-0.00126004,0.00191694,-0.00063059,0.00023416,-0.00014000
 ,0.00022058,-0.00036472,-0.00016051,-0.00007200,-0.00021561,-0.0000316
 6,-0.00009588,0.00093769,0.00074688,0.00042814,0.00024913,-0.00016335,
 -0.00028296,0.00027781,0.00008798,0.00014258,0.00001077,0.00005680,-0.
 20800594,0.04932915,-0.10549684,0.00104958,-0.00144212,0.00024864,0.00
 003896,-0.00004507,-0.00000831,-0.00003921,0.00002633,0.00001638,-0.00
 000599,0.00000656,-0.00002643,0.00008337,0.00046639,0.00007699,-0.0001
 4040,-0.00012366,-0.00010263,0.00003118,-0.00001255,-0.00001034,0.0000
 0348,0.00004574,0.00001084,0.00000891,-0.00000033,0.00004816,-0.019189
 79,0.00665314,-0.01517425,0.00238977,-0.00159253,0.00139288,0.22676739
 ,-0.00206036,-0.00507518,0.00187848,0.02602874,-0.01245517,0.01585956,
 0.00119731,0.00081377,-0.00154262,-0.00022326,-0.00031519,-0.00129132,
 -0.00023414,0.00022712,0.00024580,-0.00009847,0.00071454,-0.00117931,0
 .00099722,0.00212705,0.00023811,-0.00010461,0.00009086,0.00021345,0.00
 054253,-0.00050165,-0.00016980,-0.00025842,-0.00005683,-0.00011127,0.0
 5232905,-0.05877439,0.03528566,0.00088320,0.00010468,0.00131051,0.0000
 1023,0.00004661,0.00001651,0.00004941,-0.00001602,-0.00000506,0.000019
 58,-0.00000279,0.00003740,-0.00004856,-0.00063251,0.00006086,0.0001862
 6,0.00016053,0.00011246,-0.00003125,0.00000737,0.00000943,-0.00000309,
 -0.00005235,-0.00001084,-0.00001358,0.00000311,-0.00006298,-0.00995296
 ,0.00321333,-0.00912845,-0.00893936,0.00243079,-0.00504259,-0.05882746
 ,0.06769345,0.00071256,0.00024593,-0.00079621,0.00239290,0.00034180,0.
 00128332,-0.00031917,0.00063841,0.00124355,-0.00003028,-0.00011944,-0.
 00005113,0.00011900,-0.00009471,-0.00011242,0.00015677,-0.00025837,0.0
 0001829,-0.00031930,-0.00085151,-0.00026073,0.00019847,0.00004947,-0.0
 0008671,-0.00005173,-0.00002944,0.00004027,0.00003764,-0.00000031,0.00
 000658,-0.10474684,0.03435114,-0.11066152,-0.00074590,-0.00015854,-0.0
 0000970,-0.00000233,-0.00000156,-0.00001197,-0.00001074,0.00000801,0.0
 0000897,-0.00000120,-0.00000656,-0.00000556,0.00002754,0.00021353,-0.0
 0002730,-0.00006620,-0.00005594,-0.00002374,0.00000969,-0.00000537,-0.
 00000270,-0.00000267,0.00002135,0.00000088,0.00000652,-0.00000080,0.00
 001933,0.01038012,-0.00483640,0.00829167,-0.02578846,0.00710841,-0.017
 96875,0.11743952,-0.03649169,0.11915107,-0.00068013,0.00011618,-0.0011
 1758,0.00043560,0.00035683,-0.00038358,0.00399093,0.01797892,0.0227122
 5,-0.00415464,-0.00076988,0.00219283,0.00013911,0.00020012,-0.00114880
 ,0.00004089,-0.00014964,0.00007553,0.00023420,0.00001372,0.00005939,0.
 00219603,0.00002496,-0.00016605,-0.00028805,0.00005379,0.00019015,0.00
 012598,0.00004565,0.00004607,0.00025968,0.00053799,0.00155555,-0.05250
 300,-0.03037486,-0.03670188,-0.00000345,-0.00001434,-0.00000040,-0.000
 02436,0.00000635,0.00000350,-0.00000918,0.00000532,-0.00003301,-0.0002
 1450,0.00046221,0.00012958,-0.00012387,-0.00011183,-0.00009625,0.00003
 284,0.00001071,0.00000447,0.00000841,0.00002369,0.00001146,0.00000971,
 0.00000568,0.00002471,-0.00009320,0.00015601,-0.00013288,0.00003012,-0
 .00057506,-0.00033678,-0.00011334,-0.00047928,-0.00031677,0.05905281,0
 .00017494,-0.00061008,-0.00005358,-0.00158514,-0.00172568,0.00161201,0
 .00235700,-0.00822071,-0.00833543,0.00130154,0.00027243,-0.00136186,-0
 .00021491,-0.00011374,0.00031358,-0.00027973,0.00033964,0.00003672,0.0
 0024115,0.00031813,-0.00012950,0.00065194,-0.00061485,0.00034314,0.000
 49245,-0.00008183,-0.00010619,-0.00020043,-0.00005873,-0.00009091,-0.0
 0080466,0.00124078,0.00062726,-0.03308597,-0.13345322,-0.11540569,-0.0
 0000106,0.00003570,0.00000301,0.00004654,-0.00001191,-0.00000489,0.000
 01609,-0.00001084,0.00004913,0.00024024,-0.00047147,-0.00014350,0.0001
 0686,0.00012656,0.00010660,-0.00003611,0.00004557,0.00002113,0.0000096
 6,-0.00005012,-0.00000918,-0.00000373,0.00000023,-0.00003374,0.0000520
 8,0.00009818,0.00006196,0.00013073,0.00014841,-0.00043289,0.00018528,0
 .00010902,-0.00010821,0.03120760,0.14549375,0.00012241,-0.00025761,0.0
 0029478,0.00009269,-0.00181956,0.00165925,0.00146970,-0.00682832,-0.00
 820443,0.00205076,0.00130608,-0.00188657,-0.00031948,0.00011855,0.0006
 3588,-0.00020514,0.00037464,-0.00004616,0.00013444,0.00034639,-0.00011
 932,-0.00143678,-0.00022454,0.00018580,0.00050211,-0.00007116,-0.00020
 558,-0.00020830,-0.00007789,-0.00007074,-0.00087740,-0.00035665,-0.000
 35851,-0.03843994,-0.11519623,-0.19155144,-0.00000165,0.00003105,0.000
 00369,0.00004670,-0.00001585,-0.00001169,0.00001673,-0.00000718,0.0000
 5124,0.00012218,-0.00038760,-0.00005925,0.00009673,0.00011953,0.000089
 38,-0.00003039,0.00001841,-0.00000475,0.00000777,-0.00004409,-0.000004
 56,-0.00001308,0.00000132,-0.00002419,0.00002970,0.00017728,0.00035198
 ,0.00061143,0.00080174,0.00026862,-0.00025435,0.00007991,-0.00044179,0
 .04122615,0.12971785,0.20911799,0.00021373,-0.00156664,0.00022742,-0.0
 0375841,0.00366897,0.00203690,-0.01791551,-0.02179792,0.00914413,-0.00
 263317,-0.00280309,0.00184650,0.00032530,-0.00031195,0.00002398,-0.000
 14520,0.00000699,0.00004562,-0.00072480,0.00027970,0.00028658,0.003043
 53,-0.00036643,-0.00229542,0.00001252,0.00011392,-0.00002623,-0.000007
 08,-0.00001730,0.00001307,-0.00015102,0.00073240,-0.00026796,-0.131410
 25,-0.11318056,0.04589707,0.00001445,0.00000611,0.00000524,-0.00000713
 ,0.00000684,0.00000451,-0.00000134,0.00000843,-0.00000939,0.00012993,0
 .00020255,-0.00015190,-0.00005842,-0.00004745,0.00001475,0.00002926,0.
 00004168,0.00004420,0.00001867,0.00000620,-0.00000067,0.00002486,-0.00
 000449,-0.00001440,0.00015502,-0.00016769,0.00009060,0.00005683,0.0001
 7941,-0.00011179,0.00020286,-0.00006339,0.00020731,-0.00414734,-0.0042
 1293,0.00127208,0.14582776,0.00037284,0.00073385,-0.00019925,0.0019866
 4,-0.00165312,-0.00085780,0.00450724,0.01250772,-0.00290560,0.00181835
 ,-0.00150616,-0.00067672,-0.00084418,0.00001891,0.00043892,0.00029148,
 0.00005391,-0.00016932,-0.00005464,-0.00029259,0.00003347,0.00083764,-
 0.00230793,-0.00043256,-0.00033322,-0.00000908,0.00010882,0.00012833,0
 .00001118,0.00005860,-0.00012637,-0.00037895,0.00004500,-0.11776861,-0
 .19981173,0.06494485,0.00000440,-0.00002578,-0.00000788,-0.00002928,0.
 00001169,0.00000833,-0.00000498,0.00000626,-0.00003006,-0.00004462,0.0
 0014424,0.00005971,0.00004268,-0.00004870,-0.00007946,-0.00001494,-0.0
 0004324,-0.00002898,-0.00002273,0.00004135,0.00001158,-0.00002747,0.00
 000138,0.00004779,-0.00000690,0.00016517,0.00001254,0.00008220,0.00003
 845,0.00017661,-0.00006549,-0.00001282,-0.00015005,-0.00858374,-0.0130
 4763,0.00558084,0.12543884,0.21651889,0.00013830,0.00073963,0.00044415
 ,0.00209168,-0.00164198,-0.00015953,0.00790416,0.00984264,-0.00571477,
 0.00146793,0.00148259,-0.00013420,0.00002048,0.00020872,0.00018390,0.0
 0002689,-0.00001815,-0.00005832,0.00028521,-0.00012477,-0.00027522,-0.
 00227332,0.00020486,-0.00054254,0.00000997,-0.00005962,-0.00002873,-0.
 00000939,0.00000417,0.00000176,-0.00021003,-0.00037400,-0.00048298,0.0
 4616832,0.06287680,-0.07481080,-0.00000477,-0.00000165,-0.00000345,0.0
 0000448,-0.00000218,-0.00000332,-0.00000175,-0.00000257,0.00000278,-0.
 00009501,-0.00014529,0.00004010,0.00006659,0.00003110,0.00001436,0.000
 00248,-0.00002979,-0.00000292,-0.00001189,-0.00000190,-0.00000457,-0.0
 0000117,-0.00000372,-0.00001444,0.00008185,0.00008951,0.00027905,0.000
 07502,0.00025875,0.00026653,0.00002331,-0.00028102,0.00016511,-0.01513
 551,-0.02007866,0.00952758,-0.05383591,-0.06952708,0.07855942,0.000584
 76,0.00034454,0.00100295,0.00121122,0.00177501,0.00064830,-0.01613505,
 0.01505201,-0.01511758,-0.00460314,-0.00144571,0.00180563,0.00102500,0
 .00020155,0.00048060,-0.00003280,-0.00035240,-0.00035715,-0.00010677,-
 0.00027440,-0.00007496,0.00161518,-0.00006312,-0.00176682,-0.00053994,
 0.00005853,0.00023593,0.00018604,0.00008474,0.00006709,-0.00040322,0.0
 0039590,-0.00150254,-0.10760147,0.06599558,-0.08654239,0.00000883,-0.0
 0001647,-0.00000942,-0.00006356,0.00002500,0.00001968,-0.00000757,0.00
 000569,-0.00005422,-0.00016688,0.00061952,0.00016774,-0.00021042,-0.00
 020737,-0.00016327,0.00005417,-0.00001691,-0.00000787,0.00001354,0.000
 05200,0.00000975,0.00001227,0.00000301,0.00005032,0.00023836,-0.000012
 99,0.00029231,-0.00005128,-0.00040267,-0.00018122,0.00009753,-0.000905
 32,0.00071355,-0.00420126,0.00321057,-0.00601507,0.01090494,-0.0075834
 7,0.01321210,0.11817152,0.00012200,-0.00057611,-0.00006396,-0.00208260
 ,-0.00160618,0.00048995,0.00827573,-0.00768057,0.00427454,0.00162874,0
 .00013973,-0.00021652,-0.00025503,-0.00013245,-0.00001852,-0.00018996,
 0.00029341,0.00023846,0.00022612,0.00028285,-0.00014748,0.00032367,-0.
 00071765,-0.00074343,0.00039617,-0.00006881,-0.00024041,-0.00016722,-0
 .00004751,-0.00005014,-0.00096543,0.00120045,0.00010353,0.06465183,-0.
 11318220,0.09201954,-0.00000398,0.00001775,0.00000750,0.00003734,-0.00
 001655,-0.00001331,0.00000639,-0.00000251,0.00003774,0.00015897,-0.000
 49251,-0.00019500,0.00015692,0.00013527,0.00016012,-0.00002055,0.00002
 606,0.00003771,-0.00000255,-0.00004336,-0.00001593,0.00000605,-0.00000
 244,-0.00006324,-0.00000779,0.00007642,-0.00007296,0.00015621,0.000113
 33,-0.00013688,0.00039110,0.00015267,0.00019084,-0.01014710,0.01024241
 ,-0.01338691,0.01384779,-0.01111527,0.01655360,-0.07654282,0.12300377,
 -0.00033583,0.00001271,-0.00077793,0.00049704,0.00109004,0.00065795,0.
 00731082,-0.00815871,0.01143024,0.00155637,-0.00022806,-0.00129910,-0.
 00032342,-0.00031295,-0.00034899,0.00010697,-0.00010578,-0.00007096,-0
 .00017663,-0.00022537,0.00022372,-0.00059434,0.00021700,0.00074567,-0.
 00006761,0.00001727,0.00008872,0.00004803,0.00000395,0.00000011,0.0010
 9785,-0.00021795,0.00040682,-0.08465321,0.08978989,-0.15702109,0.00000
 138,-0.00000701,-0.00000366,-0.00000581,0.00000473,0.00000654,0.000000
 03,-0.00000493,-0.00000372,0.00009781,-0.00005582,0.00000983,0.0000077
 7,-0.00000327,-0.00000777,-0.00000509,-0.00000849,-0.00001137,-0.00000
 877,0.00001073,-0.00000387,-0.00000477,-0.00000226,0.00001032,0.000134
 93,-0.00023616,0.00004562,-0.00029315,0.00026098,-0.00057156,-0.000368
 47,-0.00003120,0.00023118,-0.01266215,0.01340182,-0.01919723,-0.004446
 29,0.00353769,-0.00724894,0.09308656,-0.09874885,0.17270949\\-0.000004
 09,-0.00000057,0.00000660,0.00000311,-0.00000182,-0.00000399,0.0000010
 5,0.00000148,0.00000296,-0.00000284,-0.00000014,-0.00000440,0.00000625
 ,0.00000669,0.00000041,-0.00000406,-0.00000534,-0.00000271,-0.00000094
 ,0.00000232,-0.00000206,0.00000097,0.00000259,0.00000180,0.00000724,0.
 00000722,0.00000891,0.00000217,-0.00000052,-0.00000973,-0.00000121,-0.
 00000201,0.00000418,0.00000231,-0.00000105,0.00000254,-0.00000015,0.00
 000040,0.00000026,-0.00000108,-0.00000130,0.00000182,0.00000005,0.0000
 0254,0.00000076,-0.00001009,-0.00000742,-0.00000602,0.00000469,-0.0000
 0312,0.00000707,0.00000004,-0.00000088,-0.00000009,0.00000070,0.000000
 49,-0.00000087,-0.00000121,0.00000011,0.00000021,0.00000026,-0.0000000
 3,-0.00000063,-0.00000142,0.00000037,-0.00000149,0.00000064,0.00000044
 ,-0.00000290,-0.00000052,-0.00000078,-0.00000093,-0.00000033,0.0000005
 7,-0.00000072,-0.00000154,-0.00000026,-0.00000099\\\@


 THE REASON MAN'S BEST FRIEND IS A DOG IS BECAUSE
 HE WAGS HIS TAIL INSTEAD OF HIS TONGUE.
 Job cpu time:       0 days  4 hours 39 minutes 16.7 seconds.
 Elapsed time:       0 days  0 hours 35 minutes 20.4 seconds.
 File lengths (MBytes):  RWF=    746 Int=      0 D2E=      0 Chk=     20 Scr=      1
 Normal termination of Gaussian 16 at Wed Dec 20 06:23:42 2023.
