 Entering Gaussian System, Link 0=g16
 Input=015-an.com
 Output=015-an.log
 Initial command:
 /sysapps/ubuntu-applications/gaussian/Gaussian/AVX2/g16/l1.exe "/scratch/selhajj1/4217131/Gau-2918800.inp" -scrdir="/scratch/selhajj1/4217131/"
 Entering Link 1 = /sysapps/ubuntu-applications/gaussian/Gaussian/AVX2/g16/l1.exe PID=   2918807.
  
 Copyright (c) 1988,1990,1992,1993,1995,1998,2003,2009,2016,
            Gaussian, Inc.  All Rights Reserved.
  
 This is part of the Gaussian(R) 16 program.  It is based on
 the Gaussian(R) 09 system (copyright 2009, Gaussian, Inc.),
 the Gaussian(R) 03 system (copyright 2003, Gaussian, Inc.),
 the Gaussian(R) 98 system (copyright 1998, Gaussian, Inc.),
 the Gaussian(R) 94 system (copyright 1995, Gaussian, Inc.),
 the Gaussian 92(TM) system (copyright 1992, Gaussian, Inc.),
 the Gaussian 90(TM) system (copyright 1990, Gaussian, Inc.),
 the Gaussian 88(TM) system (copyright 1988, Gaussian, Inc.),
 the Gaussian 86(TM) system (copyright 1986, Carnegie Mellon
 University), and the Gaussian 82(TM) system (copyright 1983,
 Carnegie Mellon University). Gaussian is a federally registered
 trademark of Gaussian, Inc.
  
 This software contains proprietary and confidential information,
 including trade secrets, belonging to Gaussian, Inc.
  
 This software is provided under written license and may be
 used, copied, transmitted, or stored only in accord with that
 written license.
  
 The following legend is applicable only to US Government
 contracts under FAR:
  
                    RESTRICTED RIGHTS LEGEND
  
 Use, reproduction and disclosure by the US Government is
 subject to restrictions as set forth in subparagraphs (a)
 and (c) of the Commercial Computer Software - Restricted
 Rights clause in FAR 52.227-19.
  
 Gaussian, Inc.
 340 Quinnipiac St., Bldg. 40, Wallingford CT 06492
  
  
 ---------------------------------------------------------------
 Warning -- This program may not be used in any manner that
 competes with the business of Gaussian, Inc. or will provide
 assistance to any competitor of Gaussian, Inc.  The licensee
 of this program is prohibited from giving any competitor of
 Gaussian, Inc. access to this program.  By using this program,
 the user acknowledges that Gaussian, Inc. is engaged in the
 business of creating and licensing software in the field of
 computational chemistry and represents and warrants to the
 licensee that it is not a competitor of Gaussian, Inc. and that
 it will not use this program in any manner prohibited above.
 ---------------------------------------------------------------
  

 Cite this work as:
 Gaussian 16, Revision A.03,
 M. J. Frisch, G. W. Trucks, H. B. Schlegel, G. E. Scuseria, 
 M. A. Robb, J. R. Cheeseman, G. Scalmani, V. Barone, 
 G. A. Petersson, H. Nakatsuji, X. Li, M. Caricato, A. V. Marenich, 
 J. Bloino, B. G. Janesko, R. Gomperts, B. Mennucci, H. P. Hratchian, 
 J. V. Ortiz, A. F. Izmaylov, J. L. Sonnenberg, D. Williams-Young, 
 F. Ding, F. Lipparini, F. Egidi, J. Goings, B. Peng, A. Petrone, 
 T. Henderson, D. Ranasinghe, V. G. Zakrzewski, J. Gao, N. Rega, 
 G. Zheng, W. Liang, M. Hada, M. Ehara, K. Toyota, R. Fukuda, 
 J. Hasegawa, M. Ishida, T. Nakajima, Y. Honda, O. Kitao, H. Nakai, 
 T. Vreven, K. Throssell, J. A. Montgomery, Jr., J. E. Peralta, 
 F. Ogliaro, M. J. Bearpark, J. J. Heyd, E. N. Brothers, K. N. Kudin, 
 V. N. Staroverov, T. A. Keith, R. Kobayashi, J. Normand, 
 K. Raghavachari, A. P. Rendell, J. C. Burant, S. S. Iyengar, 
 J. Tomasi, M. Cossi, J. M. Millam, M. Klene, C. Adamo, R. Cammi, 
 J. W. Ochterski, R. L. Martin, K. Morokuma, O. Farkas, 
 J. B. Foresman, and D. J. Fox, Gaussian, Inc., Wallingford CT, 2016.
 
 ******************************************
 Gaussian 16:  ES64L-G16RevA.03 25-Dec-2016
                17-Dec-2023 
 ******************************************
 %chk=015-an.chk
 %nproc=8
 Will use up to    8 processors via shared memory.
 %mem=30GB
 --------------------------------------
 #P UB3LYP/6-311++G(d,p) nosym opt freq
 --------------------------------------
 1/18=20,19=15,26=3,38=1/1,3;
 2/9=110,12=2,15=1,17=6,18=5,40=1/2;
 3/5=4,6=6,7=1111,11=2,25=1,30=1,71=1,74=-5,116=2/1,2,3;
 4//1;
 5/5=2,38=5/2;
 6/7=2,8=2,9=2,10=2,28=1/1;
 7/30=1/1,2,3,16;
 1/18=20,19=15,26=3/3(2);
 2/9=110,15=1/2;
 99//99;
 2/9=110,15=1/2;
 3/5=4,6=6,7=1111,11=2,25=1,30=1,71=1,74=-5,116=2/1,2,3;
 4/5=5,16=3,69=1/1;
 5/5=2,38=5/2;
 7/30=1/1,2,3,16;
 1/18=20,19=15,26=3/3(-5);
 2/9=110,15=1/2;
 6/7=2,8=2,9=2,10=2,19=2,28=1/1;
 99/9=1/99;
 Leave Link    1 at Sun Dec 17 20:48:53 2023, MaxMem=  4026531840 cpu:               0.6 elap:               0.2
 (Enter /sysapps/ubuntu-applications/gaussian/Gaussian/AVX2/g16/l101.exe)
 -------
 Reduced
 -------
 Symbolic Z-matrix:
 Charge = -2 Multiplicity = 1
 C                    -1.79639   0.35451  -1.07014 
 C                    -1.15544   0.18171   0.28792 
 C                    -1.83071  -0.98087   1.00707 
 C                    -1.42336   1.40701   1.13459 
 C                     0.31513  -0.08963   0.17208 
 C                     0.82408  -1.21083   0.65215 
 C                     2.27265  -1.48147   0.53974 
 O                     2.73552  -2.55783   1.00503 
 C                     3.16078  -0.51221  -0.10398 
 C                     2.62452   0.59196  -0.57071 
 Br                    3.74363   1.87284  -1.41199 
 C                     1.2022    0.8712   -0.46718 
 O                     0.69426   1.93176  -0.91672 
 Br                    5.03474  -0.82354  -0.26902 
 H                    -2.75043  -0.21611  -1.10379 
 H                    -1.15657  -0.04829  -1.89118 
 H                    -2.06583   1.41322  -1.26932 
 H                    -1.69295  -1.92717   0.44627 
 H                    -2.91606  -0.76548   1.07699 
 H                    -1.40659  -1.11938   2.02056 
 H                    -0.7781    1.41422   2.02544 
 H                    -2.47816   1.32116   1.49567 
 H                    -1.3814    2.34093   0.5462 
 H                     0.22448  -1.96772   1.13865 
 
 ITRead=  0  0  0  0  0  0  0  0  0  0  0  0  0  0  0  0  0  0  0  0
 ITRead=  0  0  0  0
 MicOpt= -1 -1 -1 -1 -1 -1 -1 -1 -1 -1 -1 -1 -1 -1 -1 -1 -1 -1 -1 -1
 MicOpt= -1 -1 -1 -1
 NAtoms=     24 NQM=       24 NQMF=       0 NMMI=      0 NMMIF=      0
                NMic=       0 NMicF=      0.
                    Isotopes and Nuclear Properties:
 (Nuclear quadrupole moments (NQMom) in fm**2, nuclear magnetic moments (NMagM)
  in nuclear magnetons)

  Atom         1           2           3           4           5           6           7           8           9          10
 IAtWgt=          12          12          12          12          12          12          12          16          12          12
 AtmWgt=  12.0000000  12.0000000  12.0000000  12.0000000  12.0000000  12.0000000  12.0000000  15.9949146  12.0000000  12.0000000
 NucSpn=           0           0           0           0           0           0           0           0           0           0
 AtZEff=  -0.0000000  -0.0000000  -0.0000000  -0.0000000  -0.0000000  -0.0000000  -0.0000000  -0.0000000  -0.0000000  -0.0000000
 NQMom=    0.0000000   0.0000000   0.0000000   0.0000000   0.0000000   0.0000000   0.0000000   0.0000000   0.0000000   0.0000000
 NMagM=    0.0000000   0.0000000   0.0000000   0.0000000   0.0000000   0.0000000   0.0000000   0.0000000   0.0000000   0.0000000
 AtZNuc=   6.0000000   6.0000000   6.0000000   6.0000000   6.0000000   6.0000000   6.0000000   8.0000000   6.0000000   6.0000000

  Atom        11          12          13          14          15          16          17          18          19          20
 IAtWgt=          79          12          16          79           1           1           1           1           1           1
 AtmWgt=  78.9183361  12.0000000  15.9949146  78.9183361   1.0078250   1.0078250   1.0078250   1.0078250   1.0078250   1.0078250
 NucSpn=           3           0           0           3           1           1           1           1           1           1
 AtZEff=  -0.0000000  -0.0000000  -0.0000000  -0.0000000  -0.0000000  -0.0000000  -0.0000000  -0.0000000  -0.0000000  -0.0000000
 NQMom=   31.3000000   0.0000000   0.0000000  31.3000000   0.0000000   0.0000000   0.0000000   0.0000000   0.0000000   0.0000000
 NMagM=    2.1063990   0.0000000   0.0000000   2.1063990   2.7928460   2.7928460   2.7928460   2.7928460   2.7928460   2.7928460
 AtZNuc=  35.0000000   6.0000000   8.0000000  35.0000000   1.0000000   1.0000000   1.0000000   1.0000000   1.0000000   1.0000000

  Atom        21          22          23          24
 IAtWgt=           1           1           1           1
 AtmWgt=   1.0078250   1.0078250   1.0078250   1.0078250
 NucSpn=           1           1           1           1
 AtZEff=  -0.0000000  -0.0000000  -0.0000000  -0.0000000
 NQMom=    0.0000000   0.0000000   0.0000000   0.0000000
 NMagM=    2.7928460   2.7928460   2.7928460   2.7928460
 AtZNuc=   1.0000000   1.0000000   1.0000000   1.0000000
 Leave Link  101 at Sun Dec 17 20:48:54 2023, MaxMem=  4026531840 cpu:               4.6 elap:               0.8
 (Enter /sysapps/ubuntu-applications/gaussian/Gaussian/AVX2/g16/l103.exe)

 GradGradGradGradGradGradGradGradGradGradGradGradGradGradGradGradGradGrad
 Berny optimization.
 Initialization pass.
                           ----------------------------
                           !    Initial Parameters    !
                           ! (Angstroms and Degrees)  !
 --------------------------                            --------------------------
 ! Name  Definition              Value          Derivative Info.                !
 --------------------------------------------------------------------------------
 ! R1    R(1,2)                  1.5116         estimate D2E/DX2                !
 ! R2    R(1,15)                 1.1122         estimate D2E/DX2                !
 ! R3    R(1,16)                 1.1161         estimate D2E/DX2                !
 ! R4    R(1,17)                 1.1105         estimate D2E/DX2                !
 ! R5    R(2,3)                  1.5247         estimate D2E/DX2                !
 ! R6    R(2,4)                  1.5133         estimate D2E/DX2                !
 ! R7    R(2,5)                  1.4999         estimate D2E/DX2                !
 ! R8    R(3,18)                 1.1086         estimate D2E/DX2                !
 ! R9    R(3,19)                 1.1087         estimate D2E/DX2                !
 ! R10   R(3,20)                 1.1073         estimate D2E/DX2                !
 ! R11   R(4,21)                 1.1            estimate D2E/DX2                !
 ! R12   R(4,22)                 1.1182         estimate D2E/DX2                !
 ! R13   R(4,23)                 1.1046         estimate D2E/DX2                !
 ! R14   R(5,6)                  1.3216         estimate D2E/DX2                !
 ! R15   R(5,12)                 1.4556         estimate D2E/DX2                !
 ! R16   R(6,7)                  1.4779         estimate D2E/DX2                !
 ! R17   R(6,24)                 1.0812         estimate D2E/DX2                !
 ! R18   R(7,8)                  1.2607         estimate D2E/DX2                !
 ! R19   R(7,9)                  1.4638         estimate D2E/DX2                !
 ! R20   R(9,10)                 1.3132         estimate D2E/DX2                !
 ! R21   R(9,14)                 1.9068         estimate D2E/DX2                !
 ! R22   R(10,11)                1.8976         estimate D2E/DX2                !
 ! R23   R(10,12)                1.4532         estimate D2E/DX2                !
 ! R24   R(12,13)                1.2589         estimate D2E/DX2                !
 ! A1    A(2,1,15)             109.4052         estimate D2E/DX2                !
 ! A2    A(2,1,16)             112.1215         estimate D2E/DX2                !
 ! A3    A(2,1,17)             111.9016         estimate D2E/DX2                !
 ! A4    A(15,1,16)            106.5181         estimate D2E/DX2                !
 ! A5    A(15,1,17)            105.9972         estimate D2E/DX2                !
 ! A6    A(16,1,17)            110.5625         estimate D2E/DX2                !
 ! A7    A(1,2,3)              108.8521         estimate D2E/DX2                !
 ! A8    A(1,2,4)              109.5743         estimate D2E/DX2                !
 ! A9    A(1,2,5)              111.532          estimate D2E/DX2                !
 ! A10   A(3,2,4)              105.9672         estimate D2E/DX2                !
 ! A11   A(3,2,5)              109.4335         estimate D2E/DX2                !
 ! A12   A(4,2,5)              111.302          estimate D2E/DX2                !
 ! A13   A(2,3,18)             110.9304         estimate D2E/DX2                !
 ! A14   A(2,3,19)             108.3708         estimate D2E/DX2                !
 ! A15   A(2,3,20)             110.9427         estimate D2E/DX2                !
 ! A16   A(18,3,19)            108.6256         estimate D2E/DX2                !
 ! A17   A(18,3,20)            107.9759         estimate D2E/DX2                !
 ! A18   A(19,3,20)            109.9691         estimate D2E/DX2                !
 ! A19   A(2,4,21)             110.7668         estimate D2E/DX2                !
 ! A20   A(2,4,22)             106.5893         estimate D2E/DX2                !
 ! A21   A(2,4,23)             112.3235         estimate D2E/DX2                !
 ! A22   A(21,4,22)            106.9972         estimate D2E/DX2                !
 ! A23   A(21,4,23)            113.8009         estimate D2E/DX2                !
 ! A24   A(22,4,23)            105.8278         estimate D2E/DX2                !
 ! A25   A(2,5,6)              120.1994         estimate D2E/DX2                !
 ! A26   A(2,5,12)             120.798          estimate D2E/DX2                !
 ! A27   A(6,5,12)             119.0026         estimate D2E/DX2                !
 ! A28   A(5,6,7)              120.3441         estimate D2E/DX2                !
 ! A29   A(5,6,24)             122.94           estimate D2E/DX2                !
 ! A30   A(7,6,24)             116.7159         estimate D2E/DX2                !
 ! A31   A(6,7,8)              119.2194         estimate D2E/DX2                !
 ! A32   A(6,7,9)              120.4565         estimate D2E/DX2                !
 ! A33   A(8,7,9)              120.3241         estimate D2E/DX2                !
 ! A34   A(7,9,10)             117.7284         estimate D2E/DX2                !
 ! A35   A(7,9,14)             121.7519         estimate D2E/DX2                !
 ! A36   A(10,9,14)            120.5197         estimate D2E/DX2                !
 ! A37   A(9,10,11)            118.9655         estimate D2E/DX2                !
 ! A38   A(9,10,12)            122.4069         estimate D2E/DX2                !
 ! A39   A(11,10,12)           118.6276         estimate D2E/DX2                !
 ! A40   A(5,12,10)            120.0616         estimate D2E/DX2                !
 ! A41   A(5,12,13)            117.8415         estimate D2E/DX2                !
 ! A42   A(10,12,13)           122.097          estimate D2E/DX2                !
 ! D1    D(15,1,2,3)            14.4881         estimate D2E/DX2                !
 ! D2    D(15,1,2,4)          -100.9743         estimate D2E/DX2                !
 ! D3    D(15,1,2,5)           135.3297         estimate D2E/DX2                !
 ! D4    D(16,1,2,3)          -103.4545         estimate D2E/DX2                !
 ! D5    D(16,1,2,4)           141.0831         estimate D2E/DX2                !
 ! D6    D(16,1,2,5)            17.387          estimate D2E/DX2                !
 ! D7    D(17,1,2,3)           131.6519         estimate D2E/DX2                !
 ! D8    D(17,1,2,4)            16.1895         estimate D2E/DX2                !
 ! D9    D(17,1,2,5)          -107.5065         estimate D2E/DX2                !
 ! D10   D(1,2,3,18)            61.6569         estimate D2E/DX2                !
 ! D11   D(1,2,3,19)           -57.5079         estimate D2E/DX2                !
 ! D12   D(1,2,3,20)          -178.3319         estimate D2E/DX2                !
 ! D13   D(4,2,3,18)           179.4267         estimate D2E/DX2                !
 ! D14   D(4,2,3,19)            60.2619         estimate D2E/DX2                !
 ! D15   D(4,2,3,20)           -60.562          estimate D2E/DX2                !
 ! D16   D(5,2,3,18)           -60.4649         estimate D2E/DX2                !
 ! D17   D(5,2,3,19)          -179.6297         estimate D2E/DX2                !
 ! D18   D(5,2,3,20)            59.5464         estimate D2E/DX2                !
 ! D19   D(1,2,4,21)          -166.5325         estimate D2E/DX2                !
 ! D20   D(1,2,4,22)            77.4156         estimate D2E/DX2                !
 ! D21   D(1,2,4,23)           -38.0504         estimate D2E/DX2                !
 ! D22   D(3,2,4,21)            76.1805         estimate D2E/DX2                !
 ! D23   D(3,2,4,22)           -39.8714         estimate D2E/DX2                !
 ! D24   D(3,2,4,23)          -155.3373         estimate D2E/DX2                !
 ! D25   D(5,2,4,21)           -42.7015         estimate D2E/DX2                !
 ! D26   D(5,2,4,22)          -158.7533         estimate D2E/DX2                !
 ! D27   D(5,2,4,23)            85.7807         estimate D2E/DX2                !
 ! D28   D(1,2,5,6)           -120.002          estimate D2E/DX2                !
 ! D29   D(1,2,5,12)            59.9982         estimate D2E/DX2                !
 ! D30   D(3,2,5,6)              0.4992         estimate D2E/DX2                !
 ! D31   D(3,2,5,12)          -179.5005         estimate D2E/DX2                !
 ! D32   D(4,2,5,6)            117.2856         estimate D2E/DX2                !
 ! D33   D(4,2,5,12)           -62.7141         estimate D2E/DX2                !
 ! D34   D(2,5,6,7)            180.0            estimate D2E/DX2                !
 ! D35   D(2,5,6,24)            -0.0002         estimate D2E/DX2                !
 ! D36   D(12,5,6,7)            -0.0002         estimate D2E/DX2                !
 ! D37   D(12,5,6,24)          179.9996         estimate D2E/DX2                !
 ! D38   D(2,5,12,10)          179.9999         estimate D2E/DX2                !
 ! D39   D(2,5,12,13)           -0.0004         estimate D2E/DX2                !
 ! D40   D(6,5,12,10)            0.0001         estimate D2E/DX2                !
 ! D41   D(6,5,12,13)          179.9999         estimate D2E/DX2                !
 ! D42   D(5,6,7,8)           -179.9996         estimate D2E/DX2                !
 ! D43   D(5,6,7,9)              0.0001         estimate D2E/DX2                !
 ! D44   D(24,6,7,8)             0.0006         estimate D2E/DX2                !
 ! D45   D(24,6,7,9)          -179.9997         estimate D2E/DX2                !
 ! D46   D(6,7,9,10)             0.0001         estimate D2E/DX2                !
 ! D47   D(6,7,9,14)           179.9996         estimate D2E/DX2                !
 ! D48   D(8,7,9,10)           179.9997         estimate D2E/DX2                !
 ! D49   D(8,7,9,14)            -0.0007         estimate D2E/DX2                !
 ! D50   D(7,9,10,11)         -180.0            estimate D2E/DX2                !
 ! D51   D(7,9,10,12)           -0.0001         estimate D2E/DX2                !
 ! D52   D(14,9,10,11)           0.0005         estimate D2E/DX2                !
 ! D53   D(14,9,10,12)        -179.9997         estimate D2E/DX2                !
 ! D54   D(9,10,12,5)            0.0            estimate D2E/DX2                !
 ! D55   D(9,10,12,13)        -179.9997         estimate D2E/DX2                !
 ! D56   D(11,10,12,5)         179.9999         estimate D2E/DX2                !
 ! D57   D(11,10,12,13)          0.0002         estimate D2E/DX2                !
 --------------------------------------------------------------------------------
 Trust Radius=3.00D-01 FncErr=1.00D-07 GrdErr=1.00D-06 EigMax=2.50D+02 EigMin=1.00D-04
 Number of steps in this run=    133 maximum allowed number of steps=    144.
 GradGradGradGradGradGradGradGradGradGradGradGradGradGradGradGradGradGrad

 Leave Link  103 at Sun Dec 17 20:48:54 2023, MaxMem=  4026531840 cpu:               0.3 elap:               0.1
 (Enter /sysapps/ubuntu-applications/gaussian/Gaussian/AVX2/g16/l202.exe)
                          Input orientation:                          
 ---------------------------------------------------------------------
 Center     Atomic      Atomic             Coordinates (Angstroms)
 Number     Number       Type             X           Y           Z
 ---------------------------------------------------------------------
      1          6           0       -1.796387    0.354514   -1.070144
      2          6           0       -1.155443    0.181713    0.287918
      3          6           0       -1.830711   -0.980869    1.007071
      4          6           0       -1.423360    1.407012    1.134587
      5          6           0        0.315129   -0.089633    0.172079
      6          6           0        0.824082   -1.210830    0.652146
      7          6           0        2.272648   -1.481473    0.539740
      8          8           0        2.735523   -2.557828    1.005027
      9          6           0        3.160784   -0.512206   -0.103975
     10          6           0        2.624521    0.591963   -0.570714
     11         35           0        3.743632    1.872845   -1.411986
     12          6           0        1.202200    0.871204   -0.467182
     13          8           0        0.694257    1.931761   -0.916722
     14         35           0        5.034738   -0.823538   -0.269018
     15          1           0       -2.750427   -0.216114   -1.103787
     16          1           0       -1.156574   -0.048293   -1.891185
     17          1           0       -2.065833    1.413217   -1.269321
     18          1           0       -1.692946   -1.927172    0.446273
     19          1           0       -2.916060   -0.765482    1.076994
     20          1           0       -1.406589   -1.119383    2.020558
     21          1           0       -0.778100    1.414221    2.025444
     22          1           0       -2.478164    1.321159    1.495667
     23          1           0       -1.381404    2.340935    0.546199
     24          1           0        0.224482   -1.967721    1.138646
 ---------------------------------------------------------------------
                    Distance matrix (angstroms):
                    1          2          3          4          5
     1  C    0.000000
     2  C    1.511622   0.000000
     3  C    2.469666   1.524719   0.000000
     4  C    2.471384   1.513269   2.425731   0.000000
     5  C    2.489755   1.499876   2.469037   2.487712   0.000000
     6  C    3.504774   2.447521   2.688268   3.483797   1.321583
     7  C    4.745484   3.818561   4.160116   4.728389   2.429871
     8  O    5.772891   4.812374   4.830869   5.747439   3.555854
     9  C    5.124279   4.389182   5.135085   5.121700   2.890074
    10  C    4.455361   3.897907   4.981195   4.467404   2.519843
    11  Br   5.754476   5.454405   6.713332   5.779259   4.256197
    12  C    3.101944   2.569836   3.847357   3.121910   1.455596
    13  O    2.952043   2.816952   4.308116   2.994584   2.327071
    14  Br   6.978100   6.295955   6.984809   6.975134   4.796655
    15  H    1.112178   2.153853   2.426200   3.066914   3.322870
    16  H    1.116120   2.191208   3.118341   3.368142   2.534694
    17  H    1.110462   2.184126   3.311932   2.488289   3.163095
    18  H    2.741589   2.182060   1.108587   3.415148   2.735708
    19  H    2.668007   2.149324   1.108722   2.636513   3.422898
    20  H    3.446266   2.181276   1.107348   2.677293   2.727924
    21  H    3.426741   2.163437   2.807407   1.100018   2.625203
    22  H    2.825350   2.122872   2.440748   1.118195   3.397750
    23  H    2.594348   2.186323   3.383587   1.104614   2.987616
    24  H    3.788857   2.692211   2.283639   3.755559   2.114163
                    6          7          8          9         10
     6  C    0.000000
     7  C    1.477913   0.000000
     8  O    2.364854   1.260669   0.000000
     9  C    2.553423   1.463773   2.365439   0.000000
    10  C    2.826134   2.378247   3.523701   1.313245   0.000000
    11  Br   4.721595   4.150237   5.146756   2.781919   1.897579
    12  C    2.393896   2.773958   4.034445   2.425242   1.453166
    13  O    3.514838   4.032712   5.293042   3.566131   2.375016
    14  Br   4.327605   2.952305   3.149181   1.906796   2.811372
    15  H    4.104860   5.434482   6.326639   6.002475   5.461431
    16  H    3.426809   4.441054   5.462071   4.695627   4.055891
    17  H    4.350778   5.520358   6.632863   5.690590   4.812684
    18  H    2.625064   3.991656   4.507912   5.085627   5.101061
    19  H    3.790448   5.265357   5.929425   6.195715   5.937646
    20  H    2.618550   3.982552   4.500835   5.073776   5.088540
    21  H    3.368060   4.460877   5.400368   4.874460   4.358208
    22  H    4.245860   5.598103   6.516885   6.141483   5.553292
    23  H    4.182156   5.288000   6.415411   5.403205   4.511523
    24  H    1.081243   2.188632   2.582906   3.504925   3.903086
                   11         12         13         14         15
    11  Br   0.000000
    12  C    2.890469   0.000000
    13  O    3.089894   1.258917   0.000000
    14  Br   3.200595   4.195208   5.181792   0.000000
    15  H    6.828729   4.148589   4.063768   7.853318   0.000000
    16  H    5.285113   2.904664   2.880238   6.447075   1.785645
    17  H    5.829364   3.408408   2.830426   7.511444   1.775047
    18  H    6.888369   4.128824   4.737918   6.855026   2.539423
    19  H    7.583356   4.692898   4.927922   8.064138   2.255005
    20  H    6.874631   4.117896   4.727647   6.842542   3.518994
    21  H    5.698449   3.229496   3.330469   6.637862   4.042296
    22  H    6.889814   4.195273   4.031961   8.009840   3.032242
    23  H    5.506323   3.140392   2.572145   7.200372   3.336941
    24  H    5.800007   3.405014   4.432966   5.140937   4.116639
                   16         17         18         19         20
    16  H    0.000000
    17  H    1.830158   0.000000
    18  H    3.046570   3.773660   0.000000
    19  H    3.524236   3.312826   1.800929   0.000000
    20  H    4.063431   4.203804   1.792456   1.814955   0.000000
    21  H    4.197878   3.537476   3.807314   3.197114   2.610397
    22  H    3.884941   2.797079   3.502778   2.172811   2.716621
    23  H    3.420497   2.150632   4.280629   3.505244   3.761405
    24  H    3.843357   4.740738   2.039008   3.363360   2.039078
                   21         22         23         24
    21  H    0.000000
    22  H    1.783127   0.000000
    23  H    1.846873   1.773221   0.000000
    24  H    3.637185   4.271825   4.636204   0.000000
 Symmetry turned off by external request.
 Stoichiometry    C10H10Br2O2(2-)
 Framework group  C1[X(C10H10Br2O2)]
 Deg. of freedom    66
 Full point group                 C1      NOp   1
 Rotational constants (GHZ):           0.6387290           0.2704111           0.1980063
 Leave Link  202 at Sun Dec 17 20:48:54 2023, MaxMem=  4026531840 cpu:               0.4 elap:               0.1
 (Enter /sysapps/ubuntu-applications/gaussian/Gaussian/AVX2/g16/l301.exe)
 Standard basis: 6-311++G(d,p) (5D, 7F)
 Ernie: Thresh=  0.10000D-02 Tol=  0.10000D-05 Strict=F.
   430 basis functions,   710 primitive gaussians,   448 cartesian basis functions
    79 alpha electrons       79 beta electrons
       nuclear repulsion energy      1646.7838738975 Hartrees.
 IExCor=  402 DFT=T Ex+Corr=B3LYP ExCW=0 ScaHFX=  0.200000
 ScaDFX=  0.800000  0.720000  1.000000  0.810000 ScalE2=  1.000000  1.000000
 IRadAn=      5 IRanWt=     -1 IRanGd=            0 ICorTp=0 IEmpDi=  4
 NAtoms=   24 NActive=   24 NUniq=   24 SFac= 1.00D+00 NAtFMM=   60 NAOKFM=F Big=F
 Integral buffers will be    131072 words long.
 Raffenetti 2 integral format.
 Two-electron integral symmetry is turned off.
 Leave Link  301 at Sun Dec 17 20:48:55 2023, MaxMem=  4026531840 cpu:               0.5 elap:               0.1
 (Enter /sysapps/ubuntu-applications/gaussian/Gaussian/AVX2/g16/l302.exe)
 NPDir=0 NMtPBC=     1 NCelOv=     1 NCel=       1 NClECP=     1 NCelD=      1
         NCelK=      1 NCelE2=     1 NClLst=     1 CellRange=     0.0.
 One-electron integrals computed using PRISM.
 NBasis=   430 RedAO= T EigKep=  1.19D-06  NBF=   430
 NBsUse=   428 1.00D-06 EigRej=  6.30D-07 NBFU=   428
 Precomputing XC quadrature grid using
 IXCGrd= 4 IRadAn=           5 IRanWt=          -1 IRanGd=           0 AccXCQ= 0.00D+00.
 Generated NRdTot=       0 NPtTot=           0 NUsed=           0 NTot=          32
 NSgBfM=   440   440   440   440   440 MxSgAt=    24 MxSgA2=    24.
 Leave Link  302 at Sun Dec 17 20:48:56 2023, MaxMem=  4026531840 cpu:               6.4 elap:               1.1
 (Enter /sysapps/ubuntu-applications/gaussian/Gaussian/AVX2/g16/l303.exe)
 DipDrv:  MaxL=1.
 Leave Link  303 at Sun Dec 17 20:48:56 2023, MaxMem=  4026531840 cpu:               1.0 elap:               0.2
 (Enter /sysapps/ubuntu-applications/gaussian/Gaussian/AVX2/g16/l401.exe)
 ExpMin= 3.50D-02 ExpMax= 4.40D+05 ExpMxC= 1.51D+04 IAcc=3 IRadAn=         5 AccDes= 0.00D+00
 Harris functional with IExCor=  402 and IRadAn=       5 diagonalized for initial guess.
 HarFok:  IExCor=  402 AccDes= 0.00D+00 IRadAn=         5 IDoV= 1 UseB2=F ITyADJ=14
 ICtDFT=  3500011 ScaDFX=  1.000000  1.000000  1.000000  1.000000
 FoFCou: FMM=F IPFlag=           0 FMFlag=      100000 FMFlg1=           0
         NFxFlg=           0 DoJE=T BraDBF=F KetDBF=T FulRan=T
         wScrn=  0.000000 ICntrl=       500 IOpCl=  0 I1Cent=   200000004 NGrid=           0
         NMat0=    1 NMatS0=      1 NMatT0=    0 NMatD0=    1 NMtDS0=    0 NMtDT0=    0
 Symmetry not used in FoFCou.
 Harris En= -5686.56746390575    
 JPrj=0 DoOrth=F DoCkMO=F.
 Initial guess <Sx>= 0.0000 <Sy>= 0.0000 <Sz>= 0.0000 <S**2>=-0.0000 S=-0.0000
 Leave Link  401 at Sun Dec 17 20:48:59 2023, MaxMem=  4026531840 cpu:              21.5 elap:               2.8
 (Enter /sysapps/ubuntu-applications/gaussian/Gaussian/AVX2/g16/l502.exe)
 Two-electron integral symmetry not used.
 UHF open shell SCF:
 Using DIIS extrapolation, IDIIS=  1040.
 NGot=  4026531840 LenX=  4026123692 LenY=  4025922540
 Requested convergence on RMS density matrix=1.00D-08 within 128 cycles.
 Requested convergence on MAX density matrix=1.00D-06.
 Requested convergence on             energy=1.00D-06.
 No special actions if energy rises.
 Fock matrices will be formed incrementally for  20 cycles.

 Cycle   1  Pass 1  IDiag  1:
 FoFJK:  IHMeth= 1 ICntrl=       0 DoSepK=F KAlg= 0 I1Cent=           0 FoldK=F
 IRaf= 850000000 NMat=       1 IRICut=       1 DoRegI=T DoRafI=F ISym2E= 0 IDoP0=0 IntGTp=1.
 FoFCou: FMM=F IPFlag=           0 FMFlag=      100000 FMFlg1=           0
         NFxFlg=           0 DoJE=F BraDBF=F KetDBF=F FulRan=T
         wScrn=  0.000000 ICntrl=         0 IOpCl=  1 I1Cent=           0 NGrid=           0
         NMat0=    1 NMatS0=      1 NMatT0=    0 NMatD0=    1 NMtDS0=    0 NMtDT0=    0
 Symmetry not used in FoFCou.
 E= -5685.20306820487    
 DIIS: error= 7.62D-02 at cycle   1 NSaved=   1.
 NSaved= 1 IEnMin= 1 EnMin= -5685.20306820487     IErMin= 1 ErrMin= 7.62D-02
 ErrMax= 7.62D-02  0.00D+00 EMaxC= 1.00D-01 BMatC= 1.21D+01 BMatP= 1.21D+01
 IDIUse=3 WtCom= 2.38D-01 WtEn= 7.62D-01
 Coeff-Com:  0.100D+01
 Coeff-En:   0.100D+01
 Coeff:      0.100D+01
 Gap=    -0.071 Goal=   None    Shift=    0.000
 Gap=    -0.071 Goal=   None    Shift=    0.000
 GapD=   -0.071 DampG=0.250 DampE=0.500 DampFc=0.2500 IDamp=-1.
 Damping current iteration by 2.50D-01
 RMSDP=9.92D+00 MaxDP=1.47D+03              OVMax= 9.86D-01

 Cycle   2  Pass 1  IDiag  1:
 RMSU=  2.41D+00    CP:  3.00D+00
 E= -5685.09135099279     Delta-E=        0.111717212084 Rises=F Damp=T
 DIIS: error= 5.56D-02 at cycle   2 NSaved=   2.
 NSaved= 2 IEnMin= 1 EnMin= -5685.20306820487     IErMin= 2 ErrMin= 5.56D-02
 ErrMax= 5.56D-02  0.00D+00 EMaxC= 1.00D-01 BMatC= 4.91D+00 BMatP= 1.21D+01
 IDIUse=3 WtCom= 4.44D-01 WtEn= 5.56D-01
 Coeff-Com: -0.549D+00 0.155D+01
 Coeff-En:   0.568D+00 0.432D+00
 Coeff:      0.721D-01 0.928D+00
 Gap=     0.136 Goal=   None    Shift=    0.000
 Gap=     0.136 Goal=   None    Shift=    0.000
 RMSDP=2.48D+00 MaxDP=3.69D+02 DE= 1.12D-01 OVMax= 8.58D-01

 Cycle   3  Pass 1  IDiag  1:
 RMSU=  1.38D-02    CP:  9.58D-01  4.53D-05
 E= -5685.36789874720     Delta-E=       -0.276547754411 Rises=F Damp=F
 DIIS: error= 4.49D-02 at cycle   3 NSaved=   3.
 NSaved= 3 IEnMin= 3 EnMin= -5685.36789874720     IErMin= 3 ErrMin= 4.49D-02
 ErrMax= 4.49D-02  0.00D+00 EMaxC= 1.00D-01 BMatC= 2.36D+00 BMatP= 4.91D+00
 IDIUse=3 WtCom= 5.51D-01 WtEn= 4.49D-01
 EnCoef did     1 forward-backward iterations
 Coeff-Com: -0.379D+00 0.789D+00 0.590D+00
 Coeff-En:   0.438D-01 0.355D+00 0.601D+00
 Coeff:     -0.189D+00 0.594D+00 0.595D+00
 Gap=     0.073 Goal=   None    Shift=    0.000
 Gap=     0.073 Goal=   None    Shift=    0.000
 RMSDP=2.34D-02 MaxDP=2.51D+00 DE=-2.77D-01 OVMax= 2.21D-01

 Cycle   4  Pass 1  IDiag  1:
 RMSU=  1.99D-02    CP:  1.13D+00 -2.89D-03  8.08D-01
 E= -5685.80708455338     Delta-E=       -0.439185806184 Rises=F Damp=F
 DIIS: error= 1.77D-02 at cycle   4 NSaved=   4.
 NSaved= 4 IEnMin= 4 EnMin= -5685.80708455338     IErMin= 4 ErrMin= 1.77D-02
 ErrMax= 1.77D-02  0.00D+00 EMaxC= 1.00D-01 BMatC= 3.65D-01 BMatP= 2.36D+00
 IDIUse=3 WtCom= 8.23D-01 WtEn= 1.77D-01
 Coeff-Com: -0.194D+00 0.324D+00 0.293D+00 0.577D+00
 Coeff-En:   0.000D+00 0.000D+00 0.214D-01 0.979D+00
 Coeff:     -0.160D+00 0.266D+00 0.245D+00 0.648D+00
 Gap=     0.049 Goal=   None    Shift=    0.000
 Gap=     0.049 Goal=   None    Shift=    0.000
 RMSDP=7.75D-03 MaxDP=5.19D-01 DE=-4.39D-01 OVMax= 1.13D-01

 Cycle   5  Pass 1  IDiag  1:
 RMSU=  7.41D-03    CP:  1.13D+00 -2.11D-03  8.41D-01  9.41D-01
 E= -5685.85004349631     Delta-E=       -0.042958942930 Rises=F Damp=F
 DIIS: error= 1.96D-02 at cycle   5 NSaved=   5.
 NSaved= 5 IEnMin= 5 EnMin= -5685.85004349631     IErMin= 4 ErrMin= 1.77D-02
 ErrMax= 1.96D-02  0.00D+00 EMaxC= 1.00D-01 BMatC= 2.04D-01 BMatP= 3.65D-01
 IDIUse=3 WtCom= 8.04D-01 WtEn= 1.96D-01
 Coeff-Com: -0.134D+00 0.196D+00 0.961D-01 0.419D+00 0.424D+00
 Coeff-En:   0.000D+00 0.000D+00 0.000D+00 0.339D+00 0.661D+00
 Coeff:     -0.107D+00 0.157D+00 0.773D-01 0.403D+00 0.470D+00
 Gap=     0.016 Goal=   None    Shift=    0.000
 Gap=     0.016 Goal=   None    Shift=    0.000
 RMSDP=1.15D-02 MaxDP=1.55D+00 DE=-4.30D-02 OVMax= 5.96D-02

 Cycle   6  Pass 1  IDiag  1:
 RMSU=  5.45D-03    CP:  1.24D+00 -2.85D-03  1.03D+00  1.29D+00  8.11D-01
 E= -5685.89140826916     Delta-E=       -0.041364772845 Rises=F Damp=F
 DIIS: error= 1.98D-03 at cycle   6 NSaved=   6.
 NSaved= 6 IEnMin= 6 EnMin= -5685.89140826916     IErMin= 6 ErrMin= 1.98D-03
 ErrMax= 1.98D-03  0.00D+00 EMaxC= 1.00D-01 BMatC= 1.22D-02 BMatP= 2.04D-01
 IDIUse=3 WtCom= 9.80D-01 WtEn= 1.98D-02
 Coeff-Com: -0.554D-01 0.749D-01-0.115D-01 0.128D+00 0.260D+00 0.604D+00
 Coeff-En:   0.000D+00 0.000D+00 0.000D+00 0.000D+00 0.000D+00 0.100D+01
 Coeff:     -0.543D-01 0.734D-01-0.112D-01 0.126D+00 0.255D+00 0.612D+00
 Gap=     0.004 Goal=   None    Shift=    0.000
 Gap=     0.004 Goal=   None    Shift=    0.000
 RMSDP=1.26D-02 MaxDP=1.26D+00 DE=-4.14D-02 OVMax= 5.60D-02

 Cycle   7  Pass 1  IDiag  1:
 RMSU=  1.19D-02    CP:  1.28D+00 -2.39D-03  1.08D+00  1.39D+00  1.07D+00
                    CP:  1.40D+00
 E= -5685.89465810469     Delta-E=       -0.003249835537 Rises=F Damp=F
 DIIS: error= 2.40D-03 at cycle   7 NSaved=   7.
 NSaved= 7 IEnMin= 7 EnMin= -5685.89465810469     IErMin= 6 ErrMin= 1.98D-03
 ErrMax= 2.40D-03  0.00D+00 EMaxC= 1.00D-01 BMatC= 4.61D-03 BMatP= 1.22D-02
 IDIUse=3 WtCom= 9.80D-01 WtEn= 1.98D-02
 Coeff-Com: -0.159D-01 0.193D-01-0.368D-01-0.263D-01 0.441D-01 0.375D+00
 Coeff-Com:  0.641D+00
 Coeff-En:   0.000D+00 0.000D+00 0.000D+00 0.000D+00 0.000D+00 0.000D+00
 Coeff-En:   0.100D+01
 Coeff:     -0.156D-01 0.190D-01-0.360D-01-0.258D-01 0.432D-01 0.367D+00
 Coeff:      0.648D+00
 Gap=    -0.002 Goal=   None    Shift=    0.000
 Gap=    -0.002 Goal=   None    Shift=    0.000
 RMSDP=2.43D+00 MaxDP=5.42D+02 DE=-3.25D-03 OVMax= 9.27D-01

 Cycle   8  Pass 1  IDiag  1:
 RMSU=  1.93D+00    CP:  3.00D+00  5.78D-01  3.00D+00 -1.64D+00 -3.00D+00
                    CP: -3.00D+00  3.00D+00
 E= -5685.64562358814     Delta-E=        0.249034516553 Rises=F Damp=F
 DIIS: error= 1.56D-02 at cycle   8 NSaved=   8.
 NSaved= 8 IEnMin= 7 EnMin= -5685.89465810469     IErMin= 6 ErrMin= 1.98D-03
 ErrMax= 1.56D-02  0.00D+00 EMaxC= 1.00D-01 BMatC= 4.22D-01 BMatP= 4.61D-03
 IDIUse=2 WtCom= 0.00D+00 WtEn= 1.00D+00
 EnCoef did    12 forward-backward iterations
 Coeff-En:   0.000D+00 0.000D+00 0.000D+00 0.000D+00 0.000D+00 0.228D+00
 Coeff-En:   0.693D+00 0.793D-01
 Coeff:      0.000D+00 0.000D+00 0.000D+00 0.000D+00 0.000D+00 0.228D+00
 Coeff:      0.693D+00 0.793D-01
 Gap=    -0.006 Goal=   None    Shift=    0.000
 Gap=    -0.006 Goal=   None    Shift=    0.000
 RMSDP=2.40D+00 MaxDP=5.36D+02 DE= 2.49D-01 OVMax= 9.01D-01

 Cycle   9  Pass 1  IDiag  1:
 RMSU=  1.20D-02    CP:  1.45D+00  9.24D-04  1.18D+00  1.39D+00  7.69D-01
                    CP:  1.02D+00  2.80D+00  9.02D-03
 E= -5685.89407542218     Delta-E=       -0.248451834042 Rises=F Damp=F
 DIIS: error= 2.90D-03 at cycle   9 NSaved=   9.
 NSaved= 9 IEnMin= 7 EnMin= -5685.89465810469     IErMin= 6 ErrMin= 1.98D-03
 ErrMax= 2.90D-03  0.00D+00 EMaxC= 1.00D-01 BMatC= 7.30D-03 BMatP= 4.61D-03
 IDIUse=3 WtCom= 9.80D-01 WtEn= 1.98D-02
 EnCoef did    11 forward-backward iterations
 Coeff-Com: -0.595D-02 0.658D-02-0.234D-01-0.247D-01 0.142D-01 0.216D+00
 Coeff-Com:  0.587D+00 0.261D-01 0.205D+00
 Coeff-En:   0.000D+00 0.000D+00 0.000D+00 0.000D+00 0.000D+00 0.000D+00
 Coeff-En:   0.431D+00 0.758D-01 0.493D+00
 Coeff:     -0.583D-02 0.645D-02-0.229D-01-0.242D-01 0.139D-01 0.211D+00
 Coeff:      0.584D+00 0.271D-01 0.210D+00
 Gap=     0.000 Goal=   None    Shift=    0.000
 Gap=     0.000 Goal=   None    Shift=    0.000
 RMSDP=1.38D+00 MaxDP=3.03D+02 DE=-2.48D-01 OVMax= 6.40D-01

 Cycle  10  Pass 1  IDiag  1:
 RMSU=  1.07D-01    CP:  3.00D+00  3.08D-01  2.88D+00 -4.37D-01 -3.00D+00
                    CP: -3.00D+00  3.00D+00  5.90D-01 -1.39D+00
 E= -5685.82663945954     Delta-E=        0.067435962646 Rises=F Damp=F
 DIIS: error= 1.37D-02 at cycle  10 NSaved=  10.
 NSaved=10 IEnMin= 7 EnMin= -5685.89465810469     IErMin= 6 ErrMin= 1.98D-03
 ErrMax= 1.37D-02  0.00D+00 EMaxC= 1.00D-01 BMatC= 1.54D-01 BMatP= 4.61D-03
 IDIUse=2 WtCom= 0.00D+00 WtEn= 1.00D+00
 EnCoef did   100 forward-backward iterations
 Coeff-En:   0.000D+00 0.000D+00 0.000D+00 0.000D+00 0.000D+00 0.000D+00
 Coeff-En:   0.325D+00 0.198D-02 0.535D+00 0.138D+00
 Coeff:      0.000D+00 0.000D+00 0.000D+00 0.000D+00 0.000D+00 0.000D+00
 Coeff:      0.325D+00 0.198D-02 0.535D+00 0.138D+00
 Gap=     0.005 Goal=   None    Shift=    0.000
 Gap=     0.005 Goal=   None    Shift=    0.000
 RMSDP=1.26D+00 MaxDP=2.78D+02 DE= 6.74D-02 OVMax= 5.37D-01

 Cycle  11  Pass 1  IDiag  1:
 RMSU=  1.63D-02    CP:  2.03D+00  1.88D-02  1.27D+00  8.43D-01 -3.78D-01
                    CP:  3.13D-01  3.00D+00  6.03D-02  1.19D+00  3.24D-01
 E= -5685.89694276210     Delta-E=       -0.070303302561 Rises=F Damp=F
 DIIS: error= 1.72D-03 at cycle  11 NSaved=  11.
 NSaved=11 IEnMin=11 EnMin= -5685.89694276210     IErMin=11 ErrMin= 1.72D-03
 ErrMax= 1.72D-03  0.00D+00 EMaxC= 1.00D-01 BMatC= 4.81D-03 BMatP= 4.61D-03
 IDIUse=3 WtCom= 9.83D-01 WtEn= 1.72D-02
 EnCoef did     9 forward-backward iterations
 Coeff-Com: -0.674D-02 0.845D-02-0.859D-02-0.659D-02-0.131D-02-0.442D-02
 Coeff-Com:  0.298D+00-0.102D-01 0.339D+00 0.707D-01 0.322D+00
 Coeff-En:   0.000D+00 0.000D+00 0.000D+00 0.000D+00 0.000D+00 0.000D+00
 Coeff-En:   0.000D+00 0.000D+00 0.834D-01 0.109D+00 0.808D+00
 Coeff:     -0.662D-02 0.831D-02-0.844D-02-0.648D-02-0.129D-02-0.434D-02
 Coeff:      0.292D+00-0.100D-01 0.335D+00 0.713D-01 0.330D+00
 Gap=     0.004 Goal=   None    Shift=    0.000
 Gap=     0.004 Goal=   None    Shift=    0.000
 RMSDP=9.20D-01 MaxDP=1.97D+02 DE=-7.03D-02 OVMax= 4.32D-01

 Cycle  12  Pass 1  IDiag  1:
 RMSU=  5.34D-02    CP:  3.00D+00  2.13D-01  2.81D+00 -8.95D-02 -3.00D+00
                    CP: -3.00D+00  3.00D+00  4.54D-01 -2.54D+00  1.22D+00
                    CP:  6.71D-01
 E= -5685.86501206079     Delta-E=        0.031930701304 Rises=F Damp=F
 DIIS: error= 9.10D-03 at cycle  12 NSaved=  12.
 NSaved=12 IEnMin=11 EnMin= -5685.89694276210     IErMin=11 ErrMin= 1.72D-03
 ErrMax= 9.10D-03  0.00D+00 EMaxC= 1.00D-01 BMatC= 7.43D-02 BMatP= 4.61D-03
 IDIUse=3 WtCom= 9.83D-01 WtEn= 1.72D-02
 EnCoef did     7 forward-backward iterations
 Coeff-Com: -0.580D-02 0.778D-02-0.248D-04 0.585D-02-0.108D-02-0.380D-01
 Coeff-Com:  0.129D+00 0.138D-01 0.323D+00-0.293D+00 0.380D+00 0.479D+00
 Coeff-En:   0.000D+00 0.000D+00 0.000D+00 0.000D+00 0.000D+00 0.000D+00
 Coeff-En:   0.000D+00 0.000D+00 0.552D-01 0.000D+00 0.781D+00 0.163D+00
 Coeff:     -0.570D-02 0.764D-02-0.244D-04 0.575D-02-0.106D-02-0.374D-01
 Coeff:      0.126D+00 0.135D-01 0.319D+00-0.288D+00 0.387D+00 0.473D+00
 Gap=     0.008 Goal=   None    Shift=    0.000
 Gap=     0.008 Goal=   None    Shift=    0.000
 RMSDP=3.66D-01 MaxDP=7.98D+01 DE= 3.19D-02 OVMax= 1.51D-01

 Cycle  13  Pass 1  IDiag  1:
 RMSU=  7.17D-03    CP:  3.00D+00  1.27D-01  2.26D+00  8.17D-02 -3.00D+00
                    CP: -2.94D+00  3.00D+00  2.99D-01 -1.01D+00  1.05D+00
                    CP:  1.75D+00  9.62D-01
 E= -5685.89201076609     Delta-E=       -0.026998705291 Rises=F Damp=F
 DIIS: error= 3.86D-03 at cycle  13 NSaved=  13.
 NSaved=13 IEnMin=11 EnMin= -5685.89694276210     IErMin=11 ErrMin= 1.72D-03
 ErrMax= 3.86D-03  0.00D+00 EMaxC= 1.00D-01 BMatC= 1.83D-02 BMatP= 4.61D-03
 IDIUse=3 WtCom= 9.83D-01 WtEn= 1.72D-02
 Coeff-Com: -0.282D-02 0.381D-02 0.306D-04 0.439D-02 0.190D-02 0.155D-02
 Coeff-Com:  0.138D+00 0.766D-02 0.267D+00-0.132D+00 0.252D+00 0.662D-01
 Coeff-Com:  0.392D+00
 Coeff-En:   0.000D+00 0.000D+00 0.000D+00 0.000D+00 0.000D+00 0.000D+00
 Coeff-En:   0.000D+00 0.000D+00 0.000D+00 0.000D+00 0.666D+00 0.000D+00
 Coeff-En:   0.334D+00
 Coeff:     -0.278D-02 0.374D-02 0.301D-04 0.431D-02 0.187D-02 0.152D-02
 Coeff:      0.136D+00 0.752D-02 0.262D+00-0.130D+00 0.259D+00 0.650D-01
 Coeff:      0.391D+00
 Gap=     0.009 Goal=   None    Shift=    0.000
 Gap=     0.009 Goal=   None    Shift=    0.000
 RMSDP=6.15D-02 MaxDP=1.33D+01 DE=-2.70D-02 OVMax= 2.29D-02

 Cycle  14  Pass 1  IDiag  1:
 RMSU=  4.26D-03    CP:  3.00D+00  1.40D-01  2.34D+00  2.04D-02 -3.00D+00
                    CP: -3.00D+00  3.00D+00  3.25D-01 -1.23D+00  1.04D+00
                    CP:  1.74D+00  1.14D+00  1.13D+00
 E= -5685.88993665084     Delta-E=        0.002074115249 Rises=F Damp=F
 DIIS: error= 4.42D-03 at cycle  14 NSaved=  14.
 NSaved=14 IEnMin=11 EnMin= -5685.89694276210     IErMin=11 ErrMin= 1.72D-03
 ErrMax= 4.42D-03  0.00D+00 EMaxC= 1.00D-01 BMatC= 2.24D-02 BMatP= 4.61D-03
 IDIUse=3 WtCom= 9.83D-01 WtEn= 1.72D-02
 Rare condition: small coef for last iteration:  0.000D+00
 Coeff-Com: -0.206D-02 0.280D-02 0.563D-03 0.504D-02 0.373D-02 0.600D-02
 Coeff-Com:  0.131D+00 0.989D-02 0.252D+00-0.118D+00 0.237D+00-0.304D-01
 Coeff-Com:  0.164D+00 0.339D+00
 Coeff-En:   0.000D+00 0.000D+00 0.000D+00 0.000D+00 0.000D+00 0.000D+00
 Coeff-En:   0.000D+00 0.000D+00 0.000D+00 0.000D+00 0.698D+00 0.000D+00
 Coeff-En:   0.000D+00 0.302D+00
 Coeff:     -0.206D-02 0.280D-02 0.563D-03 0.504D-02 0.373D-02 0.600D-02
 Coeff:      0.131D+00 0.989D-02 0.252D+00-0.118D+00 0.237D+00-0.304D-01
 Coeff:      0.164D+00 0.339D+00
 Gap=     0.009 Goal=   None    Shift=    0.000
 Gap=     0.009 Goal=   None    Shift=    0.000
 RMSDP=1.78D-02 MaxDP=3.65D+00 DE= 2.07D-03 OVMax= 8.77D-03

 Cycle  15  Pass 1  IDiag  1:
 RMSU=  2.72D-04    CP:  3.00D+00  1.37D-01  2.30D+00  1.44D-02 -3.00D+00
                    CP: -3.00D+00  3.00D+00  3.18D-01 -1.07D+00  1.01D+00
                    CP:  1.84D+00  1.14D+00  1.24D+00  1.20D+00
 E= -5685.89105972421     Delta-E=       -0.001123073371 Rises=F Damp=F
 DIIS: error= 4.13D-03 at cycle  15 NSaved=  15.
 NSaved=15 IEnMin=11 EnMin= -5685.89694276210     IErMin=11 ErrMin= 1.72D-03
 ErrMax= 4.13D-03  0.00D+00 EMaxC= 1.00D-01 BMatC= 2.00D-02 BMatP= 4.61D-03
 IDIUse=3 WtCom= 9.83D-01 WtEn= 1.72D-02
 EnCoef did    91 forward-backward iterations
 Coeff-Com: -0.101D-02 0.137D-02 0.313D-03 0.317D-02 0.389D-02 0.106D-01
 Coeff-Com:  0.142D+00 0.115D-01 0.239D+00-0.107D+00 0.192D+00-0.763D-01
 Coeff-Com: -0.228D+00-0.506D+00 0.131D+01
 Coeff-En:   0.000D+00 0.000D+00 0.000D+00 0.000D+00 0.000D+00 0.000D+00
 Coeff-En:   0.000D+00 0.000D+00 0.000D+00 0.000D+00 0.666D+00 0.000D+00
 Coeff-En:   0.334D+00 0.000D+00 0.114D-03
 Coeff:     -0.994D-03 0.135D-02 0.307D-03 0.311D-02 0.383D-02 0.104D-01
 Coeff:      0.140D+00 0.113D-01 0.235D+00-0.105D+00 0.200D+00-0.750D-01
 Coeff:     -0.218D+00-0.497D+00 0.129D+01
 Gap=     0.009 Goal=   None    Shift=    0.000
 Gap=     0.009 Goal=   None    Shift=    0.000
 RMSDP=4.57D-02 MaxDP=9.50D+00 DE=-1.12D-03 OVMax= 2.15D-02

 Cycle  16  Pass 1  IDiag  1:
 RMSU=  5.11D-04    CP:  3.00D+00  1.27D-01  2.20D+00  1.25D-02 -3.00D+00
                    CP: -3.00D+00  3.00D+00  2.98D-01 -6.79D-01  9.44D-01
                    CP:  2.04D+00  1.11D+00  1.47D+00  1.47D+00  3.00D+00
 E= -5685.89344682646     Delta-E=       -0.002387102256 Rises=F Damp=F
 DIIS: error= 3.45D-03 at cycle  16 NSaved=  16.
 NSaved=16 IEnMin=11 EnMin= -5685.89694276210     IErMin=11 ErrMin= 1.72D-03
 ErrMax= 3.45D-03  0.00D+00 EMaxC= 1.00D-01 BMatC= 1.50D-02 BMatP= 4.61D-03
 IDIUse=3 WtCom= 9.83D-01 WtEn= 1.72D-02
 Coeff-Com: -0.116D-02 0.161D-02 0.843D-03 0.335D-02 0.339D-02 0.350D-02
 Coeff-Com:  0.133D+00 0.915D-02 0.229D+00-0.115D+00 0.185D+00 0.528D-01
 Coeff-Com: -0.357D+00-0.156D+01 0.179D+01 0.629D+00
 Coeff-En:   0.000D+00 0.000D+00 0.000D+00 0.000D+00 0.000D+00 0.000D+00
 Coeff-En:   0.000D+00 0.000D+00 0.000D+00 0.000D+00 0.634D+00 0.000D+00
 Coeff-En:   0.000D+00 0.000D+00 0.000D+00 0.366D+00
 Coeff:     -0.114D-02 0.158D-02 0.828D-03 0.329D-02 0.333D-02 0.344D-02
 Coeff:      0.131D+00 0.899D-02 0.225D+00-0.113D+00 0.193D+00 0.519D-01
 Coeff:     -0.351D+00-0.154D+01 0.176D+01 0.624D+00
 Gap=     0.010 Goal=   None    Shift=    0.000
 Gap=     0.010 Goal=   None    Shift=    0.000
 RMSDP=1.82D-02 MaxDP=3.61D+00 DE=-2.39D-03 OVMax= 9.14D-03

 Cycle  17  Pass 1  IDiag  1:
 RMSU=  4.16D-04    CP:  3.00D+00  1.23D-01  2.16D+00  5.42D-04 -3.00D+00
                    CP: -2.95D+00  3.00D+00  2.90D-01 -4.96D-01  9.03D-01
                    CP:  2.17D+00  1.14D+00  1.60D+00  1.84D+00  3.00D+00
                    CP:  1.35D+00
 E= -5685.89442010117     Delta-E=       -0.000973274708 Rises=F Damp=F
 DIIS: error= 3.15D-03 at cycle  17 NSaved=  17.
 NSaved=17 IEnMin=11 EnMin= -5685.89694276210     IErMin=11 ErrMin= 1.72D-03
 ErrMax= 3.15D-03  0.00D+00 EMaxC= 1.00D-01 BMatC= 1.28D-02 BMatP= 4.61D-03
 IDIUse=3 WtCom= 9.83D-01 WtEn= 1.72D-02
 Coeff-Com: -0.125D-02 0.175D-02 0.993D-03 0.368D-02 0.300D-02 0.510D-03
 Coeff-Com:  0.120D+00 0.645D-02 0.218D+00-0.106D+00 0.182D+00 0.107D+00
 Coeff-Com: -0.329D+00-0.168D+01 0.157D+01 0.127D+00 0.774D+00
 Coeff-En:   0.000D+00 0.000D+00 0.000D+00 0.000D+00 0.000D+00 0.000D+00
 Coeff-En:   0.000D+00 0.000D+00 0.000D+00 0.000D+00 0.607D+00 0.000D+00
 Coeff-En:   0.000D+00 0.000D+00 0.000D+00 0.000D+00 0.393D+00
 Coeff:     -0.123D-02 0.172D-02 0.976D-03 0.362D-02 0.295D-02 0.502D-03
 Coeff:      0.118D+00 0.634D-02 0.214D+00-0.104D+00 0.189D+00 0.105D+00
 Coeff:     -0.323D+00-0.165D+01 0.154D+01 0.125D+00 0.768D+00
 Gap=     0.010 Goal=   None    Shift=    0.000
 Gap=     0.010 Goal=   None    Shift=    0.000
 RMSDP=1.33D-02 MaxDP=2.63D+00 DE=-9.73D-04 OVMax= 6.59D-03

 Cycle  18  Pass 1  IDiag  1:
 RMSU=  2.54D-04    CP:  3.00D+00  1.20D-01  2.13D+00 -9.06D-03 -3.00D+00
                    CP: -2.86D+00  3.00D+00  2.85D-01 -3.68D-01  8.73D-01
                    CP:  2.28D+00  1.17D+00  1.67D+00  2.14D+00  3.00D+00
                    CP:  1.42D+00  1.76D+00
 E= -5685.89509100111     Delta-E=       -0.000670899940 Rises=F Damp=F
 DIIS: error= 2.93D-03 at cycle  18 NSaved=  18.
 NSaved=18 IEnMin=11 EnMin= -5685.89694276210     IErMin=11 ErrMin= 1.72D-03
 ErrMax= 2.93D-03  0.00D+00 EMaxC= 1.00D-01 BMatC= 1.13D-02 BMatP= 4.61D-03
 IDIUse=3 WtCom= 9.83D-01 WtEn= 1.72D-02
 Coeff-Com: -0.135D-02 0.190D-02 0.110D-02 0.413D-02 0.236D-02-0.255D-02
 Coeff-Com:  0.102D+00 0.382D-02 0.204D+00-0.902D-01 0.176D+00 0.126D+00
 Coeff-Com: -0.236D+00-0.125D+01 0.105D+01-0.526D+00 0.628D-01 0.137D+01
 Coeff-En:   0.000D+00 0.000D+00 0.000D+00 0.000D+00 0.000D+00 0.000D+00
 Coeff-En:   0.000D+00 0.000D+00 0.000D+00 0.000D+00 0.586D+00 0.000D+00
 Coeff-En:   0.000D+00 0.000D+00 0.000D+00 0.000D+00 0.000D+00 0.414D+00
 Coeff:     -0.133D-02 0.187D-02 0.109D-02 0.406D-02 0.232D-02-0.251D-02
 Coeff:      0.101D+00 0.375D-02 0.201D+00-0.887D-01 0.183D+00 0.124D+00
 Coeff:     -0.232D+00-0.123D+01 0.104D+01-0.517D+00 0.617D-01 0.135D+01
 Gap=     0.010 Goal=   None    Shift=    0.000
 Gap=     0.010 Goal=   None    Shift=    0.000
 RMSDP=2.92D-02 MaxDP=6.07D+00 DE=-6.71D-04 OVMax= 1.36D-02

 Cycle  19  Pass 1  IDiag  1:
 RMSU=  2.53D-04    CP:  3.00D+00  1.14D-01  2.07D+00 -1.53D-02 -3.00D+00
                    CP: -2.64D+00  3.00D+00  2.73D-01 -1.40D-01  8.29D-01
                    CP:  2.43D+00  1.18D+00  1.72D+00  2.47D+00  3.00D+00
                    CP:  1.40D+00  2.57D+00  3.00D+00
 E= -5685.89627871765     Delta-E=       -0.001187716541 Rises=F Damp=F
 DIIS: error= 2.51D-03 at cycle  19 NSaved=  19.
 NSaved=19 IEnMin=11 EnMin= -5685.89694276210     IErMin=11 ErrMin= 1.72D-03
 ErrMax= 2.51D-03  0.00D+00 EMaxC= 1.00D-01 BMatC= 8.64D-03 BMatP= 4.61D-03
 IDIUse=3 WtCom= 9.83D-01 WtEn= 1.72D-02
 Coeff-Com: -0.115D-02 0.162D-02 0.855D-03 0.294D-02 0.498D-03-0.227D-02
 Coeff-Com:  0.787D-01-0.145D-02 0.155D+00-0.230D-01 0.130D+00 0.105D-01
 Coeff-Com: -0.732D-01 0.582D+00 0.553D-01-0.741D-01-0.419D+01 0.113D+01
 Coeff-Com:  0.322D+01
 Coeff-En:   0.000D+00 0.000D+00 0.000D+00 0.000D+00 0.000D+00 0.000D+00
 Coeff-En:   0.000D+00 0.000D+00 0.000D+00 0.000D+00 0.536D+00 0.000D+00
 Coeff-En:   0.000D+00 0.000D+00 0.000D+00 0.000D+00 0.000D+00 0.000D+00
 Coeff-En:   0.464D+00
 Coeff:     -0.113D-02 0.159D-02 0.841D-03 0.289D-02 0.489D-03-0.224D-02
 Coeff:      0.774D-01-0.143D-02 0.152D+00-0.226D-01 0.137D+00 0.103D-01
 Coeff:     -0.720D-01 0.572D+00 0.543D-01-0.729D-01-0.411D+01 0.111D+01
 Coeff:      0.317D+01
 Gap=     0.012 Goal=   None    Shift=    0.000
 Gap=     0.012 Goal=   None    Shift=    0.000
 RMSDP=6.25D-02 MaxDP=1.31D+01 DE=-1.19D-03 OVMax= 2.98D-02

 Cycle  20  Pass 1  IDiag  1:
 RMSU=  1.46D-03    CP:  3.00D+00  1.00D-01  1.93D+00 -3.10D-02 -3.00D+00
                    CP: -2.20D+00  3.00D+00  2.46D-01  3.31D-01  7.35D-01
                    CP:  2.77D+00  1.21D+00  1.84D+00  3.00D+00  1.76D+00
                    CP:  9.46D-01  3.00D+00  3.00D+00  3.00D+00
 E= -5685.89830532552     Delta-E=       -0.002026607870 Rises=F Damp=F
 DIIS: error= 1.64D-03 at cycle  20 NSaved=  20.
 NSaved=20 IEnMin=20 EnMin= -5685.89830532552     IErMin=20 ErrMin= 1.64D-03
 ErrMax= 1.64D-03  0.00D+00 EMaxC= 1.00D-01 BMatC= 4.11D-03 BMatP= 4.61D-03
 IDIUse=3 WtCom= 9.84D-01 WtEn= 1.64D-02
 Coeff-Com: -0.563D-03 0.766D-03 0.130D-03-0.219D-03-0.611D-03-0.838D-04
 Coeff-Com:  0.378D-01-0.988D-02 0.408D-01 0.798D-01 0.346D-01-0.153D+00
 Coeff-Com: -0.463D-01 0.266D+01-0.893D+00 0.187D+01-0.732D+01-0.233D+01
 Coeff-Com:  0.522D+01 0.181D+01
 Coeff-En:   0.000D+00 0.000D+00 0.000D+00 0.000D+00 0.000D+00 0.000D+00
 Coeff-En:   0.000D+00 0.000D+00 0.000D+00 0.000D+00 0.385D+00 0.000D+00
 Coeff-En:   0.000D+00 0.000D+00 0.000D+00 0.000D+00 0.000D+00 0.000D+00
 Coeff-En:   0.000D+00 0.615D+00
 Coeff:     -0.554D-03 0.754D-03 0.128D-03-0.216D-03-0.601D-03-0.824D-04
 Coeff:      0.372D-01-0.972D-02 0.401D-01 0.785D-01 0.403D-01-0.150D+00
 Coeff:     -0.456D-01 0.262D+01-0.878D+00 0.184D+01-0.720D+01-0.230D+01
 Coeff:      0.514D+01 0.179D+01
 Gap=     0.014 Goal=   None    Shift=    0.000
 Gap=     0.014 Goal=   None    Shift=    0.000
 RMSDP=7.57D-02 MaxDP=1.59D+01 DE=-2.03D-03 OVMax= 3.93D-02

 Cycle  21  Pass 1  IDiag  1:
 Restarting incremental Fock formation.
 E= -5685.89985721012     Delta-E=       -0.001551884597 Rises=F Damp=F
 DIIS: error= 5.55D-04 at cycle  21 NSaved=  20.
 NSaved=20 IEnMin=20 EnMin= -5685.89985721012     IErMin=20 ErrMin= 5.55D-04
 ErrMax= 5.55D-04  0.00D+00 EMaxC= 1.00D-01 BMatC= 5.29D-04 BMatP= 4.11D-03
 IDIUse=3 WtCom= 9.94D-01 WtEn= 5.55D-03
 Coeff-Com: -0.165D-04 0.323D-05-0.266D-03 0.951D-03 0.157D-02 0.647D-02
 Coeff-Com: -0.502D-02-0.295D-02 0.365D-01 0.362D-02-0.542D-01-0.120D+00
 Coeff-Com:  0.814D+00-0.929D-01 0.124D+01-0.181D+01-0.211D+01 0.109D+01
 Coeff-Com:  0.990D+00 0.101D+01
 Coeff-En:   0.000D+00 0.000D+00 0.000D+00 0.000D+00 0.000D+00 0.000D+00
 Coeff-En:   0.000D+00 0.000D+00 0.000D+00 0.000D+00 0.000D+00 0.000D+00
 Coeff-En:   0.000D+00 0.000D+00 0.000D+00 0.000D+00 0.000D+00 0.000D+00
 Coeff-En:   0.000D+00 0.100D+01
 Coeff:     -0.164D-04 0.321D-05-0.264D-03 0.946D-03 0.156D-02 0.643D-02
 Coeff:     -0.500D-02-0.293D-02 0.363D-01 0.360D-02-0.539D-01-0.119D+00
 Coeff:      0.809D+00-0.924D-01 0.124D+01-0.180D+01-0.210D+01 0.109D+01
 Coeff:      0.985D+00 0.101D+01
 Gap=     0.015 Goal=   None    Shift=    0.000
 Gap=     0.015 Goal=   None    Shift=    0.000
 RMSDP=3.15D-02 MaxDP=7.37D+00 DE=-1.55D-03 OVMax= 1.96D-02

 Cycle  22  Pass 1  IDiag  1:
 RMSU=  9.36D-03    CP:  9.44D-01
 E= -5685.90008074056     Delta-E=       -0.000223530445 Rises=F Damp=F
 DIIS: error= 1.08D-04 at cycle  22 NSaved=  20.
 NSaved=20 IEnMin=20 EnMin= -5685.90008074056     IErMin=20 ErrMin= 1.08D-04
 ErrMax= 1.08D-04  0.00D+00 EMaxC= 1.00D-01 BMatC= 1.69D-05 BMatP= 5.29D-04
 IDIUse=3 WtCom= 9.99D-01 WtEn= 1.08D-03
 Coeff-Com:  0.145D-04 0.142D-03 0.594D-03 0.908D-03-0.787D-03-0.862D-03
 Coeff-Com: -0.151D-02 0.294D-02 0.276D-03 0.995D-02-0.206D-01-0.124D+00
 Coeff-Com:  0.114D+00 0.273D+00 0.391D+00-0.621D+00-0.355D+00 0.158D+00
 Coeff-Com:  0.453D+00 0.721D+00
 Coeff-En:   0.000D+00 0.000D+00 0.000D+00 0.000D+00 0.000D+00 0.000D+00
 Coeff-En:   0.000D+00 0.000D+00 0.000D+00 0.000D+00 0.000D+00 0.000D+00
 Coeff-En:   0.000D+00 0.000D+00 0.000D+00 0.000D+00 0.000D+00 0.000D+00
 Coeff-En:   0.000D+00 0.100D+01
 Coeff:      0.145D-04 0.142D-03 0.593D-03 0.907D-03-0.786D-03-0.861D-03
 Coeff:     -0.151D-02 0.293D-02 0.275D-03 0.994D-02-0.206D-01-0.124D+00
 Coeff:      0.114D+00 0.272D+00 0.391D+00-0.620D+00-0.355D+00 0.158D+00
 Coeff:      0.453D+00 0.721D+00
 Gap=     0.015 Goal=   None    Shift=    0.000
 Gap=     0.016 Goal=   None    Shift=    0.000
 RMSDP=1.16D-02 MaxDP=3.42D+00 DE=-2.24D-04 OVMax= 8.59D-03

 Cycle  23  Pass 1  IDiag  1:
 RMSU=  6.31D-03    CP:  9.28D-01  1.52D+00
 E= -5685.90009037426     Delta-E=       -0.000009633698 Rises=F Damp=F
 DIIS: error= 2.83D-05 at cycle  23 NSaved=  20.
 NSaved=20 IEnMin=20 EnMin= -5685.90009037426     IErMin=20 ErrMin= 2.83D-05
 ErrMax= 2.83D-05  0.00D+00 EMaxC= 1.00D-01 BMatC= 2.78D-07 BMatP= 1.69D-05
 IDIUse=1 WtCom= 1.00D+00 WtEn= 0.00D+00
 Coeff-Com:  0.113D-03 0.560D-03 0.958D-03-0.509D-03-0.856D-03-0.137D-02
 Coeff-Com:  0.319D-02 0.239D-03 0.857D-02-0.183D-01-0.113D+00 0.106D+00
 Coeff-Com:  0.260D+00 0.360D+00-0.592D+00-0.328D+00 0.153D+00 0.428D+00
 Coeff-Com:  0.680D+00 0.547D-01
 Coeff:      0.113D-03 0.560D-03 0.958D-03-0.509D-03-0.856D-03-0.137D-02
 Coeff:      0.319D-02 0.239D-03 0.857D-02-0.183D-01-0.113D+00 0.106D+00
 Coeff:      0.260D+00 0.360D+00-0.592D+00-0.328D+00 0.153D+00 0.428D+00
 Coeff:      0.680D+00 0.547D-01
 Gap=     0.015 Goal=   None    Shift=    0.000
 Gap=     0.016 Goal=   None    Shift=    0.000
 RMSDP=1.16D-03 MaxDP=3.14D-01 DE=-9.63D-06 OVMax= 6.82D-04

 Cycle  24  Pass 1  IDiag  1:
 RMSU=  1.89D-04    CP:  9.29D-01  1.57D+00  1.15D+00
 E= -5685.90009071928     Delta-E=       -0.000000345018 Rises=F Damp=F
 DIIS: error= 2.59D-05 at cycle  24 NSaved=  20.
 NSaved=20 IEnMin=20 EnMin= -5685.90009071928     IErMin=20 ErrMin= 2.59D-05
 ErrMax= 2.59D-05  0.00D+00 EMaxC= 1.00D-01 BMatC= 2.39D-07 BMatP= 2.78D-07
 IDIUse=1 WtCom= 1.00D+00 WtEn= 0.00D+00
 Coeff-Com:  0.202D-03 0.506D-03 0.901D-03-0.132D-02 0.192D-04-0.126D-02
 Coeff-Com:  0.821D-03 0.116D-01 0.321D-04-0.264D+00 0.146D+00 0.693D-01
 Coeff-Com:  0.682D+00-0.291D+00-0.503D+00 0.688D-02 0.272D+00 0.705D+00
 Coeff-Com:  0.669D+01-0.652D+01
 Coeff:      0.202D-03 0.506D-03 0.901D-03-0.132D-02 0.192D-04-0.126D-02
 Coeff:      0.821D-03 0.116D-01 0.321D-04-0.264D+00 0.146D+00 0.693D-01
 Coeff:      0.682D+00-0.291D+00-0.503D+00 0.688D-02 0.272D+00 0.705D+00
 Coeff:      0.669D+01-0.652D+01
 Gap=     0.015 Goal=   None    Shift=    0.000
 Gap=     0.015 Goal=   None    Shift=    0.000
 RMSDP=1.35D-02 MaxDP=2.97D+00 DE=-3.45D-07 OVMax= 6.55D-03

 Cycle  25  Pass 1  IDiag  1:
 RMSU=  1.59D-03    CP:  9.28D-01  8.21D-01 -6.42D-01 -3.00D+00
 E= -5685.90008836281     Delta-E=        0.000002356473 Rises=F Damp=F
 DIIS: error= 9.70D-06 at cycle  25 NSaved=  20.
 NSaved=20 IEnMin=19 EnMin= -5685.90009071928     IErMin=20 ErrMin= 9.70D-06
 ErrMax= 9.70D-06  0.00D+00 EMaxC= 1.00D-01 BMatC= 6.17D-08 BMatP= 2.39D-07
 IDIUse=1 WtCom= 1.00D+00 WtEn= 0.00D+00
 Coeff-Com: -0.240D-05 0.176D-03-0.162D-03 0.276D-03 0.428D-03 0.138D-03
 Coeff-Com:  0.925D-03 0.671D-02-0.833D-01 0.470D-01-0.161D-01 0.158D+00
 Coeff-Com: -0.120D-01-0.102D+00-0.136D-01 0.198D-01 0.158D+00 0.366D+01
 Coeff-Com: -0.360D+01 0.776D+00
 Coeff:     -0.240D-05 0.176D-03-0.162D-03 0.276D-03 0.428D-03 0.138D-03
 Coeff:      0.925D-03 0.671D-02-0.833D-01 0.470D-01-0.161D-01 0.158D+00
 Coeff:     -0.120D-01-0.102D+00-0.136D-01 0.198D-01 0.158D+00 0.366D+01
 Coeff:     -0.360D+01 0.776D+00
 Gap=     0.015 Goal=   None    Shift=    0.000
 Gap=     0.015 Goal=   None    Shift=    0.000
 RMSDP=2.93D-03 MaxDP=8.85D-01 DE= 2.36D-06 OVMax= 1.78D-03

 Cycle  26  Pass 1  IDiag  1:
 RMSU=  2.32D-04    CP:  9.31D-01  6.66D-01 -9.24D-01 -3.00D+00  1.27D+00
 E= -5685.90008829538     Delta-E=        0.000000067430 Rises=F Damp=F
 DIIS: error= 7.51D-06 at cycle  26 NSaved=  20.
 NSaved=20 IEnMin=18 EnMin= -5685.90009071928     IErMin=20 ErrMin= 7.51D-06
 ErrMax= 7.51D-06  0.00D+00 EMaxC= 1.00D-01 BMatC= 9.99D-08 BMatP= 6.17D-08
 IDIUse=1 WtCom= 1.00D+00 WtEn= 0.00D+00
 Coeff-Com: -0.199D-04 0.126D-03 0.574D-04 0.163D-03-0.114D-03 0.822D-04
 Coeff-Com:  0.436D-02-0.271D-01 0.121D-01-0.252D-01 0.397D-01 0.418D-01
 Coeff-Com: -0.287D-01-0.158D-01-0.167D-01 0.113D-01 0.112D+01-0.111D+01
 Coeff-Com:  0.375D+00 0.620D+00
 Coeff:     -0.199D-04 0.126D-03 0.574D-04 0.163D-03-0.114D-03 0.822D-04
 Coeff:      0.436D-02-0.271D-01 0.121D-01-0.252D-01 0.397D-01 0.418D-01
 Coeff:     -0.287D-01-0.158D-01-0.167D-01 0.113D-01 0.112D+01-0.111D+01
 Coeff:      0.375D+00 0.620D+00
 Gap=     0.015 Goal=   None    Shift=    0.000
 Gap=     0.015 Goal=   None    Shift=    0.000
 RMSDP=3.24D-04 MaxDP=6.34D-02 DE= 6.74D-08 OVMax= 2.94D-04

 Cycle  27  Pass 1  IDiag  1:
 RMSU=  3.49D-05    CP:  9.31D-01  6.48D-01 -9.41D-01 -3.00D+00  1.39D+00
                    CP:  1.36D+00
 E= -5685.90008833325     Delta-E=       -0.000000037879 Rises=F Damp=F
 DIIS: error= 3.41D-06 at cycle  27 NSaved=  20.
 NSaved=20 IEnMin=17 EnMin= -5685.90009071928     IErMin=20 ErrMin= 3.41D-06
 ErrMax= 3.41D-06  0.00D+00 EMaxC= 1.00D-01 BMatC= 2.34D-08 BMatP= 6.17D-08
 IDIUse=1 WtCom= 1.00D+00 WtEn= 0.00D+00
 Coeff-Com:  0.144D-04 0.933D-04 0.288D-04 0.661D-04-0.324D-03 0.135D-02
 Coeff-Com:  0.100D-01-0.815D-02 0.206D-02-0.207D-01 0.702D-02 0.110D-01
 Coeff-Com: -0.747D-04-0.990D-02-0.346D-01-0.371D+00 0.366D+00-0.290D-01
 Coeff-Com:  0.167D+00 0.908D+00
 Coeff:      0.144D-04 0.933D-04 0.288D-04 0.661D-04-0.324D-03 0.135D-02
 Coeff:      0.100D-01-0.815D-02 0.206D-02-0.207D-01 0.702D-02 0.110D-01
 Coeff:     -0.747D-04-0.990D-02-0.346D-01-0.371D+00 0.366D+00-0.290D-01
 Coeff:      0.167D+00 0.908D+00
 Gap=     0.015 Goal=   None    Shift=    0.000
 Gap=     0.015 Goal=   None    Shift=    0.000
 RMSDP=2.20D-04 MaxDP=2.89D-02 DE=-3.79D-08 OVMax= 1.61D-04

 Cycle  28  Pass 1  IDiag  1:
 RMSU=  1.22D-05    CP:  9.31D-01  6.41D-01 -9.28D-01 -3.00D+00  1.47D+00
                    CP:  1.63D+00  2.22D+00
 E= -5685.90008834421     Delta-E=       -0.000000010957 Rises=F Damp=F
 DIIS: error= 6.46D-07 at cycle  28 NSaved=  20.
 NSaved=20 IEnMin=16 EnMin= -5685.90009071928     IErMin=20 ErrMin= 6.46D-07
 ErrMax= 6.46D-07  0.00D+00 EMaxC= 1.00D-01 BMatC= 9.06D-10 BMatP= 2.34D-08
 IDIUse=1 WtCom= 1.00D+00 WtEn= 0.00D+00
 Coeff-Com: -0.348D-04-0.217D-04-0.195D-04 0.107D-03 0.787D-03 0.962D-02
 Coeff-Com: -0.851D-02 0.241D-02-0.124D-01-0.432D-03 0.798D-02 0.135D-02
 Coeff-Com: -0.343D-02-0.220D-01-0.399D+00 0.395D+00-0.763D-01-0.351D-01
 Coeff-Com:  0.403D+00 0.736D+00
 Coeff:     -0.348D-04-0.217D-04-0.195D-04 0.107D-03 0.787D-03 0.962D-02
 Coeff:     -0.851D-02 0.241D-02-0.124D-01-0.432D-03 0.798D-02 0.135D-02
 Coeff:     -0.343D-02-0.220D-01-0.399D+00 0.395D+00-0.763D-01-0.351D-01
 Coeff:      0.403D+00 0.736D+00
 Gap=     0.015 Goal=   None    Shift=    0.000
 Gap=     0.015 Goal=   None    Shift=    0.000
 RMSDP=9.50D-05 MaxDP=1.62D-02 DE=-1.10D-08 OVMax= 4.45D-05

 Cycle  29  Pass 1  IDiag  1:
 RMSU=  2.64D-06    CP:  9.31D-01  6.37D-01 -9.21D-01 -3.00D+00  1.50D+00
                    CP:  1.80D+00  3.00D+00  1.55D+00
 E= -5685.90008834474     Delta-E=       -0.000000000528 Rises=F Damp=F
 DIIS: error= 1.19D-07 at cycle  29 NSaved=  20.
 NSaved=20 IEnMin=15 EnMin= -5685.90009071928     IErMin=20 ErrMin= 1.19D-07
 ErrMax= 1.19D-07  0.00D+00 EMaxC= 1.00D-01 BMatC= 1.67D-11 BMatP= 9.06D-10
 IDIUse=1 WtCom= 1.00D+00 WtEn= 0.00D+00
 Coeff-Com:  0.341D-05-0.170D-04-0.777D-05-0.234D-04 0.104D-03 0.331D-03
 Coeff-Com: -0.273D-03 0.189D-02-0.229D-02-0.459D-03 0.313D-03 0.165D-02
 Coeff-Com:  0.265D-02 0.826D-02-0.848D-02-0.237D-02-0.347D-01-0.128D+00
 Coeff-Com:  0.166D+00 0.995D+00
 Coeff:      0.341D-05-0.170D-04-0.777D-05-0.234D-04 0.104D-03 0.331D-03
 Coeff:     -0.273D-03 0.189D-02-0.229D-02-0.459D-03 0.313D-03 0.165D-02
 Coeff:      0.265D-02 0.826D-02-0.848D-02-0.237D-02-0.347D-01-0.128D+00
 Coeff:      0.166D+00 0.995D+00
 Gap=     0.015 Goal=   None    Shift=    0.000
 Gap=     0.015 Goal=   None    Shift=    0.000
 RMSDP=5.68D-05 MaxDP=5.71D-03 DE=-5.28D-10 OVMax= 2.69D-05

 Cycle  30  Pass 1  IDiag  1:
 RMSU=  2.46D-05    CP:  9.31D-01  6.34D-01 -9.17D-01 -3.00D+00  1.52D+00
                    CP:  1.87D+00  3.00D+00  1.82D+00  2.90D+00
 E= -5685.90008834474     Delta-E=       -0.000000000004 Rises=F Damp=F
 DIIS: error= 6.16D-08 at cycle  30 NSaved=  20.
 NSaved=20 IEnMin=14 EnMin= -5685.90009071928     IErMin=20 ErrMin= 6.16D-08
 ErrMax= 6.16D-08  0.00D+00 EMaxC= 1.00D-01 BMatC= 8.52D-12 BMatP= 1.67D-11
 IDIUse=1 WtCom= 1.00D+00 WtEn= 0.00D+00
 Coeff-Com:  0.626D-05-0.146D-04-0.194D-04-0.233D-04 0.790D-04-0.404D-03
 Coeff-Com:  0.972D-03-0.559D-03-0.189D-03-0.921D-05 0.630D-03 0.170D-02
 Coeff-Com:  0.134D-01-0.136D-01 0.185D-02-0.891D-02-0.622D-01-0.198D-01
 Coeff-Com:  0.302D+00 0.785D+00
 Coeff:      0.626D-05-0.146D-04-0.194D-04-0.233D-04 0.790D-04-0.404D-03
 Coeff:      0.972D-03-0.559D-03-0.189D-03-0.921D-05 0.630D-03 0.170D-02
 Coeff:      0.134D-01-0.136D-01 0.185D-02-0.891D-02-0.622D-01-0.198D-01
 Coeff:      0.302D+00 0.785D+00
 Gap=     0.015 Goal=   None    Shift=    0.000
 Gap=     0.015 Goal=   None    Shift=    0.000
 RMSDP=2.05D-05 MaxDP=2.36D-03 DE=-3.64D-12 OVMax= 1.12D-05

 Cycle  31  Pass 1  IDiag  1:
 RMSU=  3.09D-06    CP:  9.31D-01  6.33D-01 -9.16D-01 -3.00D+00  1.52D+00
                    CP:  1.89D+00  3.00D+00  1.85D+00  3.00D+00  1.41D+00
 E= -5685.90008834477     Delta-E=       -0.000000000025 Rises=F Damp=F
 DIIS: error= 1.96D-07 at cycle  31 NSaved=  20.
 NSaved=20 IEnMin=13 EnMin= -5685.90009071928     IErMin=19 ErrMin= 6.16D-08
 ErrMax= 1.96D-07  0.00D+00 EMaxC= 1.00D-01 BMatC= 6.80D-11 BMatP= 8.52D-12
 IDIUse=1 WtCom= 1.00D+00 WtEn= 0.00D+00
 Coeff-Com: -0.613D-05-0.772D-05 0.305D-06-0.430D-04-0.173D-03-0.114D-03
 Coeff-Com:  0.139D-03 0.357D-03 0.319D-04 0.148D-04 0.100D-02 0.199D-01
 Coeff-Com: -0.201D-01 0.582D-02 0.677D-02-0.160D-01-0.775D-01-0.109D+00
 Coeff-Com:  0.305D+00 0.885D+00
 Coeff:     -0.613D-05-0.772D-05 0.305D-06-0.430D-04-0.173D-03-0.114D-03
 Coeff:      0.139D-03 0.357D-03 0.319D-04 0.148D-04 0.100D-02 0.199D-01
 Coeff:     -0.201D-01 0.582D-02 0.677D-02-0.160D-01-0.775D-01-0.109D+00
 Coeff:      0.305D+00 0.885D+00
 Gap=     0.015 Goal=   None    Shift=    0.000
 Gap=     0.015 Goal=   None    Shift=    0.000
 RMSDP=1.71D-05 MaxDP=2.56D-03 DE=-2.55D-11 OVMax= 1.01D-05

 Cycle  32  Pass 1  IDiag  1:
 RMSU=  2.12D-07    CP:  9.31D-01  6.32D-01 -9.15D-01 -3.00D+00  1.53D+00
                    CP:  1.90D+00  3.00D+00  1.87D+00  3.00D+00  1.74D+00
                    CP:  2.12D+00
 E= -5685.90008834483     Delta-E=       -0.000000000065 Rises=F Damp=F
 DIIS: error= 7.67D-08 at cycle  32 NSaved=  20.
 NSaved=20 IEnMin=12 EnMin= -5685.90009071928     IErMin=18 ErrMin= 6.16D-08
 ErrMax= 7.67D-08  0.00D+00 EMaxC= 1.00D-01 BMatC= 1.14D-11 BMatP= 8.52D-12
 IDIUse=1 WtCom= 1.00D+00 WtEn= 0.00D+00
 Coeff-Com: -0.150D-05-0.355D-05-0.274D-06-0.581D-05-0.206D-03 0.398D-04
 Coeff-Com:  0.239D-03 0.775D-04-0.113D-03 0.502D-04 0.567D-02-0.581D-02
 Coeff-Com:  0.271D-02 0.526D-02 0.584D-02-0.277D-01-0.918D-01-0.638D-02
 Coeff-Com:  0.334D+00 0.778D+00
 Coeff:     -0.150D-05-0.355D-05-0.274D-06-0.581D-05-0.206D-03 0.398D-04
 Coeff:      0.239D-03 0.775D-04-0.113D-03 0.502D-04 0.567D-02-0.581D-02
 Coeff:      0.271D-02 0.526D-02 0.584D-02-0.277D-01-0.918D-01-0.638D-02
 Coeff:      0.334D+00 0.778D+00
 Gap=     0.015 Goal=   None    Shift=    0.000
 Gap=     0.015 Goal=   None    Shift=    0.000
 RMSDP=4.80D-06 MaxDP=8.99D-04 DE=-6.55D-11 OVMax= 3.64D-06

 Cycle  33  Pass 1  IDiag  1:
 RMSU=  1.21D-07    CP:  9.31D-01  6.32D-01 -9.15D-01 -3.00D+00  1.53D+00
                    CP:  1.91D+00  3.00D+00  1.85D+00  3.00D+00  1.82D+00
                    CP:  2.65D+00  2.05D+00
 E= -5685.90008834485     Delta-E=       -0.000000000015 Rises=F Damp=F
 DIIS: error= 1.48D-08 at cycle  33 NSaved=  20.
 NSaved=20 IEnMin=11 EnMin= -5685.90009071928     IErMin=20 ErrMin= 1.48D-08
 ErrMax= 1.48D-08  0.00D+00 EMaxC= 1.00D-01 BMatC= 5.40D-13 BMatP= 8.52D-12
 IDIUse=1 WtCom= 1.00D+00 WtEn= 0.00D+00
 Coeff-Com:  0.190D-05 0.125D-05 0.974D-06-0.216D-03 0.130D-03 0.149D-03
 Coeff-Com:  0.138D-04-0.142D-03-0.386D-03-0.446D-02 0.436D-02-0.204D-03
 Coeff-Com:  0.176D-02 0.735D-02-0.155D-02-0.315D-01-0.493D-01 0.281D-02
 Coeff-Com:  0.311D+00 0.760D+00
 Coeff:      0.190D-05 0.125D-05 0.974D-06-0.216D-03 0.130D-03 0.149D-03
 Coeff:      0.138D-04-0.142D-03-0.386D-03-0.446D-02 0.436D-02-0.204D-03
 Coeff:      0.176D-02 0.735D-02-0.155D-02-0.315D-01-0.493D-01 0.281D-02
 Coeff:      0.311D+00 0.760D+00
 Gap=     0.015 Goal=   None    Shift=    0.000
 Gap=     0.015 Goal=   None    Shift=    0.000
 RMSDP=2.79D-06 MaxDP=5.71D-04 DE=-1.46D-11 OVMax= 1.79D-06

 Cycle  34  Pass 1  IDiag  1:
 RMSU=  2.70D-08    CP:  9.31D-01  6.32D-01 -9.15D-01 -3.00D+00  1.53D+00
                    CP:  1.91D+00  3.00D+00  1.84D+00  3.00D+00  1.86D+00
                    CP:  2.94D+00  2.75D+00  1.86D+00
 E= -5685.90008834481     Delta-E=        0.000000000035 Rises=F Damp=F
 DIIS: error= 1.60D-08 at cycle  34 NSaved=  20.
 NSaved=20 IEnMin=10 EnMin= -5685.90009071928     IErMin=19 ErrMin= 1.48D-08
 ErrMax= 1.60D-08  0.00D+00 EMaxC= 1.00D-01 BMatC= 4.62D-13 BMatP= 5.40D-13
 IDIUse=1 WtCom= 1.00D+00 WtEn= 0.00D+00
 Coeff-Com: -0.756D-08 0.928D-07-0.160D-04 0.486D-04-0.338D-04-0.115D-04
 Coeff-Com: -0.190D-04-0.165D-03-0.325D-02 0.321D-02-0.575D-03-0.131D-03
 Coeff-Com:  0.152D-02 0.521D-02 0.757D-02-0.277D-01-0.722D-01 0.342D-01
 Coeff-Com:  0.451D+00 0.601D+00
 Coeff:     -0.756D-08 0.928D-07-0.160D-04 0.486D-04-0.338D-04-0.115D-04
 Coeff:     -0.190D-04-0.165D-03-0.325D-02 0.321D-02-0.575D-03-0.131D-03
 Coeff:      0.152D-02 0.521D-02 0.757D-02-0.277D-01-0.722D-01 0.342D-01
 Coeff:      0.451D+00 0.601D+00
 Gap=     0.015 Goal=   None    Shift=    0.000
 Gap=     0.015 Goal=   None    Shift=    0.000
 RMSDP=1.65D-06 MaxDP=3.48D-04 DE= 3.55D-11 OVMax= 8.63D-07

 Cycle  35  Pass 1  IDiag  1:
 RMSU=  1.57D-07    CP:  9.31D-01  6.32D-01 -9.15D-01 -3.00D+00  1.53D+00
                    CP:  1.91D+00  3.00D+00  1.83D+00  3.00D+00  1.87D+00
                    CP:  3.00D+00  3.00D+00  2.29D+00  1.76D+00
 E= -5685.90008834477     Delta-E=        0.000000000041 Rises=F Damp=F
 DIIS: error= 2.71D-09 at cycle  35 NSaved=  20.
 NSaved=20 IEnMin= 9 EnMin= -5685.90009071928     IErMin=20 ErrMin= 2.71D-09
 ErrMax= 2.71D-09  0.00D+00 EMaxC= 1.00D-01 BMatC= 1.88D-14 BMatP= 4.62D-13
 IDIUse=1 WtCom= 1.00D+00 WtEn= 0.00D+00
 Coeff-Com: -0.490D-07-0.765D-07 0.264D-04-0.291D-04-0.121D-04 0.244D-05
 Coeff-Com: -0.280D-04-0.822D-03 0.829D-03-0.238D-03-0.251D-03 0.986D-04
 Coeff-Com:  0.343D-02 0.847D-02-0.821D-02-0.417D-01-0.483D-01 0.523D-01
 Coeff-Com:  0.199D+00 0.836D+00
 Coeff:     -0.490D-07-0.765D-07 0.264D-04-0.291D-04-0.121D-04 0.244D-05
 Coeff:     -0.280D-04-0.822D-03 0.829D-03-0.238D-03-0.251D-03 0.986D-04
 Coeff:      0.343D-02 0.847D-02-0.821D-02-0.417D-01-0.483D-01 0.523D-01
 Coeff:      0.199D+00 0.836D+00
 Gap=     0.015 Goal=   None    Shift=    0.000
 Gap=     0.015 Goal=   None    Shift=    0.000
 RMSDP=3.75D-07 MaxDP=5.31D-05 DE= 4.09D-11 OVMax= 2.63D-07

 Cycle  36  Pass 1  IDiag  1:
 RMSU=  2.74D-08    CP:  9.31D-01  6.32D-01 -9.15D-01 -3.00D+00  1.53D+00
                    CP:  1.91D+00  3.00D+00  1.82D+00  3.00D+00  1.87D+00
                    CP:  3.00D+00  3.00D+00  2.67D+00  2.52D+00  2.66D+00
 E= -5685.90008834477     Delta-E=        0.000000000002 Rises=F Damp=F
 DIIS: error= 1.51D-09 at cycle  36 NSaved=  20.
 NSaved=20 IEnMin= 8 EnMin= -5685.90009071928     IErMin=20 ErrMin= 1.51D-09
 ErrMax= 1.51D-09  0.00D+00 EMaxC= 1.00D-01 BMatC= 4.57D-15 BMatP= 1.88D-14
 IDIUse=1 WtCom= 1.00D+00 WtEn= 0.00D+00
 Large coefficients: NSaved= 20 BigCof=    0.00 CofMax=   10.00 Det=-1.51D-15
 Inversion failed.  Reducing to 19 matrices.
 Large coefficients: NSaved= 19 BigCof=    0.00 CofMax=   10.00 Det=-1.63D-15
 Inversion failed.  Reducing to 18 matrices.
 Large coefficients: NSaved= 18 BigCof=    0.00 CofMax=   10.00 Det=-1.69D-15
 Inversion failed.  Reducing to 17 matrices.
 Large coefficients: NSaved= 17 BigCof=    0.00 CofMax=   10.00 Det=-1.69D-15
 Inversion failed.  Reducing to 16 matrices.
 Large coefficients: NSaved= 16 BigCof=    0.00 CofMax=   10.00 Det=-1.75D-15
 Inversion failed.  Reducing to 15 matrices.
 Coeff-Com:  0.601D-05 0.626D-04-0.594D-04-0.923D-07-0.174D-04-0.148D-03
 Coeff-Com:  0.305D-03 0.151D-02 0.331D-02-0.110D-02-0.267D-01-0.519D-01
 Coeff-Com: -0.448D-01 0.315D+00 0.805D+00
 Coeff:      0.601D-05 0.626D-04-0.594D-04-0.923D-07-0.174D-04-0.148D-03
 Coeff:      0.305D-03 0.151D-02 0.331D-02-0.110D-02-0.267D-01-0.519D-01
 Coeff:     -0.448D-01 0.315D+00 0.805D+00
 Gap=     0.015 Goal=   None    Shift=    0.000
 Gap=     0.015 Goal=   None    Shift=    0.000
 RMSDP=1.86D-07 MaxDP=3.59D-05 DE= 1.82D-12 OVMax= 1.43D-07

 Cycle  37  Pass 1  IDiag  1:
 RMSU=  1.68D-08    CP:  9.31D-01  6.32D-01 -9.15D-01 -3.00D+00  1.53D+00
                    CP:  1.91D+00  3.00D+00  1.82D+00  3.00D+00  1.87D+00
                    CP:  3.00D+00  3.00D+00  2.82D+00  3.00D+00  3.00D+00
                    CP:  1.28D+00
 E= -5685.90008834482     Delta-E=       -0.000000000051 Rises=F Damp=F
 DIIS: error= 9.39D-10 at cycle  37 NSaved=  16.
 NSaved=16 IEnMin= 3 EnMin= -5685.90009071928     IErMin=16 ErrMin= 9.39D-10
 ErrMax= 9.39D-10  0.00D+00 EMaxC= 1.00D-01 BMatC= 1.56D-15 BMatP= 4.57D-15
 IDIUse=1 WtCom= 1.00D+00 WtEn= 0.00D+00
 Large coefficients: NSaved= 16 BigCof=    0.00 CofMax=   10.00 Det=-6.90D-16
 Inversion failed.  Reducing to 15 matrices.
 Coeff-Com: -0.212D-04 0.204D-04-0.615D-05-0.362D-05-0.627D-04 0.785D-04
 Coeff-Com:  0.365D-03 0.193D-02 0.787D-03-0.129D-01-0.283D-01-0.349D-01
 Coeff-Com:  0.109D+00 0.465D+00 0.499D+00
 Coeff:     -0.212D-04 0.204D-04-0.615D-05-0.362D-05-0.627D-04 0.785D-04
 Coeff:      0.365D-03 0.193D-02 0.787D-03-0.129D-01-0.283D-01-0.349D-01
 Coeff:      0.109D+00 0.465D+00 0.499D+00
 Gap=     0.015 Goal=   None    Shift=    0.000
 Gap=     0.015 Goal=   None    Shift=    0.000
 RMSDP=7.52D-08 MaxDP=1.64D-05 DE=-5.09D-11 OVMax= 4.43D-08

 Cycle  38  Pass 1  IDiag  1:
 RMSU=  6.52D-09    CP:  9.31D-01  6.32D-01 -9.15D-01 -3.00D+00  1.53D+00
                    CP:  1.91D+00  3.00D+00  1.82D+00  3.00D+00  1.87D+00
                    CP:  3.00D+00  3.00D+00  2.85D+00  3.00D+00  3.00D+00
                    CP:  1.31D+00  1.70D+00
 E= -5685.90008834472     Delta-E=        0.000000000098 Rises=F Damp=F
 DIIS: error= 2.40D-10 at cycle  38 NSaved=  16.
 NSaved=16 IEnMin= 2 EnMin= -5685.90009071928     IErMin=16 ErrMin= 2.40D-10
 ErrMax= 2.40D-10  0.00D+00 EMaxC= 1.00D-01 BMatC= 1.09D-16 BMatP= 1.56D-15
 IDIUse=1 WtCom= 1.00D+00 WtEn= 0.00D+00
 Large coefficients: NSaved= 16 BigCof=    0.00 CofMax=   10.00 Det=-1.38D-16
 Inversion failed.  Reducing to 15 matrices.
 Coeff-Com: -0.978D-05 0.912D-05-0.239D-05-0.753D-06 0.783D-05-0.119D-03
 Coeff-Com:  0.439D-03 0.926D-03-0.208D-02-0.974D-02-0.189D-01 0.132D-01
 Coeff-Com:  0.131D+00 0.249D+00 0.637D+00
 Coeff:     -0.978D-05 0.912D-05-0.239D-05-0.753D-06 0.783D-05-0.119D-03
 Coeff:      0.439D-03 0.926D-03-0.208D-02-0.974D-02-0.189D-01 0.132D-01
 Coeff:      0.131D+00 0.249D+00 0.637D+00
 Gap=     0.015 Goal=   None    Shift=    0.000
 Gap=     0.015 Goal=   None    Shift=    0.000
 RMSDP=4.63D-08 MaxDP=9.12D-06 DE= 9.82D-11 OVMax= 1.95D-08

 Cycle  39  Pass 1  IDiag  1:
 RMSU=  2.51D-09    CP:  9.31D-01  6.32D-01 -9.15D-01 -3.00D+00  1.53D+00
                    CP:  1.91D+00  3.00D+00  1.82D+00  3.00D+00  1.87D+00
                    CP:  3.00D+00  3.00D+00  2.87D+00  3.00D+00  3.00D+00
                    CP:  1.32D+00  2.05D+00  1.39D+00
 E= -5685.90008834480     Delta-E=       -0.000000000075 Rises=F Damp=F
 DIIS: error= 1.03D-10 at cycle  39 NSaved=  16.
 NSaved=16 IEnMin= 2 EnMin= -5685.90009071928     IErMin=16 ErrMin= 1.03D-10
 ErrMax= 1.03D-10  0.00D+00 EMaxC= 1.00D-01 BMatC= 1.99D-17 BMatP= 1.09D-16
 IDIUse=1 WtCom= 1.00D+00 WtEn= 0.00D+00
 Large coefficients: NSaved= 16 BigCof=    0.00 CofMax=   10.00 Det=-2.05D-17
 Inversion failed.  Reducing to 15 matrices.
 Coeff-Com: -0.926D-05 0.877D-05-0.153D-05-0.167D-05-0.101D-03-0.154D-05
 Coeff-Com:  0.233D-03 0.781D-03-0.670D-03-0.381D-02-0.138D-01-0.636D-02
 Coeff-Com:  0.563D-01 0.325D+00 0.643D+00
 Coeff:     -0.926D-05 0.877D-05-0.153D-05-0.167D-05-0.101D-03-0.154D-05
 Coeff:      0.233D-03 0.781D-03-0.670D-03-0.381D-02-0.138D-01-0.636D-02
 Coeff:      0.563D-01 0.325D+00 0.643D+00
 Gap=     0.015 Goal=   None    Shift=    0.000
 Gap=     0.015 Goal=   None    Shift=    0.000
 RMSDP=8.07D-09 MaxDP=1.58D-06 DE=-7.46D-11 OVMax= 5.37D-09

 Cycle  40  Pass 1  IDiag  1:
 RMSU=  2.43D-09    CP:  9.31D-01  6.32D-01 -9.15D-01 -3.00D+00  1.53D+00
                    CP:  1.91D+00  3.00D+00  1.82D+00  3.00D+00  1.87D+00
                    CP:  3.00D+00  3.00D+00  2.88D+00  3.00D+00  3.00D+00
                    CP:  1.31D+00  2.15D+00  1.47D+00  1.77D+00
 E= -5685.90008834481     Delta-E=       -0.000000000017 Rises=F Damp=F
 DIIS: error= 5.82D-11 at cycle  40 NSaved=  16.
 NSaved=16 IEnMin= 2 EnMin= -5685.90009071928     IErMin=16 ErrMin= 5.82D-11
 ErrMax= 5.82D-11  0.00D+00 EMaxC= 1.00D-01 BMatC= 6.67D-18 BMatP= 1.99D-17
 IDIUse=1 WtCom= 1.00D+00 WtEn= 0.00D+00
 Large coefficients: NSaved= 16 BigCof=    0.00 CofMax=   10.00 Det=-4.71D-18
 Inversion failed.  Reducing to 15 matrices.
 Coeff-Com: -0.445D-05 0.416D-05-0.165D-06-0.404D-04-0.130D-03-0.121D-03
 Coeff-Com:  0.121D-02 0.308D-02 0.413D-02-0.139D-01-0.443D-01-0.225D-01
 Coeff-Com:  0.610D-01 0.369D+00 0.642D+00
 Coeff:     -0.445D-05 0.416D-05-0.165D-06-0.404D-04-0.130D-03-0.121D-03
 Coeff:      0.121D-02 0.308D-02 0.413D-02-0.139D-01-0.443D-01-0.225D-01
 Coeff:      0.610D-01 0.369D+00 0.642D+00
 Gap=     0.015 Goal=   None    Shift=    0.000
 Gap=     0.015 Goal=   None    Shift=    0.000
 RMSDP=7.80D-09 MaxDP=2.05D-06 DE=-1.73D-11 OVMax= 3.73D-09

 Cycle  41  Pass 1  IDiag  1:
 Restarting incremental Fock formation.
 E= -5685.90008834480     Delta-E=        0.000000000015 Rises=F Damp=F
 DIIS: error= 8.76D-10 at cycle  41 NSaved=  16.
 NSaved=16 IEnMin= 2 EnMin= -5685.90009071928     IErMin=15 ErrMin= 5.82D-11
 ErrMax= 8.76D-10  0.00D+00 EMaxC= 1.00D-01 BMatC= 5.56D-17 BMatP= 6.67D-18
 IDIUse=1 WtCom= 1.00D+00 WtEn= 0.00D+00
 Large coefficients: NSaved= 16 BigCof=    0.00 CofMax=   10.00 Det=-1.95D-18
 Inversion failed.  Reducing to 15 matrices.
 Coeff-Com: -0.385D-05 0.360D-05 0.169D-07-0.270D-04-0.147D-03-0.199D-03
 Coeff-Com:  0.125D-02 0.373D-02 0.565D-02-0.136D-01-0.507D-01-0.385D-01
 Coeff-Com:  0.355D+00 0.734D+00 0.288D-02
 Coeff:     -0.385D-05 0.360D-05 0.169D-07-0.270D-04-0.147D-03-0.199D-03
 Coeff:      0.125D-02 0.373D-02 0.565D-02-0.136D-01-0.507D-01-0.385D-01
 Coeff:      0.355D+00 0.734D+00 0.288D-02
 Gap=     0.015 Goal=   None    Shift=    0.000
 Gap=     0.015 Goal=   None    Shift=    0.000
 RMSDP=1.83D-09 MaxDP=5.27D-07 DE= 1.55D-11 OVMax= 8.36D-10

 SCF Done:  E(UB3LYP) =  -5685.90008834     A.U. after   41 cycles
            NFock= 41  Conv=0.18D-08     -V/T= 2.0014
 <Sx>= 0.0000 <Sy>= 0.0000 <Sz>= 0.0000 <S**2>=-0.0000 S=-0.0000
 <L.S>=  0.00000000000    
 KE= 5.678213868565D+03 PE=-1.689565137737D+04 EE= 3.884753546561D+03
 Annihilation of the first spin contaminant:
 S**2 before annihilation    -0.0000,   after    -0.0000
 Leave Link  502 at Sun Dec 17 20:58:56 2023, MaxMem=  4026531840 cpu:            4732.4 elap:             597.0
 (Enter /sysapps/ubuntu-applications/gaussian/Gaussian/AVX2/g16/l601.exe)
 Copying SCF densities to generalized density rwf, IOpCl= 1 IROHF=0.

 **********************************************************************

            Population analysis using the SCF density.

 **********************************************************************

 Alpha  occ. eigenvalues -- -482.58698-482.58229 -62.23986 -62.23532 -56.05993
 Alpha  occ. eigenvalues --  -56.05662 -56.05622 -56.05532 -56.05212 -56.05168
 Alpha  occ. eigenvalues --  -18.78488 -18.78403  -9.95603  -9.95193  -9.95083
 Alpha  occ. eigenvalues --   -9.95079  -9.94983  -9.94327  -9.93573  -9.93539
 Alpha  occ. eigenvalues --   -9.90467  -9.89628  -8.44967  -8.44528  -6.28029
 Alpha  occ. eigenvalues --   -6.27577  -6.26906  -6.26789  -6.26480  -6.26354
 Alpha  occ. eigenvalues --   -2.39146  -2.38839  -2.38749  -2.38700  -2.38400
 Alpha  occ. eigenvalues --   -2.38304  -2.37853  -2.37852  -2.37429  -2.37427
 Alpha  occ. eigenvalues --   -0.72151  -0.71426  -0.61230  -0.60638  -0.54247
 Alpha  occ. eigenvalues --   -0.53544  -0.47613  -0.46233  -0.45953  -0.39617
 Alpha  occ. eigenvalues --   -0.35402  -0.31915  -0.28720  -0.24165  -0.23331
 Alpha  occ. eigenvalues --   -0.21952  -0.20984  -0.19368  -0.18062  -0.17679
 Alpha  occ. eigenvalues --   -0.15081  -0.14952  -0.13659  -0.13556  -0.12057
 Alpha  occ. eigenvalues --   -0.11521  -0.11217  -0.09679  -0.09224  -0.09090
 Alpha  occ. eigenvalues --   -0.07966  -0.06704  -0.05390  -0.02404   0.00116
 Alpha  occ. eigenvalues --    0.00440   0.03645   0.04022   0.13338
 Alpha virt. eigenvalues --    0.14877   0.17369   0.17719   0.17898   0.18997
 Alpha virt. eigenvalues --    0.19967   0.20738   0.20964   0.21715   0.21975
 Alpha virt. eigenvalues --    0.22714   0.23345   0.23832   0.23972   0.24164
[...]
 214,-0.01126360,-0.00678329,-0.00002084,-0.00012249,0.00056809,-0.0011
 6364,0.00064500,-0.00191139,0.00089117,-0.00081089,-0.00012837,0.00004
 154,0.00028155,0.00004368,-0.00009417,0.00009537,-0.00004649,0.0000312
 5,-0.00004834,0.00004467,-0.00000867,-0.00006355,-0.00001426,-0.000220
 83,0.00009241,0.00001647,0.00000465,0.00001752,-0.00002763,0.00031294,
 -0.00055828,0.00018975,-0.00106086,0.00012106,0.00003277,0.00002891,0.
 00000882,0.00000992,-0.00365485,0.02654223,0.01633070,0.05002909,0.024
 75342,-0.22506452,-0.11186300,-0.00009641,0.00073203,0.00228684,0.0000
 8759,0.00065531,0.00085376,-0.00039417,0.00121636,0.00037707,0.0003798
 1,0.00085311,0.00015942,-0.00045299,0.00011393,0.00004285,0.00005464,-
 0.00021909,0.00000761,-0.00012812,0.00031978,-0.00004745,0.00004134,0.
 00012211,-0.00006520,-0.00028309,0.00018518,0.00001118,-0.00003310,-0.
 00002534,0.00001669,0.00038602,-0.00150555,0.00063858,-0.00193932,0.00
 056868,-0.00041487,-0.00011049,0.00005295,0.00002707,0.00091253,-0.004
 63367,-0.00166979,-0.02884677,0.24396722,0.01534827,-0.10926332,-0.111
 85195,0.00356766,-0.02507046,-0.01680804,0.00028972,-0.00195965,0.0010
 3062,-0.00307278,0.00207344,-0.00552820,0.00241093,-0.00007218,0.00132
 652,-0.00051733,0.00055173,0.00019482,0.00020404,0.00009782,-0.0001546
 3,-0.00005603,0.00005842,0.00001652,0.00004917,-0.00019972,0.00002657,
 -0.00023308,0.00010854,0.00012450,-0.00001911,0.00001218,0.00000802,0.
 00036843,-0.00067485,0.00051263,-0.00010364,0.00043447,-0.00022705,0.0
 0003210,-0.00000118,-0.00001008,0.00091604,-0.00156195,-0.00226819,-0.
 01552483,0.12339845,0.12552286,-0.10002091,-0.08968897,0.06144837,0.00
 635288,0.01072066,-0.00568620,-0.00113608,0.00045125,-0.00270121,-0.00
 014584,0.00010827,0.00048293,0.00061583,-0.00038739,0.00003608,0.00001
 922,-0.00010601,0.00022854,-0.00008841,0.00077330,-0.00031353,0.000334
 67,-0.00100619,0.00039657,-0.00037809,-0.00034025,0.00010958,0.0011046
 4,-0.00038882,0.00017193,-0.00003711,0.00002168,0.00001929,-0.00473480
 ,0.00542943,-0.00311046,0.00116423,-0.00279380,0.00270637,0.00017597,-
 0.00011722,-0.00002949,-0.01327843,-0.02188481,0.01336307,0.00279117,0
 .00559501,-0.00379613,0.10615533,-0.08667125,-0.19838901,0.09549455,-0
 .00049947,-0.00346379,0.00253187,0.00099622,0.00050619,0.00057058,0.00
 004253,0.00058741,-0.00053351,-0.00010814,-0.00092733,0.00020107,0.000
 08467,-0.00005577,0.00018405,-0.00003275,0.00039658,-0.00002692,0.0001
 6369,-0.00045746,0.00013225,-0.00012369,-0.00022641,0.00006004,0.00065
 616,-0.00025667,0.00035268,-0.00002449,0.00003355,0.00002634,-0.000611
 14,0.00250950,-0.00076588,-0.00061313,-0.00341398,0.00008989,0.0000790
 7,-0.00007827,-0.00006391,0.00473380,0.00834034,-0.00582827,-0.0110866
 4,-0.01847575,0.01186117,0.09389016,0.21276760,0.05745176,0.09242542,-
 0.10414756,0.01290208,0.02248331,-0.01538602,-0.00308373,0.00001831,-0
 .00556814,0.00083979,0.00073312,0.00122034,0.00072709,-0.00038877,0.00
 105008,0.00002492,0.00009481,0.00003122,-0.00005046,0.00011740,-0.0001
 3844,0.00006295,-0.00023206,0.00013130,-0.00006842,0.00001407,-0.00005
 255,0.00041015,-0.00042660,0.00004235,-0.00003107,-0.00007644,-0.00001
 069,-0.00192803,0.00242611,-0.00090990,0.00264914,-0.00062399,0.000194
 17,0.00013044,-0.00004528,0.00003539,0.00080987,0.00070676,-0.00180666
 ,-0.00910791,-0.01389193,0.00895749,-0.06187588,-0.10404931,0.11750100
 ,-0.00005001,0.00049215,-0.00051099,0.00181774,-0.01166476,-0.00895987
 ,-0.04886442,0.02743878,0.01678716,-0.00144531,-0.00199798,0.00136665,
 0.00084763,-0.00009484,-0.00021193,-0.00082001,-0.00008930,0.00010070,
 -0.00000552,0.00027826,-0.00000693,0.00007347,-0.00006007,-0.00000867,
 0.00000762,-0.00008037,0.00006236,-0.00020756,0.00008277,-0.00007706,0
 .00005642,0.00008150,-0.00003006,0.00031771,-0.00037282,0.00020216,-0.
 00026568,0.00040585,-0.00014489,0.00010385,-0.00000286,-0.00002336,-0.
 00002257,0.00013550,0.00011081,0.00032387,0.00010912,0.00007009,-0.000
 12435,0.00003788,-0.00014959,0.05160185,0.00043738,0.00074663,-0.00194
 374,0.00455029,-0.02089126,-0.01446623,0.02562847,-0.22675417,-0.11225
 789,-0.00386826,-0.00451446,0.00452058,0.00131526,0.00029876,-0.000041
 86,0.00044878,0.00018341,0.00076324,-0.00013698,0.00038322,-0.00004299
 ,-0.00001936,0.00007453,0.00003803,-0.00001167,-0.00002765,-0.00013029
 ,-0.00004648,0.00012375,0.00003500,-0.00001764,0.00000534,-0.00001592,
 0.00026005,-0.00044878,0.00040033,-0.00044892,0.00063440,0.00022460,0.
 00002469,0.00003374,-0.00000976,-0.00008714,-0.00004532,0.00009075,0.0
 0004028,0.00057863,0.00122933,-0.00038080,0.00031424,0.00018418,-0.029
 29432,0.25015267,-0.00007830,0.00081265,0.00128277,-0.00272847,0.01118
 841,0.00623426,0.01512112,-0.11271438,-0.11608807,0.00055807,0.0016584
 6,-0.00049967,-0.00017737,-0.00033451,0.00022692,0.00014674,-0.0009744
 7,0.00097218,0.00019793,0.00018734,-0.00006742,-0.00002192,0.00023855,
 -0.00004334,0.00002012,-0.00005959,-0.00006618,-0.00005947,0.00006600,
 0.00004920,-0.00001973,0.00001398,0.00000224,-0.00005529,-0.00005204,-
 0.00010045,-0.00019931,0.00017789,-0.00006461,0.00006373,0.00002537,-0
 .00001751,-0.00007165,-0.00001228,-0.00007814,0.00015194,0.00002250,-0
 .00007944,0.00005465,-0.00012024,0.00023843,-0.01858933,0.12342386,0.1
 2441233,0.00026070,0.00134967,-0.00134359,-0.01892739,0.00390180,0.000
 94391,-0.27633693,0.04958783,0.01334541,0.00012671,0.00188350,-0.00027
 157,0.00058378,-0.00309458,0.00146794,0.00039692,-0.00041709,0.0002209
 4,0.00001578,-0.00068896,0.00036163,-0.00025303,0.00045059,-0.00016994
 ,0.00003398,0.00043705,-0.00022686,0.00044945,-0.00056086,0.00020501,-
 0.00031642,-0.00030436,0.00019291,-0.00190462,0.00186693,-0.00053529,0
 .00090368,-0.00092100,0.00027480,-0.00024849,0.00002236,0.00002892,0.0
 0123857,-0.00030826,0.00053555,-0.00000096,-0.00005086,-0.00000520,0.0
 0031672,-0.00043012,-0.00013304,-0.00362914,0.00110907,0.00048802,0.30
 702973,-0.00058692,0.00072148,-0.00080624,-0.02414287,0.00282804,0.001
 80921,0.05076882,-0.05522557,-0.00460626,-0.00132598,0.00126181,0.0002
 2324,-0.00079423,-0.00394490,0.00222337,0.00036144,-0.00089529,0.00062
 343,0.00002967,0.00043906,-0.00013550,0.00002985,0.00002109,0.00000992
 ,0.00000934,-0.00007729,0.00001809,0.00001023,-0.00015515,0.00008362,-
 0.00017325,-0.00008091,0.00004615,-0.00106721,0.00061468,0.00006161,0.
 00006444,0.00007609,-0.00012535,0.00012156,0.00000735,-0.00002891,0.00
 026316,0.00003102,0.00017363,0.00019632,-0.00006846,0.00003312,-0.0000
 7442,-0.00004235,-0.00037554,0.02621625,-0.00492003,0.00006526,-0.0544
 7488,0.06101363,0.00140776,-0.00064846,0.00054858,0.01463406,-0.002805
 89,-0.00262185,0.01275338,-0.00440126,-0.04751989,-0.00052108,-0.00077
 910,0.00013934,0.00034850,0.00260221,-0.00098519,-0.00015953,0.0007511
 1,0.00015891,0.00001062,-0.00001791,0.00017869,0.00003555,-0.00005921,
 0.00007445,-0.00001620,-0.00005212,-0.00000878,-0.00007556,0.00017788,
 -0.00005404,0.00012909,0.00006743,-0.00009924,0.00089665,-0.00042103,0
 .00043953,-0.00020657,0.00003675,-0.00014340,-0.00002044,-0.00001246,-
 0.00000123,-0.00043315,0.00049106,-0.00017735,0.00004380,-0.00004106,-
 0.00006703,-0.00010301,0.00004519,0.00013672,0.01690992,-0.00243503,-0
 .00131356,-0.01623612,0.00169517,0.04800130,-0.00099380,-0.00163785,0.
 00113188,0.00538571,-0.00092555,0.01320561,-0.07801086,0.01274949,-0.0
 8609202,0.00004807,0.00055723,0.00022714,0.00073962,0.00008069,-0.0000
 1618,-0.00078411,0.00039173,0.00025515,-0.00006417,0.00009752,-0.00013
 066,0.00009280,-0.00009021,0.00008058,-0.00001311,-0.00010855,-0.00000
 932,-0.00015198,0.00012200,0.00006160,0.00005652,0.00005944,-0.0000566
 7,0.00026605,-0.00034416,0.00004620,-0.00013302,0.00029808,-0.00007670
 ,0.00008182,-0.00000593,-0.00000093,0.00042981,-0.00028681,0.00017520,
 -0.00015349,-0.00004987,-0.00013029,0.00064119,-0.00044014,0.00067766,
 0.00087898,-0.00082319,0.00445732,-0.01120242,0.00351466,-0.02863747,0
 .08418792,-0.00284933,-0.00439771,0.00189580,0.01034524,-0.00338436,0.
 02173412,0.01285541,-0.05089334,0.03179477,0.00090953,0.00145771,0.001
 32973,0.00081665,0.00032578,-0.00050417,0.00021842,0.00073254,-0.00058
 041,-0.00024239,0.00004676,-0.00000041,-0.00000266,-0.00012575,0.00006
 803,-0.00001765,0.00005687,-0.00000181,0.00004087,0.00000914,-0.000019
 79,0.00000168,-0.00000450,0.00001885,0.00010333,-0.00037291,-0.0000699
 0,-0.00016959,-0.00001960,-0.00025701,-0.00004772,-0.00000083,0.000004
 88,-0.00004209,0.00002761,-0.00034877,-0.00012081,0.00032961,0.0001996
 6,0.00063636,0.00019047,0.00177637,-0.01047599,0.00407692,-0.02498153,
 0.00224027,-0.00207383,0.00629853,-0.01379670,0.05435561,0.00344524,0.
 00424723,-0.00106745,-0.00644324,0.00057610,-0.01485730,-0.08358171,0.
 03197768,-0.26281514,-0.00035037,-0.00138783,0.00046494,-0.00109095,0.
 00016385,0.00035258,0.00003018,0.00122151,0.00039954,0.00003150,-0.000
 35466,0.00032796,0.00003207,-0.00011220,0.00013817,-0.00004614,-0.0000
 4581,-0.00012935,0.00014875,-0.00008484,0.00010877,0.00000910,-0.00003
 697,0.00001204,-0.00022242,0.00055973,-0.00012254,0.00062299,-0.000427
 26,0.00045740,-0.00008117,-0.00003264,0.00003902,-0.00025632,-0.000152
 85,0.00033460,-0.00000116,-0.00010528,0.00058323,-0.00120889,0.0000650
 4,-0.00120042,-0.00610879,0.00241415,-0.01530036,0.00064955,-0.0005237
 6,0.00341345,0.09389151,-0.03732559,0.28763669,-0.00012867,0.00032274,
 0.00038282,0.00053666,-0.00076852,0.00491815,-0.00018927,0.00008059,-0
 .00031260,-0.07805555,0.01188524,-0.08317178,0.00039549,-0.00018036,0.
 00092908,0.00021326,0.00005601,-0.00014373,-0.00015542,0.00008114,-0.0
 0003149,0.00005996,-0.00010597,0.00003775,-0.00001900,-0.00000262,0.00
 003314,-0.00010887,0.00005148,0.00001273,0.00001916,0.00003265,0.00000
 067,0.00017661,-0.00009829,0.00009015,-0.00073729,-0.00005953,0.000163
 35,0.00002967,-0.00000979,-0.00001541,0.00058968,-0.00000959,0.0002536
 8,0.00065899,-0.00001993,0.00005192,-0.00008013,0.00003952,-0.00017682
 ,-0.00003857,-0.00000916,0.00027102,-0.00003462,0.00006399,-0.00018607
 ,0.00027719,-0.00037962,0.00010768,0.08121959,0.00105557,-0.00451818,-
 0.00263555,-0.00939624,0.00183441,-0.02448736,-0.00032242,0.00148293,-
 0.00126315,0.01330074,-0.04933708,0.03494906,-0.00150629,0.00134331,0.
 00042504,0.00018705,-0.00016115,0.00035322,-0.00011095,-0.00022646,0.0
 0012680,-0.00004716,0.00014289,-0.00008544,-0.00002588,0.00019495,-0.0
 0014847,0.00005094,0.00007939,0.00003117,-0.00000480,-0.00002250,0.000
 01790,-0.00002969,-0.00018829,0.00030136,-0.00092819,0.00019622,0.0003
 0730,-0.00010329,0.00001489,-0.00001303,-0.00016325,-0.00007555,0.0002
 4708,-0.00062009,0.00010523,-0.00180768,0.00002372,-0.00012910,-0.0000
 2670,0.00021053,0.00042757,0.00022480,-0.00001728,-0.00006802,0.000068
 99,0.00004877,-0.00039504,0.00044217,-0.01495246,0.05318528,0.00169238
 ,-0.00438138,-0.00082795,-0.00667838,0.00329312,-0.01821341,0.00005699
 ,0.00152724,0.00035990,-0.08200322,0.03245094,-0.25906429,-0.00156395,
 0.00065413,0.00131724,0.00071254,-0.00025696,0.00030151,-0.00016560,-0
 .00000216,-0.00008768,0.00014783,-0.00019477,0.00016615,-0.00007062,0.
 00000129,-0.00003610,0.00044355,-0.00013010,0.00011839,0.00003543,0.00
 000820,-0.00000899,-0.00056528,0.00178200,-0.00066503,0.00172763,-0.00
 102541,-0.00017602,0.00006622,-0.00002035,0.00002758,-0.00004841,0.000
 09290,0.00036303,-0.00063230,-0.00018905,-0.00151537,-0.00002575,0.000
 05803,0.00034809,0.00025740,-0.00003235,0.00037099,0.00002753,-0.00006
 226,-0.00003206,-0.00005284,-0.00068673,0.00096789,0.09226502,-0.03326
 686,0.28512194,-0.00045606,-0.00043017,-0.00079355,-0.00941283,-0.0003
 2601,-0.00065930,-0.00016310,-0.00091918,-0.00033425,-0.27225598,0.038
 20339,0.01132058,0.00151426,0.00319751,0.00182670,0.00018397,-0.001009
 55,0.00099386,-0.00039039,-0.00072117,0.00032109,-0.00027968,0.0006958
 2,-0.00037003,0.00012554,0.00075106,-0.00044059,0.00061648,-0.00041169
 ,-0.00051208,-0.00017532,-0.00022574,0.00014706,-0.00022960,0.00011746
 ,0.00016232,-0.00013711,0.00006011,0.00131273,-0.00035986,0.00011419,0
 .00008033,0.00136368,-0.00007180,0.00036340,0.00054459,-0.00007737,0.0
 0012191,-0.00023786,-0.00003190,-0.00009600,0.00046003,0.00022059,0.00
 004126,0.00114462,0.00035056,-0.00018953,-0.00004084,-0.00002103,0.000
 12249,-0.01131225,0.00131745,0.00047007,0.30316174,0.00063487,0.000812
 53,0.00138259,0.02546238,-0.00553198,-0.00112480,0.00177155,0.00108419
 ,-0.00001638,0.03673259,-0.05152198,-0.00102762,0.00071449,-0.00472366
 ,-0.00268931,0.00025889,0.00076185,-0.00081857,0.00061728,0.00040586,0
 .00012307,0.00003458,-0.00016856,0.00008437,0.00020479,-0.00069451,0.0
 0036142,-0.00102913,0.00033381,-0.00003945,0.00009034,0.00011940,-0.00
 010230,0.00168918,-0.00217554,0.00088595,-0.00172457,0.00166719,0.0007
 6273,0.00014524,-0.00001339,-0.00001958,-0.00059538,0.00022798,-0.0002
 9096,-0.00018079,0.00006598,0.00036358,-0.00004317,0.00014215,-0.00003
 073,-0.00030585,0.00047550,0.00005788,-0.00083403,-0.00037523,0.000022
 03,-0.00000303,-0.00009999,0.00003208,0.00429379,-0.00213739,-0.000213
 95,-0.04493082,0.05438147,0.00156985,-0.00005719,0.00077175,0.01678104
 ,-0.00257655,-0.00228365,0.00015643,0.00088408,0.00002781,0.01087512,-
 0.00063799,-0.04745985,-0.00013906,-0.00295100,-0.00062271,0.00065237,
 0.00017262,-0.00028622,0.00018185,0.00016026,0.00008580,0.00010801,-0.
 00018474,0.00010778,0.00001511,-0.00027290,0.00012051,-0.00023534,0.00
 016187,0.00022905,0.00005686,0.00007435,-0.00005980,0.00013923,0.00026
 243,0.00003879,0.00022832,-0.00002660,-0.00089064,0.00011038,-0.000030
 83,-0.00002881,-0.00061849,-0.00010677,-0.00020949,-0.00020532,0.00021
 872,0.00026621,0.00012213,0.00013220,-0.00008878,-0.00001476,0.0001266
 6,-0.00014474,-0.00031497,0.00004623,0.00035110,-0.00017639,-0.0000343
 0,-0.00000461,-0.02889524,0.00460643,0.00291239,-0.01282868,0.00463727
 ,0.04741683,-0.00037535,-0.00021397,0.00009593,0.00253057,0.00406494,-
 0.00344984,-0.00012369,0.00120965,0.00052574,-0.10382884,-0.09711290,0
 .04838466,0.00047009,0.00005789,0.00017317,-0.00003302,-0.00021574,-0.
 00001539,-0.00007887,0.00061918,-0.00033709,0.00029172,-0.00081341,0.0
 0038514,-0.00030272,-0.00023063,0.00025598,0.00082435,-0.00033640,-0.0
 0011892,-0.00003227,0.00001295,-0.00003084,-0.00360236,0.00514667,-0.0
 0072341,0.00009362,-0.00329334,-0.00000827,0.00013716,-0.00004940,0.00
 005356,-0.00021579,-0.00010148,0.00002414,-0.00000745,0.00012843,0.000
 04534,0.00055119,-0.00002111,-0.00003092,0.00067801,0.00067002,0.00027
 282,0.00040875,0.00007893,-0.00004507,-0.00002611,-0.00027452,0.000367
 92,0.00667936,0.01201031,-0.00606454,-0.01378035,-0.02293419,0.0124949
 0,0.10970375,-0.00019940,0.00097933,0.00109286,-0.01163097,-0.02251833
 ,0.01073606,0.00167975,-0.00409611,-0.00390736,-0.09308045,-0.20564029
 ,0.08721514,-0.00043938,0.00043894,0.00074406,0.00002724,-0.00011158,0
 .00002871,-0.00001248,-0.00006795,-0.00012777,0.00002590,0.00006578,0.
 00002043,0.00002028,-0.00012109,0.00004159,-0.00012094,0.00001734,-0.0
 0025240,-0.00000272,0.00002950,-0.00007560,0.00161522,-0.00130459,-0.0
 0002435,-0.00220796,-0.00009633,0.00195498,-0.00005439,0.00005918,0.00
 005496,0.00002969,-0.00004241,-0.00018994,0.00023121,0.00011559,0.0001
 3653,-0.00021495,0.00019002,-0.00066151,-0.00096407,-0.00158332,0.0006
 0512,-0.00021541,0.00024500,-0.00011922,0.00020478,0.00025026,0.000034
 56,-0.00029416,-0.00167823,0.00067219,0.00391654,0.00716313,-0.0044877
 6,0.10173590,0.22757012,-0.00023742,-0.00017854,0.00106097,-0.00893067
 ,-0.01364484,0.00753183,0.00041910,-0.00318853,-0.00197646,0.04894783,
 0.09143010,-0.09315326,-0.00039670,0.00130510,-0.00022870,-0.00002509,
 0.00018848,0.00013744,0.00009738,-0.00051024,0.00031605,-0.00026041,0.
 00071524,-0.00034876,0.00020135,0.00016428,-0.00023530,-0.00096100,0.0
 0073352,0.00004976,0.00004777,0.00001610,-0.00001194,0.00278792,-0.004
 79580,0.00180633,-0.00156433,0.00320739,-0.00197105,-0.00019809,0.0000
 6788,-0.00006328,0.00016424,-0.00000550,0.00007420,0.00013732,0.000240
 72,0.00003105,-0.00034151,-0.00037287,-0.00063831,-0.00029175,-0.00155
 214,0.00053606,0.00030009,0.00019471,-0.00024204,0.00013352,-0.0001214
 9,0.00020490,0.01337679,0.02165590,-0.01173349,-0.00102077,-0.00221059
 ,-0.00015312,-0.05235198,-0.09347234,0.09914433,-0.00008579,-0.0000693
 7,-0.00009991,-0.00006706,-0.00079287,-0.00029349,-0.00416261,0.001538
 35,0.00010961,0.00018153,-0.00003324,0.00019852,0.00985228,0.00816442,
 -0.00529927,-0.13105529,-0.10395333,0.06780052,-0.01594969,-0.02496517
 ,0.01593819,0.00401911,0.00060642,-0.00168797,-0.00306682,0.00141954,0
 .00048999,-0.00104968,0.00138166,-0.00063511,0.00002059,-0.00002313,0.
 00004585,0.00005141,0.00260692,-0.00051820,0.00013348,0.00074242,-0.00
 027743,-0.00285086,-0.00047651,0.00057175,0.00009507,-0.00000007,-0.00
 000619,-0.00000010,0.00003458,-0.00001719,0.00003896,-0.00002976,0.000
 04602,-0.00169403,0.00043903,0.00015611,-0.00005536,0.00056053,-0.0003
 3952,-0.00151177,0.00027234,-0.00006782,0.00000403,0.00002293,-0.00003
 172,0.00011633,-0.00006902,-0.00006334,0.00003826,-0.00004923,-0.00003
 357,0.14699800,-0.00008139,0.00035688,-0.00019139,-0.00236443,-0.00125
 860,-0.00105835,-0.00057250,0.00035871,0.00044029,0.00060431,0.0001507
 1,0.00005011,-0.01543816,-0.01503763,0.01079669,-0.10393339,-0.1858567
 2,0.09438414,0.00492762,0.00210654,0.00146617,-0.00033561,0.00158633,-
 0.00288903,-0.00009925,0.00110341,0.00147311,0.00061025,0.00017085,-0.
 00056542,-0.00019748,-0.00019800,0.00023775,0.00472729,-0.00005535,0.0
 0153084,-0.00036769,-0.00196180,0.00133219,0.00009808,0.00011636,-0.00
 046283,0.00015239,-0.00003706,-0.00003532,-0.00002723,0.00001067,0.000
 05257,-0.00022305,-0.00006215,-0.00015095,-0.00008536,0.00067565,0.000
 48096,-0.00053137,0.00066781,-0.00046360,0.00038759,-0.00009144,-0.001
 14441,-0.00001716,-0.00007008,-0.00007771,0.00023173,-0.00019881,-0.00
 011649,-0.00013776,0.00013603,0.00013347,0.11267257,0.19738767,-0.0007
 5786,0.00032537,0.00025428,0.00045923,-0.00131778,-0.00367624,0.001136
 09,0.00008972,0.00083790,0.00055047,-0.00036411,0.00019212,0.00624925,
 0.00690952,-0.00261445,0.06779074,0.09437544,-0.08503418,0.00133962,0.
 00637040,0.00342492,-0.00123144,-0.00303230,-0.00275230,0.00121857,0.0
 0123388,0.00327704,-0.00024753,-0.00070689,-0.00039685,0.00012977,0.00
 020922,0.00009976,-0.00156994,0.00187936,0.00400895,0.00026860,0.00115
 057,0.00003338,0.00029877,-0.00036980,-0.00066550,-0.00025238,0.000052
 93,-0.00023505,-0.00003694,-0.00001382,-0.00009105,0.00005253,-0.00004
 404,0.00006090,-0.00073928,-0.00052249,-0.00046191,0.00019437,-0.00064
 295,-0.00017640,0.00103608,-0.00018883,0.00005599,0.00003920,-0.000022
 98,-0.00001471,-0.00003902,-0.00012872,-0.00009559,0.00009697,-0.00001
 892,-0.00013720,-0.07598587,-0.10522279,0.08410619\\-0.00002301,0.0000
 1886,-0.00001098,0.00000967,-0.00002134,-0.00000071,0.00000687,0.00000
 510,-0.00000676,0.00002068,0.00000436,0.00000676,-0.00000187,-0.000011
 54,-0.00000231,0.00000244,0.00001175,0.00001308,0.00000226,-0.00000023
 ,-0.00000171,0.00000210,-0.00000788,0.00000335,-0.00001465,0.00003607,
 -0.00000241,0.00001778,-0.00002817,0.00000083,-0.00000578,-0.00000240,
 0.00000436,0.00001515,-0.00001600,-0.00000675,-0.00001116,0.00002618,0
 .00000072,-0.00000945,-0.00000098,0.00000220,0.00000608,-0.00001138,0.
 00000075,-0.00000386,0.00000266,-0.00000064,0.00001065,-0.00000537,0.0
 0000117,0.00000334,0.00000574,-0.00000031,0.00000040,-0.00000474,0.000
 00356,-0.00000714,-0.00000337,0.00000173,-0.00000679,0.00000413,-0.000
 00727,-0.00000442,0.00000700,0.00000205,-0.00000999,-0.00000555,0.0000
 0291,0.00000070,-0.00000291,-0.00000360\\\@


 Happiness is a conscious choice, not an automatic response.
 -- Mildred Barthel
 Job cpu time:       0 days  4 hours 29 minutes 19.1 seconds.
 Elapsed time:       0 days  0 hours 33 minutes 43.8 seconds.
 File lengths (MBytes):  RWF=    990 Int=      0 D2E=      0 Chk=     22 Scr=      1
 Normal termination of Gaussian 16 at Sun Dec 17 22:52:06 2023.
