 Entering Gaussian System, Link 0=g16
 Input=326-an-PCM.com
 Output=326-an-PCM.log
 Initial command:
 /sysapps/ubuntu-applications/gaussian/Gaussian/AVX2/g16/l1.exe "/scratch/selhajj1/4283644/Gau-2309597.inp" -scrdir="/scratch/selhajj1/4283644/"
 Entering Link 1 = /sysapps/ubuntu-applications/gaussian/Gaussian/AVX2/g16/l1.exe PID=   2309599.
  
 Copyright (c) 1988,1990,1992,1993,1995,1998,2003,2009,2016,
            Gaussian, Inc.  All Rights Reserved.
  
 This is part of the Gaussian(R) 16 program.  It is based on
 the Gaussian(R) 09 system (copyright 2009, Gaussian, Inc.),
 the Gaussian(R) 03 system (copyright 2003, Gaussian, Inc.),
 the Gaussian(R) 98 system (copyright 1998, Gaussian, Inc.),
 the Gaussian(R) 94 system (copyright 1995, Gaussian, Inc.),
 the Gaussian 92(TM) system (copyright 1992, Gaussian, Inc.),
 the Gaussian 90(TM) system (copyright 1990, Gaussian, Inc.),
 the Gaussian 88(TM) system (copyright 1988, Gaussian, Inc.),
 the Gaussian 86(TM) system (copyright 1986, Carnegie Mellon
 University), and the Gaussian 82(TM) system (copyright 1983,
 Carnegie Mellon University). Gaussian is a federally registered
 trademark of Gaussian, Inc.
  
 This software contains proprietary and confidential information,
 including trade secrets, belonging to Gaussian, Inc.
  
 This software is provided under written license and may be
 used, copied, transmitted, or stored only in accord with that
 written license.
  
 The following legend is applicable only to US Government
 contracts under FAR:
  
                    RESTRICTED RIGHTS LEGEND
  
 Use, reproduction and disclosure by the US Government is
 subject to restrictions as set forth in subparagraphs (a)
 and (c) of the Commercial Computer Software - Restricted
 Rights clause in FAR 52.227-19.
  
 Gaussian, Inc.
 340 Quinnipiac St., Bldg. 40, Wallingford CT 06492
  
  
 ---------------------------------------------------------------
 Warning -- This program may not be used in any manner that
 competes with the business of Gaussian, Inc. or will provide
 assistance to any competitor of Gaussian, Inc.  The licensee
 of this program is prohibited from giving any competitor of
 Gaussian, Inc. access to this program.  By using this program,
 the user acknowledges that Gaussian, Inc. is engaged in the
 business of creating and licensing software in the field of
 computational chemistry and represents and warrants to the
 licensee that it is not a competitor of Gaussian, Inc. and that
 it will not use this program in any manner prohibited above.
 ---------------------------------------------------------------
  

 Cite this work as:
 Gaussian 16, Revision A.03,
 M. J. Frisch, G. W. Trucks, H. B. Schlegel, G. E. Scuseria, 
 M. A. Robb, J. R. Cheeseman, G. Scalmani, V. Barone, 
 G. A. Petersson, H. Nakatsuji, X. Li, M. Caricato, A. V. Marenich, 
 J. Bloino, B. G. Janesko, R. Gomperts, B. Mennucci, H. P. Hratchian, 
 J. V. Ortiz, A. F. Izmaylov, J. L. Sonnenberg, D. Williams-Young, 
 F. Ding, F. Lipparini, F. Egidi, J. Goings, B. Peng, A. Petrone, 
 T. Henderson, D. Ranasinghe, V. G. Zakrzewski, J. Gao, N. Rega, 
 G. Zheng, W. Liang, M. Hada, M. Ehara, K. Toyota, R. Fukuda, 
 J. Hasegawa, M. Ishida, T. Nakajima, Y. Honda, O. Kitao, H. Nakai, 
 T. Vreven, K. Throssell, J. A. Montgomery, Jr., J. E. Peralta, 
 F. Ogliaro, M. J. Bearpark, J. J. Heyd, E. N. Brothers, K. N. Kudin, 
 V. N. Staroverov, T. A. Keith, R. Kobayashi, J. Normand, 
 K. Raghavachari, A. P. Rendell, J. C. Burant, S. S. Iyengar, 
 J. Tomasi, M. Cossi, J. M. Millam, M. Klene, C. Adamo, R. Cammi, 
 J. W. Ochterski, R. L. Martin, K. Morokuma, O. Farkas, 
 J. B. Foresman, and D. J. Fox, Gaussian, Inc., Wallingford CT, 2016.
 
 ******************************************
 Gaussian 16:  ES64L-G16RevA.03 25-Dec-2016
                13-Jan-2024 
 ******************************************
 %chk=326-an-PCM.chk
 %nproc=8
 Will use up to    8 processors via shared memory.
 %mem=30GB
 ----------------------------------------------------------------
 #P UB3LYP/6-311++G(d,p) SCRF=(PCM,Solvent=n,n-DiMethylFormamide)
 ----------------------------------------------------------------
 1/38=1,172=1/1;
 2/12=2,17=6,18=5,40=1/2;
 3/5=4,6=6,7=1111,11=2,25=1,30=1,70=2201,72=148,74=-5,116=2/1,2,3;
 4//1;
 5/5=2,38=5,53=148/2;
 6/7=2,8=2,9=2,10=2,28=1/1;
 99/5=1,9=1/99;
 Leave Link    1 at Sat Jan 13 19:20:53 2024, MaxMem=  4026531840 cpu:               0.5 elap:               0.1
 (Enter /sysapps/ubuntu-applications/gaussian/Gaussian/AVX2/g16/l101.exe)
 -------
 Reduced
 -------
 Symbolic Z-matrix:
 Charge = -3 Multiplicity = 1
 C                    -1.8381    2.79179  -0.80449 
 C                    -2.93269   1.99574  -0.52149 
 C                    -2.71742   0.6759   -0.05792 
 C                    -0.50303   2.34062  -0.64383 
 C                    -0.28792   0.98044  -0.19681 
 C                    -1.42841   0.19171   0.09744 
 C                     0.58972   3.26087  -0.97211 
 C                     1.97515   2.74133  -0.8154 
 C                     2.11126   1.37792  -0.36736 
 C                     1.06478   0.52384  -0.07204 
 O                     0.36351   4.44507  -1.36681 
 O                     2.99765   3.46234  -1.06028 
 H                    -1.96291   3.80857  -1.16256 
 H                    -3.94842   2.37168  -0.65402 
 H                    -3.56899   0.03631   0.16788 
 H                    -1.27266  -0.82105   0.44693 
 H                     3.12522   1.00853  -0.25955 
 S                     1.47341  -1.17675   0.48492 
 O                     2.96843  -1.26987   0.48638 
 O                     0.84702  -2.12093  -0.49813 
 O                     0.89375  -1.33548   1.85952 
 
 ITRead=  0  0  0  0  0  0  0  0  0  0  0  0  0  0  0  0  0  0  0  0
 ITRead=  0
 MicOpt= -1 -1 -1 -1 -1 -1 -1 -1 -1 -1 -1 -1 -1 -1 -1 -1 -1 -1 -1 -1
 MicOpt= -1
 NAtoms=     21 NQM=       21 NQMF=       0 NMMI=      0 NMMIF=      0
                NMic=       0 NMicF=      0.
                    Isotopes and Nuclear Properties:
 (Nuclear quadrupole moments (NQMom) in fm**2, nuclear magnetic moments (NMagM)
  in nuclear magnetons)

  Atom         1           2           3           4           5           6           7           8           9          10
 IAtWgt=          12          12          12          12          12          12          12          12          12          12
 AtmWgt=  12.0000000  12.0000000  12.0000000  12.0000000  12.0000000  12.0000000  12.0000000  12.0000000  12.0000000  12.0000000
 NucSpn=           0           0           0           0           0           0           0           0           0           0
 AtZEff=  -0.0000000  -0.0000000  -0.0000000  -0.0000000  -0.0000000  -0.0000000  -0.0000000  -0.0000000  -0.0000000  -0.0000000
 NQMom=    0.0000000   0.0000000   0.0000000   0.0000000   0.0000000   0.0000000   0.0000000   0.0000000   0.0000000   0.0000000
 NMagM=    0.0000000   0.0000000   0.0000000   0.0000000   0.0000000   0.0000000   0.0000000   0.0000000   0.0000000   0.0000000
 AtZNuc=   6.0000000   6.0000000   6.0000000   6.0000000   6.0000000   6.0000000   6.0000000   6.0000000   6.0000000   6.0000000

  Atom        11          12          13          14          15          16          17          18          19          20
 IAtWgt=          16          16           1           1           1           1           1          32          16          16
 AtmWgt=  15.9949146  15.9949146   1.0078250   1.0078250   1.0078250   1.0078250   1.0078250  31.9720718  15.9949146  15.9949146
 NucSpn=           0           0           1           1           1           1           1           0           0           0
 AtZEff=  -0.0000000  -0.0000000  -0.0000000  -0.0000000  -0.0000000  -0.0000000  -0.0000000  -0.0000000  -0.0000000  -0.0000000
 NQMom=    0.0000000   0.0000000   0.0000000   0.0000000   0.0000000   0.0000000   0.0000000   0.0000000   0.0000000   0.0000000
 NMagM=    0.0000000   0.0000000   2.7928460   2.7928460   2.7928460   2.7928460   2.7928460   0.0000000   0.0000000   0.0000000
 AtZNuc=   8.0000000   8.0000000   1.0000000   1.0000000   1.0000000   1.0000000   1.0000000  16.0000000   8.0000000   8.0000000

  Atom        21
 IAtWgt=          16
 AtmWgt=  15.9949146
 NucSpn=           0
 AtZEff=  -0.0000000
 NQMom=    0.0000000
 NMagM=    0.0000000
 AtZNuc=   8.0000000
 Leave Link  101 at Sat Jan 13 19:20:54 2024, MaxMem=  4026531840 cpu:               0.8 elap:               0.2
 (Enter /sysapps/ubuntu-applications/gaussian/Gaussian/AVX2/g16/l202.exe)
                          Input orientation:                          
 ---------------------------------------------------------------------
 Center     Atomic      Atomic             Coordinates (Angstroms)
 Number     Number       Type             X           Y           Z
 ---------------------------------------------------------------------
      1          6           0       -1.838098    2.791790   -0.804488
      2          6           0       -2.932689    1.995740   -0.521491
      3          6           0       -2.717424    0.675904   -0.057915
      4          6           0       -0.503028    2.340622   -0.643834
      5          6           0       -0.287918    0.980441   -0.196810
      6          6           0       -1.428410    0.191713    0.097437
      7          6           0        0.589723    3.260868   -0.972109
      8          6           0        1.975146    2.741328   -0.815397
      9          6           0        2.111264    1.377923   -0.367360
     10          6           0        1.064781    0.523842   -0.072041
     11          8           0        0.363507    4.445074   -1.366810
     12          8           0        2.997647    3.462343   -1.060285
     13          1           0       -1.962910    3.808574   -1.162558
     14          1           0       -3.948418    2.371675   -0.654016
     15          1           0       -3.568990    0.036314    0.167877
     16          1           0       -1.272663   -0.821054    0.446931
     17          1           0        3.125222    1.008531   -0.259545
     18         16           0        1.473414   -1.176755    0.484917
     19          8           0        2.968426   -1.269867    0.486382
     20          8           0        0.847024   -2.120925   -0.498133
     21          8           0        0.893745   -1.335481    1.859520
 ---------------------------------------------------------------------
                    Distance matrix (angstroms):
                    1          2          3          4          5
     1  C    0.000000
     2  C    1.382719   0.000000
     3  C    2.409888   1.415348   0.000000
     4  C    1.418370   2.457064   2.831631   0.000000
     5  C    2.460349   2.851502   2.452455   1.447824   0.000000
     6  C    2.782393   2.429082   1.385688   2.454307   1.417531
     7  C    2.478396   3.769747   4.295930   1.465852   2.563531
     8  C    3.813593   4.972839   5.182660   2.516217   2.933399
     9  C    4.217530   5.083986   4.889255   2.799598   2.437858
    10  C    3.755898   4.283486   3.785287   2.466913   1.433124
    11  O    2.810092   4.192697   5.041030   2.387948   3.714423
    12  O    4.888712   6.132708   6.436694   3.699515   4.207180
    13  H    1.085192   2.153556   3.406340   2.134295   3.425873
    14  H    2.156986   1.091144   2.178605   3.445545   3.942566
    15  H    3.396193   2.172431   1.088679   3.920310   3.433629
    16  H    3.865024   3.409964   2.140815   3.431953   2.151629
    17  H    5.302030   6.143410   5.855579   3.884114   3.413832
    18  S    5.327103   5.521895   4.614123   4.189552   2.867148
    19  O    6.423868   6.819322   6.034167   5.134590   4.016767
    20  O    5.607005   5.588712   4.552069   4.663611   3.316227
    21  O    5.620878   5.604270   4.556618   4.661705   3.314863
                    6          7          8          9         10
     6  C    0.000000
     7  C    3.825768   0.000000
     8  C    4.349482   1.487910   0.000000
     9  C    3.761971   2.495254   1.441575   0.000000
    10  C    2.520919   2.920122   2.509699   1.382677   0.000000
    11  O    4.842114   1.268584   2.409188   3.668919   4.188588
    12  O    5.623817   2.417946   1.274889   2.368676   3.653407
    13  H    3.867164   2.617668   4.094853   4.810332   4.598435
    14  H    3.415751   4.635361   5.937280   6.147313   5.374509
    15  H    2.147369   5.384442   6.246709   5.861031   4.665520
    16  H    1.082636   4.705767   4.983202   4.116981   2.746220
    17  H    4.640064   3.465476   2.152727   1.084521   2.124970
    18  S    3.231629   4.753560   4.158597   2.767600   1.835542
    19  O    4.649695   5.320995   4.332542   2.911081   2.674527
    20  O    3.298575   5.408748   5.001482   3.722545   2.687706
    21  O    3.290845   5.407123   4.994495   3.715361   2.686496
                   11         12         13         14         15
    11  O    0.000000
    12  O    2.828146   0.000000
    13  H    2.420551   4.973677   0.000000
    14  H    4.837329   7.042899   2.503105   0.000000
    15  H    6.103848   7.507781   4.310394   2.504673   0.000000
    16  H    5.805068   6.233357   4.949783   4.308743   2.466996
    17  H    4.545650   2.584309   5.877479   7.214579   6.777933
    18  S    6.022105   5.121735   6.275030   6.579117   5.195949
    19  O    6.548318   4.978639   7.268263   7.899624   6.674231
    20  O    6.640838   6.009499   6.595161   6.572976   4.959680
    21  O    6.641173   5.997565   6.614736   6.596015   4.965831
                   16         17         18         19         20
    16  H    0.000000
    17  H    4.815380   0.000000
    18  S    2.769279   2.838691   0.000000
    19  O    4.264953   2.402517   1.497910   0.000000
    20  O    2.660053   3.878222   1.500070   2.488758   0.000000
    21  O    2.636924   3.868374   1.500248   2.488798   2.485484
                   21
    21  O    0.000000
 Stoichiometry    C10H5O5S(3-)
 Framework group  C1[X(C10H5O5S)]
 Deg. of freedom    57
 Full point group                 C1      NOp   1
 Largest Abelian subgroup         C1      NOp   1
 Largest concise Abelian subgroup C1      NOp   1
                         Standard orientation:                         
 ---------------------------------------------------------------------
 Center     Atomic      Atomic             Coordinates (Angstroms)
 Number     Number       Type             X           Y           Z
 ---------------------------------------------------------------------
      1          6           0        2.708825    1.325817   -0.017289
      2          6           0        2.378122    2.668399   -0.012866
      3          6           0        1.011743    3.036522    0.013662
      4          6           0        1.731783    0.297972    0.009100
      5          6           0        0.335073    0.679276    0.007204
      6          6           0        0.026079    2.062617    0.024055
      7          6           0        2.184096   -1.096326    0.000833
      8          6           0        1.128374   -2.144814    0.002541
      9          6           0       -0.239533   -1.689885   -0.000366
     10          6           0       -0.643630   -0.367578   -0.001958
     11          8           0        3.417390   -1.393440   -0.003217
     12          8           0        1.412111   -3.387707    0.009761
     13          1           0        3.745166    1.004562   -0.038120
     14          1           0        3.152810    3.436560   -0.032416
     15          1           0        0.735226    4.089496    0.016050
     16          1           0       -1.016826    2.352867    0.038388
     17          1           0       -1.000804   -2.462315   -0.002224
     18         16           0       -2.445747   -0.018894   -0.004486
     19          8           0       -3.130781   -1.350947   -0.014374
     20          8           0       -2.735104    0.777207   -1.242510
     21          8           0       -2.739768    0.761029    1.242917
 ---------------------------------------------------------------------
 Rotational constants (GHZ):           0.6894807           0.4330813           0.2806003
 Leave Link  202 at Sat Jan 13 19:20:54 2024, MaxMem=  4026531840 cpu:               0.3 elap:               0.1
 (Enter /sysapps/ubuntu-applications/gaussian/Gaussian/AVX2/g16/l301.exe)
 Standard basis: 6-311++G(d,p) (5D, 7F)
 Ernie: Thresh=  0.10000D-02 Tol=  0.10000D-05 Strict=F.
 There are   411 symmetry adapted cartesian basis functions of A   symmetry.
 There are   395 symmetry adapted basis functions of A   symmetry.
   395 basis functions,   635 primitive gaussians,   411 cartesian basis functions
    62 alpha electrons       62 beta electrons
       nuclear repulsion energy      1185.7480386259 Hartrees.
 IExCor=  402 DFT=T Ex+Corr=B3LYP ExCW=0 ScaHFX=  0.200000
 ScaDFX=  0.800000  0.720000  1.000000  0.810000 ScalE2=  1.000000  1.000000
 IRadAn=      5 IRanWt=     -1 IRanGd=            0 ICorTp=0 IEmpDi=  4
 NAtoms=   21 NActive=   21 NUniq=   21 SFac= 1.00D+00 NAtFMM=   60 NAOKFM=F Big=F
 Integral buffers will be    131072 words long.
 Raffenetti 2 integral format.
 Two-electron integral symmetry is turned on.
 ------------------------------------------------------------------------------
 Polarizable Continuum Model (PCM)
 =================================
 Model                : PCM.
 Atomic radii         : UFF (Universal Force Field).
 Polarization charges : Total charges.
 Charge compensation  : None.
 Solution method      : On-the-fly selection.
 Cavity type          : Scaled VdW (van der Waals Surface) (Alpha=1.100).
 Cavity algorithm     : GePol (No added spheres)
                        Default sphere list used, NSphG=   21.
                        Lebedev-Laikov grids with approx.  5.0 points / Ang**2.
                        Smoothing algorithm: York/Karplus (Gamma=1.0000).
                        Polarization charges: spherical gaussians, with
                                              point-specific exponents (IZeta= 3).
                        Self-potential: point-specific (ISelfS= 7).
                        Self-field    : sphere-specific E.n sum rule (ISelfD= 2).
 Solvent              : n,n-DiMethylFormamide, Eps=  37.219000 Eps(inf)=   2.046330
 ------------------------------------------------------------------------------
 GePol: Number of generator spheres                  =      21
 GePol: Total number of spheres                      =      21
 GePol: Number of exposed spheres                    =      21 (100.00%)
 GePol: Number of points                             =    2015
 GePol: Average weight of points                     =       0.13
 GePol: Minimum weight of points                     =   0.38D-10
 GePol: Maximum weight of points                     =    0.20577
 GePol: Number of points with low weight             =      95
 GePol: Fraction of low-weight points (<1% of avg)   =       4.71%
 GePol: Cavity surface area                          =    254.120 Ang**2
 GePol: Cavity volume                                =    272.297 Ang**3
 Leave Link  301 at Sat Jan 13 19:20:54 2024, MaxMem=  4026531840 cpu:               0.9 elap:               0.2
 (Enter /sysapps/ubuntu-applications/gaussian/Gaussian/AVX2/g16/l302.exe)
 NPDir=0 NMtPBC=     1 NCelOv=     1 NCel=       1 NClECP=     1 NCelD=      1
         NCelK=      1 NCelE2=     1 NClLst=     1 CellRange=     0.0.
 One-electron integrals computed using PRISM.
 One-electron integral symmetry used in STVInt
 NBasis=   395 RedAO= T EigKep=  1.94D-06  NBF=   395
 NBsUse=   391 1.00D-06 EigRej=  9.08D-07 NBFU=   391
 Precomputing XC quadrature grid using
 IXCGrd= 4 IRadAn=           5 IRanWt=          -1 IRanGd=           0 AccXCQ= 0.00D+00.
 Generated NRdTot=       0 NPtTot=           0 NUsed=           0 NTot=          32
 NSgBfM=   410   410   410   410   410 MxSgAt=    21 MxSgA2=    21.
 Leave Link  302 at Sat Jan 13 19:20:54 2024, MaxMem=  4026531840 cpu:               2.1 elap:               0.3
 (Enter /sysapps/ubuntu-applications/gaussian/Gaussian/AVX2/g16/l303.exe)
 DipDrv:  MaxL=1.
 Leave Link  303 at Sat Jan 13 19:20:54 2024, MaxMem=  4026531840 cpu:               0.6 elap:               0.1
 (Enter /sysapps/ubuntu-applications/gaussian/Gaussian/AVX2/g16/l401.exe)
 ExpMin= 3.60D-02 ExpMax= 9.34D+04 ExpMxC= 3.17D+03 IAcc=3 IRadAn=         5 AccDes= 0.00D+00
 Harris functional with IExCor=  402 and IRadAn=       5 diagonalized for initial guess.
 HarFok:  IExCor=  402 AccDes= 0.00D+00 IRadAn=         5 IDoV= 1 UseB2=F ITyADJ=14
 ICtDFT=  3500011 ScaDFX=  1.000000  1.000000  1.000000  1.000000
 FoFCou: FMM=F IPFlag=           0 FMFlag=      100000 FMFlg1=           0
         NFxFlg=           0 DoJE=T BraDBF=F KetDBF=T FulRan=T
         wScrn=  0.000000 ICntrl=       500 IOpCl=  0 I1Cent=   200000004 NGrid=           0
         NMat0=    1 NMatS0=      1 NMatT0=    0 NMatD0=    1 NMtDS0=    0 NMtDT0=    0
 Petite list used in FoFCou.
 Harris En= -1159.30776655741    
 JPrj=0 DoOrth=F DoCkMO=F.
 Initial guess <Sx>= 0.0000 <Sy>= 0.0000 <Sz>= 0.0000 <S**2>=-0.0000 S=-0.0000
 Leave Link  401 at Sat Jan 13 19:20:55 2024, MaxMem=  4026531840 cpu:               8.9 elap:               1.2
 (Enter /sysapps/ubuntu-applications/gaussian/Gaussian/AVX2/g16/l502.exe)
 Integral symmetry usage will be decided dynamically.
 UHF open shell SCF:
 Using DIIS extrapolation, IDIIS=  1040.
 NGot=  4026531840 LenX=  4026186898 LenY=  4026017536
 Requested convergence on RMS density matrix=1.00D-08 within 128 cycles.
 Requested convergence on MAX density matrix=1.00D-06.
 Requested convergence on             energy=1.00D-06.
 No special actions if energy rises.
 Fock matrices will be formed incrementally for  20 cycles.

 Cycle   1  Pass 1  IDiag  1:
 FoFJK:  IHMeth= 1 ICntrl=       0 DoSepK=F KAlg= 0 I1Cent=           0 FoldK=F
 IRaf= 880000000 NMat=       1 IRICut=       1 DoRegI=T DoRafI=F ISym2E= 0 IDoP0=0 IntGTp=1.
 FoFCou: FMM=F IPFlag=           0 FMFlag=      100000 FMFlg1=           0
         NFxFlg=           0 DoJE=F BraDBF=F KetDBF=F FulRan=T
         wScrn=  0.000000 ICntrl=         0 IOpCl=  1 I1Cent=           0 NGrid=           0
         NMat0=    1 NMatS0=      1 NMatT0=    0 NMatD0=    1 NMtDS0=    0 NMtDT0=    0
 Symmetry not used in FoFCou.
 Inv3:  Mode=1 IEnd=    12180675.
 Iteration    1 A*A^-1 deviation from unit magnitude is 3.11D-15 for    541.
 Iteration    1 A*A^-1 deviation from orthogonality  is 2.21D-15 for   1997   1122.
 Iteration    1 A^-1*A deviation from unit magnitude is 3.11D-15 for    541.
 Iteration    1 A^-1*A deviation from orthogonality  is 1.48D-15 for   1756    419.
 E= -1158.21312173037    
 DIIS: error= 8.03D-02 at cycle   1 NSaved=   1.
 NSaved= 1 IEnMin= 1 EnMin= -1158.21312173037     IErMin= 1 ErrMin= 8.03D-02
 ErrMax= 8.03D-02  0.00D+00 EMaxC= 1.00D-01 BMatC= 4.08D+00 BMatP= 4.08D+00
 IDIUse=3 WtCom= 1.97D-01 WtEn= 8.03D-01
 Coeff-Com:  0.100D+01
 Coeff-En:   0.100D+01
 Coeff:      0.100D+01
 Gap=     0.088 Goal=   None    Shift=    0.000
 Gap=     0.088 Goal=   None    Shift=    0.000
 GapD=    0.088 DampG=0.500 DampE=0.500 DampFc=0.2500 IDamp=-1.
 Damping current iteration by 2.50D-01
 RMSDP=2.51D+00 MaxDP=3.11D+02              OVMax= 9.77D-01

 Cycle   2  Pass 1  IDiag  1:
 RMSU=  5.58D-01    CP:  3.00D+00
 E= -1158.43879613851     Delta-E=       -0.225674408146 Rises=F Damp=T
 DIIS: error= 2.71D-02 at cycle   2 NSaved=   2.
 NSaved= 2 IEnMin= 2 EnMin= -1158.43879613851     IErMin= 2 ErrMin= 2.71D-02
 ErrMax= 2.71D-02  0.00D+00 EMaxC= 1.00D-01 BMatC= 5.73D-01 BMatP= 4.08D+00
 IDIUse=3 WtCom= 7.29D-01 WtEn= 2.71D-01
 Coeff-Com: -0.429D+00 0.143D+01
 Coeff-En:   0.462D-01 0.954D+00
 Coeff:     -0.300D+00 0.130D+01
 Gap=    -0.089 Goal=   None    Shift=    0.000
 Gap=    -0.089 Goal=   None    Shift=    0.000
 RMSDP=6.19D-01 MaxDP=7.70D+01 DE=-2.26D-01 OVMax= 8.57D-01

 Cycle   3  Pass 1  IDiag  1:
 RMSU=  2.15D-02    CP:  1.23D+00  4.88D-04
 E= -1158.84741146681     Delta-E=       -0.408615328292 Rises=F Damp=F
 DIIS: error= 1.85D-02 at cycle   3 NSaved=   3.
 NSaved= 3 IEnMin= 3 EnMin= -1158.84741146681     IErMin= 3 ErrMin= 1.85D-02
 ErrMax= 1.85D-02  0.00D+00 EMaxC= 1.00D-01 BMatC= 5.45D-01 BMatP= 5.73D-01
 IDIUse=3 WtCom= 8.15D-01 WtEn= 1.85D-01
 Coeff-Com: -0.304D+00 0.930D+00 0.375D+00
 Coeff-En:   0.000D+00 0.000D+00 0.100D+01
 Coeff:     -0.248D+00 0.758D+00 0.490D+00
 Gap=     0.106 Goal=   None    Shift=    0.000
 Gap=     0.106 Goal=   None    Shift=    0.000
 RMSDP=1.58D-02 MaxDP=1.65D+00 DE=-4.09D-01 OVMax= 2.42D-01

 Cycle   4  Pass 1  IDiag  1:
 RMSU=  1.21D-02    CP:  1.17D+00  1.52D-02  8.48D-01
 E= -1158.95157798202     Delta-E=       -0.104166515210 Rises=F Damp=F
 DIIS: error= 1.13D-02 at cycle   4 NSaved=   4.
 NSaved= 4 IEnMin= 4 EnMin= -1158.95157798202     IErMin= 4 ErrMin= 1.13D-02
 ErrMax= 1.13D-02  0.00D+00 EMaxC= 1.00D-01 BMatC= 1.15D-01 BMatP= 5.45D-01
 IDIUse=3 WtCom= 8.87D-01 WtEn= 1.13D-01
 Coeff-Com: -0.106D+00 0.223D+00 0.305D+00 0.577D+00
 Coeff-En:   0.000D+00 0.000D+00 0.184D+00 0.816D+00
 Coeff:     -0.938D-01 0.198D+00 0.292D+00 0.604D+00
 Gap=     0.102 Goal=   None    Shift=    0.000
 Gap=     0.102 Goal=   None    Shift=    0.000
 RMSDP=1.01D-02 MaxDP=1.56D+00 DE=-1.04D-01 OVMax= 7.79D-02

 Cycle   5  Pass 1  IDiag  1:
 RMSU=  2.77D-03    CP:  1.15D+00  4.00D-03  9.53D-01  4.33D-01
 E= -1158.97411617302     Delta-E=       -0.022538191008 Rises=F Damp=F
 DIIS: error= 1.92D-03 at cycle   5 NSaved=   5.
 NSaved= 5 IEnMin= 5 EnMin= -1158.97411617302     IErMin= 5 ErrMin= 1.92D-03
 ErrMax= 1.92D-03  0.00D+00 EMaxC= 1.00D-01 BMatC= 5.62D-03 BMatP= 1.15D-01
 IDIUse=3 WtCom= 9.81D-01 WtEn= 1.92D-02
 Coeff-Com: -0.360D-01 0.593D-01 0.103D+00 0.299D+00 0.574D+00
 Coeff-En:   0.000D+00 0.000D+00 0.000D+00 0.000D+00 0.100D+01
 Coeff:     -0.354D-01 0.581D-01 0.101D+00 0.293D+00 0.582D+00
 Gap=     0.103 Goal=   None    Shift=    0.000
 Gap=     0.103 Goal=   None    Shift=    0.000
 RMSDP=1.47D-03 MaxDP=8.80D-02 DE=-2.25D-02 OVMax= 2.07D-02

 Cycle   6  Pass 1  IDiag  1:
 RMSU=  4.94D-04    CP:  1.13D+00  3.88D-03  9.42D-01  4.58D-01  1.15D+00
 E= -1158.97531999019     Delta-E=       -0.001203817166 Rises=F Damp=F
 DIIS: error= 7.37D-04 at cycle   6 NSaved=   6.
 NSaved= 6 IEnMin= 6 EnMin= -1158.97531999019     IErMin= 6 ErrMin= 7.37D-04
 ErrMax= 7.37D-04  0.00D+00 EMaxC= 1.00D-01 BMatC= 7.13D-04 BMatP= 5.62D-03
 IDIUse=3 WtCom= 9.93D-01 WtEn= 7.37D-03
 Coeff-Com: -0.209D-03-0.561D-02-0.183D-02 0.437D-01 0.330D+00 0.634D+00
 Coeff-En:   0.000D+00 0.000D+00 0.000D+00 0.000D+00 0.866D-01 0.913D+00
 Coeff:     -0.207D-03-0.557D-02-0.182D-02 0.434D-01 0.329D+00 0.636D+00
 Gap=     0.103 Goal=   None    Shift=    0.000
 Gap=     0.103 Goal=   None    Shift=    0.000
 RMSDP=9.31D-04 MaxDP=1.08D-01 DE=-1.20D-03 OVMax= 4.93D-03

 Cycle   7  Pass 1  IDiag  1:
 RMSU=  2.30D-04    CP:  1.12D+00  3.24D-03  9.32D-01  4.37D-01  1.24D+00
                    CP:  1.07D+00
 E= -1158.97546820777     Delta-E=       -0.000148217580 Rises=F Damp=F
 DIIS: error= 2.84D-04 at cycle   7 NSaved=   7.
 NSaved= 7 IEnMin= 7 EnMin= -1158.97546820777     IErMin= 7 ErrMin= 2.84D-04
 ErrMax= 2.84D-04  0.00D+00 EMaxC= 1.00D-01 BMatC= 1.15D-04 BMatP= 7.13D-04
 IDIUse=3 WtCom= 9.97D-01 WtEn= 2.84D-03
 Coeff-Com:  0.112D-02-0.284D-02-0.416D-02 0.737D-02 0.164D+00 0.383D+00
 Coeff-Com:  0.452D+00
 Coeff-En:   0.000D+00 0.000D+00 0.000D+00 0.000D+00 0.000D+00 0.495D-01
 Coeff-En:   0.951D+00
 Coeff:      0.111D-02-0.284D-02-0.415D-02 0.735D-02 0.163D+00 0.382D+00
 Coeff:      0.453D+00
 Gap=     0.104 Goal=   None    Shift=    0.000
 Gap=     0.104 Goal=   None    Shift=    0.000
 RMSDP=3.16D-04 MaxDP=3.28D-02 DE=-1.48D-04 OVMax= 2.11D-03

 Cycle   8  Pass 1  IDiag  1:
 RMSU=  9.88D-05    CP:  1.12D+00  3.01D-03  9.33D-01  4.17D-01  1.25D+00
                    CP:  1.16D+00  7.37D-01
 E= -1158.97549508079     Delta-E=       -0.000026873016 Rises=F Damp=F
 DIIS: error= 1.01D-04 at cycle   8 NSaved=   8.
 NSaved= 8 IEnMin= 8 EnMin= -1158.97549508079     IErMin= 8 ErrMin= 1.01D-04
 ErrMax= 1.01D-04  0.00D+00 EMaxC= 1.00D-01 BMatC= 1.13D-05 BMatP= 1.15D-04
 IDIUse=3 WtCom= 9.99D-01 WtEn= 1.01D-03
 Coeff-Com:  0.132D-02-0.174D-02-0.153D-02-0.258D-02 0.471D-01 0.119D+00
 Coeff-Com:  0.244D+00 0.595D+00
 Coeff-En:   0.000D+00 0.000D+00 0.000D+00 0.000D+00 0.000D+00 0.000D+00
 Coeff-En:   0.000D+00 0.100D+01
 Coeff:      0.132D-02-0.174D-02-0.153D-02-0.258D-02 0.470D-01 0.119D+00
 Coeff:      0.244D+00 0.595D+00
 Gap=     0.104 Goal=   None    Shift=    0.000
 Gap=     0.104 Goal=   None    Shift=    0.000
 RMSDP=1.30D-04 MaxDP=1.56D-02 DE=-2.69D-05 OVMax= 7.55D-04

 Cycle   9  Pass 1  IDiag  1:
 RMSU=  3.70D-05    CP:  1.12D+00  2.88D-03  9.32D-01  4.12D-01  1.26D+00
                    CP:  1.17D+00  8.78D-01  9.20D-01
 E= -1158.97549722105     Delta-E=       -0.000002140258 Rises=F Damp=F
 DIIS: error= 4.02D-05 at cycle   9 NSaved=   9.
 NSaved= 9 IEnMin= 9 EnMin= -1158.97549722105     IErMin= 9 ErrMin= 4.02D-05
 ErrMax= 4.02D-05  0.00D+00 EMaxC= 1.00D-01 BMatC= 1.85D-06 BMatP= 1.13D-05
 IDIUse=1 WtCom= 1.00D+00 WtEn= 0.00D+00
 Coeff-Com:  0.880D-03-0.119D-02-0.449D-03-0.177D-02 0.182D-01 0.426D-01
 Coeff-Com:  0.106D+00 0.359D+00 0.477D+00
 Coeff:      0.880D-03-0.119D-02-0.449D-03-0.177D-02 0.182D-01 0.426D-01
 Coeff:      0.106D+00 0.359D+00 0.477D+00
 Gap=     0.104 Goal=   None    Shift=    0.000
 Gap=     0.104 Goal=   None    Shift=    0.000
 RMSDP=4.68D-05 MaxDP=6.91D-03 DE=-2.14D-06 OVMax= 4.01D-04

 Cycle  10  Pass 1  IDiag  1:
 RMSU=  9.88D-06    CP:  1.12D+00  2.84D-03  9.32D-01  4.10D-01  1.26D+00
                    CP:  1.18D+00  8.52D-01  1.01D+00  7.12D-01
 E= -1158.97549757898     Delta-E=       -0.000000357932 Rises=F Damp=F
 DIIS: error= 1.09D-05 at cycle  10 NSaved=  10.
 NSaved=10 IEnMin=10 EnMin= -1158.97549757898     IErMin=10 ErrMin= 1.09D-05
 ErrMax= 1.09D-05  0.00D+00 EMaxC= 1.00D-01 BMatC= 2.52D-07 BMatP= 1.85D-06
 IDIUse=1 WtCom= 1.00D+00 WtEn= 0.00D+00
 Coeff-Com:  0.295D-03-0.448D-03 0.117D-03-0.305D-03 0.274D-02 0.222D-02
 Coeff-Com:  0.747D-02 0.680D-01 0.275D+00 0.645D+00
 Coeff:      0.295D-03-0.448D-03 0.117D-03-0.305D-03 0.274D-02 0.222D-02
 Coeff:      0.747D-02 0.680D-01 0.275D+00 0.645D+00
 Gap=     0.104 Goal=   None    Shift=    0.000
 Gap=     0.104 Goal=   None    Shift=    0.000
 RMSDP=2.55D-05 MaxDP=3.07D-03 DE=-3.58D-07 OVMax= 1.01D-04

 Cycle  11  Pass 1  IDiag  1:
 RMSU=  3.67D-06    CP:  1.12D+00  2.82D-03  9.31D-01  4.08D-01  1.26D+00
                    CP:  1.19D+00  8.69D-01  1.03D+00  8.37D-01  1.02D+00
 E= -1158.97549763937     Delta-E=       -0.000000060392 Rises=F Damp=F
 DIIS: error= 5.09D-06 at cycle  11 NSaved=  11.
 NSaved=11 IEnMin=11 EnMin= -1158.97549763937     IErMin=11 ErrMin= 5.09D-06
 ErrMax= 5.09D-06  0.00D+00 EMaxC= 1.00D-01 BMatC= 2.93D-08 BMatP= 2.52D-07
 IDIUse=1 WtCom= 1.00D+00 WtEn= 0.00D+00
 Coeff-Com:  0.294D-04-0.414D-04 0.201D-03 0.138D-03-0.102D-02-0.539D-02
 Coeff-Com: -0.125D-01-0.144D-01 0.950D-01 0.344D+00 0.594D+00
 Coeff:      0.294D-04-0.414D-04 0.201D-03 0.138D-03-0.102D-02-0.539D-02
 Coeff:     -0.125D-01-0.144D-01 0.950D-01 0.344D+00 0.594D+00
 Gap=     0.104 Goal=   None    Shift=    0.000
 Gap=     0.104 Goal=   None    Shift=    0.000
 RMSDP=9.06D-06 MaxDP=1.22D-03 DE=-6.04D-08 OVMax= 4.53D-05

 Cycle  12  Pass 1  IDiag  1:
 RMSU=  1.31D-06    CP:  1.12D+00  2.81D-03  9.31D-01  4.08D-01  1.26D+00
                    CP:  1.19D+00  8.73D-01  1.04D+00  8.54D-01  1.13D+00
                    CP:  7.98D-01
 E= -1158.97549764627     Delta-E=       -0.000000006899 Rises=F Damp=F
 DIIS: error= 1.54D-06 at cycle  12 NSaved=  12.
 NSaved=12 IEnMin=12 EnMin= -1158.97549764627     IErMin=12 ErrMin= 1.54D-06
 ErrMax= 1.54D-06  0.00D+00 EMaxC= 1.00D-01 BMatC= 3.91D-09 BMatP= 2.93D-08
 IDIUse=1 WtCom= 1.00D+00 WtEn= 0.00D+00
 Coeff-Com: -0.446D-05-0.639D-07 0.810D-04 0.935D-04-0.627D-03-0.280D-02
 Coeff-Com: -0.689D-02-0.138D-01 0.255D-01 0.105D+00 0.335D+00 0.558D+00
 Coeff:     -0.446D-05-0.639D-07 0.810D-04 0.935D-04-0.627D-03-0.280D-02
 Coeff:     -0.689D-02-0.138D-01 0.255D-01 0.105D+00 0.335D+00 0.558D+00
 Gap=     0.104 Goal=   None    Shift=    0.000
 Gap=     0.104 Goal=   None    Shift=    0.000
 RMSDP=2.03D-06 MaxDP=1.54D-04 DE=-6.90D-09 OVMax= 9.96D-06

 Cycle  13  Pass 1  IDiag  1:
 RMSU=  5.70D-07    CP:  1.12D+00  2.81D-03  9.31D-01  4.08D-01  1.26D+00
                    CP:  1.19D+00  8.73D-01  1.05D+00  8.70D-01  1.12D+00
                    CP:  1.00D+00  8.05D-01
 E= -1158.97549764701     Delta-E=       -0.000000000744 Rises=F Damp=F
 DIIS: error= 9.30D-07 at cycle  13 NSaved=  13.
 NSaved=13 IEnMin=13 EnMin= -1158.97549764701     IErMin=13 ErrMin= 9.30D-07
 ErrMax= 9.30D-07  0.00D+00 EMaxC= 1.00D-01 BMatC= 7.54D-10 BMatP= 3.91D-09
 IDIUse=1 WtCom= 1.00D+00 WtEn= 0.00D+00
 Coeff-Com: -0.617D-05 0.492D-05 0.165D-04 0.293D-04-0.165D-03-0.796D-03
 Coeff-Com: -0.200D-02-0.581D-02 0.211D-02 0.743D-02 0.125D+00 0.352D+00
 Coeff-Com:  0.522D+00
 Coeff:     -0.617D-05 0.492D-05 0.165D-04 0.293D-04-0.165D-03-0.796D-03
 Coeff:     -0.200D-02-0.581D-02 0.211D-02 0.743D-02 0.125D+00 0.352D+00
 Coeff:      0.522D+00
 Gap=     0.104 Goal=   None    Shift=    0.000
 Gap=     0.104 Goal=   None    Shift=    0.000
 RMSDP=8.51D-07 MaxDP=7.30D-05 DE=-7.44D-10 OVMax= 4.72D-06

 Cycle  14  Pass 1  IDiag  1:
 RMSU=  2.16D-07    CP:  1.12D+00  2.81D-03  9.31D-01  4.08D-01  1.26D+00
                    CP:  1.19D+00  8.74D-01  1.04D+00  8.69D-01  1.13D+00
                    CP:  9.53D-01  9.55D-01  8.45D-01
 E= -1158.97549764718     Delta-E=       -0.000000000171 Rises=F Damp=F
 DIIS: error= 2.83D-07 at cycle  14 NSaved=  14.
 NSaved=14 IEnMin=14 EnMin= -1158.97549764718     IErMin=14 ErrMin= 2.83D-07
 ErrMax= 2.83D-07  0.00D+00 EMaxC= 1.00D-01 BMatC= 6.62D-11 BMatP= 7.54D-10
 IDIUse=1 WtCom= 1.00D+00 WtEn= 0.00D+00
 Coeff-Com: -0.389D-05 0.519D-05-0.946D-07 0.232D-05-0.236D-04-0.129D-03
 Coeff-Com: -0.184D-03-0.152D-02-0.227D-02-0.114D-01 0.281D-01 0.115D+00
 Coeff-Com:  0.279D+00 0.593D+00
 Coeff:     -0.389D-05 0.519D-05-0.946D-07 0.232D-05-0.236D-04-0.129D-03
 Coeff:     -0.184D-03-0.152D-02-0.227D-02-0.114D-01 0.281D-01 0.115D+00
 Coeff:      0.279D+00 0.593D+00
 Gap=     0.104 Goal=   None    Shift=    0.000
 Gap=     0.104 Goal=   None    Shift=    0.000
 RMSDP=1.95D-07 MaxDP=1.66D-05 DE=-1.71D-10 OVMax= 2.11D-06

 Cycle  15  Pass 1  IDiag  1:
 RMSU=  5.32D-08    CP:  1.12D+00  2.81D-03  9.31D-01  4.08D-01  1.26D+00
                    CP:  1.19D+00  8.74D-01  1.05D+00  8.70D-01  1.14D+00
                    CP:  9.82D-01  9.61D-01  8.82D-01  1.01D+00
 E= -1158.97549764717     Delta-E=        0.000000000012 Rises=F Damp=F
 DIIS: error= 6.93D-08 at cycle  15 NSaved=  15.
 NSaved=15 IEnMin=14 EnMin= -1158.97549764718     IErMin=15 ErrMin= 6.93D-08
 ErrMax= 6.93D-08  0.00D+00 EMaxC= 1.00D-01 BMatC= 6.92D-12 BMatP= 6.62D-11
 IDIUse=1 WtCom= 1.00D+00 WtEn= 0.00D+00
 Coeff-Com: -0.118D-05 0.213D-05-0.187D-05-0.417D-05-0.192D-05 0.446D-05
 Coeff-Com:  0.172D-03 0.282D-04-0.123D-02-0.611D-02-0.277D-02-0.439D-02
 Coeff-Com:  0.480D-01 0.275D+00 0.691D+00
 Coeff:     -0.118D-05 0.213D-05-0.187D-05-0.417D-05-0.192D-05 0.446D-05
 Coeff:      0.172D-03 0.282D-04-0.123D-02-0.611D-02-0.277D-02-0.439D-02
 Coeff:      0.480D-01 0.275D+00 0.691D+00
 Gap=     0.104 Goal=   None    Shift=    0.000
 Gap=     0.104 Goal=   None    Shift=    0.000
 RMSDP=5.36D-08 MaxDP=4.27D-06 DE= 1.23D-11 OVMax= 9.40D-07

 Cycle  16  Pass 1  IDiag  1:
 RMSU=  1.69D-08    CP:  1.12D+00  2.81D-03  9.31D-01  4.08D-01  1.26D+00
                    CP:  1.19D+00  8.74D-01  1.04D+00  8.70D-01  1.14D+00
                    CP:  9.84D-01  9.74D-01  9.14D-01  1.07D+00  1.14D+00
 E= -1158.97549764718     Delta-E=       -0.000000000005 Rises=F Damp=F
 DIIS: error= 1.76D-08 at cycle  16 NSaved=  16.
 NSaved=16 IEnMin=14 EnMin= -1158.97549764718     IErMin=16 ErrMin= 1.76D-08
 ErrMax= 1.76D-08  0.00D+00 EMaxC= 1.00D-01 BMatC= 4.05D-13 BMatP= 6.92D-12
 IDIUse=1 WtCom= 1.00D+00 WtEn= 0.00D+00
 Coeff-Com: -0.677D-07 0.194D-06-0.378D-06-0.968D-06 0.104D-05 0.464D-05
 Coeff-Com:  0.632D-04 0.104D-03-0.645D-04-0.508D-03-0.146D-02-0.119D-01
 Coeff-Com: -0.106D-01 0.184D-01 0.131D+00 0.875D+00
 Coeff:     -0.677D-07 0.194D-06-0.378D-06-0.968D-06 0.104D-05 0.464D-05
 Coeff:      0.632D-04 0.104D-03-0.645D-04-0.508D-03-0.146D-02-0.119D-01
 Coeff:     -0.106D-01 0.184D-01 0.131D+00 0.875D+00
 Gap=     0.104 Goal=   None    Shift=    0.000
 Gap=     0.104 Goal=   None    Shift=    0.000
 RMSDP=3.01D-08 MaxDP=3.71D-06 DE=-5.00D-12 OVMax= 4.08D-07

 Cycle  17  Pass 1  IDiag  1:
 RMSU=  5.83D-09    CP:  1.12D+00  2.81D-03  9.31D-01  4.08D-01  1.26D+00
                    CP:  1.19D+00  8.74D-01  1.04D+00  8.71D-01  1.14D+00
                    CP:  9.85D-01  9.76D-01  9.27D-01  1.10D+00  1.19D+00
                    CP:  1.14D+00
 E= -1158.97549764716     Delta-E=        0.000000000021 Rises=F Damp=F
 DIIS: error= 1.25D-08 at cycle  17 NSaved=  17.
 NSaved=17 IEnMin=14 EnMin= -1158.97549764718     IErMin=17 ErrMin= 1.25D-08
 ErrMax= 1.25D-08  0.00D+00 EMaxC= 1.00D-01 BMatC= 9.92D-14 BMatP= 4.05D-13
 IDIUse=1 WtCom= 1.00D+00 WtEn= 0.00D+00
 Coeff-Com:  0.367D-07-0.169D-07-0.547D-07-0.193D-06 0.108D-05 0.273D-05
 Coeff-Com:  0.259D-04 0.602D-04 0.673D-04 0.144D-03-0.534D-03-0.684D-02
 Coeff-Com: -0.102D-01-0.112D-01 0.176D-01 0.529D+00 0.482D+00
 Coeff:      0.367D-07-0.169D-07-0.547D-07-0.193D-06 0.108D-05 0.273D-05
 Coeff:      0.259D-04 0.602D-04 0.673D-04 0.144D-03-0.534D-03-0.684D-02
 Coeff:     -0.102D-01-0.112D-01 0.176D-01 0.529D+00 0.482D+00
 Gap=     0.104 Goal=   None    Shift=    0.000
 Gap=     0.104 Goal=   None    Shift=    0.000
 RMSDP=6.29D-09 MaxDP=9.17D-07 DE= 2.07D-11 OVMax= 6.64D-08

 Error on total polarization charges =  0.03289
 SCF Done:  E(UB3LYP) =  -1158.97549765     A.U. after   17 cycles
            NFock= 17  Conv=0.63D-08     -V/T= 2.0031
 <Sx>= 0.0000 <Sy>= 0.0000 <Sz>= 0.0000 <S**2>=-0.0000 S=-0.0000
 <L.S>=  0.00000000000    
 KE= 1.155391115147D+03 PE=-5.153746721948D+03 EE= 1.653632070528D+03
 Annihilation of the first spin contaminant:
 S**2 before annihilation    -0.0000,   after    -0.0000
 Leave Link  502 at Sat Jan 13 19:22:36 2024, MaxMem=  4026531840 cpu:             798.8 elap:             100.2
 (Enter /sysapps/ubuntu-applications/gaussian/Gaussian/AVX2/g16/l601.exe)
 Copying SCF densities to generalized density rwf, IOpCl= 1 IROHF=0.

 **********************************************************************

            Population analysis using the SCF density.

 **********************************************************************

 Orbital symmetries:
 Alpha Orbitals:
       Occupied  (A) (A) (A) (A) (A) (A) (A) (A) (A) (A) (A) (A)
                 (A) (A) (A) (A) (A) (A) (A) (A) (A) (A) (A) (A)
                 (A) (A) (A) (A) (A) (A) (A) (A) (A) (A) (A) (A)
                 (A) (A) (A) (A) (A) (A) (A) (A) (A) (A) (A) (A)
                 (A) (A) (A) (A) (A) (A) (A) (A) (A) (A) (A) (A)
                 (A) (A)
       Virtual   (A) (A) (A) (A) (A) (A) (A) (A) (A) (A) (A) (A)
                 (A) (A) (A) (A) (A) (A) (A) (A) (A) (A) (A) (A)
                 (A) (A) (A) (A) (A) (A) (A) (A) (A) (A) (A) (A)
                 (A) (A) (A) (A) (A) (A) (A) (A) (A) (A) (A) (A)
                 (A) (A) (A) (A) (A) (A) (A) (A) (A) (A) (A) (A)
                 (A) (A) (A) (A) (A) (A) (A) (A) (A) (A) (A) (A)
                 (A) (A) (A) (A) (A) (A) (A) (A) (A) (A) (A) (A)
                 (A) (A) (A) (A) (A) (A) (A) (A) (A) (A) (A) (A)
                 (A) (A) (A) (A) (A) (A) (A) (A) (A) (A) (A) (A)
                 (A) (A) (A) (A) (A) (A) (A) (A) (A) (A) (A) (A)
                 (A) (A) (A) (A) (A) (A) (A) (A) (A) (A) (A) (A)
                 (A) (A) (A) (A) (A) (A) (A) (A) (A) (A) (A) (A)
                 (A) (A) (A) (A) (A) (A) (A) (A) (A) (A) (A) (A)
                 (A) (A) (A) (A) (A) (A) (A) (A) (A) (A) (A) (A)
                 (A) (A) (A) (A) (A) (A) (A) (A) (A) (A) (A) (A)
                 (A) (A) (A) (A) (A) (A) (A) (A) (A) (A) (A) (A)
                 (A) (A) (A) (A) (A) (A) (A) (A) (A) (A) (A) (A)
                 (A) (A) (A) (A) (A) (A) (A) (A) (A) (A) (A) (A)
                 (A) (A) (A) (A) (A) (A) (A) (A) (A) (A) (A) (A)
                 (A) (A) (A) (A) (A) (A) (A) (A) (A) (A) (A) (A)
                 (A) (A) (A) (A) (A) (A) (A) (A) (A) (A) (A) (A)
                 (A) (A) (A) (A) (A) (A) (A) (A) (A) (A) (A) (A)
                 (A) (A) (A) (A) (A) (A) (A) (A) (A) (A) (A) (A)
                 (A) (A) (A) (A) (A) (A) (A) (A) (A) (A) (A) (A)
                 (A) (A) (A) (A) (A) (A) (A) (A) (A) (A) (A) (A)
                 (A) (A) (A) (A) (A) (A) (A) (A) (A) (A) (A) (A)
                 (A) (A) (A) (A) (A) (A) (A) (A) (A) (A) (A) (A)
                 (A) (A) (A) (A) (A)
 Beta  Orbitals:
       Occupied  (A) (A) (A) (A) (A) (A) (A) (A) (A) (A) (A) (A)
                 (A) (A) (A) (A) (A) (A) (A) (A) (A) (A) (A) (A)
                 (A) (A) (A) (A) (A) (A) (A) (A) (A) (A) (A) (A)
                 (A) (A) (A) (A) (A) (A) (A) (A) (A) (A) (A) (A)
                 (A) (A) (A) (A) (A) (A) (A) (A) (A) (A) (A) (A)
                 (A) (A)
       Virtual   (A) (A) (A) (A) (A) (A) (A) (A) (A) (A) (A) (A)
                 (A) (A) (A) (A) (A) (A) (A) (A) (A) (A) (A) (A)
                 (A) (A) (A) (A) (A) (A) (A) (A) (A) (A) (A) (A)
                 (A) (A) (A) (A) (A) (A) (A) (A) (A) (A) (A) (A)
                 (A) (A) (A) (A) (A) (A) (A) (A) (A) (A) (A) (A)
                 (A) (A) (A) (A) (A) (A) (A) (A) (A) (A) (A) (A)
                 (A) (A) (A) (A) (A) (A) (A) (A) (A) (A) (A) (A)
                 (A) (A) (A) (A) (A) (A) (A) (A) (A) (A) (A) (A)
                 (A) (A) (A) (A) (A) (A) (A) (A) (A) (A) (A) (A)
                 (A) (A) (A) (A) (A) (A) (A) (A) (A) (A) (A) (A)
                 (A) (A) (A) (A) (A) (A) (A) (A) (A) (A) (A) (A)
                 (A) (A) (A) (A) (A) (A) (A) (A) (A) (A) (A) (A)
                 (A) (A) (A) (A) (A) (A) (A) (A) (A) (A) (A) (A)
                 (A) (A) (A) (A) (A) (A) (A) (A) (A) (A) (A) (A)
                 (A) (A) (A) (A) (A) (A) (A) (A) (A) (A) (A) (A)
                 (A) (A) (A) (A) (A) (A) (A) (A) (A) (A) (A) (A)
                 (A) (A) (A) (A) (A) (A) (A) (A) (A) (A) (A) (A)
                 (A) (A) (A) (A) (A) (A) (A) (A) (A) (A) (A) (A)
                 (A) (A) (A) (A) (A) (A) (A) (A) (A) (A) (A) (A)
                 (A) (A) (A) (A) (A) (A) (A) (A) (A) (A) (A) (A)
                 (A) (A) (A) (A) (A) (A) (A) (A) (A) (A) (A) (A)
                 (A) (A) (A) (A) (A) (A) (A) (A) (A) (A) (A) (A)
                 (A) (A) (A) (A) (A) (A) (A) (A) (A) (A) (A) (A)
                 (A) (A) (A) (A) (A) (A) (A) (A) (A) (A) (A) (A)
                 (A) (A) (A) (A) (A) (A) (A) (A) (A) (A) (A) (A)
                 (A) (A) (A) (A) (A) (A) (A) (A) (A) (A) (A) (A)
                 (A) (A) (A) (A) (A) (A) (A) (A) (A) (A) (A) (A)
                 (A) (A) (A) (A) (A)
 The electronic state is 1-A.
 Alpha  occ. eigenvalues --  -89.02011 -19.06878 -19.06647 -19.06632 -19.02036
 Alpha  occ. eigenvalues --  -19.01366 -10.16807 -10.16384 -10.14863 -10.14812
 Alpha  occ. eigenvalues --  -10.14487 -10.14445 -10.14385 -10.14072 -10.13373
 Alpha  occ. eigenvalues --  -10.12401  -8.07889  -6.04191  -6.04169  -6.04007
 Alpha  occ. eigenvalues --   -1.07980  -0.95010  -0.94566  -0.94282  -0.92107
 Alpha  occ. eigenvalues --   -0.82754  -0.77110  -0.72157  -0.69458  -0.65354
 Alpha  occ. eigenvalues --   -0.58778  -0.58217  -0.55413  -0.52120  -0.47729
 Alpha  occ. eigenvalues --   -0.46838  -0.45114  -0.42955  -0.42776  -0.41487
 Alpha  occ. eigenvalues --   -0.40445  -0.39529  -0.37792  -0.37041  -0.35988
 Alpha  occ. eigenvalues --   -0.34590  -0.32874  -0.31874  -0.31825  -0.31238
 Alpha  occ. eigenvalues --   -0.30663  -0.30040  -0.27795  -0.27108  -0.26351
 Alpha  occ. eigenvalues --   -0.25398  -0.23428  -0.22467  -0.20723  -0.19138
 Alpha  occ. eigenvalues --   -0.17932  -0.11112
 Alpha virt. eigenvalues --   -0.00736   0.00559   0.01727   0.02125   0.02512
 Alpha virt. eigenvalues --    0.03688   0.04023   0.05020   0.05528   0.05701
 Alpha virt. eigenvalues --    0.06453   0.06705   0.06900   0.08376   0.08708
 Alpha virt. eigenvalues --    0.09448   0.10074   0.10425   0.10489   0.11293
 Alpha virt. eigenvalues --    0.12082   0.12197   0.13052   0.13095   0.13459
 Alpha virt. eigenvalues --    0.13535   0.14038   0.14272   0.14513   0.15123
 Alpha virt. eigenvalues --    0.15458   0.16165   0.16239   0.16621   0.17051
 Alpha virt. eigenvalues --    0.17203   0.17703   0.18342   0.18757   0.19782
 Alpha virt. eigenvalues --    0.20734   0.20879   0.22198   0.22312   0.23280
 Alpha virt. eigenvalues --    0.23536   0.23977   0.24747   0.25470   0.26134
 Alpha virt. eigenvalues --    0.26160   0.26432   0.26784   0.27396   0.27939
 Alpha virt. eigenvalues --    0.28209   0.29140   0.29648   0.30037   0.30291
 Alpha virt. eigenvalues --    0.30541   0.31214   0.31273   0.31542   0.31898
 Alpha virt. eigenvalues --    0.32131   0.32647   0.33071   0.33417   0.33856
 Alpha virt. eigenvalues --    0.34349   0.35536   0.35748   0.36360   0.37385
 Alpha virt. eigenvalues --    0.37733   0.37935   0.38591   0.39482   0.40470
 Alpha virt. eigenvalues --    0.41547   0.41912   0.42094   0.43224   0.44116
 Alpha virt. eigenvalues --    0.46554   0.46846   0.48833   0.49386   0.50504
 Alpha virt. eigenvalues --    0.53175   0.53969   0.55698   0.56494   0.56668
 Alpha virt. eigenvalues --    0.58461   0.58750   0.61277   0.61748   0.61949
 Alpha virt. eigenvalues --    0.63694   0.63955   0.64249   0.65298   0.65848
 Alpha virt. eigenvalues --    0.66533   0.67120   0.69195   0.69687   0.71127
 Alpha virt. eigenvalues --    0.72356   0.74488   0.75261   0.76303   0.77196
 Alpha virt. eigenvalues --    0.78074   0.80325   0.80757   0.82593   0.83668
 Alpha virt. eigenvalues --    0.85236   0.86185   0.87453   0.88128   0.90136
 Alpha virt. eigenvalues --    0.90658   0.92582   0.93088   0.93179   0.95562
 Alpha virt. eigenvalues --    0.96615   0.97502   0.98994   0.99279   1.00087
 Alpha virt. eigenvalues --    1.00475   1.01963   1.03453   1.04711   1.05432
 Alpha virt. eigenvalues --    1.07866   1.08368   1.11115   1.11680   1.11950
 Alpha virt. eigenvalues --    1.13458   1.14149   1.14750   1.16217   1.17325
 Alpha virt. eigenvalues --    1.18064   1.18203   1.18904   1.21137   1.21583
 Alpha virt. eigenvalues --    1.21779   1.23256   1.23973   1.26671   1.26894
 Alpha virt. eigenvalues --    1.27476   1.28772   1.29523   1.29907   1.32462
 Alpha virt. eigenvalues --    1.33416   1.35169   1.37835   1.39696   1.41431
 Alpha virt. eigenvalues --    1.45076   1.52408   1.53703   1.54172   1.54843
 Alpha virt. eigenvalues --    1.56330   1.56593   1.59141   1.62115   1.62824
 Alpha virt. eigenvalues --    1.65165   1.66985   1.67552   1.68580   1.70343
 Alpha virt. eigenvalues --    1.73142   1.75311   1.75935   1.77538   1.77622
 Alpha virt. eigenvalues --    1.79823   1.81263   1.82006   1.83434   1.86865
 Alpha virt. eigenvalues --    1.88381   1.89395   1.90616   1.92900   1.93858
 Alpha virt. eigenvalues --    1.94530   1.97255   1.97676   1.98313   1.98489
 Alpha virt. eigenvalues --    2.00526   2.04522   2.04987   2.07470   2.08191
 Alpha virt. eigenvalues --    2.08872   2.13016   2.17453   2.19547   2.20479
 Alpha virt. eigenvalues --    2.22238   2.22979   2.31730   2.35205   2.36718
 Alpha virt. eigenvalues --    2.40249   2.43428   2.47460   2.50293   2.54128
 Alpha virt. eigenvalues --    2.58993   2.65474   2.66092   2.69158   2.70331
 Alpha virt. eigenvalues --    2.73094   2.74911   2.76533   2.77212   2.78905
 Alpha virt. eigenvalues --    2.79226   2.80136   2.80910   2.81040   2.81515
 Alpha virt. eigenvalues --    2.84279   2.86069   2.86207   2.87810   2.88422
 Alpha virt. eigenvalues --    2.89364   2.90078   2.91036   2.91650   2.92274
 Alpha virt. eigenvalues --    2.95502   2.97626   2.98640   2.98930   3.00709
 Alpha virt. eigenvalues --    3.00961   3.01543   3.02556   3.09364   3.09418
 Alpha virt. eigenvalues --    3.12679   3.14191   3.16594   3.17789   3.19604
 Alpha virt. eigenvalues --    3.23441   3.24383   3.30198   3.33728   3.34724
 Alpha virt. eigenvalues --    3.37299   3.40205   3.41925   3.44441   3.50633
 Alpha virt. eigenvalues --    3.51515   3.54314   3.56846   3.60154   3.60564
 Alpha virt. eigenvalues --    3.61634   3.63526   3.68350   3.75615   3.86588
 Alpha virt. eigenvalues --    3.93457   4.06979   4.09515   4.20228   4.23673
 Alpha virt. eigenvalues --    4.29779   4.40955   4.83025   4.85778   5.03601
 Alpha virt. eigenvalues --    5.07326   5.09455   5.09681   5.10989   5.13560
 Alpha virt. eigenvalues --    5.15121   5.17748   5.19152   5.23753   5.28235
 Alpha virt. eigenvalues --    5.33408   5.36740   5.72499   5.89500   8.22432
 Alpha virt. eigenvalues --   17.41358  17.45624  17.53789  23.58188  23.82738
 Alpha virt. eigenvalues --   23.93079  23.96542  23.96747  24.00127  24.03341
 Alpha virt. eigenvalues --   24.13772  24.16578  24.20696  49.91236  49.93529
 Alpha virt. eigenvalues --   50.01329  50.05336  50.15314 189.31226
  Beta  occ. eigenvalues --  -89.02011 -19.06878 -19.06647 -19.06632 -19.02036
  Beta  occ. eigenvalues --  -19.01366 -10.16807 -10.16384 -10.14863 -10.14812
  Beta  occ. eigenvalues --  -10.14487 -10.14445 -10.14385 -10.14072 -10.13373
  Beta  occ. eigenvalues --  -10.12401  -8.07889  -6.04191  -6.04169  -6.04007
  Beta  occ. eigenvalues --   -1.07980  -0.95010  -0.94566  -0.94282  -0.92107
  Beta  occ. eigenvalues --   -0.82754  -0.77110  -0.72157  -0.69458  -0.65354
  Beta  occ. eigenvalues --   -0.58778  -0.58217  -0.55413  -0.52120  -0.47729
  Beta  occ. eigenvalues --   -0.46838  -0.45114  -0.42955  -0.42776  -0.41487
  Beta  occ. eigenvalues --   -0.40445  -0.39529  -0.37792  -0.37041  -0.35988
  Beta  occ. eigenvalues --   -0.34590  -0.32874  -0.31874  -0.31825  -0.31238
  Beta  occ. eigenvalues --   -0.30663  -0.30040  -0.27795  -0.27108  -0.26351
  Beta  occ. eigenvalues --   -0.25398  -0.23428  -0.22467  -0.20723  -0.19138
  Beta  occ. eigenvalues --   -0.17932  -0.11112
  Beta virt. eigenvalues --   -0.00736   0.00559   0.01727   0.02125   0.02512
  Beta virt. eigenvalues --    0.03688   0.04023   0.05020   0.05528   0.05701
  Beta virt. eigenvalues --    0.06453   0.06705   0.06900   0.08376   0.08708
  Beta virt. eigenvalues --    0.09448   0.10074   0.10425   0.10489   0.11293
  Beta virt. eigenvalues --    0.12082   0.12197   0.13052   0.13095   0.13459
  Beta virt. eigenvalues --    0.13535   0.14038   0.14272   0.14513   0.15123
  Beta virt. eigenvalues --    0.15458   0.16165   0.16239   0.16621   0.17051
  Beta virt. eigenvalues --    0.17203   0.17703   0.18342   0.18757   0.19782
  Beta virt. eigenvalues --    0.20734   0.20879   0.22198   0.22312   0.23280
  Beta virt. eigenvalues --    0.23536   0.23977   0.24747   0.25470   0.26134
  Beta virt. eigenvalues --    0.26160   0.26432   0.26784   0.27396   0.27939
  Beta virt. eigenvalues --    0.28209   0.29140   0.29648   0.30037   0.30291
  Beta virt. eigenvalues --    0.30541   0.31214   0.31273   0.31542   0.31898
  Beta virt. eigenvalues --    0.32131   0.32647   0.33071   0.33417   0.33856
  Beta virt. eigenvalues --    0.34349   0.35536   0.35748   0.36360   0.37385
  Beta virt. eigenvalues --    0.37733   0.37935   0.38591   0.39482   0.40470
  Beta virt. eigenvalues --    0.41547   0.41912   0.42094   0.43224   0.44116
  Beta virt. eigenvalues --    0.46554   0.46846   0.48833   0.49386   0.50504
  Beta virt. eigenvalues --    0.53175   0.53969   0.55698   0.56494   0.56668
  Beta virt. eigenvalues --    0.58461   0.58750   0.61277   0.61748   0.61949
  Beta virt. eigenvalues --    0.63694   0.63955   0.64249   0.65298   0.65848
  Beta virt. eigenvalues --    0.66533   0.67120   0.69195   0.69687   0.71127
  Beta virt. eigenvalues --    0.72356   0.74488   0.75261   0.76303   0.77196
  Beta virt. eigenvalues --    0.78074   0.80325   0.80757   0.82593   0.83668
  Beta virt. eigenvalues --    0.85236   0.86185   0.87453   0.88128   0.90136
  Beta virt. eigenvalues --    0.90658   0.92582   0.93088   0.93179   0.95562
  Beta virt. eigenvalues --    0.96615   0.97502   0.98994   0.99279   1.00087
  Beta virt. eigenvalues --    1.00475   1.01963   1.03453   1.04711   1.05432
  Beta virt. eigenvalues --    1.07866   1.08368   1.11115   1.11680   1.11950
  Beta virt. eigenvalues --    1.13458   1.14149   1.14750   1.16217   1.17325
  Beta virt. eigenvalues --    1.18064   1.18203   1.18904   1.21137   1.21583
  Beta virt. eigenvalues --    1.21779   1.23256   1.23973   1.26671   1.26894
  Beta virt. eigenvalues --    1.27476   1.28772   1.29523   1.29907   1.32462
  Beta virt. eigenvalues --    1.33416   1.35169   1.37835   1.39696   1.41431
  Beta virt. eigenvalues --    1.45076   1.52408   1.53703   1.54172   1.54843
  Beta virt. eigenvalues --    1.56330   1.56593   1.59141   1.62115   1.62824
  Beta virt. eigenvalues --    1.65165   1.66985   1.67552   1.68580   1.70343
  Beta virt. eigenvalues --    1.73142   1.75311   1.75935   1.77538   1.77622
  Beta virt. eigenvalues --    1.79823   1.81263   1.82006   1.83434   1.86865
  Beta virt. eigenvalues --    1.88381   1.89395   1.90616   1.92900   1.93858
  Beta virt. eigenvalues --    1.94530   1.97255   1.97676   1.98313   1.98489
  Beta virt. eigenvalues --    2.00526   2.04522   2.04987   2.07470   2.08191
  Beta virt. eigenvalues --    2.08872   2.13016   2.17453   2.19547   2.20479
  Beta virt. eigenvalues --    2.22238   2.22979   2.31730   2.35205   2.36718
  Beta virt. eigenvalues --    2.40249   2.43428   2.47460   2.50293   2.54128
  Beta virt. eigenvalues --    2.58993   2.65474   2.66092   2.69158   2.70331
  Beta virt. eigenvalues --    2.73094   2.74911   2.76533   2.77212   2.78905
  Beta virt. eigenvalues --    2.79226   2.80136   2.80910   2.81040   2.81515
  Beta virt. eigenvalues --    2.84279   2.86069   2.86207   2.87810   2.88422
  Beta virt. eigenvalues --    2.89364   2.90078   2.91036   2.91650   2.92274
  Beta virt. eigenvalues --    2.95502   2.97626   2.98640   2.98930   3.00709
  Beta virt. eigenvalues --    3.00961   3.01543   3.02556   3.09364   3.09418
  Beta virt. eigenvalues --    3.12679   3.14191   3.16594   3.17789   3.19604
  Beta virt. eigenvalues --    3.23441   3.24383   3.30198   3.33728   3.34724
  Beta virt. eigenvalues --    3.37299   3.40205   3.41925   3.44441   3.50633
  Beta virt. eigenvalues --    3.51515   3.54314   3.56846   3.60154   3.60564
  Beta virt. eigenvalues --    3.61634   3.63526   3.68350   3.75615   3.86588
  Beta virt. eigenvalues --    3.93457   4.06979   4.09515   4.20228   4.23673
  Beta virt. eigenvalues --    4.29779   4.40955   4.83025   4.85778   5.03601
  Beta virt. eigenvalues --    5.07326   5.09455   5.09681   5.10989   5.13560
  Beta virt. eigenvalues --    5.15121   5.17748   5.19152   5.23753   5.28235
  Beta virt. eigenvalues --    5.33408   5.36740   5.72499   5.89500   8.22432
  Beta virt. eigenvalues --   17.41358  17.45624  17.53789  23.58188  23.82738
  Beta virt. eigenvalues --   23.93079  23.96542  23.96747  24.00127  24.03341
  Beta virt. eigenvalues --   24.13772  24.16578  24.20696  49.91236  49.93529
  Beta virt. eigenvalues --   50.01329  50.05336  50.15314 189.31226
          Condensed to atoms (all electrons):
               1          2          3          4          5          6
     1  C   10.541073   0.414979  -0.359387  -1.812835  -2.016604   1.595953
     2  C    0.414979   7.723588  -0.388796  -1.736423   1.359965  -0.565257
     3  C   -0.359387  -0.388796  20.149566   3.413349 -13.951666  -0.451626
     4  C   -1.812835  -1.736423   3.413349  19.353496  -1.602421  -1.661468
     5  C   -2.016604   1.359965 -13.951666  -1.602421  23.765246  -4.520620
     6  C    1.595953  -0.565257  -0.451626  -1.661468  -4.520620  16.531037
     7  C   -0.111703  -0.605151   2.727787  -7.103845  -4.631523   2.222921
     8  C    0.255990  -0.021989  -0.857567  -0.510553  -0.244254  -1.735747
     9  C   -1.748275  -0.180458  -1.320756   0.189193   2.973725  -3.879331
    10  C   -1.386682   0.082449  -0.955952  -2.373032   1.875941   1.203150
    11  O    0.148620   0.048676  -0.007224  -0.455961  -0.027850   0.008865
    12  O    0.028724   0.007067  -0.001489  -0.021467   0.003770   0.013934
    13  H    0.350437  -0.077045  -0.061382  -0.044751   0.070218   0.008717
    14  H   -0.073980   0.505246  -0.042339  -0.046633  -0.033724  -0.008541
    15  H   -0.008211  -0.077998   0.497780   0.043374  -0.012781  -0.133623
    16  H    0.027199  -0.016013   0.354742   0.090060  -0.478113   0.508641
    17  H   -0.021049  -0.004954   0.033610  -0.066904   0.002015   0.078841
    18  S    0.099386   0.063804  -1.744678  -0.248203   2.364306  -2.472138
    19  O    0.020999   0.000265   0.079794   0.111960  -0.175522   0.467607
    20  O   -0.005233  -0.007837  -0.127904  -0.020917   0.190760  -0.330997
    21  O   -0.004317  -0.008225  -0.114499  -0.022623   0.174297  -0.306651
               7          8          9         10         11         12
     1  C   -0.111703   0.255990  -1.748275  -1.386682   0.148620   0.028724
     2  C   -0.605151  -0.021989  -0.180458   0.082449   0.048676   0.007067
     3  C    2.727787  -0.857567  -1.320756  -0.955952  -0.007224  -0.001489
     4  C   -7.103845  -0.510553   0.189193  -2.373032  -0.455961  -0.021467
     5  C   -4.631523  -0.244254   2.973725   1.875941  -0.027850   0.003770
     6  C    2.222921  -1.735747  -3.879331   1.203150   0.008865   0.013934
     7  C   21.721106  -3.247786  -6.116999   2.227876   0.493992  -0.180894
     8  C   -3.247786  13.746075   0.382687  -3.342011  -0.167579   0.579836
     9  C   -6.116999   0.382687  17.383418  -3.870348   0.044616  -0.570965
    10  C    2.227876  -3.342011  -3.870348  16.936843  -0.129296   0.106976
    11  O    0.493992  -0.167579   0.044616  -0.129296   8.660614   0.025490
    12  O   -0.180894   0.579836  -0.570965   0.106976   0.025490   8.728800
    13  H   -0.007327   0.055829  -0.002914   0.016389   0.009391  -0.000818
    14  H    0.028909   0.001474  -0.004258  -0.012442   0.002360   0.000063
    15  H   -0.016932   0.002244   0.008297   0.004997  -0.000184  -0.000052
    16  H    0.099956  -0.049959  -0.110384   0.074685   0.000572   0.000031
    17  H    0.012863  -0.232319   0.391004   0.178836   0.000143  -0.005452
    18  S   -0.820607   1.208680   2.277939  -3.392576  -0.002045  -0.009814
    19  O    0.043260   0.062803  -0.530343   0.399070  -0.000123   0.002807
    20  O   -0.057519   0.071488   0.276424  -0.430564  -0.000058  -0.000377
    21  O   -0.053494   0.072432   0.253156  -0.416689  -0.000044  -0.000383
              13         14         15         16         17         18
     1  C    0.350437  -0.073980  -0.008211   0.027199  -0.021049   0.099386
     2  C   -0.077045   0.505246  -0.077998  -0.016013  -0.004954   0.063804
     3  C   -0.061382  -0.042339   0.497780   0.354742   0.033610  -1.744678
     4  C   -0.044751  -0.046633   0.043374   0.090060  -0.066904  -0.248203
     5  C    0.070218  -0.033724  -0.012781  -0.478113   0.002015   2.364306
     6  C    0.008717  -0.008541  -0.133623   0.508641   0.078841  -2.472138
     7  C   -0.007327   0.028909  -0.016932   0.099956   0.012863  -0.820607
     8  C    0.055829   0.001474   0.002244  -0.049959  -0.232319   1.208680
     9  C   -0.002914  -0.004258   0.008297  -0.110384   0.391004   2.277939
    10  C    0.016389  -0.012442   0.004997   0.074685   0.178836  -3.392576
    11  O    0.009391   0.002360  -0.000184   0.000572   0.000143  -0.002045
    12  O   -0.000818   0.000063  -0.000052   0.000031  -0.005452  -0.009814
    13  H    0.548442  -0.015914   0.000089  -0.000206   0.000039   0.009465
    14  H   -0.015914   0.565344  -0.016669   0.000518   0.000033  -0.002847
    15  H    0.000089  -0.016669   0.561496  -0.015572  -0.000101   0.003528
    16  H   -0.000206   0.000518  -0.015572   0.544523   0.002536  -0.135859
    17  H    0.000039   0.000033  -0.000101   0.002536   0.556250  -0.118114
    18  S    0.009465  -0.002847   0.003528  -0.135859  -0.118114  18.127257
    19  O   -0.000096   0.000013  -0.000263   0.017417   0.005822  -0.668206
    20  O    0.000364  -0.000171   0.001402  -0.021102  -0.004892   0.442412
    21  O    0.000354  -0.000191   0.001655  -0.023276  -0.005389   0.428955
              19         20         21
     1  C    0.020999  -0.005233  -0.004317
     2  C    0.000265  -0.007837  -0.008225
     3  C    0.079794  -0.127904  -0.114499
     4  C    0.111960  -0.020917  -0.022623
     5  C   -0.175522   0.190760   0.174297
     6  C    0.467607  -0.330997  -0.306651
     7  C    0.043260  -0.057519  -0.053494
     8  C    0.062803   0.071488   0.072432
     9  C   -0.530343   0.276424   0.253156
    10  C    0.399070  -0.430564  -0.416689
    11  O   -0.000123  -0.000058  -0.000044
    12  O    0.002807  -0.000377  -0.000383
    13  H   -0.000096   0.000364   0.000354
    14  H    0.000013  -0.000171  -0.000191
    15  H   -0.000263   0.001402   0.001655
    16  H    0.017417  -0.021102  -0.023276
    17  H    0.005822  -0.004892  -0.005389
    18  S   -0.668206   0.442412   0.428955
    19  O    9.052056  -0.253684  -0.248207
    20  O   -0.253684   8.907235  -0.193963
    21  O   -0.248207  -0.193963   8.901891
          Atomic-Atomic Spin Densities.
               1          2          3          4          5          6
     1  C   -0.000000  -0.000000   0.000000  -0.000000  -0.000000   0.000000
     2  C   -0.000000  -0.000000   0.000000   0.000000  -0.000000  -0.000000
     3  C    0.000000   0.000000  -0.000000  -0.000000   0.000000   0.000000
     4  C   -0.000000   0.000000  -0.000000  -0.000000   0.000000   0.000000
     5  C   -0.000000  -0.000000   0.000000   0.000000  -0.000000  -0.000000
     6  C    0.000000  -0.000000   0.000000   0.000000  -0.000000  -0.000000
     7  C    0.000000   0.000000  -0.000000  -0.000000   0.000000   0.000000
     8  C   -0.000000  -0.000000  -0.000000   0.000000   0.000000  -0.000000
     9  C   -0.000000   0.000000  -0.000000   0.000000   0.000000  -0.000000
    10  C    0.000000  -0.000000  -0.000000   0.000000   0.000000   0.000000
    11  O   -0.000000  -0.000000   0.000000  -0.000000  -0.000000  -0.000000
    12  O   -0.000000  -0.000000   0.000000  -0.000000   0.000000   0.000000
    13  H    0.000000  -0.000000  -0.000000   0.000000   0.000000   0.000000
    14  H   -0.000000  -0.000000   0.000000   0.000000  -0.000000  -0.000000
    15  H   -0.000000   0.000000  -0.000000  -0.000000   0.000000   0.000000
    16  H    0.000000   0.000000   0.000000  -0.000000  -0.000000   0.000000
    17  H    0.000000   0.000000  -0.000000   0.000000   0.000000  -0.000000
    18  S   -0.000000  -0.000000   0.000000   0.000000  -0.000000  -0.000000
    19  O    0.000000   0.000000   0.000000  -0.000000  -0.000000   0.000000
    20  O   -0.000000  -0.000000  -0.000000   0.000000   0.000000  -0.000000
    21  O   -0.000000  -0.000000  -0.000000   0.000000   0.000000  -0.000000
               7          8          9         10         11         12
     1  C    0.000000  -0.000000  -0.000000   0.000000  -0.000000  -0.000000
     2  C    0.000000  -0.000000   0.000000  -0.000000  -0.000000  -0.000000
     3  C   -0.000000  -0.000000  -0.000000  -0.000000   0.000000   0.000000
     4  C   -0.000000   0.000000   0.000000   0.000000  -0.000000  -0.000000
     5  C    0.000000   0.000000   0.000000   0.000000  -0.000000   0.000000
     6  C    0.000000  -0.000000  -0.000000   0.000000  -0.000000   0.000000
     7  C    0.000000  -0.000000  -0.000000   0.000000   0.000000   0.000000
     8  C   -0.000000   0.000000   0.000000  -0.000000   0.000000  -0.000000
     9  C   -0.000000   0.000000   0.000000  -0.000000   0.000000  -0.000000
    10  C    0.000000  -0.000000  -0.000000   0.000000   0.000000   0.000000
    11  O    0.000000   0.000000   0.000000   0.000000  -0.000000   0.000000
    12  O    0.000000  -0.000000  -0.000000   0.000000   0.000000   0.000000
    13  H   -0.000000   0.000000   0.000000  -0.000000   0.000000  -0.000000
    14  H    0.000000   0.000000   0.000000   0.000000  -0.000000  -0.000000
    15  H   -0.000000   0.000000   0.000000   0.000000   0.000000   0.000000
    16  H    0.000000  -0.000000  -0.000000   0.000000  -0.000000   0.000000
    17  H    0.000000  -0.000000  -0.000000   0.000000  -0.000000  -0.000000
    18  S   -0.000000   0.000000   0.000000  -0.000000   0.000000  -0.000000
    19  O    0.000000  -0.000000  -0.000000   0.000000  -0.000000   0.000000
    20  O   -0.000000   0.000000   0.000000  -0.000000   0.000000  -0.000000
    21  O   -0.000000   0.000000   0.000000  -0.000000   0.000000  -0.000000
              13         14         15         16         17         18
     1  C    0.000000  -0.000000  -0.000000   0.000000   0.000000  -0.000000
     2  C   -0.000000  -0.000000   0.000000   0.000000   0.000000  -0.000000
     3  C   -0.000000   0.000000  -0.000000   0.000000  -0.000000   0.000000
     4  C    0.000000   0.000000  -0.000000  -0.000000   0.000000   0.000000
     5  C    0.000000  -0.000000   0.000000  -0.000000   0.000000  -0.000000
     6  C    0.000000  -0.000000   0.000000   0.000000  -0.000000  -0.000000
     7  C   -0.000000   0.000000  -0.000000   0.000000   0.000000  -0.000000
     8  C    0.000000   0.000000   0.000000  -0.000000  -0.000000   0.000000
     9  C    0.000000   0.000000   0.000000  -0.000000  -0.000000   0.000000
    10  C   -0.000000   0.000000   0.000000   0.000000   0.000000  -0.000000
    11  O    0.000000  -0.000000   0.000000  -0.000000  -0.000000   0.000000
    12  O   -0.000000  -0.000000   0.000000   0.000000  -0.000000  -0.000000
    13  H    0.000000   0.000000   0.000000  -0.000000  -0.000000   0.000000
    14  H    0.000000  -0.000000   0.000000   0.000000   0.000000  -0.000000
    15  H    0.000000   0.000000  -0.000000  -0.000000  -0.000000   0.000000
    16  H   -0.000000   0.000000  -0.000000   0.000000   0.000000  -0.000000
    17  H   -0.000000   0.000000  -0.000000   0.000000   0.000000  -0.000000
    18  S    0.000000  -0.000000   0.000000  -0.000000  -0.000000   0.000000
    19  O    0.000000  -0.000000  -0.000000   0.000000  -0.000000  -0.000000
    20  O   -0.000000   0.000000   0.000000  -0.000000   0.000000   0.000000
    21  O   -0.000000  -0.000000   0.000000  -0.000000  -0.000000   0.000000
              19         20         21
     1  C    0.000000  -0.000000  -0.000000
     2  C    0.000000  -0.000000  -0.000000
     3  C    0.000000  -0.000000  -0.000000
     4  C   -0.000000   0.000000   0.000000
     5  C   -0.000000   0.000000   0.000000
     6  C    0.000000  -0.000000  -0.000000
     7  C    0.000000  -0.000000  -0.000000
     8  C   -0.000000   0.000000   0.000000
     9  C   -0.000000   0.000000   0.000000
    10  C    0.000000  -0.000000  -0.000000
    11  O   -0.000000   0.000000   0.000000
    12  O    0.000000  -0.000000  -0.000000
    13  H    0.000000  -0.000000  -0.000000
    14  H   -0.000000   0.000000  -0.000000
    15  H   -0.000000   0.000000   0.000000
    16  H    0.000000  -0.000000  -0.000000
    17  H   -0.000000   0.000000  -0.000000
    18  S   -0.000000   0.000000   0.000000
    19  O    0.000000  -0.000000  -0.000000
    20  O   -0.000000   0.000000   0.000000
    21  O   -0.000000   0.000000   0.000000
 Mulliken charges and spin densities:
               1          2
     1  C    0.064916   0.000000
     2  C   -0.515892  -0.000000
     3  C   -0.871365  -0.000000
     4  C    0.526603   0.000000
     5  C    0.914836   0.000000
     6  C   -0.573665   0.000000
     7  C   -0.624892  -0.000000
     8  C   -0.029772  -0.000000
     9  C    0.154572   0.000000
    10  C   -0.797622  -0.000000
    11  O   -0.652976   0.000000
    12  O   -0.705787  -0.000000
    13  H    0.140717  -0.000000
    14  H    0.153747  -0.000000
    15  H    0.157523  -0.000000
    16  H    0.129605   0.000000
    17  H    0.197183  -0.000000
    18  S    0.589354   0.000000
    19  O   -0.387429   0.000000
    20  O   -0.434866  -0.000000
    21  O   -0.434792  -0.000000
 Sum of Mulliken charges =  -3.00000   0.00000
 Mulliken charges and spin densities with hydrogens summed into heavy atoms:
               1          2
     1  C    0.205633   0.000000
     2  C   -0.362144  -0.000000
     3  C   -0.713841  -0.000000
     4  C    0.526603   0.000000
     5  C    0.914836   0.000000
     6  C   -0.444060   0.000000
     7  C   -0.624892  -0.000000
     8  C   -0.029772  -0.000000
     9  C    0.351755   0.000000
    10  C   -0.797622  -0.000000
    11  O   -0.652976   0.000000
    12  O   -0.705787  -0.000000
    18  S    0.589354   0.000000
    19  O   -0.387429   0.000000
    20  O   -0.434866  -0.000000
    21  O   -0.434792  -0.000000
 Electronic spatial extent (au):  <R**2>=           3800.8231
 Charge=             -3.0000 electrons
 Dipole moment (field-independent basis, Debye):
    X=             -0.3689    Y=             13.5631    Z=             -0.0252  Tot=             13.5681
 Quadrupole moment (field-independent basis, Debye-Ang):
   XX=           -212.2370   YY=           -171.2397   ZZ=           -121.2044
   XY=             30.2519   XZ=             -0.2141   YZ=              0.0610
 Traceless Quadrupole moment (field-independent basis, Debye-Ang):
   XX=            -44.0099   YY=             -3.0127   ZZ=             47.0226
   XY=             30.2519   XZ=             -0.2141   YZ=              0.0610
 Octapole moment (field-independent basis, Debye-Ang**2):
  XXX=            -26.0292  YYY=            169.3909  ZZZ=             -0.1613  XYY=            -81.4176
  XXY=             87.6606  XXZ=             -0.1449  XZZ=             11.2724  YZZ=            -14.5018
  YYZ=             -0.4122  XYZ=             -0.1252
 Hexadecapole moment (field-independent basis, Debye-Ang**3):
 XXXX=          -4100.0455 YYYY=          -2652.9218 ZZZZ=           -278.0602 XXXY=            229.2383
 XXXZ=             -1.7408 YYYX=            248.0264 YYYZ=              0.8599 ZZZX=              0.2546
 ZZZY=             -0.0830 XXYY=          -1130.1450 XXZZ=           -646.0869 YYZZ=           -423.1948
 XXYZ=             -0.9822 YYXZ=             -1.8874 ZZXY=              9.3725
 N-N= 1.185748038626D+03 E-N=-5.153746721176D+03  KE= 1.155391115147D+03
                          Isotropic Fermi Contact Couplings
        Atom                 a.u.       MegaHertz       Gauss      10(-4) cm-1
     1  C(13)              0.00000       0.00000       0.00000       0.00000
     2  C(13)              0.00000       0.00000       0.00000       0.00000
     3  C(13)             -0.00000      -0.00000      -0.00000      -0.00000
     4  C(13)              0.00000       0.00000       0.00000       0.00000
     5  C(13)              0.00000       0.00000       0.00000       0.00000
     6  C(13)              0.00000       0.00000       0.00000       0.00000
     7  C(13)              0.00000       0.00000       0.00000       0.00000
     8  C(13)             -0.00000      -0.00000      -0.00000      -0.00000
     9  C(13)             -0.00000      -0.00000      -0.00000      -0.00000
    10  C(13)              0.00000       0.00000       0.00000       0.00000
    11  O(17)              0.00000      -0.00000      -0.00000      -0.00000
    12  O(17)              0.00000      -0.00000      -0.00000      -0.00000
    13  H(1)              -0.00000      -0.00000      -0.00000      -0.00000
    14  H(1)              -0.00000      -0.00000      -0.00000      -0.00000
    15  H(1)               0.00000       0.00000       0.00000       0.00000
    16  H(1)               0.00000       0.00000       0.00000       0.00000
    17  H(1)              -0.00000      -0.00000      -0.00000      -0.00000
    18  S(33)              0.00000       0.00000       0.00000       0.00000
    19  O(17)             -0.00000       0.00000       0.00000       0.00000
    20  O(17)             -0.00000       0.00000       0.00000       0.00000
    21  O(17)             -0.00000       0.00000       0.00000       0.00000
 --------------------------------------------------------
       Center         ----  Spin Dipole Couplings  ----
                      3XX-RR        3YY-RR        3ZZ-RR
 --------------------------------------------------------
     1   Atom       -0.000000      0.000000     -0.000000
     2   Atom       -0.000000      0.000000      0.000000
     3   Atom       -0.000000      0.000000     -0.000000
     4   Atom       -0.000000     -0.000000      0.000000
     5   Atom        0.000000     -0.000000      0.000000
     6   Atom       -0.000000      0.000000      0.000000
     7   Atom       -0.000000     -0.000000      0.000000
     8   Atom       -0.000000     -0.000000      0.000000
     9   Atom        0.000000      0.000000     -0.000000
    10   Atom       -0.000000      0.000000     -0.000000
    11   Atom       -0.000000      0.000000     -0.000000
    12   Atom       -0.000000     -0.000000      0.000000
    13   Atom       -0.000000      0.000000      0.000000
    14   Atom       -0.000000     -0.000000      0.000000
    15   Atom        0.000000     -0.000000      0.000000
    16   Atom        0.000000     -0.000000     -0.000000
    17   Atom        0.000000      0.000000     -0.000000
    18   Atom        0.000000     -0.000000      0.000000
    19   Atom       -0.000000      0.000000     -0.000000
    20   Atom        0.000000     -0.000000      0.000000
    21   Atom        0.000000     -0.000000      0.000000
 --------------------------------------------------------
                        XY            XZ            YZ
 --------------------------------------------------------
     1   Atom        0.000000      0.000000      0.000000
     2   Atom       -0.000000      0.000000     -0.000000
     3   Atom        0.000000     -0.000000     -0.000000
     4   Atom       -0.000000     -0.000000     -0.000000
     5   Atom       -0.000000      0.000000     -0.000000
     6   Atom        0.000000     -0.000000      0.000000
     7   Atom       -0.000000     -0.000000      0.000000
     8   Atom        0.000000     -0.000000      0.000000
     9   Atom        0.000000      0.000000      0.000000
    10   Atom       -0.000000      0.000000     -0.000000
    11   Atom       -0.000000     -0.000000      0.000000
    12   Atom       -0.000000      0.000000      0.000000
    13   Atom       -0.000000      0.000000      0.000000
    14   Atom       -0.000000      0.000000      0.000000
    15   Atom       -0.000000     -0.000000      0.000000
    16   Atom       -0.000000      0.000000      0.000000
    17   Atom       -0.000000     -0.000000     -0.000000
    18   Atom       -0.000000     -0.000000      0.000000
    19   Atom       -0.000000      0.000000     -0.000000
    20   Atom       -0.000000     -0.000000      0.000000
    21   Atom       -0.000000     -0.000000      0.000000
 --------------------------------------------------------


 ---------------------------------------------------------------------------------
              Anisotropic Spin Dipole Couplings in Principal Axis System
 ---------------------------------------------------------------------------------

       Atom             a.u.   MegaHertz   Gauss  10(-4) cm-1        Axes

              Baa    -0.0000    -0.000    -0.000    -0.000  0.8965 -0.4417 -0.0342
     1 C(13)  Bbb    -0.0000    -0.000    -0.000    -0.000  0.0158 -0.0453  0.9988
              Bcc     0.0000     0.000     0.000     0.000  0.4427  0.8960  0.0336
 
              Baa    -0.0000    -0.000    -0.000    -0.000  0.9778  0.2096 -0.0049
     2 C(13)  Bbb    -0.0000    -0.000    -0.000    -0.000 -0.0626  0.3143  0.9473
              Bcc     0.0000     0.000     0.000     0.000 -0.2001  0.9259 -0.3204
 
              Baa    -0.0000    -0.000    -0.000    -0.000  0.6511  0.2192  0.7266
     3 C(13)  Bbb    -0.0000    -0.000    -0.000    -0.000  0.7329 -0.4303 -0.5269
              Bcc     0.0000     0.000     0.000     0.000  0.1972  0.8757 -0.4408
 
              Baa    -0.0000    -0.000    -0.000    -0.000  0.4588  0.8837  0.0924
     4 C(13)  Bbb    -0.0000    -0.000    -0.000    -0.000  0.8858 -0.4631  0.0309
              Bcc     0.0000     0.000     0.000     0.000 -0.0701 -0.0677  0.9952
 
              Baa    -0.0000    -0.000    -0.000    -0.000  0.1851  0.9299  0.3179
     5 C(13)  Bbb     0.0000     0.000     0.000     0.000 -0.4634 -0.2027  0.8627
              Bcc     0.0000     0.000     0.000     0.000  0.8666 -0.3070  0.3934
 
              Baa    -0.0000    -0.000    -0.000    -0.000  0.9291 -0.3619  0.0759
     6 C(13)  Bbb     0.0000     0.000     0.000     0.000 -0.1401 -0.1544  0.9780
              Bcc     0.0000     0.000     0.000     0.000  0.3423  0.9193  0.1941
 
              Baa    -0.0000    -0.000    -0.000    -0.000  0.7301  0.6815  0.0496
     7 C(13)  Bbb    -0.0000    -0.000    -0.000    -0.000 -0.6612  0.7230 -0.2004
              Bcc     0.0000     0.000     0.000     0.000 -0.1724  0.1136  0.9785
 
              Baa    -0.0000    -0.000    -0.000    -0.000  0.8785 -0.4668  0.1015
     8 C(13)  Bbb     0.0000     0.000     0.000     0.000  0.4762  0.8725 -0.1096
              Bcc     0.0000     0.000     0.000     0.000 -0.0374  0.1446  0.9888
 
              Baa    -0.0000    -0.000    -0.000    -0.000  0.0323 -0.1159  0.9927
     9 C(13)  Bbb    -0.0000    -0.000    -0.000    -0.000  0.8485 -0.5217 -0.0885
              Bcc     0.0000     0.000     0.000     0.000  0.5282  0.8452  0.0815
 
              Baa    -0.0000    -0.000    -0.000    -0.000  0.8032  0.5941 -0.0450
    10 C(13)  Bbb    -0.0000    -0.000    -0.000    -0.000 -0.0642  0.1614  0.9848
              Bcc     0.0000     0.000     0.000     0.000 -0.5923  0.7881 -0.1678
 
              Baa    -0.0000     0.000     0.000     0.000  0.9874  0.1573 -0.0171
    11 O(17)  Bbb    -0.0000     0.000     0.000     0.000  0.0397 -0.1414  0.9892
              Bcc     0.0000    -0.000    -0.000    -0.000 -0.1532  0.9774  0.1459
 
              Baa    -0.0000     0.000     0.000     0.000  0.7488  0.6304 -0.2048
    12 O(17)  Bbb     0.0000    -0.000    -0.000    -0.000 -0.6607  0.7345 -0.1548
              Bcc     0.0000    -0.000    -0.000    -0.000  0.0528  0.2512  0.9665
 
              Baa    -0.0000    -0.000    -0.000    -0.000  0.9436  0.3158 -0.0997
    13 H(1)   Bbb     0.0000     0.000     0.000     0.000  0.1065 -0.0044  0.9943
              Bcc     0.0000     0.000     0.000     0.000 -0.3136  0.9488  0.0378
 
              Baa    -0.0000    -0.000    -0.000    -0.000  0.6737  0.7385 -0.0279
    14 H(1)   Bbb     0.0000     0.000     0.000     0.000  0.7383 -0.6742 -0.0172
              Bcc     0.0000     0.000     0.000     0.000  0.0315  0.0090  0.9995
 
              Baa    -0.0000    -0.000    -0.000    -0.000  0.0283  0.9540 -0.2986
    15 H(1)   Bbb     0.0000     0.000     0.000     0.000  0.1747  0.2894  0.9411
              Bcc     0.0000     0.000     0.000     0.000  0.9842 -0.0788 -0.1585
 
              Baa    -0.0000    -0.000    -0.000    -0.000 -0.0335 -0.2405  0.9701
    16 H(1)   Bbb    -0.0000    -0.000    -0.000    -0.000  0.1381  0.9602  0.2428
              Bcc     0.0000     0.000     0.000     0.000  0.9899 -0.1421 -0.0010
 
              Baa    -0.0000    -0.000    -0.000    -0.000  0.5929  0.6376  0.4920
    17 H(1)   Bbb    -0.0000    -0.000    -0.000    -0.000 -0.3795 -0.3176  0.8690
              Bcc     0.0000     0.000     0.000     0.000  0.7103 -0.7019  0.0537
 
              Baa    -0.0000    -0.000    -0.000    -0.000 -0.0159  0.9706 -0.2401
    18 S(33)  Bbb     0.0000     0.000     0.000     0.000  0.2839  0.2346  0.9297
              Bcc     0.0000     0.000     0.000     0.000  0.9587 -0.0534 -0.2793
 
              Baa    -0.0000     0.000     0.000     0.000 -0.4464 -0.0487  0.8935
    19 O(17)  Bbb    -0.0000     0.000     0.000     0.000  0.7958  0.4350  0.4213
              Bcc     0.0000    -0.000    -0.000    -0.000 -0.4092  0.8991 -0.1554
 
              Baa    -0.0000     0.000     0.000     0.000  0.4595  0.8881  0.0069
    20 O(17)  Bbb     0.0000    -0.000    -0.000    -0.000  0.1073 -0.0632  0.9922
              Bcc     0.0000    -0.000    -0.000    -0.000  0.8817 -0.4552 -0.1244
 
              Baa    -0.0000     0.000     0.000     0.000  0.5906  0.8069 -0.0150
    21 O(17)  Bbb     0.0000    -0.000    -0.000    -0.000  0.1056 -0.0588  0.9927
              Bcc     0.0000    -0.000    -0.000    -0.000  0.8000 -0.5878 -0.1199
 

 ---------------------------------------------------------------------------------

 No NMR shielding tensors so no spin-rotation constants.
 Leave Link  601 at Sat Jan 13 19:22:36 2024, MaxMem=  4026531840 cpu:               3.4 elap:               0.6
 (Enter /sysapps/ubuntu-applications/gaussian/Gaussian/AVX2/g16/l9999.exe)
 1\1\GINC-ACIDSCN027\SP\UB3LYP\6-311++G(d,p)\C10H5O5S1(3-)\SELHAJJ1\13-
 Jan-2024\0\\#P UB3LYP/6-311++G(d,p) SCRF=(PCM,Solvent=n,n-DiMethylForm
 amide)\\Reduced\\-3,1\C,0,-1.838098,2.79179,-0.804488\C,0,-2.932689,1.
 99574,-0.521491\C,0,-2.717424,0.675904,-0.057915\C,0,-0.503028,2.34062
 2,-0.643834\C,0,-0.287918,0.980441,-0.19681\C,0,-1.42841,0.191713,0.09
 7437\C,0,0.589723,3.260868,-0.972109\C,0,1.975146,2.741328,-0.815397\C
 ,0,2.111264,1.377923,-0.36736\C,0,1.064781,0.523842,-0.072041\O,0,0.36
 3507,4.445074,-1.36681\O,0,2.997647,3.462343,-1.060285\H,0,-1.96291,3.
 808574,-1.162558\H,0,-3.948418,2.371675,-0.654016\H,0,-3.56899,0.03631
 4,0.167877\H,0,-1.272663,-0.821054,0.446931\H,0,3.125222,1.008531,-0.2
 59545\S,0,1.473414,-1.176755,0.484917\O,0,2.968426,-1.269867,0.486382\
 O,0,0.847024,-2.120925,-0.498133\O,0,0.893745,-1.335481,1.85952\\Versi
 on=ES64L-G16RevA.03\State=1-A\HF=-1158.9754976\S2=0.\S2-1=0.\S2A=0.\RM
 SD=6.287e-09\Dipole=-4.822924,-2.1556264,0.7669454\Quadrupole=9.411845
 2,-36.5565599,27.1447147,-3.5955902,1.5436336,23.6348974\PG=C01 [X(C10
 H5O5S1)]\\@


 HICKORY, DICKORY, DOCK
 TWO MICE RAN UP THE CLOCK
 THE CLOCK STRUCK ONE...
 THE OTHER ESCAPED WITH MINOR INJURIES.
 Job cpu time:       0 days  0 hours 13 minutes 37.0 seconds.
 Elapsed time:       0 days  0 hours  1 minutes 43.2 seconds.
 File lengths (MBytes):  RWF=    226 Int=      0 D2E=      0 Chk=     13 Scr=      1
 Normal termination of Gaussian 16 at Sat Jan 13 19:22:36 2024.
