 Entering Gaussian System, Link 0=g16
 Input=290-rad.com
 Output=290-rad.log
 Initial command:
 /sysapps/ubuntu-applications/gaussian/Gaussian/AVX2/g16/l1.exe "/scratch/selhajj1/4262643/Gau-3752525.inp" -scrdir="/scratch/selhajj1/4262643/"
 Entering Link 1 = /sysapps/ubuntu-applications/gaussian/Gaussian/AVX2/g16/l1.exe PID=   3752528.
  
 Copyright (c) 1988,1990,1992,1993,1995,1998,2003,2009,2016,
            Gaussian, Inc.  All Rights Reserved.
  
 This is part of the Gaussian(R) 16 program.  It is based on
 the Gaussian(R) 09 system (copyright 2009, Gaussian, Inc.),
 the Gaussian(R) 03 system (copyright 2003, Gaussian, Inc.),
 the Gaussian(R) 98 system (copyright 1998, Gaussian, Inc.),
 the Gaussian(R) 94 system (copyright 1995, Gaussian, Inc.),
 the Gaussian 92(TM) system (copyright 1992, Gaussian, Inc.),
 the Gaussian 90(TM) system (copyright 1990, Gaussian, Inc.),
 the Gaussian 88(TM) system (copyright 1988, Gaussian, Inc.),
 the Gaussian 86(TM) system (copyright 1986, Carnegie Mellon
 University), and the Gaussian 82(TM) system (copyright 1983,
 Carnegie Mellon University). Gaussian is a federally registered
 trademark of Gaussian, Inc.
  
 This software contains proprietary and confidential information,
 including trade secrets, belonging to Gaussian, Inc.
  
 This software is provided under written license and may be
 used, copied, transmitted, or stored only in accord with that
 written license.
  
 The following legend is applicable only to US Government
 contracts under FAR:
  
                    RESTRICTED RIGHTS LEGEND
  
 Use, reproduction and disclosure by the US Government is
 subject to restrictions as set forth in subparagraphs (a)
 and (c) of the Commercial Computer Software - Restricted
 Rights clause in FAR 52.227-19.
  
 Gaussian, Inc.
 340 Quinnipiac St., Bldg. 40, Wallingford CT 06492
  
  
 ---------------------------------------------------------------
 Warning -- This program may not be used in any manner that
 competes with the business of Gaussian, Inc. or will provide
 assistance to any competitor of Gaussian, Inc.  The licensee
 of this program is prohibited from giving any competitor of
 Gaussian, Inc. access to this program.  By using this program,
 the user acknowledges that Gaussian, Inc. is engaged in the
 business of creating and licensing software in the field of
 computational chemistry and represents and warrants to the
 licensee that it is not a competitor of Gaussian, Inc. and that
 it will not use this program in any manner prohibited above.
 ---------------------------------------------------------------
  

 Cite this work as:
 Gaussian 16, Revision A.03,
 M. J. Frisch, G. W. Trucks, H. B. Schlegel, G. E. Scuseria, 
 M. A. Robb, J. R. Cheeseman, G. Scalmani, V. Barone, 
 G. A. Petersson, H. Nakatsuji, X. Li, M. Caricato, A. V. Marenich, 
 J. Bloino, B. G. Janesko, R. Gomperts, B. Mennucci, H. P. Hratchian, 
 J. V. Ortiz, A. F. Izmaylov, J. L. Sonnenberg, D. Williams-Young, 
 F. Ding, F. Lipparini, F. Egidi, J. Goings, B. Peng, A. Petrone, 
 T. Henderson, D. Ranasinghe, V. G. Zakrzewski, J. Gao, N. Rega, 
 G. Zheng, W. Liang, M. Hada, M. Ehara, K. Toyota, R. Fukuda, 
 J. Hasegawa, M. Ishida, T. Nakajima, Y. Honda, O. Kitao, H. Nakai, 
 T. Vreven, K. Throssell, J. A. Montgomery, Jr., J. E. Peralta, 
 F. Ogliaro, M. J. Bearpark, J. J. Heyd, E. N. Brothers, K. N. Kudin, 
 V. N. Staroverov, T. A. Keith, R. Kobayashi, J. Normand, 
 K. Raghavachari, A. P. Rendell, J. C. Burant, S. S. Iyengar, 
 J. Tomasi, M. Cossi, J. M. Millam, M. Klene, C. Adamo, R. Cammi, 
 J. W. Ochterski, R. L. Martin, K. Morokuma, O. Farkas, 
 J. B. Foresman, and D. J. Fox, Gaussian, Inc., Wallingford CT, 2016.
 
 ******************************************
 Gaussian 16:  ES64L-G16RevA.03 25-Dec-2016
                 8-Jan-2024 
 ******************************************
 %chk=290-rad.chk
 %nproc=8
 Will use up to    8 processors via shared memory.
 %mem=30GB
 --------------------------------------
 #P UB3LYP/6-311++G(d,p) nosym opt freq
 --------------------------------------
 1/18=20,19=15,26=3,38=1/1,3;
 2/9=110,12=2,15=1,17=6,18=5,40=1/2;
 3/5=4,6=6,7=1111,11=2,25=1,30=1,71=1,74=-5,116=2/1,2,3;
 4//1;
 5/5=2,38=5/2;
 6/7=2,8=2,9=2,10=2,28=1/1;
 7/30=1/1,2,3,16;
 1/18=20,19=15,26=3/3(2);
 2/9=110,15=1/2;
 99//99;
 2/9=110,15=1/2;
 3/5=4,6=6,7=1111,11=2,25=1,30=1,71=1,74=-5,116=2/1,2,3;
 4/5=5,16=3,69=1/1;
 5/5=2,38=5/2;
 7/30=1/1,2,3,16;
 1/18=20,19=15,26=3/3(-5);
 2/9=110,15=1/2;
 6/7=2,8=2,9=2,10=2,19=2,28=1/1;
 99/9=1/99;
 Leave Link    1 at Mon Jan  8 01:20:49 2024, MaxMem=  4026531840 cpu:               0.8 elap:               0.1
 (Enter /sysapps/ubuntu-applications/gaussian/Gaussian/AVX2/g16/l101.exe)
 -------
 Radical
 -------
 Symbolic Z-matrix:
 Charge = -1 Multiplicity = 2
 O                    -0.34475   2.16991   0.29513 
 C                    -0.53526   0.93636   0.10552 
 C                     0.54846   0.02203  -0.1735 
 C                     0.3221   -1.33437  -0.3709 
 O                     1.35965  -2.20001  -0.62272 
 C                    -0.99035  -1.94723  -0.3528 
 O                    -1.16663  -3.17708  -0.5515 
 C                    -2.10177  -1.02762  -0.08266 
 C                    -3.41913  -1.52977  -0.03812 
 C                    -4.49218  -0.69691   0.22142 
 C                    -4.2789    0.67795   0.4466 
 C                    -2.99346   1.18934   0.40688 
 C                    -1.88757   0.35801   0.14536 
 C                     1.94008   0.61972  -0.2856 
 H                    -3.55458  -2.5908   -0.21453 
 H                    -5.49988  -1.10169   0.25197 
 H                    -5.12113   1.33296   0.64996 
 H                    -2.79668   2.24215   0.57474 
 C                     2.92679   0.08567   0.72231 
 C                     4.17787  -0.36401   0.53093 
 C                     4.88111  -0.41268  -0.80418 
 C                     5.01128  -0.85542   1.69101 
 H                     2.18096  -1.7747   -0.34573 
 H                     1.80554   1.69405  -0.11499 
 H                     2.32133   0.50352  -1.30707 
 H                     2.54543   0.0709    1.74268 
 H                     4.24221  -0.11017  -1.63349 
 H                     5.2528   -1.42382  -1.01253 
 H                     5.75845   0.24709  -0.79976 
 H                     4.46226  -0.79839   2.63326 
 H                     5.93097  -0.26464   1.79529 
 H                     5.32397  -1.89682   1.54139 
 
 ITRead=  0  0  0  0  0  0  0  0  0  0  0  0  0  0  0  0  0  0  0  0
 ITRead=  0  0  0  0  0  0  0  0  0  0  0  0
 MicOpt= -1 -1 -1 -1 -1 -1 -1 -1 -1 -1 -1 -1 -1 -1 -1 -1 -1 -1 -1 -1
 MicOpt= -1 -1 -1 -1 -1 -1 -1 -1 -1 -1 -1 -1
 NAtoms=     32 NQM=       32 NQMF=       0 NMMI=      0 NMMIF=      0
                NMic=       0 NMicF=      0.
                    Isotopes and Nuclear Properties:
 (Nuclear quadrupole moments (NQMom) in fm**2, nuclear magnetic moments (NMagM)
  in nuclear magnetons)

  Atom         1           2           3           4           5           6           7           8           9          10
 IAtWgt=          16          12          12          12          16          12          16          12          12          12
 AtmWgt=  15.9949146  12.0000000  12.0000000  12.0000000  15.9949146  12.0000000  15.9949146  12.0000000  12.0000000  12.0000000
 NucSpn=           0           0           0           0           0           0           0           0           0           0
 AtZEff=  -0.0000000  -0.0000000  -0.0000000  -0.0000000  -0.0000000  -0.0000000  -0.0000000  -0.0000000  -0.0000000  -0.0000000
 NQMom=    0.0000000   0.0000000   0.0000000   0.0000000   0.0000000   0.0000000   0.0000000   0.0000000   0.0000000   0.0000000
 NMagM=    0.0000000   0.0000000   0.0000000   0.0000000   0.0000000   0.0000000   0.0000000   0.0000000   0.0000000   0.0000000
 AtZNuc=   8.0000000   6.0000000   6.0000000   6.0000000   8.0000000   6.0000000   8.0000000   6.0000000   6.0000000   6.0000000

  Atom        11          12          13          14          15          16          17          18          19          20
 IAtWgt=          12          12          12          12           1           1           1           1          12          12
 AtmWgt=  12.0000000  12.0000000  12.0000000  12.0000000   1.0078250   1.0078250   1.0078250   1.0078250  12.0000000  12.0000000
 NucSpn=           0           0           0           0           1           1           1           1           0           0
 AtZEff=  -0.0000000  -0.0000000  -0.0000000  -0.0000000  -0.0000000  -0.0000000  -0.0000000  -0.0000000  -0.0000000  -0.0000000
 NQMom=    0.0000000   0.0000000   0.0000000   0.0000000   0.0000000   0.0000000   0.0000000   0.0000000   0.0000000   0.0000000
 NMagM=    0.0000000   0.0000000   0.0000000   0.0000000   2.7928460   2.7928460   2.7928460   2.7928460   0.0000000   0.0000000
 AtZNuc=   6.0000000   6.0000000   6.0000000   6.0000000   1.0000000   1.0000000   1.0000000   1.0000000   6.0000000   6.0000000

  Atom        21          22          23          24          25          26          27          28          29          30
 IAtWgt=          12          12           1           1           1           1           1           1           1           1
 AtmWgt=  12.0000000  12.0000000   1.0078250   1.0078250   1.0078250   1.0078250   1.0078250   1.0078250   1.0078250   1.0078250
 NucSpn=           0           0           1           1           1           1           1           1           1           1
 AtZEff=  -0.0000000  -0.0000000  -0.0000000  -0.0000000  -0.0000000  -0.0000000  -0.0000000  -0.0000000  -0.0000000  -0.0000000
 NQMom=    0.0000000   0.0000000   0.0000000   0.0000000   0.0000000   0.0000000   0.0000000   0.0000000   0.0000000   0.0000000
 NMagM=    0.0000000   0.0000000   2.7928460   2.7928460   2.7928460   2.7928460   2.7928460   2.7928460   2.7928460   2.7928460
 AtZNuc=   6.0000000   6.0000000   1.0000000   1.0000000   1.0000000   1.0000000   1.0000000   1.0000000   1.0000000   1.0000000

  Atom        31          32
 IAtWgt=           1           1
 AtmWgt=   1.0078250   1.0078250
 NucSpn=           1           1
 AtZEff=  -0.0000000  -0.0000000
 NQMom=    0.0000000   0.0000000
 NMagM=    2.7928460   2.7928460
 AtZNuc=   1.0000000   1.0000000
 Leave Link  101 at Mon Jan  8 01:20:50 2024, MaxMem=  4026531840 cpu:               3.6 elap:               0.5
 (Enter /sysapps/ubuntu-applications/gaussian/Gaussian/AVX2/g16/l103.exe)

 GradGradGradGradGradGradGradGradGradGradGradGradGradGradGradGradGradGrad
 Berny optimization.
 Initialization pass.
                           ----------------------------
                           !    Initial Parameters    !
                           ! (Angstroms and Degrees)  !
 --------------------------                            --------------------------
 ! Name  Definition              Value          Derivative Info.                !
 --------------------------------------------------------------------------------
 ! R1    R(1,2)                  1.2625         estimate D2E/DX2                !
 ! R2    R(2,3)                  1.4451         estimate D2E/DX2                !
 ! R3    R(2,13)                 1.4713         estimate D2E/DX2                !
 ! R4    R(3,4)                  1.3893         estimate D2E/DX2                !
 ! R5    R(3,14)                 1.5187         estimate D2E/DX2                !
 ! R6    R(4,5)                  1.3745         estimate D2E/DX2                !
 ! R7    R(4,6)                  1.4486         estimate D2E/DX2                !
 ! R8    R(5,23)                 0.9655         estimate D2E/DX2                !
 ! R9    R(6,7)                  1.2582         estimate D2E/DX2                !
 ! R10   R(6,8)                  1.4676         estimate D2E/DX2                !
 ! R11   R(8,9)                  1.4105         estimate D2E/DX2                !
 ! R12   R(8,13)                 1.4205         estimate D2E/DX2                !
 ! R13   R(9,10)                 1.3829         estimate D2E/DX2                !
 ! R14   R(9,15)                 1.0841         estimate D2E/DX2                !
 ! R15   R(10,11)                1.4094         estimate D2E/DX2                !
 ! R16   R(10,16)                1.0864         estimate D2E/DX2                !
 ! R17   R(11,12)                1.384          estimate D2E/DX2                !
 ! R18   R(11,17)                1.0862         estimate D2E/DX2                !
 ! R19   R(12,13)                1.408          estimate D2E/DX2                !
 ! R20   R(12,18)                1.0841         estimate D2E/DX2                !
 ! R21   R(14,19)                1.5082         estimate D2E/DX2                !
 ! R22   R(14,24)                1.0961         estimate D2E/DX2                !
 ! R23   R(14,25)                1.0965         estimate D2E/DX2                !
 ! R24   R(19,20)                1.3431         estimate D2E/DX2                !
 ! R25   R(19,26)                1.0894         estimate D2E/DX2                !
 ! R26   R(20,21)                1.5098         estimate D2E/DX2                !
 ! R27   R(20,22)                1.5106         estimate D2E/DX2                !
 ! R28   R(21,27)                1.0897         estimate D2E/DX2                !
 ! R29   R(21,28)                1.0973         estimate D2E/DX2                !
 ! R30   R(21,29)                1.0977         estimate D2E/DX2                !
 ! R31   R(22,30)                1.092          estimate D2E/DX2                !
 ! R32   R(22,31)                1.0981         estimate D2E/DX2                !
 ! R33   R(22,32)                1.0976         estimate D2E/DX2                !
 ! A1    A(1,2,3)              122.2784         estimate D2E/DX2                !
 ! A2    A(1,2,13)             121.2451         estimate D2E/DX2                !
 ! A3    A(3,2,13)             116.4738         estimate D2E/DX2                !
 ! A4    A(2,3,4)              121.5332         estimate D2E/DX2                !
 ! A5    A(2,3,14)             116.8999         estimate D2E/DX2                !
 ! A6    A(4,3,14)             121.5378         estimate D2E/DX2                !
 ! A7    A(3,4,5)              121.1938         estimate D2E/DX2                !
 ! A8    A(3,4,6)              123.9806         estimate D2E/DX2                !
 ! A9    A(5,4,6)              114.8186         estimate D2E/DX2                !
 ! A10   A(4,5,23)             108.1883         estimate D2E/DX2                !
 ! A11   A(4,6,7)              122.5815         estimate D2E/DX2                !
 ! A12   A(4,6,8)              115.0445         estimate D2E/DX2                !
 ! A13   A(7,6,8)              122.3739         estimate D2E/DX2                !
 ! A14   A(6,8,9)              119.342          estimate D2E/DX2                !
 ! A15   A(6,8,13)             121.7737         estimate D2E/DX2                !
 ! A16   A(9,8,13)             118.8829         estimate D2E/DX2                !
 ! A17   A(8,9,10)             121.0785         estimate D2E/DX2                !
 ! A18   A(8,9,15)             117.3858         estimate D2E/DX2                !
 ! A19   A(10,9,15)            121.5357         estimate D2E/DX2                !
 ! A20   A(9,10,11)            120.0034         estimate D2E/DX2                !
 ! A21   A(9,10,16)            120.0411         estimate D2E/DX2                !
 ! A22   A(11,10,16)           119.9555         estimate D2E/DX2                !
 ! A23   A(10,11,12)           119.7628         estimate D2E/DX2                !
 ! A24   A(10,11,17)           120.0559         estimate D2E/DX2                !
 ! A25   A(12,11,17)           120.1813         estimate D2E/DX2                !
 ! A26   A(11,12,13)           121.1083         estimate D2E/DX2                !
 ! A27   A(11,12,18)           121.5321         estimate D2E/DX2                !
 ! A28   A(13,12,18)           117.3596         estimate D2E/DX2                !
 ! A29   A(2,13,8)             121.1764         estimate D2E/DX2                !
 ! A30   A(2,13,12)            119.6588         estimate D2E/DX2                !
 ! A31   A(8,13,12)            119.164          estimate D2E/DX2                !
 ! A32   A(3,14,19)            114.2554         estimate D2E/DX2                !
 ! A33   A(3,14,24)            105.1756         estimate D2E/DX2                !
 ! A34   A(3,14,25)            110.2226         estimate D2E/DX2                !
 ! A35   A(19,14,24)           108.8658         estimate D2E/DX2                !
 ! A36   A(19,14,25)           110.9511         estimate D2E/DX2                !
 ! A37   A(24,14,25)           106.9513         estimate D2E/DX2                !
 ! A38   A(14,19,20)           129.2502         estimate D2E/DX2                !
 ! A39   A(14,19,26)           113.6853         estimate D2E/DX2                !
 ! A40   A(20,19,26)           117.0643         estimate D2E/DX2                !
 ! A41   A(19,20,21)           124.7962         estimate D2E/DX2                !
 ! A42   A(19,20,22)           120.8892         estimate D2E/DX2                !
 ! A43   A(21,20,22)           114.3091         estimate D2E/DX2                !
 ! A44   A(20,21,27)           113.0138         estimate D2E/DX2                !
 ! A45   A(20,21,28)           110.818          estimate D2E/DX2                !
 ! A46   A(20,21,29)           110.4464         estimate D2E/DX2                !
 ! A47   A(27,21,28)           108.0546         estimate D2E/DX2                !
 ! A48   A(27,21,29)           107.7465         estimate D2E/DX2                !
 ! A49   A(28,21,29)           106.4922         estimate D2E/DX2                !
 ! A50   A(20,22,30)           111.61           estimate D2E/DX2                !
 ! A51   A(20,22,31)           111.1004         estimate D2E/DX2                !
 ! A52   A(20,22,32)           111.1711         estimate D2E/DX2                !
 ! A53   A(30,22,31)           108.1223         estimate D2E/DX2                !
 ! A54   A(30,22,32)           108.0834         estimate D2E/DX2                !
 ! A55   A(31,22,32)           106.5476         estimate D2E/DX2                !
 ! D1    D(1,2,3,4)            179.5644         estimate D2E/DX2                !
 ! D2    D(1,2,3,14)            -2.3665         estimate D2E/DX2                !
 ! D3    D(13,2,3,4)            -1.034          estimate D2E/DX2                !
 ! D4    D(13,2,3,14)          177.0351         estimate D2E/DX2                !
 ! D5    D(1,2,13,8)           179.3041         estimate D2E/DX2                !
 ! D6    D(1,2,13,12)           -0.3639         estimate D2E/DX2                !
 ! D7    D(3,2,13,8)            -0.1041         estimate D2E/DX2                !
 ! D8    D(3,2,13,12)         -179.7721         estimate D2E/DX2                !
 ! D9    D(2,3,4,5)           -179.3456         estimate D2E/DX2                !
 ! D10   D(2,3,4,6)              1.6636         estimate D2E/DX2                !
 ! D11   D(14,3,4,5)             2.6748         estimate D2E/DX2                !
 ! D12   D(14,3,4,6)          -176.3159         estimate D2E/DX2                !
 ! D13   D(2,3,14,19)          119.451          estimate D2E/DX2                !
 ! D14   D(2,3,14,24)            0.1309         estimate D2E/DX2                !
 ! D15   D(2,3,14,25)         -114.8209         estimate D2E/DX2                !
 ! D16   D(4,3,14,19)          -62.48           estimate D2E/DX2                !
 ! D17   D(4,3,14,24)          178.1999         estimate D2E/DX2                !
 ! D18   D(4,3,14,25)           63.2481         estimate D2E/DX2                !
 ! D19   D(3,4,5,23)            18.4003         estimate D2E/DX2                !
 ! D20   D(6,4,5,23)          -162.5218         estimate D2E/DX2                !
 ! D21   D(3,4,6,7)            179.0884         estimate D2E/DX2                !
 ! D22   D(3,4,6,8)             -1.0248         estimate D2E/DX2                !
 ! D23   D(5,4,6,7)              0.0396         estimate D2E/DX2                !
 ! D24   D(5,4,6,8)            179.9263         estimate D2E/DX2                !
 ! D25   D(4,6,8,9)           -179.7097         estimate D2E/DX2                !
 ! D26   D(4,6,8,13)            -0.1509         estimate D2E/DX2                !
 ! D27   D(7,6,8,9)              0.1773         estimate D2E/DX2                !
 ! D28   D(7,6,8,13)           179.7361         estimate D2E/DX2                !
 ! D29   D(6,8,9,10)           179.6089         estimate D2E/DX2                !
 ! D30   D(6,8,9,15)            -0.3628         estimate D2E/DX2                !
 ! D31   D(13,8,9,10)            0.0373         estimate D2E/DX2                !
 ! D32   D(13,8,9,15)         -179.9343         estimate D2E/DX2                !
 ! D33   D(6,8,13,2)             0.6828         estimate D2E/DX2                !
 ! D34   D(6,8,13,12)         -179.6476         estimate D2E/DX2                !
 ! D35   D(9,8,13,2)          -179.7565         estimate D2E/DX2                !
 ! D36   D(9,8,13,12)           -0.0869         estimate D2E/DX2                !
 ! D37   D(8,9,10,11)            0.0076         estimate D2E/DX2                !
 ! D38   D(8,9,10,16)         -179.988          estimate D2E/DX2                !
 ! D39   D(15,9,10,11)         179.978          estimate D2E/DX2                !
 ! D40   D(15,9,10,16)          -0.0175         estimate D2E/DX2                !
 ! D41   D(9,10,11,12)          -0.002          estimate D2E/DX2                !
 ! D42   D(9,10,11,17)         179.9648         estimate D2E/DX2                !
 ! D43   D(16,10,11,12)        179.9936         estimate D2E/DX2                !
 ! D44   D(16,10,11,17)         -0.0397         estimate D2E/DX2                !
 ! D45   D(10,11,12,13)         -0.0498         estimate D2E/DX2                !
 ! D46   D(10,11,12,18)        179.9303         estimate D2E/DX2                !
 ! D47   D(17,11,12,13)        179.9835         estimate D2E/DX2                !
 ! D48   D(17,11,12,18)         -0.0364         estimate D2E/DX2                !
 ! D49   D(11,12,13,2)         179.7691         estimate D2E/DX2                !
 ! D50   D(11,12,13,8)           0.0944         estimate D2E/DX2                !
 ! D51   D(18,12,13,2)          -0.2118         estimate D2E/DX2                !
 ! D52   D(18,12,13,8)        -179.8865         estimate D2E/DX2                !
 ! D53   D(3,14,19,20)         131.9929         estimate D2E/DX2                !
 ! D54   D(3,14,19,26)         -47.8523         estimate D2E/DX2                !
 ! D55   D(24,14,19,20)       -110.7881         estimate D2E/DX2                !
 ! D56   D(24,14,19,26)         69.3666         estimate D2E/DX2                !
 ! D57   D(25,14,19,20)          6.6479         estimate D2E/DX2                !
 ! D58   D(25,14,19,26)       -173.1974         estimate D2E/DX2                !
 ! D59   D(14,19,20,21)          0.601          estimate D2E/DX2                !
 ! D60   D(14,19,20,22)        179.6949         estimate D2E/DX2                !
 ! D61   D(26,19,20,21)       -179.5581         estimate D2E/DX2                !
 ! D62   D(26,19,20,22)         -0.4643         estimate D2E/DX2                !
 ! D63   D(19,20,21,27)         -4.2854         estimate D2E/DX2                !
 ! D64   D(19,20,21,28)       -125.7347         estimate D2E/DX2                !
 ! D65   D(19,20,21,29)        116.4975         estimate D2E/DX2                !
 ! D66   D(22,20,21,27)        176.5679         estimate D2E/DX2                !
 ! D67   D(22,20,21,28)         55.1186         estimate D2E/DX2                !
 ! D68   D(22,20,21,29)        -62.6492         estimate D2E/DX2                !
 ! D69   D(19,20,22,30)          0.6485         estimate D2E/DX2                !
 ! D70   D(19,20,22,31)       -120.1128         estimate D2E/DX2                !
 ! D71   D(19,20,22,32)        121.409          estimate D2E/DX2                !
 ! D72   D(21,20,22,30)        179.832          estimate D2E/DX2                !
 ! D73   D(21,20,22,31)         59.0707         estimate D2E/DX2                !
 ! D74   D(21,20,22,32)        -59.4075         estimate D2E/DX2                !
 --------------------------------------------------------------------------------
 Trust Radius=3.00D-01 FncErr=1.00D-07 GrdErr=1.00D-06 EigMax=2.50D+02 EigMin=1.00D-04
 Number of steps in this run=    172 maximum allowed number of steps=    192.
 GradGradGradGradGradGradGradGradGradGradGradGradGradGradGradGradGradGrad

 Leave Link  103 at Mon Jan  8 01:20:50 2024, MaxMem=  4026531840 cpu:               0.2 elap:               0.0
 (Enter /sysapps/ubuntu-applications/gaussian/Gaussian/AVX2/g16/l202.exe)
                          Input orientation:                          
 ---------------------------------------------------------------------
 Center     Atomic      Atomic             Coordinates (Angstroms)
 Number     Number       Type             X           Y           Z
 ---------------------------------------------------------------------
      1          8           0       -0.344746    2.169907    0.295134
      2          6           0       -0.535263    0.936360    0.105522
      3          6           0        0.548460    0.022034   -0.173498
      4          6           0        0.322103   -1.334366   -0.370898
      5          8           0        1.359650   -2.200011   -0.622720
      6          6           0       -0.990346   -1.947228   -0.352804
      7          8           0       -1.166626   -3.177081   -0.551502
      8          6           0       -2.101767   -1.027623   -0.082659
      9          6           0       -3.419129   -1.529768   -0.038123
     10          6           0       -4.492179   -0.696912    0.221418
     11          6           0       -4.278900    0.677946    0.446600
     12          6           0       -2.993462    1.189342    0.406875
     13          6           0       -1.887568    0.358010    0.145357
     14          6           0        1.940080    0.619719   -0.285598
     15          1           0       -3.554578   -2.590801   -0.214528
     16          1           0       -5.499879   -1.101689    0.251971
     17          1           0       -5.121132    1.332964    0.649958
     18          1           0       -2.796683    2.242153    0.574737
     19          6           0        2.926790    0.085668    0.722314
     20          6           0        4.177871   -0.364011    0.530928
     21          6           0        4.881108   -0.412678   -0.804183
     22          6           0        5.011275   -0.855415    1.691009
     23          1           0        2.180964   -1.774703   -0.345726
     24          1           0        1.805539    1.694048   -0.114988
     25          1           0        2.321326    0.503521   -1.307070
     26          1           0        2.545430    0.070900    1.742680
     27          1           0        4.242214   -0.110169   -1.633486
     28          1           0        5.252796   -1.423815   -1.012529
     29          1           0        5.758446    0.247087   -0.799759
     30          1           0        4.462261   -0.798386    2.633264
     31          1           0        5.930965   -0.264637    1.795287
     32          1           0        5.323972   -1.896821    1.541392
 ---------------------------------------------------------------------
                    Distance matrix (angstroms):
                    1          2          3          4          5
     1  O    0.000000
     2  C    1.262493   0.000000
     3  C    2.372929   1.445095   0.000000
     4  C    3.628804   2.473509   1.389253   0.000000
     5  O    4.779498   3.736021   2.407761   1.374503   0.000000
     6  C    4.217514   2.955037   2.505607   1.448603   2.378915
     7  O    5.475633   4.213158   3.649485   2.375822   2.709577
     8  C    3.667976   2.519241   2.851970   2.460146   3.694261
     9  C    4.821876   3.797250   4.262415   3.761082   4.860834
    10  C    5.042349   4.282312   5.106945   4.892290   6.100474
    11  C    4.210280   3.768014   4.911023   5.087920   6.420228
    12  C    2.826604   2.489489   3.774209   4.238750   5.612251
    13  C    2.384471   1.471327   2.479674   2.830778   4.204502
    14  C    2.821482   2.525977   1.518684   2.538420   2.898522
    15  H    5.764297   4.653983   4.864515   4.078203   4.946612
    16  H    6.105784   5.368659   6.166537   5.859828   7.001752
    17  H    4.862123   4.635073   5.877150   6.147000   7.490137
    18  H    2.468885   2.653164   4.083964   4.838651   6.200147
    19  C    3.902497   3.617999   2.542240   3.161646   3.080483
    20  C    5.189451   4.907705   3.717240   4.076987   3.555864
    21  C    5.931930   5.655488   4.399838   4.671378   3.953246
    22  C    6.307773   6.040555   4.915590   5.144822   4.527212
    23  H    4.727564   3.864114   2.433721   1.910470   0.965489
    24  H    2.240171   2.470237   2.092678   3.381917   3.952253
    25  H    3.528716   3.216033   2.158673   2.872480   2.949956
    26  H    3.854132   3.594437   2.768035   3.374191   3.486865
    27  H    5.473438   5.190728   3.974023   4.296517   3.701116
    28  H    6.779181   6.349968   4.992517   4.973070   3.988862
    29  H    6.491917   6.395733   5.252314   5.677917   5.036769
    30  H    6.114322   5.862940   4.885575   5.143265   4.710858
    31  H    6.896522   6.790420   5.738437   6.107046   5.521716
    32  H    7.087016   6.664778   5.424792   5.384413   4.526716
                    6          7          8          9         10
     6  C    0.000000
     7  O    1.258211   0.000000
     8  C    1.467620   2.390496   0.000000
     9  C    2.484408   2.837423   1.410523   0.000000
    10  C    3.762427   4.219946   2.432263   1.382912   0.000000
    11  C    4.283127   5.054077   2.815846   2.418298   1.409407
    12  C    3.798376   4.829230   2.439200   2.787970   2.416299
    13  C    2.523350   3.674539   1.420511   2.437837   2.811164
    14  C    3.896297   4.913046   4.369376   5.779503   6.585176
    15  H    2.647375   2.481852   2.138124   1.084092   2.157767
    16  H    4.627805   4.871335   3.415352   2.144044   1.086387
    17  H    5.369226   6.117363   3.902008   3.400809   2.167862
    18  H    4.655545   5.770060   3.406833   3.871747   3.411399
    19  C    4.542301   5.387411   5.212848   6.592313   7.476926
    20  C    5.477045   6.135851   6.344346   7.706959   8.681958
    21  C    6.085438   6.654386   7.046935   8.410034   9.433512
    22  C    6.433404   6.970326   7.332866   8.632286   9.617716
    23  H    3.176007   3.635295   4.355355   5.613881   6.783371
    24  H    4.597001   5.722954   4.761888   6.139711   6.744710
    25  H    4.228944   5.126746   4.838113   6.220717   7.085278
    26  H    4.578821   5.439854   5.112246   6.427236   7.240975
    27  H    5.691627   6.311275   6.594913   7.953403   8.948439
    28  H    6.299684   6.670492   7.423693   8.727140   9.849647
    29  H    7.110624   7.729371   7.995128   9.378976  10.344528
    30  H    6.321975   6.890957   7.107408   8.353893   9.274120
    31  H    7.439755   8.022814   8.284541   9.611774  10.550159
    32  H    6.592506   6.938814   7.650794   8.892211   9.976920
                   11         12         13         14         15
    11  C    0.000000
    12  C    1.384000   0.000000
    13  C    2.431373   1.408015   0.000000
    14  C    6.262205   5.014362   3.860713   0.000000
    15  H    3.412688   3.871753   3.406454   6.364256   0.000000
    16  H    2.166973   3.399256   3.897548   7.655404   2.493847
    17  H    1.086167   2.146322   3.414834   7.158540   4.312466
    18  H    2.158733   1.084117   2.135615   5.080294   4.955279
    19  C    7.235246   6.030504   4.856449   1.508209   7.074552
    20  C    8.521136   7.338686   6.120419   2.577237   8.081155
    21  C    9.309117   8.126622   6.878267   3.159813   8.732280
    22  C    9.497742   8.360972   7.173247   3.938938   8.945193
    23  H    6.955078   6.010545   4.619803   2.407259   5.794797
    24  H    6.194210   4.853605   3.935964   1.096080   6.862994
    25  H    6.831454   5.626271   4.454830   1.096474   6.730136
    26  H    6.972791   5.806429   4.720736   2.186678   6.937248
    27  H    8.806660   7.629339   6.399820   2.765748   8.304032
    28  H    9.869128   8.766075   7.449859   3.959615   8.920118
    29  H   10.123604   8.884802   7.705003   3.870805   9.753385
    30  H    9.130660   8.030920   6.917171   4.110009   8.694388
    31  H   10.341603   9.148068   8.014950   4.586865   9.971255
    32  H   10.002157   8.943782   7.683716   4.595823   9.077087
                   16         17         18         19         20
    16  H    0.000000
    17  H    2.495872   0.000000
    18  H    4.311928   2.497067   0.000000
    19  C    8.522898   8.144325   6.118035   0.000000
    20  C    9.709832   9.453325   7.445698   1.343147   0.000000
    21  C   10.457298  10.257027   8.240026   2.529407   1.509779
    22  C   10.612061  10.418179   8.473795   2.483764   1.510572
    23  H    7.733404   7.998099   6.462148   2.271111   2.597347
    24  H    7.830705   6.978130   4.685786   2.131939   3.206365
    25  H    8.135020   7.740033   5.723465   2.158608   2.752745
    26  H    8.265844   7.846211   5.883587   1.089404   2.079027
    27  H    9.972283   9.745204   7.743109   2.705270   2.180198
    28  H   10.831562  10.861955   8.986259   3.270860   2.158914
    29  H   11.387503  11.029326   8.891556   3.218857   2.154620
    30  H   10.247282  10.015866   8.134782   2.605946   2.165497
    31  H   11.564890  11.225549   9.162182   3.209214   2.163751
    32  H   10.929345  10.969337   9.165728   3.216774   2.164276
                   21         22         23         24         25
    21  C    0.000000
    22  C    2.537507   0.000000
    23  H    3.058770   3.606112   0.000000
    24  H    3.791096   4.476397   3.496629   0.000000
    25  H    2.764923   4.251001   2.476729   1.761945   0.000000
    26  H    3.489377   2.634601   2.810787   2.575457   3.088423
    27  H    1.089698   3.492723   2.945802   3.390932   2.042786
    28  H    1.097250   2.773180   3.162894   4.733944   3.520638
    29  H    1.097739   2.824482   4.134266   4.264749   3.483808
    30  H    3.484285   1.092023   3.877098   4.563254   4.669561
    31  H    2.807376   1.098054   4.574576   4.950226   4.821222
    32  H    2.810788   1.097584   3.668055   5.293138   4.784481
                   26         27         28         29         30
    26  H    0.000000
    27  H    3.782903   0.000000
    28  H    4.141881   1.769895   0.000000
    29  H    4.101038   1.766831   1.758655   0.000000
    30  H    2.285397   4.327496   3.782580   3.815594   0.000000
    31  H    3.402528   3.825209   3.112465   2.650639   1.773185
    32  H    3.410680   3.800286   2.598329   3.204075   1.772368
                   31         32
    31  H    0.000000
    32  H    1.759809   0.000000
 Symmetry turned off by external request.
 Stoichiometry    C15H14O3(1-,2)
 Framework group  C1[X(C15H14O3)]
 Deg. of freedom    90
 Full point group                 C1      NOp   1
 Rotational constants (GHZ):           0.9129658           0.2333097           0.1973971
 Leave Link  202 at Mon Jan  8 01:20:50 2024, MaxMem=  4026531840 cpu:               0.4 elap:               0.1
 (Enter /sysapps/ubuntu-applications/gaussian/Gaussian/AVX2/g16/l301.exe)
 Standard basis: 6-311++G(d,p) (5D, 7F)
 Ernie: Thresh=  0.10000D-02 Tol=  0.10000D-05 Strict=F.
   494 basis functions,   774 primitive gaussians,   512 cartesian basis functions
    65 alpha electrons       64 beta electrons
       nuclear repulsion energy      1236.2660030593 Hartrees.
 IExCor=  402 DFT=T Ex+Corr=B3LYP ExCW=0 ScaHFX=  0.200000
 ScaDFX=  0.800000  0.720000  1.000000  0.810000 ScalE2=  1.000000  1.000000
 IRadAn=      5 IRanWt=     -1 IRanGd=            0 ICorTp=0 IEmpDi=  4
 NAtoms=   32 NActive=   32 NUniq=   32 SFac= 1.00D+00 NAtFMM=   60 NAOKFM=F Big=F
 Integral buffers will be    131072 words long.
 Raffenetti 2 integral format.
 Two-electron integral symmetry is turned off.
 Leave Link  301 at Mon Jan  8 01:20:50 2024, MaxMem=  4026531840 cpu:               0.5 elap:               0.1
 (Enter /sysapps/ubuntu-applications/gaussian/Gaussian/AVX2/g16/l302.exe)
 NPDir=0 NMtPBC=     1 NCelOv=     1 NCel=       1 NClECP=     1 NCelD=      1
         NCelK=      1 NCelE2=     1 NClLst=     1 CellRange=     0.0.
 One-electron integrals computed using PRISM.
 NBasis=   494 RedAO= T EigKep=  1.14D-06  NBF=   494
 NBsUse=   490 1.00D-06 EigRej=  9.35D-07 NBFU=   490
 Precomputing XC quadrature grid using
 IXCGrd= 4 IRadAn=           5 IRanWt=          -1 IRanGd=           0 AccXCQ= 0.00D+00.
 Generated NRdTot=       0 NPtTot=           0 NUsed=           0 NTot=          32
 NSgBfM=   510   510   510   510   510 MxSgAt=    32 MxSgA2=    32.
 Leave Link  302 at Mon Jan  8 01:20:51 2024, MaxMem=  4026531840 cpu:               4.9 elap:               0.7
 (Enter /sysapps/ubuntu-applications/gaussian/Gaussian/AVX2/g16/l303.exe)
 DipDrv:  MaxL=1.
 Leave Link  303 at Mon Jan  8 01:20:51 2024, MaxMem=  4026531840 cpu:               1.3 elap:               0.3
 (Enter /sysapps/ubuntu-applications/gaussian/Gaussian/AVX2/g16/l401.exe)
 ExpMin= 3.60D-02 ExpMax= 8.59D+03 ExpMxC= 1.30D+03 IAcc=3 IRadAn=         5 AccDes= 0.00D+00
 Harris functional with IExCor=  402 and IRadAn=       5 diagonalized for initial guess.
 HarFok:  IExCor=  402 AccDes= 0.00D+00 IRadAn=         5 IDoV= 1 UseB2=F ITyADJ=14
 ICtDFT=  3500011 ScaDFX=  1.000000  1.000000  1.000000  1.000000
 FoFCou: FMM=F IPFlag=           0 FMFlag=      100000 FMFlg1=           0
         NFxFlg=           0 DoJE=T BraDBF=F KetDBF=T FulRan=T
         wScrn=  0.000000 ICntrl=       500 IOpCl=  0 I1Cent=   200000004 NGrid=           0
         NMat0=    1 NMatS0=      1 NMatT0=    0 NMatD0=    1 NMtDS0=    0 NMtDT0=    0
 Symmetry not used in FoFCou.
 Harris En= -806.194725210002    
 JPrj=0 DoOrth=F DoCkMO=F.
 Initial guess <Sx>= 0.0000 <Sy>= 0.0000 <Sz>= 0.5000 <S**2>= 0.7500 S= 0.5000
 Leave Link  401 at Mon Jan  8 01:20:55 2024, MaxMem=  4026531840 cpu:              29.1 elap:               3.7
 (Enter /sysapps/ubuntu-applications/gaussian/Gaussian/AVX2/g16/l502.exe)
 Two-electron integral symmetry not used.
 UHF open shell SCF:
 Using DIIS extrapolation, IDIIS=  1040.
 NGot=  4026531840 LenX=  4025999732 LenY=  4025737076
 Requested convergence on RMS density matrix=1.00D-08 within 128 cycles.
 Requested convergence on MAX density matrix=1.00D-06.
 Requested convergence on             energy=1.00D-06.
 No special actions if energy rises.
 Fock matrices will be formed incrementally for  20 cycles.

 Cycle   1  Pass 1  IDiag  1:
 FoFJK:  IHMeth= 1 ICntrl=       0 DoSepK=F KAlg= 0 I1Cent=           0 FoldK=F
 IRaf= 840000000 NMat=       1 IRICut=       1 DoRegI=T DoRafI=F ISym2E= 0 IDoP0=0 IntGTp=1.
 FoFCou: FMM=F IPFlag=           0 FMFlag=      100000 FMFlg1=           0
         NFxFlg=           0 DoJE=F BraDBF=F KetDBF=F FulRan=T
         wScrn=  0.000000 ICntrl=         0 IOpCl=  1 I1Cent=           0 NGrid=           0
         NMat0=    1 NMatS0=      1 NMatT0=    0 NMatD0=    1 NMtDS0=    0 NMtDT0=    0
 Symmetry not used in FoFCou.
 E= -805.415969079174    
 DIIS: error= 2.74D-02 at cycle   1 NSaved=   1.
 NSaved= 1 IEnMin= 1 EnMin= -805.415969079174     IErMin= 1 ErrMin= 2.74D-02
 ErrMax= 2.74D-02  0.00D+00 EMaxC= 1.00D-01 BMatC= 2.54D+00 BMatP= 2.54D+00
 IDIUse=3 WtCom= 7.26D-01 WtEn= 2.74D-01
 Coeff-Com:  0.100D+01
 Coeff-En:   0.100D+01
 Coeff:      0.100D+01
 Gap=     0.114 Goal=   None    Shift=    0.000
 Gap=     0.161 Goal=   None    Shift=    0.000
 GapD=    0.114 DampG=1.000 DampE=0.500 DampFc=0.5000 IDamp=-1.
 Damping current iteration by 5.00D-01
 RMSDP=1.76D+00 MaxDP=3.79D+02              OVMax= 9.94D-01

 Cycle   2  Pass 1  IDiag  1:
 RMSU=  8.60D-01    CP:  3.00D+00
 E= -805.065338431188     Delta-E=        0.350630647986 Rises=F Damp=T
 DIIS: error= 2.24D-02 at cycle   2 NSaved=   2.
 NSaved= 2 IEnMin= 1 EnMin= -805.415969079174     IErMin= 2 ErrMin= 2.24D-02
 ErrMax= 2.24D-02  0.00D+00 EMaxC= 1.00D-01 BMatC= 9.84D-01 BMatP= 2.54D+00
 IDIUse=3 WtCom= 7.76D-01 WtEn= 2.24D-01
 Coeff-Com:  0.339D+00 0.661D+00
 Coeff-En:   0.674D+00 0.326D+00
 Coeff:      0.414D+00 0.586D+00
 Gap=    -0.238 Goal=   None    Shift=    0.000
 Gap=     0.296 Goal=   None    Shift=    0.000
 RMSDP=8.80D-01 MaxDP=1.90D+02 DE= 3.51D-01 OVMax= 8.01D-01

 Cycle   3  Pass 1  IDiag  1:
 RMSU=  1.42D-02    CP:  1.11D+00 -5.31D-04
 E= -805.663065299970     Delta-E=       -0.597726868782 Rises=F Damp=F
 DIIS: error= 2.64D-02 at cycle   3 NSaved=   3.
 NSaved= 3 IEnMin= 3 EnMin= -805.663065299970     IErMin= 2 ErrMin= 2.24D-02
 ErrMax= 2.64D-02  0.00D+00 EMaxC= 1.00D-01 BMatC= 1.27D+00 BMatP= 9.84D-01
 IDIUse=2 WtCom= 0.00D+00 WtEn= 1.00D+00
 EnCoef did     1 forward-backward iterations
 Coeff-En:   0.138D+00 0.167D+00 0.695D+00
 Coeff:      0.138D+00 0.167D+00 0.695D+00
 Gap=     0.109 Goal=   None    Shift=    0.000
 Gap=     0.237 Goal=   None    Shift=    0.000
 RMSDP=2.04D-01 MaxDP=3.45D+01 DE=-5.98D-01 OVMax= 8.35D-01

 Cycle   4  Pass 1  IDiag  1:
 RMSU=  1.76D-01    CP:  1.74D+00  1.06D-01 -3.03D-02
 E= -804.287497016723     Delta-E=        1.375568283247 Rises=F Damp=F
 DIIS: error= 6.69D-02 at cycle   4 NSaved=   4.
 NSaved= 4 IEnMin= 3 EnMin= -805.663065299970     IErMin= 2 ErrMin= 2.24D-02
 ErrMax= 6.69D-02  0.00D+00 EMaxC= 1.00D-01 BMatC= 6.18D+00 BMatP= 9.84D-01
 IDIUse=2 WtCom= 0.00D+00 WtEn= 1.00D+00
 Coeff-En:   0.000D+00 0.000D+00 0.779D+00 0.221D+00
 Coeff:      0.000D+00 0.000D+00 0.779D+00 0.221D+00
 Gap=     0.013 Goal=   None    Shift=    0.000
 Gap=    -0.016 Goal=   None    Shift=    0.000
 RMSDP=2.04D-01 MaxDP=3.46D+01 DE= 1.38D+00 OVMax= 8.00D-01

 Cycle   5  Pass 1  IDiag  1:
 RMSU=  1.58D-02    CP:  1.08D+00 -9.91D-04  5.39D-02  1.89D-03
 E= -805.840696784492     Delta-E=       -1.553199767769 Rises=F Damp=F
 DIIS: error= 2.27D-02 at cycle   5 NSaved=   5.
 NSaved= 5 IEnMin= 5 EnMin= -805.840696784492     IErMin= 2 ErrMin= 2.24D-02
 ErrMax= 2.27D-02  0.00D+00 EMaxC= 1.00D-01 BMatC= 5.94D-01 BMatP= 9.84D-01
 IDIUse=3 WtCom= 7.73D-01 WtEn= 2.27D-01
 Coeff-Com:  0.568D-01 0.188D+00 0.385D+00 0.434D-01 0.327D+00
 Coeff-En:   0.000D+00 0.000D+00 0.314D+00 0.000D+00 0.686D+00
 Coeff:      0.439D-01 0.146D+00 0.369D+00 0.335D-01 0.408D+00
 Gap=     0.107 Goal=   None    Shift=    0.000
 Gap=     0.214 Goal=   None    Shift=    0.000
 RMSDP=1.35D-02 MaxDP=1.20D+00 DE=-1.55D+00 OVMax= 1.95D-01

 Cycle   6  Pass 1  IDiag  1:
 RMSU=  6.39D-03    CP:  1.03D+00 -1.33D-03  3.84D-01 -2.54D-03  3.33D-01
 E= -805.930810899641     Delta-E=       -0.090114115149 Rises=F Damp=F
 DIIS: error= 2.06D-02 at cycle   6 NSaved=   6.
 NSaved= 6 IEnMin= 6 EnMin= -805.930810899641     IErMin= 6 ErrMin= 2.06D-02
 ErrMax= 2.06D-02  0.00D+00 EMaxC= 1.00D-01 BMatC= 2.01D-01 BMatP= 5.94D-01
 IDIUse=3 WtCom= 7.94D-01 WtEn= 2.06D-01
 Coeff-Com: -0.230D-01 0.770D-01 0.181D+00-0.126D-01 0.351D+00 0.427D+00
 Coeff-En:   0.000D+00 0.000D+00 0.000D+00 0.000D+00 0.264D+00 0.736D+00
 Coeff:     -0.183D-01 0.612D-01 0.143D+00-0.100D-01 0.333D+00 0.490D+00
 Gap=     0.081 Goal=   None    Shift=    0.000
 Gap=     0.156 Goal=   None    Shift=    0.000
 RMSDP=5.48D-03 MaxDP=4.66D-01 DE=-9.01D-02 OVMax= 1.23D-01

 Cycle   7  Pass 1  IDiag  1:
 RMSU=  2.47D-03    CP:  1.03D+00 -1.15D-03  3.12D-01 -3.80D-03  6.08D-01
                    CP:  6.87D-01
 E= -805.971097700794     Delta-E=       -0.040286801152 Rises=F Damp=F
 DIIS: error= 4.52D-03 at cycle   7 NSaved=   7.
 NSaved= 7 IEnMin= 7 EnMin= -805.971097700794     IErMin= 7 ErrMin= 4.52D-03
 ErrMax= 4.52D-03  0.00D+00 EMaxC= 1.00D-01 BMatC= 1.35D-02 BMatP= 2.01D-01
 IDIUse=3 WtCom= 9.55D-01 WtEn= 4.52D-02
 Coeff-Com: -0.947D-02 0.734D-02-0.511D-02 0.275D-04 0.862D-01 0.236D+00
 Coeff-Com:  0.685D+00
 Coeff-En:   0.000D+00 0.000D+00 0.000D+00 0.000D+00 0.000D+00 0.252D-01
 Coeff-En:   0.975D+00
 Coeff:     -0.904D-02 0.700D-02-0.488D-02 0.263D-04 0.823D-01 0.226D+00
 Coeff:      0.698D+00
 Gap=     0.073 Goal=   None    Shift=    0.000
 Gap=     0.145 Goal=   None    Shift=    0.000
 RMSDP=9.55D-04 MaxDP=8.64D-02 DE=-4.03D-02 OVMax= 3.43D-02

 Cycle   8  Pass 1  IDiag  1:
 RMSU=  7.69D-04    CP:  1.03D+00 -1.22D-03  2.95D-01 -4.08D-03  6.04D-01
                    CP:  7.55D-01  9.02D-01
 E= -805.973807747950     Delta-E=       -0.002710047156 Rises=F Damp=F
 DIIS: error= 1.13D-03 at cycle   8 NSaved=   8.
 NSaved= 8 IEnMin= 8 EnMin= -805.973807747950     IErMin= 8 ErrMin= 1.13D-03
 ErrMax= 1.13D-03  0.00D+00 EMaxC= 1.00D-01 BMatC= 2.16D-03 BMatP= 1.35D-02
 IDIUse=3 WtCom= 9.89D-01 WtEn= 1.13D-02
 Coeff-Com: -0.199D-02 0.916D-03-0.260D-01 0.435D-03 0.507D-02 0.889D-01
 Coeff-Com:  0.470D+00 0.463D+00
 Coeff-En:   0.000D+00 0.000D+00 0.000D+00 0.000D+00 0.000D+00 0.000D+00
 Coeff-En:   0.135D+00 0.865D+00
 Coeff:     -0.196D-02 0.906D-03-0.257D-01 0.430D-03 0.501D-02 0.879D-01
 Coeff:      0.466D+00 0.468D+00
 Gap=     0.075 Goal=   None    Shift=    0.000
 Gap=     0.143 Goal=   None    Shift=    0.000
 RMSDP=4.93D-04 MaxDP=5.67D-02 DE=-2.71D-03 OVMax= 9.33D-03

 Cycle   9  Pass 1  IDiag  1:
 RMSU=  3.32D-04    CP:  1.03D+00 -1.22D-03  3.01D-01 -4.15D-03  6.08D-01
                    CP:  7.60D-01  9.61D-01  6.67D-01
 E= -805.974338745410     Delta-E=       -0.000530997461 Rises=F Damp=F
 DIIS: error= 3.65D-04 at cycle   9 NSaved=   9.
 NSaved= 9 IEnMin= 9 EnMin= -805.974338745410     IErMin= 9 ErrMin= 3.65D-04
 ErrMax= 3.65D-04  0.00D+00 EMaxC= 1.00D-01 BMatC= 1.28D-04 BMatP= 2.16D-03
 IDIUse=3 WtCom= 9.96D-01 WtEn= 3.65D-03
 Coeff-Com:  0.124D-02 0.468D-04-0.594D-02 0.271D-03-0.931D-02 0.195D-02
 Coeff-Com:  0.454D-01 0.194D+00 0.773D+00
 Coeff-En:   0.000D+00 0.000D+00 0.000D+00 0.000D+00 0.000D+00 0.000D+00
 Coeff-En:   0.000D+00 0.554D-02 0.994D+00
 Coeff:      0.123D-02 0.466D-04-0.592D-02 0.270D-03-0.928D-02 0.194D-02
 Coeff:      0.453D-01 0.193D+00 0.774D+00
 Gap=     0.076 Goal=   None    Shift=    0.000
 Gap=     0.143 Goal=   None    Shift=    0.000
 RMSDP=1.87D-04 MaxDP=1.98D-02 DE=-5.31D-04 OVMax= 3.57D-03

 Cycle  10  Pass 1  IDiag  1:
 RMSU=  1.39D-04    CP:  1.03D+00 -1.21D-03  3.01D-01 -4.15D-03  6.03D-01
                    CP:  7.69D-01  9.57D-01  7.02D-01  9.22D-01
 E= -805.974384338907     Delta-E=       -0.000045593497 Rises=F Damp=F
 DIIS: error= 1.10D-04 at cycle  10 NSaved=  10.
 NSaved=10 IEnMin=10 EnMin= -805.974384338907     IErMin=10 ErrMin= 1.10D-04
 ErrMax= 1.10D-04  0.00D+00 EMaxC= 1.00D-01 BMatC= 3.05D-05 BMatP= 1.28D-04
 IDIUse=3 WtCom= 9.99D-01 WtEn= 1.10D-03
 Coeff-Com:  0.875D-03 0.217D-04 0.768D-03-0.911D-04-0.566D-02-0.113D-01
 Coeff-Com: -0.477D-01 0.307D-01 0.434D+00 0.598D+00
 Coeff-En:   0.000D+00 0.000D+00 0.000D+00 0.000D+00 0.000D+00 0.000D+00
 Coeff-En:   0.000D+00 0.000D+00 0.000D+00 0.100D+01
 Coeff:      0.874D-03 0.217D-04 0.767D-03-0.910D-04-0.565D-02-0.113D-01
 Coeff:     -0.476D-01 0.307D-01 0.434D+00 0.599D+00
 Gap=     0.076 Goal=   None    Shift=    0.000
 Gap=     0.143 Goal=   None    Shift=    0.000
 RMSDP=6.42D-05 MaxDP=5.93D-03 DE=-4.56D-05 OVMax= 1.56D-03

 Cycle  11  Pass 1  IDiag  1:
 RMSU=  4.54D-05    CP:  1.03D+00 -1.22D-03  3.02D-01 -4.18D-03  6.01D-01
                    CP:  7.67D-01  9.57D-01  7.42D-01  9.67D-01  9.91D-01
 E= -805.974394876096     Delta-E=       -0.000010537189 Rises=F Damp=F
 DIIS: error= 6.99D-05 at cycle  11 NSaved=  11.
 NSaved=11 IEnMin=11 EnMin= -805.974394876096     IErMin=11 ErrMin= 6.99D-05
 ErrMax= 6.99D-05  0.00D+00 EMaxC= 1.00D-01 BMatC= 6.79D-06 BMatP= 3.05D-05
 IDIUse=1 WtCom= 1.00D+00 WtEn= 0.00D+00
 Coeff-Com: -0.195D-04-0.786D-04 0.289D-02-0.155D-03 0.278D-03-0.730D-02
 Coeff-Com: -0.406D-01-0.583D-01-0.578D-01 0.307D+00 0.854D+00
 Coeff:     -0.195D-04-0.786D-04 0.289D-02-0.155D-03 0.278D-03-0.730D-02
 Coeff:     -0.406D-01-0.583D-01-0.578D-01 0.307D+00 0.854D+00
 Gap=     0.076 Goal=   None    Shift=    0.000
 Gap=     0.143 Goal=   None    Shift=    0.000
 RMSDP=6.17D-05 MaxDP=5.80D-03 DE=-1.05D-05 OVMax= 1.05D-03

 Cycle  12  Pass 1  IDiag  1:
 RMSU=  3.93D-05    CP:  1.03D+00 -1.20D-03  3.02D-01 -4.17D-03  6.01D-01
                    CP:  7.66D-01  9.62D-01  7.42D-01  1.04D+00  1.13D+00
                    CP:  1.14D+00
 E= -805.974398029519     Delta-E=       -0.000003153424 Rises=F Damp=F
 DIIS: error= 2.69D-05 at cycle  12 NSaved=  12.
 NSaved=12 IEnMin=12 EnMin= -805.974398029519     IErMin=12 ErrMin= 2.69D-05
 ErrMax= 2.69D-05  0.00D+00 EMaxC= 1.00D-01 BMatC= 1.60D-06 BMatP= 6.79D-06
 IDIUse=1 WtCom= 1.00D+00 WtEn= 0.00D+00
 Coeff-Com: -0.779D-04 0.435D-04 0.151D-02-0.655D-04 0.700D-03-0.269D-02
 Coeff-Com: -0.140D-01-0.340D-01-0.958D-01 0.683D-01 0.452D+00 0.624D+00
 Coeff:     -0.779D-04 0.435D-04 0.151D-02-0.655D-04 0.700D-03-0.269D-02
 Coeff:     -0.140D-01-0.340D-01-0.958D-01 0.683D-01 0.452D+00 0.624D+00
 Gap=     0.076 Goal=   None    Shift=    0.000
 Gap=     0.143 Goal=   None    Shift=    0.000
 RMSDP=2.44D-05 MaxDP=2.05D-03 DE=-3.15D-06 OVMax= 4.08D-04

 Cycle  13  Pass 1  IDiag  1:
 RMSU=  1.55D-05    CP:  1.03D+00 -1.20D-03  3.03D-01 -4.17D-03  6.00D-01
                    CP:  7.66D-01  9.63D-01  7.44D-01  1.03D+00  1.15D+00
                    CP:  1.33D+00  9.64D-01
 E= -805.974398520536     Delta-E=       -0.000000491017 Rises=F Damp=F
 DIIS: error= 1.65D-05 at cycle  13 NSaved=  13.
 NSaved=13 IEnMin=13 EnMin= -805.974398520536     IErMin=13 ErrMin= 1.65D-05
 ErrMax= 1.65D-05  0.00D+00 EMaxC= 1.00D-01 BMatC= 4.03D-07 BMatP= 1.60D-06
 IDIUse=1 WtCom= 1.00D+00 WtEn= 0.00D+00
 Coeff-Com: -0.224D-04-0.326D-04 0.236D-03-0.765D-05 0.324D-03 0.449D-04
 Coeff-Com:  0.105D-02-0.645D-02-0.473D-01-0.302D-01 0.784D-01 0.370D+00
 Coeff-Com:  0.634D+00
 Coeff:     -0.224D-04-0.326D-04 0.236D-03-0.765D-05 0.324D-03 0.449D-04
 Coeff:      0.105D-02-0.645D-02-0.473D-01-0.302D-01 0.784D-01 0.370D+00
 Coeff:      0.634D+00
 Gap=     0.076 Goal=   None    Shift=    0.000
 Gap=     0.143 Goal=   None    Shift=    0.000
 RMSDP=1.14D-05 MaxDP=1.34D-03 DE=-4.91D-07 OVMax= 1.88D-04

 Cycle  14  Pass 1  IDiag  1:
 RMSU=  4.89D-06    CP:  1.03D+00 -1.20D-03  3.03D-01 -4.17D-03  6.00D-01
                    CP:  7.66D-01  9.63D-01  7.42D-01  1.04D+00  1.19D+00
                    CP:  1.35D+00  1.01D+00  7.43D-01
 E= -805.974398627342     Delta-E=       -0.000000106805 Rises=F Damp=F
 DIIS: error= 8.31D-06 at cycle  14 NSaved=  14.
 NSaved=14 IEnMin=14 EnMin= -805.974398627342     IErMin=14 ErrMin= 8.31D-06
 ErrMax= 8.31D-06  0.00D+00 EMaxC= 1.00D-01 BMatC= 5.66D-08 BMatP= 4.03D-07
 IDIUse=1 WtCom= 1.00D+00 WtEn= 0.00D+00
 Coeff-Com:  0.632D-05-0.175D-04-0.296D-04 0.132D-05 0.776D-04 0.354D-03
 Coeff-Com:  0.210D-02 0.593D-03-0.154D-01-0.253D-01-0.764D-02 0.131D+00
 Coeff-Com:  0.356D+00 0.558D+00
 Coeff:      0.632D-05-0.175D-04-0.296D-04 0.132D-05 0.776D-04 0.354D-03
 Coeff:      0.210D-02 0.593D-03-0.154D-01-0.253D-01-0.764D-02 0.131D+00
 Coeff:      0.356D+00 0.558D+00
 Gap=     0.076 Goal=   None    Shift=    0.000
 Gap=     0.143 Goal=   None    Shift=    0.000
 RMSDP=3.18D-06 MaxDP=2.35D-04 DE=-1.07D-07 OVMax= 7.71D-05

 Cycle  15  Pass 1  IDiag  1:
 RMSU=  1.94D-06    CP:  1.03D+00 -1.20D-03  3.03D-01 -4.17D-03  6.00D-01
                    CP:  7.66D-01  9.63D-01  7.43D-01  1.04D+00  1.19D+00
                    CP:  1.37D+00  1.03D+00  7.97D-01  8.10D-01
 E= -805.974398643506     Delta-E=       -0.000000016165 Rises=F Damp=F
 DIIS: error= 1.64D-06 at cycle  15 NSaved=  15.
 NSaved=15 IEnMin=15 EnMin= -805.974398643506     IErMin=15 ErrMin= 1.64D-06
 ErrMax= 1.64D-06  0.00D+00 EMaxC= 1.00D-01 BMatC= 7.63D-09 BMatP= 5.66D-08
 IDIUse=1 WtCom= 1.00D+00 WtEn= 0.00D+00
 Coeff-Com:  0.113D-04-0.439D-05-0.524D-04 0.168D-05-0.173D-04 0.198D-03
 Coeff-Com:  0.873D-03 0.158D-02 0.134D-02-0.677D-02-0.166D-01-0.877D-02
 Coeff-Com:  0.543D-01 0.288D+00 0.686D+00
 Coeff:      0.113D-04-0.439D-05-0.524D-04 0.168D-05-0.173D-04 0.198D-03
 Coeff:      0.873D-03 0.158D-02 0.134D-02-0.677D-02-0.166D-01-0.877D-02
 Coeff:      0.543D-01 0.288D+00 0.686D+00
 Gap=     0.076 Goal=   None    Shift=    0.000
 Gap=     0.143 Goal=   None    Shift=    0.000
 RMSDP=1.54D-06 MaxDP=1.11D-04 DE=-1.62D-08 OVMax= 2.74D-05

 Cycle  16  Pass 1  IDiag  1:
 RMSU=  1.07D-06    CP:  1.03D+00 -1.20D-03  3.03D-01 -4.17D-03  6.00D-01
                    CP:  7.66D-01  9.63D-01  7.43D-01  1.03D+00  1.18D+00
                    CP:  1.37D+00  1.03D+00  8.23D-01  8.48D-01  1.01D+00
 E= -805.974398646120     Delta-E=       -0.000000002614 Rises=F Damp=F
 DIIS: error= 9.64D-07 at cycle  16 NSaved=  16.
 NSaved=16 IEnMin=16 EnMin= -805.974398646120     IErMin=16 ErrMin= 9.64D-07
 ErrMax= 9.64D-07  0.00D+00 EMaxC= 1.00D-01 BMatC= 9.31D-10 BMatP= 7.63D-09
 IDIUse=1 WtCom= 1.00D+00 WtEn= 0.00D+00
 Coeff-Com:  0.377D-05 0.111D-06-0.196D-04 0.821D-06-0.173D-04 0.372D-04
 Coeff-Com:  0.136D-03 0.667D-03 0.283D-02 0.243D-03-0.651D-02-0.224D-01
 Coeff-Com: -0.245D-01 0.487D-01 0.274D+00 0.727D+00
 Coeff:      0.377D-05 0.111D-06-0.196D-04 0.821D-06-0.173D-04 0.372D-04
 Coeff:      0.136D-03 0.667D-03 0.283D-02 0.243D-03-0.651D-02-0.224D-01
 Coeff:     -0.245D-01 0.487D-01 0.274D+00 0.727D+00
 Gap=     0.076 Goal=   None    Shift=    0.000
 Gap=     0.143 Goal=   None    Shift=    0.000
 RMSDP=5.68D-07 MaxDP=5.22D-05 DE=-2.61D-09 OVMax= 2.03D-05

 Cycle  17  Pass 1  IDiag  1:
 RMSU=  3.63D-07    CP:  1.03D+00 -1.20D-03  3.03D-01 -4.17D-03  6.00D-01
                    CP:  7.66D-01  9.63D-01  7.43D-01  1.04D+00  1.18D+00
                    CP:  1.37D+00  1.03D+00  8.26D-01  9.03D-01  1.03D+00
                    CP:  8.40D-01
 E= -805.974398646639     Delta-E=       -0.000000000518 Rises=F Damp=F
 DIIS: error= 8.03D-07 at cycle  17 NSaved=  17.
 NSaved=17 IEnMin=17 EnMin= -805.974398646639     IErMin=17 ErrMin= 8.03D-07
 ErrMax= 8.03D-07  0.00D+00 EMaxC= 1.00D-01 BMatC= 5.24D-10 BMatP= 9.31D-10
 IDIUse=1 WtCom= 1.00D+00 WtEn= 0.00D+00
 Coeff-Com: -0.147D-05 0.155D-05 0.426D-05-0.185D-06-0.311D-05-0.385D-04
 Coeff-Com: -0.173D-03-0.382D-04 0.157D-02 0.216D-02 0.680D-03-0.131D-01
 Coeff-Com: -0.325D-01-0.502D-01-0.251D-01 0.458D+00 0.659D+00
 Coeff:     -0.147D-05 0.155D-05 0.426D-05-0.185D-06-0.311D-05-0.385D-04
 Coeff:     -0.173D-03-0.382D-04 0.157D-02 0.216D-02 0.680D-03-0.131D-01
 Coeff:     -0.325D-01-0.502D-01-0.251D-01 0.458D+00 0.659D+00
 Gap=     0.076 Goal=   None    Shift=    0.000
 Gap=     0.143 Goal=   None    Shift=    0.000
 RMSDP=3.67D-07 MaxDP=2.89D-05 DE=-5.18D-10 OVMax= 1.30D-05

 Cycle  18  Pass 1  IDiag  1:
 RMSU=  2.31D-07    CP:  1.03D+00 -1.20D-03  3.03D-01 -4.17D-03  6.00D-01
                    CP:  7.66D-01  9.63D-01  7.43D-01  1.03D+00  1.18D+00
                    CP:  1.37D+00  1.03D+00  8.35D-01  9.08D-01  1.02D+00
                    CP:  8.78D-01  1.10D+00
 E= -805.974398646925     Delta-E=       -0.000000000287 Rises=F Damp=F
 DIIS: error= 4.01D-07 at cycle  18 NSaved=  18.
 NSaved=18 IEnMin=18 EnMin= -805.974398646925     IErMin=18 ErrMin= 4.01D-07
 ErrMax= 4.01D-07  0.00D+00 EMaxC= 1.00D-01 BMatC= 1.15D-10 BMatP= 5.24D-10
 IDIUse=1 WtCom= 1.00D+00 WtEn= 0.00D+00
 Coeff-Com: -0.184D-05 0.159D-05 0.744D-05-0.478D-06 0.386D-05-0.313D-04
 Coeff-Com: -0.936D-04-0.197D-03-0.124D-03 0.641D-03 0.195D-02 0.119D-02
 Coeff-Com: -0.476D-02-0.317D-01-0.909D-01-0.293D-01 0.280D+00 0.874D+00
 Coeff:     -0.184D-05 0.159D-05 0.744D-05-0.478D-06 0.386D-05-0.313D-04
 Coeff:     -0.936D-04-0.197D-03-0.124D-03 0.641D-03 0.195D-02 0.119D-02
 Coeff:     -0.476D-02-0.317D-01-0.909D-01-0.293D-01 0.280D+00 0.874D+00
 Gap=     0.076 Goal=   None    Shift=    0.000
 Gap=     0.143 Goal=   None    Shift=    0.000
 RMSDP=2.44D-07 MaxDP=1.82D-05 DE=-2.87D-10 OVMax= 7.85D-06

 Cycle  19  Pass 1  IDiag  1:
 RMSU=  1.12D-07    CP:  1.03D+00 -1.20D-03  3.03D-01 -4.17D-03  6.00D-01
                    CP:  7.66D-01  9.63D-01  7.43D-01  1.03D+00  1.18D+00
                    CP:  1.37D+00  1.03D+00  8.32D-01  8.91D-01  1.06D+00
                    CP:  9.37D-01  1.14D+00  9.18D-01
 E= -805.974398647023     Delta-E=       -0.000000000097 Rises=F Damp=F
 DIIS: error= 2.33D-07 at cycle  19 NSaved=  19.
 NSaved=19 IEnMin=19 EnMin= -805.974398647023     IErMin=19 ErrMin= 2.33D-07
 ErrMax= 2.33D-07  0.00D+00 EMaxC= 1.00D-01 BMatC= 3.16D-11 BMatP= 1.15D-10
 IDIUse=1 WtCom= 1.00D+00 WtEn= 0.00D+00
 Coeff-Com: -0.152D-06-0.308D-06 0.204D-05-0.929D-07 0.222D-05-0.608D-05
 Coeff-Com:  0.909D-05-0.767D-04-0.523D-03-0.452D-03 0.594D-03 0.461D-02
 Coeff-Com:  0.809D-02 0.402D-02-0.318D-01-0.171D+00-0.108D+00 0.407D+00
 Coeff-Com:  0.887D+00
 Coeff:     -0.152D-06-0.308D-06 0.204D-05-0.929D-07 0.222D-05-0.608D-05
 Coeff:      0.909D-05-0.767D-04-0.523D-03-0.452D-03 0.594D-03 0.461D-02
 Coeff:      0.809D-02 0.402D-02-0.318D-01-0.171D+00-0.108D+00 0.407D+00
 Coeff:      0.887D+00
 Gap=     0.076 Goal=   None    Shift=    0.000
 Gap=     0.143 Goal=   None    Shift=    0.000
 RMSDP=1.27D-07 MaxDP=9.99D-06 DE=-9.71D-11 OVMax= 5.77D-06

 Cycle  20  Pass 1  IDiag  1:
 RMSU=  4.65D-08    CP:  1.03D+00 -1.20D-03  3.03D-01 -4.17D-03  6.00D-01
                    CP:  7.66D-01  9.63D-01  7.43D-01  1.03D+00  1.18D+00
                    CP:  1.37D+00  1.03D+00  8.33D-01  8.91D-01  1.05D+00
                    CP:  9.38D-01  1.26D+00  1.03D+00  1.08D+00
 E= -805.974398647070     Delta-E=       -0.000000000048 Rises=F Damp=F
 DIIS: error= 6.98D-08 at cycle  20 NSaved=  20.
 NSaved=20 IEnMin=20 EnMin= -805.974398647070     IErMin=20 ErrMin= 6.98D-08
 ErrMax= 6.98D-08  0.00D+00 EMaxC= 1.00D-01 BMatC= 1.16D-11 BMatP= 3.16D-11
 IDIUse=1 WtCom= 1.00D+00 WtEn= 0.00D+00
 Coeff-Com:  0.516D-06-0.437D-06-0.353D-07 0.528D-07 0.614D-06 0.403D-05
 Coeff-Com:  0.251D-04 0.433D-05-0.243D-03-0.402D-03-0.172D-03 0.230D-02
 Coeff-Com:  0.539D-02 0.108D-01 0.451D-02-0.918D-01-0.137D+00 0.292D-01
 Coeff-Com:  0.546D+00 0.631D+00
 Coeff:      0.516D-06-0.437D-06-0.353D-07 0.528D-07 0.614D-06 0.403D-05
 Coeff:      0.251D-04 0.433D-05-0.243D-03-0.402D-03-0.172D-03 0.230D-02
 Coeff:      0.539D-02 0.108D-01 0.451D-02-0.918D-01-0.137D+00 0.292D-01
 Coeff:      0.546D+00 0.631D+00
 Gap=     0.076 Goal=   None    Shift=    0.000
 Gap=     0.143 Goal=   None    Shift=    0.000
 RMSDP=6.86D-08 MaxDP=5.42D-06 DE=-4.77D-11 OVMax= 2.06D-06

 Cycle  21  Pass 1  IDiag  1:
 Restarting incremental Fock formation.
 E= -805.974398647072     Delta-E=       -0.000000000002 Rises=F Damp=F
 DIIS: error= 3.23D-08 at cycle  21 NSaved=  20.
 NSaved=20 IEnMin=20 EnMin= -805.974398647072     IErMin=20 ErrMin= 3.23D-08
 ErrMax= 3.23D-08  0.00D+00 EMaxC= 1.00D-01 BMatC= 1.99D-12 BMatP= 1.16D-11
 IDIUse=1 WtCom= 1.00D+00 WtEn= 0.00D+00
 Coeff-Com:  0.363D-06-0.288D-06-0.398D-06-0.949D-07 0.368D-05 0.130D-04
 Coeff-Com:  0.157D-04-0.419D-04-0.122D-03-0.207D-03 0.425D-03 0.115D-02
 Coeff-Com:  0.495D-02 0.832D-02-0.129D-01-0.484D-01-0.667D-01 0.933D-01
 Coeff-Com:  0.303D+00 0.718D+00
 Coeff:      0.363D-06-0.288D-06-0.398D-06-0.949D-07 0.368D-05 0.130D-04
 Coeff:      0.157D-04-0.419D-04-0.122D-03-0.207D-03 0.425D-03 0.115D-02
 Coeff:      0.495D-02 0.832D-02-0.129D-01-0.484D-01-0.667D-01 0.933D-01
 Coeff:      0.303D+00 0.718D+00
 Gap=     0.076 Goal=   None    Shift=    0.000
 Gap=     0.143 Goal=   None    Shift=    0.000
 RMSDP=2.65D-08 MaxDP=3.44D-06 DE=-1.82D-12 OVMax= 8.67D-07

 Cycle  22  Pass 1  IDiag  1:
 RMSU=  2.41D-08    CP:  1.00D+00
 E= -805.974398647072     Delta-E=       -0.000000000000 Rises=F Damp=F
 DIIS: error= 1.34D-08 at cycle  22 NSaved=  20.
 NSaved=20 IEnMin=20 EnMin= -805.974398647072     IErMin=20 ErrMin= 1.34D-08
 ErrMax= 1.34D-08  0.00D+00 EMaxC= 1.00D-01 BMatC= 6.01D-13 BMatP= 1.99D-12
 IDIUse=1 WtCom= 1.00D+00 WtEn= 0.00D+00
 Coeff-Com:  0.115D-06-0.144D-06-0.110D-06 0.159D-05 0.308D-05 0.101D-04
 Coeff-Com:  0.326D-04 0.226D-04-0.952D-04-0.280D-03-0.621D-03 0.454D-03
 Coeff-Com:  0.382D-02 0.134D-01 0.236D-02-0.449D-01-0.654D-01 0.194D-01
 Coeff-Com:  0.422D+00 0.650D+00
 Coeff:      0.115D-06-0.144D-06-0.110D-06 0.159D-05 0.308D-05 0.101D-04
 Coeff:      0.326D-04 0.226D-04-0.952D-04-0.280D-03-0.621D-03 0.454D-03
 Coeff:      0.382D-02 0.134D-01 0.236D-02-0.449D-01-0.654D-01 0.194D-01
 Coeff:      0.422D+00 0.650D+00
 Gap=     0.076 Goal=   None    Shift=    0.000
 Gap=     0.143 Goal=   None    Shift=    0.000
 RMSDP=1.34D-08 MaxDP=1.90D-06 DE=-2.27D-13 OVMax= 4.19D-07

 Cycle  23  Pass 1  IDiag  1:
 RMSU=  1.25D-08    CP:  1.00D+00  1.09D+00
 E= -805.974398647047     Delta-E=        0.000000000026 Rises=F Damp=F
 DIIS: error= 8.25D-09 at cycle  23 NSaved=  20.
 NSaved=20 IEnMin=19 EnMin= -805.974398647072     IErMin=20 ErrMin= 8.25D-09
 ErrMax= 8.25D-09  0.00D+00 EMaxC= 1.00D-01 BMatC= 9.82D-14 BMatP= 6.01D-13
 IDIUse=1 WtCom= 1.00D+00 WtEn= 0.00D+00
 Coeff-Com: -0.168D-06-0.231D-06-0.205D-08-0.663D-06 0.331D-05 0.214D-04
 Coeff-Com:  0.250D-04-0.195D-04-0.173D-03-0.324D-03-0.357D-03 0.631D-03
 Coeff-Com:  0.719D-02 0.693D-02-0.907D-02-0.388D-01-0.502D-01 0.620D-01
 Coeff-Com:  0.279D+00 0.744D+00
 Coeff:     -0.168D-06-0.231D-06-0.205D-08-0.663D-06 0.331D-05 0.214D-04
 Coeff:      0.250D-04-0.195D-04-0.173D-03-0.324D-03-0.357D-03 0.631D-03
 Coeff:      0.719D-02 0.693D-02-0.907D-02-0.388D-01-0.502D-01 0.620D-01
 Coeff:      0.279D+00 0.744D+00
 Gap=     0.076 Goal=   None    Shift=    0.000
 Gap=     0.143 Goal=   None    Shift=    0.000
 RMSDP=5.97D-09 MaxDP=8.05D-07 DE= 2.57D-11 OVMax= 1.66D-07

 SCF Done:  E(UB3LYP) =  -805.974398647     A.U. after   23 cycles
            NFock= 23  Conv=0.60D-08     -V/T= 2.0042
 <Sx>= 0.0000 <Sy>= 0.0000 <Sz>= 0.5000 <S**2>= 0.7603 S= 0.5051
 <L.S>=  0.00000000000    
 KE= 8.026134687163D+02 PE=-4.369740109148D+03 EE= 1.524886238726D+03
 Annihilation of the first spin contaminant:
 S**2 before annihilation     0.7603,   after     0.7500
 Leave Link  502 at Mon Jan  8 01:28:58 2024, MaxMem=  4026531840 cpu:            3841.6 elap:             482.7
 (Enter /sysapps/ubuntu-applications/gaussian/Gaussian/AVX2/g16/l601.exe)
 Copying SCF densities to generalized density rwf, IOpCl= 1 IROHF=0.

 **********************************************************************

            Population analysis using the SCF density.

 **********************************************************************

 Alpha  occ. eigenvalues --  -19.02125 -18.93921 -18.93821 -10.09676 -10.09161
 Alpha  occ. eigenvalues --  -10.09085 -10.08670 -10.08614 -10.08522 -10.07513
 Alpha  occ. eigenvalues --  -10.06089 -10.05333 -10.05234 -10.04613 -10.04536
 Alpha  occ. eigenvalues --  -10.04456 -10.04381 -10.04049  -0.93292  -0.86400
 Alpha  occ. eigenvalues --   -0.85916  -0.73254  -0.73081  -0.68368  -0.64786
 Alpha  occ. eigenvalues --   -0.62460  -0.61559  -0.60564  -0.56299  -0.53123
 Alpha  occ. eigenvalues --   -0.49238  -0.47893  -0.43284  -0.42954  -0.42188
 Alpha  occ. eigenvalues --   -0.39154  -0.37956  -0.36100  -0.35596  -0.33876
 Alpha  occ. eigenvalues --   -0.33661  -0.31062  -0.30998  -0.30209  -0.29902
 Alpha  occ. eigenvalues --   -0.29611  -0.29184  -0.28749  -0.27468  -0.27416
 Alpha  occ. eigenvalues --   -0.25904  -0.25692  -0.24805  -0.23923  -0.22982
 Alpha  occ. eigenvalues --   -0.22617  -0.21335  -0.20897  -0.15384  -0.13558
 Alpha  occ. eigenvalues --   -0.13014  -0.10954  -0.10653  -0.10033  -0.01591
 Alpha virt. eigenvalues --    0.06029   0.08124   0.08490   0.08565   0.09402
 Alpha virt. eigenvalues --    0.10073   0.10491   0.11094   0.11426   0.11556
 Alpha virt. eigenvalues --    0.11675   0.12375   0.12521   0.13003   0.14210
 Alpha virt. eigenvalues --    0.14422   0.15328   0.16080   0.16385   0.16945
 Alpha virt. eigenvalues --    0.17385   0.17841   0.18350   0.18375   0.18578
 Alpha virt. eigenvalues --    0.18708   0.19276   0.19668   0.19871   0.20072
 Alpha virt. eigenvalues --    0.20516   0.20637   0.21181   0.21308   0.21412
 Alpha virt. eigenvalues --    0.21915   0.22009   0.22314   0.22674   0.23182
 Alpha virt. eigenvalues --    0.23797   0.24171   0.24459   0.24757   0.24860
 Alpha virt. eigenvalues --    0.25340   0.25366   0.25747   0.25825   0.26118
 Alpha virt. eigenvalues --    0.26669   0.27359   0.27476   0.28066   0.28217
 Alpha virt. eigenvalues --    0.28757   0.29240   0.29716   0.30418   0.30762
 Alpha virt. eigenvalues --    0.30975   0.31496   0.31774   0.32434   0.32748
 Alpha virt. eigenvalues --    0.33107   0.33300   0.33853   0.34607   0.34980
 Alpha virt. eigenvalues --    0.35135   0.35323   0.35604   0.36070   0.36641
 Alpha virt. eigenvalues --    0.37218   0.37660   0.37916   0.38190   0.38850
 Alpha virt. eigenvalues --    0.39014   0.39542   0.39782   0.40067   0.40480
 Alpha virt. eigenvalues --    0.40876   0.41426   0.41908   0.42075   0.42601
 Alpha virt. eigenvalues --    0.43130   0.43720   0.44230   0.44314   0.45019
 Alpha virt. eigenvalues --    0.45434   0.46471   0.46708   0.46749   0.47114
 Alpha virt. eigenvalues --    0.47775   0.48154   0.48585   0.49219   0.49958
 Alpha virt. eigenvalues --    0.50875   0.51521   0.52102   0.52767   0.53320
 Alpha virt. eigenvalues --    0.54331   0.54800   0.55486   0.56048   0.56379
 Alpha virt. eigenvalues --    0.57788   0.59084   0.60768   0.62197   0.62473
 Alpha virt. eigenvalues --    0.63275   0.63528   0.64898   0.65332   0.65983
 Alpha virt. eigenvalues --    0.66695   0.67113   0.67850   0.68684   0.69592
 Alpha virt. eigenvalues --    0.70128   0.70753   0.71360   0.71957   0.72274
 Alpha virt. eigenvalues --    0.72344   0.73807   0.74050   0.74684   0.74968
 Alpha virt. eigenvalues --    0.75800   0.76146   0.77301   0.77499   0.77947
 Alpha virt. eigenvalues --    0.78808   0.79682   0.79870   0.80320   0.80999
 Alpha virt. eigenvalues --    0.81439   0.82262   0.83521   0.83783   0.84490
 Alpha virt. eigenvalues --    0.85227   0.85695   0.86603   0.87600   0.88490
 Alpha virt. eigenvalues --    0.89248   0.89742   0.90100   0.90395   0.92915
 Alpha virt. eigenvalues --    0.93871   0.95087   0.95685   0.96798   0.97872
 Alpha virt. eigenvalues --    0.98675   0.99739   1.01438   1.02041   1.03872
 Alpha virt. eigenvalues --    1.04027   1.04986   1.05728   1.06254   1.07288
 Alpha virt. eigenvalues --    1.07938   1.08250   1.08952   1.11138   1.11527
 Alpha virt. eigenvalues --    1.12402   1.13340   1.14213   1.15227   1.16370
 Alpha virt. eigenvalues --    1.17919   1.18566   1.21360   1.21662   1.22173
 Alpha virt. eigenvalues --    1.22895   1.23795   1.24376   1.25224   1.25413
 Alpha virt. eigenvalues --    1.27465   1.30171   1.30469   1.34216   1.35757
 Alpha virt. eigenvalues --    1.37330   1.37736   1.38460   1.38876   1.40306
 Alpha virt. eigenvalues --    1.41632   1.42412   1.43407   1.45947   1.46286
 Alpha virt. eigenvalues --    1.47447   1.48458   1.50886   1.52337   1.52625
 Alpha virt. eigenvalues --    1.53849   1.54448   1.55324   1.56888   1.57673
 Alpha virt. eigenvalues --    1.60675   1.61532   1.62574   1.63572   1.64443
 Alpha virt. eigenvalues --    1.64705   1.65852   1.66971   1.67359   1.68238
 Alpha virt. eigenvalues --    1.68853   1.69639   1.71046   1.72420   1.73298
 Alpha virt. eigenvalues --    1.74859   1.75585   1.76648   1.77797   1.79330
 Alpha virt. eigenvalues --    1.80042   1.80582   1.82244   1.83658   1.84489
 Alpha virt. eigenvalues --    1.85361   1.86793   1.86967   1.88567   1.88998
 Alpha virt. eigenvalues --    1.89097   1.91250   1.92134   1.93476   1.94395
 Alpha virt. eigenvalues --    1.95375   1.97335   1.97914   1.99017   2.00606
 Alpha virt. eigenvalues --    2.02245   2.03089   2.04335   2.04541   2.06233
 Alpha virt. eigenvalues --    2.06726   2.07622   2.08568   2.09663   2.10643
 Alpha virt. eigenvalues --    2.11230   2.11677   2.12084   2.15718   2.16551
 Alpha virt. eigenvalues --    2.18749   2.20214   2.21388   2.21842   2.23668
 Alpha virt. eigenvalues --    2.25791   2.27679   2.29448   2.30364   2.31949
 Alpha virt. eigenvalues --    2.35698   2.37080   2.37829   2.39998   2.40939
 Alpha virt. eigenvalues --    2.43119   2.46248   2.48642   2.50317   2.51782
 Alpha virt. eigenvalues --    2.52837   2.53770   2.55063   2.55931   2.58333
 Alpha virt. eigenvalues --    2.59076   2.59779   2.60380   2.60593   2.62300
 Alpha virt. eigenvalues --    2.62742   2.63957   2.68187   2.68956   2.71893
 Alpha virt. eigenvalues --    2.72199   2.76458   2.76628   2.77246   2.77788
 Alpha virt. eigenvalues --    2.80474   2.81930   2.82735   2.83106   2.85010
 Alpha virt. eigenvalues --    2.86212   2.86769   2.89142   2.89434   2.90963
 Alpha virt. eigenvalues --    2.91457   2.92050   2.94526   2.95835   2.97539
 Alpha virt. eigenvalues --    2.98168   2.98754   3.00361   3.01221   3.02432
 Alpha virt. eigenvalues --    3.02845   3.03775   3.06258   3.07541   3.08525
 Alpha virt. eigenvalues --    3.08883   3.11689   3.13693   3.15825   3.16994
 Alpha virt. eigenvalues --    3.20168   3.21317   3.24214   3.24905   3.25858
 Alpha virt. eigenvalues --    3.27049   3.27809   3.32193   3.34192   3.35567
 Alpha virt. eigenvalues --    3.39146   3.40576   3.42250   3.47189   3.47278
 Alpha virt. eigenvalues --    3.49516   3.52731   3.55031   3.57969   3.61105
 Alpha virt. eigenvalues --    3.65346   3.66283   3.68487   3.70924   3.72605
 Alpha virt. eigenvalues --    3.78199   3.78562   3.83577   3.90173   3.90954
 Alpha virt. eigenvalues --    3.92612   3.92801   3.96865   3.99848   4.03841
 Alpha virt. eigenvalues --    4.05671   4.16265   4.17592   4.20209   4.32428
 Alpha virt. eigenvalues --    4.34782   4.35127   4.40674   4.43592   4.51709
 Alpha virt. eigenvalues --    4.57695   4.95199   4.97476   5.16493   5.22886
 Alpha virt. eigenvalues --    5.25074   5.39874   5.45443   5.62238   5.84585
 Alpha virt. eigenvalues --    5.94760   5.98116  23.68075  23.79730  23.89492
 Alpha virt. eigenvalues --   24.01427  24.03353  24.06397  24.07120  24.08217
 Alpha virt. eigenvalues --   24.08550  24.09962  24.16526  24.22336  24.23867
 Alpha virt. eigenvalues --   24.31400  24.34108  50.07360  50.19682  50.24656
  Beta  occ. eigenvalues --  -19.02057 -18.93360 -18.93077 -10.09482 -10.09161
  Beta  occ. eigenvalues --  -10.08955 -10.08669 -10.08614 -10.08377 -10.07508
  Beta  occ. eigenvalues --  -10.06095 -10.05304 -10.05175 -10.04633 -10.04527
  Beta  occ. eigenvalues --  -10.04395 -10.04293 -10.04000  -0.93096  -0.85433
  Beta  occ. eigenvalues --   -0.84644  -0.73183  -0.72937  -0.68069  -0.64549
  Beta  occ. eigenvalues --   -0.62289  -0.61558  -0.60399  -0.55873  -0.52613
  Beta  occ. eigenvalues --   -0.49025  -0.47754  -0.43172  -0.42794  -0.41987
  Beta  occ. eigenvalues --   -0.38978  -0.37908  -0.36013  -0.35589  -0.33699
  Beta  occ. eigenvalues --   -0.33484  -0.31059  -0.30758  -0.29859  -0.29798
  Beta  occ. eigenvalues --   -0.29417  -0.29095  -0.28325  -0.27042  -0.26919
  Beta  occ. eigenvalues --   -0.25508  -0.25129  -0.24600  -0.23436  -0.22492
  Beta  occ. eigenvalues --   -0.21342  -0.20898  -0.19485  -0.15332  -0.12372
  Beta  occ. eigenvalues --   -0.11486  -0.10383  -0.09560  -0.09296
  Beta virt. eigenvalues --    0.05036   0.06035   0.08122   0.08518   0.08601
  Beta virt. eigenvalues --    0.09914   0.10122   0.10485   0.11325   0.11435
  Beta virt. eigenvalues --    0.11684   0.12353   0.12442   0.12586   0.13013
  Beta virt. eigenvalues --    0.14214   0.14417   0.15359   0.16101   0.16402
  Beta virt. eigenvalues --    0.16955   0.17420   0.17870   0.18372   0.18522
  Beta virt. eigenvalues --    0.18770   0.19238   0.19678   0.19875   0.20082
  Beta virt. eigenvalues --    0.20122   0.20597   0.21139   0.21263   0.21361
  Beta virt. eigenvalues --    0.21441   0.21967   0.22081   0.22339   0.22709
  Beta virt. eigenvalues --    0.23221   0.23923   0.24249   0.24565   0.24780
  Beta virt. eigenvalues --    0.25002   0.25383   0.25399   0.25765   0.25886
  Beta virt. eigenvalues --    0.26153   0.26844   0.27404   0.27500   0.28094
  Beta virt. eigenvalues --    0.28252   0.28782   0.29261   0.29736   0.30451
  Beta virt. eigenvalues --    0.30826   0.31023   0.31568   0.31910   0.32477
  Beta virt. eigenvalues --    0.32770   0.33127   0.33340   0.33889   0.34864
  Beta virt. eigenvalues --    0.35019   0.35382   0.35540   0.35634   0.36239
  Beta virt. eigenvalues --    0.36763   0.37260   0.37744   0.37985   0.38214
  Beta virt. eigenvalues --    0.39035   0.39106   0.39659   0.39842   0.40151
  Beta virt. eigenvalues --    0.40564   0.40910   0.41495   0.41979   0.42181
  Beta virt. eigenvalues --    0.42701   0.43310   0.43886   0.44278   0.44486
  Beta virt. eigenvalues --    0.45183   0.45522   0.46560   0.46805   0.47049
  Beta virt. eigenvalues --    0.47268   0.47867   0.48424   0.48644   0.49288
  Beta virt. eigenvalues --    0.50022   0.50987   0.51652   0.52231   0.52834
  Beta virt. eigenvalues --    0.53378   0.54393   0.54894   0.55640   0.56147
  Beta virt. eigenvalues --    0.56532   0.57868   0.59248   0.60794   0.62298
  Beta virt. eigenvalues --    0.62500   0.63342   0.63627   0.65005   0.65436
  Beta virt. eigenvalues --    0.66086   0.66845   0.67239   0.67924   0.68784
  Beta virt. eigenvalues --    0.69676   0.70200   0.70797   0.71616   0.72119
  Beta virt. eigenvalues --    0.72349   0.72452   0.73844   0.74177   0.74736
  Beta virt. eigenvalues --    0.75004   0.75857   0.76241   0.77442   0.77761
  Beta virt. eigenvalues --    0.78067   0.79118   0.79771   0.80064   0.80526
  Beta virt. eigenvalues --    0.81168   0.81494   0.82447   0.83594   0.83943
  Beta virt. eigenvalues --    0.84594   0.85434   0.85845   0.86692   0.87681
  Beta virt. eigenvalues --    0.88516   0.89289   0.89775   0.90190   0.90445
  Beta virt. eigenvalues --    0.93081   0.93915   0.95245   0.95722   0.96867
  Beta virt. eigenvalues --    0.97946   0.98746   0.99821   1.01529   1.02081
  Beta virt. eigenvalues --    1.03975   1.04246   1.05035   1.06035   1.06386
  Beta virt. eigenvalues --    1.07350   1.08038   1.08316   1.09199   1.11309
  Beta virt. eigenvalues --    1.11709   1.12568   1.13460   1.14439   1.15366
  Beta virt. eigenvalues --    1.16498   1.18190   1.18809   1.21445   1.21962
  Beta virt. eigenvalues --    1.22379   1.23075   1.24114   1.24821   1.25427
  Beta virt. eigenvalues --    1.25642   1.27920   1.30359   1.31499   1.34355
  Beta virt. eigenvalues --    1.36083   1.37366   1.38433   1.38895   1.39778
  Beta virt. eigenvalues --    1.40559   1.41885   1.42856   1.43573   1.46150
  Beta virt. eigenvalues --    1.46571   1.47507   1.48521   1.50973   1.52518
  Beta virt. eigenvalues --    1.52855   1.53887   1.54556   1.55420   1.56931
  Beta virt. eigenvalues --    1.57761   1.60725   1.61645   1.62623   1.63954
  Beta virt. eigenvalues --    1.64533   1.64803   1.65963   1.66992   1.67559
  Beta virt. eigenvalues --    1.68338   1.68932   1.69690   1.71090   1.72514
  Beta virt. eigenvalues --    1.73368   1.75036   1.75705   1.76737   1.77826
  Beta virt. eigenvalues --    1.79388   1.80107   1.80696   1.82429   1.83833
  Beta virt. eigenvalues --    1.84692   1.85582   1.86897   1.87178   1.88715
  Beta virt. eigenvalues --    1.89119   1.89248   1.91415   1.92266   1.93624
  Beta virt. eigenvalues --    1.94708   1.95556   1.97533   1.98151   1.99185
  Beta virt. eigenvalues --    2.00829   2.02405   2.03168   2.04559   2.04727
  Beta virt. eigenvalues --    2.06429   2.07030   2.07828   2.08637   2.09802
  Beta virt. eigenvalues --    2.10727   2.11438   2.11944   2.12227   2.15831
  Beta virt. eigenvalues --    2.16693   2.19024   2.20320   2.21484   2.21888
  Beta virt. eigenvalues --    2.23755   2.25862   2.27828   2.29545   2.30526
  Beta virt. eigenvalues --    2.32050   2.35805   2.37196   2.38044   2.40032
  Beta virt. eigenvalues --    2.41299   2.43425   2.46483   2.48777   2.50467
  Beta virt. eigenvalues --    2.51983   2.52914   2.53785   2.55453   2.55955
  Beta virt. eigenvalues --    2.58380   2.59111   2.59794   2.60392   2.60612
  Beta virt. eigenvalues --    2.62303   2.62748   2.64005   2.68221   2.68971
  Beta virt. eigenvalues --    2.71912   2.72220   2.76663   2.76811   2.77366
  Beta virt. eigenvalues --    2.78101   2.80920   2.82010   2.82789   2.83134
  Beta virt. eigenvalues --    2.85119   2.86239   2.87403   2.89173   2.89491
  Beta virt. eigenvalues --    2.91002   2.91522   2.92460   2.94712   2.96079
  Beta virt. eigenvalues --    2.97626   2.98398   2.99037   3.00559   3.01470
  Beta virt. eigenvalues --    3.03028   3.03190   3.04583   3.07267   3.08226
  Beta virt. eigenvalues --    3.09259   3.10379   3.12580   3.14063   3.15900
  Beta virt. eigenvalues --    3.17212   3.20577   3.21713   3.24639   3.25005
  Beta virt. eigenvalues --    3.26086   3.27264   3.28012   3.32608   3.34740
  Beta virt. eigenvalues --    3.35680   3.39314   3.40688   3.42384   3.47340
  Beta virt. eigenvalues --    3.48737   3.51143   3.52941   3.55111   3.58103
  Beta virt. eigenvalues --    3.61284   3.65499   3.66571   3.68653   3.71136
  Beta virt. eigenvalues --    3.72742   3.78216   3.78771   3.83577   3.90177
  Beta virt. eigenvalues --    3.90969   3.92634   3.92914   3.97413   4.00017
  Beta virt. eigenvalues --    4.03982   4.05786   4.16335   4.17626   4.20322
  Beta virt. eigenvalues --    4.32558   4.34978   4.35143   4.40902   4.43916
  Beta virt. eigenvalues --    4.51880   4.57803   4.95654   4.97605   5.17179
  Beta virt. eigenvalues --    5.25499   5.27456   5.40442   5.45912   5.62372
  Beta virt. eigenvalues --    5.84906   5.95121   5.98609  23.68158  23.79734
  Beta virt. eigenvalues --   23.89616  24.01432  24.03386  24.06476  24.07172
  Beta virt. eigenvalues --   24.08268  24.08648  24.10101  24.16602  24.22447
  Beta virt. eigenvalues --   24.23884  24.31426  24.34112  50.07473  50.20302
  Beta virt. eigenvalues --   50.25297
          Condensed to atoms (all electrons):
               1          2          3          4          5          6
     1  O    8.278773   0.941958  -0.246916   0.002877  -0.000782   0.022520
     2  C    0.941958  14.780540  -6.087891  -2.152014  -0.004161   1.143727
     3  C   -0.246916  -6.087891  32.019155   2.229490   0.214671  -8.859704
     4  C    0.002877  -2.152014   2.229490  18.326927   0.279381  -2.155317
     5  O   -0.000782  -0.004161   0.214671   0.279381   7.928816  -0.589164
     6  C    0.022520   1.143727  -8.859704  -2.155317  -0.589164  17.984032
     7  O   -0.000087  -0.022470   0.082095  -0.098593   0.039969   0.653114
     8  C   -0.366957  -1.841474   1.356030  -4.235551   0.039338  -4.028451
     9  C   -0.005466  -0.312088  -0.878099   1.251203   0.002728  -1.046820
    10  C   -0.018477  -0.429353   0.363274   0.412583  -0.001404   0.065438
    11  C    0.073329   0.037406  -1.236917  -0.120802   0.002181   0.314218
    12  C    0.146853  -0.404350  -1.542048   0.578737  -0.008823   0.392862
    13  C   -0.473219   1.209635 -12.761075  -4.759560  -0.027166   4.240821
    14  C    0.103468  -0.019321   0.360731  -3.240736   0.176587  -2.213255
    15  H    0.000544   0.022825  -0.007926   0.010706  -0.001314   0.073215
    16  H   -0.000401  -0.029392   0.005864   0.016615  -0.000091   0.023496
    17  H    0.003271   0.019152   0.001219  -0.004644   0.000047  -0.011278
    18  H   -0.006181   0.083601   0.063560  -0.011335  -0.000089  -0.023891
    19  C   -0.069785   0.478835  -0.164850   0.006144  -0.094912   0.119435
    20  C   -0.016707  -0.493981   0.454065   0.195048   0.114928   0.019587
    21  C   -0.000363  -0.095996   0.148287   0.070137   0.000914  -0.003103
    22  C   -0.001696   0.073059  -0.002364  -0.153093   0.009015   0.000732
    23  H    0.000410   0.113314  -0.718349   0.072441   0.171266   0.591771
    24  H   -0.001865   0.252393  -0.445193  -0.014374   0.002878   0.035536
[...]
 0001628,-0.00001237,-0.00001037,0.00001181,0.00003103,0.00000786,0.000
 00468,-0.00002858,-0.00001540,0.00001821,0.00002059,0.00001944,-0.0000
 1874,-0.00008968,0.00000487,-0.00167997,0.00019266,0.00160602,-0.00000
 070,0.00000567,-0.00000013,0.00001007,0.00000337,-0.00000014,0.0000105
 8,-0.00000502,-0.00000213,-0.00000578,-0.00000384,-0.00000133,-0.00002
 866,0.00030090,-0.00090350,0.01239982,-0.00573839,0.01098169,-0.141392
 20,0.04479062,-0.12087164,-0.00126877,0.00009582,0.00247187,-0.0000631
 8,-0.00019964,0.00017119,0.00015330,0.00005977,-0.00031873,-0.00243341
 ,0.00108786,0.00032509,0.00018095,-0.00017896,-0.00018218,0.15489621,-
 0.00001918,-0.00009179,0.00000208,-0.00006875,0.00003020,0.00001405,0.
 00007406,-0.00009269,-0.00005005,-0.00051443,0.00044056,0.00011669,0.0
 0050534,-0.00022140,-0.00039096,0.00007315,-0.00001652,0.00001109,0.00
 001084,-0.00004599,-0.00003346,0.00000140,0.00003031,0.00000506,0.0000
 1385,-0.00000911,0.00000280,-0.00000499,0.00000393,-0.00000028,0.00001
 271,-0.00000660,-0.00000791,-0.00001771,-0.00000006,0.00001367,0.00000
 847,-0.00000497,-0.00001037,0.00049319,-0.00033447,-0.00061422,-0.0000
 0304,-0.00000032,0.00000115,0.00000231,0.00000002,0.00000015,0.0000008
 3,-0.00000092,0.00000043,0.00000126,-0.00000162,-0.00000044,0.00026125
 ,-0.00028786,0.00010298,-0.00222770,-0.00112509,-0.00059572,0.04450972
 ,-0.06783590,0.05628434,-0.00002183,0.00083449,0.00004272,-0.00022518,
 -0.00005361,0.00058247,0.00007997,-0.00004180,-0.00000505,0.00089127,0
 .00029893,-0.00014140,-0.00005144,0.00000205,0.00005854,-0.05027862,0.
 06886775,-0.00003605,0.00006488,0.00005588,-0.00011269,-0.00018907,0.0
 0000069,-0.00003178,0.00006478,0.00057556,-0.00002028,0.00011339,-0.00
 001088,0.00000496,-0.00006979,0.00030826,0.00000395,0.00010538,-0.0000
 1163,-0.00004396,-0.00011599,-0.00000055,0.00000669,-0.00007567,-0.000
 01899,-0.00000031,0.00001117,0.00001157,-0.00002010,-0.00002323,-0.000
 00199,-0.00000968,0.00002455,0.00001451,-0.00001659,-0.00002641,0.0000
 0516,0.00000582,0.00011033,-0.00003740,-0.00007319,-0.00042343,-0.0004
 6925,0.00000026,-0.00000562,-0.00000387,-0.00001089,-0.00000311,-0.000
 00129,-0.00001133,0.00000548,0.00000039,0.00000480,0.00000565,-0.00000
 534,-0.00140944,0.00088159,0.00050733,-0.01900923,0.00832946,-0.019875
 87,-0.11811653,0.05557056,-0.19908519,0.00436766,-0.00097902,-0.004142
 25,0.00010857,0.00014542,-0.00057870,0.00005988,0.00003569,0.00036925,
 0.00050108,-0.00015416,0.00161835,-0.00010183,0.00007419,0.00014351,0.
 13026155,-0.06219322,0.21624383,-0.00010310,0.00001325,0.00000102,-0.0
 0009690,-0.00006608,0.00002605,0.00006476,-0.00022803,-0.00020880,-0.0
 0059167,0.00072257,0.00013463,0.00064817,-0.00054604,-0.00035201,0.000
 10480,0.00004677,0.00004656,-0.00001118,-0.00015164,-0.00003921,0.0000
 0569,-0.00002582,-0.00000742,0.00001538,-0.00000110,-0.00000260,-0.000
 02184,-0.00001621,-0.00000312,0.00001175,0.00001216,0.00000296,-0.0000
 3256,-0.00001031,-0.00000407,0.00005296,0.00004402,0.00000769,0.000125
 58,0.00070635,-0.00013605,-0.00000326,-0.00000421,0.00000049,-0.000005
 50,-0.00000287,0.00000057,-0.00000655,0.00000275,0.00000198,0.00000634
 ,0.00000020,-0.00000004,0.00114266,-0.00026341,0.00239535,-0.00965073,
 0.01577573,0.00543023,-0.07066939,0.07787156,0.01173247,0.00013064,-0.
 00020616,-0.00105203,-0.00042050,0.00043953,0.00046891,-0.00014371,-0.
 00004853,0.00012331,-0.00004436,-0.00005510,0.00041284,-0.00090833,-0.
 00085526,0.00007815,-0.00624996,0.01791231,0.00449828,0.07740610,0.000
 10303,-0.00008682,-0.00002415,0.00005116,0.00013460,0.00002626,0.00003
 448,0.00007614,0.00019472,0.00017574,-0.00024281,-0.00005893,-0.000060
 79,0.00017419,0.00022108,-0.00000792,-0.00015860,-0.00008742,0.0000404
 3,0.00018844,0.00004934,-0.00002947,0.00010777,0.00001700,0.00001613,-
 0.00001965,0.00000874,0.00001976,0.00004291,0.00000342,0.00000073,-0.0
 0003738,-0.00000194,0.00002497,0.00002304,0.00000078,-0.00005781,-0.00
 008851,-0.00003154,-0.00000601,-0.00016311,0.00019502,0.00000059,0.000
 00859,-0.00000007,0.00001469,0.00000536,-0.00000245,0.00001301,-0.0000
 0740,-0.00000348,-0.00001027,-0.00000425,0.00000027,-0.00177163,0.0003
 7781,-0.00044955,0.00283793,0.00172605,-0.00116411,0.07706166,-0.25917
 997,-0.03956891,-0.00011433,0.00059900,0.00047770,-0.00005681,-0.00022
 480,-0.00026025,-0.00004778,0.00007244,-0.00003451,0.00009227,0.000045
 34,-0.00025235,-0.00001159,-0.00012012,-0.00009118,0.00176479,-0.00738
 411,-0.00103095,-0.08565249,0.28381552,0.00006492,-0.00006290,-0.00000
 856,-0.00001716,0.00007218,0.00006187,-0.00012718,-0.00003552,0.000343
 05,0.00000408,-0.00009267,-0.00006222,0.00008526,0.00015299,0.00015233
 ,-0.00003115,-0.00004955,-0.00004070,0.00003184,0.00008602,0.00000903,
 -0.00001298,0.00004298,0.00000757,0.00000608,-0.00000836,0.00000525,0.
 00000780,0.00001486,-0.00000137,0.00000930,-0.00001652,0.00000498,0.00
 000086,0.00002020,-0.00000593,-0.00000312,-0.00004772,-0.00004253,-0.0
 0019417,-0.00073861,-0.00077114,-0.00000058,0.00000405,0.00000081,0.00
 000777,0.00000259,-0.00000092,0.00000791,-0.00000384,-0.00000140,-0.00
 000566,-0.00000283,-0.00000175,-0.00049770,0.00089243,-0.00412466,0.01
 161798,-0.02789982,-0.00598008,0.01296101,-0.04121212,-0.05494074,0.00
 040517,-0.00085759,0.00127235,0.00006335,-0.00028926,-0.00021403,0.000
 00204,0.00001506,0.00038630,-0.00008529,-0.00003507,0.00058658,0.00147
 921,0.00169009,0.00020687,-0.00616952,0.02291196,0.00527198,-0.0189943
 3,0.04545023,0.05865412,-0.00008120,0.00019596,0.00002989,-0.00006541,
 -0.00029900,-0.00003759,0.00009171,0.00022247,0.00004645,0.00021151,0.
 00001660,0.00000853,-0.00026181,-0.00006696,-0.00001219,-0.00000371,0.
 00011602,0.00002553,-0.00007591,-0.00014051,-0.00001842,0.00002805,-0.
 00011793,-0.00003455,-0.00001323,0.00002326,0.00000271,-0.00002163,-0.
 00004118,-0.00000107,-0.00001960,0.00004595,0.00000525,-0.00001719,-0.
 00004335,-0.00000953,0.00001483,0.00015594,0.00003079,-0.00051627,-0.0
 0031013,0.00019436,0.00000266,-0.00000911,-0.00000125,-0.00001805,-0.0
 0000578,0.00000104,-0.00001878,0.00000879,0.00000501,0.00000977,0.0000
 0780,0.00000210,0.00141093,-0.00140311,0.00210891,-0.01674099,-0.00672
 274,0.00341115,-0.20047580,-0.12120509,-0.00694460,0.00029174,0.000510
 52,-0.00082028,0.00020780,0.00035247,0.00005362,0.00004335,-0.00008684
 ,-0.00020301,0.00024704,-0.00018331,0.00000823,-0.00006875,0.00120817,
 0.00038920,-0.01508260,-0.01179218,-0.00006087,0.00880548,0.00592054,-
 0.00026076,0.22123703,-0.00007026,0.00005682,0.00001465,0.00002871,-0.
 00003203,-0.00001080,0.00006616,-0.00009123,-0.00014741,0.00012789,-0.
 00006477,-0.00002732,-0.00021128,0.00013966,0.00007527,-0.00001568,0.0
 0004125,0.00001938,-0.00004101,-0.00004508,-0.00000434,0.00001284,-0.0
 0005654,-0.00001870,-0.00001050,0.00001108,0.00000613,-0.00000867,-0.0
 0002012,-0.00000586,-0.00000755,0.00001943,0.00000662,-0.00000084,-0.0
 0001431,-0.00000220,0.00001480,0.00004316,0.00001860,-0.00005137,0.000
 41616,-0.00009101,0.00000223,-0.00000461,-0.00000121,-0.00000926,-0.00
 000305,0.00000079,-0.00000861,0.00000536,0.00000075,0.00000567,0.00000
 341,0.00000089,0.00115986,-0.00053479,-0.00002145,0.00228909,0.0030433
 8,0.00056145,-0.12035579,-0.13510027,-0.00201513,-0.00010953,0.0001036
 4,0.00001004,0.00017942,-0.00008785,-0.00007275,-0.00003480,-0.0001116
 8,-0.00007389,-0.00013772,0.00003689,-0.00002299,-0.00003109,-0.000307
 04,-0.00006746,0.00817619,0.00606077,-0.00076322,-0.02470876,-0.020035
 65,-0.00108906,0.13355267,0.14646368,0.00008799,-0.00002686,0.00001430
 ,0.00000222,0.00001083,0.00001265,-0.00003332,0.00008626,0.00041514,0.
 00020782,-0.00024498,-0.00007229,-0.00016614,0.00017009,0.00032890,-0.
 00004294,-0.00003955,-0.00004438,0.00001677,0.00008259,0.00002559,-0.0
 0000557,0.00002728,0.00000559,-0.00000104,-0.00000353,0.00000692,0.000
 01037,0.00001308,-0.00000118,-0.00000238,-0.00001153,0.00000526,0.0000
 1068,0.00000863,-0.00000110,-0.00002755,-0.00001980,-0.00003786,0.0001
 7399,0.00037316,-0.00007715,0.00000081,0.00000342,-0.00000108,0.000005
 02,0.00000227,-0.00000075,0.00000494,-0.00000235,-0.00000190,-0.000005
 49,-0.00000096,-0.00000101,-0.00055987,0.00112067,-0.00343409,0.025994
 67,0.01786596,-0.00077073,-0.00421620,-0.00051737,-0.04509837,0.000612
 41,-0.00004388,0.00123260,-0.00000654,-0.00025988,-0.00056691,-0.00000
 006,0.00011888,0.00009098,0.00026219,0.00006263,0.00040432,-0.00018941
 ,-0.00236749,-0.00045450,-0.01823761,-0.01605104,-0.00012437,-0.004642
 78,-0.00300260,-0.00078743,0.00164036,0.00333051,0.04903856,0.00002713
 ,-0.00004936,-0.00001879,0.00001615,0.00007411,0.00001028,-0.00002409,
 -0.00004939,0.00005085,-0.00004414,-0.00002740,-0.00001597,0.00005919,
 -0.00001397,0.00001777,0.00000248,-0.00004060,-0.00000373,0.00002482,0
 .00004563,0.00000457,-0.00001185,0.00004451,-0.00000083,0.00000489,-0.
 00000874,0.00000049,0.00000765,0.00001568,-0.00000060,0.00000511,-0.00
 001590,-0.00000300,0.00000525,0.00001442,-0.00000430,-0.00001531,-0.00
 004893,-0.00000081,0.00017013,-0.00011253,0.00015206,-0.00000094,0.000
 00312,0.00000142,0.00000634,0.00000210,0.00000044,0.00000654,-0.000003
 74,-0.00000014,-0.00000317,-0.00000303,0.00000088,0.00057548,-0.000080
 02,-0.00183332,0.00928820,-0.00157980,-0.01527832,-0.00148198,0.001178
 14,-0.00216761,-0.11625898,0.00755093,0.11729028,-0.00003162,-0.000018
 37,-0.00004925,0.00002965,-0.00000004,0.00001812,0.00010412,-0.0000190
 1,-0.00003789,-0.00024865,0.00020802,0.00009464,0.00040532,0.00019410,
 -0.00090386,-0.00018086,-0.00004380,0.00002140,0.00013460,0.00024071,-
 0.00015432,0.12526896,-0.00002766,-0.00007079,-0.00003329,-0.00001209,
 0.00006006,0.00001768,0.00002402,0.00001086,-0.00003950,-0.00009242,0.
 00008204,0.00001591,0.00005258,-0.00007574,0.00003594,0.00001948,0.000
 03908,0.00000892,-0.00000244,-0.00005204,0.00001072,0.00000214,-0.0000
 0197,-0.00000459,-0.00000023,-0.00000069,0.00000131,-0.00000221,-0.000
 00103,0.00000327,-0.00000097,0.00000012,-0.00000323,0.00000018,-0.0000
 0159,-0.00000066,-0.00000854,-0.00000064,0.00000878,-0.00004250,-0.000
 15191,-0.00013509,-0.00000144,-0.00000086,-0.00000167,-0.00000107,-0.0
 0000020,-0.00000085,0.00000010,-0.00000030,0.00000051,0.00000207,-0.00
 000085,0.00000032,-0.00077623,-0.00016319,0.00047844,-0.00623371,-0.00
 066199,0.00879680,0.00170287,0.00000854,0.00139859,0.00800146,-0.04769
 461,-0.01352611,0.00003903,0.00003472,-0.00005891,0.00003059,-0.000011
 66,0.00005610,-0.00007179,0.00001731,-0.00005438,0.00040972,0.00026355
 ,-0.00017094,-0.00012912,0.00051711,0.00064944,-0.00022047,0.00036858,
 0.00029649,0.00036990,0.00013722,-0.00038830,-0.01021808,0.04696627,-0
 .00003649,0.00004250,0.00004868,-0.00002044,-0.00005642,-0.00001581,0.
 00001444,0.00002751,-0.00002549,0.00001073,-0.00001884,-0.00001777,-0.
 00008994,-0.00005033,0.00010328,-0.00000012,0.00002726,0.00001425,-0.0
 0001247,-0.00003539,0.00001957,-0.00000190,-0.00002407,-0.00000696,-0.
 00000308,0.00000269,0.00000467,-0.00000600,-0.00000807,0.00000278,-0.0
 0000266,0.00000707,0.00000440,-0.00000587,-0.00000642,0.00000427,0.000
 00091,0.00002655,0.00000778,-0.00051150,0.00028471,0.00029922,-0.00000
 048,-0.00000115,-0.00000377,-0.00000235,-0.00000017,-0.00000187,-0.000
 00274,0.00000123,-0.00000151,0.00000142,0.00000238,-0.00000415,0.00267
 418,-0.00140452,0.00114371,0.01419158,-0.00200221,-0.02187330,-0.00459
 041,0.00206295,-0.00294315,0.11395877,-0.01246989,-0.23897827,0.000111
 78,0.00012776,-0.00012748,-0.00000016,-0.00006352,-0.00009483,0.000130
 74,-0.00010803,0.00031611,-0.00111622,0.00033569,0.00110504,0.00090268
 ,0.00005698,-0.00142266,-0.00014405,-0.00003839,0.00048877,0.00003854,
 0.00008558,0.00035715,-0.12527490,0.01285743,0.26149054,-0.00020312,0.
 00011559,0.00007369,-0.00001143,-0.00008744,-0.00000084,0.00036849,-0.
 00009038,-0.00005375,0.00007228,0.00005964,0.00003269,-0.00019351,-0.0
 0005725,-0.00011970,0.00001795,0.00013355,0.00002305,-0.00008280,-0.00
 016561,-0.00002942,0.00002990,-0.00012895,-0.00002301,-0.00001737,0.00
 002417,0.00000556,-0.00002254,-0.00004628,-0.00000578,-0.00001666,0.00
 004540,0.00001025,-0.00001386,-0.00003943,-0.00000555,0.00002792,0.000
 12703,0.00001446,0.00008619,0.00232395,0.00051742,0.00000292,-0.000010
 27,-0.00000162,-0.00001998,-0.00000651,0.00000096,-0.00001992,0.000010
 86,0.00000341,0.00001272,0.00000738,0.00000067,0.00017422,-0.00055740,
 -0.00294790,-0.01907303,-0.00643303,-0.00276768,0.00044875,0.00005422,
 0.00108976,-0.21463158,-0.11461571,-0.01471643,0.00018668,0.00028796,0
 .00025532,-0.00029410,-0.00007790,-0.00063263,0.00000722,-0.00005190,-
 0.00015898,-0.00026827,-0.00115604,-0.00039840,0.00012945,0.00040082,0
 .00006594,0.00010366,-0.00009647,-0.00003705,0.00062116,0.00012113,-0.
 00070414,-0.01304878,-0.00869184,-0.00180225,0.23808263,0.00001505,0.0
 0005676,-0.00001181,-0.00000631,-0.00008696,-0.00002649,-0.00012001,0.
 00002585,-0.00010966,0.00007423,-0.00000193,-0.00000841,-0.00007393,0.
 00009804,-0.00002401,-0.00000368,-0.00000788,0.00001208,-0.00002357,0.
 00000219,-0.00001347,0.00000724,-0.00002415,-0.00001462,-0.00000257,0.
 00000631,0.00000235,-0.00000422,-0.00000980,-0.00000226,-0.00000375,0.
 00001183,0.00000002,-0.00000154,-0.00000828,-0.00000161,0.00000751,0.0
 0003066,0.00001931,-0.00016378,-0.00110147,-0.00008721,0.00000221,-0.0
 0000262,0.00000055,-0.00000529,-0.00000213,0.00000081,-0.00000514,0.00
 000307,0.00000167,0.00000271,0.00000237,0.00000076,0.00106664,-0.00021
 424,0.00106590,0.01113602,0.00791609,0.00133203,0.00011714,0.00028494,
 -0.00047745,-0.11329873,-0.11807938,-0.01130503,-0.00000568,-0.0001212
 0,0.00005067,0.00019754,-0.00011888,0.00013340,-0.00002634,0.00004114,
 -0.00006573,0.00028240,0.00046976,0.00010214,0.00017469,0.00001433,-0.
 00021355,-0.00018388,-0.00028486,0.00002545,-0.00020156,0.00009810,-0.
 00019967,0.00287301,0.00084529,0.00092957,0.12466324,0.12878051,-0.000
 19757,-0.00002623,0.00003784,0.00001755,0.00009422,0.00002067,0.000275
 18,-0.00011548,-0.00003652,-0.00001927,0.00005466,0.00000536,-0.000114
 96,-0.00014047,-0.00007933,0.00002044,0.00009855,0.00002841,-0.0000429
 1,-0.00012710,-0.00001312,0.00001446,-0.00006196,-0.00001522,-0.000012
 22,0.00000950,0.00000237,-0.00001080,-0.00002296,0.00000010,-0.0000100
 4,0.00002005,0.00000357,-0.00000395,-0.00001915,-0.00000034,0.00000090
 ,0.00004523,0.00000904,-0.00008920,0.00232420,0.00062037,-0.00000016,-
 0.00000540,-0.00000191,-0.00000969,-0.00000294,-0.00000006,-0.00000864
 ,0.00000469,0.00000134,0.00000833,0.00000253,-0.00000035,-0.00001946,-
 0.00035027,-0.00250379,-0.02204004,-0.01344800,-0.00199929,-0.00033172
 ,-0.00042620,0.00123924,-0.01678702,-0.01222354,-0.04956510,0.00016342
 ,0.00031397,0.00016527,-0.00034767,-0.00006054,-0.00049482,0.00001049,
 -0.00016511,-0.00004679,-0.00031356,-0.00028005,0.00014620,0.00016080,
 0.00022267,0.00036939,-0.00003454,-0.00000315,-0.00008828,0.00048568,0
 .00041182,-0.00040162,0.02209671,0.01609465,0.00350686,0.02147893,0.01
 114560,0.05016450,-0.00004341,0.00008826,-0.00001438,-0.00013807,-0.00
 023521,-0.00005170,-0.00008060,0.00012508,-0.00049356,-0.00043869,0.00
 047259,0.00014750,0.00033013,-0.00040806,-0.00004536,0.00009117,0.0001
 0494,0.00006800,-0.00002926,-0.00018178,-0.00000924,0.00000189,-0.0000
 5419,-0.00002565,0.00000972,0.00000836,-0.00000593,-0.00002388,-0.0000
 2073,0.00000387,-0.00000135,0.00002139,-0.00000043,-0.00002875,-0.0000
 2508,-0.00000500,0.00003194,0.00009000,0.00007372,-0.00112298,-0.00151
 182,-0.00010203,-0.00000272,-0.00000578,-0.00000229,-0.00000910,-0.000
 00307,0.00000061,-0.00001047,0.00000395,0.00000122,0.00000724,0.000002
 89,0.00000100,0.00007128,0.00100388,-0.00261459,-0.00932892,0.01935579
 ,0.00147259,0.00008973,-0.00049069,0.00091610,-0.06153492,0.06496228,0
 .01266735,-0.00008230,0.00039260,-0.00007245,0.00027221,-0.00014482,0.
 00020387,-0.00010310,-0.00000102,-0.00015135,0.00049099,0.00112027,-0.
 00002746,-0.00013464,-0.00022179,0.00009917,0.00051643,-0.00020474,-0.
 00033935,0.00012329,-0.00016465,-0.00003486,-0.00479165,0.01587866,0.0
 0158825,0.00754483,-0.02648964,-0.00433945,0.06832396,0.00008932,-0.00
 015405,-0.00000781,0.00009883,0.00025142,0.00007825,-0.00001953,-0.000
 07203,0.00042049,0.00013363,-0.00021551,-0.00007323,0.00001938,0.00019
 258,0.00016921,-0.00001002,-0.00019236,-0.00009468,0.00005411,0.000230
 08,0.00003481,-0.00003854,0.00013875,0.00002718,0.00002032,-0.00002437
 ,0.00000267,0.00002425,0.00005312,0.00000620,0.00000352,-0.00004997,-0
 .00000307,0.00003203,0.00003377,0.00000308,-0.00006848,-0.00013199,-0.
 00007236,0.00055223,0.00043412,-0.00021241,0.00000055,0.00001028,0.000
 00236,0.00001847,0.00000634,-0.00000236,0.00001699,-0.00000897,-0.0000
 0392,-0.00001202,-0.00000602,-0.00000178,-0.00111292,-0.00002244,0.001
 78811,0.00628840,-0.00806601,-0.00013962,0.00001873,0.00032189,-0.0006
 0807,0.06436238,-0.26922404,-0.03610447,-0.00009698,-0.00029710,-0.000
 18420,-0.00014424,0.00009137,-0.00000963,0.00010674,0.00001504,0.00013
 669,-0.00026366,-0.00037481,-0.00000457,-0.00005226,0.00045438,0.00007
 447,-0.00030081,0.00027229,0.00076385,-0.00007827,-0.00017099,-0.00009
 647,-0.00011176,-0.00046068,-0.00059045,0.00393746,-0.01862347,-0.0033
 6377,-0.07346787,0.29558937,0.00001228,0.00016070,0.00001980,-0.000121
 28,-0.00030580,-0.00007089,-0.00010393,0.00023785,-0.00045551,-0.00021
 242,0.00025339,0.00008494,0.00013744,-0.00020631,-0.00013403,0.0000641
 9,0.00001047,0.00004644,-0.00003123,-0.00006284,-0.00002177,-0.0000054
 3,-0.00003737,-0.00001522,0.00001014,0.00000760,-0.00000699,-0.0000173
 0,-0.00001368,0.00000523,-0.00000492,0.00001925,-0.00000411,-0.0000225
 9,-0.00002293,0.00000102,0.00001658,0.00008745,0.00005848,-0.00140071,
 -0.00134074,0.00042760,0.00000047,-0.00000405,0.00000057,-0.00000630,-
 0.00000230,0.00000074,-0.00000919,0.00000327,0.00000133,0.00000345,0.0
 0000435,0.00000059,-0.00000436,0.00061080,-0.00254044,-0.00754530,0.02
 509831,0.00403424,-0.00029812,0.00050615,0.00129483,0.01141213,-0.0340
 6198,-0.05321530,-0.00010708,0.00021921,0.00013051,0.00022101,-0.00007
 106,0.00004270,0.00007346,0.00002114,-0.00006877,-0.00011016,0.0003807
 2,0.00028728,-0.00003974,-0.00033570,0.00029461,0.00025960,-0.00053865
 ,-0.00038013,-0.00008324,-0.00010766,-0.00006127,0.00598772,-0.0263137
 7,-0.00340004,0.00083298,-0.00226133,-0.00107398,-0.00890817,0.0380654
 9,0.05471756\\-0.00000186,-0.00001382,-0.00000294,0.00000457,0.0000189
 5,0.00000001,-0.00000332,-0.00000489,0.00000243,0.00000099,0.00000006,
 -0.00000306,0.00000060,-0.00000128,0.00000484,-0.00000633,0.00002118,0
 .00000205,-0.00000026,-0.00001490,0.00000007,0.00000686,-0.00001828,-0
 .00000156,-0.00000226,0.00000540,0.00000225,0.00000033,0.00000573,0.00
 000105,-0.00000612,-0.00000442,-0.00000005,0.00000436,-0.00000631,-0.0
 0000196,-0.00000489,0.00001093,0.00000287,0.00000734,-0.00000442,0.000
 00742,0.00000070,-0.00000149,0.00000095,0.00000105,-0.00000275,0.00000
 047,0.00000229,0.00000230,-0.00000030,0.00000103,0.00000170,-0.0000008
 7,-0.00000376,-0.00000071,-0.00000635,0.00000007,0.00000104,0.00000507
 ,0.00000051,0.00000278,-0.00000167,-0.00000083,0.00000213,-0.00000192,
 -0.00000134,-0.00000048,-0.00000169,-0.00000120,0.00000072,-0.00000327
 ,-0.00000020,0.00000289,-0.00000266,0.00000068,0.00000112,0.00000004,0
 .00000005,-0.00000083,-0.00000018,-0.00000015,-0.00000112,-0.00000025,
 0.00000034,-0.00000204,-0.00000055,0.00000075,0.00000141,-0.00000004,0
 .00000017,-0.00000022,-0.00000100,-0.00000016,-0.00000038,0.00000083\\
 \@


 MICHAEL FARADAY, ASKED BY A POLITICIAN WHAT GOOD
 HIS ELECTRICAL DISCOVERIES WERE, REPLIED 
 "AT PRESENT I DO NOT KNOW, BUT ONE DAY YOU WILL BE
 ABLE TO TAX THEM."
 Job cpu time:       0 days  8 hours 46 minutes 17.5 seconds.
 Elapsed time:       0 days  1 hours  7 minutes 42.3 seconds.
 File lengths (MBytes):  RWF=   1457 Int=      0 D2E=      0 Chk=     26 Scr=      1
 Normal termination of Gaussian 16 at Mon Jan  8 02:38:07 2024.
