 Entering Gaussian System, Link 0=g16
 Input=082-PCM.com
 Output=082-PCM.log
 Initial command:
 /sysapps/ubuntu-applications/gaussian/Gaussian/AVX2/g16/l1.exe "/scratch/selhajj1/4332828/Gau-4089517.inp" -scrdir="/scratch/selhajj1/4332828/"
 Entering Link 1 = /sysapps/ubuntu-applications/gaussian/Gaussian/AVX2/g16/l1.exe PID=   4089521.
  
 Copyright (c) 1988,1990,1992,1993,1995,1998,2003,2009,2016,
            Gaussian, Inc.  All Rights Reserved.
  
 This is part of the Gaussian(R) 16 program.  It is based on
 the Gaussian(R) 09 system (copyright 2009, Gaussian, Inc.),
 the Gaussian(R) 03 system (copyright 2003, Gaussian, Inc.),
 the Gaussian(R) 98 system (copyright 1998, Gaussian, Inc.),
 the Gaussian(R) 94 system (copyright 1995, Gaussian, Inc.),
 the Gaussian 92(TM) system (copyright 1992, Gaussian, Inc.),
 the Gaussian 90(TM) system (copyright 1990, Gaussian, Inc.),
 the Gaussian 88(TM) system (copyright 1988, Gaussian, Inc.),
 the Gaussian 86(TM) system (copyright 1986, Carnegie Mellon
 University), and the Gaussian 82(TM) system (copyright 1983,
 Carnegie Mellon University). Gaussian is a federally registered
 trademark of Gaussian, Inc.
  
 This software contains proprietary and confidential information,
 including trade secrets, belonging to Gaussian, Inc.
  
 This software is provided under written license and may be
 used, copied, transmitted, or stored only in accord with that
 written license.
  
 The following legend is applicable only to US Government
 contracts under FAR:
  
                    RESTRICTED RIGHTS LEGEND
  
 Use, reproduction and disclosure by the US Government is
 subject to restrictions as set forth in subparagraphs (a)
 and (c) of the Commercial Computer Software - Restricted
 Rights clause in FAR 52.227-19.
  
 Gaussian, Inc.
 340 Quinnipiac St., Bldg. 40, Wallingford CT 06492
  
  
 ---------------------------------------------------------------
 Warning -- This program may not be used in any manner that
 competes with the business of Gaussian, Inc. or will provide
 assistance to any competitor of Gaussian, Inc.  The licensee
 of this program is prohibited from giving any competitor of
 Gaussian, Inc. access to this program.  By using this program,
 the user acknowledges that Gaussian, Inc. is engaged in the
 business of creating and licensing software in the field of
 computational chemistry and represents and warrants to the
 licensee that it is not a competitor of Gaussian, Inc. and that
 it will not use this program in any manner prohibited above.
 ---------------------------------------------------------------
  

 Cite this work as:
 Gaussian 16, Revision A.03,
 M. J. Frisch, G. W. Trucks, H. B. Schlegel, G. E. Scuseria, 
 M. A. Robb, J. R. Cheeseman, G. Scalmani, V. Barone, 
 G. A. Petersson, H. Nakatsuji, X. Li, M. Caricato, A. V. Marenich, 
 J. Bloino, B. G. Janesko, R. Gomperts, B. Mennucci, H. P. Hratchian, 
 J. V. Ortiz, A. F. Izmaylov, J. L. Sonnenberg, D. Williams-Young, 
 F. Ding, F. Lipparini, F. Egidi, J. Goings, B. Peng, A. Petrone, 
 T. Henderson, D. Ranasinghe, V. G. Zakrzewski, J. Gao, N. Rega, 
 G. Zheng, W. Liang, M. Hada, M. Ehara, K. Toyota, R. Fukuda, 
 J. Hasegawa, M. Ishida, T. Nakajima, Y. Honda, O. Kitao, H. Nakai, 
 T. Vreven, K. Throssell, J. A. Montgomery, Jr., J. E. Peralta, 
 F. Ogliaro, M. J. Bearpark, J. J. Heyd, E. N. Brothers, K. N. Kudin, 
 V. N. Staroverov, T. A. Keith, R. Kobayashi, J. Normand, 
 K. Raghavachari, A. P. Rendell, J. C. Burant, S. S. Iyengar, 
 J. Tomasi, M. Cossi, J. M. Millam, M. Klene, C. Adamo, R. Cammi, 
 J. W. Ochterski, R. L. Martin, K. Morokuma, O. Farkas, 
 J. B. Foresman, and D. J. Fox, Gaussian, Inc., Wallingford CT, 2016.
 
 ******************************************
 Gaussian 16:  ES64L-G16RevA.03 25-Dec-2016
                24-Jan-2024 
 ******************************************
 %chk=082-PCM.chk
 %nproc=8
 Will use up to    8 processors via shared memory.
 %mem=30GB
 ----------------------------------------------------------------
 #P UB3LYP/6-311++G(d,p) SCRF=(PCM,Solvent=n,n-DiMethylFormamide)
 ----------------------------------------------------------------
 1/38=1,172=1/1;
 2/12=2,17=6,18=5,40=1/2;
 3/5=4,6=6,7=1111,11=2,25=1,30=1,70=2201,72=148,74=-5,116=2/1,2,3;
 4//1;
 5/5=2,38=5,53=148/2;
 6/7=2,8=2,9=2,10=2,28=1/1;
 99/5=1,9=1/99;
 Leave Link    1 at Wed Jan 24 22:47:50 2024, MaxMem=  4026531840 cpu:              44.0 elap:              12.4
 (Enter /sysapps/ubuntu-applications/gaussian/Gaussian/AVX2/g16/l101.exe)
 ------------------
 Quinone PCM in DMF
 ------------------
 Symbolic Z-matrix:
 Charge =  0 Multiplicity = 1
 C                     2.6869    0.36816   0.49228 
 O                     1.72985  -0.6666    0.25629 
 C                     0.44783  -0.3256    0.11892 
 C                    -0.07125   0.92303   0.17843 
 C                    -1.50832   1.16087   0.00892 
 O                    -1.98739   2.28534   0.06065 
 C                    -2.38636  -0.01848  -0.23171 
 C                    -1.88771  -1.25818  -0.29313 
 C                    -0.44025  -1.52476  -0.125 
 O                     0.01391  -2.64869  -0.17958 
 H                     2.46533   0.89524   1.42483 
 H                     3.64823  -0.13414   0.56974 
 H                     2.70293   1.07788  -0.33996 
 H                     0.53246   1.80404   0.35103 
 H                    -3.44256   0.19525  -0.35206 
 H                    -2.50358  -2.13337  -0.4671 
 
 ITRead=  0  0  0  0  0  0  0  0  0  0  0  0  0  0  0  0
 MicOpt= -1 -1 -1 -1 -1 -1 -1 -1 -1 -1 -1 -1 -1 -1 -1 -1
 NAtoms=     16 NQM=       16 NQMF=       0 NMMI=      0 NMMIF=      0
                NMic=       0 NMicF=      0.
                    Isotopes and Nuclear Properties:
 (Nuclear quadrupole moments (NQMom) in fm**2, nuclear magnetic moments (NMagM)
  in nuclear magnetons)

  Atom         1           2           3           4           5           6           7           8           9          10
 IAtWgt=          12          16          12          12          12          16          12          12          12          16
 AtmWgt=  12.0000000  15.9949146  12.0000000  12.0000000  12.0000000  15.9949146  12.0000000  12.0000000  12.0000000  15.9949146
 NucSpn=           0           0           0           0           0           0           0           0           0           0
 AtZEff=  -0.0000000  -0.0000000  -0.0000000  -0.0000000  -0.0000000  -0.0000000  -0.0000000  -0.0000000  -0.0000000  -0.0000000
 NQMom=    0.0000000   0.0000000   0.0000000   0.0000000   0.0000000   0.0000000   0.0000000   0.0000000   0.0000000   0.0000000
 NMagM=    0.0000000   0.0000000   0.0000000   0.0000000   0.0000000   0.0000000   0.0000000   0.0000000   0.0000000   0.0000000
 AtZNuc=   6.0000000   8.0000000   6.0000000   6.0000000   6.0000000   8.0000000   6.0000000   6.0000000   6.0000000   8.0000000

  Atom        11          12          13          14          15          16
 IAtWgt=           1           1           1           1           1           1
 AtmWgt=   1.0078250   1.0078250   1.0078250   1.0078250   1.0078250   1.0078250
 NucSpn=           1           1           1           1           1           1
 AtZEff=  -0.0000000  -0.0000000  -0.0000000  -0.0000000  -0.0000000  -0.0000000
 NQMom=    0.0000000   0.0000000   0.0000000   0.0000000   0.0000000   0.0000000
 NMagM=    2.7928460   2.7928460   2.7928460   2.7928460   2.7928460   2.7928460
 AtZNuc=   1.0000000   1.0000000   1.0000000   1.0000000   1.0000000   1.0000000
 Leave Link  101 at Wed Jan 24 22:47:50 2024, MaxMem=  4026531840 cpu:               1.7 elap:               0.2
 (Enter /sysapps/ubuntu-applications/gaussian/Gaussian/AVX2/g16/l202.exe)
                          Input orientation:                          
 ---------------------------------------------------------------------
 Center     Atomic      Atomic             Coordinates (Angstroms)
 Number     Number       Type             X           Y           Z
 ---------------------------------------------------------------------
      1          6           0        2.686904    0.368162    0.492280
      2          8           0        1.729845   -0.666600    0.256292
      3          6           0        0.447826   -0.325604    0.118917
      4          6           0       -0.071246    0.923029    0.178432
      5          6           0       -1.508321    1.160865    0.008915
      6          8           0       -1.987393    2.285341    0.060650
      7          6           0       -2.386363   -0.018476   -0.231709
      8          6           0       -1.887711   -1.258176   -0.293134
      9          6           0       -0.440253   -1.524759   -0.124996
     10          8           0        0.013906   -2.648687   -0.179577
     11          1           0        2.465325    0.895241    1.424834
     12          1           0        3.648231   -0.134138    0.569741
     13          1           0        2.702926    1.077877   -0.339956
     14          1           0        0.532461    1.804043    0.351034
     15          1           0       -3.442558    0.195248   -0.352063
     16          1           0       -2.503579   -2.133366   -0.467100
 ---------------------------------------------------------------------
                    Distance matrix (angstroms):
                    1          2          3          4          5
     1  C    0.000000
     2  O    1.429120   0.000000
     3  C    2.373643   1.333688   0.000000
     4  C    2.830860   2.403521   1.353537   0.000000
     5  C    4.296735   3.726465   2.459309   1.466454   0.000000
     6  O    5.070595   4.750799   3.570815   2.354015   1.223369
     7  C    5.139230   4.195400   2.872263   2.532669   1.489867
     8  C    4.918227   3.706554   2.548374   2.877425   2.467170
     9  C    3.707194   2.364560   1.512002   2.493973   2.893316
    10  O    4.086280   2.657649   2.382037   3.590623   4.106749
    11  H    1.093877   2.084651   2.695586   2.826390   4.226730
    12  H    1.087408   2.015433   3.237668   3.886545   5.346175
    13  H    1.093878   2.084610   2.695515   2.826435   4.226488
    14  H    2.592938   2.747141   2.143930   1.081868   2.166914
    15  H    6.189759   5.278885   3.953251   3.489532   2.191802
    16  H    5.841161   4.538345   3.510301   3.959104   3.474059
                    6          7          8          9         10
     6  O    0.000000
     7  C    2.356316   0.000000
     8  C    3.562529   1.337641   0.000000
     9  C    4.116427   2.463254   1.481375   0.000000
    10  O    5.329872   3.561182   2.358509   1.213447   0.000000
    11  H    4.860049   5.207484   5.151460   4.086656   4.598153
    12  H    6.154130   6.088680   5.714426   4.374036   4.482494
    13  H    4.859789   5.207165   5.151047   4.086502   4.598242
    14  H    2.581789   3.490086   3.955928   3.500529   4.514117
    15  H    2.579986   1.084302   2.129193   3.467538   4.479382
    16  H    4.479949   2.131175   1.084212   2.178245   2.585722
                   11         12         13         14         15
    11  H    0.000000
    12  H    1.786077   0.000000
    13  H    1.790054   1.786094   0.000000
    14  H    2.390592   3.675922   2.390754   0.000000
    15  H    6.208900   7.158038   6.208555   4.345497   0.000000
    16  H    6.118977   6.551085   6.118492   5.038856   2.513436
                   16
    16  H    0.000000
 Stoichiometry    C7H6O3
 Framework group  C1[X(C7H6O3)]
 Deg. of freedom    42
 Full point group                 C1      NOp   1
 Largest Abelian subgroup         C1      NOp   1
 Largest concise Abelian subgroup C1      NOp   1
                         Standard orientation:                         
 ---------------------------------------------------------------------
 Center     Atomic      Atomic             Coordinates (Angstroms)
 Number     Number       Type             X           Y           Z
 ---------------------------------------------------------------------
      1          6           0        2.656213   -1.412634    0.000264
      2          8           0        2.047708   -0.119534    0.000130
      3          6           0        0.716099   -0.045104   -0.000092
      4          6           0       -0.155149   -1.080955   -0.000408
      5          6           0       -1.604684   -0.858840   -0.000078
      6          8           0       -2.400468   -1.788012   -0.000071
      7          6           0       -2.094194    0.548314    0.000115
      8          6           0       -1.245211    1.582002    0.000510
      9          6           0        0.222898    1.384198   -0.000012
     10          8           0        0.994667    2.320589   -0.000470
     11          1           0        2.372889   -1.974024   -0.894797
     12          1           0        3.728470   -1.231745    0.000465
     13          1           0        2.372515   -1.973947    0.895257
     14          1           0        0.160432   -2.115773   -0.000442
     15          1           0       -3.171167    0.674172    0.000152
     16          1           0       -1.574229    2.615086    0.000866
 ---------------------------------------------------------------------
 Rotational constants (GHZ):           1.9372094           1.2288489           0.7555232
 Leave Link  202 at Wed Jan 24 22:47:50 2024, MaxMem=  4026531840 cpu:               0.3 elap:               0.1
 (Enter /sysapps/ubuntu-applications/gaussian/Gaussian/AVX2/g16/l301.exe)
 Standard basis: 6-311++G(d,p) (5D, 7F)
 Ernie: Thresh=  0.10000D-02 Tol=  0.10000D-05 Strict=F.
 There are   272 symmetry adapted cartesian basis functions of A   symmetry.
 There are   262 symmetry adapted basis functions of A   symmetry.
   262 basis functions,   414 primitive gaussians,   272 cartesian basis functions
    36 alpha electrons       36 beta electrons
       nuclear repulsion energy       493.5589944086 Hartrees.
 IExCor=  402 DFT=T Ex+Corr=B3LYP ExCW=0 ScaHFX=  0.200000
 ScaDFX=  0.800000  0.720000  1.000000  0.810000 ScalE2=  1.000000  1.000000
 IRadAn=      5 IRanWt=     -1 IRanGd=            0 ICorTp=0 IEmpDi=  4
 NAtoms=   16 NActive=   16 NUniq=   16 SFac= 1.00D+00 NAtFMM=   60 NAOKFM=F Big=F
 Integral buffers will be    131072 words long.
 Raffenetti 2 integral format.
 Two-electron integral symmetry is turned on.
 ------------------------------------------------------------------------------
 Polarizable Continuum Model (PCM)
 =================================
 Model                : PCM.
 Atomic radii         : UFF (Universal Force Field).
 Polarization charges : Total charges.
 Charge compensation  : None.
 Solution method      : On-the-fly selection.
 Cavity type          : Scaled VdW (van der Waals Surface) (Alpha=1.100).
 Cavity algorithm     : GePol (No added spheres)
                        Default sphere list used, NSphG=   16.
                        Lebedev-Laikov grids with approx.  5.0 points / Ang**2.
                        Smoothing algorithm: York/Karplus (Gamma=1.0000).
                        Polarization charges: spherical gaussians, with
                                              point-specific exponents (IZeta= 3).
                        Self-potential: point-specific (ISelfS= 7).
                        Self-field    : sphere-specific E.n sum rule (ISelfD= 2).
 Solvent              : n,n-DiMethylFormamide, Eps=  37.219000 Eps(inf)=   2.046330
 ------------------------------------------------------------------------------
 Spheres list:
 ISph  on   Nord     Re0    Alpha      Xe            Ye            Ze
    1   C      1    1.9255  1.100      2.656213     -1.412634      0.000264
    2   O      2    1.7500  1.100      2.047708     -0.119534      0.000130
    3   C      3    1.9255  1.100      0.716099     -0.045104     -0.000092
    4   C      4    1.9255  1.100     -0.155149     -1.080955     -0.000408
    5   C      5    1.9255  1.100     -1.604684     -0.858840     -0.000078
    6   O      6    1.7500  1.100     -2.400468     -1.788012     -0.000071
    7   C      7    1.9255  1.100     -2.094194      0.548314      0.000115
    8   C      8    1.9255  1.100     -1.245211      1.582002      0.000510
    9   C      9    1.9255  1.100      0.222898      1.384198     -0.000012
   10   O     10    1.7500  1.100      0.994667      2.320589     -0.000470
   11   H     11    1.4430  1.100      2.372889     -1.974024     -0.894797
   12   H     12    1.4430  1.100      3.728470     -1.231745      0.000465
   13   H     13    1.4430  1.100      2.372515     -1.973947      0.895257
   14   H     14    1.4430  1.100      0.160432     -2.115773     -0.000442
   15   H     15    1.4430  1.100     -3.171167      0.674172      0.000152
   16   H     16    1.4430  1.100     -1.574229      2.615086      0.000866
 ------------------------------------------------------------------------------
 GePol: Number of generator spheres                  =      16
 GePol: Total number of spheres                      =      16
 GePol: Number of exposed spheres                    =      16 (100.00%)
 GePol: Number of points                             =    1460
 GePol: Average weight of points                     =       0.13
 GePol: Minimum weight of points                     =   0.47D-06
 GePol: Maximum weight of points                     =    0.20577
 GePol: Number of points with low weight             =      64
 GePol: Fraction of low-weight points (<1% of avg)   =       4.38%
 GePol: Cavity surface area                          =    192.001 Ang**2
 GePol: Cavity volume                                =    189.960 Ang**3
 Leave Link  301 at Wed Jan 24 22:47:51 2024, MaxMem=  4026531840 cpu:               2.0 elap:               0.3
 (Enter /sysapps/ubuntu-applications/gaussian/Gaussian/AVX2/g16/l302.exe)
 NPDir=0 NMtPBC=     1 NCelOv=     1 NCel=       1 NClECP=     1 NCelD=      1
         NCelK=      1 NCelE2=     1 NClLst=     1 CellRange=     0.0.
 One-electron integrals computed using PRISM.
 One-electron integral symmetry used in STVInt
 NBasis=   262 RedAO= T EigKep=  1.72D-06  NBF=   262
 NBsUse=   262 1.00D-06 EigRej= -1.00D+00 NBFU=   262
 Precomputing XC quadrature grid using
 IXCGrd= 4 IRadAn=           5 IRanWt=          -1 IRanGd=           0 AccXCQ= 0.00D+00.
 Generated NRdTot=       0 NPtTot=           0 NUsed=           0 NTot=          32
 NSgBfM=   272   272   272   272   272 MxSgAt=    16 MxSgA2=    16.
 Leave Link  302 at Wed Jan 24 22:47:51 2024, MaxMem=  4026531840 cpu:               2.1 elap:               0.3
 (Enter /sysapps/ubuntu-applications/gaussian/Gaussian/AVX2/g16/l303.exe)
 DipDrv:  MaxL=1.
 Leave Link  303 at Wed Jan 24 22:47:51 2024, MaxMem=  4026531840 cpu:               1.1 elap:               0.2
 (Enter /sysapps/ubuntu-applications/gaussian/Gaussian/AVX2/g16/l401.exe)
 ExpMin= 3.60D-02 ExpMax= 8.59D+03 ExpMxC= 1.30D+03 IAcc=3 IRadAn=         5 AccDes= 0.00D+00
 Harris functional with IExCor=  402 and IRadAn=       5 diagonalized for initial guess.
 HarFok:  IExCor=  402 AccDes= 0.00D+00 IRadAn=         5 IDoV= 1 UseB2=F ITyADJ=14
 ICtDFT=  3500011 ScaDFX=  1.000000  1.000000  1.000000  1.000000
 FoFCou: FMM=F IPFlag=           0 FMFlag=      100000 FMFlg1=           0
         NFxFlg=           0 DoJE=T BraDBF=F KetDBF=T FulRan=T
         wScrn=  0.000000 ICntrl=       500 IOpCl=  0 I1Cent=   200000004 NGrid=           0
         NMat0=    1 NMatS0=      1 NMatT0=    0 NMatD0=    1 NMtDS0=    0 NMtDT0=    0
 Petite list used in FoFCou.
 Harris En= -496.148027065568    
 JPrj=0 DoOrth=F DoCkMO=F.
 Initial guess <Sx>= 0.0000 <Sy>= 0.0000 <Sz>= 0.0000 <S**2>=-0.0000 S=-0.0000
 Leave Link  401 at Wed Jan 24 22:47:52 2024, MaxMem=  4026531840 cpu:               5.9 elap:               0.8
 (Enter /sysapps/ubuntu-applications/gaussian/Gaussian/AVX2/g16/l502.exe)
 Integral symmetry usage will be decided dynamically.
 UHF open shell SCF:
 Using DIIS extrapolation, IDIIS=  1040.
 NGot=  4026531840 LenX=  4026379044 LenY=  4026304619
 Requested convergence on RMS density matrix=1.00D-08 within 128 cycles.
 Requested convergence on MAX density matrix=1.00D-06.
 Requested convergence on             energy=1.00D-06.
 No special actions if energy rises.
 Fock matrices will be formed incrementally for  20 cycles.

 Cycle   1  Pass 1  IDiag  1:
 FoFJK:  IHMeth= 1 ICntrl=       0 DoSepK=F KAlg= 0 I1Cent=           0 FoldK=F
 IRaf= 940000000 NMat=       1 IRICut=       1 DoRegI=T DoRafI=F ISym2E= 0 IDoP0=0 IntGTp=1.
 FoFCou: FMM=F IPFlag=           0 FMFlag=      100000 FMFlg1=           0
         NFxFlg=           0 DoJE=F BraDBF=F KetDBF=F FulRan=T
         wScrn=  0.000000 ICntrl=         0 IOpCl=  1 I1Cent=           0 NGrid=           0
         NMat0=    1 NMatS0=      1 NMatT0=    0 NMatD0=    1 NMtDS0=    0 NMtDT0=    0
 Symmetry not used in FoFCou.
 Inv3:  Mode=1 IEnd=     6394800.
 Iteration    1 A*A^-1 deviation from unit magnitude is 2.55D-15 for    215.
 Iteration    1 A*A^-1 deviation from orthogonality  is 2.02D-15 for    947    116.
 Iteration    1 A^-1*A deviation from unit magnitude is 2.66D-15 for    450.
 Iteration    1 A^-1*A deviation from orthogonality  is 1.81D-15 for   1108    890.
 E= -495.908548686201    
 DIIS: error= 4.82D-02 at cycle   1 NSaved=   1.
 NSaved= 1 IEnMin= 1 EnMin= -495.908548686201     IErMin= 1 ErrMin= 4.82D-02
 ErrMax= 4.82D-02  0.00D+00 EMaxC= 1.00D-01 BMatC= 1.22D+00 BMatP= 1.22D+00
 IDIUse=3 WtCom= 5.18D-01 WtEn= 4.82D-01
 Coeff-Com:  0.100D+01
 Coeff-En:   0.100D+01
 Coeff:      0.100D+01
 Gap=     0.125 Goal=   None    Shift=    0.000
 Gap=     0.125 Goal=   None    Shift=    0.000
 GapD=    0.125 DampG=1.000 DampE=0.500 DampFc=0.5000 IDamp=-1.
 Damping current iteration by 5.00D-01
 RMSDP=1.84D-02 MaxDP=1.51D+00              OVMax= 3.02D-01

 Cycle   2  Pass 1  IDiag  1:
 RMSU=  8.19D-03    CP:  1.10D+00
 E= -495.963934775230     Delta-E=       -0.055386089029 Rises=F Damp=T
 DIIS: error= 1.98D-02 at cycle   2 NSaved=   2.
 NSaved= 2 IEnMin= 2 EnMin= -495.963934775230     IErMin= 2 ErrMin= 1.98D-02
 ErrMax= 1.98D-02  0.00D+00 EMaxC= 1.00D-01 BMatC= 2.11D-01 BMatP= 1.22D+00
 IDIUse=3 WtCom= 8.02D-01 WtEn= 1.98D-01
 Coeff-Com:  0.219D+00 0.781D+00
 Coeff-En:   0.366D+00 0.634D+00
 Coeff:      0.248D+00 0.752D+00
 Gap=     0.161 Goal=   None    Shift=    0.000
 Gap=     0.161 Goal=   None    Shift=    0.000
 RMSDP=9.03D-03 MaxDP=7.27D-01 DE=-5.54D-02 OVMax= 2.45D-01

 Cycle   3  Pass 1  IDiag  1:
 RMSU=  5.27D-03    CP:  9.81D-01  3.46D-01
 E= -496.100758164711     Delta-E=       -0.136823389482 Rises=F Damp=F
 DIIS: error= 1.94D-02 at cycle   3 NSaved=   3.
 NSaved= 3 IEnMin= 3 EnMin= -496.100758164711     IErMin= 3 ErrMin= 1.94D-02
 ErrMax= 1.94D-02  0.00D+00 EMaxC= 1.00D-01 BMatC= 1.57D-01 BMatP= 2.11D-01
 IDIUse=3 WtCom= 8.06D-01 WtEn= 1.94D-01
 Coeff-Com:  0.420D-01 0.458D+00 0.500D+00
 Coeff-En:   0.000D+00 0.000D+00 0.100D+01
 Coeff:      0.339D-01 0.369D+00 0.597D+00
 Gap=     0.146 Goal=   None    Shift=    0.000
 Gap=     0.146 Goal=   None    Shift=    0.000
 RMSDP=2.66D-03 MaxDP=1.48D-01 DE=-1.37D-01 OVMax= 8.39D-02

 Cycle   4  Pass 1  IDiag  1:
 RMSU=  1.85D-03    CP:  1.01D+00  5.01D-01  8.11D-01
 E= -496.124548749567     Delta-E=       -0.023790584856 Rises=F Damp=F
 DIIS: error= 1.17D-02 at cycle   4 NSaved=   4.
 NSaved= 4 IEnMin= 4 EnMin= -496.124548749567     IErMin= 4 ErrMin= 1.17D-02
 ErrMax= 1.17D-02  0.00D+00 EMaxC= 1.00D-01 BMatC= 5.32D-02 BMatP= 1.57D-01
 IDIUse=3 WtCom= 8.83D-01 WtEn= 1.17D-01
 Coeff-Com:  0.153D-01 0.762D-01 0.370D+00 0.539D+00
 Coeff-En:   0.000D+00 0.000D+00 0.283D+00 0.717D+00
 Coeff:      0.135D-01 0.673D-01 0.360D+00 0.560D+00
 Gap=     0.153 Goal=   None    Shift=    0.000
 Gap=     0.153 Goal=   None    Shift=    0.000
 RMSDP=2.08D-03 MaxDP=1.92D-01 DE=-2.38D-02 OVMax= 3.43D-02

 Cycle   5  Pass 1  IDiag  1:
 RMSU=  6.98D-04    CP:  9.66D-01  3.99D-01  8.35D-01  6.24D-01
 E= -496.135161931338     Delta-E=       -0.010613181771 Rises=F Damp=F
 DIIS: error= 1.62D-03 at cycle   5 NSaved=   5.
 NSaved= 5 IEnMin= 5 EnMin= -496.135161931338     IErMin= 5 ErrMin= 1.62D-03
 ErrMax= 1.62D-03  0.00D+00 EMaxC= 1.00D-01 BMatC= 2.05D-03 BMatP= 5.32D-02
 IDIUse=3 WtCom= 9.84D-01 WtEn= 1.62D-02
 Coeff-Com:  0.490D-02 0.773D-02 0.174D+00 0.330D+00 0.484D+00
 Coeff-En:   0.000D+00 0.000D+00 0.000D+00 0.000D+00 0.100D+01
 Coeff:      0.482D-02 0.760D-02 0.171D+00 0.325D+00 0.492D+00
 Gap=     0.137 Goal=   None    Shift=    0.000
 Gap=     0.137 Goal=   None    Shift=    0.000
 RMSDP=2.35D-04 MaxDP=1.28D-02 DE=-1.06D-02 OVMax= 6.52D-03

 Cycle   6  Pass 1  IDiag  1:
 RMSU=  1.96D-04    CP:  9.65D-01  3.99D-01  8.39D-01  6.19D-01  8.29D-01
 E= -496.135517133844     Delta-E=       -0.000355202506 Rises=F Damp=F
 DIIS: error= 7.20D-04 at cycle   6 NSaved=   6.
 NSaved= 6 IEnMin= 6 EnMin= -496.135517133844     IErMin= 6 ErrMin= 7.20D-04
 ErrMax= 7.20D-04  0.00D+00 EMaxC= 1.00D-01 BMatC= 2.44D-04 BMatP= 2.05D-03
 IDIUse=3 WtCom= 9.93D-01 WtEn= 7.20D-03
 Coeff-Com:  0.120D-02-0.362D-02 0.603D-01 0.131D+00 0.304D+00 0.507D+00
 Coeff-En:   0.000D+00 0.000D+00 0.000D+00 0.000D+00 0.624D-01 0.938D+00
 Coeff:      0.119D-02-0.359D-02 0.599D-01 0.130D+00 0.303D+00 0.510D+00
 Gap=     0.138 Goal=   None    Shift=    0.000
 Gap=     0.138 Goal=   None    Shift=    0.000
 RMSDP=1.31D-04 MaxDP=6.87D-03 DE=-3.55D-04 OVMax= 2.84D-03

 Cycle   7  Pass 1  IDiag  1:
 RMSU=  8.20D-05    CP:  9.66D-01  3.97D-01  8.49D-01  6.26D-01  8.63D-01
                    CP:  6.94D-01
 E= -496.135555935916     Delta-E=       -0.000038802072 Rises=F Damp=F
 DIIS: error= 2.59D-04 at cycle   7 NSaved=   7.
 NSaved= 7 IEnMin= 7 EnMin= -496.135555935916     IErMin= 7 ErrMin= 2.59D-04
 ErrMax= 2.59D-04  0.00D+00 EMaxC= 1.00D-01 BMatC= 3.07D-05 BMatP= 2.44D-04
 IDIUse=3 WtCom= 9.97D-01 WtEn= 2.59D-03
 Coeff-Com:  0.303D-03-0.313D-02 0.156D-01 0.387D-01 0.128D+00 0.320D+00
 Coeff-Com:  0.500D+00
 Coeff-En:   0.000D+00 0.000D+00 0.000D+00 0.000D+00 0.000D+00 0.921D-01
 Coeff-En:   0.908D+00
 Coeff:      0.303D-03-0.312D-02 0.155D-01 0.386D-01 0.128D+00 0.320D+00
 Coeff:      0.501D+00
 Gap=     0.138 Goal=   None    Shift=    0.000
 Gap=     0.138 Goal=   None    Shift=    0.000
 RMSDP=3.21D-05 MaxDP=1.88D-03 DE=-3.88D-05 OVMax= 1.02D-03

 Cycle   8  Pass 1  IDiag  1:
 RMSU=  1.81D-05    CP:  9.66D-01  3.96D-01  8.50D-01  6.29D-01  8.41D-01
                    CP:  6.98D-01  7.97D-01
 E= -496.135561761155     Delta-E=       -0.000005825239 Rises=F Damp=F
 DIIS: error= 5.36D-05 at cycle   8 NSaved=   8.
 NSaved= 8 IEnMin= 8 EnMin= -496.135561761155     IErMin= 8 ErrMin= 5.36D-05
 ErrMax= 5.36D-05  0.00D+00 EMaxC= 1.00D-01 BMatC= 1.66D-06 BMatP= 3.07D-05
 IDIUse=1 WtCom= 1.00D+00 WtEn= 0.00D+00
 Coeff-Com:  0.146D-03-0.133D-02 0.287D-02 0.808D-02 0.397D-01 0.120D+00
 Coeff-Com:  0.257D+00 0.573D+00
 Coeff:      0.146D-03-0.133D-02 0.287D-02 0.808D-02 0.397D-01 0.120D+00
 Coeff:      0.257D+00 0.573D+00
 Gap=     0.138 Goal=   None    Shift=    0.000
 Gap=     0.138 Goal=   None    Shift=    0.000
 RMSDP=1.32D-05 MaxDP=7.62D-04 DE=-5.83D-06 OVMax= 2.54D-04

 Cycle   9  Pass 1  IDiag  1:
 RMSU=  9.75D-06    CP:  9.66D-01  3.96D-01  8.50D-01  6.27D-01  8.42D-01
                    CP:  6.93D-01  7.26D-01  7.73D-01
 E= -496.135562101437     Delta-E=       -0.000000340282 Rises=F Damp=F
 DIIS: error= 1.52D-05 at cycle   9 NSaved=   9.
 NSaved= 9 IEnMin= 9 EnMin= -496.135562101437     IErMin= 9 ErrMin= 1.52D-05
 ErrMax= 1.52D-05  0.00D+00 EMaxC= 1.00D-01 BMatC= 2.17D-07 BMatP= 1.66D-06
 IDIUse=1 WtCom= 1.00D+00 WtEn= 0.00D+00
 Coeff-Com:  0.775D-04-0.345D-03-0.461D-03-0.923D-03 0.338D-02 0.185D-01
 Coeff-Com:  0.672D-01 0.293D+00 0.619D+00
 Coeff:      0.775D-04-0.345D-03-0.461D-03-0.923D-03 0.338D-02 0.185D-01
 Coeff:      0.672D-01 0.293D+00 0.619D+00
 Gap=     0.138 Goal=   None    Shift=    0.000
 Gap=     0.138 Goal=   None    Shift=    0.000
 RMSDP=4.62D-06 MaxDP=3.92D-04 DE=-3.40D-07 OVMax= 1.83D-04

 Cycle  10  Pass 1  IDiag  1:
 RMSU=  2.11D-06    CP:  9.66D-01  3.96D-01  8.50D-01  6.27D-01  8.44D-01
                    CP:  6.95D-01  7.34D-01  7.67D-01  1.00D+00
 E= -496.135562147637     Delta-E=       -0.000000046200 Rises=F Damp=F
 DIIS: error= 9.34D-06 at cycle  10 NSaved=  10.
 NSaved=10 IEnMin=10 EnMin= -496.135562147637     IErMin=10 ErrMin= 9.34D-06
 ErrMax= 9.34D-06  0.00D+00 EMaxC= 1.00D-01 BMatC= 5.03D-08 BMatP= 2.17D-07
 IDIUse=1 WtCom= 1.00D+00 WtEn= 0.00D+00
 Coeff-Com:  0.367D-04-0.131D-03-0.528D-03-0.129D-02-0.132D-02 0.160D-02
 Coeff-Com:  0.219D-01 0.133D+00 0.404D+00 0.443D+00
 Coeff:      0.367D-04-0.131D-03-0.528D-03-0.129D-02-0.132D-02 0.160D-02
 Coeff:      0.219D-01 0.133D+00 0.404D+00 0.443D+00
 Gap=     0.138 Goal=   None    Shift=    0.000
 Gap=     0.138 Goal=   None    Shift=    0.000
 RMSDP=1.22D-06 MaxDP=6.04D-05 DE=-4.62D-08 OVMax= 3.96D-05

 Cycle  11  Pass 1  IDiag  1:
 RMSU=  7.59D-07    CP:  9.66D-01  3.96D-01  8.50D-01  6.27D-01  8.44D-01
                    CP:  6.96D-01  7.35D-01  7.73D-01  1.05D+00  8.75D-01
 E= -496.135562158657     Delta-E=       -0.000000011020 Rises=F Damp=F
 DIIS: error= 2.09D-06 at cycle  11 NSaved=  11.
 NSaved=11 IEnMin=11 EnMin= -496.135562158657     IErMin=11 ErrMin= 2.09D-06
 ErrMax= 2.09D-06  0.00D+00 EMaxC= 1.00D-01 BMatC= 2.69D-09 BMatP= 5.03D-08
 IDIUse=1 WtCom= 1.00D+00 WtEn= 0.00D+00
 Coeff-Com:  0.561D-05 0.679D-05-0.128D-03-0.398D-03-0.136D-02-0.272D-02
 Coeff-Com: -0.248D-02-0.763D-02 0.675D-01 0.186D+00 0.761D+00
 Coeff:      0.561D-05 0.679D-05-0.128D-03-0.398D-03-0.136D-02-0.272D-02
 Coeff:     -0.248D-02-0.763D-02 0.675D-01 0.186D+00 0.761D+00
 Gap=     0.138 Goal=   None    Shift=    0.000
 Gap=     0.138 Goal=   None    Shift=    0.000
 RMSDP=5.18D-07 MaxDP=2.62D-05 DE=-1.10D-08 OVMax= 2.32D-05

 Cycle  12  Pass 1  IDiag  1:
 RMSU=  2.09D-07    CP:  9.66D-01  3.96D-01  8.50D-01  6.27D-01  8.44D-01
                    CP:  6.95D-01  7.34D-01  7.76D-01  1.08D+00  9.05D-01
                    CP:  1.06D+00
 E= -496.135562159355     Delta-E=       -0.000000000697 Rises=F Damp=F
 DIIS: error= 4.36D-07 at cycle  12 NSaved=  12.
 NSaved=12 IEnMin=12 EnMin= -496.135562159355     IErMin=12 ErrMin= 4.36D-07
 ErrMax= 4.36D-07  0.00D+00 EMaxC= 1.00D-01 BMatC= 1.69D-10 BMatP= 2.69D-09
 IDIUse=1 WtCom= 1.00D+00 WtEn= 0.00D+00
 Coeff-Com: -0.625D-06 0.872D-05-0.232D-05-0.371D-04-0.392D-03-0.102D-02
 Coeff-Com: -0.228D-02-0.140D-01-0.957D-02 0.111D-01 0.203D+00 0.813D+00
 Coeff:     -0.625D-06 0.872D-05-0.232D-05-0.371D-04-0.392D-03-0.102D-02
 Coeff:     -0.228D-02-0.140D-01-0.957D-02 0.111D-01 0.203D+00 0.813D+00
 Gap=     0.138 Goal=   None    Shift=    0.000
 Gap=     0.138 Goal=   None    Shift=    0.000
 RMSDP=1.93D-07 MaxDP=1.48D-05 DE=-6.97D-10 OVMax= 4.45D-06

 Cycle  13  Pass 1  IDiag  1:
 RMSU=  7.65D-08    CP:  9.66D-01  3.96D-01  8.50D-01  6.27D-01  8.44D-01
                    CP:  6.95D-01  7.34D-01  7.74D-01  1.09D+00  9.35D-01
                    CP:  1.15D+00  1.13D+00
 E= -496.135562159383     Delta-E=       -0.000000000028 Rises=F Damp=F
 DIIS: error= 4.21D-07 at cycle  13 NSaved=  13.
 NSaved=13 IEnMin=13 EnMin= -496.135562159383     IErMin=13 ErrMin= 4.21D-07
 ErrMax= 4.21D-07  0.00D+00 EMaxC= 1.00D-01 BMatC= 7.74D-11 BMatP= 1.69D-10
 IDIUse=1 WtCom= 1.00D+00 WtEn= 0.00D+00
 Coeff-Com: -0.181D-06 0.194D-05 0.126D-04 0.194D-04-0.698D-04-0.216D-03
 Coeff-Com: -0.679D-03-0.657D-02-0.888D-02-0.983D-02 0.499D-01 0.512D+00
 Coeff-Com:  0.464D+00
 Coeff:     -0.181D-06 0.194D-05 0.126D-04 0.194D-04-0.698D-04-0.216D-03
 Coeff:     -0.679D-03-0.657D-02-0.888D-02-0.983D-02 0.499D-01 0.512D+00
 Coeff:      0.464D+00
 Gap=     0.138 Goal=   None    Shift=    0.000
 Gap=     0.138 Goal=   None    Shift=    0.000
 RMSDP=4.32D-08 MaxDP=2.13D-06 DE=-2.80D-11 OVMax= 2.60D-06

 Cycle  14  Pass 1  IDiag  1:
 RMSU=  2.72D-08    CP:  9.66D-01  3.96D-01  8.50D-01  6.27D-01  8.44D-01
                    CP:  6.95D-01  7.34D-01  7.74D-01  1.09D+00  9.33D-01
                    CP:  1.14D+00  1.09D+00  7.34D-01
 E= -496.135562159401     Delta-E=       -0.000000000018 Rises=F Damp=F
 DIIS: error= 4.39D-08 at cycle  14 NSaved=  14.
 NSaved=14 IEnMin=14 EnMin= -496.135562159401     IErMin=14 ErrMin= 4.39D-08
 ErrMax= 4.39D-08  0.00D+00 EMaxC= 1.00D-01 BMatC= 2.71D-12 BMatP= 7.74D-11
 IDIUse=1 WtCom= 1.00D+00 WtEn= 0.00D+00
 Coeff-Com:  0.133D-06-0.270D-06 0.426D-05 0.948D-05 0.138D-04 0.993D-05
 Coeff-Com: -0.108D-04-0.923D-03-0.185D-02-0.445D-02-0.507D-02 0.546D-01
 Coeff-Com:  0.168D+00 0.789D+00
 Coeff:      0.133D-06-0.270D-06 0.426D-05 0.948D-05 0.138D-04 0.993D-05
 Coeff:     -0.108D-04-0.923D-03-0.185D-02-0.445D-02-0.507D-02 0.546D-01
 Coeff:      0.168D+00 0.789D+00
 Gap=     0.138 Goal=   None    Shift=    0.000
 Gap=     0.138 Goal=   None    Shift=    0.000
 RMSDP=1.65D-08 MaxDP=8.94D-07 DE=-1.78D-11 OVMax= 3.09D-07

 Cycle  15  Pass 1  IDiag  1:
 RMSU=  4.86D-09    CP:  9.66D-01  3.96D-01  8.50D-01  6.27D-01  8.44D-01
                    CP:  6.95D-01  7.34D-01  7.74D-01  1.09D+00  9.34D-01
                    CP:  1.15D+00  1.12D+00  7.64D-01  8.74D-01
 E= -496.135562159400     Delta-E=        0.000000000001 Rises=F Damp=F
 DIIS: error= 7.67D-09 at cycle  15 NSaved=  15.
 NSaved=15 IEnMin=14 EnMin= -496.135562159401     IErMin=15 ErrMin= 7.67D-09
 ErrMax= 7.67D-09  0.00D+00 EMaxC= 1.00D-01 BMatC= 1.31D-13 BMatP= 2.71D-12
 IDIUse=1 WtCom= 1.00D+00 WtEn= 0.00D+00
 Coeff-Com:  0.108D-06-0.249D-06 0.117D-05 0.299D-05 0.927D-05 0.144D-04
 Coeff-Com:  0.377D-04-0.730D-04-0.289D-03-0.145D-02-0.496D-02-0.536D-02
 Coeff-Com:  0.575D-01 0.348D+00 0.607D+00
 Coeff:      0.108D-06-0.249D-06 0.117D-05 0.299D-05 0.927D-05 0.144D-04
 Coeff:      0.377D-04-0.730D-04-0.289D-03-0.145D-02-0.496D-02-0.536D-02
 Coeff:      0.575D-01 0.348D+00 0.607D+00
 Gap=     0.138 Goal=   None    Shift=    0.000
 Gap=     0.138 Goal=   None    Shift=    0.000
 RMSDP=4.12D-09 MaxDP=4.20D-07 DE= 7.96D-13 OVMax= 5.91D-08

 Error on total polarization charges =  0.01272
 SCF Done:  E(UB3LYP) =  -496.135562159     A.U. after   15 cycles
            NFock= 15  Conv=0.41D-08     -V/T= 2.0038
 <Sx>= 0.0000 <Sy>= 0.0000 <Sz>= 0.0000 <S**2>=-0.0000 S=-0.0000
 <L.S>=  0.00000000000    
 KE= 4.942490895840D+02 PE=-2.147180845754D+03 EE= 6.632371996019D+02
 Annihilation of the first spin contaminant:
 S**2 before annihilation    -0.0000,   after    -0.0000
 Leave Link  502 at Wed Jan 24 22:48:37 2024, MaxMem=  4026531840 cpu:             340.7 elap:              45.1
 (Enter /sysapps/ubuntu-applications/gaussian/Gaussian/AVX2/g16/l601.exe)
 Copying SCF densities to generalized density rwf, IOpCl= 1 IROHF=0.

 **********************************************************************

            Population analysis using the SCF density.

 **********************************************************************

 Orbital symmetries:
 Alpha Orbitals:
       Occupied  (A) (A) (A) (A) (A) (A) (A) (A) (A) (A) (A) (A)
                 (A) (A) (A) (A) (A) (A) (A) (A) (A) (A) (A) (A)
                 (A) (A) (A) (A) (A) (A) (A) (A) (A) (A) (A) (A)
       Virtual   (A) (A) (A) (A) (A) (A) (A) (A) (A) (A) (A) (A)
                 (A) (A) (A) (A) (A) (A) (A) (A) (A) (A) (A) (A)
                 (A) (A) (A) (A) (A) (A) (A) (A) (A) (A) (A) (A)
                 (A) (A) (A) (A) (A) (A) (A) (A) (A) (A) (A) (A)
                 (A) (A) (A) (A) (A) (A) (A) (A) (A) (A) (A) (A)
                 (A) (A) (A) (A) (A) (A) (A) (A) (A) (A) (A) (A)
                 (A) (A) (A) (A) (A) (A) (A) (A) (A) (A) (A) (A)
                 (A) (A) (A) (A) (A) (A) (A) (A) (A) (A) (A) (A)
                 (A) (A) (A) (A) (A) (A) (A) (A) (A) (A) (A) (A)
                 (A) (A) (A) (A) (A) (A) (A) (A) (A) (A) (A) (A)
                 (A) (A) (A) (A) (A) (A) (A) (A) (A) (A) (A) (A)
                 (A) (A) (A) (A) (A) (A) (A) (A) (A) (A) (A) (A)
                 (A) (A) (A) (A) (A) (A) (A) (A) (A) (A) (A) (A)
                 (A) (A) (A) (A) (A) (A) (A) (A) (A) (A) (A) (A)
                 (A) (A) (A) (A) (A) (A) (A) (A) (A) (A) (A) (A)
                 (A) (A) (A) (A) (A) (A) (A) (A) (A) (A) (A) (A)
                 (A) (A) (A) (A) (A) (A) (A) (A) (A) (A) (A) (A)
                 (A) (A) (A) (A) (A) (A) (A) (A) (A) (A) (A) (A)
                 (A) (A) (A) (A) (A) (A) (A) (A) (A) (A)
 Beta  Orbitals:
       Occupied  (A) (A) (A) (A) (A) (A) (A) (A) (A) (A) (A) (A)
                 (A) (A) (A) (A) (A) (A) (A) (A) (A) (A) (A) (A)
                 (A) (A) (A) (A) (A) (A) (A) (A) (A) (A) (A) (A)
       Virtual   (A) (A) (A) (A) (A) (A) (A) (A) (A) (A) (A) (A)
                 (A) (A) (A) (A) (A) (A) (A) (A) (A) (A) (A) (A)
                 (A) (A) (A) (A) (A) (A) (A) (A) (A) (A) (A) (A)
                 (A) (A) (A) (A) (A) (A) (A) (A) (A) (A) (A) (A)
                 (A) (A) (A) (A) (A) (A) (A) (A) (A) (A) (A) (A)
                 (A) (A) (A) (A) (A) (A) (A) (A) (A) (A) (A) (A)
                 (A) (A) (A) (A) (A) (A) (A) (A) (A) (A) (A) (A)
                 (A) (A) (A) (A) (A) (A) (A) (A) (A) (A) (A) (A)
                 (A) (A) (A) (A) (A) (A) (A) (A) (A) (A) (A) (A)
                 (A) (A) (A) (A) (A) (A) (A) (A) (A) (A) (A) (A)
                 (A) (A) (A) (A) (A) (A) (A) (A) (A) (A) (A) (A)
                 (A) (A) (A) (A) (A) (A) (A) (A) (A) (A) (A) (A)
                 (A) (A) (A) (A) (A) (A) (A) (A) (A) (A) (A) (A)
                 (A) (A) (A) (A) (A) (A) (A) (A) (A) (A) (A) (A)
                 (A) (A) (A) (A) (A) (A) (A) (A) (A) (A) (A) (A)
                 (A) (A) (A) (A) (A) (A) (A) (A) (A) (A) (A) (A)
                 (A) (A) (A) (A) (A) (A) (A) (A) (A) (A) (A) (A)
                 (A) (A) (A) (A) (A) (A) (A) (A) (A) (A) (A) (A)
                 (A) (A) (A) (A) (A) (A) (A) (A) (A) (A)
 The electronic state is 1-A.
 Alpha  occ. eigenvalues --  -19.19225 -19.15181 -19.13747 -10.29735 -10.28632
 Alpha  occ. eigenvalues --  -10.27854 -10.23572 -10.21595 -10.21449 -10.19889
 Alpha  occ. eigenvalues --   -1.11468  -1.07917  -1.06804  -0.86424  -0.79620
 Alpha  occ. eigenvalues --   -0.74919  -0.70030  -0.63336  -0.61326  -0.54911
 Alpha  occ. eigenvalues --   -0.53689  -0.50896  -0.49839  -0.48453  -0.45862
 Alpha  occ. eigenvalues --   -0.45581  -0.44985  -0.43414  -0.42449  -0.41668
 Alpha  occ. eigenvalues --   -0.37186  -0.36959  -0.31484  -0.29710  -0.28521
 Alpha  occ. eigenvalues --   -0.27287
 Alpha virt. eigenvalues --   -0.13528  -0.02424  -0.00489  -0.00390   0.00661
 Alpha virt. eigenvalues --    0.01321   0.02459   0.03153   0.03474   0.04830
 Alpha virt. eigenvalues --    0.06267   0.06526   0.06662   0.07512   0.07931
 Alpha virt. eigenvalues --    0.09917   0.10362   0.10641   0.11228   0.11333
 Alpha virt. eigenvalues --    0.11729   0.12835   0.12907   0.12951   0.13804
 Alpha virt. eigenvalues --    0.14181   0.14323   0.14649   0.15526   0.15724
 Alpha virt. eigenvalues --    0.16065   0.17124   0.17766   0.18403   0.19561
 Alpha virt. eigenvalues --    0.20424   0.20712   0.21308   0.22429   0.23433
 Alpha virt. eigenvalues --    0.24026   0.24425   0.24570   0.25799   0.26600
 Alpha virt. eigenvalues --    0.27799   0.28237   0.29442   0.29508   0.30809
 Alpha virt. eigenvalues --    0.31192   0.32644   0.32733   0.33145   0.33869
 Alpha virt. eigenvalues --    0.34898   0.36350   0.36835   0.38240   0.38954
 Alpha virt. eigenvalues --    0.40088   0.40767   0.43650   0.44614   0.45708
 Alpha virt. eigenvalues --    0.47832   0.49656   0.51029   0.52886   0.54625
 Alpha virt. eigenvalues --    0.56015   0.56995   0.58094   0.59387   0.60700
 Alpha virt. eigenvalues --    0.61063   0.61127   0.62694   0.63619   0.66940
 Alpha virt. eigenvalues --    0.67798   0.68268   0.72175   0.73885   0.74991
 Alpha virt. eigenvalues --    0.78199   0.78363   0.80938   0.84027   0.85072
 Alpha virt. eigenvalues --    0.86667   0.87461   0.89885   0.90673   0.92379
 Alpha virt. eigenvalues --    0.93887   0.96220   0.98302   0.99626   1.00066
 Alpha virt. eigenvalues --    1.00500   1.01728   1.05163   1.06185   1.09268
 Alpha virt. eigenvalues --    1.10246   1.11152   1.17565   1.19385   1.20515
 Alpha virt. eigenvalues --    1.21735   1.23698   1.24751   1.27210   1.28333
 Alpha virt. eigenvalues --    1.31910   1.36229   1.41558   1.42700   1.46435
 Alpha virt. eigenvalues --    1.47062   1.49653   1.52562   1.53216   1.54186
 Alpha virt. eigenvalues --    1.58495   1.61811   1.62897   1.63461   1.65259
 Alpha virt. eigenvalues --    1.67536   1.67711   1.68618   1.72344   1.74323
 Alpha virt. eigenvalues --    1.75619   1.76962   1.79120   1.79482   1.83893
 Alpha virt. eigenvalues --    1.88389   1.91474   1.93093   1.95323   1.97207
 Alpha virt. eigenvalues --    1.99658   2.02550   2.07751   2.08611   2.11929
 Alpha virt. eigenvalues --    2.12658   2.15634   2.19314   2.19954   2.22942
 Alpha virt. eigenvalues --    2.31947   2.42773   2.45448   2.47324   2.50704
 Alpha virt. eigenvalues --    2.50757   2.54242   2.55930   2.56265   2.60838
 Alpha virt. eigenvalues --    2.65701   2.68064   2.68886   2.69780   2.72299
 Alpha virt. eigenvalues --    2.76731   2.77642   2.79523   2.83500   2.86076
 Alpha virt. eigenvalues --    2.88316   2.89654   2.92372   2.94289   2.96852
 Alpha virt. eigenvalues --    2.99338   3.02583   3.03066   3.12056   3.16987
 Alpha virt. eigenvalues --    3.18442   3.21551   3.21628   3.31765   3.34400
 Alpha virt. eigenvalues --    3.35167   3.42785   3.45265   3.51867   3.58492
 Alpha virt. eigenvalues --    3.59323   3.65919   3.71553   3.76617   3.83347
 Alpha virt. eigenvalues --    3.99304   4.05427   4.08226   4.13189   4.16008
 Alpha virt. eigenvalues --    4.17620   4.67627   4.97485   5.02501   5.04970
 Alpha virt. eigenvalues --    5.16549   5.20312   5.40004   5.65990   5.74675
 Alpha virt. eigenvalues --    5.80983  23.64256  23.74367  23.82889  23.89213
 Alpha virt. eigenvalues --   23.91913  24.13907  24.22538  49.91146  49.98900
 Alpha virt. eigenvalues --   50.02349
  Beta  occ. eigenvalues --  -19.19225 -19.15181 -19.13747 -10.29735 -10.28632
  Beta  occ. eigenvalues --  -10.27854 -10.23572 -10.21595 -10.21449 -10.19889
  Beta  occ. eigenvalues --   -1.11468  -1.07917  -1.06804  -0.86424  -0.79620
  Beta  occ. eigenvalues --   -0.74919  -0.70030  -0.63336  -0.61326  -0.54911
  Beta  occ. eigenvalues --   -0.53689  -0.50896  -0.49839  -0.48453  -0.45862
  Beta  occ. eigenvalues --   -0.45581  -0.44985  -0.43414  -0.42449  -0.41668
  Beta  occ. eigenvalues --   -0.37186  -0.36959  -0.31484  -0.29710  -0.28521
  Beta  occ. eigenvalues --   -0.27287
  Beta virt. eigenvalues --   -0.13528  -0.02424  -0.00489  -0.00390   0.00661
  Beta virt. eigenvalues --    0.01321   0.02459   0.03153   0.03474   0.04830
  Beta virt. eigenvalues --    0.06267   0.06526   0.06662   0.07512   0.07931
  Beta virt. eigenvalues --    0.09917   0.10362   0.10641   0.11228   0.11333
  Beta virt. eigenvalues --    0.11729   0.12835   0.12907   0.12951   0.13804
  Beta virt. eigenvalues --    0.14181   0.14323   0.14649   0.15526   0.15724
  Beta virt. eigenvalues --    0.16065   0.17124   0.17766   0.18403   0.19561
  Beta virt. eigenvalues --    0.20424   0.20712   0.21308   0.22429   0.23433
  Beta virt. eigenvalues --    0.24026   0.24425   0.24570   0.25799   0.26600
  Beta virt. eigenvalues --    0.27799   0.28237   0.29442   0.29508   0.30809
  Beta virt. eigenvalues --    0.31192   0.32644   0.32733   0.33145   0.33869
  Beta virt. eigenvalues --    0.34898   0.36350   0.36835   0.38240   0.38954
  Beta virt. eigenvalues --    0.40088   0.40767   0.43650   0.44614   0.45708
  Beta virt. eigenvalues --    0.47832   0.49656   0.51029   0.52886   0.54625
  Beta virt. eigenvalues --    0.56015   0.56995   0.58094   0.59387   0.60700
  Beta virt. eigenvalues --    0.61063   0.61127   0.62694   0.63619   0.66940
  Beta virt. eigenvalues --    0.67798   0.68268   0.72175   0.73885   0.74991
  Beta virt. eigenvalues --    0.78199   0.78363   0.80938   0.84027   0.85072
  Beta virt. eigenvalues --    0.86667   0.87461   0.89885   0.90673   0.92379
  Beta virt. eigenvalues --    0.93887   0.96220   0.98302   0.99626   1.00066
  Beta virt. eigenvalues --    1.00500   1.01728   1.05163   1.06185   1.09268
  Beta virt. eigenvalues --    1.10246   1.11152   1.17565   1.19385   1.20515
  Beta virt. eigenvalues --    1.21735   1.23698   1.24751   1.27210   1.28333
  Beta virt. eigenvalues --    1.31910   1.36229   1.41558   1.42700   1.46435
  Beta virt. eigenvalues --    1.47062   1.49653   1.52562   1.53216   1.54186
  Beta virt. eigenvalues --    1.58495   1.61811   1.62897   1.63461   1.65259
  Beta virt. eigenvalues --    1.67536   1.67711   1.68618   1.72344   1.74323
  Beta virt. eigenvalues --    1.75619   1.76962   1.79120   1.79482   1.83893
  Beta virt. eigenvalues --    1.88389   1.91474   1.93093   1.95323   1.97207
  Beta virt. eigenvalues --    1.99658   2.02550   2.07751   2.08611   2.11929
  Beta virt. eigenvalues --    2.12658   2.15634   2.19314   2.19954   2.22942
  Beta virt. eigenvalues --    2.31947   2.42773   2.45448   2.47324   2.50704
  Beta virt. eigenvalues --    2.50757   2.54242   2.55930   2.56265   2.60838
  Beta virt. eigenvalues --    2.65701   2.68064   2.68886   2.69780   2.72299
  Beta virt. eigenvalues --    2.76731   2.77642   2.79523   2.83500   2.86076
  Beta virt. eigenvalues --    2.88316   2.89654   2.92372   2.94289   2.96852
  Beta virt. eigenvalues --    2.99338   3.02583   3.03066   3.12056   3.16987
  Beta virt. eigenvalues --    3.18442   3.21551   3.21628   3.31765   3.34400
  Beta virt. eigenvalues --    3.35167   3.42785   3.45265   3.51867   3.58492
  Beta virt. eigenvalues --    3.59323   3.65919   3.71553   3.76617   3.83347
  Beta virt. eigenvalues --    3.99304   4.05427   4.08226   4.13189   4.16008
  Beta virt. eigenvalues --    4.17620   4.67627   4.97485   5.02501   5.04970
  Beta virt. eigenvalues --    5.16549   5.20312   5.40004   5.65990   5.74675
  Beta virt. eigenvalues --    5.80983  23.64256  23.74367  23.82889  23.89213
  Beta virt. eigenvalues --   23.91913  24.13907  24.22538  49.91146  49.98900
  Beta virt. eigenvalues --   50.02349
          Condensed to atoms (all electrons):
               1          2          3          4          5          6
     1  C    5.220899   0.150221   0.316640  -0.775187  -0.195241   0.006139
     2  O    0.150221   8.063308   0.375622   0.198529   0.039468  -0.000138
     3  C    0.316640   0.375622  12.892459  -2.538340  -0.330094  -0.022052
     4  C   -0.775187   0.198529  -2.538340  13.526597  -0.177654  -0.079278
     5  C   -0.195241   0.039468  -0.330094  -0.177654   8.114772   0.400103
     6  O    0.006139  -0.000138  -0.022052  -0.079278   0.400103   8.198595
     7  C    0.037940   0.000430  -0.332462  -0.967112  -0.971588  -0.141873
     8  C    0.030178   0.007371  -1.239139  -1.082129   1.197675  -0.011739
     9  C    0.330722  -0.577447  -2.808682  -3.388164  -1.395970  -0.007153
    10  O    0.001102   0.049116  -0.038257  -0.010548   0.013037   0.000444
    11  H    0.391130  -0.029522  -0.035951   0.062494   0.019584  -0.000014
    12  H    0.409752  -0.065791   0.034499  -0.033852  -0.009313   0.000394
    13  H    0.391073  -0.029528  -0.035927   0.062645   0.019816  -0.000018
    14  H   -0.005399  -0.024045  -0.030742   0.521719  -0.094778  -0.014054
    15  H    0.000227   0.000307   0.027653  -0.047134  -0.104905  -0.010661
    16  H   -0.001082  -0.001863  -0.044698   0.026055   0.027394   0.001320
               7          8          9         10         11         12
     1  C    0.037940   0.030178   0.330722   0.001102   0.391130   0.409752
     2  O    0.000430   0.007371  -0.577447   0.049116  -0.029522  -0.065791
     3  C   -0.332462  -1.239139  -2.808682  -0.038257  -0.035951   0.034499
     4  C   -0.967112  -1.082129  -3.388164  -0.010548   0.062494  -0.033852
     5  C   -0.971588   1.197675  -1.395970   0.013037   0.019584  -0.009313
     6  O   -0.141873  -0.011739  -0.007153   0.000444  -0.000014   0.000394
     7  C    7.976743  -1.002191   0.850684  -0.047381   0.003009   0.004370
     8  C   -1.002191   8.280302  -0.649957  -0.142045  -0.003331  -0.003095
     9  C    0.850684  -0.649957  14.041717   0.377877  -0.051510   0.028292
    10  O   -0.047381  -0.142045   0.377877   8.088994   0.000632  -0.000813
    11  H    0.003009  -0.003331  -0.051510   0.000632   0.546528  -0.023251
    12  H    0.004370  -0.003095   0.028292  -0.000813  -0.023251   0.478295
    13  H    0.002910  -0.003240  -0.051848   0.000633  -0.050175  -0.023248
    14  H   -0.079031   0.020509   0.003831  -0.000206  -0.008082   0.001409
    15  H    0.451893  -0.026244   0.015611   0.000909   0.000151   0.000039
    16  H   -0.001205   0.399655  -0.083250  -0.009997  -0.000188  -0.000090
              13         14         15         16
     1  C    0.391073  -0.005399   0.000227  -0.001082
     2  O   -0.029528  -0.024045   0.000307  -0.001863
     3  C   -0.035927  -0.030742   0.027653  -0.044698
     4  C    0.062645   0.521719  -0.047134   0.026055
     5  C    0.019816  -0.094778  -0.104905   0.027394
     6  O   -0.000018  -0.014054  -0.010661   0.001320
     7  C    0.002910  -0.079031   0.451893  -0.001205
     8  C   -0.003240   0.020509  -0.026244   0.399655
     9  C   -0.051848   0.003831   0.015611  -0.083250
    10  O    0.000633  -0.000206   0.000909  -0.009997
    11  H   -0.050175  -0.008082   0.000151  -0.000188
    12  H   -0.023248   0.001409   0.000039  -0.000090
    13  H    0.546526  -0.008106   0.000150  -0.000186
    14  H   -0.008106   0.465680  -0.003466   0.001800
    15  H    0.000150  -0.003466   0.462548  -0.012870
    16  H   -0.000186   0.001800  -0.012870   0.454767
          Atomic-Atomic Spin Densities.
               1          2          3          4          5          6
     1  C    0.000000  -0.000000   0.000000  -0.000000  -0.000000   0.000000
     2  O   -0.000000  -0.000000   0.000000  -0.000000   0.000000  -0.000000
     3  C    0.000000   0.000000  -0.000000   0.000000  -0.000000   0.000000
     4  C   -0.000000  -0.000000   0.000000  -0.000000   0.000000  -0.000000
     5  C   -0.000000   0.000000  -0.000000   0.000000  -0.000000   0.000000
     6  O    0.000000  -0.000000   0.000000  -0.000000   0.000000  -0.000000
     7  C    0.000000  -0.000000   0.000000  -0.000000   0.000000  -0.000000
     8  C   -0.000000   0.000000  -0.000000   0.000000  -0.000000   0.000000
     9  C    0.000000  -0.000000   0.000000  -0.000000   0.000000  -0.000000
    10  O   -0.000000   0.000000  -0.000000   0.000000  -0.000000   0.000000
    11  H   -0.000000   0.000000  -0.000000   0.000000  -0.000000  -0.000000
    12  H    0.000000   0.000000  -0.000000  -0.000000  -0.000000   0.000000
    13  H   -0.000000   0.000000  -0.000000   0.000000  -0.000000  -0.000000
    14  H   -0.000000  -0.000000   0.000000   0.000000   0.000000  -0.000000
    15  H    0.000000   0.000000  -0.000000  -0.000000  -0.000000  -0.000000
    16  H   -0.000000  -0.000000   0.000000   0.000000   0.000000   0.000000
               7          8          9         10         11         12
     1  C    0.000000  -0.000000   0.000000  -0.000000  -0.000000   0.000000
     2  O   -0.000000   0.000000  -0.000000   0.000000   0.000000   0.000000
     3  C    0.000000  -0.000000   0.000000  -0.000000  -0.000000  -0.000000
     4  C   -0.000000   0.000000  -0.000000   0.000000   0.000000  -0.000000
     5  C    0.000000  -0.000000   0.000000  -0.000000  -0.000000  -0.000000
     6  O   -0.000000   0.000000  -0.000000   0.000000  -0.000000   0.000000
     7  C    0.000000   0.000000  -0.000000   0.000000  -0.000000   0.000000
     8  C    0.000000  -0.000000   0.000000  -0.000000  -0.000000  -0.000000
     9  C   -0.000000   0.000000  -0.000000   0.000000   0.000000   0.000000
    10  O    0.000000  -0.000000   0.000000  -0.000000  -0.000000   0.000000
    11  H   -0.000000  -0.000000   0.000000  -0.000000  -0.000000  -0.000000
    12  H    0.000000  -0.000000   0.000000   0.000000  -0.000000   0.000000
    13  H   -0.000000   0.000000   0.000000  -0.000000  -0.000000  -0.000000
    14  H   -0.000000   0.000000  -0.000000   0.000000   0.000000   0.000000
    15  H    0.000000  -0.000000   0.000000  -0.000000  -0.000000   0.000000
    16  H   -0.000000   0.000000  -0.000000   0.000000   0.000000  -0.000000
              13         14         15         16
     1  C   -0.000000  -0.000000   0.000000  -0.000000
     2  O    0.000000  -0.000000   0.000000  -0.000000
     3  C   -0.000000   0.000000  -0.000000   0.000000
     4  C    0.000000   0.000000  -0.000000   0.000000
     5  C   -0.000000   0.000000  -0.000000   0.000000
     6  O   -0.000000  -0.000000  -0.000000   0.000000
     7  C   -0.000000  -0.000000   0.000000  -0.000000
     8  C    0.000000   0.000000  -0.000000   0.000000
     9  C    0.000000  -0.000000   0.000000  -0.000000
    10  O   -0.000000   0.000000  -0.000000   0.000000
    11  H   -0.000000   0.000000  -0.000000   0.000000
    12  H   -0.000000   0.000000   0.000000  -0.000000
    13  H   -0.000000   0.000000  -0.000000   0.000000
    14  H    0.000000   0.000000  -0.000000   0.000000
    15  H   -0.000000  -0.000000   0.000000  -0.000000
    16  H    0.000000   0.000000  -0.000000   0.000000
 Mulliken charges and spin densities:
               1          2
     1  C   -0.309115   0.000000
     2  O   -0.156040   0.000000
     3  C   -0.190529  -0.000000
     4  C    0.701359   0.000000
     5  C   -0.552308  -0.000000
     6  O   -0.320014   0.000000
     7  C    0.214864   0.000000
     8  C    0.227420  -0.000000
     9  C   -0.634752   0.000000
    10  O   -0.283497   0.000000
    11  H    0.178496  -0.000000
    12  H    0.202403   0.000000
    13  H    0.178521  -0.000000
    14  H    0.252961   0.000000
    15  H    0.245792   0.000000
    16  H    0.244436  -0.000000
 Sum of Mulliken charges =  -0.00000  -0.00000
 Mulliken charges and spin densities with hydrogens summed into heavy atoms:
               1          2
     1  C    0.250305   0.000000
     2  O   -0.156040   0.000000
     3  C   -0.190529  -0.000000
     4  C    0.954321   0.000000
     5  C   -0.552308  -0.000000
     6  O   -0.320014   0.000000
     7  C    0.460656   0.000000
     8  C    0.471857  -0.000000
     9  C   -0.634752   0.000000
    10  O   -0.283497   0.000000
 Electronic spatial extent (au):  <R**2>=           1438.3245
 Charge=             -0.0000 electrons
 Dipole moment (field-independent basis, Debye):
    X=              1.4557    Y=             -1.2464    Z=              0.0017  Tot=              1.9164
 Quadrupole moment (field-independent basis, Debye-Ang):
   XX=            -58.1133   YY=            -64.1486   ZZ=            -57.2912
   XY=            -21.1714   XZ=              0.0011   YZ=              0.0034
 Traceless Quadrupole moment (field-independent basis, Debye-Ang):
   XX=              1.7378   YY=             -4.2976   ZZ=              2.5599
   XY=            -21.1714   XZ=              0.0011   YZ=              0.0034
 Octapole moment (field-independent basis, Debye-Ang**2):
  XXX=             35.8702  YYY=             -9.7478  ZZZ=             -0.0003  XYY=             11.2999
  XXY=              6.5841  XXZ=              0.0053  XZZ=              4.5501  YZZ=             -1.0135
  YYZ=              0.0106  XYZ=             -0.0001
 Hexadecapole moment (field-independent basis, Debye-Ang**3):
 XXXX=          -1021.7096 YYYY=           -758.6191 ZZZZ=            -65.8071 XXXY=           -117.8408
 XXXZ=              0.0104 YYYX=            -84.4468 YYYZ=              0.0253 ZZZX=              0.0029
 ZZZY=             -0.0065 XXYY=           -324.8230 XXZZ=           -192.7783 YYZZ=           -127.4794
 XXYZ=              0.0034 YYXZ=             -0.0011 ZZXY=              4.5711
 N-N= 4.935589944086D+02 E-N=-2.147180846527D+03  KE= 4.942490895840D+02
                          Isotropic Fermi Contact Couplings
        Atom                 a.u.       MegaHertz       Gauss      10(-4) cm-1
     1  C(13)              0.00000       0.00000       0.00000       0.00000
     2  O(17)              0.00000      -0.00000      -0.00000      -0.00000
     3  C(13)             -0.00000      -0.00000      -0.00000      -0.00000
     4  C(13)              0.00000       0.00000       0.00000       0.00000
     5  C(13)              0.00000       0.00000       0.00000       0.00000
     6  O(17)             -0.00000       0.00000       0.00000       0.00000
     7  C(13)             -0.00000      -0.00000      -0.00000      -0.00000
     8  C(13)              0.00000       0.00000       0.00000       0.00000
     9  C(13)              0.00000       0.00000       0.00000       0.00000
    10  O(17)             -0.00000       0.00000       0.00000       0.00000
    11  H(1)              -0.00000      -0.00000      -0.00000      -0.00000
    12  H(1)              -0.00000      -0.00000      -0.00000      -0.00000
    13  H(1)              -0.00000      -0.00000      -0.00000      -0.00000
    14  H(1)              -0.00000      -0.00000      -0.00000      -0.00000
    15  H(1)              -0.00000      -0.00000      -0.00000      -0.00000
    16  H(1)               0.00000       0.00000       0.00000       0.00000
 --------------------------------------------------------
       Center         ----  Spin Dipole Couplings  ----
                      3XX-RR        3YY-RR        3ZZ-RR
 --------------------------------------------------------
     1   Atom       -0.000000      0.000000     -0.000000
     2   Atom       -0.000000      0.000000     -0.000000
     3   Atom        0.000000      0.000000     -0.000000
     4   Atom        0.000000     -0.000000      0.000000
     5   Atom        0.000000     -0.000000     -0.000000
     6   Atom        0.000000     -0.000000     -0.000000
     7   Atom       -0.000000     -0.000000      0.000000
     8   Atom        0.000000     -0.000000      0.000000
     9   Atom       -0.000000     -0.000000      0.000000
    10   Atom        0.000000      0.000000     -0.000000
    11   Atom        0.000000     -0.000000      0.000000
    12   Atom        0.000000     -0.000000     -0.000000
    13   Atom        0.000000     -0.000000      0.000000
    14   Atom        0.000000      0.000000     -0.000000
    15   Atom       -0.000000      0.000000      0.000000
    16   Atom       -0.000000     -0.000000      0.000000
 --------------------------------------------------------
                        XY            XZ            YZ
 --------------------------------------------------------
     1   Atom        0.000000     -0.000000     -0.000000
     2   Atom        0.000000      0.000000     -0.000000
     3   Atom        0.000000      0.000000     -0.000000
     4   Atom        0.000000      0.000000      0.000000
     5   Atom       -0.000000     -0.000000      0.000000
     6   Atom        0.000000     -0.000000      0.000000
     7   Atom        0.000000      0.000000     -0.000000
     8   Atom       -0.000000     -0.000000      0.000000
     9   Atom        0.000000     -0.000000     -0.000000
    10   Atom        0.000000      0.000000     -0.000000
    11   Atom        0.000000      0.000000      0.000000
    12   Atom        0.000000     -0.000000      0.000000
    13   Atom       -0.000000     -0.000000     -0.000000
    14   Atom       -0.000000      0.000000      0.000000
    15   Atom       -0.000000     -0.000000      0.000000
    16   Atom        0.000000      0.000000     -0.000000
 --------------------------------------------------------


 ---------------------------------------------------------------------------------
              Anisotropic Spin Dipole Couplings in Principal Axis System
 ---------------------------------------------------------------------------------

       Atom             a.u.   MegaHertz   Gauss  10(-4) cm-1        Axes

              Baa    -0.0000    -0.000    -0.000    -0.000  0.7823 -0.6222  0.0300
     1 C(13)  Bbb    -0.0000    -0.000    -0.000    -0.000  0.0441  0.1033  0.9937
              Bcc     0.0000     0.000     0.000     0.000  0.6214  0.7760 -0.1082
 
              Baa    -0.0000     0.000     0.000     0.000 -0.0740  0.0132  0.9972
     2 O(17)  Bbb    -0.0000     0.000     0.000     0.000  0.9738 -0.2146  0.0751
              Bcc     0.0000    -0.000    -0.000    -0.000  0.2150  0.9766  0.0030
 
              Baa    -0.0000    -0.000    -0.000    -0.000  0.7377 -0.6730 -0.0532
     3 C(13)  Bbb    -0.0000    -0.000    -0.000    -0.000  0.0318 -0.0441  0.9985
              Bcc     0.0000     0.000     0.000     0.000  0.6744  0.7383  0.0111
 
              Baa    -0.0000    -0.000    -0.000    -0.000 -0.0167  0.9998 -0.0051
     4 C(13)  Bbb     0.0000     0.000     0.000     0.000 -0.0017  0.0051  1.0000
              Bcc     0.0000     0.000     0.000     0.000  0.9999  0.0167  0.0016
 
              Baa    -0.0000    -0.000    -0.000    -0.000  0.5406  0.8413 -0.0038
     5 C(13)  Bbb    -0.0000    -0.000    -0.000    -0.000  0.0048  0.0014  1.0000
              Bcc     0.0000     0.000     0.000     0.000  0.8413 -0.5406 -0.0033
 
              Baa    -0.0000     0.000     0.000     0.000 -0.0613  0.9981 -0.0089
     6 O(17)  Bbb    -0.0000     0.000     0.000     0.000  0.0103  0.0095  0.9999
              Bcc     0.0000    -0.000    -0.000    -0.000  0.9981  0.0612 -0.0109
 
              Baa    -0.0000    -0.000    -0.000    -0.000  0.8562 -0.5166 -0.0022
     7 C(13)  Bbb     0.0000     0.000     0.000     0.000  0.5165  0.8562 -0.0050
              Bcc     0.0000     0.000     0.000     0.000  0.0045  0.0032  1.0000
 
              Baa    -0.0000    -0.000    -0.000    -0.000  0.3166  0.9486 -0.0040
     8 C(13)  Bbb     0.0000     0.000     0.000     0.000  0.0117  0.0003  0.9999
              Bcc     0.0000     0.000     0.000     0.000  0.9485 -0.3166 -0.0110
 
              Baa    -0.0000    -0.000    -0.000    -0.000 -0.6471  0.7624 -0.0003
     9 C(13)  Bbb     0.0000     0.000     0.000     0.000  0.7624  0.6471  0.0117
              Bcc     0.0000     0.000     0.000     0.000 -0.0091 -0.0074  0.9999
 
              Baa    -0.0000     0.000     0.000     0.000 -0.0010  0.0042  1.0000
    10 O(17)  Bbb     0.0000    -0.000    -0.000    -0.000  0.9985 -0.0548  0.0012
              Bcc     0.0000    -0.000    -0.000    -0.000  0.0548  0.9985 -0.0041
 
              Baa    -0.0000    -0.000    -0.000    -0.000 -0.0438  0.9900 -0.1339
    11 H(1)   Bbb    -0.0000    -0.000    -0.000    -0.000  0.8871 -0.0231 -0.4611
              Bcc     0.0000     0.000     0.000     0.000  0.4596  0.1390  0.8772
 
              Baa    -0.0000    -0.000    -0.000    -0.000 -0.4649  0.8832 -0.0624
    12 H(1)   Bbb    -0.0000    -0.000    -0.000    -0.000 -0.0318  0.0538  0.9980
              Bcc     0.0000     0.000     0.000     0.000  0.8848  0.4659  0.0030
 
              Baa    -0.0000    -0.000    -0.000    -0.000  0.0204  0.9977  0.0648
    13 H(1)   Bbb     0.0000     0.000     0.000     0.000  0.9208 -0.0440  0.3876
              Bcc     0.0000     0.000     0.000     0.000 -0.3896 -0.0518  0.9195
 
              Baa    -0.0000    -0.000    -0.000    -0.000 -0.0458 -0.0098  0.9989
    14 H(1)   Bbb     0.0000     0.000     0.000     0.000  0.9576  0.2845  0.0467
              Bcc     0.0000     0.000     0.000     0.000 -0.2846  0.9586 -0.0037
 
              Baa    -0.0000    -0.000    -0.000    -0.000  0.9922  0.1243  0.0055
    15 H(1)   Bbb     0.0000     0.000     0.000     0.000 -0.0052 -0.0032  1.0000
              Bcc     0.0000     0.000     0.000     0.000 -0.1243  0.9922  0.0026
 
              Baa    -0.0000    -0.000    -0.000    -0.000 -0.6501  0.7598  0.0040
    16 H(1)   Bbb     0.0000     0.000     0.000     0.000  0.0155  0.0080  0.9998
              Bcc     0.0000     0.000     0.000     0.000  0.7597  0.6501 -0.0170
 

 ---------------------------------------------------------------------------------

 No NMR shielding tensors so no spin-rotation constants.
 Leave Link  601 at Wed Jan 24 22:48:40 2024, MaxMem=  4026531840 cpu:               8.3 elap:               2.2
 (Enter /sysapps/ubuntu-applications/gaussian/Gaussian/AVX2/g16/l9999.exe)
 1\1\GINC-ACIDSCN022\SP\UB3LYP\6-311++G(d,p)\C7H6O3\SELHAJJ1\24-Jan-202
 4\0\\#P UB3LYP/6-311++G(d,p) SCRF=(PCM,Solvent=n,n-DiMethylFormamide)\
 \Quinone PCM in DMF\\0,1\C,0,2.686904,0.368162,0.49228\O,0,1.729845,-0
 .6666,0.256292\C,0,0.447826,-0.325604,0.118917\C,0,-0.071246,0.923029,
 0.178432\C,0,-1.508321,1.160865,0.008915\O,0,-1.987393,2.285341,0.0606
 5\C,0,-2.386363,-0.018476,-0.231709\C,0,-1.887711,-1.258176,-0.293134\
 C,0,-0.440253,-1.524759,-0.124996\O,0,0.013906,-2.648687,-0.179577\H,0
 ,2.465325,0.895241,1.424834\H,0,3.648231,-0.134138,0.569741\H,0,2.7029
 26,1.077877,-0.339956\H,0,0.532461,1.804043,0.351034\H,0,-3.442558,0.1
 95248,-0.352063\H,0,-2.503579,-2.133366,-0.4671\\Version=ES64L-G16RevA
 .03\State=1-A\HF=-496.1355622\S2=0.\S2-1=0.\S2A=0.\RMSD=4.120e-09\Dipo
 le=0.6865898,0.2868009,0.1215985\Quadrupole=9.6952969,-11.911166,2.215
 8691,11.4073772,2.2310548,0.1116203\PG=C01 [X(C7H6O3)]\\@


 ALL SCIENCE IS EITHER PHYSICS, OR STAMP COLLECTING.
   --ERNEST RUTHERFORD, 1871-1937.
 Job cpu time:       0 days  0 hours  6 minutes 47.0 seconds.
 Elapsed time:       0 days  0 hours  1 minutes  1.8 seconds.
 File lengths (MBytes):  RWF=    110 Int=      0 D2E=      0 Chk=      7 Scr=      1
 Normal termination of Gaussian 16 at Wed Jan 24 22:48:40 2024.
