 Entering Gaussian System, Link 0=g16
 Input=151-an.com
 Output=151-an.log
 Initial command:
 /sysapps/ubuntu-applications/gaussian/Gaussian/AVX2/g16/l1.exe "/scratch/selhajj1/4225107/Gau-3596161.inp" -scrdir="/scratch/selhajj1/4225107/"
 Entering Link 1 = /sysapps/ubuntu-applications/gaussian/Gaussian/AVX2/g16/l1.exe PID=   3596165.
  
 Copyright (c) 1988,1990,1992,1993,1995,1998,2003,2009,2016,
            Gaussian, Inc.  All Rights Reserved.
  
 This is part of the Gaussian(R) 16 program.  It is based on
 the Gaussian(R) 09 system (copyright 2009, Gaussian, Inc.),
 the Gaussian(R) 03 system (copyright 2003, Gaussian, Inc.),
 the Gaussian(R) 98 system (copyright 1998, Gaussian, Inc.),
 the Gaussian(R) 94 system (copyright 1995, Gaussian, Inc.),
 the Gaussian 92(TM) system (copyright 1992, Gaussian, Inc.),
 the Gaussian 90(TM) system (copyright 1990, Gaussian, Inc.),
 the Gaussian 88(TM) system (copyright 1988, Gaussian, Inc.),
 the Gaussian 86(TM) system (copyright 1986, Carnegie Mellon
 University), and the Gaussian 82(TM) system (copyright 1983,
 Carnegie Mellon University). Gaussian is a federally registered
 trademark of Gaussian, Inc.
  
 This software contains proprietary and confidential information,
 including trade secrets, belonging to Gaussian, Inc.
  
 This software is provided under written license and may be
 used, copied, transmitted, or stored only in accord with that
 written license.
  
 The following legend is applicable only to US Government
 contracts under FAR:
  
                    RESTRICTED RIGHTS LEGEND
  
 Use, reproduction and disclosure by the US Government is
 subject to restrictions as set forth in subparagraphs (a)
 and (c) of the Commercial Computer Software - Restricted
 Rights clause in FAR 52.227-19.
  
 Gaussian, Inc.
 340 Quinnipiac St., Bldg. 40, Wallingford CT 06492
  
  
 ---------------------------------------------------------------
 Warning -- This program may not be used in any manner that
 competes with the business of Gaussian, Inc. or will provide
 assistance to any competitor of Gaussian, Inc.  The licensee
 of this program is prohibited from giving any competitor of
 Gaussian, Inc. access to this program.  By using this program,
 the user acknowledges that Gaussian, Inc. is engaged in the
 business of creating and licensing software in the field of
 computational chemistry and represents and warrants to the
 licensee that it is not a competitor of Gaussian, Inc. and that
 it will not use this program in any manner prohibited above.
 ---------------------------------------------------------------
  

 Cite this work as:
 Gaussian 16, Revision A.03,
 M. J. Frisch, G. W. Trucks, H. B. Schlegel, G. E. Scuseria, 
 M. A. Robb, J. R. Cheeseman, G. Scalmani, V. Barone, 
 G. A. Petersson, H. Nakatsuji, X. Li, M. Caricato, A. V. Marenich, 
 J. Bloino, B. G. Janesko, R. Gomperts, B. Mennucci, H. P. Hratchian, 
 J. V. Ortiz, A. F. Izmaylov, J. L. Sonnenberg, D. Williams-Young, 
 F. Ding, F. Lipparini, F. Egidi, J. Goings, B. Peng, A. Petrone, 
 T. Henderson, D. Ranasinghe, V. G. Zakrzewski, J. Gao, N. Rega, 
 G. Zheng, W. Liang, M. Hada, M. Ehara, K. Toyota, R. Fukuda, 
 J. Hasegawa, M. Ishida, T. Nakajima, Y. Honda, O. Kitao, H. Nakai, 
 T. Vreven, K. Throssell, J. A. Montgomery, Jr., J. E. Peralta, 
 F. Ogliaro, M. J. Bearpark, J. J. Heyd, E. N. Brothers, K. N. Kudin, 
 V. N. Staroverov, T. A. Keith, R. Kobayashi, J. Normand, 
 K. Raghavachari, A. P. Rendell, J. C. Burant, S. S. Iyengar, 
 J. Tomasi, M. Cossi, J. M. Millam, M. Klene, C. Adamo, R. Cammi, 
 J. W. Ochterski, R. L. Martin, K. Morokuma, O. Farkas, 
 J. B. Foresman, and D. J. Fox, Gaussian, Inc., Wallingford CT, 2016.
 
 ******************************************
 Gaussian 16:  ES64L-G16RevA.03 25-Dec-2016
                25-Dec-2023 
 ******************************************
 %chk=151-an.chk
 %nproc=8
 Will use up to    8 processors via shared memory.
 %mem=30GB
 ----------------------------------------------
 #P UB3LYP/6-311++G(d,p) nosym opt freq SCF=YQC
 ----------------------------------------------
 1/18=20,19=15,26=3,38=1/1,3;
 2/9=110,12=2,15=1,17=6,18=5,40=1/2;
 3/5=4,6=6,7=1111,11=2,25=1,30=1,71=1,74=-5,116=2/1,2,3;
 4//1;
 5/5=2,8=4,13=1,38=1/8,2,8;
 6/7=2,8=2,9=2,10=2,28=1/1;
 7/30=1/1,2,3,16;
 1/18=20,19=15,26=3/3(2);
 2/9=110,15=1/2;
 99//99;
 2/9=110,15=1/2;
 3/5=4,6=6,7=1111,11=2,25=1,30=1,71=1,74=-5,116=2/1,2,3;
 4/5=5,16=3,69=1/1;
 5/5=2,8=4,13=1,38=1/8,2,8;
 7/30=1/1,2,3,16;
 1/18=20,19=15,26=3/3(-5);
 2/9=110,15=1/2;
 6/7=2,8=2,9=2,10=2,19=2,28=1/1;
 99/9=1/99;
 Leave Link    1 at Mon Dec 25 02:22:34 2023, MaxMem=  4026531840 cpu:               4.3 elap:               0.7
 (Enter /sysapps/ubuntu-applications/gaussian/Gaussian/AVX2/g16/l101.exe)
 -------
 Reduced
 -------
 Symbolic Z-matrix:
 Charge = -2 Multiplicity = 1
 N                    -4.53633  -0.78032  -0.78176 
 C                    -3.23777  -0.58987  -0.23318 
 C                    -3.01936  -0.68246   1.13211 
 C                    -1.77005  -0.50137   1.68161 
 C                    -0.6673   -0.21656   0.89008 
 C                     0.65194  -0.02646   1.48181 
 O                     0.83161  -0.11419   2.72313 
 C                     1.76948   0.27276   0.5714 
 C                     3.0208    0.45574   1.10541 
 C                     4.05638   0.73332   0.25864 
 C                     3.88243   0.83473  -1.11147 
 C                     2.6272    0.65212  -1.65669 
 C                     1.58539   0.3716   -0.79187 
 C                     0.23207   0.17141  -1.34601 
 O                     0.07717   0.2647   -2.59642 
 C                    -0.88369  -0.12424  -0.46867 
 C                    -2.13648  -0.30606  -1.01735 
 H                    -5.42238  -0.47359  -0.32545 
 H                    -4.62935  -1.25788  -1.70347 
 H                    -3.88148  -0.90654   1.76538 
 H                    -1.60082  -0.5743    2.75167 
 H                     3.13543   0.37221   2.17897 
 H                     5.05903   0.88192   0.6663 
 H                     4.71742   1.05444  -1.75221 
 H                     2.44406   0.72226  -2.72503 
 H                    -2.30541  -0.23338  -2.08427 
 
 ITRead=  0  0  0  0  0  0  0  0  0  0  0  0  0  0  0  0  0  0  0  0
 ITRead=  0  0  0  0  0  0
 MicOpt= -1 -1 -1 -1 -1 -1 -1 -1 -1 -1 -1 -1 -1 -1 -1 -1 -1 -1 -1 -1
 MicOpt= -1 -1 -1 -1 -1 -1
 NAtoms=     26 NQM=       26 NQMF=       0 NMMI=      0 NMMIF=      0
                NMic=       0 NMicF=      0.
                    Isotopes and Nuclear Properties:
 (Nuclear quadrupole moments (NQMom) in fm**2, nuclear magnetic moments (NMagM)
  in nuclear magnetons)

  Atom         1           2           3           4           5           6           7           8           9          10
 IAtWgt=          14          12          12          12          12          12          16          12          12          12
 AtmWgt=  14.0030740  12.0000000  12.0000000  12.0000000  12.0000000  12.0000000  15.9949146  12.0000000  12.0000000  12.0000000
 NucSpn=           2           0           0           0           0           0           0           0           0           0
 AtZEff=  -0.0000000  -0.0000000  -0.0000000  -0.0000000  -0.0000000  -0.0000000  -0.0000000  -0.0000000  -0.0000000  -0.0000000
 NQMom=    2.0440000   0.0000000   0.0000000   0.0000000   0.0000000   0.0000000   0.0000000   0.0000000   0.0000000   0.0000000
 NMagM=    0.4037610   0.0000000   0.0000000   0.0000000   0.0000000   0.0000000   0.0000000   0.0000000   0.0000000   0.0000000
 AtZNuc=   7.0000000   6.0000000   6.0000000   6.0000000   6.0000000   6.0000000   8.0000000   6.0000000   6.0000000   6.0000000

  Atom        11          12          13          14          15          16          17          18          19          20
 IAtWgt=          12          12          12          12          16          12          12           1           1           1
 AtmWgt=  12.0000000  12.0000000  12.0000000  12.0000000  15.9949146  12.0000000  12.0000000   1.0078250   1.0078250   1.0078250
 NucSpn=           0           0           0           0           0           0           0           1           1           1
 AtZEff=  -0.0000000  -0.0000000  -0.0000000  -0.0000000  -0.0000000  -0.0000000  -0.0000000  -0.0000000  -0.0000000  -0.0000000
 NQMom=    0.0000000   0.0000000   0.0000000   0.0000000   0.0000000   0.0000000   0.0000000   0.0000000   0.0000000   0.0000000
 NMagM=    0.0000000   0.0000000   0.0000000   0.0000000   0.0000000   0.0000000   0.0000000   2.7928460   2.7928460   2.7928460
 AtZNuc=   6.0000000   6.0000000   6.0000000   6.0000000   8.0000000   6.0000000   6.0000000   1.0000000   1.0000000   1.0000000

  Atom        21          22          23          24          25          26
 IAtWgt=           1           1           1           1           1           1
 AtmWgt=   1.0078250   1.0078250   1.0078250   1.0078250   1.0078250   1.0078250
 NucSpn=           1           1           1           1           1           1
 AtZEff=  -0.0000000  -0.0000000  -0.0000000  -0.0000000  -0.0000000  -0.0000000
 NQMom=    0.0000000   0.0000000   0.0000000   0.0000000   0.0000000   0.0000000
 NMagM=    2.7928460   2.7928460   2.7928460   2.7928460   2.7928460   2.7928460
 AtZNuc=   1.0000000   1.0000000   1.0000000   1.0000000   1.0000000   1.0000000
 Leave Link  101 at Mon Dec 25 02:22:35 2023, MaxMem=  4026531840 cpu:               6.5 elap:               1.1
 (Enter /sysapps/ubuntu-applications/gaussian/Gaussian/AVX2/g16/l103.exe)

 GradGradGradGradGradGradGradGradGradGradGradGradGradGradGradGradGradGrad
 Berny optimization.
 Initialization pass.
                           ----------------------------
                           !    Initial Parameters    !
                           ! (Angstroms and Degrees)  !
 --------------------------                            --------------------------
 ! Name  Definition              Value          Derivative Info.                !
 --------------------------------------------------------------------------------
 ! R1    R(1,2)                  1.4225         estimate D2E/DX2                !
 ! R2    R(1,18)                 1.0428         estimate D2E/DX2                !
 ! R3    R(1,19)                 1.0422         estimate D2E/DX2                !
 ! R4    R(2,3)                  1.3858         estimate D2E/DX2                !
 ! R5    R(2,17)                 1.3814         estimate D2E/DX2                !
 ! R6    R(3,4)                  1.3768         estimate D2E/DX2                !
 ! R7    R(3,20)                 1.0929         estimate D2E/DX2                !
 ! R8    R(4,5)                  1.387          estimate D2E/DX2                !
 ! R9    R(4,21)                 1.0858         estimate D2E/DX2                !
 ! R10   R(5,6)                  1.4583         estimate D2E/DX2                !
 ! R11   R(5,16)                 1.379          estimate D2E/DX2                !
 ! R12   R(6,7)                  1.2573         estimate D2E/DX2                !
 ! R13   R(6,8)                  1.4722         estimate D2E/DX2                !
 ! R14   R(8,9)                  1.3727         estimate D2E/DX2                !
 ! R15   R(8,13)                 1.3792         estimate D2E/DX2                !
 ! R16   R(9,10)                 1.3662         estimate D2E/DX2                !
 ! R17   R(9,22)                 1.0829         estimate D2E/DX2                !
 ! R18   R(10,11)                1.3848         estimate D2E/DX2                !
 ! R19   R(10,23)                1.0925         estimate D2E/DX2                !
 ! R20   R(11,12)                1.3807         estimate D2E/DX2                !
 ! R21   R(11,24)                1.0752         estimate D2E/DX2                !
 ! R22   R(12,13)                1.3827         estimate D2E/DX2                !
 ! R23   R(12,25)                1.0862         estimate D2E/DX2                !
 ! R24   R(13,14)                1.476          estimate D2E/DX2                !
 ! R25   R(14,15)                1.2634         estimate D2E/DX2                !
 ! R26   R(14,16)                1.4498         estimate D2E/DX2                !
 ! R27   R(16,17)                1.3797         estimate D2E/DX2                !
 ! R28   R(17,26)                1.0827         estimate D2E/DX2                !
 ! A1    A(2,1,18)             124.5787         estimate D2E/DX2                !
 ! A2    A(2,1,19)             118.9382         estimate D2E/DX2                !
 ! A3    A(18,1,19)            116.483          estimate D2E/DX2                !
 ! A4    A(1,2,3)              120.9899         estimate D2E/DX2                !
 ! A5    A(1,2,17)             122.4359         estimate D2E/DX2                !
 ! A6    A(3,2,17)             116.5742         estimate D2E/DX2                !
 ! A7    A(2,3,4)              121.8336         estimate D2E/DX2                !
 ! A8    A(2,3,20)             117.4029         estimate D2E/DX2                !
 ! A9    A(4,3,20)             120.7635         estimate D2E/DX2                !
 ! A10   A(3,4,5)              121.3795         estimate D2E/DX2                !
 ! A11   A(3,4,21)             121.7301         estimate D2E/DX2                !
 ! A12   A(5,4,21)             116.8904         estimate D2E/DX2                !
 ! A13   A(4,5,6)              120.9611         estimate D2E/DX2                !
 ! A14   A(4,5,16)             116.8272         estimate D2E/DX2                !
 ! A15   A(6,5,16)             122.2118         estimate D2E/DX2                !
 ! A16   A(5,6,7)              121.3844         estimate D2E/DX2                !
 ! A17   A(5,6,8)              117.5343         estimate D2E/DX2                !
 ! A18   A(7,6,8)              121.0812         estimate D2E/DX2                !
 ! A19   A(6,8,9)              118.5861         estimate D2E/DX2                !
 ! A20   A(6,8,13)             121.6358         estimate D2E/DX2                !
 ! A21   A(9,8,13)             119.7781         estimate D2E/DX2                !
 ! A22   A(8,9,10)             118.4844         estimate D2E/DX2                !
 ! A23   A(8,9,22)             118.1563         estimate D2E/DX2                !
 ! A24   A(10,9,22)            123.3593         estimate D2E/DX2                !
 ! A25   A(9,10,11)            122.1999         estimate D2E/DX2                !
 ! A26   A(9,10,23)            119.4735         estimate D2E/DX2                !
 ! A27   A(11,10,23)           118.3266         estimate D2E/DX2                !
 ! A28   A(10,11,12)           119.6845         estimate D2E/DX2                !
 ! A29   A(10,11,24)           120.4647         estimate D2E/DX2                !
 ! A30   A(12,11,24)           119.8509         estimate D2E/DX2                !
 ! A31   A(11,12,13)           117.6994         estimate D2E/DX2                !
 ! A32   A(11,12,25)           122.2193         estimate D2E/DX2                !
 ! A33   A(13,12,25)           120.0814         estimate D2E/DX2                !
 ! A34   A(8,13,12)            122.1537         estimate D2E/DX2                !
 ! A35   A(8,13,14)            118.9312         estimate D2E/DX2                !
 ! A36   A(12,13,14)           118.9151         estimate D2E/DX2                !
 ! A37   A(13,14,15)           118.2915         estimate D2E/DX2                !
 ! A38   A(13,14,16)           120.4028         estimate D2E/DX2                !
 ! A39   A(15,14,16)           121.3057         estimate D2E/DX2                !
 ! A40   A(5,16,14)            119.2841         estimate D2E/DX2                !
 ! A41   A(5,16,17)            121.703          estimate D2E/DX2                !
 ! A42   A(14,16,17)           119.0128         estimate D2E/DX2                !
 ! A43   A(2,17,16)            121.6824         estimate D2E/DX2                !
 ! A44   A(2,17,26)            116.6673         estimate D2E/DX2                !
 ! A45   A(16,17,26)           121.6503         estimate D2E/DX2                !
 ! D1    D(18,1,2,3)            36.1713         estimate D2E/DX2                !
 ! D2    D(18,1,2,17)         -143.8291         estimate D2E/DX2                !
 ! D3    D(19,1,2,3)          -143.8277         estimate D2E/DX2                !
 ! D4    D(19,1,2,17)           36.1719         estimate D2E/DX2                !
 ! D5    D(1,2,3,4)            179.9997         estimate D2E/DX2                !
 ! D6    D(1,2,3,20)            -0.0003         estimate D2E/DX2                !
 ! D7    D(17,2,3,4)             0.0001         estimate D2E/DX2                !
 ! D8    D(17,2,3,20)         -180.0            estimate D2E/DX2                !
 ! D9    D(1,2,17,16)         -179.9997         estimate D2E/DX2                !
 ! D10   D(1,2,17,26)            0.0005         estimate D2E/DX2                !
 ! D11   D(3,2,17,16)           -0.0001         estimate D2E/DX2                !
 ! D12   D(3,2,17,26)         -179.9999         estimate D2E/DX2                !
 ! D13   D(2,3,4,5)              0.0            estimate D2E/DX2                !
 ! D14   D(2,3,4,21)          -179.9999         estimate D2E/DX2                !
 ! D15   D(20,3,4,5)          -179.9999         estimate D2E/DX2                !
 ! D16   D(20,3,4,21)            0.0002         estimate D2E/DX2                !
 ! D17   D(3,4,5,6)           -179.9999         estimate D2E/DX2                !
 ! D18   D(3,4,5,16)            -0.0001         estimate D2E/DX2                !
 ! D19   D(21,4,5,6)             0.0            estimate D2E/DX2                !
 ! D20   D(21,4,5,16)          179.9998         estimate D2E/DX2                !
 ! D21   D(4,5,6,7)             -0.0003         estimate D2E/DX2                !
 ! D22   D(4,5,6,8)            179.9998         estimate D2E/DX2                !
 ! D23   D(16,5,6,7)           179.9999         estimate D2E/DX2                !
 ! D24   D(16,5,6,8)             0.0            estimate D2E/DX2                !
 ! D25   D(4,5,16,14)         -179.9998         estimate D2E/DX2                !
 ! D26   D(4,5,16,17)            0.0001         estimate D2E/DX2                !
 ! D27   D(6,5,16,14)            0.0            estimate D2E/DX2                !
 ! D28   D(6,5,16,17)          179.9999         estimate D2E/DX2                !
 ! D29   D(5,6,8,9)           -179.9998         estimate D2E/DX2                !
 ! D30   D(5,6,8,13)             0.0            estimate D2E/DX2                !
 ! D31   D(7,6,8,9)              0.0003         estimate D2E/DX2                !
 ! D32   D(7,6,8,13)          -179.9999         estimate D2E/DX2                !
 ! D33   D(6,8,9,10)           179.9996         estimate D2E/DX2                !
 ! D34   D(6,8,9,22)            -0.0007         estimate D2E/DX2                !
 ! D35   D(13,8,9,10)           -0.0002         estimate D2E/DX2                !
 ! D36   D(13,8,9,22)          179.9995         estimate D2E/DX2                !
 ! D37   D(6,8,13,12)         -179.9998         estimate D2E/DX2                !
 ! D38   D(6,8,13,14)            0.0            estimate D2E/DX2                !
 ! D39   D(9,8,13,12)            0.0            estimate D2E/DX2                !
 ! D40   D(9,8,13,14)          179.9998         estimate D2E/DX2                !
 ! D41   D(8,9,10,11)            0.0003         estimate D2E/DX2                !
 ! D42   D(8,9,10,23)          179.9998         estimate D2E/DX2                !
 ! D43   D(22,9,10,11)        -179.9994         estimate D2E/DX2                !
 ! D44   D(22,9,10,23)           0.0001         estimate D2E/DX2                !
 ! D45   D(9,10,11,12)          -0.0002         estimate D2E/DX2                !
 ! D46   D(9,10,11,24)         179.9998         estimate D2E/DX2                !
 ! D47   D(23,10,11,12)       -179.9997         estimate D2E/DX2                !
 ! D48   D(23,10,11,24)          0.0002         estimate D2E/DX2                !
 ! D49   D(10,11,12,13)          0.0            estimate D2E/DX2                !
 ! D50   D(10,11,12,25)       -179.9996         estimate D2E/DX2                !
 ! D51   D(24,11,12,13)       -180.0            estimate D2E/DX2                !
 ! D52   D(24,11,12,25)          0.0005         estimate D2E/DX2                !
 ! D53   D(11,12,13,8)           0.0001         estimate D2E/DX2                !
 ! D54   D(11,12,13,14)       -179.9997         estimate D2E/DX2                !
 ! D55   D(25,12,13,8)         179.9997         estimate D2E/DX2                !
 ! D56   D(25,12,13,14)         -0.0001         estimate D2E/DX2                !
 ! D57   D(8,13,14,15)         179.9997         estimate D2E/DX2                !
 ! D58   D(8,13,14,16)           0.0            estimate D2E/DX2                !
 ! D59   D(12,13,14,15)         -0.0004         estimate D2E/DX2                !
 ! D60   D(12,13,14,16)        179.9998         estimate D2E/DX2                !
 ! D61   D(13,14,16,5)           0.0            estimate D2E/DX2                !
 ! D62   D(13,14,16,17)       -179.9999         estimate D2E/DX2                !
 ! D63   D(15,14,16,5)        -179.9997         estimate D2E/DX2                !
 ! D64   D(15,14,16,17)          0.0004         estimate D2E/DX2                !
 ! D65   D(5,16,17,2)            0.0            estimate D2E/DX2                !
 ! D66   D(5,16,17,26)         179.9998         estimate D2E/DX2                !
 ! D67   D(14,16,17,2)         179.9999         estimate D2E/DX2                !
 ! D68   D(14,16,17,26)         -0.0003         estimate D2E/DX2                !
 --------------------------------------------------------------------------------
 Trust Radius=3.00D-01 FncErr=1.00D-07 GrdErr=1.00D-06 EigMax=2.50D+02 EigMin=1.00D-04
 Number of steps in this run=    151 maximum allowed number of steps=    156.
 GradGradGradGradGradGradGradGradGradGradGradGradGradGradGradGradGradGrad

 Leave Link  103 at Mon Dec 25 02:22:35 2023, MaxMem=  4026531840 cpu:               0.5 elap:               0.3
 (Enter /sysapps/ubuntu-applications/gaussian/Gaussian/AVX2/g16/l202.exe)
                          Input orientation:                          
 ---------------------------------------------------------------------
 Center     Atomic      Atomic             Coordinates (Angstroms)
 Number     Number       Type             X           Y           Z
 ---------------------------------------------------------------------
      1          7           0       -4.536333   -0.780321   -0.781758
      2          6           0       -3.237768   -0.589874   -0.233180
      3          6           0       -3.019362   -0.682461    1.132115
      4          6           0       -1.770050   -0.501370    1.681611
      5          6           0       -0.667295   -0.216559    0.890079
      6          6           0        0.651940   -0.026459    1.481813
      7          8           0        0.831608   -0.114189    2.723126
      8          6           0        1.769484    0.272765    0.571398
      9          6           0        3.020796    0.455741    1.105415
     10          6           0        4.056382    0.733319    0.258642
     11          6           0        3.882426    0.834734   -1.111468
     12          6           0        2.627196    0.652121   -1.656694
     13          6           0        1.585390    0.371603   -0.791870
     14          6           0        0.232067    0.171414   -1.346009
     15          8           0        0.077173    0.264699   -2.596418
     16          6           0       -0.883690   -0.124237   -0.468672
     17          6           0       -2.136477   -0.306061   -1.017354
     18          1           0       -5.422378   -0.473593   -0.325448
     19          1           0       -4.629351   -1.257884   -1.703465
     20          1           0       -3.881478   -0.906536    1.765379
     21          1           0       -1.600819   -0.574305    2.751674
     22          1           0        3.135434    0.372213    2.178968
     23          1           0        5.059031    0.881918    0.666300
     24          1           0        4.717424    1.054438   -1.752207
     25          1           0        2.444057    0.722263   -2.725029
     26          1           0       -2.305407   -0.233378   -2.084274
 ---------------------------------------------------------------------
                    Distance matrix (angstroms):
                    1          2          3          4          5
     1  N    0.000000
     2  C    1.422490   0.000000
     3  C    2.444113   1.385751   0.000000
     4  C    3.714610   2.414220   1.376779   0.000000
     5  C    4.252332   2.829913   2.409951   1.386978   0.000000
     6  C    5.710538   4.288178   3.745809   2.476186   1.458310
     7  O    6.445365   5.052311   4.205261   2.829008   2.370074
     8  C    6.534780   5.144324   4.915272   3.789479   2.505771
     9  C    7.886664   6.484965   6.146521   4.919377   3.755046
    10  C    8.786825   7.429493   7.268669   6.123448   4.859435
    11  C    8.578614   7.314237   7.414190   6.444916   5.080489
    12  C    7.357551   6.161716   6.437560   5.640088   4.253743
    13  C    6.229167   4.949690   5.100638   4.259010   2.872191
    14  C    4.895081   3.722594   4.176361   3.691557   2.441202
    15  O    5.066507   4.159810   4.938380   4.722354   3.597430
    16  C    3.724281   2.411215   2.726761   2.356179   1.378969
    17  C    2.457588   1.381420   2.354013   2.730719   2.409317
    18  H    1.042773   2.189646   2.818262   4.167560   4.914711
    19  H    1.042239   2.131778   3.311147   4.495182   4.848579
    20  H    2.632997   2.123412   1.092921   2.151582   3.401939
    21  H    4.598350   3.404291   2.155674   1.085814   2.113051
    22  H    8.303628   6.881989   6.331646   5.007422   4.058156
    23  H    9.845351   8.474203   8.241644   7.041356   5.835027
    24  H    9.483678   8.264157   8.437653   7.503264   6.131257
    25  H    7.399994   6.341463   6.833722   6.218879   4.861164
    26  H    2.640592   2.103077   3.325141   3.813177   3.395654
                    6          7          8          9         10
     6  C    0.000000
     7  O    1.257313   0.000000
     8  C    1.472173   2.378923   0.000000
     9  C    2.446563   2.781071   1.372748   0.000000
    10  C    3.696436   4.146218   2.353685   1.366204   0.000000
    11  C    4.231170   4.991198   2.759053   2.408446   1.384827
    12  C    3.769924   4.795226   2.417431   2.796914   2.391167
    13  C    2.489863   3.627586   1.379188   2.380580   2.709283
    14  C    2.865663   4.122969   2.459750   3.723886   4.185215
    15  O    4.128813   5.386118   3.591523   4.733389   4.919865
    16  C    2.484374   3.623524   2.877271   4.249604   5.066429
    17  C    3.754901   4.778863   4.256254   5.628850   6.407806
    18  H    6.353224   6.966729   7.285894   8.613838   9.573123
    19  H    6.289232   7.122136   6.961535   8.327729   9.124512
    20  H    4.626751   4.874245   5.894888   7.066309   8.244331
    21  H    2.643408   2.475727   4.102447   5.013032   6.318941
    22  H    2.610116   2.416673   2.111869   1.082884   2.160139
    23  H    4.573037   4.805608   3.346819   2.128110   1.092507
    24  H    5.306165   6.041015   3.834124   3.376831   2.140936
    25  H    4.633550   5.742999   3.394633   3.882777   3.391461
    26  H    4.637423   5.741616   4.890143   6.246393   6.848074
                   11         12         13         14         15
    11  C    0.000000
    12  C    1.380660   0.000000
    13  C    2.364954   1.382740   0.000000
    14  C    3.717543   2.462569   1.476018   0.000000
    15  O    4.124314   2.745140   2.354260   1.263415   0.000000
    16  C    4.903945   3.786878   2.539030   1.449843   2.366819
    17  C    6.126783   4.900964   3.789771   2.438442   2.778391
    18  H    9.429152   8.236205   7.073946   5.781896   5.995618
    19  H    8.785207   7.503851   6.489164   5.079769   5.026628
    20  H    8.460879   7.516836   6.169263   5.269152   6.005662
    21  H    6.853848   6.230083   4.858331   4.550448   5.667598
    22  H    3.405715   3.879299   3.350898   4.571140   5.671757
    23  H    2.132390   3.370895   3.801693   5.277669   5.987086
    24  H    1.075193   2.130736   3.346364   4.589462   4.782082
    25  H    2.164517   1.086186   2.144149   2.664213   2.414135
    26  H    6.354249   5.029662   4.144226   2.673512   2.487380
                   16         17         18         19         20
    16  C    0.000000
    17  C    1.379705   0.000000
    18  H    4.554365   3.362134   0.000000
    19  H    4.103638   2.755202   1.772832   0.000000
    20  H    3.819647   3.339042   2.633130   3.565900   0.000000
    21  H    3.329784   3.816340   4.907457   5.430244   2.506902
    22  H    4.838370   6.202385   8.956764   8.833028   7.144459
    23  H    6.133225   7.484740  10.615126  10.200946   9.183640
    24  H    5.865938   7.026161  10.353072   9.628677   9.495259
    25  H    4.108724   4.995488   8.310768   7.416042   7.926484
    26  H    2.154845   1.082653   3.587015   2.568141   4.213902
                   21         22         23         24         25
    21  H    0.000000
    22  H    4.863741   0.000000
    23  H    7.129024   2.499639   0.000000
    24  H    7.928300   4.292117   2.448599   0.000000
    25  H    6.930829   4.964849   4.285405   2.494979   0.000000
    26  H    4.898884   6.938639   7.940056   7.147650   4.886842
                   26
    26  H    0.000000
 Symmetry turned off by external request.
 Stoichiometry    C14H9NO2(2-)
 Framework group  C1[X(C14H9NO2)]
 Deg. of freedom    72
 Full point group                 C1      NOp   1
 Rotational constants (GHZ):           1.0738431           0.3429556           0.2600856
 Leave Link  202 at Mon Dec 25 02:22:36 2023, MaxMem=  4026531840 cpu:               0.6 elap:               0.3
 (Enter /sysapps/ubuntu-applications/gaussian/Gaussian/AVX2/g16/l301.exe)
 Standard basis: 6-311++G(d,p) (5D, 7F)
 Ernie: Thresh=  0.10000D-02 Tol=  0.10000D-05 Strict=F.
   437 basis functions,   693 primitive gaussians,   454 cartesian basis functions
    59 alpha electrons       59 beta electrons
       nuclear repulsion energy      1094.8774901367 Hartrees.
 IExCor=  402 DFT=T Ex+Corr=B3LYP ExCW=0 ScaHFX=  0.200000
 ScaDFX=  0.800000  0.720000  1.000000  0.810000 ScalE2=  1.000000  1.000000
 IRadAn=      5 IRanWt=     -1 IRanGd=            0 ICorTp=0 IEmpDi=  4
 NAtoms=   26 NActive=   26 NUniq=   26 SFac= 1.00D+00 NAtFMM=   60 NAOKFM=F Big=F
 Integral buffers will be    131072 words long.
 Raffenetti 2 integral format.
 Two-electron integral symmetry is turned off.
 Leave Link  301 at Mon Dec 25 02:22:36 2023, MaxMem=  4026531840 cpu:               1.8 elap:               0.5
 (Enter /sysapps/ubuntu-applications/gaussian/Gaussian/AVX2/g16/l302.exe)
 NPDir=0 NMtPBC=     1 NCelOv=     1 NCel=       1 NClECP=     1 NCelD=      1
         NCelK=      1 NCelE2=     1 NClLst=     1 CellRange=     0.0.
 One-electron integrals computed using PRISM.
 NBasis=   437 RedAO= T EigKep=  1.39D-06  NBF=   437
 NBsUse=   430 1.00D-06 EigRej=  7.59D-07 NBFU=   430
 Precomputing XC quadrature grid using
 IXCGrd= 4 IRadAn=           5 IRanWt=          -1 IRanGd=           0 AccXCQ= 0.00D+00.
 Generated NRdTot=       0 NPtTot=           0 NUsed=           0 NTot=          32
 NSgBfM=   453   453   453   453   453 MxSgAt=    26 MxSgA2=    26.
 Leave Link  302 at Mon Dec 25 02:22:37 2023, MaxMem=  4026531840 cpu:               5.6 elap:               1.0
 (Enter /sysapps/ubuntu-applications/gaussian/Gaussian/AVX2/g16/l303.exe)
 DipDrv:  MaxL=1.
 Leave Link  303 at Mon Dec 25 02:22:38 2023, MaxMem=  4026531840 cpu:               1.5 elap:               0.5
 (Enter /sysapps/ubuntu-applications/gaussian/Gaussian/AVX2/g16/l401.exe)
 ExpMin= 3.60D-02 ExpMax= 8.59D+03 ExpMxC= 1.30D+03 IAcc=3 IRadAn=         5 AccDes= 0.00D+00
 Harris functional with IExCor=  402 and IRadAn=       5 diagonalized for initial guess.
 HarFok:  IExCor=  402 AccDes= 0.00D+00 IRadAn=         5 IDoV= 1 UseB2=F ITyADJ=14
 ICtDFT=  3500011 ScaDFX=  1.000000  1.000000  1.000000  1.000000
 FoFCou: FMM=F IPFlag=           0 FMFlag=      100000 FMFlg1=           0
         NFxFlg=           0 DoJE=T BraDBF=F KetDBF=T FulRan=T
         wScrn=  0.000000 ICntrl=       500 IOpCl=  0 I1Cent=   200000004 NGrid=           0
         NMat0=    1 NMatS0=      1 NMatT0=    0 NMatD0=    1 NMtDS0=    0 NMtDT0=    0
 Symmetry not used in FoFCou.
 Harris En= -744.797808541251    
 JPrj=0 DoOrth=F DoCkMO=F.
 Initial guess <Sx>= 0.0000 <Sy>= 0.0000 <Sz>= 0.0000 <S**2>=-0.0000 S=-0.0000
 Leave Link  401 at Mon Dec 25 02:22:41 2023, MaxMem=  4026531840 cpu:              18.3 elap:               2.6
 (Enter /sysapps/ubuntu-applications/gaussian/Gaussian/AVX2/g16/l508.exe)
 Two-electron integral symmetry not used.
 Tight linear equation convergence will be used.
 UB3LYP wavefunction.
 Linear searches until partial convergence.
 Full line searches.
 Fock matrices will be formed incrementally for  20 cycles.
 FoFJK:  IHMeth= 1 ICntrl=       0 DoSepK=F KAlg= 0 I1Cent=           0 FoldK=F
 IRaf= 860000000 NMat=       1 IRICut=       1 DoRegI=T DoRafI=F ISym2E= 0 IDoP0=0 IntGTp=1.
 FoFCou: FMM=F IPFlag=           0 FMFlag=      100000 FMFlg1=           0
         NFxFlg=           0 DoJE=F BraDBF=F KetDBF=F FulRan=T
         wScrn=  0.000000 ICntrl=         0 IOpCl=  1 I1Cent=           0 NGrid=           0
         NMat0=    1 NMatS0=      1 NMatT0=    0 NMatD0=    1 NMtDS0=    0 NMtDT0=    0
 Symmetry not used in FoFCou.
 Iteration   1 EE= -743.586442464164                                    Grad=1.180D+00 Max rot=    4.4033 deg.
 Gradient too large for Newton-Raphson -- use scaled steepest descent instead.
 Alpha Gap=     0.026 HL deriv= 8.16D-02
  Beta Gap=     0.026 HL deriv= 8.16D-02
     ILin= 1 X=0.000D+00 Y=-7.435864424642D+02 DE= 0.00D+00 F= -3.86D+00
 RMSU=  1.16D-01    CP:  2.07D+00
     ILin= 2 X=3.000D-01 Y=-7.441883980028D+02 DE=-6.02D-01 F= -8.26D-03
 RMSU=  1.37D-02    CP:  2.77D+00  1.60D+00
     ILin= 3 X=4.000D-01 Y=-7.441171519692D+02 DE=-5.31D-01 F=  1.44D+00
     An  expanding polynomial of degree  3 produced  0.2976
     Minimum is close to point  2 DX= -2.41D-03 DF= -3.94D-05 DXR=  8.09D-03 DFR=  6.54D-05 which will be used.
 Iteration   2 EE= -744.188398002805     Delta-E=       -0.601955538641 Grad=3.477D-01 Max rot=    1.3383 deg.
 Gradient too large for Newton-Raphson -- use scaled steepest descent instead.
 Alpha Gap=     0.076 HL deriv= 3.32D-02
  Beta Gap=     0.076 HL deriv= 3.32D-02
     ILin= 1 X=0.000D+00 Y=-7.441883980028D+02 DE= 0.00D+00 F= -2.13D-01
 RMSU=  8.54D-03    CP:  1.79D+00  7.47D-01 -4.27D-01
     ILin= 2 X=3.000D-01 Y=-7.442317082330D+02 DE=-4.33D-02 F= -7.67D-02
 RMSU=  1.67D-03    CP:  1.64D+00  5.92D-01 -5.72D-01  1.60D+00
     ILin= 3 X=5.000D-01 Y=-7.442381738987D+02 DE=-4.98D-02 F=  1.17D-02
 RMSU=  4.01D-03    CP:  1.43D+00  3.19D-01 -5.29D-01  2.63D+00  3.00D+00
     ILin= 4 X=9.000D-01 Y=-7.441992177328D+02 DE=-1.08D-02 F=  1.82D-01
     An  expanding polynomial of degree  4 produced  0.4734
     Minimum is close to point  3 DX= -2.66D-02 DF= -1.54D-04 DXR=  5.62D-02 DFR=  3.10D-03 which will be used.
 Iteration   3 EE= -744.238173898700     Delta-E=       -0.049775895895 Grad=1.828D-01 Max rot=    0.8176 deg.
 Gradient too large for Newton-Raphson -- use scaled steepest descent instead.
 Alpha Gap=     0.061 HL deriv= 5.46D-02
  Beta Gap=     0.061 HL deriv= 5.46D-02
     ILin= 1 X=0.000D+00 Y=-7.442381738987D+02 DE= 0.00D+00 F= -7.79D-02
 RMSU=  8.01D-03    CP:  1.49D+00  4.68D-01 -8.48D-01  1.72D+00  3.00D+00
                    CP:  4.07D-01
     ILin= 2 X=4.000D-01 Y=-7.442500384228D+02 DE=-1.19D-02 F=  1.92D-02
     Accept linear search using points  1 and  2.
     An  expanding polynomial of degree  2 produced  0.2151
 RMSU=  2.18D-04    CP:  1.56D+00  5.24D-01 -7.38D-01  1.67D+00  2.55D+00
                    CP:  9.79D-03  5.58D-01
 Iteration   4 EE= -744.249383738802     Delta-E=       -0.011209840102 Grad=9.727D-02 Max rot=    0.4845 deg.
 Gradient too large for Newton-Raphson -- use scaled steepest descent instead.
 Alpha Gap=     0.069 HL deriv= 1.04D-02
  Beta Gap=     0.069 HL deriv= 1.04D-02
     ILin= 1 X=0.000D+00 Y=-7.442493837388D+02 DE= 0.00D+00 F= -1.48D-02
 RMSU=  2.22D-03    CP:  1.40D+00  3.57D-01 -7.32D-01  1.94D+00  3.00D+00
                    CP:  1.46D+00  9.49D-01 -3.00D+00
     ILin= 2 X=5.000D-01 Y=-7.442544872116D+02 DE=-5.10D-03 F= -5.53D-03
 RMSU=  1.32D-03    CP:  1.33D+00  2.69D-01 -6.40D-01  2.10D+00  3.00D+00
                    CP:  2.62D+00  1.12D+00 -3.00D+00  1.69D+00
     ILin= 3 X=8.000D-01 Y=-7.442552951682D+02 DE=-5.91D-03 F=  1.61D-04
 RMSU=  1.19D-02    CP:  1.26D+00  1.00D-01 -1.66D-01  2.44D+00  3.00D+00
                    CP:  3.00D+00  1.35D+00 -3.00D+00  3.00D+00  3.00D+00
     ILin= 4 X=1.500D+00 Y=-7.442504483709D+02 DE=-1.06D-03 F=  1.38D-02
     An  expanding polynomial of degree  4 produced  0.7916
     Minimum is close to point  3 DX= -8.40D-03 DF= -6.74D-07 DXR=  1.06D-02 DFR=  1.14D-04 which will be used.
 Iteration   5 EE= -744.255295168187     Delta-E=       -0.005911429385 Grad=5.121D-02 Max rot=    0.2025 deg.
 Gradient too large for Newton-Raphson -- use scaled steepest descent instead.
 Alpha Gap=     0.073 HL deriv= 6.36D-03
  Beta Gap=     0.073 HL deriv= 6.36D-03
     ILin= 1 X=0.000D+00 Y=-7.442552951682D+02 DE= 0.00D+00 F= -7.59D-03
 RMSU=  1.35D-03    CP:  1.29D+00  1.96D-01 -4.09D-01  2.19D+00  3.00D+00
                    CP:  3.00D+00  1.04D+00 -3.00D+00  3.00D+00  2.12D+00
                    CP:  3.06D-01
     ILin= 2 X=4.000D-01 Y=-7.442564835577D+02 DE=-1.19D-03 F=  1.63D-03
     Accept linear search using points  1 and  2.
     An  expanding polynomial of degree  2 produced  0.2153
 RMSU=  1.79D-04    CP:  1.31D+00  2.29D-01 -5.21D-01  2.15D+00  3.00D+00
                    CP:  3.00D+00  1.08D+00 -3.00D+00  2.47D+00  1.55D+00
                    CP:  9.93D-02  4.29D-01
 Iteration   6 EE= -744.256393386383     Delta-E=       -0.001098218197 Grad=2.043D-02 Max rot=    0.1294 deg.
 Gradient too large for Newton-Raphson -- use scaled steepest descent instead.
 Alpha Gap=     0.071 HL deriv= 1.48D-03
  Beta Gap=     0.071 HL deriv= 1.48D-03
     ILin= 1 X=0.000D+00 Y=-7.442563933864D+02 DE= 0.00D+00 F= -1.53D-03
 RMSU=  3.77D-03    CP:  1.26D+00  1.26D-01 -1.28D-01  2.29D+00  3.00D+00
                    CP:  3.00D+00  1.09D+00 -3.00D+00  3.00D+00  3.00D+00
                    CP:  1.00D+00  1.73D+00 -3.00D+00
     ILin= 2 X=8.000D-01 Y=-7.442571191148D+02 DE=-7.26D-04 F= -2.92D-04
     Reject lnstep minimum 1.934D+00 FVal=-7.442574097665D+02 Lims=  0.00D+00  8.00D-01
 RMSU=  2.11D-03    CP:  1.25D+00  4.24D-02  3.77D-01  2.50D+00  3.00D+00
                    CP:  3.00D+00  1.03D+00 -3.00D+00  3.00D+00  3.00D+00
                    CP:  2.14D+00  1.87D+00 -3.00D+00  2.81D+00
     ILin= 3 X=1.600D+00 Y=-7.442568659062D+02 DE=-4.73D-04 F=  9.22D-04
     An  expanding polynomial of degree  3 produced  0.9931
 RMSU=  2.91D-05    CP:  1.25D+00  1.04D-01 -1.61D-02  2.33D+00  3.00D+00
                    CP:  3.00D+00  1.08D+00 -3.00D+00  3.00D+00  3.00D+00
                    CP:  1.26D+00  1.79D+00 -3.00D+00  1.41D+00  1.58D-01
 Iteration   7 EE= -744.257147050377     Delta-E=       -0.000753663993 Grad=2.502D-02 Max rot=    0.1293 deg.
 Gradient too large for Newton-Raphson -- use scaled steepest descent instead.
 Alpha Gap=     0.070 HL deriv= 5.38D-03
  Beta Gap=     0.070 HL deriv= 5.38D-03
     ILin= 1 X=0.000D+00 Y=-7.442571470504D+02 DE= 0.00D+00 F= -2.15D-03
 RMSU=  9.21D-04    CP:  1.26D+00  8.80D-02  1.11D-01  2.41D+00  3.00D+00
                    CP:  3.00D+00  1.15D+00 -3.00D+00  3.00D+00  3.00D+00
                    CP:  1.70D+00  1.86D+00 -3.00D+00  2.30D+00  4.80D-01
                    CP: -3.00D+00
     ILin= 2 X=5.000D-01 Y=-7.442574578521D+02 DE=-3.11D-04 F=  9.12D-04
     Accept linear search using points  1 and  2.
     An  expanding polynomial of degree  2 produced  0.2774
 RMSU=  4.37D-05    CP:  1.26D+00  9.50D-02  5.30D-02  2.37D+00  3.00D+00
                    CP:  3.00D+00  1.12D+00 -3.00D+00  3.00D+00  3.00D+00
                    CP:  1.50D+00  1.83D+00 -3.00D+00  1.89D+00  3.23D-01
                    CP: -3.00D+00  5.08D-01
 Iteration   8 EE= -744.257508542878     Delta-E=       -0.000361492501 Grad=7.190D-03 Max rot=    0.0928 deg.
 SCF Done:  E(UB3LYP) =  -744.257508543     a.u. after    8 cycles
            Convg  =    0.7190D-02                    18 Fock formations.
              S**2 = -0.0000                  -V/T =  2.0029
 <Sx>= 0.0000 <Sy>= 0.0000 <Sz>= 0.0000 <S**2>=-0.0000 S=-0.0000
 <L.S>=  0.00000000000    
 Annihilation of the first spin contaminant:
 S**2 before annihilation    -0.0000,   after    -0.0000
 Leave Link  508 at Mon Dec 25 02:25:43 2023, MaxMem=  4026531840 cpu:            1429.2 elap:             182.2
 (Enter /sysapps/ubuntu-applications/gaussian/Gaussian/AVX2/g16/l502.exe)
 Two-electron integral symmetry not used.
 UHF open shell SCF:
 Using DIIS extrapolation, IDIIS=  1040.
 NGot=  4026531840 LenX=  4026112780 LenY=  4025906210
 Requested convergence on RMS density matrix=1.00D-08 within  32 cycles.
 Requested convergence on MAX density matrix=1.00D-06.
 Requested convergence on             energy=1.00D-06.
 No special actions if energy rises.
 Fock matrices will be formed incrementally for  20 cycles.

 Cycle   1  Pass 1  IDiag  1:
 FoFJK:  IHMeth= 1 ICntrl=       0 DoSepK=F KAlg= 0 I1Cent=           0 FoldK=F
 IRaf= 860000000 NMat=       1 IRICut=       1 DoRegI=T DoRafI=F ISym2E= 0 IDoP0=0 IntGTp=1.
 FoFCou: FMM=F IPFlag=           0 FMFlag=      100000 FMFlg1=           0
         NFxFlg=           0 DoJE=F BraDBF=F KetDBF=F FulRan=T
         wScrn=  0.000000 ICntrl=         0 IOpCl=  1 I1Cent=           0 NGrid=           0
         NMat0=    1 NMatS0=      1 NMatT0=    0 NMatD0=    1 NMtDS0=    0 NMtDT0=    0
 Symmetry not used in FoFCou.
 E= -744.257508542880    
 DIIS: error= 3.21D-04 at cycle   1 NSaved=   1.
 NSaved= 1 IEnMin= 1 EnMin= -744.257508542880     IErMin= 1 ErrMin= 3.21D-04
 ErrMax= 3.21D-04  0.00D+00 EMaxC= 1.00D-01 BMatC= 1.03D-04 BMatP= 1.03D-04
 IDIUse=3 WtCom= 9.97D-01 WtEn= 3.21D-03
 Coeff-Com:  0.100D+01
 Coeff-En:   0.100D+01
 Coeff:      0.100D+01
 Gap=     0.071 Goal=   None    Shift=    0.000
 Gap=     0.071 Goal=   None    Shift=    0.000
 RMSDP=4.50D-01 MaxDP=2.49D+01              OVMax= 9.88D-01

 Cycle   2  Pass 1  IDiag  1:
 RMSU=  4.49D-01    CP:  1.47D+00
 E= -743.986953773701     Delta-E=        0.270554769178 Rises=F Damp=F
 DIIS: error= 1.60D-02 at cycle   2 NSaved=   2.
 NSaved= 2 IEnMin= 1 EnMin= -744.257508542880     IErMin= 1 ErrMin= 3.21D-04
 ErrMax= 1.60D-02  0.00D+00 EMaxC= 1.00D-01 BMatC= 3.81D-01 BMatP= 1.03D-04
 IDIUse=2 WtCom= 0.00D+00 WtEn= 1.00D+00
 Coeff-En:   0.915D+00 0.851D-01
 Coeff:      0.915D+00 0.851D-01
 Gap=    -0.009 Goal=   None    Shift=    0.000
 Gap=    -0.009 Goal=   None    Shift=    0.000
 RMSDP=4.36D-01 MaxDP=2.35D+01 DE= 2.71D-01 OVMax= 9.66D-01

 Cycle   3  Pass 1  IDiag  1:
 RMSU=  2.01D-02    CP:  9.17D-01  3.49D-02
 E= -744.252888851575     Delta-E=       -0.265935077874 Rises=F Damp=F
 DIIS: error= 4.28D-03 at cycle   3 NSaved=   3.
 NSaved= 3 IEnMin= 1 EnMin= -744.257508542880     IErMin= 1 ErrMin= 3.21D-04
 ErrMax= 4.28D-03  0.00D+00 EMaxC= 1.00D-01 BMatC= 2.03D-02 BMatP= 1.03D-04
 IDIUse=3 WtCom= 1.33D-01 WtEn= 8.67D-01
 Coeff-Com:  0.993D+00-0.984D-03 0.841D-02
 Coeff-En:   0.000D+00 0.159D+00 0.841D+00
 Coeff:      0.132D+00 0.138D+00 0.731D+00
 Gap=     0.004 Goal=   None    Shift=    0.000
 Gap=     0.004 Goal=   None    Shift=    0.000
 RMSDP=1.71D-01 MaxDP=1.38D+01 DE=-2.66D-01 OVMax= 3.79D-01

 Cycle   4  Pass 1  IDiag  1:
 RMSU=  4.60D-02    CP:  1.22D+00  3.77D-01  3.00D+00
 E= -744.263946724540     Delta-E=       -0.011057872965 Rises=F Damp=F
 DIIS: error= 3.02D-03 at cycle   4 NSaved=   4.
 NSaved= 4 IEnMin= 4 EnMin= -744.263946724540     IErMin= 1 ErrMin= 3.21D-04
 ErrMax= 3.02D-03  0.00D+00 EMaxC= 1.00D-01 BMatC= 1.51D-02 BMatP= 1.03D-04
 IDIUse=3 WtCom= 1.54D-01 WtEn= 8.46D-01
 Coeff-Com:  0.736D+00-0.368D-03 0.124D+00 0.141D+00
 Coeff-En:   0.000D+00 0.000D+00 0.289D+00 0.711D+00
 Coeff:      0.113D+00-0.567D-04 0.263D+00 0.624D+00
 Gap=     0.013 Goal=   None    Shift=    0.000
 Gap=     0.013 Goal=   None    Shift=    0.000
 RMSDP=3.72D-02 MaxDP=5.05D+00 DE=-1.11D-02 OVMax= 6.28D-02

 Cycle   5  Pass 1  IDiag  1:
 RMSU=  1.88D-02    CP:  1.11D+00  3.31D-01  2.93D+00  5.30D-01
 E= -744.267406950142     Delta-E=       -0.003460225602 Rises=F Damp=F
 DIIS: error= 1.71D-03 at cycle   5 NSaved=   5.
 NSaved= 5 IEnMin= 5 EnMin= -744.267406950142     IErMin= 1 ErrMin= 3.21D-04
 ErrMax= 1.71D-03  0.00D+00 EMaxC= 1.00D-01 BMatC= 5.57D-03 BMatP= 1.03D-04
 IDIUse=3 WtCom= 1.95D-01 WtEn= 8.05D-01
 Coeff-Com:  0.511D+00-0.131D-01 0.111D+00 0.248D+00 0.144D+00
 Coeff-En:   0.000D+00 0.000D+00 0.000D+00 0.288D+00 0.712D+00
 Coeff:      0.995D-01-0.254D-02 0.215D-01 0.280D+00 0.601D+00
 Gap=     0.013 Goal=   None    Shift=    0.000
 Gap=     0.013 Goal=   None    Shift=    0.000
 RMSDP=6.38D-02 MaxDP=3.34D+00 DE=-3.46D-03 OVMax= 9.93D-02

 Cycle   6  Pass 1  IDiag  1:
 RMSU=  1.07D-02    CP:  1.20D+00  4.64D-01  3.00D+00  8.35D-01  1.53D+00
 E= -744.266320958088     Delta-E=        0.001085992054 Rises=F Damp=F
 DIIS: error= 1.98D-03 at cycle   6 NSaved=   6.
 NSaved= 6 IEnMin= 5 EnMin= -744.267406950142     IErMin= 1 ErrMin= 3.21D-04
 ErrMax= 1.98D-03  0.00D+00 EMaxC= 1.00D-01 BMatC= 6.39D-03 BMatP= 1.03D-04
 IDIUse=3 WtCom= 1.95D-01 WtEn= 8.05D-01
 Coeff-Com:  0.564D+00-0.135D-01 0.688D-01 0.117D+00 0.135D+00 0.129D+00
 Coeff-En:   0.000D+00 0.000D+00 0.000D+00 0.000D+00 0.588D+00 0.412D+00
 Coeff:      0.110D+00-0.263D-02 0.134D-01 0.227D-01 0.500D+00 0.357D+00
 Gap=     0.015 Goal=   None    Shift=    0.000
 Gap=     0.015 Goal=   None    Shift=    0.000
 RMSDP=5.39D-02 MaxDP=3.48D+00 DE= 1.09D-03 OVMax= 9.75D-02

 Cycle   7  Pass 1  IDiag  1:
 RMSU=  7.22D-03    CP:  1.07D+00  3.51D-01  2.73D+00  6.45D-01  1.36D+00
                    CP:  8.90D-01
 E= -744.268749259739     Delta-E=       -0.002428301651 Rises=F Damp=F
 DIIS: error= 4.19D-04 at cycle   7 NSaved=   7.
 NSaved= 7 IEnMin= 7 EnMin= -744.268749259739     IErMin= 1 ErrMin= 3.21D-04
 ErrMax= 4.19D-04  0.00D+00 EMaxC= 1.00D-01 BMatC= 7.23D-04 BMatP= 1.03D-04
 IDIUse=3 WtCom= 3.28D-01 WtEn= 6.72D-01
 EnCoef did     5 forward-backward iterations
 Coeff-Com:  0.339D+00-0.101D-01-0.173D-01 0.199D-01 0.225D+00 0.155D+00
 Coeff-Com:  0.289D+00
 Coeff-En:   0.000D+00 0.000D+00 0.000D+00 0.000D+00 0.144D+00 0.159D+00
 Coeff-En:   0.696D+00
 Coeff:      0.111D+00-0.330D-02-0.567D-02 0.654D-02 0.171D+00 0.158D+00
 Coeff:      0.563D+00
 Gap=     0.012 Goal=   None    Shift=    0.000
 Gap=     0.012 Goal=   None    Shift=    0.000
 RMSDP=1.01D-01 MaxDP=5.26D+00 DE=-2.43D-03 OVMax= 1.68D-01

 Cycle   8  Pass 1  IDiag  1:
 RMSU=  2.02D-03    CP:  1.27D+00  5.67D-01  3.00D+00  9.64D-01  2.06D+00
                    CP:  1.61D+00 -3.83D-01
 E= -744.262015592007     Delta-E=        0.006733667732 Rises=F Damp=F
 DIIS: error= 2.83D-03 at cycle   8 NSaved=   8.
 NSaved= 8 IEnMin= 7 EnMin= -744.268749259739     IErMin= 1 ErrMin= 3.21D-04
 ErrMax= 2.83D-03  0.00D+00 EMaxC= 1.00D-01 BMatC= 1.20D-02 BMatP= 1.03D-04
 IDIUse=3 WtCom= 3.28D-01 WtEn= 6.72D-01
 EnCoef did     2 forward-backward iterations
 Coeff-Com:  0.316D+00-0.795D-02-0.296D-01-0.117D+00 0.813D-01-0.154D-02
 Coeff-Com:  0.572D+00 0.186D+00
 Coeff-En:   0.000D+00 0.000D+00 0.000D+00 0.000D+00 0.720D-01 0.000D+00
 Coeff-En:   0.817D+00 0.111D+00
 Coeff:      0.104D+00-0.261D-02-0.973D-02-0.383D-01 0.750D-01-0.505D-03
 Coeff:      0.737D+00 0.136D+00
 Gap=     0.014 Goal=   None    Shift=    0.000
 Gap=     0.014 Goal=   None    Shift=    0.000
 RMSDP=2.77D-02 MaxDP=1.64D+00 DE= 6.73D-03 OVMax= 4.75D-02

 Cycle   9  Pass 1  IDiag  1:
 RMSU=  1.12D-03    CP:  1.21D+00  5.08D-01  3.00D+00  8.77D-01  2.00D+00
                    CP:  1.48D+00  2.31D-01  7.51D-01
 E= -744.266256357526     Delta-E=       -0.004240765519 Rises=F Damp=F
 DIIS: error= 1.74D-03 at cycle   9 NSaved=   9.
 NSaved= 9 IEnMin= 7 EnMin= -744.268749259739     IErMin= 1 ErrMin= 3.21D-04
 ErrMax= 1.74D-03  0.00D+00 EMaxC= 1.00D-01 BMatC= 4.86D-03 BMatP= 1.03D-04
 IDIUse=3 WtCom= 3.28D-01 WtEn= 6.72D-01
 EnCoef did     2 forward-backward iterations
 Coeff-Com:  0.578D-01-0.147D-02 0.747D-02-0.909D-01-0.120D+00-0.273D+00
 Coeff-Com:  0.785D+00-0.270D+00 0.905D+00
 Coeff-En:   0.000D+00 0.000D+00 0.000D+00 0.000D+00 0.404D-01 0.000D+00
 Coeff-En:   0.764D+00 0.000D+00 0.195D+00
 Coeff:      0.190D-01-0.482D-03 0.245D-02-0.298D-01-0.121D-01-0.896D-01
 Coeff:      0.771D+00-0.886D-01 0.428D+00
 Gap=     0.015 Goal=   None    Shift=    0.000
 Gap=     0.015 Goal=   None    Shift=    0.000
 RMSDP=4.07D-02 MaxDP=2.65D+00 DE=-4.24D-03 OVMax= 7.37D-02

 Cycle  10  Pass 1  IDiag  1:
 RMSU=  8.49D-04    CP:  1.12D+00  4.21D-01  2.80D+00  7.50D-01  1.91D+00
                    CP:  1.46D+00  8.59D-01  7.22D-01  4.87D-01
 E= -744.269042909851     Delta-E=       -0.002786552325 Rises=F Damp=F
 DIIS: error= 3.13D-04 at cycle  10 NSaved=  10.
 NSaved=10 IEnMin=10 EnMin= -744.269042909851     IErMin=10 ErrMin= 3.13D-04
 ErrMax= 3.13D-04  0.00D+00 EMaxC= 1.00D-01 BMatC= 3.72D-04 BMatP= 1.03D-04
 IDIUse=3 WtCom= 3.61D-01 WtEn= 6.39D-01
 Coeff-Com:  0.254D-01-0.183D-03 0.291D-02-0.447D-01-0.144D+00-0.227D-01
 Coeff-Com:  0.372D+00 0.233D-01 0.337D-02 0.785D+00
 Coeff-En:   0.000D+00 0.000D+00 0.000D+00 0.000D+00 0.000D+00 0.000D+00
 Coeff-En:   0.253D+00 0.000D+00 0.000D+00 0.747D+00
 Coeff:      0.917D-02-0.659D-04 0.105D-02-0.161D-01-0.521D-01-0.819D-02
 Coeff:      0.296D+00 0.841D-02 0.122D-02 0.760D+00
 Gap=     0.016 Goal=   None    Shift=    0.000
 Gap=     0.016 Goal=   None    Shift=    0.000
 RMSDP=4.50D-03 MaxDP=2.78D-01 DE=-2.79D-03 OVMax= 6.00D-03

 Cycle  11  Pass 1  IDiag  1:
 RMSU=  4.34D-04    CP:  1.12D+00  4.26D-01  2.77D+00  7.94D-01  1.97D+00
                    CP:  1.67D+00  1.13D+00  7.68D-01  1.02D+00  1.47D+00
 E= -744.269099921743     Delta-E=       -0.000057011892 Rises=F Damp=F
 DIIS: error= 3.32D-04 at cycle  11 NSaved=  11.
 NSaved=11 IEnMin=11 EnMin= -744.269099921743     IErMin=10 ErrMin= 3.13D-04
 ErrMax= 3.32D-04  0.00D+00 EMaxC= 1.00D-01 BMatC= 1.84D-04 BMatP= 1.03D-04
 IDIUse=3 WtCom= 3.61D-01 WtEn= 6.39D-01
 EnCoef did     5 forward-backward iterations
 Coeff-Com:  0.620D-02-0.110D-04 0.142D-01-0.128D-02-0.825D-01-0.563D-01
 Coeff-Com:  0.671D-01 0.202D-01-0.841D-01 0.550D+00 0.566D+00
 Coeff-En:   0.000D+00 0.000D+00 0.000D+00 0.000D+00 0.000D+00 0.000D+00
 Coeff-En:   0.311D-01 0.000D+00 0.000D+00 0.324D+00 0.645D+00
 Coeff:      0.224D-02-0.398D-05 0.513D-02-0.462D-03-0.298D-01-0.203D-01
 Coeff:      0.441D-01 0.730D-02-0.303D-01 0.405D+00 0.617D+00
 Gap=     0.017 Goal=   None    Shift=    0.000
 Gap=     0.017 Goal=   None    Shift=    0.000
 RMSDP=2.80D-02 MaxDP=1.73D+00 DE=-5.70D-05 OVMax= 4.91D-02

 Cycle  12  Pass 1  IDiag  1:
 RMSU=  4.98D-04    CP:  1.06D+00  3.67D-01  2.54D+00  6.93D-01  1.78D+00
                    CP:  1.56D+00  1.44D+00  1.03D+00 -2.83D-01  2.25D+00
                    CP:  1.60D+00
 E= -744.268527365110     Delta-E=        0.000572556633 Rises=F Damp=F
 DIIS: error= 7.55D-04 at cycle  12 NSaved=  12.
 NSaved=12 IEnMin=11 EnMin= -744.269099921743     IErMin=10 ErrMin= 3.13D-04
 ErrMax= 7.55D-04  0.00D+00 EMaxC= 1.00D-01 BMatC= 1.12D-03 BMatP= 1.03D-04
 IDIUse=3 WtCom= 3.61D-01 WtEn= 6.39D-01
 EnCoef did     2 forward-backward iterations
 Coeff-Com:  0.187D-01-0.621D-03-0.639D-02 0.743D-02-0.454D-01-0.166D-01
 Coeff-Com: -0.452D-01 0.480D-01-0.441D-01 0.268D+00 0.515D+00 0.301D+00
 Coeff-En:   0.000D+00 0.000D+00 0.000D+00 0.000D+00 0.000D+00 0.000D+00
 Coeff-En:   0.000D+00 0.000D+00 0.000D+00 0.143D+00 0.686D+00 0.171D+00
 Coeff:      0.675D-02-0.224D-03-0.231D-02 0.268D-02-0.164D-01-0.599D-02
 Coeff:     -0.163D-01 0.173D-01-0.159D-01 0.188D+00 0.624D+00 0.218D+00
 Gap=     0.016 Goal=   None    Shift=    0.000
 Gap=     0.016 Goal=   None    Shift=    0.000
 RMSDP=2.45D-02 MaxDP=1.37D+00 DE= 5.73D-04 OVMax= 4.00D-02

 Cycle  13  Pass 1  IDiag  1:
 RMSU=  2.29D-04    CP:  1.11D+00  4.19D-01  2.71D+00  7.89D-01  1.99D+00
                    CP:  1.73D+00  1.26D+00  1.11D+00  9.17D-01  2.30D+00
                    CP:  2.09D+00  5.45D-01
 E= -744.269161056446     Delta-E=       -0.000633691337 Rises=F Damp=F
 DIIS: error= 1.11D-04 at cycle  13 NSaved=  13.
 NSaved=13 IEnMin=13 EnMin= -744.269161056446     IErMin=13 ErrMin= 1.11D-04
 ErrMax= 1.11D-04  0.00D+00 EMaxC= 1.00D-01 BMatC= 2.19D-05 BMatP= 1.03D-04
 IDIUse=3 WtCom= 9.99D-01 WtEn= 1.11D-03
 Coeff-Com:  0.390D-02 0.464D-04 0.400D-02 0.288D-02-0.168D-01-0.182D-01
 Coeff-Com: -0.826D-01-0.284D-01 0.258D-01 0.224D-01 0.497D+00 0.698D-01
 Coeff-Com:  0.520D+00
 Coeff-En:   0.000D+00 0.000D+00 0.000D+00 0.000D+00 0.000D+00 0.000D+00
 Coeff-En:   0.000D+00 0.000D+00 0.000D+00 0.000D+00 0.158D+00 0.000D+00
 Coeff-En:   0.842D+00
 Coeff:      0.390D-02 0.464D-04 0.400D-02 0.287D-02-0.168D-01-0.181D-01
 Coeff:     -0.825D-01-0.284D-01 0.258D-01 0.224D-01 0.497D+00 0.698D-01
 Coeff:      0.520D+00
 Gap=     0.016 Goal=   None    Shift=    0.000
 Gap=     0.016 Goal=   None    Shift=    0.000
 RMSDP=4.82D-03 MaxDP=2.49D-01 DE=-6.34D-04 OVMax= 6.41D-03

 Cycle  14  Pass 1  IDiag  1:
 RMSU=  9.57D-05    CP:  1.11D+00  4.28D-01  2.73D+00  8.15D-01  2.04D+00
                    CP:  1.80D+00  1.31D+00  1.24D+00  1.30D+00  2.84D+00
                    CP:  3.00D+00  6.94D-01  1.94D+00
 E= -744.269163280813     Delta-E=       -0.000002224367 Rises=F Damp=F
 DIIS: error= 6.98D-05 at cycle  14 NSaved=  14.
 NSaved=14 IEnMin=14 EnMin= -744.269163280813     IErMin=14 ErrMin= 6.98D-05
 ErrMax= 6.98D-05  0.00D+00 EMaxC= 1.00D-01 BMatC= 9.68D-06 BMatP= 2.19D-05
 IDIUse=1 WtCom= 1.00D+00 WtEn= 0.00D+00
 Coeff-Com: -0.588D-03 0.612D-04 0.280D-02-0.289D-03-0.944D-02-0.127D-01
 Coeff-Com: -0.283D-01-0.292D-01 0.384D-01-0.256D-01 0.162D+00 0.541D-01
 Coeff-Com:  0.213D+00 0.635D+00
 Coeff:     -0.588D-03 0.612D-04 0.280D-02-0.289D-03-0.944D-02-0.127D-01
 Coeff:     -0.283D-01-0.292D-01 0.384D-01-0.256D-01 0.162D+00 0.541D-01
 Coeff:      0.213D+00 0.635D+00
 Gap=     0.016 Goal=   None    Shift=    0.000
 Gap=     0.016 Goal=   None    Shift=    0.000
 RMSDP=1.06D-03 MaxDP=5.64D-02 DE=-2.22D-06 OVMax= 2.98D-03

 Cycle  15  Pass 1  IDiag  1:
 RMSU=  4.51D-04    CP:  1.11D+00  4.27D-01  2.73D+00  8.16D-01  2.04D+00
                    CP:  1.80D+00  1.34D+00  1.37D+00  1.35D+00  3.00D+00
                    CP:  3.00D+00  9.48D-01  3.00D+00  3.00D+00
 E= -744.269168529084     Delta-E=       -0.000005248270 Rises=F Damp=F
 DIIS: error= 1.90D-05 at cycle  15 NSaved=  15.
 NSaved=15 IEnMin=15 EnMin= -744.269168529084     IErMin=15 ErrMin= 1.90D-05
 ErrMax= 1.90D-05  0.00D+00 EMaxC= 1.00D-01 BMatC= 6.21D-07 BMatP= 9.68D-06
 IDIUse=1 WtCom= 1.00D+00 WtEn= 0.00D+00
 Coeff-Com: -0.132D-02 0.167D-04 0.394D-03-0.113D-02 0.694D-03-0.414D-02
 Coeff-Com:  0.541D-02-0.147D-01 0.267D-01-0.409D-01-0.435D-01 0.273D-01
 Coeff-Com: -0.164D-01 0.378D+00 0.684D+00
 Coeff:     -0.132D-02 0.167D-04 0.394D-03-0.113D-02 0.694D-03-0.414D-02
 Coeff:      0.541D-02-0.147D-01 0.267D-01-0.409D-01-0.435D-01 0.273D-01
 Coeff:     -0.164D-01 0.378D+00 0.684D+00
 Gap=     0.016 Goal=   None    Shift=    0.000
 Gap=     0.016 Goal=   None    Shift=    0.000
 RMSDP=9.32D-04 MaxDP=3.83D-02 DE=-5.25D-06 OVMax= 2.35D-03

 Cycle  16  Pass 1  IDiag  1:
 RMSU=  4.12D-04    CP:  1.11D+00  4.27D-01  2.74D+00  8.19D-01  2.04D+00
                    CP:  1.79D+00  1.36D+00  1.52D+00  1.45D+00  3.00D+00
                    CP:  3.00D+00  1.26D+00  3.00D+00  3.00D+00  2.58D+00
 E= -744.269169169643     Delta-E=       -0.000000640559 Rises=F Damp=F
 DIIS: error= 6.87D-06 at cycle  16 NSaved=  16.
 NSaved=16 IEnMin=16 EnMin= -744.269169169643     IErMin=16 ErrMin= 6.87D-06
 ErrMax= 6.87D-06  0.00D+00 EMaxC= 1.00D-01 BMatC= 7.04D-08 BMatP= 6.21D-07
 IDIUse=1 WtCom= 1.00D+00 WtEn= 0.00D+00
 Coeff-Com: -0.235D-03 0.558D-06 0.358D-03 0.245D-04 0.580D-02-0.128D-03
 Coeff-Com:  0.428D-02-0.209D-02 0.508D-02-0.254D-01-0.311D-01-0.191D-01
 Coeff-Com: -0.145D-01-0.462D-01 0.278D+00 0.846D+00
 Coeff:     -0.235D-03 0.558D-06 0.358D-03 0.245D-04 0.580D-02-0.128D-03
 Coeff:      0.428D-02-0.209D-02 0.508D-02-0.254D-01-0.311D-01-0.191D-01
 Coeff:     -0.145D-01-0.462D-01 0.278D+00 0.846D+00
 Gap=     0.016 Goal=   None    Shift=    0.000
 Gap=     0.016 Goal=   None    Shift=    0.000
 RMSDP=1.32D-03 MaxDP=6.42D-02 DE=-6.41D-07 OVMax= 2.26D-03

 Cycle  17  Pass 1  IDiag  1:
 RMSU=  5.96D-04    CP:  1.12D+00  4.28D-01  2.75D+00  8.23D-01  2.05D+00
                    CP:  1.76D+00  1.36D+00  1.68D+00  1.58D+00  3.00D+00
                    CP:  3.00D+00  1.61D+00  3.00D+00  3.00D+00  3.00D+00
                    CP:  2.20D+00
 E= -744.269169540116     Delta-E=       -0.000000370473 Rises=F Damp=F
 DIIS: error= 4.46D-06 at cycle  17 NSaved=  17.
 NSaved=17 IEnMin=17 EnMin= -744.269169540116     IErMin=17 ErrMin= 4.46D-06
 ErrMax= 4.46D-06  0.00D+00 EMaxC= 1.00D-01 BMatC= 7.73D-09 BMatP= 7.04D-08
 IDIUse=1 WtCom= 1.00D+00 WtEn= 0.00D+00
 Coeff-Com:  0.118D-03-0.211D-05 0.354D-03 0.147D-03 0.368D-02 0.485D-03
 Coeff-Com: -0.250D-03 0.225D-02-0.358D-02-0.271D-02 0.135D-01-0.264D-01
 Coeff-Com:  0.178D-01-0.207D+00-0.155D+00 0.415D+00 0.941D+00
 Coeff:      0.118D-03-0.211D-05 0.354D-03 0.147D-03 0.368D-02 0.485D-03
 Coeff:     -0.250D-03 0.225D-02-0.358D-02-0.271D-02 0.135D-01-0.264D-01
 Coeff:      0.178D-01-0.207D+00-0.155D+00 0.415D+00 0.941D+00
 Gap=     0.016 Goal=   None    Shift=    0.000
 Gap=     0.016 Goal=   None    Shift=    0.000
 RMSDP=1.59D-03 MaxDP=7.44D-02 DE=-3.70D-07 OVMax= 2.84D-03

 Cycle  18  Pass 1  IDiag  1:
 RMSU=  3.20D-04    CP:  1.12D+00  4.30D-01  2.77D+00  8.25D-01  2.05D+00
                    CP:  1.73D+00  1.35D+00  1.88D+00  1.70D+00  3.00D+00
                    CP:  3.00D+00  2.09D+00  3.00D+00  3.00D+00  3.00D+00
                    CP:  3.00D+00  2.68D+00
 E= -744.269169933532     Delta-E=       -0.000000393416 Rises=F Damp=F
 DIIS: error= 3.85D-06 at cycle  18 NSaved=  18.
 NSaved=18 IEnMin=18 EnMin= -744.269169933532     IErMin=18 ErrMin= 3.85D-06
 ErrMax= 3.85D-06  0.00D+00 EMaxC= 1.00D-01 BMatC= 1.48D-08 BMatP= 7.73D-09
 IDIUse=1 WtCom= 1.00D+00 WtEn= 0.00D+00
 Coeff-Com: -0.414D-03 0.122D-04 0.549D-03-0.496D-03-0.233D-02-0.734D-03
 Coeff-Com: -0.325D-02 0.598D-03-0.368D-02 0.193D-01 0.489D-01-0.971D-02
 Coeff-Com:  0.424D-01-0.143D+00-0.389D+00-0.487D+00 0.809D+00 0.112D+01
 Coeff:     -0.414D-03 0.122D-04 0.549D-03-0.496D-03-0.233D-02-0.734D-03
 Coeff:     -0.325D-02 0.598D-03-0.368D-02 0.193D-01 0.489D-01-0.971D-02
 Coeff:      0.424D-01-0.143D+00-0.389D+00-0.487D+00 0.809D+00 0.112D+01
 Gap=     0.016 Goal=   None    Shift=    0.000
 Gap=     0.016 Goal=   None    Shift=    0.000
 RMSDP=2.67D-03 MaxDP=1.21D-01 DE=-3.93D-07 OVMax= 4.89D-03

 Cycle  19  Pass 1  IDiag  1:
 RMSU=  1.63D-03    CP:  1.13D+00  4.32D-01  2.80D+00  8.27D-01  2.05D+00
                    CP:  1.67D+00  1.32D+00  2.25D+00  1.88D+00  3.00D+00
                    CP:  3.00D+00  2.93D+00  3.00D+00  3.00D+00  3.00D+00
                    CP:  3.00D+00  3.00D+00  3.00D+00
 E= -744.269170567639     Delta-E=       -0.000000634107 Rises=F Damp=F
 DIIS: error= 4.37D-06 at cycle  19 NSaved=  19.
 NSaved=19 IEnMin=19 EnMin= -744.269170567639     IErMin=18 ErrMin= 3.85D-06
 ErrMax= 4.37D-06  0.00D+00 EMaxC= 1.00D-01 BMatC= 1.07D-08 BMatP= 7.73D-09
 IDIUse=1 WtCom= 1.00D+00 WtEn= 0.00D+00
 Coeff-Com: -0.303D-04-0.210D-05 0.164D-03-0.443D-03-0.213D-02-0.642D-03
 Coeff-Com: -0.709D-02-0.185D-02 0.259D-02 0.596D-02 0.487D-01 0.820D-02
 Coeff-Com:  0.469D-01-0.358D-01-0.226D+00-0.725D+00 0.105D+00 0.733D+00
 Coeff-Com:  0.105D+01
 Coeff:     -0.303D-04-0.210D-05 0.164D-03-0.443D-03-0.213D-02-0.642D-03
 Coeff:     -0.709D-02-0.185D-02 0.259D-02 0.596D-02 0.487D-01 0.820D-02
 Coeff:      0.469D-01-0.358D-01-0.226D+00-0.725D+00 0.105D+00 0.733D+00
 Coeff:      0.105D+01
 Gap=     0.016 Goal=   None    Shift=    0.000
 Gap=     0.016 Goal=   None    Shift=    0.000
 RMSDP=3.46D-03 MaxDP=1.61D-01 DE=-6.34D-07 OVMax= 6.12D-03

 Cycle  20  Pass 1  IDiag  1:
 RMSU=  8.75D-04    CP:  1.13D+00  4.35D-01  2.85D+00  8.29D-01  2.06D+00
                    CP:  1.60D+00  1.27D+00  2.73D+00  2.10D+00  3.00D+00
                    CP:  3.00D+00  3.00D+00  3.00D+00  3.00D+00  3.00D+00
                    CP:  3.00D+00  3.00D+00  3.00D+00  2.56D+00
 E= -744.269171314378     Delta-E=       -0.000000746739 Rises=F Damp=F
 DIIS: error= 3.60D-06 at cycle  20 NSaved=  20.
 NSaved=20 IEnMin=20 EnMin= -744.269171314378     IErMin=20 ErrMin= 3.60D-06
 ErrMax= 3.60D-06  0.00D+00 EMaxC= 1.00D-01 BMatC= 2.36D-08 BMatP= 7.73D-09
 IDIUse=1 WtCom= 1.00D+00 WtEn= 0.00D+00
 Coeff-Com:  0.549D-04-0.211D-05 0.177D-03-0.490D-03-0.290D-02-0.515D-03
 Coeff-Com: -0.726D-02-0.148D-02 0.149D-02 0.967D-02 0.509D-01 0.871D-02
 Coeff-Com:  0.491D-01-0.215D-01-0.265D+00-0.823D+00 0.924D-01 0.925D+00
 Coeff-Com:  0.132D+01-0.331D+00
 Coeff:      0.549D-04-0.211D-05 0.177D-03-0.490D-03-0.290D-02-0.515D-03
 Coeff:     -0.726D-02-0.148D-02 0.149D-02 0.967D-02 0.509D-01 0.871D-02
 Coeff:      0.491D-01-0.215D-01-0.265D+00-0.823D+00 0.924D-01 0.925D+00
 Coeff:      0.132D+01-0.331D+00
 Gap=     0.016 Goal=   None    Shift=    0.000
 Gap=     0.016 Goal=   None    Shift=    0.000
 RMSDP=9.62D-04 MaxDP=4.55D-02 DE=-7.47D-07 OVMax= 1.75D-03

 Cycle  21  Pass 1  IDiag  1:
 Restarting incremental Fock formation.
 E= -744.269171096866     Delta-E=        0.000000217512 Rises=F Damp=F
 DIIS: error= 4.17D-06 at cycle  21 NSaved=  20.
 NSaved=20 IEnMin=19 EnMin= -744.269171314378     IErMin=19 ErrMin= 3.60D-06
 ErrMax= 4.17D-06  0.00D+00 EMaxC= 1.00D-01 BMatC= 3.52D-08 BMatP= 7.73D-09
 IDIUse=1 WtCom= 1.00D+00 WtEn= 0.00D+00
 Coeff-Com:  0.309D-04 0.191D-03-0.503D-03-0.294D-02-0.516D-03-0.728D-02
 Coeff-Com: -0.153D-02 0.150D-02 0.971D-02 0.510D-01 0.864D-02 0.494D-01
 Coeff-Com: -0.207D-01-0.264D+00-0.826D+00 0.877D-01 0.925D+00 0.134D+01
 Coeff-Com: -0.426D+00 0.804D-01
 Coeff:      0.309D-04 0.191D-03-0.503D-03-0.294D-02-0.516D-03-0.728D-02
 Coeff:     -0.153D-02 0.150D-02 0.971D-02 0.510D-01 0.864D-02 0.494D-01
 Coeff:     -0.207D-01-0.264D+00-0.826D+00 0.877D-01 0.925D+00 0.134D+01
 Coeff:     -0.426D+00 0.804D-01
 Gap=     0.016 Goal=   None    Shift=    0.000
 Gap=     0.016 Goal=   None    Shift=    0.000
 RMSDP=1.02D-04 MaxDP=5.09D-03 DE= 2.18D-07 OVMax= 1.78D-04

 Cycle  22  Pass 1  IDiag  1:
 RMSU=  8.74D-05    CP:  1.00D+00
 E= -744.269171077653     Delta-E=        0.000000019213 Rises=F Damp=F
 DIIS: error= 3.87D-06 at cycle  22 NSaved=  20.
 NSaved=20 IEnMin=18 EnMin= -744.269171314378     IErMin=18 ErrMin= 3.60D-06
 ErrMax= 3.87D-06  0.00D+00 EMaxC= 1.00D-01 BMatC= 3.10D-08 BMatP= 7.73D-09
 IDIUse=1 WtCom= 1.00D+00 WtEn= 0.00D+00
 Large coefficients: NSaved= 20 BigCof=   10.64 CofMax=   10.00 Det=-1.25D-12
 Inversion failed.  Reducing to 19 matrices.
 Large coefficients: NSaved= 19 BigCof=   10.63 CofMax=   10.00 Det=-1.25D-12
 Inversion failed.  Reducing to 18 matrices.
 Large coefficients: NSaved= 18 BigCof=   10.77 CofMax=   10.00 Det=-1.26D-12
 Inversion failed.  Reducing to 17 matrices.
 Large coefficients: NSaved= 17 BigCof=   10.63 CofMax=   10.00 Det=-1.26D-12
 Inversion failed.  Reducing to 16 matrices.
 Coeff-Com: -0.277D-02-0.129D-03-0.718D-02 0.987D-02 0.421D-01 0.131D-01
 Coeff-Com:  0.346D-01-0.272D-01-0.258D+00-0.776D+00 0.724D-02 0.920D+00
 Coeff-Com:  0.174D+01-0.137D+01 0.935D+01-0.867D+01
 Coeff:     -0.277D-02-0.129D-03-0.718D-02 0.987D-02 0.421D-01 0.131D-01
 Coeff:      0.346D-01-0.272D-01-0.258D+00-0.776D+00 0.724D-02 0.920D+00
 Coeff:      0.174D+01-0.137D+01 0.935D+01-0.867D+01
 Gap=     0.016 Goal=   None    Shift=    0.000
 Gap=     0.016 Goal=   None    Shift=    0.000
 RMSDP=6.68D-04 MaxDP=3.40D-02 DE= 1.92D-08 OVMax= 1.19D-03

 Cycle  23  Pass 1  IDiag  1:
 RMSU=  4.45D-04    CP:  9.99D-01  3.00D+00
 E= -744.269170938942     Delta-E=        0.000000138712 Rises=F Damp=F
 DIIS: error= 4.05D-06 at cycle  23 NSaved=  17.
 NSaved=17 IEnMin=14 EnMin= -744.269171314378     IErMin=14 ErrMin= 3.60D-06
 ErrMax= 4.05D-06  0.00D+00 EMaxC= 1.00D-01 BMatC= 2.94D-08 BMatP= 7.73D-09
 IDIUse=1 WtCom= 1.00D+00 WtEn= 0.00D+00
 Coeff-Com: -0.146D-02-0.194D-03-0.520D-02 0.552D-02 0.287D-01 0.122D-01
 Coeff-Com:  0.179D-01 0.171D-01-0.186D+00-0.618D+00-0.174D-01 0.737D+00
 Coeff-Com:  0.311D+00 0.508D+01-0.244D+01-0.348D-01-0.191D+01
 Coeff:     -0.146D-02-0.194D-03-0.520D-02 0.552D-02 0.287D-01 0.122D-01
 Coeff:      0.179D-01 0.171D-01-0.186D+00-0.618D+00-0.174D-01 0.737D+00
 Coeff:      0.311D+00 0.508D+01-0.244D+01-0.348D-01-0.191D+01
 Gap=     0.016 Goal=   None    Shift=    0.000
 Gap=     0.016 Goal=   None    Shift=    0.000
 RMSDP=9.71D-03 MaxDP=4.56D-01 DE= 1.39D-07 OVMax= 1.73D-02

 Cycle  24  Pass 1  IDiag  1:
 RMSU=  6.59D-03    CP:  1.02D+00 -3.00D+00 -3.00D+00
 E= -744.269173125103     Delta-E=       -0.000002186162 Rises=F Damp=F
 DIIS: error= 6.64D-06 at cycle  24 NSaved=  18.
 NSaved=18 IEnMin=18 EnMin= -744.269173125103     IErMin=14 ErrMin= 3.60D-06
 ErrMax= 6.64D-06  0.00D+00 EMaxC= 1.00D-01 BMatC= 7.61D-08 BMatP= 7.73D-09
 IDIUse=1 WtCom= 1.00D+00 WtEn= 0.00D+00
 Coeff-Com: -0.138D-02-0.950D-03-0.336D-02 0.422D-02 0.208D-01 0.125D-01
 Coeff-Com:  0.478D-02 0.583D-01-0.276D-01-0.468D+00-0.663D+00-0.986D-03
 Coeff-Com:  0.115D+01-0.468D+00-0.625D+01 0.715D+01 0.122D+01-0.738D+00
 Coeff:     -0.138D-02-0.950D-03-0.336D-02 0.422D-02 0.208D-01 0.125D-01
 Coeff:      0.478D-02 0.583D-01-0.276D-01-0.468D+00-0.663D+00-0.986D-03
 Coeff:      0.115D+01-0.468D+00-0.625D+01 0.715D+01 0.122D+01-0.738D+00
 Gap=     0.016 Goal=   None    Shift=    0.000
 Gap=     0.016 Goal=   None    Shift=    0.000
 RMSDP=1.18D-02 MaxDP=5.53D-01 DE=-2.19D-06 OVMax= 2.11D-02

 Cycle  25  Pass 1  IDiag  1:
 RMSU=  3.14D-04    CP:  9.94D-01  3.00D+00  3.00D+00 -1.67D-01
 E= -744.269170443117     Delta-E=        0.000002681987 Rises=F Damp=F
 DIIS: error= 5.64D-06 at cycle  25 NSaved=  19.
 NSaved=19 IEnMin=18 EnMin= -744.269173125103     IErMin=14 ErrMin= 3.60D-06
 ErrMax= 5.64D-06  0.00D+00 EMaxC= 1.00D-01 BMatC= 5.64D-08 BMatP= 7.73D-09
 IDIUse=1 WtCom= 1.00D+00 WtEn= 0.00D+00
 Large coefficients: NSaved= 19 BigCof=   36.53 CofMax=   10.00 Det=-6.97D-13
 Inversion failed.  Reducing to 18 matrices.
 Large coefficients: NSaved= 18 BigCof=   37.02 CofMax=   10.00 Det=-7.07D-13
 Inversion failed.  Reducing to 17 matrices.
 Large coefficients: NSaved= 17 BigCof=   32.79 CofMax=   10.00 Det=-8.53D-13
 Inversion failed.  Reducing to 16 matrices.
 Large coefficients: NSaved= 16 BigCof=   31.46 CofMax=   10.00 Det=-8.60D-13
 Inversion failed.  Reducing to 15 matrices.
 Large coefficients: NSaved= 15 BigCof=   31.46 CofMax=   10.00 Det=-8.60D-13
 Inversion failed.  Reducing to 14 matrices.
 Large coefficients: NSaved= 14 BigCof=   31.61 CofMax=   10.00 Det=-8.61D-13
 Inversion failed.  Reducing to 13 matrices.
 Large coefficients: NSaved= 13 BigCof=   31.07 CofMax=   10.00 Det=-8.70D-13
 Inversion failed.  Reducing to 12 matrices.
 Large coefficients: NSaved= 12 BigCof=   28.96 CofMax=   10.00 Det=-8.91D-13
 Inversion failed.  Reducing to 11 matrices.
 Large coefficients: NSaved= 11 BigCof=   17.88 CofMax=   10.00 Det=-1.38D-12
 Inversion failed.  Reducing to 10 matrices.
 Large coefficients: NSaved= 10 BigCof=   13.91 CofMax=   10.00 Det=-1.80D-12
 Inversion failed.  Reducing to  9 matrices.
 Large coefficients: NSaved=  9 BigCof=   11.71 CofMax=   10.00 Det=-1.92D-12
 Inversion failed.  Reducing to  8 matrices.
 Large coefficients: NSaved=  8 BigCof=   13.12 CofMax=   10.00 Det=-2.19D-12
 Inversion failed.  Reducing to  7 matrices.
 Large coefficients: NSaved=  7 BigCof=   12.38 CofMax=   10.00 Det=-2.21D-12
 Inversion failed.  Reducing to  6 matrices.
 Coeff-Com: -0.195D+01-0.328D+01 0.484D+01 0.240D+01-0.189D+01 0.876D+00
 Coeff:     -0.195D+01-0.328D+01 0.484D+01 0.240D+01-0.189D+01 0.876D+00
 Gap=     0.016 Goal=   None    Shift=    0.000
 Gap=     0.016 Goal=   None    Shift=    0.000
 RMSDP=1.71D-02 MaxDP=7.64D-01 DE= 2.68D-06 OVMax= 3.17D-02

 Cycle  26  Pass 1  IDiag  1:
 RMSU=  1.96D-03    CP:  9.58D-01  3.00D+00  3.00D+00 -2.41D+00 -2.22D+00
 E= -744.269163827295     Delta-E=        0.000006615821 Rises=F Damp=F
 DIIS: error= 2.30D-05 at cycle  26 NSaved=   7.
 NSaved= 7 IEnMin= 5 EnMin= -744.269173125103     IErMin= 1 ErrMin= 3.60D-06
 ErrMax= 2.30D-05  0.00D+00 EMaxC= 1.00D-01 BMatC= 8.43D-07 BMatP= 2.36D-08
 IDIUse=1 WtCom= 1.00D+00 WtEn= 0.00D+00
 Coeff-Com: -0.930D+00-0.489D+01 0.594D+01 0.108D+01-0.828D+00 0.741D+00
 Coeff-Com: -0.113D+00
 Coeff:     -0.930D+00-0.489D+01 0.594D+01 0.108D+01-0.828D+00 0.741D+00
 Coeff:     -0.113D+00
 Gap=     0.016 Goal=   None    Shift=    0.000
 Gap=     0.016 Goal=   None    Shift=    0.000
 RMSDP=1.19D-02 MaxDP=5.31D-01 DE= 6.62D-06 OVMax= 2.23D-02

 Cycle  27  Pass 1  IDiag  1:
 RMSU=  8.61D-05    CP:  9.84D-01  3.00D+00  3.00D+00 -8.51D-01  1.63D-01
                    CP:  1.84D-01
 E= -744.269169114424     Delta-E=       -0.000005287128 Rises=F Damp=F
 DIIS: error= 8.13D-06 at cycle  27 NSaved=   8.
 NSaved= 8 IEnMin= 5 EnMin= -744.269173125103     IErMin= 1 ErrMin= 3.60D-06
 ErrMax= 8.13D-06  0.00D+00 EMaxC= 1.00D-01 BMatC= 9.22D-08 BMatP= 2.36D-08
 IDIUse=1 WtCom= 1.00D+00 WtEn= 0.00D+00
 Coeff-Com: -0.684D-01 0.105D+01-0.900D+00-0.223D+00 0.211D+00 0.516D+00
 Coeff-Com: -0.452D+00 0.869D+00
 Coeff:     -0.684D-01 0.105D+01-0.900D+00-0.223D+00 0.211D+00 0.516D+00
 Coeff:     -0.452D+00 0.869D+00
 Gap=     0.016 Goal=   None    Shift=    0.000
 Gap=     0.016 Goal=   None    Shift=    0.000
 RMSDP=1.17D-02 MaxDP=5.41D-01 DE=-5.29D-06 OVMax= 2.13D-02

 Cycle  28  Pass 1  IDiag  1:
 RMSU=  1.11D-04    CP:  1.01D+00 -3.00D+00 -3.00D+00  2.86D-01 -8.51D-01
                    CP: -1.76D-02  5.78D-01
 E= -744.269171901209     Delta-E=       -0.000002786785 Rises=F Damp=F
 DIIS: error= 5.83D-06 at cycle  28 NSaved=   9.
 NSaved= 9 IEnMin= 5 EnMin= -744.269173125103     IErMin= 1 ErrMin= 3.60D-06
 ErrMax= 5.83D-06  0.00D+00 EMaxC= 1.00D-01 BMatC= 4.42D-08 BMatP= 2.36D-08
 IDIUse=1 WtCom= 1.00D+00 WtEn= 0.00D+00
 Coeff-Com: -0.623D+00 0.880D+01-0.907D+01 0.117D+00 0.273D+00 0.366D+00
 Coeff-Com: -0.587D+00 0.831D+00 0.891D+00
 Coeff:     -0.623D+00 0.880D+01-0.907D+01 0.117D+00 0.273D+00 0.366D+00
 Coeff:     -0.587D+00 0.831D+00 0.891D+00
 Gap=     0.016 Goal=   None    Shift=    0.000
 Gap=     0.016 Goal=   None    Shift=    0.000
 RMSDP=7.86D-03 MaxDP=3.74D-01 DE=-2.79D-06 OVMax= 1.38D-02

 Cycle  29  Pass 1  IDiag  1:
 RMSU=  6.69D-05    CP:  1.02D+00 -3.00D+00 -3.00D+00  1.36D+00  6.73D-01
                    CP: -5.15D-02  1.77D+00  5.44D-01
 E= -744.269173734537     Delta-E=       -0.000001833328 Rises=F Damp=F
 DIIS: error= 1.11D-05 at cycle  29 NSaved=  10.
 NSaved=10 IEnMin=10 EnMin= -744.269173734537     IErMin= 1 ErrMin= 3.60D-06
 ErrMax= 1.11D-05  0.00D+00 EMaxC= 1.00D-01 BMatC= 2.08D-07 BMatP= 2.36D-08
 IDIUse=1 WtCom= 1.00D+00 WtEn= 0.00D+00
 Coeff-Com: -0.191D+01 0.363D+01-0.288D+01 0.128D+01-0.540D+00 0.512D+00
 Coeff-Com: -0.579D+00 0.564D+00 0.410D+00 0.506D+00
 Coeff:     -0.191D+01 0.363D+01-0.288D+01 0.128D+01-0.540D+00 0.512D+00
 Coeff:     -0.579D+00 0.564D+00 0.410D+00 0.506D+00
 Gap=     0.016 Goal=   None    Shift=    0.000
 Gap=     0.016 Goal=   None    Shift=    0.000
 RMSDP=4.70D-03 MaxDP=2.23D-01 DE=-1.83D-06 OVMax= 8.25D-03

 Cycle  30  Pass 1  IDiag  1:
 RMSU=  1.34D-05    CP:  1.01D+00 -3.00D+00 -3.00D+00  7.11D-01 -4.92D-01
                    CP: -6.24D-02  1.09D+00  1.20D+00  6.31D-01
 E= -744.269172570970     Delta-E=        0.000001163567 Rises=F Damp=F
 DIIS: error= 8.72D-06 at cycle  30 NSaved=  11.
 NSaved=11 IEnMin=10 EnMin= -744.269173734537     IErMin= 1 ErrMin= 3.60D-06
 ErrMax= 8.72D-06  0.00D+00 EMaxC= 1.00D-01 BMatC= 1.28D-07 BMatP= 2.36D-08
 IDIUse=1 WtCom= 1.00D+00 WtEn= 0.00D+00
 Coeff-Com: -0.357D+01-0.680D+01 0.947D+01 0.242D+01-0.169D+01 0.583D+00
 Coeff-Com: -0.353D+00-0.604D-01-0.723D+00-0.572D+00 0.230D+01
 Coeff:     -0.357D+01-0.680D+01 0.947D+01 0.242D+01-0.169D+01 0.583D+00
 Coeff:     -0.353D+00-0.604D-01-0.723D+00-0.572D+00 0.230D+01
 Gap=     0.016 Goal=   None    Shift=    0.000
 Gap=     0.016 Goal=   None    Shift=    0.000
 RMSDP=1.41D-02 MaxDP=6.53D-01 DE= 1.16D-06 OVMax= 2.54D-02

 Cycle  31  Pass 1  IDiag  1:
 RMSU=  1.50D-05    CP:  9.86D-01  3.00D+00  3.00D+00 -7.53D-01  2.41D-01
                    CP:  1.06D-01  1.58D+00  7.50D-01  5.57D-01  3.00D+00
 E= -744.269169238873     Delta-E=        0.000003332097 Rises=F Damp=F
 DIIS: error= 1.23D-05 at cycle  31 NSaved=  12.
 NSaved=12 IEnMin=10 EnMin= -744.269173734537     IErMin= 1 ErrMin= 3.60D-06
 ErrMax= 1.23D-05  0.00D+00 EMaxC= 1.00D-01 BMatC= 2.41D-07 BMatP= 2.36D-08
 IDIUse=1 WtCom= 1.00D+00 WtEn= 0.00D+00
 Large coefficients: NSaved= 12 BigCof=   10.01 CofMax=   10.00 Det=-9.63D-13
 Inversion failed.  Reducing to 11 matrices.
 Large coefficients: NSaved= 11 BigCof=   26.11 CofMax=   10.00 Det=-1.57D-12
 Inversion failed.  Reducing to 10 matrices.
 Coeff-Com: -0.298D+01-0.593D+01 0.864D+01 0.205D+01-0.190D+01 0.640D+00
 Coeff-Com: -0.760D+00-0.174D+01 0.322D+01-0.249D+00
 Coeff:     -0.298D+01-0.593D+01 0.864D+01 0.205D+01-0.190D+01 0.640D+00
 Coeff:     -0.760D+00-0.174D+01 0.322D+01-0.249D+00
 Gap=     0.016 Goal=   None    Shift=    0.000
 Gap=     0.016 Goal=   None    Shift=    0.000
 RMSDP=1.21D-02 MaxDP=5.40D-01 DE= 3.33D-06 OVMax= 2.27D-02

 Cycle  32  Pass 1  IDiag  1:
 RMSU=  8.41D-06    CP:  9.60D-01  3.00D+00  3.00D+00 -2.34D+00 -1.89D+00
                    CP:  9.22D-01  5.09D-01  3.63D-01  2.21D-01  2.44D+00
                    CP:  9.22D-01
 E= -744.269164019173     Delta-E=        0.000005219700 Rises=F Damp=F
 DIIS: error= 2.54D-05 at cycle  32 NSaved=  11.
 NSaved=11 IEnMin= 8 EnMin= -744.269173734537     IErMin= 1 ErrMin= 3.60D-06
 ErrMax= 2.54D-05  0.00D+00 EMaxC= 1.00D-01 BMatC= 1.02D-06 BMatP= 2.36D-08
 IDIUse=1 WtCom= 1.00D+00 WtEn= 0.00D+00
 Coeff-Com: -0.111D+00-0.180D+01 0.175D+01 0.606D+00-0.278D+00 0.280D+00
 Coeff-Com: -0.203D+00-0.320D+00-0.364D+00 0.227D+01-0.834D+00
 Coeff:     -0.111D+00-0.180D+01 0.175D+01 0.606D+00-0.278D+00 0.280D+00
 Coeff:     -0.203D+00-0.320D+00-0.364D+00 0.227D+01-0.834D+00
 Gap=     0.016 Goal=   None    Shift=    0.000
 Gap=     0.016 Goal=   None    Shift=    0.000
 RMSDP=1.01D-02 MaxDP=4.48D-01 DE= 5.22D-06 OVMax= 1.89D-02

 >>>>>>>>>> Convergence criterion not met.
 SCF Done:  E(UB3LYP) =  -744.269164019     A.U. after   33 cycles
            NFock= 32  Conv=0.10D-01     -V/T= 2.0030
 <Sx>= 0.0000 <Sy>= 0.0000 <Sz>= 0.0000 <S**2>=-0.0000 S=-0.0000
 <L.S>=  0.00000000000    
 KE= 7.420474495081D+02 PE=-3.956305854397D+03 EE= 1.375111750733D+03
 Annihilation of the first spin contaminant:
 S**2 before annihilation    -0.0000,   after    -0.0000
 Leave Link  502 at Mon Dec 25 02:32:28 2023, MaxMem=  4026531840 cpu:            3118.5 elap:             404.3
 (Enter /sysapps/ubuntu-applications/gaussian/Gaussian/AVX2/g16/l508.exe)
 Two-electron integral symmetry not used.
 Tight linear equation convergence will be used.
 UB3LYP wavefunction.
 Quadratic Convergence SCF Method.
 Line search only if initial step raises energy.
 Fock matrices will be formed incrementally for  20 cycles.
 FoFJK:  IHMeth= 1 ICntrl=       0 DoSepK=F KAlg= 0 I1Cent=           0 FoldK=F
 IRaf= 860000000 NMat=       1 IRICut=       1 DoRegI=T DoRafI=F ISym2E= 0 IDoP0=0 IntGTp=1.
 FoFCou: FMM=F IPFlag=           0 FMFlag=      100000 FMFlg1=           0
         NFxFlg=           0 DoJE=F BraDBF=F KetDBF=F FulRan=T
         wScrn=  0.000000 ICntrl=         0 IOpCl=  1 I1Cent=           0 NGrid=           0
         NMat0=    1 NMatS0=      1 NMatT0=    0 NMatD0=    1 NMtDS0=    0 NMtDT0=    0
 Symmetry not used in FoFCou.
 Iteration   1 EE= -744.269168584347                                    Grad=4.006D-04 Max rot=    0.0034 deg.
 QCNR:  CnvC1=4.01D-09 CnvC2=4.01D-08
 LinEq1:  Iter=  0 NonCon=     1 RMS=1.62D-05 Max=2.04D-03 NDo=     1
 AX will form     1 AO Fock derivatives at one time.
 LinEq1:  Iter=  1 NonCon=     1 RMS=1.96D-05 Max=1.46D-03 NDo=     1
 LinEq1:  Iter=  2 NonCon=     1 RMS=2.54D-05 Max=3.25D-03 NDo=     1
 LinEq1:  Iter=  3 NonCon=     1 RMS=7.28D-05 Max=5.74D-03 NDo=     1
 LinEq1:  Iter=  4 NonCon=     1 RMS=8.34D-05 Max=9.50D-03 NDo=     1
 LinEq1:  Iter=  5 NonCon=     1 RMS=1.83D-04 Max=1.67D-02 NDo=     1
 LinEq1:  Iter=  6 NonCon=     1 RMS=1.55D-04 Max=1.20D-02 NDo=     1
 LinEq1:  Iter=  7 NonCon=     1 RMS=1.19D-04 Max=8.44D-03 NDo=     1
 LinEq1:  Iter=  8 NonCon=     1 RMS=8.34D-05 Max=5.04D-03 NDo=     1
 LinEq1:  Iter=  9 NonCon=     1 RMS=4.10D-05 Max=2.40D-03 NDo=     1
 LinEq1:  Iter= 10 NonCon=     1 RMS=3.29D-05 Max=2.33D-03 NDo=     1
 LinEq1:  Iter= 11 NonCon=     1 RMS=2.38D-05 Max=1.04D-03 NDo=     1
 LinEq1:  Iter= 12 NonCon=     1 RMS=2.25D-05 Max=1.03D-03 NDo=     1
 LinEq1:  Iter= 13 NonCon=     1 RMS=1.25D-05 Max=8.08D-04 NDo=     1
 LinEq1:  Iter= 14 NonCon=     1 RMS=8.55D-06 Max=2.74D-04 NDo=     1
 LinEq1:  Iter= 15 NonCon=     1 RMS=4.07D-06 Max=1.41D-04 NDo=     1
 LinEq1:  Iter= 16 NonCon=     1 RMS=3.30D-06 Max=1.36D-04 NDo=     1
 LinEq1:  Iter= 17 NonCon=     1 RMS=2.69D-06 Max=1.63D-04 NDo=     1
 LinEq1:  Iter= 18 NonCon=     1 RMS=1.68D-06 Max=1.52D-04 NDo=     1
 LinEq1:  Iter= 19 NonCon=     1 RMS=1.42D-06 Max=1.04D-04 NDo=     1
 LinEq1:  Iter= 20 NonCon=     1 RMS=9.65D-07 Max=3.96D-05 NDo=     1
 LinEq1:  Iter= 21 NonCon=     1 RMS=5.68D-07 Max=2.86D-05 NDo=     1
 LinEq1:  Iter= 22 NonCon=     1 RMS=3.02D-07 Max=1.68D-05 NDo=     1
 LinEq1:  Iter= 23 NonCon=     1 RMS=2.03D-07 Max=1.07D-05 NDo=     1
 LinEq1:  Iter= 24 NonCon=     1 RMS=9.61D-08 Max=5.43D-06 NDo=     1
 LinEq1:  Iter= 25 NonCon=     1 RMS=5.84D-08 Max=2.45D-06 NDo=     1
 LinEq1:  Iter= 26 NonCon=     1 RMS=4.25D-08 Max=3.03D-06 NDo=     1
 LinEq1:  Iter= 27 NonCon=     1 RMS=2.64D-08 Max=2.38D-06 NDo=     1
 LinEq1:  Iter= 28 NonCon=     1 RMS=2.27D-08 Max=1.54D-06 NDo=     1
 LinEq1:  Iter= 29 NonCon=     1 RMS=1.69D-08 Max=7.91D-07 NDo=     1
 LinEq1:  Iter= 30 NonCon=     1 RMS=1.11D-08 Max=5.54D-07 NDo=     1
 LinEq1:  Iter= 31 NonCon=     1 RMS=7.71D-09 Max=3.20D-07 NDo=     1
 LinEq1:  Iter= 32 NonCon=     1 RMS=2.79D-09 Max=9.80D-08 NDo=     1
 LinEq1:  Iter= 33 NonCon=     0 RMS=9.89D-10 Max=2.71D-08 NDo=     1
 Linear equations converged to 4.006D-09 4.006D-08 after    33 iterations.
 Angle between quadratic step and gradient=  81.06 degrees.
     ILin= 1 X=0.000D+00 Y=-7.442691685843D+02 DE= 0.00D+00 F= -5.71D-06
 RMSU=  1.60D-02    CP:  1.03D+00
     ILin= 2 X=1.000D+00 Y=-7.442691729357D+02 DE=-4.35D-06 F= -4.31D-06
 RMSU=  1.01D-03    CP:  1.06D+00  1.93D+00
     ILin= 3 X=1.900D+00 Y=-7.442691781782D+02 DE=-9.59D-06 F= -7.71D-06
 RMSU=  1.22D-02    CP:  1.11D+00  3.00D+00  3.00D+00
     ILin= 4 X=3.600D+00 Y=-7.442691953411D+02 DE=-2.68D-05 F= -9.58D-06
 RMSU=  3.95D-02    CP:  1.20D+00  3.00D+00  3.00D+00  3.00D+00
     ILin= 5 X=7.000D+00 Y=-7.442690776904D+02 DE= 9.09D-05 F=  1.24D-04
     An  expanding polynomial of degree  5 produced  4.4206
 RMSU=  3.55D-04    CP:  1.14D+00  3.00D+00  3.00D+00  2.22D+00  1.41D-03
 Iteration   2 EE= -744.269200022485     Delta-E=       -0.000031438138 Grad=5.616D-03 Max rot=    0.0433 deg.
 QCNR:  CnvC1=2.09D-08 CnvC2=2.09D-07
 LinEq1:  Iter=  0 NonCon=     1 RMS=3.15D-04 Max=4.18D-02 NDo=     1
[...]
 007571,0.00006917,-0.00087338,0.00022462,-0.00002331,-0.00073547,0.000
 10642,0.00002368,0.00008768,-0.00021215,-0.00002992,-0.00031186,0.0002
 4203,0.00001404,0.00029846,-0.00043436,-0.00008857,0.00009823,0.001400
 27,0.00031099,0.00041727,0.00008712,0.00014635,-0.00290187,0.00081125,
 -0.00007786,0.00265213,-0.00279591,-0.00068550,0.00140620,0.00388092,0
 .00037986,-0.00213368,0.00352036,-0.01103405,0.02689936,0.06420094,0.0
 2025933,-0.05136622,0.14378732,-0.00602353,-0.00172170,-0.01241806,-0.
 00180177,0.00133234,-0.00022181,-0.00015879,0.00092823,-0.00058029,-0.
 00063875,0.00017495,-0.00062220,0.00052133,-0.00002178,0.00051130,-0.0
 0012718,-0.00001613,-0.00047569,0.00057699,0.00016692,0.00009590,-0.00
 036814,-0.00007059,-0.00000431,0.00025211,0.00007331,-0.00003790,-0.00
 011143,-0.00004293,0.00005944,0.00017392,0.00003421,-0.00004038,-0.000
 37157,-0.00020660,-0.00005299,-0.00013795,0.00006306,0.00083246,-0.000
 05998,-0.00005587,-0.00035929,0.00119723,-0.00055438,0.00032349,0.0004
 6209,-0.00013443,-0.00118016,-0.00117208,0.00120037,-0.01868808,-0.012
 63709,0.05067678,-0.02205400,0.09703846,-0.37874309,-0.00449974,0.0041
 9378,-0.01549326,-0.00249181,0.00120944,0.00214700,-0.00001590,0.00045
 848,-0.00074473,0.00092527,-0.00009544,0.00026030,-0.00127515,-0.00042
 086,0.00065775,0.00016795,0.00022872,-0.00071710,0.00052138,0.00021046
 ,-0.00093636,-0.00009146,-0.00009317,0.00007653,-0.00012423,0.00004208
 ,-0.00045648,0.00024540,0.00001185,0.00041119,-0.00040740,-0.00004869,
 0.00004195,0.00128634,0.00006935,0.00046696,-0.00020887,0.00065952,-0.
 00202401,0.00055119,-0.00019832,0.00196890,-0.00240118,-0.00137642,0.0
 0000425,0.00592474,-0.00102770,0.00217936,-0.00436691,0.00941800,-0.01
 641462,0.02937957,-0.11095178,0.40661678,0.00099700,0.00042005,-0.0005
 6359,0.00246276,0.00148279,-0.00402524,-0.20797149,-0.05408323,0.12091
 599,-0.01938499,-0.00571518,0.02017136,-0.00186699,-0.00221635,-0.0044
 1408,0.00005885,-0.00019102,0.00111852,-0.00010246,-0.00023941,0.00039
 160,-0.00140712,0.00023004,0.00005400,0.00032743,-0.00000144,0.0001671
 0,-0.00020670,-0.00011507,0.00026954,-0.00008867,0.00002213,-0.0002826
 5,0.00016133,-0.00001626,-0.00000016,-0.00046409,-0.00009005,-0.000346
 97,0.00056514,-0.00006197,0.00037980,-0.00030046,0.00013975,-0.0003924
 2,-0.00002509,0.00011923,-0.00098734,0.00120340,0.00023031,-0.00090483
 ,0.00043425,-0.00004139,0.00032415,0.00028937,0.00009386,0.00028620,0.
 22418780,-0.00058336,-0.00151082,0.00032791,-0.00097784,0.00035940,-0.
 00026445,-0.05411074,-0.04145498,0.03819947,-0.00201060,0.00010512,0.0
 0398318,-0.00291765,0.00770043,0.00021543,-0.00005293,0.00088503,0.000
 62072,0.00006123,0.00030114,0.00017239,0.00031236,-0.00132016,0.000010
 88,-0.00018568,0.00012375,0.00004547,0.00013639,0.00006737,0.00005256,
 -0.00015454,-0.00006673,-0.00000010,0.00019317,0.00020076,-0.00005027,
 -0.00047503,-0.00003208,0.00012484,-0.00054190,-0.00082037,0.00086561,
 0.00000407,0.00001861,-0.00075163,0.00144672,0.00027427,-0.00114833,-0
 .00105927,0.00306277,0.00057146,0.00100481,0.00023964,-0.00006640,0.00
 004972,-0.00053218,-0.00015192,0.05861674,0.03675101,0.00177514,-0.000
 30890,0.00227656,0.02631152,0.00636316,-0.01249827,0.11950762,0.039113
 98,-0.15267990,-0.01010821,-0.00354259,0.01023115,-0.00334818,0.000272
 91,-0.00075657,0.00018653,0.00004889,0.00136684,-0.00001959,0.00014991
 ,-0.00102337,0.00043557,-0.00014868,-0.00028997,-0.00025570,0.00001411
 ,0.00005207,0.00008999,0.00003282,-0.00013801,0.00000233,-0.00001805,0
 .00013606,-0.00003062,0.00000893,0.00002179,0.00039539,0.00012142,0.00
 017110,0.00004759,0.00006101,-0.00093556,0.00051480,-0.00004300,0.0010
 4120,-0.00143998,-0.00039420,0.00044178,-0.00258677,0.00012878,-0.0059
 4880,-0.00135913,0.00074642,-0.00042743,-0.00025523,-0.00013117,0.0001
 6495,-0.13160397,-0.04240793,0.15849467,0.00026431,0.00013830,-0.00131
 041,-0.00404548,-0.00268106,-0.00096989,-0.00071089,0.00111018,-0.0277
 9758,-0.06010924,-0.00182967,-0.03968378,0.00881800,-0.00084763,0.0243
 2539,-0.00113026,-0.00008917,0.00419717,0.00049359,0.00050304,-0.00347
 988,0.00165331,0.00047613,-0.00133520,-0.00061014,-0.00014309,-0.00015
 389,0.00024124,0.00009136,-0.00043354,-0.00009486,-0.00004645,0.000334
 52,0.00012520,0.00003939,-0.00022687,0.00014332,-0.00006148,0.00049983
 ,0.00080869,0.00024233,0.00118227,-0.00041664,-0.00016987,0.00030610,-
 0.00386305,-0.00182866,0.00180426,-0.00088003,0.00000567,0.00019578,0.
 00000096,-0.00000936,0.00009081,-0.00035910,-0.00005447,-0.00018181,0.
 00093758,0.00131147,0.00065839,0.05879037,-0.00025143,0.00037226,-0.00
 001229,-0.00239571,0.00800799,0.00048193,-0.00146505,0.00348786,-0.004
 97485,-0.00177438,-0.03905281,0.01188279,0.00101940,0.00439766,0.00640
 159,0.00046990,-0.00284458,0.00080933,0.00041065,-0.00065861,-0.000824
 03,0.00028115,0.00007937,-0.00027172,-0.00011578,0.00006725,-0.0000148
 4,0.00002902,0.00002592,-0.00007788,-0.00001550,-0.00001797,0.00004978
 ,0.00002017,0.00002105,-0.00002571,-0.00001968,0.00002066,0.00008288,0
 .00029813,-0.00022166,0.00022740,-0.00012534,0.00002133,0.00008416,-0.
 00195451,0.00459699,0.00073245,0.00011707,-0.00100958,0.00000588,0.000
 06587,-0.00004240,-0.00018148,-0.00012083,-0.00017573,-0.00027088,0.00
 168138,-0.00483364,-0.00042552,0.00372101,0.02841301,0.00015906,0.0001
 5781,-0.00045757,-0.00210354,0.00001742,0.00209731,0.00110128,0.000864
 45,-0.00688073,-0.03831148,0.01206499,-0.32207053,-0.00193557,0.001082
 21,-0.01797653,-0.00186373,-0.00019834,-0.00327129,-0.00234907,-0.0007
 0275,0.00223110,0.00008463,0.00000233,0.00010198,0.00002418,0.00001801
 ,-0.00003169,-0.00001599,-0.00000492,0.00002644,0.00013007,0.00002930,
 -0.00000568,-0.00019424,-0.00005139,0.00011719,0.00038062,0.00011362,-
 0.00009533,-0.00093933,-0.00025394,-0.00101621,0.00043163,0.00015132,-
 0.00002754,0.00309560,0.00090110,0.00009619,0.00086059,0.00004705,0.00
 065318,-0.00003001,-0.00003234,-0.00000854,-0.00014340,-0.00001473,-0.
 00008690,-0.00032093,-0.00051248,0.00088116,0.04198241,-0.01361352,0.3
 4579951,0.00002049,-0.00010327,0.00003134,0.00001137,-0.00001530,-0.00
 025555,0.00024105,0.00001480,0.00025655,-0.00042809,-0.00010999,0.0002
 5869,0.00164636,0.00024874,0.00084979,-0.00180805,0.00043314,-0.004358
 85,0.00202686,0.00033846,0.00338103,0.00126826,0.00183983,-0.02997752,
 -0.05808988,-0.00172930,-0.03088209,0.00569046,-0.00144667,0.02446684,
 -0.00284102,-0.00235012,0.00202764,-0.00097690,-0.00005419,0.00012781,
 -0.00478817,-0.00198518,-0.00034874,0.00064592,0.00039662,-0.00157909,
 -0.00060174,-0.00014135,-0.00008977,-0.00000866,-0.00000614,-0.0004394
 9,0.00006847,0.00002807,0.00021918,-0.00009322,0.00006792,0.00003530,0
 .00000438,0.00002512,-0.00002311,0.00000870,0.00002802,0.00001863,-0.0
 0012747,-0.00003253,0.00002399,0.05694224,-0.00001591,-0.00006178,-0.0
 0000034,0.00008131,-0.00001451,-0.00006884,0.00000426,0.00009347,0.000
 07796,-0.00007810,0.00002311,0.00004774,0.00035562,-0.00006193,0.00021
 102,0.00003983,-0.00249944,-0.00087959,0.00036457,-0.00086611,0.000553
 73,-0.00029696,0.00468403,-0.00470019,-0.00166263,-0.03876812,0.016536
 16,0.00098522,0.00258581,0.00616613,-0.00251580,0.00759789,0.00101465,
 0.00002906,-0.00093020,-0.00011925,-0.00190576,0.00506330,0.00027453,0
 .00019265,-0.00059564,-0.00023809,-0.00013306,0.00011266,-0.00006186,0
 .00007796,0.00017702,-0.00014150,-0.00005570,0.00004001,0.00004111,-0.
 00002191,0.00001693,0.00000414,0.00000202,0.00000688,0.00001644,0.0000
 0840,-0.00004565,-0.00000240,-0.00003149,0.00001737,0.00000543,0.00328
 218,0.02847216,0.00016038,0.00000901,0.00004100,-0.00019159,-0.0000631
 9,0.00002049,-0.00002262,-0.00000451,0.00000164,0.00002772,0.00003096,
 -0.00008882,-0.00037427,-0.00008854,-0.00008020,0.00143239,0.00029285,
 -0.00284751,0.00258936,0.00038634,0.00099552,-0.00363493,0.00053525,-0
 .01112748,-0.03245417,0.01628198,-0.32242685,-0.00478088,0.00031044,-0
 .01260973,0.00350052,0.00128863,0.00063275,-0.00043867,-0.00020055,0.0
 0082382,-0.00191687,-0.00008975,0.00108926,0.00057354,0.00011414,-0.00
 074420,-0.00027756,-0.00004317,-0.00003612,-0.00032849,-0.00003869,0.0
 0010182,0.00017278,0.00002609,0.00000454,-0.00008260,0.00000081,0.0000
 2192,-0.00003852,0.00000696,-0.00002919,-0.00001315,0.00000619,-0.0000
 1450,0.00001333,0.00000115,0.00003836,0.03566408,-0.01840308,0.3460812
 5,0.00029651,0.00004709,0.00006658,-0.00030618,-0.00013348,0.00006924,
 -0.00014697,-0.00001072,-0.00000400,0.00006628,-0.00000622,-0.00024161
 ,-0.00078700,0.00005228,0.00047933,-0.00066673,-0.00015550,-0.00153275
 ,-0.00000499,-0.00007050,0.00007444,-0.00046866,-0.00206408,0.00447145
 ,-0.02063147,-0.00313095,-0.01331660,-0.26845192,-0.04154295,-0.093470
 44,-0.00242867,-0.00026698,0.00198106,0.00190621,-0.00035700,-0.001580
 15,0.00057988,0.00008391,0.00108325,0.00006856,0.00015441,-0.00034421,
 -0.00011810,-0.00002928,0.00023720,-0.00028430,-0.00005909,0.00024858,
 0.00022882,0.00001554,-0.00004844,-0.00012626,-0.00000417,0.00004143,-
 0.00006723,0.00000486,-0.00005040,-0.00002431,0.00000725,-0.00003335,0
 .00000596,0.00000592,0.00001760,0.00103023,0.00115184,0.00063143,0.289
 82036,0.00001257,0.00003088,0.00000855,-0.00006985,0.00005507,0.000030
 60,-0.00002654,-0.00009593,0.00001222,-0.00004580,0.00026675,-0.000013
 24,0.00007448,-0.00114276,0.00003225,-0.00034164,0.00051126,-0.0003101
 2,-0.00003810,0.00030733,0.00002443,-0.00186148,0.00740070,0.00173303,
 -0.00578012,-0.00036837,-0.00344883,-0.04138822,-0.03074578,-0.0128370
 5,0.00217570,-0.00148124,0.00064039,-0.00050779,0.00437920,0.00053935,
 0.00006619,-0.00032933,0.00020883,0.00023386,-0.00055905,-0.00005491,-
 0.00000208,-0.00009337,-0.00001640,-0.00009595,0.00012554,0.00004400,0
 .00004847,0.00004192,0.00002579,0.00000291,-0.00001589,-0.00002116,-0.
 00000865,-0.00000405,-0.00000951,0.00001179,0.00000099,-0.00001482,0.0
 0000922,-0.00002578,-0.00000237,0.00125215,-0.00463830,-0.00035688,0.0
 4591131,0.02744760,0.00018024,0.00001696,0.00006680,-0.00010780,-0.000
 06214,-0.00017222,0.00002223,0.00001922,0.00012524,0.00001638,0.000026
 78,0.00005699,0.00035667,-0.00003865,-0.00004217,-0.00007851,-0.000083
 29,0.00097660,-0.00000774,0.00004739,-0.00024053,0.00271880,0.00139876
 ,-0.00218751,0.01785895,0.00278039,0.01052889,-0.09347773,-0.01286848,
 -0.09749587,-0.02969695,-0.00558449,-0.00556980,0.00105815,0.00102102,
 -0.00630136,0.00083379,0.00020312,-0.00026774,-0.00036748,-0.00007856,
 -0.00017325,-0.00014630,-0.00007115,0.00036343,0.00000402,-0.00000887,
 -0.00015369,-0.00002320,0.00001692,0.00002842,-0.00007862,0.00001191,0
 .00002871,-0.00003024,0.00000041,-0.00003259,0.00002302,0.00000751,-0.
 00001118,-0.00001922,-0.00000380,0.00000030,-0.00057444,-0.00058960,0.
 00094717,0.10194751,0.01405064,0.09896683,0.00023507,0.00001860,0.0000
 7465,-0.00036440,-0.00011950,0.00008356,-0.00003561,0.00001319,-0.0001
 1104,0.00008311,0.00002771,-0.00001073,-0.00019936,-0.00009002,-0.0002
 0844,0.00024672,0.00013121,0.00012740,-0.00011003,-0.00000334,-0.00003
 455,-0.00009660,0.00020313,-0.00114713,0.00155749,-0.00058925,-0.00064
 842,0.00454621,0.00153053,-0.00458658,-0.20800928,-0.04589045,0.120148
 80,-0.01987084,-0.00596396,0.02133618,-0.00245143,-0.00169200,-0.00463
 790,-0.00015744,-0.00017416,0.00168203,-0.00000654,-0.00007942,-0.0000
 1576,-0.00109357,-0.00004265,-0.00016232,0.00024766,0.00000576,0.00018
 005,-0.00013170,-0.00000371,0.00002392,-0.00006524,0.00001003,-0.00005
 153,0.00000126,0.00001432,-0.00002015,-0.00000931,-0.00000151,0.000007
 71,0.00005526,-0.00006561,-0.00023401,0.00078074,0.00044145,0.00093011
 ,0.22378361,0.00002896,0.00000601,0.00002732,-0.00011498,0.00008123,0.
 00000783,0.00001126,-0.00003548,-0.00001457,-0.00001810,0.00008287,0.0
 0001103,-0.00006725,0.00013811,-0.00002064,0.00012880,-0.00061772,0.00
 001568,-0.00002703,-0.00005853,-0.00005627,0.00014546,-0.00036278,-0.0
 0031224,-0.00036289,0.00447053,0.00069325,-0.00093927,-0.00164286,-0.0
 0007208,-0.04600975,-0.03676340,0.03401202,-0.00333866,0.00009905,0.00
 359374,-0.00188457,0.00781268,-0.00024923,-0.00011716,0.00042402,0.000
 35764,-0.00007064,0.00033400,0.00003357,-0.00000147,-0.00118739,-0.000
 13877,0.00004827,0.00015159,0.00008769,0.00000362,-0.00002141,-0.00001
 070,-0.00000785,0.00000591,-0.00002262,-0.00000143,0.00000782,-0.00000
 328,-0.00000179,-0.00000595,-0.00000047,-0.00019095,0.00048363,0.00004
 936,0.00057700,-0.00165760,-0.00002861,0.05104776,0.03309431,-0.000230
 64,-0.00000663,-0.00005750,0.00018736,0.00005753,0.00013766,-0.0000442
 2,0.00001609,-0.00008571,0.00007245,-0.00001974,0.00001688,-0.00002145
 ,0.00002257,-0.00007365,0.00030532,0.00007518,-0.00031192,0.00026334,0
 .00001488,0.00031995,-0.00093010,-0.00022327,0.00028051,-0.00326009,0.
 00019096,-0.00590618,0.02699927,0.00616402,-0.01201447,0.12019729,0.03
 406118,-0.15266626,-0.00980917,-0.00265529,0.00963328,-0.00290184,0.00
 011983,-0.00025067,0.00038597,0.00003876,0.00049409,-0.00007492,0.0000
 4183,-0.00022648,-0.00006185,-0.00014643,0.00006838,-0.00009148,0.0000
 3326,0.00002738,0.00011445,-0.00001692,-0.00003525,0.00005594,-0.00000
 943,0.00004581,-0.00000536,-0.00001532,0.00001886,-0.00000677,-0.00000
 139,0.00000357,0.00122693,0.00033897,-0.00067219,-0.00084509,-0.000363
 79,0.00091048,-0.13220701,-0.03736273,0.15941840,-0.00010653,-0.000021
 60,-0.00004882,0.00028809,0.00010331,-0.00035677,-0.00015197,-0.000031
 97,0.00024377,0.00016304,0.00006749,-0.00019324,0.00009505,-0.00002307
 ,0.00047446,0.00074227,0.00020817,0.00125723,-0.00044645,-0.00014824,0
 .00016623,-0.00381385,-0.00193455,0.00140890,-0.00077000,-0.00000011,0
 .00031435,-0.00405563,-0.00231823,-0.00097038,-0.00088448,0.00143610,-
 0.02784455,-0.06075783,-0.00121161,-0.04245956,0.00923838,-0.00112103,
 0.02448142,-0.00135542,-0.00016816,0.00414070,0.00054669,0.00057463,-0
 .00332547,0.00160459,0.00051188,-0.00136807,-0.00059631,-0.00015925,-0
 .00017124,0.00005776,0.00002319,0.00000505,0.00001766,-0.00001200,0.00
 002152,-0.00000046,-0.00003926,-0.00001106,0.00002820,0.00000745,-0.00
 001341,0.00006664,0.00020015,0.00003009,-0.00024665,-0.00007390,-0.001
 34800,0.00106862,0.00116430,0.00065552,0.05940748,-0.00003234,-0.00005
 305,-0.00000210,0.00007242,-0.00003942,-0.00009192,-0.00004360,0.00004
 071,0.00005210,0.00006314,0.00000104,-0.00005885,-0.00002877,0.0000579
 5,0.00011192,0.00032987,-0.00066164,0.00026566,-0.00014239,0.00016480,
 0.00008265,-0.00202087,0.00468903,0.00067210,-0.00001631,-0.00092109,-
 0.00005335,-0.00224096,0.00773060,0.00034247,-0.00088189,0.00312474,-0
 .00479507,-0.00134817,-0.03857340,0.01408583,0.00092116,0.00448348,0.0
 0666025,0.00043853,-0.00255508,0.00094675,0.00047701,-0.00082218,-0.00
 095316,0.00036842,-0.00002817,-0.00031720,-0.00017481,0.00017810,0.000
 00946,0.00002902,0.00001527,-0.00000091,0.00000002,0.00000275,-0.00000
 620,-0.00000133,-0.00001492,0.00000120,0.00000490,0.00000693,0.0000027
 2,0.00021028,-0.00089976,-0.00005762,-0.00018895,0.00059382,-0.0001893
 2,0.00126146,-0.00480883,-0.00034950,0.00298094,0.02827742,-0.00015374
 ,-0.00002990,-0.00004553,0.00012974,0.00004866,0.00009882,0.00010765,0
 .00000237,-0.00005419,-0.00014788,-0.00003641,0.00009610,0.00027412,0.
 00006509,-0.00010874,-0.00088461,-0.00017156,-0.00091237,0.00037489,0.
 00010952,-0.00016193,0.00301730,0.00100285,0.00014531,0.00098457,0.000
 08830,0.00061867,-0.00244259,0.00001359,0.00190498,0.00137695,0.001037
 04,-0.00664233,-0.04099103,0.01438854,-0.32048229,-0.00191753,0.001459
 23,-0.01817943,-0.00183041,-0.00031217,-0.00339549,-0.00246461,-0.0007
 5204,0.00232525,0.00003206,-0.00001890,0.00011670,-0.00000732,0.000041
 55,-0.00000468,0.00006218,0.00000179,-0.00002115,0.00003940,0.00000033
 ,0.00002896,-0.00000097,0.00000296,0.00001979,-0.00000951,-0.00000217,
 -0.00001683,-0.00005669,-0.00007947,-0.00011445,0.00010298,0.00009882,
 -0.00036548,-0.00051827,-0.00059294,0.00094295,0.04488749,-0.01635663,
 0.34418484,0.00305312,0.00119304,0.00151678,0.00365361,-0.00275059,0.0
 2266945,-0.00287836,-0.00199243,0.00229128,-0.00097929,-0.00000258,-0.
 00004942,-0.00496745,-0.00204473,-0.00052333,0.00079178,0.00023896,-0.
 00132423,-0.00061985,-0.00008416,-0.00037969,-0.00007254,0.00002506,-0
 .00059507,0.00026442,0.00006167,0.00019648,-0.00025216,-0.00004548,-0.
 00026086,0.00030214,0.00003286,0.00035812,-0.00052921,-0.00013175,0.00
 028309,0.00204306,0.00025928,0.00104782,-0.00212500,0.00044935,-0.0047
 4412,0.00223781,0.00037620,0.00378294,0.00143918,0.00235929,-0.0294311
 4,-0.05694499,-0.00156965,-0.02993496,-0.00008075,0.00019808,0.0000041
 1,-0.00051025,0.00009787,-0.00106603,0.00020793,-0.00007746,0.00112843
 ,0.00004575,0.00014514,-0.00007869,0.00003649,0.00000787,-0.00000729,-
 0.00002411,0.00000004,0.00000634,-0.00000440,-0.00000164,0.00002615,-0
 .00013890,-0.00003676,0.00003582,0.05605197,0.00050056,-0.00436291,-0.
 00104039,-0.00010709,0.00401080,0.00638131,-0.00165185,0.00582411,0.00
 082486,-0.00053512,-0.00108250,0.00001997,-0.00134827,0.00466288,-0.00
 013083,0.00019523,-0.00013552,-0.00058732,-0.00014164,0.00004420,0.000
 17885,-0.00023798,0.00003915,0.00008674,0.00015306,0.00001971,0.000017
 28,-0.00009531,-0.00001716,0.00006560,0.00008047,0.00003608,-0.0000698
 5,-0.00014783,0.00012677,0.00010198,0.00028911,-0.00010648,-0.00005591
 ,0.00050486,-0.00232241,-0.00099934,0.00033368,-0.00106283,0.00043134,
 -0.00075051,0.00371769,-0.00407978,-0.00082258,-0.03622592,0.02169343,
 0.00086859,-0.00039101,-0.00042315,-0.00024272,0.00023690,0.00111692,-
 0.00028232,0.00053340,0.00037700,0.00014118,-0.00064697,-0.00007050,-0
 .00000032,0.00000718,0.00000582,0.00000846,-0.00000361,0.00000591,0.00
 001044,-0.00002981,-0.00000462,-0.00001463,0.00001089,-0.00000848,0.00
 329252,0.02711735,-0.00197225,-0.00105993,0.00135575,-0.00503268,0.000
 89372,-0.01517746,0.00311962,0.00117858,0.00068978,-0.00016159,-0.0001
 9254,0.00062181,-0.00170984,-0.00022551,0.00159157,0.00070726,0.000089
 28,-0.00122277,-0.00031141,-0.00001093,0.00054933,-0.00066237,-0.00015
 358,0.00043846,0.00024648,0.00004457,-0.00002516,-0.00007052,-0.000047
 34,0.00027155,-0.00013277,0.00001415,-0.00022986,0.00021253,0.00009469
 ,-0.00010832,-0.00100810,-0.00010613,-0.00036283,0.00168612,0.00038232
 ,-0.00170276,0.00207087,0.00024363,-0.00015167,-0.00320638,0.00037493,
 -0.01149651,-0.03106870,0.02220877,-0.31810839,0.00035945,-0.00015666,
 0.00027615,0.00207202,0.00017065,0.00060766,-0.00023964,0.00016223,-0.
 00059443,0.00001811,-0.00005923,-0.00010090,-0.00000247,-0.00000379,-0
 .00000831,0.00001496,0.00000019,0.00001353,-0.00000058,-0.00000396,-0.
 00001793,0.00002384,-0.00000128,0.00002253,0.03504803,-0.02383682,0.34
 286918\\0.00005820,-0.00003075,0.00001323,-0.00003788,-0.00000808,-0.0
 0003703,0.00003256,0.00000091,0.00001880,0.00000461,0.00000006,-0.0000
 2278,0.00000099,-0.00000094,0.00005363,-0.00000120,-0.00001016,0.00003
 112,-0.00000514,0.00000076,-0.00002726,0.00001565,0.00000129,0.0000122
 6,-0.00000181,0.00000009,-0.00001780,0.00000422,-0.00000090,0.00001399
 ,-0.00000446,-0.00000021,-0.00001603,0.00001835,0.00000421,0.00000610,
 -0.00001162,-0.00000761,-0.00000008,-0.00000528,0.00001739,-0.00007667
 ,0.00000807,-0.00000408,0.00005429,-0.00004050,-0.00000278,-0.00003975
 ,0.00005103,-0.00000315,0.00005104,-0.00004678,0.00002180,0.00001452,-
 0.00001878,0.00001502,-0.00003584,-0.00000310,0.00000659,0.00000620,-0
 .00000491,0.00000061,0.00000513,-0.00000006,-0.00000258,0.00000377,-0.
 00000362,-0.00000216,0.00000537,-0.00000350,-0.00000212,-0.00000167,0.
 00000122,0.00000078,-0.00000351,-0.00000624,0.00000600,-0.00001104\\\@


 Happiness is a conscious choice, not an automatic response.
 -- Mildred Barthel
 Job cpu time:       0 days  4 hours  6 minutes  7.3 seconds.
 Elapsed time:       0 days  0 hours 30 minutes 49.0 seconds.
 File lengths (MBytes):  RWF=    914 Int=      0 D2E=      0 Chk=     24 Scr=      1
 Normal termination of Gaussian 16 at Mon Dec 25 06:11:46 2023.
