
Running Job 1 of 1 119-COSMO.in
qchem 119-COSMO.in_2259244.0 /expanse/lustre/scratch/selhajj/temp_project/qcscratch/28869552/qchem2259244/ 0
/cm/shared/apps/spack/cpu/opt/spack/linux-centos8-zen2/gcc-10.2.0/qchem-5.4-akfmr7b3t57bfs6qan3padb2wnb2i7cl/exe/qcprog.exe_s 119-COSMO.in_2259244.0 /expanse/lustre/scratch/selhajj/temp_project/qcscratch/28869552/qchem2259244/
                  Welcome to Q-Chem
     A Quantum Leap Into The Future Of Chemistry


 Q-Chem 5.4, Q-Chem, Inc., Pleasanton, CA (2021)

 License issued to: University of California, San Diego (site)

 E. Epifanovsky,  A. T. B. Gilbert,  Xintian Feng,  Joonho Lee,  Yuezhi Mao,  
 N. Mardirossian,  P. Pokhilko,  A. White,  M. Wormit,  M. P. Coons,  
 A. L. Dempwolff,  Zhengting Gan,  D. Hait,  P. R. Horn,  L. D. Jacobson,  
 I. Kaliman,  J. Kussmann,  A. W. Lange,  Ka Un Lao,  D. S. Levine,  Jie Liu,  
 S. C. McKenzie,  A. F. Morrison,  K. Nanda,  F. Plasser,  D. R. Rehn,  
 M. L. Vidal,  Zhi-Qiang You,  Ying Zhu,  B. Alam,  B. Albrecht,  
 A. Aldossary,  E. Alguire,  J. H. Andersen,  D. Barton,  K. Begam,  A. Behn,  
 Y. A. Bernard,  E. J. Berquist,  H. Burton,  A. Carreras,  K. Carter-Fenk,  
 R. Chakraborty,  A. D. Chien,  K. D. Closser,  V. Cofer-Shabica,  
 S. Dasgupta,  Jia Deng,  M. de Wergifosse,  M. Diedenhofen,  Hainam Do,  
 S. Ehlert,  Po-Tung Fang,  S. Fatehi,  Qingguo Feng,  J. Gayvert,  
 Qinghui Ge,  G. Gidofalvi,  M. Goldey,  J. Gomes,  C. Gonzalez-Espinoza,  
 S. Gulania,  A. Gunina,  M. W. D. Hanson-Heine,  P. H. P. Harbach,  
 A. W. Hauser,  M. F. Herbst,  M. Hernandez Vera,  M. Hodecker,  
 Z. C. Holden,  S. Houck,  Xunkun Huang,  Kerwin Hui,  B. C. Huynh,  
 M. Ivanov,  Hyunjun Ji,  Hanjie Jiang,  B. Kaduk,  S. Kaehler,  
 K. Khistyaev,  Jaehoon Kim,  P. Klunzinger,  Z. Koczor-Benda,  
 Joong Hoon Koh,  D. Kosenkov,  L. Koulias,  T. Kowalczyk,  C. M. Krauter,  
 K. Kue,  A. Kunitsa,  T. Kus,  A. Landau,  K. V. Lawler,  D. Lefrancois,  
 S. Lehtola,  Rain Li,  Yi-Pei Li,  Jiashu Liang,  M. Liebenthal,  
 Hung-Hsuan Lin,  You-Sheng Lin,  Fenglai Liu,  Kuan-Yu Liu,  
 M. Loipersberger,  A. Luenser,  A. Manjanath,  P. Manohar,  E. Mansoor,  
 S. F. Manzer,  Shan-Ping Mao,  A. V. Marenich,  T. Markovich,  S. Mason,  
 S. A. Maurer,  P. F. McLaughlin,  M. F. S. J. Menger,  J.-M. Mewes,  
 S. A. Mewes,  P. Morgante,  J. W. Mullinax,  T. S. Nguyen-Beck,  
 K. J. Oosterbaan,  G. Paran,  Alexander C. Paul,  Suranjan K. Paul,  
 F. Pavosevic,  Zheng Pei,  S. Prager,  E. I. Proynov,  E. Ramos,  B. Rana,  
 A. E. Rask,  A. Rettig,  R. M. Richard,  F. Rob,  E. Rossomme,  T. Scheele,  
 M. Scheurer,  M. Schneider,  N. Sergueev,  S. M. Sharada,  W. Skomorowski,  
 D. W. Small,  C. J. Stein,  Yu-Chuan Su,  E. J. Sundstrom,  Zhen Tao,  
 J. Thirman,  T. Tsuchimochi,  N. M. Tubman,  S. P. Veccham,  O. Vydrov,  
 J. Wenzel,  J. Witte,  A. Yamada,  Kun Yao,  S. Yeganeh,  S. R. Yost,  
 A. Zech,  Igor Ying Zhang,  Xing Zhang,  Yu Zhang,  D. Zuev,  
 A. Aspuru-Guzik,  A. T. Bell,  N. A. Besley,  K. B. Bravaya,  B. R. Brooks,  
 D. Casanova,  Jeng-Da Chai,  S. Coriani,  C. J. Cramer,  
 A. E. DePrince, III,  R. A. DiStasio Jr.,  A. Dreuw,  B. D. Dunietz,  
 T. R. Furlani,  W. A. Goddard III,  S. Grimme,  S. Hammes-Schiffer,  
 T. Head-Gordon,  W. J. Hehre,  Chao-Ping Hsu,  T.-C. Jagau,  Yousung Jung,  
 A. Klamt,  Jing Kong,  D. S. Lambrecht,  WanZhen Liang,  N. J. Mayhall,  
 C. W. McCurdy,  J. B. Neaton,  C. Ochsenfeld,  J. A. Parkhill,  R. Peverati,  
 V. A. Rassolov,  Yihan Shao,  L. V. Slipchenko,  T. Stauch,  R. P. Steele,  
 J. E. Subotnik,  A. J. W. Thom,  A. Tkatchenko,  D. G. Truhlar,  
 T. Van Voorhis,  T. A. Wesolowski,  K. B. Whaley,  H. L. Woodcock III,  
 P. M. Zimmerman,  S. Faraji,  P. M. W. Gill,  M. Head-Gordon,  
 J. M. Herbert,  A. I. Krylov

 Contributors to earlier versions of Q-Chem not listed above: 
 R. D. Adamson,  B. Austin,  R. Baer,  J. Baker,  G. J. O. Beran,  
 K. Brandhorst,  S. T. Brown,  E. F. C. Byrd,  A. K. Chakraborty,  
 G. K. L. Chan,  Chun-Min Chang,  Yunqing Chen,  C.-L. Cheng,  
 Siu Hung Chien,  D. M. Chipman,  D. L. Crittenden,  H. Dachsel,  
 R. J. Doerksen,  A. D. Dutoi,  R. G. Edgar,  J. Fosso-Tande,  
 L. Fusti-Molnar,  D. Ghosh,  A. Ghysels,  A. Golubeva-Zadorozhnaya,  
 J. Gonthier,  M. S. Gordon,  S. R. Gwaltney,  G. Hawkins,  J. E. Herr,  
 A. Heyden,  S. Hirata,  E. G. Hohenstein,  G. Kedziora,  F. J. Keil,  
 C. Kelley,  Jihan Kim,  R. A. King,  R. Z. Khaliullin,  P. P. Korambath,  
 W. Kurlancheek,  A. Laurent,  A. M. Lee,  M. S. Lee,  S. V. Levchenko,  
 Ching Yeh Lin,  D. Liotard,  E. Livshits,  R. C. Lochan,  I. Lotan,  
 L. A. Martinez-Martinez,  P. E. Maslen,  N. Nair,  D. P. O'Neill,  
 D. Neuhauser,  E. Neuscamman,  C. M. Oana,  R. Olivares-Amaya,  R. Olson,  
 T. M. Perrine,  B. Peters,  P. A. Pieniazek,  A. Prociuk,  Y. M. Rhee,  
 J. Ritchie,  M. A. Rohrdanz,  E. Rosta,  N. J. Russ,  H. F. Schaefer III,  
 M. W. Schmidt,  N. E. Schultz,  S. Sharma,  N. Shenvi,  C. D. Sherrill,  
 A. C. Simmonett,  A. Sodt,  T. Stein,  D. Stuck,  K. S. Thanthiriwatte,  
 V. Vanovschi,  L. Vogt,  Tao Wang,  A. Warshel,  M. A. Watson,  
 C. F. Williams,  Q. Wu,  X. Xu,  Jun Yang,  W. Zhang,  Yan Zhao

 Please cite Q-Chem as follows:
 Y. Shao et al., Mol. Phys. 113, 184-215 (2015)
 DOI: 10.1080/00268976.2014.952696

 Q-Chem 5.4.0 for Intel X86 EM64T Linux

 Parts of Q-Chem use Armadillo 9.800.1 (Horizon Scraper).
 http://arma.sourceforge.net/

 Q-Chem begins on Thu Feb 22 04:31:56 2024  

 Host: 
0

     Scratch files written to /expanse/lustre/scratch/selhajj/temp_project/qcscratch/28869552/qchem2259244//
 May1621 |scratch|qcdevops|jenkins|workspace|build_RNUM    
 Processing $rem in /cm/shared/apps/spack/cpu/opt/spack/linux-centos8-zen2/gcc-10.2.0/qchem-5.4-akfmr7b3t57bfs6qan3padb2wnb2i7cl/config/preferences:
 Processing $rem in /home/selhajj/.qchemrc:

 Checking the input file for inconsistencies... 
 Q-Chem warning in module libgen/CheckREMs.C, line 172:

 Found a $solvent section, which is only used for PCM and Kirkwood-Onsager solvation models

	...done.

--------------------------------------------------------------
User input:
--------------------------------------------------------------
$molecule
0 1
C                  6.9072270000     -1.6385930000     -0.2581940000
C                  7.4659780000     -0.6717450000     -1.0856220000
C                  6.6597520000      0.3233240000     -1.6451300000
C                  5.2963400000      0.3497310000     -1.3762470000
C                  4.7248230000     -0.6183870000     -0.5452400000
C                  5.5367000000     -1.6203120000      0.0181520000
C                  4.9654820000     -2.6707470000      0.9094630000
C                  3.4960870000     -2.6164190000      1.1801600000
C                  2.6870510000     -1.6151600000      0.6167200000
C                  3.2587280000     -0.5651430000     -0.2743780000
C                  2.9331640000     -3.5885340000      2.0121470000
C                  1.5693070000     -3.5571060000      2.2774070000
C                  0.7539420000     -2.5652520000      1.7223140000
C                  1.3174270000     -1.6013710000      0.8961690000
O                  5.6655280000     -3.5405790000      1.3994270000
O                  2.5530070000      0.3029110000     -0.7617480000
H                  7.5130320000     -2.4186580000      0.1859560000
H                  4.6530510000      1.1114840000     -1.7989880000
H                  3.5805330000     -4.3472680000      2.4317360000
H                  0.7057520000     -0.8237900000      0.4551500000
I                  0.7160180000     -5.0213600000      3.5316450000
H                  8.5290740000     -0.6904410000     -1.2967030000
H                  7.0976270000      1.0765000000     -2.2901920000
H                 -0.3076290000     -2.5470920000      1.9334550000
$end
$rem
MAX_SCF_CYCLES=200
BASIS  =  6-311++G(d,p)
GUI  =  2
JOB_TYPE  =  SP
METHOD  =  B3LYP
SOLVENT_METHOD = COSMO
$end
$solvent
dielectric 37.219
opticaldielectric 1.43
$end





--------------------------------------------------------------
 ----------------------------------------------------------------
             Standard Nuclear Orientation (Angstroms)
    I     Atom           X                Y                Z
 ----------------------------------------------------------------
    1      C       3.9766935149    -1.7987300887     0.0000411254
    2      C       5.3081741195    -1.4002401703    -0.0000806184
    3      C       5.6333124418    -0.0410135714    -0.0001441485
    4      C       4.6264692825     0.9171902330    -0.0001151026
    5      C       3.2841630914     0.5264590465    -0.0000340193
    6      C       2.9568308403    -0.8422126092     0.0000691555
    7      C       1.5373974496    -1.2997580555     0.0001420787
    8      C       0.4766598102    -0.2461045449     0.0000831523
    9      C       0.8054814671     1.1200578843     0.0000309076
   10      C       2.2248674976     1.5769487135    -0.0000392838
   11      C      -0.8628274612    -0.6459371282     0.0000569331
   12      C      -1.8652703548     0.3166452050     0.0000587214
   13      C      -1.5501355620     1.6795145092     0.0000945199
   14      C      -0.2179189109     2.0723201628     0.0000582361
   15      O       1.2496812769    -2.4846446467     0.0001011198
   16      O       2.5065702974     2.7642704532     0.0000733957
   17      H       3.7019722456    -2.8462502781     0.0000844267
   18      H       4.8555899954     1.9756334400    -0.0001156712
   19      H      -1.0859835088    -1.7047195462    -0.0000022391
   20      H       0.0499897945     3.1218444365     0.0000691242
   21      I      -3.8869082841    -0.2818820927    -0.0000485505
   22      H       6.0950409476    -2.1458395443    -0.0001309527
   23      H       6.6724800526     0.2676031173    -0.0001938765
   24      H      -2.3363464205     2.4236353191     0.0001362943
 ----------------------------------------------------------------
 Molecular Point Group                 C1    NOp =  1
 Largest Abelian Subgroup              C1    NOp =  1
 Nuclear Repulsion Energy =        1552.52190806 hartrees
 There are       80 alpha and       80 beta electrons
 Requested basis set is 6-311++G(d,p)
 There are 155 shells and 463 basis functions

 Total QAlloc Memory Limit   8000 MB
 Mega-Array Size       188 MB
 MEM_STATIC part       192 MB
 A cutoff of  1.0D-08 yielded   7830 shell pairs
 There are     73994 function pairs (     79973 Cartesian)
 Smallest overlap matrix eigenvalue = 8.15E-08

 Q-Chem warning in module stvman/mkSTV.C, line 323:

 Overlap eigenvalue is smaller than square root of threshold
 Use THRESH >= 12 to get rid of this warning

 Linear dependence detected in AO basis
 Tighter screening thresholds may be required for diffuse basis sets
 Use S2THRESH > 14 and THRESH = 14 in case of SCF convergence issues
 Number of orthogonalized atomic orbitals = 456
 Maximum deviation from orthogonality = 1.076E-10

 Scale SEOQF with 1.000000e-02/1.000000e-01/1.000000e-01

 Standard Electronic Orientation quadrupole field applied
 Nucleus-field energy     =     0.0000000257 hartrees
 Guess from superposition of atomic densities
 Warning:  Energy on first SCF cycle will be non-variational
 SAD guess density has 160.000000 electrons

 -----------------------------------------------------------------------
  General SCF calculation program by
  Eric Jon Sundstrom, Paul Horn, Yuezhi Mao, Dmitri Zuev, Alec White,
  David Stuck, Shaama M.S., Shane Yost, Joonho Lee, David Small,
  Daniel Levine, Susi Lehtola, Hugh Burton, Evgeny Epifanovsky,
  Bang C. Huynh
 -----------------------------------------------------------------------
 Exchange:     0.2000 Hartree-Fock + 0.0800 Slater + 0.7200 B88
 Correlation:  0.1900 VWN1RPA + 0.8100 LYP
 Using SG-1 standard quadrature grid
 using 8 threads for integral computing
 -------------------------------------------------------
 OpenMP Integral computing Module                
 Release: version 1.0, May 2013, Q-Chem Inc. Pittsburgh 
 -------------------------------------------------------
 A restricted SCF calculation will be
 performed using DIIS
 SCF converges when DIIS error is below 1.0e-05
 ---------------------------------------
  Cycle       Energy         DIIS error
 ---------------------------------------
    1   -7611.9500724091      3.08e-02  
    2   -7607.6117050556      3.32e-03  
    3   -7607.2029566153      5.71e-03  
    4   -7607.8224709523      1.35e-03  
    5   -7607.8631491887      3.57e-04  
    6   -7607.8661478906      1.06e-04  
    7   -7607.8663632095      4.53e-05  
    8   -7607.8664108561      1.88e-05  
    9   -7607.8664179820      3.09e-06  Convergence criterion met
 ---------------------------------------
 SCF time:   CPU 259.72s  wall 41.00s 
 SCF   energy in the final basis set =    -7607.8664179820
 Total energy in the final basis set =    -7607.8664179820
 Exchange:     0.2000 Hartree-Fock + 0.0800 Slater + 0.7200 B88
 Correlation:  0.1900 VWN1RPA + 0.8100 LYP
 Using SG-1 standard quadrature grid
 in get_qchem_info
 IBasis=      401111
 IBasis=      401111
 USING 1082 GRID
 MICHARGE=           0
 Set epsilon to    37.2190017700195     
==== cosmo data ====
outfile: 119-COSMO.out.cosmo.0
phsran:    0.00000D+00
ampran:    0.10000D-04
volume:   1873.1292822
area:    912.5692810
routf:      0.8500000
rsolv [a.u]:      2.4566438
disex:     10.0000000
disex2:   5153.2097052
fepsi:      0.9602322
eps :    37.2190018
lcavity:     1
nppa:  1082
nspa:    92
nsph:    32
maxnps:  1788
natoms:    24
Atom   Radius [a.u.] nuc. charge
    1      3.7794520    6
    2      3.7794520    6
    3      3.7794520    6
    4      3.7794520    6
    5      3.7794520    6
    6      3.7794520    6
    7      3.7794520    6
    8      3.7794520    6
    9      3.7794520    6
   10      3.7794520    6
   11      3.7794520    6
   12      3.7794520    6
   13      3.7794520    6
   14      3.7794520    6
   15      3.2503287    8
   16      3.2503287    8
   17      2.4566438    1
   18      2.4566438    1
   19      2.4566438    1
   20      2.4566438    1
   21      4.3841643   53
   22      2.4566438    1
   23      2.4566438    1
   24      2.4566438    1
=== end cosmo data ===
 number of segments:          973
 f_epsilon=  0.960232245562971     
Ediel:   -0.0119568
 A restricted SCF calculation will be
 performed using Roothaan-Hall, DIIS
 SCF converges when DIIS error is below 1.0e-05
 ---------------------------------------
  Cycle       Energy         DIIS error
 ---------------------------------------
 number of segments:          973
 f_epsilon=  0.960232245562971     
Ediel:   -0.0171061
    1   -7607.8783758217      1.57e-04  Roothaan Step
 ---------------------------------------
  Cycle       Energy         DIIS error
 ---------------------------------------
 number of segments:          973
 f_epsilon=  0.960232245562971     
Ediel:   -0.0138167
    1   -7607.8792097284      2.27e-04  
 number of segments:          973
 f_epsilon=  0.960232245562971     
Ediel:   -0.0160313
    2   -7607.8753900951      5.07e-04  
 number of segments:          973
 f_epsilon=  0.960232245562971     
Ediel:   -0.0161336
    3   -7607.8802273646      2.07e-05  
 number of segments:          973
 f_epsilon=  0.960232245562971     
Ediel:   -0.0161435
    4   -7607.8802354575      1.29e-05  
    5   -7607.8802397249      2.48e-06  Convergence criterion met
 ---------------------------------------
 SCF time:   CPU 196.03s  wall 32.00s 
before final oc correction, ETot:     -7607.8802397249
 number of outlayer segments:          446
SCF energy after oc correction:     -7607.8804993710
 SCF   energy in the final basis set =    -7607.8804993710
 Total energy in the final basis set =    -7607.8802397249
 
 --------------------------------------------------------------
 
                    Orbital Energies (a.u.)
 --------------------------------------------------------------
 
 Alpha MOs
 -- Occupied --
********-176.3095-165.7132-165.7112-165.7111 -35.8060 -31.2990 -31.2934
-31.2931 -22.9496 -22.9482 -22.9481 -22.9441 -22.9441 -19.1367 -19.1353
-10.2888 -10.2874 -10.2466 -10.2169 -10.2138 -10.2106 -10.2101 -10.2088
-10.2087 -10.2045 -10.1981 -10.1979 -10.1975 -10.1972  -6.3554  -4.7673
 -4.7534  -4.7530  -2.0334  -2.0287  -2.0285  -2.0166  -2.0166  -1.0724
 -1.0700  -0.9020  -0.8869  -0.8204  -0.7894  -0.7794  -0.7773  -0.7005
 -0.6836  -0.6588  -0.6315  -0.6194  -0.5901  -0.5649  -0.5494  -0.5108
 -0.4940  -0.4906  -0.4721  -0.4639  -0.4600  -0.4593  -0.4504  -0.4475
 -0.4387  -0.4246  -0.4026  -0.3925  -0.3812  -0.3771  -0.3696  -0.3626
 -0.3163  -0.2938  -0.2902  -0.2828  -0.2823  -0.2795  -0.2774  -0.2583
 -- Virtual --
 -0.1228  -0.0791  -0.0466  -0.0421  -0.0315  -0.0040   0.0058   0.0121
  0.0221   0.0250   0.0268   0.0312   0.0410   0.0451   0.0469   0.0497
  0.0631   0.0635   0.0663   0.0766   0.0873   0.0909   0.0925   0.0953
  0.1009   0.1105   0.1155   0.1166   0.1176   0.1207   0.1259   0.1261
  0.1297   0.1312   0.1352   0.1403   0.1414   0.1440   0.1536   0.1582
  0.1677   0.1703   0.1720   0.1721   0.1790   0.1800   0.1838   0.1894
  0.1914   0.1923   0.1970   0.2000   0.2096   0.2118   0.2221   0.2271
  0.2276   0.2298   0.2329   0.2366   0.2433   0.2435   0.2529   0.2572
  0.2633   0.2643   0.2663   0.2700   0.2819   0.2860   0.2910   0.2934
  0.2995   0.3003   0.3029   0.3064   0.3103   0.3148   0.3173   0.3336
  0.3346   0.3391   0.3440   0.3492   0.3550   0.3629   0.3733   0.3851
  0.3886   0.3963   0.4007   0.4073   0.4080   0.4151   0.4364   0.4464
  0.4646   0.4674   0.4781   0.4905   0.5041   0.5141   0.5156   0.5288
  0.5288   0.5314   0.5390   0.5413   0.5507   0.5609   0.5672   0.5801
  0.5884   0.5888   0.5907   0.6038   0.6165   0.6246   0.6281   0.6330
  0.6337   0.6495   0.6503   0.6511   0.6553   0.6602   0.6672   0.6732
  0.6884   0.6899   0.7140   0.7193   0.7224   0.7328   0.7381   0.7628
  0.7687   0.7699   0.7914   0.8059   0.8124   0.8294   0.8468   0.8588
  0.8629   0.8715   0.8769   0.8871   0.8887   0.9091   0.9094   0.9120
  0.9184   0.9288   0.9382   0.9475   0.9631   0.9658   0.9815   0.9863
  0.9908   0.9945   1.0045   1.0085   1.0342   1.0518   1.0535   1.0536
  1.0708   1.0872   1.1055   1.1146   1.1310   1.1375   1.1409   1.1646
  1.1743   1.1843   1.2028   1.2034   1.2205   1.2241   1.2737   1.3090
  1.3149   1.3199   1.3245   1.3316   1.3531   1.4065   1.4347   1.4387
  1.4590   1.4660   1.4822   1.4895   1.4956   1.4997   1.5021   1.5095
  1.5192   1.5457   1.5494   1.5574   1.5777   1.6005   1.6094   1.6370
  1.6535   1.6594   1.6880   1.6888   1.7066   1.7094   1.7162   1.7203
  1.7398   1.7457   1.7671   1.7890   1.8072   1.8246   1.8761   1.8847
  1.8850   1.8942   1.9005   1.9012   1.9136   1.9175   1.9247   1.9429
  1.9479   1.9626   1.9660   1.9811   2.0197   2.0222   2.0303   2.0499
  2.0567   2.0677   2.1174   2.1262   2.1477   2.1603   2.2097   2.2437
  2.2653   2.2917   2.3102   2.3259   2.3505   2.3632   2.3757   2.4230
  2.4543   2.4737   2.5112   2.5434   2.5909   2.5936   2.6214   2.6266
  2.6482   2.6633   2.6652   2.7048   2.7142   2.7278   2.7288   2.7393
  2.7487   2.7531   2.7580   2.7608   2.7683   2.7711   2.7820   2.8094
  2.8274   2.8309   2.8441   2.8545   2.8571   2.8619   2.8768   2.9133
  2.9235   2.9277   2.9549   2.9569   2.9943   3.0609   3.0739   3.0814
  3.1585   3.1766   3.1866   3.2148   3.2275   3.2915   3.3227   3.3311
  3.3478   3.3499   3.3933   3.4107   3.5105   3.5167   3.5320   3.5360
  3.5554   3.5718   3.5840   3.6648   3.7240   3.7759   3.8141   3.8393
  3.9675   4.0192   4.0270   4.0293   4.0375   4.0675   4.1532   4.1655
  4.1941   4.2135   4.2481   4.2889   4.4398   4.5146   4.7343   4.8196
  4.8399   5.0329   5.0473   5.2305   5.2569   5.7181   5.7984   6.0133
  6.1054   6.1722  23.4822  23.6210  23.8576  23.8794  23.9195  23.9257
 23.9394  23.9459  24.0186  24.0546  24.0694  24.0815  24.1463  24.1707
 27.9337  28.3533  28.4229  28.4363  28.5367  28.5608  28.5622  28.6233
 28.7229  50.0249  50.0745 127.8947 127.9490 127.9820 151.72101901.8864
 --------------------------------------------------------------
 
          Ground-State Mulliken Net Atomic Charges

     Atom                 Charge (a.u.)
  ----------------------------------------
      1 C                     0.158230
      2 C                    -0.421669
      3 C                    -0.412389
      4 C                     0.185101
      5 C                     0.138662
      6 C                     0.247146
      7 C                    -0.504378
      8 C                     0.157144
      9 C                     0.257506
     10 C                    -0.541684
     11 C                     0.252751
     12 C                     0.020951
     13 C                    -0.515560
     14 C                     0.046862
     15 O                    -0.290360
     16 O                    -0.292674
     17 H                     0.200619
     18 H                     0.202168
     19 H                     0.189913
     20 H                     0.209560
     21 I                     0.031184
     22 H                     0.228152
     23 H                     0.228634
     24 H                     0.224128
  ----------------------------------------
  Sum of atomic charges =     0.000000

 -----------------------------------------------------------------
                    Cartesian Multipole Moments
 -----------------------------------------------------------------
    Charge (ESU x 10^10)
                -0.0000
    Dipole Moment (Debye)
         X       1.9967      Y       0.3765      Z       0.0002
       Tot       2.0319
    Quadrupole Moments (Debye-Ang)
        XX     -90.6622     XY     -11.0555     YY    -128.9920
        XZ      -0.0022     YZ       0.0003     ZZ    -122.4279
    Octopole Moments (Debye-Ang^2)
       XXX      -3.9661    XXY     -46.6166    XYY     -85.9417
       YYY     -15.3283    XXZ      -0.0022    XYZ      -0.0001
       YYZ      -0.0017    XZZ     -66.4370    YZZ      -4.4947
       ZZZ      -0.0003
    Hexadecapole Moments (Debye-Ang^3)
      XXXX   -6116.8880   XXXY     -77.1127   XXYY   -1442.7000
      XYYY     -76.3822   YYYY   -1511.9641   XXXZ      -0.0495
      XXYZ       0.0112   XYYZ      -0.0050   YYYZ       0.0041
      XXZZ   -1371.2844   XYZZ      29.3179   YYZZ    -265.4448
      XZZZ       0.0100   YZZZ       0.0005   ZZZZ    -145.5619
 -----------------------------------------------------------------
 Total job time:  76.32s(wall), 463.60s(cpu) 
 Thu Feb 22 04:33:12 2024

        *************************************************************
        *                                                           *
        *  Thank you very much for using Q-Chem.  Have a nice day.  *
        *                                                           *
        *************************************************************


