 Entering Gaussian System, Link 0=g16
 Input=181-an.com
 Output=181-an.log
 Initial command:
 /sysapps/ubuntu-applications/gaussian/Gaussian/AVX2/g16/l1.exe "/scratch/selhajj1/4406919/Gau-920405.inp" -scrdir="/scratch/selhajj1/4406919/"
 Entering Link 1 = /sysapps/ubuntu-applications/gaussian/Gaussian/AVX2/g16/l1.exe PID=    920407.
  
 Copyright (c) 1988,1990,1992,1993,1995,1998,2003,2009,2016,
            Gaussian, Inc.  All Rights Reserved.
  
 This is part of the Gaussian(R) 16 program.  It is based on
 the Gaussian(R) 09 system (copyright 2009, Gaussian, Inc.),
 the Gaussian(R) 03 system (copyright 2003, Gaussian, Inc.),
 the Gaussian(R) 98 system (copyright 1998, Gaussian, Inc.),
 the Gaussian(R) 94 system (copyright 1995, Gaussian, Inc.),
 the Gaussian 92(TM) system (copyright 1992, Gaussian, Inc.),
 the Gaussian 90(TM) system (copyright 1990, Gaussian, Inc.),
 the Gaussian 88(TM) system (copyright 1988, Gaussian, Inc.),
 the Gaussian 86(TM) system (copyright 1986, Carnegie Mellon
 University), and the Gaussian 82(TM) system (copyright 1983,
 Carnegie Mellon University). Gaussian is a federally registered
 trademark of Gaussian, Inc.
  
 This software contains proprietary and confidential information,
 including trade secrets, belonging to Gaussian, Inc.
  
 This software is provided under written license and may be
 used, copied, transmitted, or stored only in accord with that
 written license.
  
 The following legend is applicable only to US Government
 contracts under FAR:
  
                    RESTRICTED RIGHTS LEGEND
  
 Use, reproduction and disclosure by the US Government is
 subject to restrictions as set forth in subparagraphs (a)
 and (c) of the Commercial Computer Software - Restricted
 Rights clause in FAR 52.227-19.
  
 Gaussian, Inc.
 340 Quinnipiac St., Bldg. 40, Wallingford CT 06492
  
  
 ---------------------------------------------------------------
 Warning -- This program may not be used in any manner that
 competes with the business of Gaussian, Inc. or will provide
 assistance to any competitor of Gaussian, Inc.  The licensee
 of this program is prohibited from giving any competitor of
 Gaussian, Inc. access to this program.  By using this program,
 the user acknowledges that Gaussian, Inc. is engaged in the
 business of creating and licensing software in the field of
 computational chemistry and represents and warrants to the
 licensee that it is not a competitor of Gaussian, Inc. and that
 it will not use this program in any manner prohibited above.
 ---------------------------------------------------------------
  

 Cite this work as:
 Gaussian 16, Revision A.03,
 M. J. Frisch, G. W. Trucks, H. B. Schlegel, G. E. Scuseria, 
 M. A. Robb, J. R. Cheeseman, G. Scalmani, V. Barone, 
 G. A. Petersson, H. Nakatsuji, X. Li, M. Caricato, A. V. Marenich, 
 J. Bloino, B. G. Janesko, R. Gomperts, B. Mennucci, H. P. Hratchian, 
 J. V. Ortiz, A. F. Izmaylov, J. L. Sonnenberg, D. Williams-Young, 
 F. Ding, F. Lipparini, F. Egidi, J. Goings, B. Peng, A. Petrone, 
 T. Henderson, D. Ranasinghe, V. G. Zakrzewski, J. Gao, N. Rega, 
 G. Zheng, W. Liang, M. Hada, M. Ehara, K. Toyota, R. Fukuda, 
 J. Hasegawa, M. Ishida, T. Nakajima, Y. Honda, O. Kitao, H. Nakai, 
 T. Vreven, K. Throssell, J. A. Montgomery, Jr., J. E. Peralta, 
 F. Ogliaro, M. J. Bearpark, J. J. Heyd, E. N. Brothers, K. N. Kudin, 
 V. N. Staroverov, T. A. Keith, R. Kobayashi, J. Normand, 
 K. Raghavachari, A. P. Rendell, J. C. Burant, S. S. Iyengar, 
 J. Tomasi, M. Cossi, J. M. Millam, M. Klene, C. Adamo, R. Cammi, 
 J. W. Ochterski, R. L. Martin, K. Morokuma, O. Farkas, 
 J. B. Foresman, and D. J. Fox, Gaussian, Inc., Wallingford CT, 2016.
 
 ******************************************
 Gaussian 16:  ES64L-G16RevA.03 25-Dec-2016
                10-Feb-2024 
 ******************************************
 %chk=181-an.chk
 %nproc=8
 Will use up to    8 processors via shared memory.
 %mem=30GB
 ----------------------------------------------------------------------
 #P UB3LYP/6-311++G(d,p) nosym opt freq SCRF=(PCM,Solvent=n,n-DiMethylF
 ormamide)
 ----------------------------------------------------------------------
 1/18=20,19=15,26=3,38=1/1,3;
 2/9=110,12=2,15=1,17=6,18=5,40=1/2;
 3/5=4,6=6,7=1111,11=2,25=1,30=1,70=2201,71=1,72=148,74=-5,116=2/1,2,3;
 4//1;
 5/5=2,38=5,53=148/2;
 6/7=2,8=2,9=2,10=2,28=1/1;
 7/30=1/1,2,3,16;
 1/18=20,19=15,26=3/3(2);
 2/9=110,15=1/2;
 99//99;
 2/9=110,15=1/2;
 3/5=4,6=6,7=1111,11=2,25=1,30=1,70=2205,71=1,72=148,74=-5,116=2/1,2,3;
 4/5=5,16=3,69=1/1;
 5/5=2,38=5,53=148/2;
 7/30=1/1,2,3,16;
 1/18=20,19=15,26=3/3(-5);
 2/9=110,15=1/2;
 6/7=2,8=2,9=2,10=2,19=2,28=1/1;
 99/9=1/99;
 Leave Link    1 at Sat Feb 10 18:25:17 2024, MaxMem=  4026531840 cpu:               0.7 elap:               0.1
 (Enter /sysapps/ubuntu-applications/gaussian/Gaussian/AVX2/g16/l101.exe)
 -------
 Reduced
 -------
 Symbolic Z-matrix:
 Charge = -2 Multiplicity = 1
 N                    -2.58233  -2.27475   0.60469 
 C                    -2.34652  -0.93397   0.22055 
 C                    -3.41903  -0.09343  -0.0012 
 C                    -3.21528   1.27253  -0.31044 
 C                    -1.94257   1.80279  -0.36364 
 O                    -1.81565   3.16389  -0.62209 
 C                    -0.77812   0.98866  -0.17962 
 C                     0.56041   1.55567  -0.29019 
 O                     0.80989   2.77522  -0.55255 
 C                     1.65388   0.6119   -0.08286 
 C                     2.9848    1.08531  -0.15036 
 C                     4.07384   0.25028   0.01227 
 C                     3.85944  -1.13544   0.25101 
 C                     2.57297  -1.62673   0.31977 
 C                     1.43654  -0.78689   0.16291 
 C                     0.11808  -1.35562   0.25228 
 O                    -0.01678  -2.64139   0.44328 
 C                    -0.98998  -0.43897   0.11126 
 H                    -3.34165  -2.69134   0.08189 
 H                    -1.68673  -2.79485   0.5437 
 H                    -4.43018  -0.47842   0.11368 
 H                    -4.07258   1.91716  -0.50801 
 H                    -2.71003   3.5177   -0.55157 
 H                     3.10671   2.14693  -0.34158 
 H                     5.08617   0.64701  -0.04278 
 H                     4.70883  -1.80496   0.3795 
 H                     2.37586  -2.6783    0.5001 
 
 ITRead=  0  0  0  0  0  0  0  0  0  0  0  0  0  0  0  0  0  0  0  0
 ITRead=  0  0  0  0  0  0  0
 MicOpt= -1 -1 -1 -1 -1 -1 -1 -1 -1 -1 -1 -1 -1 -1 -1 -1 -1 -1 -1 -1
 MicOpt= -1 -1 -1 -1 -1 -1 -1
 NAtoms=     27 NQM=       27 NQMF=       0 NMMI=      0 NMMIF=      0
                NMic=       0 NMicF=      0.
                    Isotopes and Nuclear Properties:
 (Nuclear quadrupole moments (NQMom) in fm**2, nuclear magnetic moments (NMagM)
  in nuclear magnetons)

  Atom         1           2           3           4           5           6           7           8           9          10
 IAtWgt=          14          12          12          12          12          16          12          12          16          12
 AtmWgt=  14.0030740  12.0000000  12.0000000  12.0000000  12.0000000  15.9949146  12.0000000  12.0000000  15.9949146  12.0000000
 NucSpn=           2           0           0           0           0           0           0           0           0           0
 AtZEff=  -0.0000000  -0.0000000  -0.0000000  -0.0000000  -0.0000000  -0.0000000  -0.0000000  -0.0000000  -0.0000000  -0.0000000
 NQMom=    2.0440000   0.0000000   0.0000000   0.0000000   0.0000000   0.0000000   0.0000000   0.0000000   0.0000000   0.0000000
 NMagM=    0.4037610   0.0000000   0.0000000   0.0000000   0.0000000   0.0000000   0.0000000   0.0000000   0.0000000   0.0000000
 AtZNuc=   7.0000000   6.0000000   6.0000000   6.0000000   6.0000000   8.0000000   6.0000000   6.0000000   8.0000000   6.0000000

  Atom        11          12          13          14          15          16          17          18          19          20
 IAtWgt=          12          12          12          12          12          12          16          12           1           1
 AtmWgt=  12.0000000  12.0000000  12.0000000  12.0000000  12.0000000  12.0000000  15.9949146  12.0000000   1.0078250   1.0078250
 NucSpn=           0           0           0           0           0           0           0           0           1           1
 AtZEff=  -0.0000000  -0.0000000  -0.0000000  -0.0000000  -0.0000000  -0.0000000  -0.0000000  -0.0000000  -0.0000000  -0.0000000
 NQMom=    0.0000000   0.0000000   0.0000000   0.0000000   0.0000000   0.0000000   0.0000000   0.0000000   0.0000000   0.0000000
 NMagM=    0.0000000   0.0000000   0.0000000   0.0000000   0.0000000   0.0000000   0.0000000   0.0000000   2.7928460   2.7928460
 AtZNuc=   6.0000000   6.0000000   6.0000000   6.0000000   6.0000000   6.0000000   8.0000000   6.0000000   1.0000000   1.0000000

  Atom        21          22          23          24          25          26          27
 IAtWgt=           1           1           1           1           1           1           1
 AtmWgt=   1.0078250   1.0078250   1.0078250   1.0078250   1.0078250   1.0078250   1.0078250
 NucSpn=           1           1           1           1           1           1           1
 AtZEff=  -0.0000000  -0.0000000  -0.0000000  -0.0000000  -0.0000000  -0.0000000  -0.0000000
 NQMom=    0.0000000   0.0000000   0.0000000   0.0000000   0.0000000   0.0000000   0.0000000
 NMagM=    2.7928460   2.7928460   2.7928460   2.7928460   2.7928460   2.7928460   2.7928460
 AtZNuc=   1.0000000   1.0000000   1.0000000   1.0000000   1.0000000   1.0000000   1.0000000
 Leave Link  101 at Sat Feb 10 18:25:18 2024, MaxMem=  4026531840 cpu:               3.2 elap:               0.5
 (Enter /sysapps/ubuntu-applications/gaussian/Gaussian/AVX2/g16/l103.exe)

 GradGradGradGradGradGradGradGradGradGradGradGradGradGradGradGradGradGrad
 Berny optimization.
 Initialization pass.
                           ----------------------------
                           !    Initial Parameters    !
                           ! (Angstroms and Degrees)  !
 --------------------------                            --------------------------
 ! Name  Definition              Value          Derivative Info.                !
 --------------------------------------------------------------------------------
 ! R1    R(1,2)                  1.4145         estimate D2E/DX2                !
 ! R2    R(1,19)                 1.0116         estimate D2E/DX2                !
 ! R3    R(1,20)                 1.0375         estimate D2E/DX2                !
 ! R4    R(2,3)                  1.3806         estimate D2E/DX2                !
 ! R5    R(2,18)                 1.4482         estimate D2E/DX2                !
 ! R6    R(3,4)                  1.4153         estimate D2E/DX2                !
 ! R7    R(3,21)                 1.088          estimate D2E/DX2                !
 ! R8    R(4,5)                  1.3798         estimate D2E/DX2                !
 ! R9    R(4,22)                 1.0907         estimate D2E/DX2                !
 ! R10   R(5,6)                  1.3912         estimate D2E/DX2                !
 ! R11   R(5,7)                  1.4327         estimate D2E/DX2                !
 ! R12   R(6,23)                 0.9644         estimate D2E/DX2                !
 ! R13   R(7,8)                  1.4579         estimate D2E/DX2                !
 ! R14   R(7,18)                 1.4723         estimate D2E/DX2                !
 ! R15   R(8,9)                  1.2722         estimate D2E/DX2                !
 ! R16   R(8,10)                 1.4592         estimate D2E/DX2                !
 ! R17   R(10,11)                1.4142         estimate D2E/DX2                !
 ! R18   R(10,15)                1.4368         estimate D2E/DX2                !
 ! R19   R(11,12)                1.3819         estimate D2E/DX2                !
 ! R20   R(11,24)                1.0856         estimate D2E/DX2                !
 ! R21   R(12,13)                1.4224         estimate D2E/DX2                !
 ! R22   R(12,25)                1.0887         estimate D2E/DX2                !
 ! R23   R(13,14)                1.3788         estimate D2E/DX2                !
 ! R24   R(13,26)                1.0892         estimate D2E/DX2                !
 ! R25   R(14,15)                1.4218         estimate D2E/DX2                !
 ! R26   R(14,27)                1.085          estimate D2E/DX2                !
 ! R27   R(15,16)                1.4387         estimate D2E/DX2                !
 ! R28   R(16,17)                1.3069         estimate D2E/DX2                !
 ! R29   R(16,18)                1.445          estimate D2E/DX2                !
 ! A1    A(2,1,19)             112.0311         estimate D2E/DX2                !
 ! A2    A(2,1,20)             108.3793         estimate D2E/DX2                !
 ! A3    A(19,1,20)            114.2758         estimate D2E/DX2                !
 ! A4    A(1,2,3)              119.4202         estimate D2E/DX2                !
 ! A5    A(1,2,18)             120.0432         estimate D2E/DX2                !
 ! A6    A(3,2,18)             120.4961         estimate D2E/DX2                !
 ! A7    A(2,3,4)              120.7226         estimate D2E/DX2                !
 ! A8    A(2,3,21)             119.3125         estimate D2E/DX2                !
 ! A9    A(4,3,21)             119.892          estimate D2E/DX2                !
 ! A10   A(3,4,5)              120.806          estimate D2E/DX2                !
 ! A11   A(3,4,22)             119.7933         estimate D2E/DX2                !
 ! A12   A(5,4,22)             119.4006         estimate D2E/DX2                !
 ! A13   A(4,5,6)              117.8589         estimate D2E/DX2                !
 ! A14   A(4,5,7)              121.76           estimate D2E/DX2                !
 ! A15   A(6,5,7)              120.3755         estimate D2E/DX2                !
 ! A16   A(5,6,23)             105.1141         estimate D2E/DX2                !
 ! A17   A(5,7,8)              121.0296         estimate D2E/DX2                !
 ! A18   A(5,7,18)             117.3505         estimate D2E/DX2                !
 ! A19   A(8,7,18)             121.6173         estimate D2E/DX2                !
 ! A20   A(7,8,9)              124.6489         estimate D2E/DX2                !
 ! A21   A(7,8,10)             115.1938         estimate D2E/DX2                !
 ! A22   A(9,8,10)             120.1565         estimate D2E/DX2                !
 ! A23   A(8,10,11)            118.811          estimate D2E/DX2                !
 ! A24   A(8,10,15)            122.7258         estimate D2E/DX2                !
 ! A25   A(11,10,15)           118.4526         estimate D2E/DX2                !
 ! A26   A(10,11,12)           122.259          estimate D2E/DX2                !
 ! A27   A(10,11,24)           116.1967         estimate D2E/DX2                !
 ! A28   A(12,11,24)           121.544          estimate D2E/DX2                !
 ! A29   A(11,12,13)           119.3166         estimate D2E/DX2                !
 ! A30   A(11,12,25)           120.4402         estimate D2E/DX2                !
 ! A31   A(13,12,25)           120.2431         estimate D2E/DX2                !
 ! A32   A(12,13,14)           119.7452         estimate D2E/DX2                !
 ! A33   A(12,13,26)           120.0741         estimate D2E/DX2                !
 ! A34   A(14,13,26)           120.1807         estimate D2E/DX2                !
 ! A35   A(13,14,15)           121.9925         estimate D2E/DX2                !
 ! A36   A(13,14,27)           121.5429         estimate D2E/DX2                !
 ! A37   A(15,14,27)           116.4643         estimate D2E/DX2                !
 ! A38   A(10,15,14)           118.2327         estimate D2E/DX2                !
 ! A39   A(10,15,16)           122.285          estimate D2E/DX2                !
 ! A40   A(14,15,16)           119.4824         estimate D2E/DX2                !
 ! A41   A(15,16,17)           119.5108         estimate D2E/DX2                !
 ! A42   A(15,16,18)           116.4824         estimate D2E/DX2                !
 ! A43   A(17,16,18)           124.0054         estimate D2E/DX2                !
 ! A44   A(2,18,7)             118.761          estimate D2E/DX2                !
 ! A45   A(2,18,16)            119.6116         estimate D2E/DX2                !
 ! A46   A(7,18,16)            121.6053         estimate D2E/DX2                !
 ! D1    D(19,1,2,3)            42.0424         estimate D2E/DX2                !
 ! D2    D(19,1,2,18)         -140.2608         estimate D2E/DX2                !
 ! D3    D(20,1,2,3)           169.0415         estimate D2E/DX2                !
 ! D4    D(20,1,2,18)          -13.2617         estimate D2E/DX2                !
 ! D5    D(1,2,3,4)            176.3033         estimate D2E/DX2                !
 ! D6    D(1,2,3,21)            -0.5907         estimate D2E/DX2                !
 ! D7    D(18,2,3,4)            -1.3829         estimate D2E/DX2                !
 ! D8    D(18,2,3,21)         -178.2769         estimate D2E/DX2                !
 ! D9    D(1,2,18,7)          -174.9158         estimate D2E/DX2                !
 ! D10   D(1,2,18,16)            6.7633         estimate D2E/DX2                !
 ! D11   D(3,2,18,7)             2.7559         estimate D2E/DX2                !
 ! D12   D(3,2,18,16)         -175.5649         estimate D2E/DX2                !
 ! D13   D(2,3,4,5)             -1.6722         estimate D2E/DX2                !
 ! D14   D(2,3,4,22)           178.4311         estimate D2E/DX2                !
 ! D15   D(21,3,4,5)           175.2039         estimate D2E/DX2                !
 ! D16   D(21,3,4,22)           -4.6928         estimate D2E/DX2                !
 ! D17   D(3,4,5,6)           -177.5561         estimate D2E/DX2                !
 ! D18   D(3,4,5,7)              3.3076         estimate D2E/DX2                !
 ! D19   D(22,4,5,6)             2.3409         estimate D2E/DX2                !
 ! D20   D(22,4,5,7)          -176.7953         estimate D2E/DX2                !
 ! D21   D(4,5,6,23)            10.5464         estimate D2E/DX2                !
 ! D22   D(7,5,6,23)          -170.3048         estimate D2E/DX2                !
 ! D23   D(4,5,7,8)            177.6102         estimate D2E/DX2                !
 ! D24   D(4,5,7,18)            -1.817          estimate D2E/DX2                !
 ! D25   D(6,5,7,8)             -1.5047         estimate D2E/DX2                !
 ! D26   D(6,5,7,18)           179.0682         estimate D2E/DX2                !
 ! D27   D(5,7,8,9)             -0.1616         estimate D2E/DX2                !
 ! D28   D(5,7,8,10)          -179.8347         estimate D2E/DX2                !
 ! D29   D(18,7,8,9)           179.2409         estimate D2E/DX2                !
 ! D30   D(18,7,8,10)           -0.4322         estimate D2E/DX2                !
 ! D31   D(5,7,18,2)            -1.1737         estimate D2E/DX2                !
 ! D32   D(5,7,18,16)          177.1122         estimate D2E/DX2                !
 ! D33   D(8,7,18,2)           179.4028         estimate D2E/DX2                !
 ! D34   D(8,7,18,16)           -2.3113         estimate D2E/DX2                !
 ! D35   D(7,8,10,11)         -178.9445         estimate D2E/DX2                !
 ! D36   D(7,8,10,15)            2.256          estimate D2E/DX2                !
 ! D37   D(9,8,10,11)            1.3665         estimate D2E/DX2                !
 ! D38   D(9,8,10,15)         -177.433          estimate D2E/DX2                !
 ! D39   D(8,10,11,12)        -178.8853         estimate D2E/DX2                !
 ! D40   D(8,10,11,24)           0.9077         estimate D2E/DX2                !
 ! D41   D(15,10,11,12)         -0.034          estimate D2E/DX2                !
 ! D42   D(15,10,11,24)        179.759          estimate D2E/DX2                !
 ! D43   D(8,10,15,14)         178.5108         estimate D2E/DX2                !
 ! D44   D(8,10,15,16)          -1.4186         estimate D2E/DX2                !
 ! D45   D(11,10,15,14)         -0.2928         estimate D2E/DX2                !
 ! D46   D(11,10,15,16)        179.7778         estimate D2E/DX2                !
 ! D47   D(10,11,12,13)          0.2498         estimate D2E/DX2                !
 ! D48   D(10,11,12,25)       -179.8308         estimate D2E/DX2                !
 ! D49   D(24,11,12,13)       -179.5322         estimate D2E/DX2                !
 ! D50   D(24,11,12,25)          0.3871         estimate D2E/DX2                !
 ! D51   D(11,12,13,14)         -0.1296         estimate D2E/DX2                !
 ! D52   D(11,12,13,26)        179.9079         estimate D2E/DX2                !
 ! D53   D(25,12,13,14)        179.9508         estimate D2E/DX2                !
 ! D54   D(25,12,13,26)         -0.0116         estimate D2E/DX2                !
 ! D55   D(12,13,14,15)         -0.2084         estimate D2E/DX2                !
 ! D56   D(12,13,14,27)        179.9759         estimate D2E/DX2                !
 ! D57   D(26,13,14,15)        179.754          estimate D2E/DX2                !
 ! D58   D(26,13,14,27)         -0.0617         estimate D2E/DX2                !
 ! D59   D(13,14,15,10)          0.4186         estimate D2E/DX2                !
 ! D60   D(13,14,15,16)       -179.6499         estimate D2E/DX2                !
 ! D61   D(27,14,15,10)       -179.7568         estimate D2E/DX2                !
 ! D62   D(27,14,15,16)          0.1747         estimate D2E/DX2                !
 ! D63   D(10,15,16,17)        178.2407         estimate D2E/DX2                !
 ! D64   D(10,15,16,18)         -1.3421         estimate D2E/DX2                !
 ! D65   D(14,15,16,17)         -1.6879         estimate D2E/DX2                !
 ! D66   D(14,15,16,18)        178.7293         estimate D2E/DX2                !
 ! D67   D(15,16,18,2)        -178.5917         estimate D2E/DX2                !
 ! D68   D(15,16,18,7)           3.1366         estimate D2E/DX2                !
 ! D69   D(17,16,18,2)           1.8463         estimate D2E/DX2                !
 ! D70   D(17,16,18,7)        -176.4254         estimate D2E/DX2                !
 --------------------------------------------------------------------------------
 Trust Radius=3.00D-01 FncErr=1.00D-07 GrdErr=1.00D-06 EigMax=2.50D+02 EigMin=1.00D-04
 Number of steps in this run=    155 maximum allowed number of steps=    162.
 GradGradGradGradGradGradGradGradGradGradGradGradGradGradGradGradGradGrad

 Leave Link  103 at Sat Feb 10 18:25:18 2024, MaxMem=  4026531840 cpu:               0.3 elap:               0.1
 (Enter /sysapps/ubuntu-applications/gaussian/Gaussian/AVX2/g16/l202.exe)
                          Input orientation:                          
 ---------------------------------------------------------------------
 Center     Atomic      Atomic             Coordinates (Angstroms)
 Number     Number       Type             X           Y           Z
 ---------------------------------------------------------------------
      1          7           0       -2.582329   -2.274750    0.604691
      2          6           0       -2.346517   -0.933970    0.220548
      3          6           0       -3.419029   -0.093426   -0.001198
      4          6           0       -3.215283    1.272531   -0.310436
      5          6           0       -1.942569    1.802791   -0.363638
      6          8           0       -1.815654    3.163891   -0.622086
      7          6           0       -0.778118    0.988658   -0.179618
      8          6           0        0.560411    1.555671   -0.290191
      9          8           0        0.809890    2.775219   -0.552550
     10          6           0        1.653880    0.611900   -0.082864
     11          6           0        2.984802    1.085313   -0.150357
     12          6           0        4.073843    0.250278    0.012268
     13          6           0        3.859435   -1.135437    0.251012
     14          6           0        2.572968   -1.626725    0.319768
     15          6           0        1.436540   -0.786893    0.162905
     16          6           0        0.118083   -1.355624    0.252277
     17          8           0       -0.016775   -2.641393    0.443284
     18          6           0       -0.989983   -0.438967    0.111255
     19          1           0       -3.341647   -2.691337    0.081893
     20          1           0       -1.686727   -2.794847    0.543703
     21          1           0       -4.430181   -0.478415    0.113684
     22          1           0       -4.072578    1.917156   -0.508010
     23          1           0       -2.710032    3.517701   -0.551569
     24          1           0        3.106708    2.146932   -0.341583
     25          1           0        5.086168    0.647005   -0.042783
     26          1           0        4.708834   -1.804963    0.379500
     27          1           0        2.375861   -2.678299    0.500096
 ---------------------------------------------------------------------
                    Distance matrix (angstroms):
                    1          2          3          4          5
     1  N    0.000000
     2  C    1.414519   0.000000
     3  C    2.413575   1.380568   0.000000
     4  C    3.717700   2.430092   1.415266   0.000000
     5  C    4.239492   2.827421   2.430419   1.379785   0.000000
     6  O    5.627752   4.217145   3.683263   2.373464   1.391221
     7  C    3.810531   2.513266   2.859572   2.457126   1.432697
     8  C    5.034854   3.861269   4.317289   3.786350   2.516222
     9  O    6.192620   4.931396   5.139734   4.303337   2.925292
    10  C    5.172132   4.299413   5.122359   4.919042   3.798882
    11  C    6.546226   5.712971   6.513119   6.204976   4.983899
    12  C    7.143624   6.531986   7.500763   7.367530   6.224855
    13  C    6.551293   6.209296   7.356999   7.494342   6.532551
    14  C    5.203672   4.969013   6.193388   6.504359   5.711278
    15  C    4.308155   3.786354   4.907584   5.109279   4.289766
    16  C    2.874233   2.500610   3.764114   4.281959   3.821155
    17  O    2.596641   2.896999   4.273761   5.110514   4.910252
    18  C    2.479747   1.448157   2.456076   2.838839   2.481617
    19  H    1.011645   2.024314   2.600391   3.985240   4.727907
    20  H    1.037460   2.000654   3.255067   4.428273   4.693293
    21  H    2.623445   2.135558   1.088045   2.172940   3.408805
    22  H    4.585959   3.411598   2.174034   1.090656   2.137957
    23  H    5.908107   4.532735   3.720998   2.313917   1.888183
    24  H    7.267176   6.288530   6.907989   6.382250   5.061039
    25  H    8.231751   7.603528   8.537467   8.329286   7.130353
    26  H    7.309752   7.110687   8.314833   8.528693   7.603243
    27  H    4.975685   5.041992   6.365031   6.893976   6.282917
                    6          7          8          9         10
     6  O    0.000000
     7  C    2.450285   0.000000
     8  C    2.888289   1.457872   0.000000
     9  O    2.655067   2.419225   1.272151   0.000000
    10  C    4.340632   2.462909   1.459234   2.369150   0.000000
    11  C    5.252370   3.764275   2.473552   2.783484   1.414224
    12  C    6.601342   4.911573   3.760284   4.165061   2.448682
    13  C    7.173086   5.118996   4.291681   5.023810   2.833572
    14  C    6.564838   4.280116   3.814457   4.821462   2.453218
    15  C    5.177033   2.859128   2.541752   3.686897   1.436754
    16  C    4.992982   2.546638   2.994255   4.264998   2.518361
    17  O    6.170276   3.760973   4.299590   5.569088   3.694839
    18  C    3.768303   1.472280   2.558019   3.743150   2.851669
    19  H    6.091628   4.492486   5.779410   6.893549   5.991144
    20  H    6.073075   3.957736   4.967093   6.201653   4.812293
    21  H    4.543512   3.946631   5.404316   6.203898   6.184110
    22  H    2.580904   3.438520   4.652172   4.957494   5.888698
    23  H    0.964399   3.204169   3.822784   3.597378   5.263753
    24  H    5.034137   4.057056   2.614548   2.390528   2.129312
    25  H    7.369223   5.875823   4.622701   4.803718   3.432702
    26  H    8.262060   6.182522   5.380684   6.086752   3.922722
    27  H    7.277312   4.884278   4.674068   5.770718   3.418554
                   11         12         13         14         15
    11  C    0.000000
    12  C    1.381934   0.000000
    13  C    2.420291   1.422384   0.000000
    14  C    2.783123   2.422875   1.378800   0.000000
    15  C    2.449572   2.837919   2.449422   1.421757   0.000000
    16  C    3.786603   4.276045   3.747826   2.470731   1.438670
    17  O    4.821847   5.027991   4.162917   2.784165   2.372743
    18  C    4.265066   5.111476   4.901169   3.761498   2.451884
    19  H    7.371634   7.977934   7.369193   6.014371   5.144370
    20  H    6.112327   6.537536   5.796484   4.422630   3.732517
    21  H    7.582673   8.535790   8.316746   7.099661   5.875032
    22  H    7.115230   8.331467   8.532952   7.576780   6.173523
    23  H    6.205531   7.550823   8.090348   7.425257   6.019474
    24  H    1.085571   2.158207   3.419315   3.868171   3.413400
    25  H    2.149285   1.088680   2.183641   3.408440   3.926596
    26  H    3.406865   2.182221   1.089152   2.144122   3.433844
    27  H    3.867644   3.420187   2.154868   1.084978   2.138560
                   16         17         18         19         20
    16  C    0.000000
    17  O    1.306856   0.000000
    18  C    1.444977   2.430650   0.000000
    19  H    3.712532   3.344828   3.256433   0.000000
    20  H    2.326721   1.679992   2.494521   1.721262   0.000000
    21  H    4.634157   4.925978   3.440425   2.466362   3.616257
    22  H    5.371291   6.175343   3.929020   4.703239   5.385291
    23  H    5.691546   6.795425   4.364989   6.273146   6.488069
    24  H    4.642461   5.770634   4.865677   8.072760   6.941320
    25  H    5.364648   6.090144   6.174356   9.065767   7.619870
    26  H    4.614443   4.799486   5.866380   8.104596   6.473796
    27  H    2.628392   2.393595   4.061368   5.732797   4.064493
                   21         22         23         24         25
    21  H    0.000000
    22  H    2.500629   0.000000
    23  H    4.401184   2.102421   0.000000
    24  H    7.994023   7.184890   5.979763   0.000000
    25  H    9.583942   9.258096   8.323490   2.501464   0.000000
    26  H    9.238614   9.578885   9.178083   4.324840   2.516516
    27  H    7.163170   7.982284   8.084722   4.952314   4.324133
                   26         27
    26  H    0.000000
    27  H    2.493997   0.000000
 Symmetry turned off by external request.
 Stoichiometry    C14H9NO3(2-)
 Framework group  C1[X(C14H9NO3)]
 Deg. of freedom    75
 Full point group                 C1      NOp   1
 Rotational constants (GHZ):           0.6902658           0.3844070           0.2470996
 Leave Link  202 at Sat Feb 10 18:25:18 2024, MaxMem=  4026531840 cpu:               0.4 elap:               0.1
 (Enter /sysapps/ubuntu-applications/gaussian/Gaussian/AVX2/g16/l301.exe)
 Standard basis: 6-311++G(d,p) (5D, 7F)
 Ernie: Thresh=  0.10000D-02 Tol=  0.10000D-05 Strict=F.
   459 basis functions,   729 primitive gaussians,   477 cartesian basis functions
    63 alpha electrons       63 beta electrons
       nuclear repulsion energy      1228.0841750258 Hartrees.
 IExCor=  402 DFT=T Ex+Corr=B3LYP ExCW=0 ScaHFX=  0.200000
 ScaDFX=  0.800000  0.720000  1.000000  0.810000 ScalE2=  1.000000  1.000000
 IRadAn=      5 IRanWt=     -1 IRanGd=            0 ICorTp=0 IEmpDi=  4
 NAtoms=   27 NActive=   27 NUniq=   27 SFac= 1.00D+00 NAtFMM=   60 NAOKFM=F Big=F
 Integral buffers will be    131072 words long.
 Raffenetti 2 integral format.
 Two-electron integral symmetry is turned off.
 ------------------------------------------------------------------------------
 Polarizable Continuum Model (PCM)
 =================================
 Model                : PCM.
 Atomic radii         : UFF (Universal Force Field).
 Polarization charges : Total charges.
 Charge compensation  : None.
 Solution method      : On-the-fly selection.
 Cavity type          : Scaled VdW (van der Waals Surface) (Alpha=1.100).
 Cavity algorithm     : GePol (No added spheres)
                        Default sphere list used, NSphG=   27.
                        Lebedev-Laikov grids with approx.  5.0 points / Ang**2.
                        Smoothing algorithm: York/Karplus (Gamma=1.0000).
                        Polarization charges: spherical gaussians, with
                                              point-specific exponents (IZeta= 3).
                        Self-potential: point-specific (ISelfS= 7).
                        Self-field    : sphere-specific E.n sum rule (ISelfD= 2).
 1st derivatives      : Analytical E(r).r(x)/FMM algorithm (CHGder, D1EAlg=3).
                        Cavity 1st derivative terms included.
 Solvent              : n,n-DiMethylFormamide, Eps=  37.219000 Eps(inf)=   2.046330
 ------------------------------------------------------------------------------
 GePol: Number of generator spheres                  =      27
 GePol: Total number of spheres                      =      27
 GePol: Number of exposed spheres                    =      27 (100.00%)
 GePol: Number of points                             =    2176
 GePol: Average weight of points                     =       0.13
 GePol: Minimum weight of points                     =   0.83D-11
 GePol: Maximum weight of points                     =    0.20577
 GePol: Number of points with low weight             =     142
 GePol: Fraction of low-weight points (<1% of avg)   =       6.53%
 GePol: Cavity surface area                          =    274.792 Ang**2
 GePol: Cavity volume                                =    303.532 Ang**3
 Leave Link  301 at Sat Feb 10 18:25:18 2024, MaxMem=  4026531840 cpu:               0.7 elap:               0.2
 (Enter /sysapps/ubuntu-applications/gaussian/Gaussian/AVX2/g16/l302.exe)
 NPDir=0 NMtPBC=     1 NCelOv=     1 NCel=       1 NClECP=     1 NCelD=      1
         NCelK=      1 NCelE2=     1 NClLst=     1 CellRange=     0.0.
 One-electron integrals computed using PRISM.
 NBasis=   459 RedAO= T EigKep=  1.39D-06  NBF=   459
 NBsUse=   452 1.00D-06 EigRej=  7.98D-07 NBFU=   452
 Precomputing XC quadrature grid using
 IXCGrd= 4 IRadAn=           5 IRanWt=          -1 IRanGd=           0 AccXCQ= 0.00D+00.
 Generated NRdTot=       0 NPtTot=           0 NUsed=           0 NTot=          32
 NSgBfM=   476   476   476   476   476 MxSgAt=    27 MxSgA2=    27.
 Leave Link  302 at Sat Feb 10 18:25:19 2024, MaxMem=  4026531840 cpu:               5.6 elap:               0.8
 (Enter /sysapps/ubuntu-applications/gaussian/Gaussian/AVX2/g16/l303.exe)
 DipDrv:  MaxL=1.
 Leave Link  303 at Sat Feb 10 18:25:19 2024, MaxMem=  4026531840 cpu:               0.8 elap:               0.2
 (Enter /sysapps/ubuntu-applications/gaussian/Gaussian/AVX2/g16/l401.exe)
 ExpMin= 3.60D-02 ExpMax= 8.59D+03 ExpMxC= 1.30D+03 IAcc=3 IRadAn=         5 AccDes= 0.00D+00
 Harris functional with IExCor=  402 and IRadAn=       5 diagonalized for initial guess.
 HarFok:  IExCor=  402 AccDes= 0.00D+00 IRadAn=         5 IDoV= 1 UseB2=F ITyADJ=14
 ICtDFT=  3500011 ScaDFX=  1.000000  1.000000  1.000000  1.000000
 FoFCou: FMM=F IPFlag=           0 FMFlag=      100000 FMFlg1=           0
         NFxFlg=           0 DoJE=T BraDBF=F KetDBF=T FulRan=T
         wScrn=  0.000000 ICntrl=       500 IOpCl=  0 I1Cent=   200000004 NGrid=           0
         NMat0=    1 NMatS0=      1 NMatT0=    0 NMatD0=    1 NMtDS0=    0 NMtDT0=    0
 Symmetry not used in FoFCou.
 Harris En= -820.022313527639    
 JPrj=0 DoOrth=F DoCkMO=F.
 Initial guess <Sx>= 0.0000 <Sy>= 0.0000 <Sz>= 0.0000 <S**2>= 0.0000 S= 0.0000
 Leave Link  401 at Sat Feb 10 18:25:23 2024, MaxMem=  4026531840 cpu:              26.9 elap:               3.6
 (Enter /sysapps/ubuntu-applications/gaussian/Gaussian/AVX2/g16/l502.exe)
 Two-electron integral symmetry not used.
 UHF open shell SCF:
 Using DIIS extrapolation, IDIIS=  1040.
 NGot=  4026531840 LenX=  4026069626 LenY=  4025841620
 Requested convergence on RMS density matrix=1.00D-08 within 128 cycles.
 Requested convergence on MAX density matrix=1.00D-06.
 Requested convergence on             energy=1.00D-06.
 No special actions if energy rises.
 Fock matrices will be formed incrementally for  20 cycles.

 Cycle   1  Pass 1  IDiag  1:
 FoFJK:  IHMeth= 1 ICntrl=       0 DoSepK=F KAlg= 0 I1Cent=           0 FoldK=F
 IRaf= 860000000 NMat=       1 IRICut=       1 DoRegI=T DoRafI=F ISym2E= 0 IDoP0=0 IntGTp=1.
 FoFCou: FMM=F IPFlag=           0 FMFlag=      100000 FMFlg1=           0
         NFxFlg=           0 DoJE=F BraDBF=F KetDBF=F FulRan=T
         wScrn=  0.000000 ICntrl=         0 IOpCl=  1 I1Cent=           0 NGrid=           0
         NMat0=    1 NMatS0=      1 NMatT0=    0 NMatD0=    1 NMtDS0=    0 NMtDT0=    0
 Symmetry not used in FoFCou.
 Inv3:  Mode=1 IEnd=    14204928.
 Iteration    1 A*A^-1 deviation from unit magnitude is 3.89D-15 for   1818.
 Iteration    1 A*A^-1 deviation from orthogonality  is 3.39D-15 for   1354    544.
 Iteration    1 A^-1*A deviation from unit magnitude is 3.66D-15 for   1818.
 Iteration    1 A^-1*A deviation from orthogonality  is 2.71D-15 for    730    103.
 E= -819.238238662278    
 DIIS: error= 3.94D-02 at cycle   1 NSaved=   1.
 NSaved= 1 IEnMin= 1 EnMin= -819.238238662278     IErMin= 1 ErrMin= 3.94D-02
 ErrMax= 3.94D-02  0.00D+00 EMaxC= 1.00D-01 BMatC= 2.64D+00 BMatP= 2.64D+00
 IDIUse=3 WtCom= 6.06D-01 WtEn= 3.94D-01
 Coeff-Com:  0.100D+01
 Coeff-En:   0.100D+01
 Coeff:      0.100D+01
 Gap=     0.076 Goal=   None    Shift=    0.000
 Gap=     0.076 Goal=   None    Shift=    0.000
 GapD=    0.076 DampG=0.500 DampE=0.500 DampFc=0.2500 IDamp=-1.
 Damping current iteration by 2.50D-01
 RMSDP=7.03D-01 MaxDP=3.38D+01              OVMax= 9.91D-01

 Cycle   2  Pass 1  IDiag  1:
 RMSU=  1.68D-01    CP:  1.82D+00
 E= -819.394014501051     Delta-E=       -0.155775838772 Rises=F Damp=T
 DIIS: error= 1.87D-02 at cycle   2 NSaved=   2.
 NSaved= 2 IEnMin= 2 EnMin= -819.394014501051     IErMin= 2 ErrMin= 1.87D-02
 ErrMax= 1.87D-02  0.00D+00 EMaxC= 1.00D-01 BMatC= 5.03D-01 BMatP= 2.64D+00
 IDIUse=3 WtCom= 8.13D-01 WtEn= 1.87D-01
 Coeff-Com: -0.491D+00 0.149D+01
 Coeff-En:   0.110D-01 0.989D+00
 Coeff:     -0.397D+00 0.140D+01
 Gap=    -0.007 Goal=   None    Shift=    0.000
 Gap=    -0.007 Goal=   None    Shift=    0.000
 RMSDP=1.78D-01 MaxDP=8.70D+00 DE=-1.56D-01 OVMax= 8.60D-01

 Cycle   3  Pass 1  IDiag  1:
 RMSU=  7.92D-03    CP:  8.94D-01 -8.97D-04
 E= -819.671258832372     Delta-E=       -0.277244331322 Rises=F Damp=F
 DIIS: error= 2.12D-02 at cycle   3 NSaved=   3.
 NSaved= 3 IEnMin= 3 EnMin= -819.671258832372     IErMin= 2 ErrMin= 1.87D-02
 ErrMax= 2.12D-02  0.00D+00 EMaxC= 1.00D-01 BMatC= 6.24D-01 BMatP= 5.03D-01
 IDIUse=2 WtCom= 0.00D+00 WtEn= 1.00D+00
 Coeff-En:   0.000D+00 0.000D+00 0.100D+01
 Coeff:      0.000D+00 0.000D+00 0.100D+01
 Gap=     0.072 Goal=   None    Shift=    0.000
 Gap=     0.072 Goal=   None    Shift=    0.000
 RMSDP=6.81D-02 MaxDP=5.95D+00 DE=-2.77D-01 OVMax= 5.69D-01

 Cycle   4  Pass 1  IDiag  1:
 RMSU=  6.46D-02    CP:  1.12D+00  7.82D-02  2.19D+00
 E= -818.873786710537     Delta-E=        0.797472121835 Rises=F Damp=F
 DIIS: error= 6.79D-02 at cycle   4 NSaved=   4.
 NSaved= 4 IEnMin= 3 EnMin= -819.671258832372     IErMin= 2 ErrMin= 1.87D-02
 ErrMax= 6.79D-02  0.00D+00 EMaxC= 1.00D-01 BMatC= 4.12D+00 BMatP= 5.03D-01
 IDIUse=2 WtCom= 0.00D+00 WtEn= 1.00D+00
 Coeff-En:   0.000D+00 0.000D+00 0.827D+00 0.173D+00
 Coeff:      0.000D+00 0.000D+00 0.827D+00 0.173D+00
 Gap=     0.108 Goal=   None    Shift=    0.000
 Gap=     0.108 Goal=   None    Shift=    0.000
 RMSDP=6.12D-02 MaxDP=5.97D+00 DE= 7.97D-01 OVMax= 3.88D-01

 Cycle   5  Pass 1  IDiag  1:
 RMSU=  8.56D-03    CP:  7.95D-01  4.77D-03  8.49D-01  1.52D-01
 E= -819.727883386976     Delta-E=       -0.854096676439 Rises=F Damp=F
 DIIS: error= 1.61D-02 at cycle   5 NSaved=   5.
 NSaved= 5 IEnMin= 5 EnMin= -819.727883386976     IErMin= 5 ErrMin= 1.61D-02
 ErrMax= 1.61D-02  0.00D+00 EMaxC= 1.00D-01 BMatC= 3.73D-01 BMatP= 5.03D-01
 IDIUse=3 WtCom= 8.39D-01 WtEn= 1.61D-01
 Coeff-Com: -0.609D-01 0.150D+00 0.405D+00-0.189D-01 0.524D+00
 Coeff-En:   0.000D+00 0.000D+00 0.394D+00 0.000D+00 0.606D+00
 Coeff:     -0.511D-01 0.126D+00 0.404D+00-0.159D-01 0.537D+00
 Gap=     0.086 Goal=   None    Shift=    0.000
 Gap=     0.086 Goal=   None    Shift=    0.000
 RMSDP=6.46D-03 MaxDP=5.54D-01 DE=-8.54D-01 OVMax= 9.21D-02

 Cycle   6  Pass 1  IDiag  1:
 RMSU=  2.57D-03    CP:  7.77D-01  1.86D-03  8.11D-01  7.24D-02  6.86D-01
 E= -819.799502426307     Delta-E=       -0.071619039331 Rises=F Damp=F
 DIIS: error= 4.15D-03 at cycle   6 NSaved=   6.
 NSaved= 6 IEnMin= 6 EnMin= -819.799502426307     IErMin= 6 ErrMin= 4.15D-03
 ErrMax= 4.15D-03  0.00D+00 EMaxC= 1.00D-01 BMatC= 1.93D-02 BMatP= 3.73D-01
 IDIUse=3 WtCom= 9.59D-01 WtEn= 4.15D-02
 Coeff-Com: -0.360D-01 0.735D-01 0.228D+00-0.372D-01 0.397D+00 0.374D+00
 Coeff-En:   0.000D+00 0.000D+00 0.000D+00 0.000D+00 0.000D+00 0.100D+01
 Coeff:     -0.345D-01 0.705D-01 0.219D+00-0.356D-01 0.381D+00 0.400D+00
 Gap=     0.081 Goal=   None    Shift=    0.000
 Gap=     0.081 Goal=   None    Shift=    0.000
 RMSDP=1.11D-03 MaxDP=9.58D-02 DE=-7.16D-02 OVMax= 3.86D-02

 Cycle   7  Pass 1  IDiag  1:
 RMSU=  7.93D-04    CP:  7.71D-01  2.06D-03  7.92D-01  6.86D-02  7.29D-01
                    CP:  7.96D-01
 E= -819.803366521656     Delta-E=       -0.003864095349 Rises=F Damp=F
 DIIS: error= 5.68D-04 at cycle   7 NSaved=   7.
 NSaved= 7 IEnMin= 7 EnMin= -819.803366521656     IErMin= 7 ErrMin= 5.68D-04
 ErrMax= 5.68D-04  0.00D+00 EMaxC= 1.00D-01 BMatC= 4.32D-04 BMatP= 1.93D-02
 IDIUse=3 WtCom= 9.94D-01 WtEn= 5.68D-03
 Coeff-Com: -0.258D-02 0.187D-02 0.413D-01-0.775D-02 0.712D-01 0.141D+00
 Coeff-Com:  0.755D+00
 Coeff-En:   0.000D+00 0.000D+00 0.000D+00 0.000D+00 0.000D+00 0.000D+00
 Coeff-En:   0.100D+01
 Coeff:     -0.257D-02 0.186D-02 0.411D-01-0.771D-02 0.708D-01 0.140D+00
 Coeff:      0.756D+00
 Gap=     0.082 Goal=   None    Shift=    0.000
 Gap=     0.082 Goal=   None    Shift=    0.000
 RMSDP=4.11D-04 MaxDP=3.38D-02 DE=-3.86D-03 OVMax= 8.84D-03

 Cycle   8  Pass 1  IDiag  1:
 RMSU=  2.12D-04    CP:  7.66D-01  2.00D-03  7.94D-01  6.77D-02  7.36D-01
                    CP:  8.46D-01  9.46D-01
 E= -819.803421454383     Delta-E=       -0.000054932727 Rises=F Damp=F
 DIIS: error= 2.91D-04 at cycle   8 NSaved=   8.
 NSaved= 8 IEnMin= 8 EnMin= -819.803421454383     IErMin= 8 ErrMin= 2.91D-04
 ErrMax= 2.91D-04  0.00D+00 EMaxC= 1.00D-01 BMatC= 1.67D-04 BMatP= 4.32D-04
 IDIUse=3 WtCom= 9.97D-01 WtEn= 2.91D-03
 Coeff-Com:  0.225D-03-0.106D-02 0.288D-02-0.561D-03-0.287D-02 0.371D-01
 Coeff-Com:  0.470D+00 0.494D+00
 Coeff-En:   0.000D+00 0.000D+00 0.000D+00 0.000D+00 0.000D+00 0.000D+00
 Coeff-En:   0.308D+00 0.692D+00
 Coeff:      0.224D-03-0.106D-02 0.287D-02-0.559D-03-0.286D-02 0.370D-01
 Coeff:      0.470D+00 0.494D+00
 Gap=     0.082 Goal=   None    Shift=    0.000
 Gap=     0.082 Goal=   None    Shift=    0.000
 RMSDP=1.30D-04 MaxDP=6.22D-03 DE=-5.49D-05 OVMax= 4.58D-03

 Cycle   9  Pass 1  IDiag  1:
 RMSU=  7.58D-05    CP:  7.67D-01  1.96D-03  7.93D-01  6.65D-02  7.33D-01
                    CP:  8.34D-01  9.80D-01  8.63D-01
 E= -819.803464781334     Delta-E=       -0.000043326951 Rises=F Damp=F
 DIIS: error= 7.17D-05 at cycle   9 NSaved=   9.
 NSaved= 9 IEnMin= 9 EnMin= -819.803464781334     IErMin= 9 ErrMin= 7.17D-05
 ErrMax= 7.17D-05  0.00D+00 EMaxC= 1.00D-01 BMatC= 7.40D-06 BMatP= 1.67D-04
 IDIUse=1 WtCom= 1.00D+00 WtEn= 0.00D+00
 Coeff-Com:  0.446D-03-0.760D-03-0.936D-03 0.143D-03-0.585D-02 0.146D-01
 Coeff-Com:  0.212D+00 0.266D+00 0.514D+00
 Coeff:      0.446D-03-0.760D-03-0.936D-03 0.143D-03-0.585D-02 0.146D-01
 Coeff:      0.212D+00 0.266D+00 0.514D+00
 Gap=     0.082 Goal=   None    Shift=    0.000
 Gap=     0.082 Goal=   None    Shift=    0.000
 RMSDP=2.38D-05 MaxDP=1.35D-03 DE=-4.33D-05 OVMax= 8.73D-04

 Cycle  10  Pass 1  IDiag  1:
 RMSU=  1.57D-05    CP:  7.67D-01  1.95D-03  7.93D-01  6.64D-02  7.32D-01
                    CP:  8.35D-01  9.88D-01  9.04D-01  8.79D-01
 E= -819.803466626868     Delta-E=       -0.000001845533 Rises=F Damp=F
 DIIS: error= 2.11D-05 at cycle  10 NSaved=  10.
 NSaved=10 IEnMin=10 EnMin= -819.803466626868     IErMin=10 ErrMin= 2.11D-05
 ErrMax= 2.11D-05  0.00D+00 EMaxC= 1.00D-01 BMatC= 9.38D-07 BMatP= 7.40D-06
 IDIUse=1 WtCom= 1.00D+00 WtEn= 0.00D+00
 Coeff-Com:  0.260D-03-0.294D-03-0.873D-03 0.778D-04-0.194D-02 0.405D-02
 Coeff-Com:  0.351D-01 0.534D-01 0.274D+00 0.637D+00
 Coeff:      0.260D-03-0.294D-03-0.873D-03 0.778D-04-0.194D-02 0.405D-02
 Coeff:      0.351D-01 0.534D-01 0.274D+00 0.637D+00
 Gap=     0.082 Goal=   None    Shift=    0.000
 Gap=     0.082 Goal=   None    Shift=    0.000
 RMSDP=1.07D-05 MaxDP=6.43D-04 DE=-1.85D-06 OVMax= 2.40D-04

 Cycle  11  Pass 1  IDiag  1:
 RMSU=  7.46D-06    CP:  7.67D-01  1.96D-03  7.93D-01  6.64D-02  7.32D-01
                    CP:  8.37D-01  9.87D-01  9.13D-01  9.06D-01  9.41D-01
 E= -819.803466848315     Delta-E=       -0.000000221447 Rises=F Damp=F
 DIIS: error= 5.74D-06 at cycle  11 NSaved=  11.
 NSaved=11 IEnMin=11 EnMin= -819.803466848315     IErMin=11 ErrMin= 5.74D-06
 ErrMax= 5.74D-06  0.00D+00 EMaxC= 1.00D-01 BMatC= 3.73D-08 BMatP= 9.38D-07
 IDIUse=1 WtCom= 1.00D+00 WtEn= 0.00D+00
 Coeff-Com:  0.816D-04-0.853D-04-0.343D-03 0.240D-04-0.514D-03 0.115D-02
 Coeff-Com:  0.517D-02 0.852D-02 0.866D-01 0.273D+00 0.627D+00
 Coeff:      0.816D-04-0.853D-04-0.343D-03 0.240D-04-0.514D-03 0.115D-02
 Coeff:      0.517D-02 0.852D-02 0.866D-01 0.273D+00 0.627D+00
 Gap=     0.082 Goal=   None    Shift=    0.000
 Gap=     0.082 Goal=   None    Shift=    0.000
 RMSDP=3.19D-06 MaxDP=2.59D-04 DE=-2.21D-07 OVMax= 5.19D-05

 Cycle  12  Pass 1  IDiag  1:
 RMSU=  1.41D-06    CP:  7.67D-01  1.96D-03  7.93D-01  6.64D-02  7.32D-01
                    CP:  8.37D-01  9.87D-01  9.22D-01  9.15D-01  1.02D+00
                    CP:  1.01D+00
 E= -819.803466854538     Delta-E=       -0.000000006223 Rises=F Damp=F
 DIIS: error= 3.68D-06 at cycle  12 NSaved=  12.
 NSaved=12 IEnMin=12 EnMin= -819.803466854538     IErMin=12 ErrMin= 3.68D-06
 ErrMax= 3.68D-06  0.00D+00 EMaxC= 1.00D-01 BMatC= 1.44D-08 BMatP= 3.73D-08
 IDIUse=1 WtCom= 1.00D+00 WtEn= 0.00D+00
 Coeff-Com:  0.109D-04-0.184D-04-0.723D-04 0.283D-05 0.121D-04-0.538D-05
 Coeff-Com: -0.253D-02-0.429D-02 0.712D-02 0.678D-01 0.406D+00 0.526D+00
 Coeff:      0.109D-04-0.184D-04-0.723D-04 0.283D-05 0.121D-04-0.538D-05
 Coeff:     -0.253D-02-0.429D-02 0.712D-02 0.678D-01 0.406D+00 0.526D+00
 Gap=     0.082 Goal=   None    Shift=    0.000
 Gap=     0.082 Goal=   None    Shift=    0.000
 RMSDP=1.32D-06 MaxDP=5.41D-05 DE=-6.22D-09 OVMax= 2.97D-05

 Cycle  13  Pass 1  IDiag  1:
 RMSU=  7.07D-07    CP:  7.67D-01  1.96D-03  7.93D-01  6.64D-02  7.32D-01
                    CP:  8.37D-01  9.88D-01  9.24D-01  9.20D-01  1.01D+00
                    CP:  1.05D+00  1.07D+00
 E= -819.803466858383     Delta-E=       -0.000000003845 Rises=F Damp=F
 DIIS: error= 8.72D-07 at cycle  13 NSaved=  13.
 NSaved=13 IEnMin=13 EnMin= -819.803466858383     IErMin=13 ErrMin= 8.72D-07
 ErrMax= 8.72D-07  0.00D+00 EMaxC= 1.00D-01 BMatC= 8.34D-10 BMatP= 1.44D-08
 IDIUse=1 WtCom= 1.00D+00 WtEn= 0.00D+00
 Coeff-Com: -0.129D-04 0.162D-04 0.589D-05-0.208D-05 0.505D-04-0.179D-03
 Coeff-Com: -0.142D-02-0.270D-02-0.604D-02 0.562D-03 0.854D-01 0.211D+00
 Coeff-Com:  0.713D+00
 Coeff:     -0.129D-04 0.162D-04 0.589D-05-0.208D-05 0.505D-04-0.179D-03
 Coeff:     -0.142D-02-0.270D-02-0.604D-02 0.562D-03 0.854D-01 0.211D+00
 Coeff:      0.713D+00
 Gap=     0.082 Goal=   None    Shift=    0.000
 Gap=     0.082 Goal=   None    Shift=    0.000
 RMSDP=5.19D-07 MaxDP=3.07D-05 DE=-3.84D-09 OVMax= 6.31D-06

 Cycle  14  Pass 1  IDiag  1:
 RMSU=  2.26D-07    CP:  7.67D-01  1.96D-03  7.93D-01  6.64D-02  7.32D-01
                    CP:  8.37D-01  9.88D-01  9.25D-01  9.21D-01  1.02D+00
                    CP:  1.07D+00  1.14D+00  9.74D-01
 E= -819.803466858584     Delta-E=       -0.000000000201 Rises=F Damp=F
 DIIS: error= 2.29D-07 at cycle  14 NSaved=  14.
 NSaved=14 IEnMin=14 EnMin= -819.803466858584     IErMin=14 ErrMin= 2.29D-07
 ErrMax= 2.29D-07  0.00D+00 EMaxC= 1.00D-01 BMatC= 1.75D-10 BMatP= 8.34D-10
 IDIUse=1 WtCom= 1.00D+00 WtEn= 0.00D+00
 Coeff-Com: -0.752D-05 0.830D-05 0.573D-05-0.762D-06 0.194D-04-0.109D-03
 Coeff-Com: -0.479D-03-0.102D-02-0.362D-02-0.443D-02 0.108D-01 0.737D-01
 Coeff-Com:  0.415D+00 0.510D+00
 Coeff:     -0.752D-05 0.830D-05 0.573D-05-0.762D-06 0.194D-04-0.109D-03
 Coeff:     -0.479D-03-0.102D-02-0.362D-02-0.443D-02 0.108D-01 0.737D-01
 Coeff:      0.415D+00 0.510D+00
 Gap=     0.082 Goal=   None    Shift=    0.000
 Gap=     0.082 Goal=   None    Shift=    0.000
 RMSDP=1.58D-07 MaxDP=8.09D-06 DE=-2.01D-10 OVMax= 4.14D-06

 Cycle  15  Pass 1  IDiag  1:
 RMSU=  7.12D-08    CP:  7.67D-01  1.96D-03  7.93D-01  6.64D-02  7.32D-01
                    CP:  8.37D-01  9.88D-01  9.26D-01  9.21D-01  1.02D+00
                    CP:  1.08D+00  1.16D+00  1.03D+00  1.10D+00
 E= -819.803466858615     Delta-E=       -0.000000000031 Rises=F Damp=F
 DIIS: error= 8.44D-08 at cycle  15 NSaved=  15.
 NSaved=15 IEnMin=15 EnMin= -819.803466858615     IErMin=15 ErrMin= 8.44D-08
 ErrMax= 8.44D-08  0.00D+00 EMaxC= 1.00D-01 BMatC= 1.13D-11 BMatP= 1.75D-10
 IDIUse=1 WtCom= 1.00D+00 WtEn= 0.00D+00
 Coeff-Com: -0.223D-05 0.273D-05 0.168D-05-0.490D-07 0.190D-05-0.253D-04
 Coeff-Com: -0.578D-04-0.793D-04-0.756D-03-0.210D-02-0.955D-02-0.314D-02
 Coeff-Com:  0.487D-01 0.202D+00 0.765D+00
 Coeff:     -0.223D-05 0.273D-05 0.168D-05-0.490D-07 0.190D-05-0.253D-04
 Coeff:     -0.578D-04-0.793D-04-0.756D-03-0.210D-02-0.955D-02-0.314D-02
 Coeff:      0.487D-01 0.202D+00 0.765D+00
 Gap=     0.082 Goal=   None    Shift=    0.000
 Gap=     0.082 Goal=   None    Shift=    0.000
 RMSDP=7.92D-08 MaxDP=2.85D-06 DE=-3.09D-11 OVMax= 1.25D-06

 Cycle  16  Pass 1  IDiag  1:
 RMSU=  3.07D-08    CP:  7.67D-01  1.96D-03  7.93D-01  6.64D-02  7.32D-01
                    CP:  8.37D-01  9.88D-01  9.26D-01  9.21D-01  1.03D+00
                    CP:  1.08D+00  1.18D+00  1.06D+00  1.27D+00  1.10D+00
 E= -819.803466858611     Delta-E=        0.000000000004 Rises=F Damp=F
 DIIS: error= 5.62D-08 at cycle  16 NSaved=  16.
 NSaved=16 IEnMin=15 EnMin= -819.803466858615     IErMin=16 ErrMin= 5.62D-08
 ErrMax= 5.62D-08  0.00D+00 EMaxC= 1.00D-01 BMatC= 3.26D-12 BMatP= 1.13D-11
 IDIUse=1 WtCom= 1.00D+00 WtEn= 0.00D+00
 Coeff-Com: -0.572D-06 0.981D-06 0.367D-06 0.127D-06-0.916D-06-0.204D-05
 Coeff-Com:  0.626D-05 0.586D-04 0.363D-04-0.417D-03-0.548D-02-0.921D-02
 Coeff-Com: -0.232D-01 0.535D-01 0.448D+00 0.537D+00
 Coeff:     -0.572D-06 0.981D-06 0.367D-06 0.127D-06-0.916D-06-0.204D-05
 Coeff:      0.626D-05 0.586D-04 0.363D-04-0.417D-03-0.548D-02-0.921D-02
 Coeff:     -0.232D-01 0.535D-01 0.448D+00 0.537D+00
 Gap=     0.082 Goal=   None    Shift=    0.000
 Gap=     0.082 Goal=   None    Shift=    0.000
 RMSDP=2.15D-08 MaxDP=1.05D-06 DE= 3.87D-12 OVMax= 1.03D-06

 Cycle  17  Pass 1  IDiag  1:
 RMSU=  1.57D-08    CP:  7.67D-01  1.96D-03  7.93D-01  6.64D-02  7.32D-01
                    CP:  8.37D-01  9.88D-01  9.26D-01  9.21D-01  1.03D+00
                    CP:  1.08D+00  1.18D+00  1.06D+00  1.29D+00  1.19D+00
                    CP:  1.04D+00
 E= -819.803466858620     Delta-E=       -0.000000000009 Rises=F Damp=F
 DIIS: error= 1.19D-08 at cycle  17 NSaved=  17.
 NSaved=17 IEnMin=17 EnMin= -819.803466858620     IErMin=17 ErrMin= 1.19D-08
 ErrMax= 1.19D-08  0.00D+00 EMaxC= 1.00D-01 BMatC= 3.35D-13 BMatP= 3.26D-12
 IDIUse=1 WtCom= 1.00D+00 WtEn= 0.00D+00
 Coeff-Com:  0.102D-06-0.426D-07 0.152D-07 0.246D-07-0.381D-06 0.174D-05
 Coeff-Com:  0.894D-05 0.327D-04 0.104D-03 0.719D-04-0.816D-03-0.332D-02
 Coeff-Com: -0.174D-01-0.442D-02 0.702D-01 0.263D+00 0.693D+00
 Coeff:      0.102D-06-0.426D-07 0.152D-07 0.246D-07-0.381D-06 0.174D-05
 Coeff:      0.894D-05 0.327D-04 0.104D-03 0.719D-04-0.816D-03-0.332D-02
 Coeff:     -0.174D-01-0.442D-02 0.702D-01 0.263D+00 0.693D+00
 Gap=     0.082 Goal=   None    Shift=    0.000
 Gap=     0.082 Goal=   None    Shift=    0.000
 RMSDP=8.81D-09 MaxDP=5.76D-07 DE=-8.87D-12 OVMax= 1.68D-07

 Error on total polarization charges =  0.02993
 SCF Done:  E(UB3LYP) =  -819.803466859     A.U. after   17 cycles
            NFock= 17  Conv=0.88D-08     -V/T= 2.0042
 <Sx>= 0.0000 <Sy>= 0.0000 <Sz>= 0.0000 <S**2>=-0.0000 S=-0.0000
 <L.S>=  0.00000000000    
 KE= 8.164107555355D+02 PE=-4.408363109002D+03 EE= 1.544064711582D+03
 Annihilation of the first spin contaminant:
 S**2 before annihilation    -0.0000,   after     0.0000
 Leave Link  502 at Sat Feb 10 18:34:00 2024, MaxMem=  4026531840 cpu:            2938.9 elap:             517.5
 (Enter /sysapps/ubuntu-applications/gaussian/Gaussian/AVX2/g16/l601.exe)
 Copying SCF densities to generalized density rwf, IOpCl= 1 IROHF=0.

 **********************************************************************

            Population analysis using the SCF density.

 **********************************************************************

 Alpha  occ. eigenvalues --  -19.12485 -19.02086 -19.01520 -14.27015 -10.20157
 Alpha  occ. eigenvalues --  -10.17821 -10.17807 -10.17360 -10.14939 -10.14789
 Alpha  occ. eigenvalues --  -10.14462 -10.14440 -10.14292 -10.14165 -10.13975
 Alpha  occ. eigenvalues --  -10.13441 -10.13431 -10.13295  -1.03262  -0.94197
 Alpha  occ. eigenvalues --   -0.93853  -0.87321  -0.82426  -0.79980  -0.74870
 Alpha  occ. eigenvalues --   -0.72117  -0.70663  -0.69283  -0.63342  -0.60771
 Alpha  occ. eigenvalues --   -0.59592  -0.55754  -0.53389  -0.51669  -0.50696
 Alpha  occ. eigenvalues --   -0.47579  -0.46087  -0.43931  -0.43496  -0.42474
 Alpha  occ. eigenvalues --   -0.41284  -0.39985  -0.39527  -0.39284  -0.37309
 Alpha  occ. eigenvalues --   -0.36483  -0.36114  -0.35443  -0.34947  -0.33924
 Alpha  occ. eigenvalues --   -0.33565  -0.31787  -0.31518  -0.30555  -0.30139
 Alpha  occ. eigenvalues --   -0.26202  -0.22795  -0.22350  -0.21539  -0.20154
 Alpha  occ. eigenvalues --   -0.18929  -0.17735  -0.10086
 Alpha virt. eigenvalues --   -0.01859   0.00033   0.00238   0.00650   0.01125
 Alpha virt. eigenvalues --    0.02315   0.02458   0.03033   0.03964   0.04735
 Alpha virt. eigenvalues --    0.04893   0.05268   0.06269   0.06542   0.06885
 Alpha virt. eigenvalues --    0.07236   0.07288   0.08178   0.08958   0.09342
 Alpha virt. eigenvalues --    0.09855   0.10561   0.10915   0.11182   0.11504
 Alpha virt. eigenvalues --    0.11951   0.12085   0.12625   0.12962   0.13199
 Alpha virt. eigenvalues --    0.13376   0.13487   0.13819   0.14081   0.14774
 Alpha virt. eigenvalues --    0.15240   0.15601   0.16526   0.16646   0.17412
 Alpha virt. eigenvalues --    0.17453   0.17908   0.18246   0.18376   0.18566
 Alpha virt. eigenvalues --    0.18953   0.19650   0.20237   0.21165   0.21491
 Alpha virt. eigenvalues --    0.21665   0.22215   0.22729   0.23210   0.23506
 Alpha virt. eigenvalues --    0.23695   0.24592   0.24775   0.25054   0.25361
 Alpha virt. eigenvalues --    0.26278   0.26418   0.26703   0.26937   0.27826
 Alpha virt. eigenvalues --    0.27930   0.28537   0.28730   0.29006   0.29410
 Alpha virt. eigenvalues --    0.29467   0.29867   0.30486   0.30883   0.31130
 Alpha virt. eigenvalues --    0.31629   0.31984   0.32440   0.32555   0.33055
 Alpha virt. eigenvalues --    0.33438   0.34093   0.34219   0.34830   0.35066
 Alpha virt. eigenvalues --    0.35522   0.35732   0.36601   0.37360   0.37514
 Alpha virt. eigenvalues --    0.38409   0.38709   0.39416   0.40563   0.41470
 Alpha virt. eigenvalues --    0.41902   0.43310   0.44241   0.44855   0.45262
 Alpha virt. eigenvalues --    0.48747   0.49270   0.51645   0.52014   0.52723
 Alpha virt. eigenvalues --    0.54289   0.55723   0.56247   0.57123   0.57396
 Alpha virt. eigenvalues --    0.58121   0.58646   0.59046   0.59274   0.60214
 Alpha virt. eigenvalues --    0.61327   0.62188   0.62579   0.62883   0.63071
 Alpha virt. eigenvalues --    0.64133   0.64566   0.65259   0.65574   0.67108
 Alpha virt. eigenvalues --    0.67402   0.67717   0.68272   0.69079   0.69432
 Alpha virt. eigenvalues --    0.69991   0.70967   0.71566   0.72457   0.73804
 Alpha virt. eigenvalues --    0.74898   0.76837   0.77019   0.78095   0.79202
 Alpha virt. eigenvalues --    0.79436   0.80519   0.82091   0.82419   0.83962
 Alpha virt. eigenvalues --    0.84751   0.85699   0.86209   0.86968   0.87469
 Alpha virt. eigenvalues --    0.88480   0.90422   0.90971   0.91330   0.92181
 Alpha virt. eigenvalues --    0.92815   0.94964   0.95603   0.96020   0.97053
 Alpha virt. eigenvalues --    0.97338   0.98194   0.98510   0.99598   1.01494
 Alpha virt. eigenvalues --    1.01887   1.02881   1.03861   1.04750   1.05406
 Alpha virt. eigenvalues --    1.06075   1.07692   1.08597   1.09379   1.10981
 Alpha virt. eigenvalues --    1.11744   1.11957   1.12944   1.14374   1.15766
 Alpha virt. eigenvalues --    1.16840   1.18293   1.19038   1.19967   1.21091
 Alpha virt. eigenvalues --    1.23505   1.23788   1.24558   1.26377   1.27715
 Alpha virt. eigenvalues --    1.28852   1.30178   1.30335   1.33113   1.34637
 Alpha virt. eigenvalues --    1.36616   1.38149   1.42360   1.43285   1.44912
 Alpha virt. eigenvalues --    1.46145   1.47539   1.49679   1.51343   1.52917
 Alpha virt. eigenvalues --    1.53427   1.54388   1.54718   1.55152   1.56085
 Alpha virt. eigenvalues --    1.56842   1.58539   1.59038   1.61552   1.61857
 Alpha virt. eigenvalues --    1.63345   1.63799   1.65458   1.67149   1.68147
 Alpha virt. eigenvalues --    1.69140   1.69450   1.70384   1.72397   1.74911
 Alpha virt. eigenvalues --    1.77191   1.77813   1.79371   1.79597   1.80605
 Alpha virt. eigenvalues --    1.83308   1.83640   1.85170   1.86704   1.87937
 Alpha virt. eigenvalues --    1.89951   1.91106   1.92004   1.92478   1.93445
 Alpha virt. eigenvalues --    1.94446   1.94716   1.97048   1.98309   1.99162
 Alpha virt. eigenvalues --    2.00326   2.00754   2.01675   2.02424   2.03044
 Alpha virt. eigenvalues --    2.04057   2.04907   2.06751   2.08415   2.10446
 Alpha virt. eigenvalues --    2.10939   2.12506   2.14009   2.15435   2.17230
 Alpha virt. eigenvalues --    2.19628   2.20152   2.21268   2.27645   2.30021
 Alpha virt. eigenvalues --    2.32693   2.34692   2.35823   2.39477   2.40848
 Alpha virt. eigenvalues --    2.41348   2.42911   2.46311   2.48644   2.50683
 Alpha virt. eigenvalues --    2.50896   2.55372   2.60435   2.62871   2.63503
 Alpha virt. eigenvalues --    2.64751   2.66248   2.67128   2.67836   2.69057
 Alpha virt. eigenvalues --    2.71723   2.73178   2.74192   2.75275   2.76616
 Alpha virt. eigenvalues --    2.77328   2.78178   2.79195   2.79718   2.80532
 Alpha virt. eigenvalues --    2.80945   2.81607   2.82243   2.84389   2.86515
 Alpha virt. eigenvalues --    2.86925   2.88707   2.91508   2.91766   2.92090
 Alpha virt. eigenvalues --    2.93240   2.93619   2.94868   2.99376   3.00672
 Alpha virt. eigenvalues --    3.02459   3.04086   3.06701   3.09845   3.10973
 Alpha virt. eigenvalues --    3.12718   3.13590   3.15397   3.16021   3.18062
 Alpha virt. eigenvalues --    3.18804   3.22553   3.24517   3.25390   3.27859
 Alpha virt. eigenvalues --    3.32441   3.33834   3.34240   3.37002   3.38859
 Alpha virt. eigenvalues --    3.41315   3.44671   3.45944   3.46487   3.51301
 Alpha virt. eigenvalues --    3.52532   3.53362   3.55873   3.58993   3.59763
 Alpha virt. eigenvalues --    3.61534   3.67806   3.68799   3.80906   3.86515
 Alpha virt. eigenvalues --    3.90101   3.92606   3.98423   4.06608   4.10647
 Alpha virt. eigenvalues --    4.10866   4.13258   4.19363   4.23007   4.33209
 Alpha virt. eigenvalues --    4.37199   4.52851   4.82068   4.85002   4.86029
 Alpha virt. eigenvalues --    4.89340   5.01885   5.03961   5.13986   5.15821
 Alpha virt. eigenvalues --    5.33072   5.39206   5.54634   5.73904   5.81663
 Alpha virt. eigenvalues --    5.87854  23.54412  23.72395  23.88715  23.91065
 Alpha virt. eigenvalues --   23.95357  23.96119  23.98498  23.99987  24.01110
 Alpha virt. eigenvalues --   24.06413  24.11267  24.14682  24.19300  24.20907
 Alpha virt. eigenvalues --   35.69351  49.97726  50.11003  50.16889
  Beta  occ. eigenvalues --  -19.12485 -19.02086 -19.01520 -14.27015 -10.20157
  Beta  occ. eigenvalues --  -10.17821 -10.17807 -10.17360 -10.14939 -10.14789
  Beta  occ. eigenvalues --  -10.14462 -10.14440 -10.14292 -10.14165 -10.13975
  Beta  occ. eigenvalues --  -10.13441 -10.13431 -10.13295  -1.03262  -0.94197
  Beta  occ. eigenvalues --   -0.93853  -0.87321  -0.82426  -0.79980  -0.74870
  Beta  occ. eigenvalues --   -0.72117  -0.70663  -0.69283  -0.63342  -0.60771
  Beta  occ. eigenvalues --   -0.59592  -0.55754  -0.53389  -0.51669  -0.50696
  Beta  occ. eigenvalues --   -0.47579  -0.46087  -0.43931  -0.43496  -0.42474
  Beta  occ. eigenvalues --   -0.41284  -0.39985  -0.39527  -0.39284  -0.37309
  Beta  occ. eigenvalues --   -0.36483  -0.36114  -0.35443  -0.34947  -0.33924
  Beta  occ. eigenvalues --   -0.33565  -0.31787  -0.31518  -0.30555  -0.30139
  Beta  occ. eigenvalues --   -0.26202  -0.22795  -0.22350  -0.21539  -0.20154
  Beta  occ. eigenvalues --   -0.18929  -0.17735  -0.10086
  Beta virt. eigenvalues --   -0.01859   0.00033   0.00238   0.00650   0.01125
  Beta virt. eigenvalues --    0.02315   0.02458   0.03033   0.03964   0.04735
  Beta virt. eigenvalues --    0.04893   0.05268   0.06269   0.06542   0.06885
  Beta virt. eigenvalues --    0.07236   0.07288   0.08178   0.08958   0.09342
  Beta virt. eigenvalues --    0.09855   0.10561   0.10915   0.11182   0.11504
  Beta virt. eigenvalues --    0.11951   0.12085   0.12625   0.12962   0.13199
  Beta virt. eigenvalues --    0.13376   0.13487   0.13819   0.14081   0.14774
  Beta virt. eigenvalues --    0.15240   0.15601   0.16526   0.16646   0.17412
  Beta virt. eigenvalues --    0.17453   0.17908   0.18246   0.18376   0.18566
  Beta virt. eigenvalues --    0.18953   0.19650   0.20237   0.21165   0.21491
  Beta virt. eigenvalues --    0.21665   0.22215   0.22729   0.23210   0.23506
  Beta virt. eigenvalues --    0.23695   0.24592   0.24775   0.25054   0.25361
  Beta virt. eigenvalues --    0.26278   0.26418   0.26703   0.26937   0.27826
  Beta virt. eigenvalues --    0.27930   0.28537   0.28730   0.29006   0.29410
  Beta virt. eigenvalues --    0.29467   0.29867   0.30486   0.30883   0.31130
  Beta virt. eigenvalues --    0.31629   0.31984   0.32440   0.32555   0.33055
  Beta virt. eigenvalues --    0.33438   0.34094   0.34219   0.34830   0.35066
  Beta virt. eigenvalues --    0.35522   0.35732   0.36601   0.37360   0.37514
  Beta virt. eigenvalues --    0.38409   0.38709   0.39416   0.40563   0.41470
  Beta virt. eigenvalues --    0.41902   0.43310   0.44241   0.44855   0.45262
  Beta virt. eigenvalues --    0.48747   0.49270   0.51645   0.52014   0.52723
  Beta virt. eigenvalues --    0.54289   0.55723   0.56247   0.57123   0.57396
  Beta virt. eigenvalues --    0.58121   0.58646   0.59046   0.59274   0.60214
  Beta virt. eigenvalues --    0.61327   0.62188   0.62579   0.62883   0.63071
  Beta virt. eigenvalues --    0.64133   0.64566   0.65259   0.65574   0.67108
  Beta virt. eigenvalues --    0.67402   0.67717   0.68272   0.69079   0.69432
  Beta virt. eigenvalues --    0.69991   0.70967   0.71566   0.72457   0.73804
  Beta virt. eigenvalues --    0.74898   0.76837   0.77019   0.78095   0.79202
  Beta virt. eigenvalues --    0.79436   0.80519   0.82091   0.82419   0.83962
  Beta virt. eigenvalues --    0.84751   0.85699   0.86209   0.86968   0.87469
  Beta virt. eigenvalues --    0.88480   0.90422   0.90971   0.91330   0.92181
  Beta virt. eigenvalues --    0.92815   0.94964   0.95603   0.96020   0.97053
  Beta virt. eigenvalues --    0.97338   0.98194   0.98510   0.99598   1.01494
  Beta virt. eigenvalues --    1.01887   1.02881   1.03861   1.04750   1.05406
  Beta virt. eigenvalues --    1.06075   1.07692   1.08597   1.09379   1.10981
  Beta virt. eigenvalues --    1.11744   1.11957   1.12944   1.14374   1.15766
  Beta virt. eigenvalues --    1.16840   1.18293   1.19038   1.19967   1.21091
  Beta virt. eigenvalues --    1.23505   1.23788   1.24558   1.26377   1.27715
  Beta virt. eigenvalues --    1.28852   1.30178   1.30335   1.33113   1.34637
  Beta virt. eigenvalues --    1.36616   1.38149   1.42360   1.43285   1.44912
  Beta virt. eigenvalues --    1.46145   1.47539   1.49679   1.51343   1.52917
  Beta virt. eigenvalues --    1.53427   1.54388   1.54718   1.55152   1.56085
  Beta virt. eigenvalues --    1.56842   1.58539   1.59038   1.61552   1.61857
  Beta virt. eigenvalues --    1.63345   1.63799   1.65458   1.67149   1.68147
  Beta virt. eigenvalues --    1.69140   1.69450   1.70384   1.72397   1.74911
  Beta virt. eigenvalues --    1.77191   1.77813   1.79371   1.79597   1.80605
  Beta virt. eigenvalues --    1.83308   1.83640   1.85170   1.86704   1.87937
  Beta virt. eigenvalues --    1.89951   1.91106   1.92004   1.92478   1.93445
  Beta virt. eigenvalues --    1.94446   1.94716   1.97048   1.98309   1.99162
  Beta virt. eigenvalues --    2.00326   2.00754   2.01675   2.02424   2.03044
  Beta virt. eigenvalues --    2.04057   2.04907   2.06751   2.08415   2.10446
  Beta virt. eigenvalues --    2.10939   2.12506   2.14009   2.15435   2.17230
  Beta virt. eigenvalues --    2.19628   2.20152   2.21268   2.27645   2.30021
  Beta virt. eigenvalues --    2.32693   2.34692   2.35823   2.39477   2.40848
  Beta virt. eigenvalues --    2.41348   2.42911   2.46311   2.48644   2.50683
  Beta virt. eigenvalues --    2.50896   2.55372   2.60435   2.62871   2.63503
  Beta virt. eigenvalues --    2.64751   2.66248   2.67128   2.67836   2.69057
  Beta virt. eigenvalues --    2.71723   2.73178   2.74192   2.75275   2.76616
  Beta virt. eigenvalues --    2.77328   2.78178   2.79195   2.79718   2.80532
  Beta virt. eigenvalues --    2.80945   2.81607   2.82243   2.84389   2.86515
  Beta virt. eigenvalues --    2.86925   2.88707   2.91508   2.91766   2.92090
  Beta virt. eigenvalues --    2.93240   2.93619   2.94868   2.99376   3.00672
  Beta virt. eigenvalues --    3.02459   3.04086   3.06701   3.09845   3.10973
  Beta virt. eigenvalues --    3.12718   3.13590   3.15397   3.16021   3.18062
  Beta virt. eigenvalues --    3.18804   3.22553   3.24517   3.25390   3.27859
  Beta virt. eigenvalues --    3.32441   3.33834   3.34240   3.37002   3.38859
  Beta virt. eigenvalues --    3.41315   3.44671   3.45944   3.46487   3.51301
  Beta virt. eigenvalues --    3.52532   3.53362   3.55873   3.58993   3.59763
  Beta virt. eigenvalues --    3.61534   3.67806   3.68799   3.80906   3.86515
  Beta virt. eigenvalues --    3.90101   3.92606   3.98423   4.06608   4.10647
  Beta virt. eigenvalues --    4.10866   4.13258   4.19363   4.23007   4.33209
  Beta virt. eigenvalues --    4.37199   4.52851   4.82068   4.85002   4.86029
  Beta virt. eigenvalues --    4.89340   5.01885   5.03961   5.13986   5.15821
  Beta virt. eigenvalues --    5.33072   5.39206   5.54634   5.73904   5.81663
  Beta virt. eigenvalues --    5.87854  23.54412  23.72395  23.88715  23.91065
  Beta virt. eigenvalues --   23.95357  23.96119  23.98498  23.99987  24.01110
  Beta virt. eigenvalues --   24.06413  24.11267  24.14682  24.19300  24.20907
  Beta virt. eigenvalues --   35.69351  49.97726  50.11003  50.16889
          Condensed to atoms (all electrons):
               1          2          3          4          5          6
     1  N    7.105994  -0.002004  -0.280458  -0.003328   0.004358   0.000504
     2  C   -0.002004  11.557882  -0.099518   0.277452   1.506509   0.029561
     3  C   -0.280458  -0.099518  11.033789   0.232156  -0.933707   0.057108
     4  C   -0.003328   0.277452   0.232156  11.858311   0.105418   0.191807
     5  C    0.004358   1.506509  -0.933707   0.105418  12.029657   0.109182
     6  O    0.000504   0.029561   0.057108   0.191807   0.109182   8.231026
     7  C    0.122830  -0.542220   0.085039  -3.451267   1.028743  -0.511882
     8  C    0.031411  -1.240511  -1.080173  -0.632451  -3.091551   0.045897
     9  O    0.000282  -0.032179  -0.008200   0.005300   0.027524  -0.025166
    10  C    0.020278  -2.220816  -0.648849   0.024173  -0.683747   0.080998
    11  C   -0.011882  -0.176829  -0.082443  -0.063773  -0.292130   0.018519
    12  C   -0.003495  -0.159596  -0.041405   0.061348   0.107440   0.001120
    13  C    0.011900  -0.068671   0.007410  -0.025889  -0.078911  -0.000989
    14  C   -0.023028   0.101091  -0.013805  -0.170617  -0.405838  -0.003014
    15  C   -0.078247  -1.052793   0.302909  -0.514424  -1.847416  -0.020758
    16  C   -0.062556  -3.136337  -0.608715  -1.274349  -1.204462   0.009550
    17  O   -0.130950  -0.070534  -0.076677  -0.004567  -0.021021   0.000034
    18  C    0.120471   1.686688  -1.998119  -0.441950  -0.147576  -0.077263
    19  H    0.342715   0.003438  -0.062095   0.003399   0.010865  -0.000049
    20  H    0.332844  -0.141580  -0.049773  -0.005961  -0.002946   0.000255
    21  H   -0.011085  -0.280880   0.639867  -0.052601   0.019953  -0.001575
    22  H   -0.001850   0.018894  -0.038041   0.530072  -0.240551  -0.020540
    23  H    0.000016   0.011123  -0.022407  -0.291050   0.288886   0.161264
    24  H   -0.000007   0.007429   0.004166  -0.002274  -0.010072   0.000285
    25  H   -0.000062   0.000850   0.000229   0.000209   0.001071   0.000052
    26  H    0.000288  -0.000308  -0.000021   0.000205   0.000744  -0.000016
    27  H    0.000710   0.010559   0.005776  -0.002211  -0.005089   0.000023
               7          8          9         10         11         12
     1  N    0.122830   0.031411   0.000282   0.020278  -0.011882  -0.003495
     2  C   -0.542220  -1.240511  -0.032179  -2.220816  -0.176829  -0.159596
     3  C    0.085039  -1.080173  -0.008200  -0.648849  -0.082443  -0.041405
     4  C   -3.451267  -0.632451   0.005300   0.024173  -0.063773   0.061348
     5  C    1.028743  -3.091551   0.027524  -0.683747  -0.292130   0.107440
     6  O   -0.511882   0.045897  -0.025166   0.080998   0.018519   0.001120
     7  C   15.522991  -0.343504  -0.269476  -1.557905  -1.100163  -0.576817
     8  C   -0.343504  11.572557   0.927737   1.180089  -1.213814  -0.960420
     9  O   -0.269476   0.927737   8.657086  -0.426464   0.094000   0.072948
    10  C   -1.557905   1.180089  -0.426464  18.912836   0.696572  -2.426447
    11  C   -1.100163  -1.213814   0.094000   0.696572   9.695490  -0.803280
    12  C   -0.576817  -0.960420   0.072948  -2.426447  -0.803280   9.345969
    13  C    0.070371   0.072336  -0.008784   1.811085  -0.473147  -0.164935
    14  C   -1.162146  -0.620881  -0.019853  -2.118507   1.727994  -0.362614
    15  C   -4.194662  -0.262968  -0.205980  -2.974327  -0.367339   2.182114
    16  C    0.772036   1.404519  -0.003360   1.199911  -0.956592   0.116713
    17  O   -0.098831   0.003996  -0.000399  -0.172706  -0.014752  -0.002789
    18  C    1.576180   0.500483  -0.168918  -4.580265  -0.947039  -0.194166
    19  H   -0.010352  -0.003729  -0.000041  -0.005320   0.000669  -0.000174
    20  H    0.018486   0.011953   0.000139   0.040341  -0.000182   0.003699
    21  H    0.028514  -0.027381  -0.000227  -0.005631  -0.000394  -0.000310
    22  H   -0.044167   0.057794   0.002340   0.015969   0.000406   0.000410
    23  H    0.176042  -0.087240  -0.001903  -0.034414  -0.008767  -0.000463
    24  H    0.017771   0.064435   0.002204  -0.107804   0.319682  -0.085055
    25  H    0.005469   0.007015   0.002874  -0.036980  -0.123357   0.506823
    26  H   -0.001077  -0.006845  -0.000266   0.019894  -0.010492  -0.069322
    27  H   -0.000196   0.012750   0.000378   0.054705   0.028228  -0.011653
              13         14         15         16         17         18
     1  N    0.011900  -0.023028  -0.078247  -0.062556  -0.130950   0.120471
     2  C   -0.068671   0.101091  -1.052793  -3.136337  -0.070534   1.686688
     3  C    0.007410  -0.013805   0.302909  -0.608715  -0.076677  -1.998119
     4  C   -0.025889  -0.170617  -0.514424  -1.274349  -0.004567  -0.441950
     5  C   -0.078911  -0.405838  -1.847416  -1.204462  -0.021021  -0.147576
     6  O   -0.000989  -0.003014  -0.020758   0.009550   0.000034  -0.077263
     7  C    0.070371  -1.162146  -4.194662   0.772036  -0.098831   1.576180
     8  C    0.072336  -0.620881  -0.262968   1.404519   0.003996   0.500483
     9  O   -0.008784  -0.019853  -0.205980  -0.003360  -0.000399  -0.168918
    10  C    1.811085  -2.118507  -2.974327   1.199911  -0.172706  -4.580265
    11  C   -0.473147   1.727994  -0.367339  -0.956592  -0.014752  -0.947039
    12  C   -0.164935  -0.362614   2.182114   0.116713  -0.002789  -0.194166
    13  C    8.653622  -0.729466  -2.923658   0.090220   0.094884  -0.075313
    14  C   -0.729466  10.009336   1.559776  -1.828276   0.128083  -0.428367
    15  C   -2.923658   1.559776  17.243045   0.888292  -0.607431  -1.405241
    16  C    0.090220  -1.828276   0.888292  10.393643   0.819991  -0.383165
    17  O    0.094884   0.128083  -0.607431   0.819991   8.742987  -0.022045
    18  C   -0.075313  -0.428367  -1.405241  -0.383165  -0.022045  12.669951
    19  H   -0.001019  -0.000591   0.001443   0.007080   0.006309   0.015752
    20  H   -0.006098  -0.026112   0.036453   0.128228   0.059029  -0.061039
    21  H   -0.000068   0.000098   0.013995   0.027121   0.001620  -0.052927
    22  H    0.000126  -0.000031  -0.000277  -0.003790  -0.000181   0.019145
    23  H   -0.000286  -0.000831  -0.009877  -0.009210  -0.000008   0.021317
    24  H    0.001320   0.022956   0.070298  -0.005158   0.000282   0.027723
    25  H   -0.073569   0.010506   0.024365  -0.004733  -0.000199  -0.001893
    26  H    0.490696  -0.108918  -0.019747   0.016423   0.002306   0.005879
    27  H   -0.112805   0.370143   0.029238  -0.007941  -0.006101  -0.036870
              19         20         21         22         23         24
     1  N    0.342715   0.332844  -0.011085  -0.001850   0.000016  -0.000007
     2  C    0.003438  -0.141580  -0.280880   0.018894   0.011123   0.007429
     3  C   -0.062095  -0.049773   0.639867  -0.038041  -0.022407   0.004166
     4  C    0.003399  -0.005961  -0.052601   0.530072  -0.291050  -0.002274
     5  C    0.010865  -0.002946   0.019953  -0.240551   0.288886  -0.010072
     6  O   -0.000049   0.000255  -0.001575  -0.020540   0.161264   0.000285
     7  C   -0.010352   0.018486   0.028514  -0.044167   0.176042   0.017771
     8  C   -0.003729   0.011953  -0.027381   0.057794  -0.087240   0.064435
     9  O   -0.000041   0.000139  -0.000227   0.002340  -0.001903   0.002204
    10  C   -0.005320   0.040341  -0.005631   0.015969  -0.034414  -0.107804
    11  C    0.000669  -0.000182  -0.000394   0.000406  -0.008767   0.319682
    12  C   -0.000174   0.003699  -0.000310   0.000410  -0.000463  -0.085055
    13  C   -0.001019  -0.006098  -0.000068   0.000126  -0.000286   0.001320
    14  C   -0.000591  -0.026112   0.000098  -0.000031  -0.000831   0.022956
    15  C    0.001443   0.036453   0.013995  -0.000277  -0.009877   0.070298
    16  C    0.007080   0.128228   0.027121  -0.003790  -0.009210  -0.005158
    17  O    0.006309   0.059029   0.001620  -0.000181  -0.000008   0.000282
    18  C    0.015752  -0.061039  -0.052927   0.019145   0.021317   0.027723
    19  H    0.489750  -0.032035  -0.001749   0.000024   0.000071   0.000028
    20  H   -0.032035   0.383077   0.002885   0.000051  -0.000019  -0.000200
    21  H   -0.001749   0.002885   0.567183  -0.015646   0.000034   0.000016
    22  H    0.000024   0.000051  -0.015646   0.585654   0.000375  -0.000148
    23  H    0.000071  -0.000019   0.000034   0.000375   0.532487  -0.000153
    24  H    0.000028  -0.000200   0.000016  -0.000148  -0.000153   0.544153
    25  H    0.000000   0.000017   0.000002  -0.000002  -0.000001  -0.013873
    26  H   -0.000002  -0.000255  -0.000005   0.000003  -0.000001   0.000004
    27  H    0.000114  -0.000681  -0.000048  -0.000039  -0.000005   0.001916
              25         26         27
     1  N   -0.000062   0.000288   0.000710
     2  C    0.000850  -0.000308   0.010559
     3  C    0.000229  -0.000021   0.005776
     4  C    0.000209   0.000205  -0.002211
     5  C    0.001071   0.000744  -0.005089
     6  O    0.000052  -0.000016   0.000023
     7  C    0.005469  -0.001077  -0.000196
     8  C    0.007015  -0.006845   0.012750
     9  O    0.002874  -0.000266   0.000378
    10  C   -0.036980   0.019894   0.054705
    11  C   -0.123357  -0.010492   0.028228
    12  C    0.506823  -0.069322  -0.011653
    13  C   -0.073569   0.490696  -0.112805
    14  C    0.010506  -0.108918   0.370143
    15  C    0.024365  -0.019747   0.029238
    16  C   -0.004733   0.016423  -0.007941
    17  O   -0.000199   0.002306  -0.006101
    18  C   -0.001893   0.005879  -0.036870
    19  H    0.000000  -0.000002   0.000114
    20  H    0.000017  -0.000255  -0.000681
    21  H    0.000002  -0.000005  -0.000048
    22  H   -0.000002   0.000003  -0.000039
    23  H   -0.000001  -0.000001  -0.000005
    24  H   -0.013873   0.000004   0.001916
    25  H    0.554733  -0.014333  -0.000160
    26  H   -0.014333   0.554573  -0.014377
    27  H   -0.000160  -0.014377   0.534519
          Atomic-Atomic Spin Densities.
               1          2          3          4          5          6
     1  N    0.000000   0.000000   0.000000   0.000000   0.000000  -0.000000
     2  C    0.000000  -0.000000  -0.000000  -0.000000  -0.000000   0.000000
     3  C    0.000000  -0.000000  -0.000000  -0.000000   0.000000  -0.000000
     4  C    0.000000  -0.000000  -0.000000  -0.000000  -0.000000  -0.000000
     5  C    0.000000  -0.000000   0.000000  -0.000000  -0.000000  -0.000000
     6  O   -0.000000   0.000000  -0.000000  -0.000000  -0.000000   0.000000
     7  C   -0.000000   0.000000   0.000000   0.000000   0.000000   0.000000
     8  C   -0.000000   0.000000  -0.000000   0.000000   0.000000   0.000000
     9  O   -0.000000   0.000000   0.000000  -0.000000  -0.000000  -0.000000
    10  C   -0.000000   0.000000   0.000000  -0.000000   0.000000  -0.000000
    11  C   -0.000000   0.000000   0.000000  -0.000000   0.000000  -0.000000
    12  C   -0.000000   0.000000  -0.000000  -0.000000  -0.000000  -0.000000
    13  C    0.000000   0.000000   0.000000   0.000000   0.000000  -0.000000
    14  C    0.000000  -0.000000  -0.000000   0.000000   0.000000  -0.000000
    15  C    0.000000   0.000000  -0.000000   0.000000   0.000000   0.000000
    16  C   -0.000000   0.000000   0.000000   0.000000   0.000000  -0.000000
    17  O    0.000000  -0.000000  -0.000000   0.000000  -0.000000  -0.000000
    18  C   -0.000000  -0.000000  -0.000000   0.000000  -0.000000   0.000000
    19  H   -0.000000   0.000000  -0.000000  -0.000000  -0.000000   0.000000
    20  H   -0.000000   0.000000   0.000000   0.000000   0.000000  -0.000000
    21  H    0.000000   0.000000   0.000000  -0.000000   0.000000  -0.000000
    22  H   -0.000000   0.000000  -0.000000   0.000000   0.000000  -0.000000
    23  H    0.000000  -0.000000   0.000000   0.000000  -0.000000  -0.000000
    24  H   -0.000000  -0.000000  -0.000000   0.000000   0.000000   0.000000
    25  H   -0.000000   0.000000   0.000000  -0.000000  -0.000000   0.000000
    26  H    0.000000  -0.000000  -0.000000   0.000000   0.000000   0.000000
    27  H   -0.000000   0.000000   0.000000  -0.000000   0.000000  -0.000000
               7          8          9         10         11         12
     1  N   -0.000000  -0.000000  -0.000000  -0.000000  -0.000000  -0.000000
     2  C    0.000000   0.000000   0.000000   0.000000   0.000000   0.000000
     3  C    0.000000  -0.000000   0.000000   0.000000   0.000000  -0.000000
[...]
 00001967,0.00031155,0.00004316,0.00007361,-0.00003476,-0.00124259,0.00
 014053,-0.00680485,-0.00177151,0.00049639,0.00516837,-0.00809724,-0.00
 017966,-0.00016773,0.00106527,0.00026733,-0.01708413,0.01345844,0.0041
 2317,-0.14834716,0.19119831,0.05560797,-0.04959141,-0.02347914,-0.0111
 7107,0.01445682,-0.00392332,0.00227081,0.00132704,0.00176955,-0.000713
 51,0.00126658,0.00110663,-0.00019268,0.00036182,0.00003349,0.00011015,
 -0.00101094,0.00003817,0.00010795,-0.00008907,-0.00050471,-0.00008187,
 0.00063183,-0.00007445,-0.00015837,-0.00056416,0.00006968,0.00022035,-
 0.00031897,0.00014272,-0.00014831,-0.00001434,-0.00000968,0.00000960,-
 0.00014207,0.00004275,-0.00008734,0.00012397,-0.00000980,0.00003171,-0
 .00010537,0.00005773,-0.00011882,0.00010262,0.00051746,0.00055951,0.00
 219611,-0.00036629,-0.00117303,-0.00112462,-0.00595157,-0.00024420,-0.
 00148365,0.00037617,-0.01224517,0.01079286,-0.00342969,-0.03271008,0.0
 2328709,0.03441970,0.00206094,-0.00146243,0.00021126,-0.02073994,-0.01
 304696,0.00333578,-0.29042733,-0.08703728,0.02284154,-0.00114491,0.001
 34407,-0.00041097,0.00216139,0.00023483,0.00005658,-0.00030077,-0.0007
 3213,0.00015426,0.00009429,0.00061274,-0.00008940,0.00007935,0.0005786
 4,-0.00009885,-0.00023615,-0.00058698,0.00011650,0.00018252,-0.0003299
 9,0.00006055,-0.00002179,0.00004013,-0.00001413,-0.00005709,-0.0000956
 5,0.00001261,-0.00010800,0.00017023,-0.00003233,-0.00006621,-0.0001996
 1,0.00001355,-0.00025494,0.00083727,-0.00003299,-0.00091806,-0.0019065
 3,0.00020434,0.00034936,0.00058914,-0.00012374,-0.00127329,0.00446667,
 -0.00114485,-0.00010411,0.00136569,-0.00001054,-0.00009353,0.00009760,
 0.00013434,0.31011797,0.00126013,0.00182630,-0.00111180,0.01726671,0.0
 0804466,-0.00116089,-0.08810692,-0.08814194,0.01593209,-0.02928423,-0.
 00643923,0.00156168,0.00189578,-0.00365688,0.00179486,-0.00158367,-0.0
 0198650,0.00039720,0.00037357,-0.00029624,-0.00003982,-0.00038045,0.00
 047301,-0.00020361,-0.00006281,-0.00021971,0.00006033,0.00020406,-0.00
 041422,0.00009722,-0.00012355,0.00005765,-0.00000267,-0.00000106,-0.00
 019411,0.00003160,0.00005113,0.00018776,0.00000717,-0.00002799,0.00004
 697,0.00005710,0.00045383,0.00009911,-0.00028274,0.00000314,0.00032101
 ,-0.00000229,0.00002447,0.00027974,0.00000162,0.00254324,-0.00198332,0
 .00205397,-0.00051158,-0.00039951,-0.00027859,0.00021202,0.00000795,-0
 .00022074,0.09536875,0.09092999,0.00116197,-0.00121705,-0.00356816,-0.
 00360475,-0.00145615,0.00447262,0.02365490,0.01797613,-0.02978967,0.00
 617579,0.00012716,-0.00071963,0.00020362,0.00146428,0.00299090,0.00025
 969,0.00077385,0.00077735,-0.00058183,0.00004871,-0.00060127,0.0006309
 3,-0.00037762,-0.00031253,-0.00007109,0.00018475,0.00003400,-0.0001695
 9,0.00053092,0.00001694,0.00005970,-0.00005307,0.00003920,0.00006268,0
 .00023496,-0.00004301,-0.00012485,-0.00018939,0.00014058,0.00017494,-0
 .00004316,0.00020419,-0.00071959,-0.00035561,-0.00086724,0.00066336,0.
 00003023,0.00053824,-0.00012615,-0.00033394,-0.00002209,-0.00123860,0.
 00234796,0.00602524,-0.00123838,-0.00063873,0.00011837,0.00004780,-0.0
 0034831,-0.00068259,-0.02520680,-0.01780958,0.02335499,0.00012262,0.00
 030951,-0.00022785,0.00128118,-0.00188957,0.00046149,0.00606362,-0.004
 33937,0.00103722,-0.22503416,0.12310788,-0.03061167,-0.01950714,0.0209
 5805,-0.00480913,0.00209046,0.00183965,-0.00013661,-0.00339751,-0.0043
 9478,0.00063482,-0.00011602,0.00194772,-0.00041003,0.00006615,-0.00043
 618,0.00008281,-0.00066314,-0.00052405,0.00012961,0.00005115,0.0002062
 9,-0.00004929,-0.00016169,-0.00003950,-0.00000420,-0.00002630,0.000016
 96,-0.00000358,-0.00000984,-0.00000535,0.00000526,0.00015806,0.0000893
 9,-0.00001958,0.00004906,-0.00038558,0.00003640,-0.00005570,0.00046740
 ,-0.00003789,-0.00007970,-0.00066456,0.00015448,-0.00002836,-0.0000001
 7,0.00005218,0.00007496,-0.00007296,0.00005171,0.00078679,0.00056015,-
 0.00011230,0.23926821,0.00164225,-0.00147979,0.00047032,-0.00296861,-0
 .00356630,0.00179146,0.02616347,-0.01251334,0.00303461,0.12449376,-0.1
 4788302,0.02851554,-0.00972142,0.00394444,-0.00031357,-0.00242186,0.00
 368293,-0.00181834,-0.00247596,-0.00010765,0.00106526,0.00039530,-0.00
 059993,0.00034118,-0.00000485,0.00072754,-0.00015040,-0.00042742,0.000
 63179,-0.00032045,0.00010278,-0.00003353,0.00004853,0.00004136,0.00031
 175,-0.00003145,-0.00004985,-0.00030983,0.00004644,0.00016817,0.000043
 31,-0.00000644,-0.00051104,-0.00057996,0.00012346,0.00087716,0.0004067
 1,-0.00009187,0.00004958,-0.00032747,0.00001282,-0.00075632,0.00000953
 ,-0.00015954,0.00001049,0.00011629,-0.00007631,-0.00046375,-0.00034600
 ,0.00016780,-0.00048401,0.00109250,-0.00079471,-0.13440320,0.15695237,
 -0.00022034,0.00034796,0.00045938,0.00077437,0.00156997,0.00334349,-0.
 00544084,0.00307912,-0.00062632,-0.03073884,0.02813443,-0.03151161,0.0
 0139430,0.00059795,0.00404444,0.00065232,-0.00170487,-0.00494910,0.000
 25880,0.00075829,0.00540489,0.00005257,0.00034760,0.00094612,-0.000023
 34,-0.00009615,-0.00001069,-0.00001749,-0.00026038,-0.00095763,0.00000
 606,0.00005669,0.00018169,-0.00002989,-0.00001044,0.00011849,0.0000063
 4,0.00002266,-0.00001388,-0.00002181,0.00000493,0.00005067,0.00006330,
 0.00008358,0.00007497,-0.00007762,-0.00012852,-0.00033180,-0.00002660,
 0.00011242,0.00015569,0.00019350,-0.00022442,-0.00080760,-0.00008169,0
 .00001401,-0.00002459,0.00002158,0.00014517,-0.00010387,0.00005001,-0.
 00078271,-0.00195434,0.03348954,-0.03204262,0.02601648,-0.00016425,-0.
 00070386,0.00050553,-0.00012182,0.00059860,-0.00037743,-0.00069889,-0.
 00047176,0.00013478,0.00351273,-0.00713593,0.00146890,0.00026669,-0.00
 118447,0.00013206,-0.44843473,0.17045292,-0.03495313,0.00244963,-0.002
 17761,0.00038464,-0.00086665,-0.00205432,0.00042975,-0.00297795,0.0015
 2935,-0.00032323,0.00002339,0.00026540,-0.00007055,-0.00004526,0.00007
 469,-0.00003273,0.00000871,0.00000092,0.00001266,-0.00003803,0.0000471
 0,-0.00001789,0.00002494,0.00003017,0.00000657,-0.00001842,0.00012451,
 0.00000474,-0.00001457,-0.00011519,-0.00002777,0.00011526,0.00024245,-
 0.00003916,-0.00030179,-0.00035554,0.00008274,0.00008997,-0.00003899,-
 0.00010751,-0.00015113,0.00002440,-0.00007103,-0.00001343,-0.00011618,
 0.00006263,-0.00087709,0.00068392,-0.00027851,0.44820755,-0.00007197,0
 .00065080,-0.00037619,-0.00021540,0.00009212,0.00010526,-0.00045884,-0
 .00091240,0.00004893,0.00254151,0.00317018,-0.00057788,0.04501546,-0.0
 2778730,0.00560168,0.11912508,-0.09161988,0.01685142,-0.00356277,-0.00
 481821,0.00118309,-0.00072329,-0.00020044,0.00000598,-0.00141869,0.000
 89405,0.00002001,0.00018357,-0.00040318,-0.00004305,-0.00004973,0.0001
 0279,-0.00005220,-0.00006025,-0.00023448,0.00005425,0.00005414,0.00025
 067,-0.00003085,-0.00014159,0.00000071,0.00000345,0.00047881,0.0004856
 0,-0.00006257,-0.00123163,-0.00058522,0.00004805,0.00023366,0.00017820
 ,0.00002358,0.00220304,-0.00040086,0.00021619,-0.00003438,-0.00001799,
 0.00009331,0.00012335,0.00003544,0.00000572,0.00016502,0.00035775,-0.0
 0008354,-0.00236160,-0.00016671,-0.00001149,-0.15975698,0.12090705,-0.
 00005830,-0.00019939,0.00015413,-0.00005509,0.00013226,0.00014255,0.00
 019587,-0.00018633,-0.00119835,-0.00038557,-0.00066493,0.00018383,-0.0
 0858144,0.00525017,-0.00202401,-0.02521889,0.01712806,-0.00880570,0.00
 061144,0.00114740,0.00131982,0.00015234,0.00007250,-0.00006416,0.00024
 355,0.00000247,0.00095518,-0.00002971,-0.00002348,-0.00054126,0.000011
 60,-0.00004700,-0.00019151,0.00000935,0.00005770,0.00006797,-0.0000105
 6,-0.00004864,0.00000541,0.00003418,0.00000172,0.00001609,-0.00009351,
 -0.00006361,0.00017709,0.00022205,0.00011485,-0.00021843,-0.00003304,-
 0.00003846,0.00004924,-0.00036262,0.00025405,0.00073553,0.00005832,-0.
 00000655,-0.00002924,-0.00005146,0.00000568,0.00001078,-0.00002592,-0.
 00006969,-0.00007471,0.00028599,0.00019746,0.00057827,0.03308042,-0.02
 302277,0.00870163,-0.00002323,0.00006009,-0.00001742,-0.00005965,0.000
 08926,-0.00002336,-0.00011580,-0.00026497,0.00004760,0.00030880,0.0002
 3635,-0.00004635,-0.00054418,-0.00001896,-0.00002624,0.00014198,0.0001
 0065,-0.00001631,0.00133530,0.00070278,-0.00008596,-0.00154280,-0.0026
 2550,0.00058557,0.00219609,0.00284431,-0.00012886,0.00148905,-0.029423
 28,0.00466791,-0.06050153,-0.03851141,0.00554313,0.00630193,0.02465583
 ,-0.00394657,-0.00317251,0.00229707,-0.00071671,-0.00095746,0.00021176
 ,-0.00003185,-0.00523505,-0.00009586,-0.00023305,0.00053263,-0.0014373
 9,0.00023480,-0.00062913,-0.00025578,0.00001560,0.00014604,-0.00037644
 ,0.00008548,-0.00001496,0.00001370,0.00000417,0.00010359,-0.00001604,-
 0.00001467,-0.00000662,0.00000118,0.00000818,0.00000233,0.00001553,0.0
 0000073,0.00006905,0.00000927,-0.00000391,0.05859436,-0.00006751,-0.00
 004263,0.00004760,-0.00005758,0.00012275,-0.00002401,-0.00006376,-0.00
 023366,0.00003300,0.00007221,0.00023959,-0.00004966,-0.00022263,-0.000
 23824,0.00007443,0.00000482,0.00016485,-0.00003791,0.00005653,0.000386
 03,-0.00014520,0.00100477,-0.00408723,0.00049782,0.00404557,0.00133555
 ,-0.00040327,-0.00375315,-0.00918564,0.00213186,-0.03903461,-0.3189739
 5,0.04471005,-0.00473292,-0.01309392,0.00269243,0.00349831,0.00082900,
 0.00143268,-0.00032368,0.00063851,-0.00027383,-0.00169124,0.00128518,0
 .00055142,0.00022762,-0.00023207,-0.00003909,-0.00031718,-0.00042754,0
 .00007922,0.00004075,-0.00031706,0.00005384,-0.00000601,0.00000557,-0.
 00000788,0.00009735,-0.00000232,-0.00001676,-0.00002045,-0.00000793,0.
 00001057,-0.00002427,0.00002090,-0.00000996,0.00001059,-0.00001268,0.0
 0000804,0.04132698,0.34176237,0.00001299,0.00002377,-0.00000714,-0.000
 03272,-0.00001292,0.00003285,0.00001407,0.00000200,-0.00000502,0.00001
 058,-0.00000552,0.00001574,-0.00000492,0.00007783,0.00014837,0.0000082
 9,-0.00002815,-0.00002172,0.00012685,-0.00002607,-0.00022800,-0.000291
 54,0.00032850,-0.00260892,-0.00064811,-0.00037795,-0.00060028,0.000923
 04,0.00132533,0.00417969,0.00565045,0.04490499,-0.04477806,0.00087064,
 0.00325791,0.00364351,-0.00082645,0.00138356,0.00839105,-0.00001314,-0
 .00029335,-0.00098501,0.00003024,0.00070516,0.00492824,-0.00014726,-0.
 00011098,-0.00045409,0.00005580,0.00010991,0.00017626,0.00007162,-0.00
 001934,0.00004352,-0.00000561,0.00000268,-0.00000570,0.00001123,-0.000
 01182,0.00001738,0.00000254,0.00000001,-0.00000445,0.00000548,-0.00000
 782,-0.00002766,0.00000186,0.00000716,0.00003126,-0.00607808,-0.050253
 84,0.03408351,-0.00009772,-0.00013838,0.00010655,-0.00006046,0.0002095
 7,-0.00007256,0.00000383,-0.00024135,0.00003851,-0.00006741,0.00031345
 ,-0.00007501,-0.00010578,-0.00032422,0.00006433,-0.00003341,0.00014334
 ,-0.00002517,-0.00027811,0.00070326,-0.00008446,-0.00087775,-0.0016140
 8,0.00028555,-0.00000533,0.00043431,-0.00012556,-0.00090016,0.00402975
 ,-0.00097730,-0.01965355,-0.01175274,0.00123769,-0.29052528,-0.0928773
 6,0.00720594,-0.00106006,0.00155591,-0.00031024,0.00179200,-0.00103993
 ,0.00007489,0.00016290,0.00083375,-0.00011636,0.00001601,0.00048737,-0
 .00001722,-0.00021781,-0.00055520,0.00004544,0.00012952,-0.00026165,0.
 00002058,-0.00000345,0.00000080,-0.00001886,0.00008764,0.00001411,-0.0
 0002581,-0.00002844,-0.00001248,0.00001323,-0.00003782,0.00002213,-0.0
 0000463,-0.00002047,-0.00002135,0.00000186,0.00131764,0.00019735,0.000
 17816,0.31000422,-0.00003598,-0.00003601,0.00003748,-0.00016257,0.0001
 0646,-0.00001098,0.00002763,-0.00022667,0.00003767,0.00009987,0.000208
 31,-0.00002512,-0.00011089,0.00003440,-0.00000176,0.00001492,0.0000463
 5,-0.00001826,0.00053883,-0.00003642,-0.00017338,-0.00000533,0.0008387
 0,-0.00005166,-0.00000804,-0.00002941,0.00008238,0.00279783,-0.0022599
 5,0.00183158,0.01956499,0.01033460,-0.00069880,-0.09334644,-0.09451688
 ,0.00740320,-0.02944528,-0.00545898,0.00016868,0.00081775,-0.00571037,
 0.00169156,0.00065751,-0.00032286,-0.00001815,-0.00041761,0.00023053,-
 0.00017877,-0.00021811,-0.00000733,-0.00002324,0.00016552,-0.00031964,
 0.00008840,-0.00000573,0.00000676,-0.00000457,0.00006634,0.00001158,-0
 .00001476,-0.00000932,-0.00000591,0.00000371,0.00000847,0.00001216,-0.
 00000520,0.00000019,-0.00000842,0.00000560,-0.00066497,0.00088372,-0.0
 0103912,0.10030470,0.09543983,0.00000255,0.00001023,0.00000244,-0.0000
 0862,0.00001534,0.00012484,0.00001026,-0.00000611,-0.00001247,-0.00001
 051,0.00003373,0.00012917,-0.00000974,0.00000891,0.00008851,-0.0000001
 2,-0.00001102,-0.00005503,-0.00007891,-0.00024882,-0.00120031,-0.00004
 072,-0.00003257,0.00057789,-0.00005425,0.00012267,0.00048755,-0.000651
 73,0.00180583,0.00824380,-0.00371847,-0.00161143,0.00249634,0.00723828
 ,0.00741841,-0.03196098,0.00462662,0.00110149,0.00096654,-0.00022758,0
 .00163162,0.00445616,-0.00007541,0.00006854,-0.00048016,0.00000187,-0.
 00009533,-0.00074927,0.00005518,-0.00004162,-0.00007387,0.00001629,0.0
 0003541,0.00013785,-0.00000123,-0.00000369,-0.00000053,-0.00000301,-0.
 00000303,0.00000398,0.00000042,-0.00000619,-0.00002013,-0.00000036,-0.
 00000678,-0.00003039,-0.00000233,0.00000273,0.00002252,0.00032519,-0.0
 0107862,-0.00532085,-0.00755697,-0.00863464,0.02405849,-0.00009451,-0.
 00006674,0.00006129,-0.00001588,0.00030535,-0.00007337,-0.00014327,-0.
 00019988,0.00003246,0.00002394,0.00016191,-0.00003896,-0.00004383,-0.0
 0016589,0.00003349,-0.00003102,0.00015944,-0.00003108,0.00016592,0.000
 12727,-0.00002241,0.00003539,-0.00049166,0.00013382,0.00006578,0.00058
 090,-0.00012368,-0.00040416,-0.00081059,0.00013149,0.00127188,-0.00115
 220,0.00007735,0.00639762,-0.00503455,0.00094204,-0.22175481,0.1287664
 8,-0.02623616,-0.01931595,0.02063461,-0.00394968,-0.00290937,-0.003975
 77,0.00021147,-0.00038842,0.00189725,-0.00026982,-0.00019258,-0.000386
 23,0.00000645,-0.00056523,-0.00056775,0.00013996,-0.00001668,0.0000043
 1,-0.00001159,0.00012539,0.00001657,-0.00002431,-0.00004238,0.00000023
 ,0.00000563,-0.00001848,0.00002259,-0.00000336,-0.00000814,-0.00001535
 ,0.00000138,0.00012623,-0.00025362,0.00003585,0.00066721,0.00070760,-0
 .00001953,0.23564470,0.00001129,0.00006592,-0.00004446,0.00012048,-0.0
 0008630,0.00004983,0.00000097,0.00028645,-0.00002942,-0.00008554,-0.00
 026078,0.00006003,0.00017354,0.00012340,-0.00000221,0.00000925,-0.0001
 0469,0.00002275,-0.00029664,-0.00031794,0.00006532,0.00047941,0.000204
 24,-0.00016378,0.00019194,-0.00019959,0.00005479,-0.00063217,0.0001118
 9,-0.00010757,-0.00303465,-0.00517728,0.00149994,0.02590599,-0.0124805
 3,0.00296702,0.12933677,-0.15937413,0.02424415,-0.01068413,0.01004810,
 -0.00152279,-0.00282941,-0.00027638,0.00133977,0.00038815,0.00024634,0
 .00003751,0.00002605,0.00011994,0.00006670,-0.00038261,0.00032611,-0.0
 0023490,0.00000167,-0.00000247,0.00000617,-0.00001529,-0.00000894,0.00
 000770,0.00000915,0.00000938,-0.00001846,0.00001257,-0.00001788,-0.000
 00072,0.00001112,0.00001829,-0.00000398,0.00117558,-0.00067330,0.00018
 772,-0.00050623,0.00115968,-0.00059049,-0.13999266,0.16547502,0.000002
 03,-0.00005727,-0.00001227,-0.00005412,0.00006145,0.00003923,0.0000129
 0,-0.00009241,0.00015046,0.00005746,0.00011847,-0.00004052,-0.00011750
 ,0.00000739,0.00012635,0.00000573,0.00003151,0.00000717,0.00015036,0.0
 0011454,0.00013907,-0.00018432,-0.00017560,-0.00077170,0.00000080,0.00
 004367,-0.00007659,0.00017091,-0.00022633,-0.00044392,0.00031853,0.001
 55459,0.00455841,-0.00396422,0.00196022,0.00080847,-0.02632991,0.02430
 132,-0.03653905,0.00107966,-0.00062106,0.00274128,0.00020065,0.0013790
 6,0.00844132,-0.00024527,0.00012101,0.00051688,-0.00003289,0.00002679,
 0.00049259,0.00009440,-0.00029981,-0.00113429,0.00000352,-0.00000039,0
 .00001400,-0.00002966,0.00000660,-0.00003242,-0.00000080,-0.00001110,-
 0.00002458,-0.00000215,0.00000174,-0.00002142,-0.00000187,-0.00000686,
 -0.00000560,-0.00019174,0.00016374,0.00034547,0.00016890,-0.00054937,-
 0.00232306,0.02873139,-0.02690192,0.02842496,0.00039405,-0.00019115,0.
 00001795,-0.00036371,0.00014663,-0.00008258,0.00019829,-0.00027295,0.0
 0006565,-0.00001939,0.00022977,-0.00005533,-0.00005682,-0.00005614,0.0
 0001012,0.00000904,-0.00005227,0.00000823,0.00014420,0.00021983,-0.000
 02910,0.00087061,0.00103316,-0.00006705,-0.00040885,0.00030855,-0.0001
 2435,-0.00418905,0.00169187,-0.00042127,-0.00080439,0.00022526,-0.0000
 2417,-0.00453103,-0.00086930,-0.00028308,-0.00095961,-0.02865840,0.004
 37871,-0.06147661,-0.04163276,0.00611769,0.00985360,0.02362952,-0.0036
 9059,-0.00113156,0.00147731,-0.00012348,0.00089579,-0.00203114,0.00115
 480,0.00089622,-0.00076785,0.00010822,0.00007287,-0.00004657,-0.000012
 85,-0.00058821,-0.00003511,0.00007618,0.00000438,-0.00000745,0.0000088
 7,-0.00000165,-0.00000020,0.00000153,-0.00001529,-0.00000909,0.0000016
 9,0.00013789,-0.00001426,0.00003812,-0.00020796,-0.00134188,0.00018283
 ,0.00142066,0.00060537,0.00015719,0.05985653,-0.00015568,0.00022117,-0
 .00008759,0.00025157,-0.00036971,0.00012574,-0.00006913,0.00034822,-0.
 00005752,0.00001177,-0.00033807,0.00007342,0.00007949,0.00016479,-0.00
 002730,0.00002617,-0.00009305,0.00001593,-0.00012676,-0.00031392,0.000
 04412,-0.00069212,-0.00035902,-0.00004840,0.00026567,-0.00066405,0.000
 17838,0.00331996,0.00030589,0.00082474,0.00074852,0.00047708,-0.000216
 11,-0.00208979,0.00208612,0.00090056,0.00095632,-0.00629901,0.00164916
 ,-0.04112522,-0.31921330,0.04353461,-0.00243400,-0.01694898,0.00327833
 ,-0.00163424,-0.00379566,-0.00007582,-0.00358418,0.00289665,-0.0004031
 5,-0.00016987,0.00056661,-0.00007374,-0.00003854,0.00002134,0.00002123
 ,0.00020392,0.00004711,-0.00003112,0.00003141,0.00001171,-0.00001392,0
 .00001711,-0.00002083,0.00000268,0.00001451,0.00002413,-0.00000312,-0.
 00004974,-0.00014586,-0.00012965,0.00009520,-0.00037425,0.00011545,-0.
 00027160,0.00078544,-0.00094998,0.04641925,0.34097946,0.00003487,-0.00
 001847,0.00003580,-0.00010755,0.00006081,0.00008764,0.00004863,-0.0000
 9501,0.00007050,0.00001012,0.00009404,-0.00004573,-0.00003139,-0.00001
 540,0.00004462,0.00000048,0.00000899,-0.00001073,0.00005088,0.00012063
 ,0.00004362,0.00006725,0.00002052,-0.00059426,-0.00005102,0.00012267,0
 .00022165,-0.00072207,0.00067091,0.00479036,-0.00013464,-0.00017913,-0
 .00098274,-0.00002149,0.00100289,0.00846245,-0.00033588,0.00086613,0.0
 0383849,0.00593331,0.04351389,-0.04379093,0.00091893,0.00396042,0.0035
 3344,-0.00000924,0.00016059,-0.00240405,0.00136689,-0.00033374,-0.0007
 7818,0.00018427,-0.00023587,-0.00015130,0.00002213,-0.00001357,0.00001
 834,-0.00007221,-0.00001434,-0.00003866,-0.00000296,-0.00001243,-0.000
 02822,-0.00000234,0.00000367,-0.00000368,-0.00000413,-0.00000339,0.000
 00167,0.00004271,-0.00014668,-0.00098991,-0.00003150,0.00009752,0.0004
 3098,0.00025991,-0.00098870,-0.00538023,-0.00741396,-0.04864694,0.0336
 1905\\0.00003081,-0.00001471,-0.00002437,-0.00000483,-0.00001716,0.000
 01825,-0.00000239,-0.00000828,0.00000869,-0.00000760,-0.00000648,-0.00
 000227,-0.00002529,-0.00002344,-0.00000593,-0.00000936,0.00000244,-0.0
 0000558,0.00000562,-0.00001295,0.00000382,0.00000991,0.00004241,-0.000
 02032,-0.00001958,-0.00002297,-0.00000970,-0.00002103,-0.00000656,-0.0
 0000177,-0.00000008,0.00000899,-0.00000934,0.00000396,0.00001794,-0.00
 000823,0.00000636,0.00000541,0.00000157,0.00000991,0.00000711,0.000001
 77,-0.00001822,0.00001378,-0.00000864,0.00000558,-0.00001133,0.0000285
 5,0.00001535,0.00000612,0.00000902,0.00002069,-0.00000110,-0.00000625,
 0.00000978,-0.00000491,0.00002779,-0.00002565,0.00002119,0.00002457,0.
 00000456,-0.00001295,0.00000677,0.00000093,-0.00001528,-0.00000018,-0.
 00000365,-0.00000749,-0.00001479,0.00000406,0.00000394,-0.00001313,-0.
 00000682,0.00001247,-0.00000915,0.00000110,0.00001570,-0.00000093,0.00
 001588,0.00000812,0.00000981\\\@


  DISAPPOINTMENT IS THE NURSE OF WISDOM.               
                              SIR BOYLE ROCHE                 
 Job cpu time:       0 days  7 hours  7 minutes 35.6 seconds.
 Elapsed time:       0 days  1 hours 15 minutes  7.9 seconds.
 File lengths (MBytes):  RWF=   1138 Int=      0 D2E=      0 Chk=     33 Scr=      1
 Normal termination of Gaussian 16 at Sat Feb 10 20:57:44 2024.
