 Entering Gaussian System, Link 0=g16
 Input=120-rad.com
 Output=120-rad.log
 Initial command:
 /sysapps/ubuntu-applications/gaussian/Gaussian/AVX2/g16/l1.exe "/scratch/selhajj1/4234687/Gau-3459072.inp" -scrdir="/scratch/selhajj1/4234687/"
 Entering Link 1 = /sysapps/ubuntu-applications/gaussian/Gaussian/AVX2/g16/l1.exe PID=   3459092.
  
 Copyright (c) 1988,1990,1992,1993,1995,1998,2003,2009,2016,
            Gaussian, Inc.  All Rights Reserved.
  
 This is part of the Gaussian(R) 16 program.  It is based on
 the Gaussian(R) 09 system (copyright 2009, Gaussian, Inc.),
 the Gaussian(R) 03 system (copyright 2003, Gaussian, Inc.),
 the Gaussian(R) 98 system (copyright 1998, Gaussian, Inc.),
 the Gaussian(R) 94 system (copyright 1995, Gaussian, Inc.),
 the Gaussian 92(TM) system (copyright 1992, Gaussian, Inc.),
 the Gaussian 90(TM) system (copyright 1990, Gaussian, Inc.),
 the Gaussian 88(TM) system (copyright 1988, Gaussian, Inc.),
 the Gaussian 86(TM) system (copyright 1986, Carnegie Mellon
 University), and the Gaussian 82(TM) system (copyright 1983,
 Carnegie Mellon University). Gaussian is a federally registered
 trademark of Gaussian, Inc.
  
 This software contains proprietary and confidential information,
 including trade secrets, belonging to Gaussian, Inc.
  
 This software is provided under written license and may be
 used, copied, transmitted, or stored only in accord with that
 written license.
  
 The following legend is applicable only to US Government
 contracts under FAR:
  
                    RESTRICTED RIGHTS LEGEND
  
 Use, reproduction and disclosure by the US Government is
 subject to restrictions as set forth in subparagraphs (a)
 and (c) of the Commercial Computer Software - Restricted
 Rights clause in FAR 52.227-19.
  
 Gaussian, Inc.
 340 Quinnipiac St., Bldg. 40, Wallingford CT 06492
  
  
 ---------------------------------------------------------------
 Warning -- This program may not be used in any manner that
 competes with the business of Gaussian, Inc. or will provide
 assistance to any competitor of Gaussian, Inc.  The licensee
 of this program is prohibited from giving any competitor of
 Gaussian, Inc. access to this program.  By using this program,
 the user acknowledges that Gaussian, Inc. is engaged in the
 business of creating and licensing software in the field of
 computational chemistry and represents and warrants to the
 licensee that it is not a competitor of Gaussian, Inc. and that
 it will not use this program in any manner prohibited above.
 ---------------------------------------------------------------
  

 Cite this work as:
 Gaussian 16, Revision A.03,
 M. J. Frisch, G. W. Trucks, H. B. Schlegel, G. E. Scuseria, 
 M. A. Robb, J. R. Cheeseman, G. Scalmani, V. Barone, 
 G. A. Petersson, H. Nakatsuji, X. Li, M. Caricato, A. V. Marenich, 
 J. Bloino, B. G. Janesko, R. Gomperts, B. Mennucci, H. P. Hratchian, 
 J. V. Ortiz, A. F. Izmaylov, J. L. Sonnenberg, D. Williams-Young, 
 F. Ding, F. Lipparini, F. Egidi, J. Goings, B. Peng, A. Petrone, 
 T. Henderson, D. Ranasinghe, V. G. Zakrzewski, J. Gao, N. Rega, 
 G. Zheng, W. Liang, M. Hada, M. Ehara, K. Toyota, R. Fukuda, 
 J. Hasegawa, M. Ishida, T. Nakajima, Y. Honda, O. Kitao, H. Nakai, 
 T. Vreven, K. Throssell, J. A. Montgomery, Jr., J. E. Peralta, 
 F. Ogliaro, M. J. Bearpark, J. J. Heyd, E. N. Brothers, K. N. Kudin, 
 V. N. Staroverov, T. A. Keith, R. Kobayashi, J. Normand, 
 K. Raghavachari, A. P. Rendell, J. C. Burant, S. S. Iyengar, 
 J. Tomasi, M. Cossi, J. M. Millam, M. Klene, C. Adamo, R. Cammi, 
 J. W. Ochterski, R. L. Martin, K. Morokuma, O. Farkas, 
 J. B. Foresman, and D. J. Fox, Gaussian, Inc., Wallingford CT, 2016.
 
 ******************************************
 Gaussian 16:  ES64L-G16RevA.03 25-Dec-2016
                27-Dec-2023 
 ******************************************
 %chk=120-rad.chk
 %nproc=8
 Will use up to    8 processors via shared memory.
 %mem=30GB
 --------------------------------------
 #P UB3LYP/6-311++G(d,p) nosym opt freq
 --------------------------------------
 1/18=20,19=15,26=3,38=1/1,3;
 2/9=110,12=2,15=1,17=6,18=5,40=1/2;
 3/5=4,6=6,7=1111,11=2,25=1,30=1,71=1,74=-5,116=2/1,2,3;
 4//1;
 5/5=2,38=5/2;
 6/7=2,8=2,9=2,10=2,28=1/1;
 7/30=1/1,2,3,16;
 1/18=20,19=15,26=3/3(2);
 2/9=110,15=1/2;
 99//99;
 2/9=110,15=1/2;
 3/5=4,6=6,7=1111,11=2,25=1,30=1,71=1,74=-5,116=2/1,2,3;
 4/5=5,16=3,69=1/1;
 5/5=2,38=5/2;
 7/30=1/1,2,3,16;
 1/18=20,19=15,26=3/3(-5);
 2/9=110,15=1/2;
 6/7=2,8=2,9=2,10=2,19=2,28=1/1;
 99/9=1/99;
 Leave Link    1 at Wed Dec 27 19:44:46 2023, MaxMem=  4026531840 cpu:               1.2 elap:               0.2
 (Enter /sysapps/ubuntu-applications/gaussian/Gaussian/AVX2/g16/l101.exe)
 -------
 Radical
 -------
 Symbolic Z-matrix:
 Charge = -1 Multiplicity = 2
 C                    -3.36679   3.68443   0.03658 
 C                    -4.57528   3.01764   0.05774 
 C                    -4.59991   1.60565   0.08173 
 C                    -2.14213   2.98089   0.03838 
 C                    -2.16671   1.55563   0.06261 
 C                    -3.41573   0.89635   0.08397 
 C                    -0.88677   3.73563   0.01535 
 C                     0.33712   2.9337    0.01891 
 C                     0.31454   1.51105   0.04309 
 C                    -0.93861   0.75721   0.06599 
 C                     1.58592   3.59087  -0.00236 
 C                     2.75019   2.86248   0.00045 
 C                     2.77291   1.44438   0.02423 
 C                     1.54008   0.81341   0.04491 
 O                    -0.86037   4.99033  -0.00591 
 O                    -0.95911  -0.49887   0.08748 
 Br                    4.43337   3.84063  -0.03018 
 C                     4.05143   0.64739   0.02705 
 H                    -3.31753   4.76713   0.01794 
 H                    -5.50638   3.57656   0.05597 
 H                    -5.55008   1.07999   0.09837 
 H                    -3.40476  -0.18743   0.10212 
 H                     1.58652   4.67303  -0.02062 
 H                     1.48721  -0.26999   0.06369 
 H                     4.67494   0.88638   0.89496 
 H                     4.65775   0.85273  -0.86149 
 H                     3.8272   -0.42093   0.0496 
 
 ITRead=  0  0  0  0  0  0  0  0  0  0  0  0  0  0  0  0  0  0  0  0
 ITRead=  0  0  0  0  0  0  0
 MicOpt= -1 -1 -1 -1 -1 -1 -1 -1 -1 -1 -1 -1 -1 -1 -1 -1 -1 -1 -1 -1
 MicOpt= -1 -1 -1 -1 -1 -1 -1
 NAtoms=     27 NQM=       27 NQMF=       0 NMMI=      0 NMMIF=      0
                NMic=       0 NMicF=      0.
                    Isotopes and Nuclear Properties:
 (Nuclear quadrupole moments (NQMom) in fm**2, nuclear magnetic moments (NMagM)
  in nuclear magnetons)

  Atom         1           2           3           4           5           6           7           8           9          10
 IAtWgt=          12          12          12          12          12          12          12          12          12          12
 AtmWgt=  12.0000000  12.0000000  12.0000000  12.0000000  12.0000000  12.0000000  12.0000000  12.0000000  12.0000000  12.0000000
 NucSpn=           0           0           0           0           0           0           0           0           0           0
 AtZEff=  -0.0000000  -0.0000000  -0.0000000  -0.0000000  -0.0000000  -0.0000000  -0.0000000  -0.0000000  -0.0000000  -0.0000000
 NQMom=    0.0000000   0.0000000   0.0000000   0.0000000   0.0000000   0.0000000   0.0000000   0.0000000   0.0000000   0.0000000
 NMagM=    0.0000000   0.0000000   0.0000000   0.0000000   0.0000000   0.0000000   0.0000000   0.0000000   0.0000000   0.0000000
 AtZNuc=   6.0000000   6.0000000   6.0000000   6.0000000   6.0000000   6.0000000   6.0000000   6.0000000   6.0000000   6.0000000

  Atom        11          12          13          14          15          16          17          18          19          20
 IAtWgt=          12          12          12          12          16          16          79          12           1           1
 AtmWgt=  12.0000000  12.0000000  12.0000000  12.0000000  15.9949146  15.9949146  78.9183361  12.0000000   1.0078250   1.0078250
 NucSpn=           0           0           0           0           0           0           3           0           1           1
 AtZEff=  -0.0000000  -0.0000000  -0.0000000  -0.0000000  -0.0000000  -0.0000000  -0.0000000  -0.0000000  -0.0000000  -0.0000000
 NQMom=    0.0000000   0.0000000   0.0000000   0.0000000   0.0000000   0.0000000  31.3000000   0.0000000   0.0000000   0.0000000
 NMagM=    0.0000000   0.0000000   0.0000000   0.0000000   0.0000000   0.0000000   2.1063990   0.0000000   2.7928460   2.7928460
 AtZNuc=   6.0000000   6.0000000   6.0000000   6.0000000   8.0000000   8.0000000  35.0000000   6.0000000   1.0000000   1.0000000

  Atom        21          22          23          24          25          26          27
 IAtWgt=           1           1           1           1           1           1           1
 AtmWgt=   1.0078250   1.0078250   1.0078250   1.0078250   1.0078250   1.0078250   1.0078250
 NucSpn=           1           1           1           1           1           1           1
 AtZEff=  -0.0000000  -0.0000000  -0.0000000  -0.0000000  -0.0000000  -0.0000000  -0.0000000
 NQMom=    0.0000000   0.0000000   0.0000000   0.0000000   0.0000000   0.0000000   0.0000000
 NMagM=    2.7928460   2.7928460   2.7928460   2.7928460   2.7928460   2.7928460   2.7928460
 AtZNuc=   1.0000000   1.0000000   1.0000000   1.0000000   1.0000000   1.0000000   1.0000000
 Leave Link  101 at Wed Dec 27 19:44:47 2023, MaxMem=  4026531840 cpu:               3.6 elap:               0.9
 (Enter /sysapps/ubuntu-applications/gaussian/Gaussian/AVX2/g16/l103.exe)

 GradGradGradGradGradGradGradGradGradGradGradGradGradGradGradGradGradGrad
 Berny optimization.
 Initialization pass.
                           ----------------------------
                           !    Initial Parameters    !
                           ! (Angstroms and Degrees)  !
 --------------------------                            --------------------------
 ! Name  Definition              Value          Derivative Info.                !
 --------------------------------------------------------------------------------
 ! R1    R(1,2)                  1.3804         estimate D2E/DX2                !
 ! R2    R(1,4)                  1.4124         estimate D2E/DX2                !
 ! R3    R(1,19)                 1.084          estimate D2E/DX2                !
 ! R4    R(2,3)                  1.4124         estimate D2E/DX2                !
 ! R5    R(2,20)                 1.086          estimate D2E/DX2                !
 ! R6    R(3,6)                  1.3804         estimate D2E/DX2                !
 ! R7    R(3,21)                 1.086          estimate D2E/DX2                !
 ! R8    R(4,5)                  1.4257         estimate D2E/DX2                !
 ! R9    R(4,7)                  1.465          estimate D2E/DX2                !
 ! R10   R(5,6)                  1.4125         estimate D2E/DX2                !
 ! R11   R(5,10)                 1.4648         estimate D2E/DX2                !
 ! R12   R(6,22)                 1.084          estimate D2E/DX2                !
 ! R13   R(7,8)                  1.4632         estimate D2E/DX2                !
 ! R14   R(7,15)                 1.2552         estimate D2E/DX2                !
 ! R15   R(8,9)                  1.423          estimate D2E/DX2                !
 ! R16   R(8,11)                 1.4113         estimate D2E/DX2                !
 ! R17   R(9,10)                 1.4626         estimate D2E/DX2                !
 ! R18   R(9,14)                 1.4102         estimate D2E/DX2                !
 ! R19   R(10,16)                1.2564         estimate D2E/DX2                !
 ! R20   R(11,12)                1.3733         estimate D2E/DX2                !
 ! R21   R(11,23)                1.0823         estimate D2E/DX2                !
 ! R22   R(12,13)                1.4185         estimate D2E/DX2                !
 ! R23   R(12,17)                1.947          estimate D2E/DX2                !
 ! R24   R(13,14)                1.3851         estimate D2E/DX2                !
 ! R25   R(13,18)                1.5066         estimate D2E/DX2                !
 ! R26   R(14,24)                1.0849         estimate D2E/DX2                !
 ! R27   R(18,25)                1.0951         estimate D2E/DX2                !
 ! R28   R(18,26)                1.0951         estimate D2E/DX2                !
 ! R29   R(18,27)                1.0918         estimate D2E/DX2                !
 ! A1    A(2,1,4)              121.2306         estimate D2E/DX2                !
 ! A2    A(2,1,19)             121.501          estimate D2E/DX2                !
 ! A3    A(4,1,19)             117.2684         estimate D2E/DX2                !
 ! A4    A(1,2,3)              119.8956         estimate D2E/DX2                !
 ! A5    A(1,2,20)             120.1312         estimate D2E/DX2                !
 ! A6    A(3,2,20)             119.9732         estimate D2E/DX2                !
 ! A7    A(2,3,6)              119.9188         estimate D2E/DX2                !
 ! A8    A(2,3,21)             119.9605         estimate D2E/DX2                !
 ! A9    A(6,3,21)             120.1206         estimate D2E/DX2                !
 ! A10   A(1,4,5)              118.885          estimate D2E/DX2                !
 ! A11   A(1,4,7)              119.1035         estimate D2E/DX2                !
 ! A12   A(5,4,7)              122.0115         estimate D2E/DX2                !
 ! A13   A(4,5,6)              118.8236         estimate D2E/DX2                !
 ! A14   A(4,5,10)             122.0386         estimate D2E/DX2                !
 ! A15   A(6,5,10)             119.1378         estimate D2E/DX2                !
 ! A16   A(3,6,5)              121.2463         estimate D2E/DX2                !
 ! A17   A(3,6,22)             121.4979         estimate D2E/DX2                !
 ! A18   A(5,6,22)             117.2558         estimate D2E/DX2                !
 ! A19   A(4,7,8)              115.7447         estimate D2E/DX2                !
 ! A20   A(4,7,15)             122.229          estimate D2E/DX2                !
 ! A21   A(8,7,15)             122.0263         estimate D2E/DX2                !
 ! A22   A(7,8,9)              122.3224         estimate D2E/DX2                !
 ! A23   A(7,8,11)             119.0043         estimate D2E/DX2                !
 ! A24   A(9,8,11)             118.6733         estimate D2E/DX2                !
 ! A25   A(8,9,10)             121.9474         estimate D2E/DX2                !
 ! A26   A(8,9,14)             118.738          estimate D2E/DX2                !
 ! A27   A(10,9,14)            119.3146         estimate D2E/DX2                !
 ! A28   A(5,10,9)             115.9354         estimate D2E/DX2                !
 ! A29   A(5,10,16)            122.0916         estimate D2E/DX2                !
 ! A30   A(9,10,16)            121.9729         estimate D2E/DX2                !
 ! A31   A(8,11,12)            120.2082         estimate D2E/DX2                !
 ! A32   A(8,11,23)            117.7956         estimate D2E/DX2                !
 ! A33   A(12,11,23)           121.9962         estimate D2E/DX2                !
 ! A34   A(11,12,13)           122.9455         estimate D2E/DX2                !
 ! A35   A(11,12,17)           117.8013         estimate D2E/DX2                !
 ! A36   A(13,12,17)           119.2532         estimate D2E/DX2                !
 ! A37   A(12,13,14)           116.1949         estimate D2E/DX2                !
 ! A38   A(12,13,18)           122.8529         estimate D2E/DX2                !
 ! A39   A(14,13,18)           120.9522         estimate D2E/DX2                !
 ! A40   A(9,14,13)            123.2401         estimate D2E/DX2                !
 ! A41   A(9,14,24)            116.8539         estimate D2E/DX2                !
 ! A42   A(13,14,24)           119.906          estimate D2E/DX2                !
 ! A43   A(13,18,25)           111.6677         estimate D2E/DX2                !
 ! A44   A(13,18,26)           111.662          estimate D2E/DX2                !
 ! A45   A(13,18,27)           110.0827         estimate D2E/DX2                !
 ! A46   A(25,18,26)           106.6718         estimate D2E/DX2                !
 ! A47   A(25,18,27)           108.3072         estimate D2E/DX2                !
 ! A48   A(26,18,27)           108.2963         estimate D2E/DX2                !
 ! D1    D(4,1,2,3)             -0.0005         estimate D2E/DX2                !
 ! D2    D(4,1,2,20)          -179.9999         estimate D2E/DX2                !
 ! D3    D(19,1,2,3)           179.9996         estimate D2E/DX2                !
 ! D4    D(19,1,2,20)            0.0002         estimate D2E/DX2                !
 ! D5    D(2,1,4,5)             -0.0005         estimate D2E/DX2                !
 ! D6    D(2,1,4,7)            179.9998         estimate D2E/DX2                !
 ! D7    D(19,1,4,5)           179.9994         estimate D2E/DX2                !
 ! D8    D(19,1,4,7)            -0.0003         estimate D2E/DX2                !
 ! D9    D(1,2,3,6)              0.0009         estimate D2E/DX2                !
 ! D10   D(1,2,3,21)          -179.9992         estimate D2E/DX2                !
 ! D11   D(20,2,3,6)          -179.9997         estimate D2E/DX2                !
 ! D12   D(20,2,3,21)            0.0002         estimate D2E/DX2                !
 ! D13   D(2,3,6,5)             -0.0004         estimate D2E/DX2                !
 ! D14   D(2,3,6,22)          -179.999          estimate D2E/DX2                !
 ! D15   D(21,3,6,5)           179.9997         estimate D2E/DX2                !
 ! D16   D(21,3,6,22)            0.0011         estimate D2E/DX2                !
 ! D17   D(1,4,5,6)              0.001          estimate D2E/DX2                !
 ! D18   D(1,4,5,10)          -179.9997         estimate D2E/DX2                !
 ! D19   D(7,4,5,6)           -179.9993         estimate D2E/DX2                !
 ! D20   D(7,4,5,10)             0.0001         estimate D2E/DX2                !
 ! D21   D(1,4,7,8)            179.9961         estimate D2E/DX2                !
 ! D22   D(1,4,7,15)             0.0055         estimate D2E/DX2                !
 ! D23   D(5,4,7,8)             -0.0036         estimate D2E/DX2                !
 ! D24   D(5,4,7,15)          -179.9942         estimate D2E/DX2                !
 ! D25   D(4,5,6,3)             -0.0006         estimate D2E/DX2                !
 ! D26   D(4,5,6,22)           179.9981         estimate D2E/DX2                !
 ! D27   D(10,5,6,3)          -179.9999         estimate D2E/DX2                !
 ! D28   D(10,5,6,22)           -0.0012         estimate D2E/DX2                !
 ! D29   D(4,5,10,9)             0.0038         estimate D2E/DX2                !
 ! D30   D(4,5,10,16)          179.9922         estimate D2E/DX2                !
 ! D31   D(6,5,10,9)          -179.9969         estimate D2E/DX2                !
 ! D32   D(6,5,10,16)           -0.0085         estimate D2E/DX2                !
 ! D33   D(4,7,8,9)              0.0034         estimate D2E/DX2                !
 ! D34   D(4,7,8,11)          -179.9972         estimate D2E/DX2                !
 ! D35   D(15,7,8,9)           179.994          estimate D2E/DX2                !
 ! D36   D(15,7,8,11)           -0.0066         estimate D2E/DX2                !
 ! D37   D(7,8,9,10)             0.0004         estimate D2E/DX2                !
 ! D38   D(7,8,9,14)          -179.9979         estimate D2E/DX2                !
 ! D39   D(11,8,9,10)         -179.999          estimate D2E/DX2                !
 ! D40   D(11,8,9,14)            0.0027         estimate D2E/DX2                !
 ! D41   D(7,8,11,12)          179.9998         estimate D2E/DX2                !
 ! D42   D(7,8,11,23)           -0.0003         estimate D2E/DX2                !
 ! D43   D(9,8,11,12)           -0.0008         estimate D2E/DX2                !
 ! D44   D(9,8,11,23)          179.9992         estimate D2E/DX2                !
 ! D45   D(8,9,10,5)            -0.004          estimate D2E/DX2                !
 ! D46   D(8,9,10,16)         -179.9924         estimate D2E/DX2                !
 ! D47   D(14,9,10,5)          179.9943         estimate D2E/DX2                !
 ! D48   D(14,9,10,16)           0.0059         estimate D2E/DX2                !
 ! D49   D(8,9,14,13)           -0.0024         estimate D2E/DX2                !
 ! D50   D(8,9,14,24)          179.9956         estimate D2E/DX2                !
 ! D51   D(10,9,14,13)         179.9992         estimate D2E/DX2                !
 ! D52   D(10,9,14,24)          -0.0027         estimate D2E/DX2                !
 ! D53   D(8,11,12,13)          -0.0015         estimate D2E/DX2                !
 ! D54   D(8,11,12,17)         179.9865         estimate D2E/DX2                !
 ! D55   D(23,11,12,13)        179.9985         estimate D2E/DX2                !
 ! D56   D(23,11,12,17)         -0.0135         estimate D2E/DX2                !
 ! D57   D(11,12,13,14)          0.0018         estimate D2E/DX2                !
 ! D58   D(11,12,13,18)        179.9903         estimate D2E/DX2                !
 ! D59   D(17,12,13,14)       -179.986          estimate D2E/DX2                !
 ! D60   D(17,12,13,18)          0.0025         estimate D2E/DX2                !
 ! D61   D(12,13,14,9)           0.0002         estimate D2E/DX2                !
 ! D62   D(12,13,14,24)       -179.9978         estimate D2E/DX2                !
 ! D63   D(18,13,14,9)        -179.9885         estimate D2E/DX2                !
 ! D64   D(18,13,14,24)          0.0135         estimate D2E/DX2                !
 ! D65   D(12,13,18,25)         59.5134         estimate D2E/DX2                !
 ! D66   D(12,13,18,26)        -59.8243         estimate D2E/DX2                !
 ! D67   D(12,13,18,27)        179.8533         estimate D2E/DX2                !
 ! D68   D(14,13,18,25)       -120.4986         estimate D2E/DX2                !
 ! D69   D(14,13,18,26)        120.1636         estimate D2E/DX2                !
 ! D70   D(14,13,18,27)         -0.1588         estimate D2E/DX2                !
 --------------------------------------------------------------------------------
 Trust Radius=3.00D-01 FncErr=1.00D-07 GrdErr=1.00D-06 EigMax=2.50D+02 EigMin=1.00D-04
 Number of steps in this run=    157 maximum allowed number of steps=    162.
 GradGradGradGradGradGradGradGradGradGradGradGradGradGradGradGradGradGrad

 Leave Link  103 at Wed Dec 27 19:44:48 2023, MaxMem=  4026531840 cpu:               0.3 elap:               0.3
 (Enter /sysapps/ubuntu-applications/gaussian/Gaussian/AVX2/g16/l202.exe)
                          Input orientation:                          
 ---------------------------------------------------------------------
 Center     Atomic      Atomic             Coordinates (Angstroms)
 Number     Number       Type             X           Y           Z
 ---------------------------------------------------------------------
      1          6           0       -3.366791    3.684427    0.036583
      2          6           0       -4.575281    3.017641    0.057741
      3          6           0       -4.599909    1.605652    0.081727
      4          6           0       -2.142127    2.980891    0.038384
      5          6           0       -2.166706    1.555633    0.062614
      6          6           0       -3.415732    0.896345    0.083967
      7          6           0       -0.886769    3.735634    0.015354
      8          6           0        0.337119    2.933695    0.018910
      9          6           0        0.314535    1.511048    0.043085
     10          6           0       -0.938607    0.757205    0.065994
     11          6           0        1.585923    3.590867   -0.002355
     12          6           0        2.750192    2.862483    0.000451
     13          6           0        2.772908    1.444381    0.024229
     14          6           0        1.540081    0.813409    0.044914
     15          8           0       -0.860365    4.990330   -0.005908
     16          8           0       -0.959105   -0.498866    0.087484
     17         35           0        4.433374    3.840628   -0.030177
     18          6           0        4.051428    0.647387    0.027047
     19          1           0       -3.317534    4.767131    0.017935
     20          1           0       -5.506382    3.576560    0.055965
     21          1           0       -5.550078    1.079990    0.098373
     22          1           0       -3.404762   -0.187434    0.102117
     23          1           0        1.586521    4.673026   -0.020623
     24          1           0        1.487212   -0.269994    0.063687
     25          1           0        4.674944    0.886380    0.894955
     26          1           0        4.657747    0.852732   -0.861490
     27          1           0        3.827204   -0.420931    0.049597
 ---------------------------------------------------------------------
                    Distance matrix (angstroms):
                    1          2          3          4          5
     1  C    0.000000
     2  C    1.380398   0.000000
     3  C    2.417421   1.412407   0.000000
     4  C    1.412363   2.433509   2.816710   0.000000
     5  C    2.443900   2.817574   2.433792   1.425676   0.000000
     6  C    2.788914   2.417672   1.380361   2.443252   1.412509
     7  C    2.480641   3.757982   4.281196   1.464954   2.528414
     8  C    3.779267   4.913271   5.112914   2.479772   2.858339
     9  C    4.275018   5.116673   4.915506   2.862804   2.481718
    10  C    3.803363   4.281943   3.758356   2.528636   1.464830
    11  C    4.953751   6.188104   6.497128   3.777842   4.269499
    12  C    6.172064   7.327340   7.457226   4.893899   5.087987
    13  C    6.535584   7.514796   7.374805   5.149624   4.941016
    14  C    5.685086   6.500497   6.191000   4.272783   3.780407
    15  O    2.826545   4.206680   5.044593   2.383846   3.675373
    16  O    4.826954   5.044149   4.205292   3.675685   2.383251
    17  Br   7.802014   9.046596   9.306333   6.631822   6.985046
    18  C    8.015839   8.946460   8.704418   6.618572   6.284216
    19  H    1.083984   2.155047   3.412258   2.138376   3.411762
    20  H    2.142396   1.085975   2.169524   3.416627   3.903540
    21  H    3.399066   2.169417   1.086010   3.902711   3.416829
    22  H    3.872602   3.412417   2.154982   3.411245   2.138370
    23  H    5.051327   6.380771   6.905880   4.095072   4.879732
    24  H    6.260952   6.896550   6.369569   4.872473   4.084609
    25  H    8.557767   9.529421   9.338179   7.182837   6.924512
    26  H    8.556766   9.527887   9.335992   7.181721   6.922514
    27  H    8.282976   9.078854   8.667428   6.870621   6.311413
                    6          7          8          9         10
     6  C    0.000000
     7  C    3.802884   0.000000
     8  C    4.270705   1.463223   0.000000
     9  C    3.780797   2.528376   1.423032   0.000000
    10  C    2.481095   2.979310   2.523252   1.462590   0.000000
    11  C    5.681941   2.476989   1.411325   2.438061   3.795730
    12  C    6.472348   3.740334   2.414194   2.785789   4.247791
    13  C    6.213146   4.317772   2.855022   2.459349   3.774824
    14  C    4.956661   3.798667   2.437910   1.410201   2.479415
    15  O    4.826872   1.255154   2.379986   3.672628   4.234459
    16  O    2.825180   4.235732   3.669792   2.379892   1.256422
    17  Br   8.383931   5.321374   4.195741   4.732562   6.194750
    18  C    7.471526   5.824362   4.361578   3.835432   4.991395
    19  H    3.872594   2.640570   4.088762   4.877974   4.662736
    20  H    3.399287   4.622529   5.878873   6.176535   5.367814
    21  H    2.142281   5.367102   6.172651   5.880693   4.622867
    22  H    1.083986   4.662433   4.873402   4.089193   2.641130
    23  H    6.268715   2.645215   2.141924   3.408829   4.660196
    24  H    5.039803   4.656520   3.404165   2.132535   2.634339
    25  H    8.131226   6.310673   4.876031   4.486542   5.675898
    26  H    8.128767   6.310439   4.875791   4.484989   5.673494
    27  H    7.361829   6.284882   4.840987   4.008919   4.909300
                   11         12         13         14         15
    11  C    0.000000
    12  C    1.373344   0.000000
    13  C    2.452966   1.418483   0.000000
    14  C    2.778238   2.380137   1.385069   0.000000
    15  O    2.818303   4.190930   5.076942   4.817820   0.000000
    16  O    4.817796   5.006508   4.208103   2.823085   5.490878
    17  Br   2.858519   1.947000   2.915837   4.188178   5.417202
    18  C    3.839747   2.569158   1.506592   2.516892   6.556520
    19  H    5.042608   6.359661   6.937881   6.263311   2.467401
    20  H    7.092559   8.287581   8.549493   7.568868   4.856753
    21  H    7.565524   8.490074   8.331289   7.095370   6.106967
    22  H    6.260464   6.869919   6.390031   5.045437   5.770170
    23  H    1.082313   2.152357   3.440011   3.860453   2.467418
    24  H    3.862687   3.378096   2.143281   1.084855   5.760813
    25  H    4.202555   2.899964   2.165010   3.248886   6.949360
    26  H    4.203760   2.901863   2.164986   3.246992   6.949914
    27  H    4.595711   3.455890   2.142795   2.598951   7.159478
                   16         17         18         19         20
    16  O    0.000000
    17  Br   6.922708   0.000000
    18  C    5.140330   3.216511   0.000000
    19  H    5.770420   7.806235   8.442392   0.000000
    20  H    6.106375   9.943636   9.996631   2.491979   0.000000
    21  H    4.854888  10.358907   9.611511   4.311117   2.497312
    22  H    2.465450   8.813578   7.503155   4.956048   4.311216
    23  H    5.765446   2.966066   4.720573   4.905109   7.177561
    24  H    2.457115   5.058250   2.723625   6.961344   7.981629
    25  H    5.857766   3.105126   1.095059   8.927995  10.564108
    26  H    5.854605   3.109493   1.095120   8.927542  10.562693
    27  H    4.787093   4.305193   1.091828   8.829738  10.153610
                   21         22         23         24         25
    21  H    0.000000
    22  H    2.491738   0.000000
    23  H    7.990939   6.967930   0.000000
    24  H    7.165690   4.892822   4.944736   0.000000
    25  H   10.257831   8.189220   4.971451   3.491396   0.000000
    26  H   10.255373   8.186241   4.973342   3.488375   1.756851
    27  H    9.496766   7.235925   5.565428   2.344897   1.772669
                   26         27
    26  H    0.000000
    27  H    1.772597   0.000000
 Symmetry turned off by external request.
 Stoichiometry    C15H9BrO2(1-,2)
 Framework group  C1[X(C15H9BrO2)]
 Deg. of freedom    75
 Full point group                 C1      NOp   1
 Rotational constants (GHZ):           0.8226476           0.1691576           0.1404281
 Leave Link  202 at Wed Dec 27 19:44:48 2023, MaxMem=  4026531840 cpu:               0.6 elap:               0.2
 (Enter /sysapps/ubuntu-applications/gaussian/Gaussian/AVX2/g16/l301.exe)
 Standard basis: 6-311++G(d,p) (5D, 7F)
 Ernie: Thresh=  0.10000D-02 Tol=  0.10000D-05 Strict=F.
   485 basis functions,   787 primitive gaussians,   505 cartesian basis functions
    76 alpha electrons       75 beta electrons
       nuclear repulsion energy      1517.1690365420 Hartrees.
 IExCor=  402 DFT=T Ex+Corr=B3LYP ExCW=0 ScaHFX=  0.200000
 ScaDFX=  0.800000  0.720000  1.000000  0.810000 ScalE2=  1.000000  1.000000
 IRadAn=      5 IRanWt=     -1 IRanGd=            0 ICorTp=0 IEmpDi=  4
 NAtoms=   27 NActive=   27 NUniq=   27 SFac= 1.00D+00 NAtFMM=   60 NAOKFM=F Big=F
 Integral buffers will be    131072 words long.
 Raffenetti 2 integral format.
 Two-electron integral symmetry is turned off.
 Leave Link  301 at Wed Dec 27 19:44:48 2023, MaxMem=  4026531840 cpu:               0.6 elap:               0.2
 (Enter /sysapps/ubuntu-applications/gaussian/Gaussian/AVX2/g16/l302.exe)
 NPDir=0 NMtPBC=     1 NCelOv=     1 NCel=       1 NClECP=     1 NCelD=      1
         NCelK=      1 NCelE2=     1 NClLst=     1 CellRange=     0.0.
 One-electron integrals computed using PRISM.
 NBasis=   485 RedAO= T EigKep=  1.36D-06  NBF=   485
 NBsUse=   478 1.00D-06 EigRej=  8.10D-07 NBFU=   478
 Precomputing XC quadrature grid using
 IXCGrd= 4 IRadAn=           5 IRanWt=          -1 IRanGd=           0 AccXCQ= 0.00D+00.
 Generated NRdTot=       0 NPtTot=           0 NUsed=           0 NTot=          32
 NSgBfM=   496   496   496   496   496 MxSgAt=    27 MxSgA2=    27.
 Leave Link  302 at Wed Dec 27 19:44:49 2023, MaxMem=  4026531840 cpu:               7.4 elap:               1.1
 (Enter /sysapps/ubuntu-applications/gaussian/Gaussian/AVX2/g16/l303.exe)
 DipDrv:  MaxL=1.
 Leave Link  303 at Wed Dec 27 19:44:50 2023, MaxMem=  4026531840 cpu:               1.2 elap:               0.3
 (Enter /sysapps/ubuntu-applications/gaussian/Gaussian/AVX2/g16/l401.exe)
 ExpMin= 3.50D-02 ExpMax= 4.40D+05 ExpMxC= 1.51D+04 IAcc=3 IRadAn=         5 AccDes= 0.00D+00
 Harris functional with IExCor=  402 and IRadAn=       5 diagonalized for initial guess.
 HarFok:  IExCor=  402 AccDes= 0.00D+00 IRadAn=         5 IDoV= 1 UseB2=F ITyADJ=14
 ICtDFT=  3500011 ScaDFX=  1.000000  1.000000  1.000000  1.000000
 FoFCou: FMM=F IPFlag=           0 FMFlag=      100000 FMFlg1=           0
         NFxFlg=           0 DoJE=T BraDBF=F KetDBF=T FulRan=T
         wScrn=  0.000000 ICntrl=       500 IOpCl=  0 I1Cent=   200000004 NGrid=           0
         NMat0=    1 NMatS0=      1 NMatT0=    0 NMatD0=    1 NMtDS0=    0 NMtDT0=    0
 Symmetry not used in FoFCou.
 Harris En= -3302.12820289078    
 JPrj=0 DoOrth=F DoCkMO=F.
 Initial guess <Sx>= 0.0000 <Sy>= 0.0000 <Sz>= 0.5000 <S**2>= 0.7500 S= 0.5000
 Leave Link  401 at Wed Dec 27 19:44:54 2023, MaxMem=  4026531840 cpu:              32.8 elap:               4.3
 (Enter /sysapps/ubuntu-applications/gaussian/Gaussian/AVX2/g16/l502.exe)
 Two-electron integral symmetry not used.
 UHF open shell SCF:
 Using DIIS extrapolation, IDIIS=  1040.
 NGot=  4026531840 LenX=  4026014216 LenY=  4025758686
 Requested convergence on RMS density matrix=1.00D-08 within 128 cycles.
 Requested convergence on MAX density matrix=1.00D-06.
 Requested convergence on             energy=1.00D-06.
 No special actions if energy rises.
 Fock matrices will be formed incrementally for  20 cycles.

 Cycle   1  Pass 1  IDiag  1:
 FoFJK:  IHMeth= 1 ICntrl=       0 DoSepK=F KAlg= 0 I1Cent=           0 FoldK=F
 IRaf= 840000000 NMat=       1 IRICut=       1 DoRegI=T DoRafI=F ISym2E= 0 IDoP0=0 IntGTp=1.
 FoFCou: FMM=F IPFlag=           0 FMFlag=      100000 FMFlg1=           0
         NFxFlg=           0 DoJE=F BraDBF=F KetDBF=F FulRan=T
         wScrn=  0.000000 ICntrl=         0 IOpCl=  1 I1Cent=           0 NGrid=           0
         NMat0=    1 NMatS0=      1 NMatT0=    0 NMatD0=    1 NMtDS0=    0 NMtDT0=    0
 Symmetry not used in FoFCou.
 E= -3301.40551124048    
 DIIS: error= 7.03D-02 at cycle   1 NSaved=   1.
 NSaved= 1 IEnMin= 1 EnMin= -3301.40551124048     IErMin= 1 ErrMin= 7.03D-02
 ErrMax= 7.03D-02  0.00D+00 EMaxC= 1.00D-01 BMatC= 6.81D+00 BMatP= 6.81D+00
 IDIUse=3 WtCom= 2.97D-01 WtEn= 7.03D-01
 Coeff-Com:  0.100D+01
 Coeff-En:   0.100D+01
 Coeff:      0.100D+01
 Gap=     0.073 Goal=   None    Shift=    0.000
 Gap=     0.236 Goal=   None    Shift=    0.000
 GapD=    0.073 DampG=0.500 DampE=0.500 DampFc=0.2500 IDamp=-1.
 Damping current iteration by 2.50D-01
 RMSDP=7.87D-01 MaxDP=1.60D+02              OVMax= 8.32D-01

 Cycle   2  Pass 1  IDiag  1:
 RMSU=  1.92D-01    CP:  1.76D+00
 E= -3301.50766569928     Delta-E=       -0.102154458806 Rises=F Damp=T
 DIIS: error= 5.26D-02 at cycle   2 NSaved=   2.
 NSaved= 2 IEnMin= 2 EnMin= -3301.50766569928     IErMin= 2 ErrMin= 5.26D-02
 ErrMax= 5.26D-02  0.00D+00 EMaxC= 1.00D-01 BMatC= 2.65D+00 BMatP= 6.81D+00
 IDIUse=3 WtCom= 4.74D-01 WtEn= 5.26D-01
 Coeff-Com: -0.930D+00 0.193D+01
 Coeff-En:   0.207D+00 0.793D+00
 Coeff:     -0.332D+00 0.133D+01
 Gap=     0.295 Goal=   None    Shift=    0.000
 Gap=    -0.144 Goal=   None    Shift=    0.000
 RMSDP=1.94D-01 MaxDP=3.99D+01 DE=-1.02D-01 OVMax= 7.89D-01

 Cycle   3  Pass 1  IDiag  1:
 RMSU=  1.46D-02    CP:  1.02D+00  1.49D-02
 E= -3301.64487733241     Delta-E=       -0.137211633129 Rises=F Damp=F
 DIIS: error= 4.00D-02 at cycle   3 NSaved=   3.
 NSaved= 3 IEnMin= 3 EnMin= -3301.64487733241     IErMin= 3 ErrMin= 4.00D-02
 ErrMax= 4.00D-02  0.00D+00 EMaxC= 1.00D-01 BMatC= 1.00D+00 BMatP= 2.65D+00
 IDIUse=3 WtCom= 6.00D-01 WtEn= 4.00D-01
 Coeff-Com: -0.540D+00 0.976D+00 0.564D+00
 Coeff-En:   0.000D+00 0.278D+00 0.722D+00
 Coeff:     -0.324D+00 0.697D+00 0.627D+00
 Gap=     0.087 Goal=   None    Shift=    0.000
 Gap=     0.190 Goal=   None    Shift=    0.000
 RMSDP=1.48D-02 MaxDP=1.44D+00 DE=-1.37D-01 OVMax= 3.61D-01

 Cycle   4  Pass 1  IDiag  1:
 RMSU=  1.06D-02    CP:  1.00D+00  1.01D-03  3.14D-01
 E= -3301.74440982760     Delta-E=       -0.099532495186 Rises=F Damp=F
 DIIS: error= 2.94D-02 at cycle   4 NSaved=   4.
 NSaved= 4 IEnMin= 4 EnMin= -3301.74440982760     IErMin= 4 ErrMin= 2.94D-02
 ErrMax= 2.94D-02  0.00D+00 EMaxC= 1.00D-01 BMatC= 6.24D-01 BMatP= 1.00D+00
 IDIUse=3 WtCom= 7.06D-01 WtEn= 2.94D-01
 Coeff-Com: -0.157D+00 0.278D+00 0.435D+00 0.444D+00
 Coeff-En:   0.000D+00 0.000D+00 0.400D+00 0.600D+00
 Coeff:     -0.111D+00 0.196D+00 0.424D+00 0.490D+00
 Gap=     0.078 Goal=   None    Shift=    0.000
 Gap=     0.167 Goal=   None    Shift=    0.000
 RMSDP=7.72D-03 MaxDP=6.97D-01 DE=-9.95D-02 OVMax= 2.33D-01

 Cycle   5  Pass 1  IDiag  1:
 RMSU=  5.17D-03    CP:  9.40D-01  1.98D-03  4.10D-01  5.92D-01
 E= -3301.88200106594     Delta-E=       -0.137591238339 Rises=F Damp=F
 DIIS: error= 6.78D-03 at cycle   5 NSaved=   5.
 NSaved= 5 IEnMin= 5 EnMin= -3301.88200106594     IErMin= 5 ErrMin= 6.78D-03
 ErrMax= 6.78D-03  0.00D+00 EMaxC= 1.00D-01 BMatC= 4.91D-02 BMatP= 6.24D-01
 IDIUse=3 WtCom= 9.32D-01 WtEn= 6.78D-02
 Coeff-Com: -0.375D-01 0.684D-01 0.193D+00 0.290D+00 0.486D+00
 Coeff-En:   0.000D+00 0.000D+00 0.000D+00 0.536D-01 0.946D+00
 Coeff:     -0.349D-01 0.637D-01 0.180D+00 0.274D+00 0.517D+00
 Gap=     0.077 Goal=   None    Shift=    0.000
 Gap=     0.156 Goal=   None    Shift=    0.000
 RMSDP=2.35D-03 MaxDP=1.32D-01 DE=-1.38D-01 OVMax= 9.14D-02

 Cycle   6  Pass 1  IDiag  1:
 RMSU=  1.54D-03    CP:  9.37D-01  2.84D-03  4.59D-01  6.50D-01  7.11D-01
 E= -3301.89148168896     Delta-E=       -0.009480623026 Rises=F Damp=F
 DIIS: error= 6.15D-03 at cycle   6 NSaved=   6.
 NSaved= 6 IEnMin= 6 EnMin= -3301.89148168896     IErMin= 6 ErrMin= 6.15D-03
 ErrMax= 6.15D-03  0.00D+00 EMaxC= 1.00D-01 BMatC= 1.41D-02 BMatP= 4.91D-02
 IDIUse=3 WtCom= 9.38D-01 WtEn= 6.15D-02
 Coeff-Com: -0.915D-02 0.144D-01 0.487D-01 0.101D+00 0.369D+00 0.476D+00
 Coeff-En:   0.000D+00 0.000D+00 0.000D+00 0.000D+00 0.237D+00 0.763D+00
 Coeff:     -0.859D-02 0.135D-01 0.457D-01 0.951D-01 0.361D+00 0.493D+00
 Gap=     0.079 Goal=   None    Shift=    0.000
 Gap=     0.148 Goal=   None    Shift=    0.000
 RMSDP=1.00D-03 MaxDP=7.55D-02 DE=-9.48D-03 OVMax= 4.97D-02

 Cycle   7  Pass 1  IDiag  1:
 RMSU=  8.13D-04    CP:  9.40D-01  3.05D-03  4.69D-01  6.48D-01  7.86D-01
                    CP:  7.47D-01
 E= -3301.89451422340     Delta-E=       -0.003032534432 Rises=F Damp=F
 DIIS: error= 1.92D-03 at cycle   7 NSaved=   7.
 NSaved= 7 IEnMin= 7 EnMin= -3301.89451422340     IErMin= 7 ErrMin= 1.92D-03
 ErrMax= 1.92D-03  0.00D+00 EMaxC= 1.00D-01 BMatC= 1.76D-03 BMatP= 1.41D-02
 IDIUse=3 WtCom= 9.81D-01 WtEn= 1.92D-02
 Coeff-Com: -0.207D-02 0.178D-02 0.137D-02 0.816D-02 0.129D+00 0.314D+00
 Coeff-Com:  0.548D+00
 Coeff-En:   0.000D+00 0.000D+00 0.000D+00 0.000D+00 0.000D+00 0.102D+00
 Coeff-En:   0.898D+00
 Coeff:     -0.203D-02 0.175D-02 0.135D-02 0.800D-02 0.126D+00 0.310D+00
 Coeff:      0.555D+00
 Gap=     0.080 Goal=   None    Shift=    0.000
 Gap=     0.146 Goal=   None    Shift=    0.000
 RMSDP=3.93D-04 MaxDP=3.28D-02 DE=-3.03D-03 OVMax= 1.25D-02

 Cycle   8  Pass 1  IDiag  1:
 RMSU=  2.25D-04    CP:  9.36D-01  2.98D-03  4.73D-01  6.38D-01  7.80D-01
                    CP:  8.09D-01  7.29D-01
 E= -3301.89493389034     Delta-E=       -0.000419666942 Rises=F Damp=F
 DIIS: error= 5.60D-04 at cycle   8 NSaved=   8.
 NSaved= 8 IEnMin= 8 EnMin= -3301.89493389034     IErMin= 8 ErrMin= 5.60D-04
 ErrMax= 5.60D-04  0.00D+00 EMaxC= 1.00D-01 BMatC= 2.57D-04 BMatP= 1.76D-03
 IDIUse=3 WtCom= 9.94D-01 WtEn= 5.60D-03
 Coeff-Com: -0.816D-03 0.819D-03-0.456D-02-0.785D-02 0.346D-01 0.133D+00
 Coeff-Com:  0.338D+00 0.506D+00
 Coeff-En:   0.000D+00 0.000D+00 0.000D+00 0.000D+00 0.000D+00 0.000D+00
 Coeff-En:   0.897D-02 0.991D+00
 Coeff:     -0.811D-03 0.815D-03-0.454D-02-0.780D-02 0.344D-01 0.132D+00
 Coeff:      0.336D+00 0.509D+00
 Gap=     0.081 Goal=   None    Shift=    0.000
 Gap=     0.146 Goal=   None    Shift=    0.000
 RMSDP=1.32D-04 MaxDP=1.30D-02 DE=-4.20D-04 OVMax= 6.58D-03

 Cycle   9  Pass 1  IDiag  1:
 RMSU=  9.34D-05    CP:  9.36D-01  3.08D-03  4.73D-01  6.32D-01  7.86D-01
                    CP:  8.01D-01  7.52D-01  7.98D-01
 E= -3301.89499838827     Delta-E=       -0.000064497937 Rises=F Damp=F
 DIIS: error= 1.94D-04 at cycle   9 NSaved=   9.
 NSaved= 9 IEnMin= 9 EnMin= -3301.89499838827     IErMin= 9 ErrMin= 1.94D-04
 ErrMax= 1.94D-04  0.00D+00 EMaxC= 1.00D-01 BMatC= 3.71D-05 BMatP= 2.57D-04
 IDIUse=3 WtCom= 9.98D-01 WtEn= 1.94D-03
 Coeff-Com: -0.854D-04 0.192D-03-0.328D-02-0.647D-02-0.245D-02 0.181D-01
 Coeff-Com:  0.744D-01 0.261D+00 0.658D+00
 Coeff-En:   0.000D+00 0.000D+00 0.000D+00 0.000D+00 0.000D+00 0.000D+00
 Coeff-En:   0.000D+00 0.000D+00 0.100D+01
 Coeff:     -0.852D-04 0.191D-03-0.328D-02-0.646D-02-0.244D-02 0.181D-01
 Coeff:      0.743D-01 0.261D+00 0.659D+00
 Gap=     0.081 Goal=   None    Shift=    0.000
 Gap=     0.146 Goal=   None    Shift=    0.000
 RMSDP=6.62D-05 MaxDP=4.49D-03 DE=-6.45D-05 OVMax= 1.88D-03

 Cycle  10  Pass 1  IDiag  1:
 RMSU=  4.04D-05    CP:  9.36D-01  3.07D-03  4.75D-01  6.32D-01  7.86D-01
                    CP:  8.17D-01  7.61D-01  9.55D-01  9.11D-01
 E= -3301.89501213028     Delta-E=       -0.000013742006 Rises=F Damp=F
 DIIS: error= 1.61D-04 at cycle  10 NSaved=  10.
 NSaved=10 IEnMin=10 EnMin= -3301.89501213028     IErMin=10 ErrMin= 1.61D-04
 ErrMax= 1.61D-04  0.00D+00 EMaxC= 1.00D-01 BMatC= 1.86D-05 BMatP= 3.71D-05
 IDIUse=3 WtCom= 9.98D-01 WtEn= 1.61D-03
 Coeff-Com:  0.926D-03-0.122D-02 0.703D-03-0.141D-03-0.199D-01-0.542D-01
 Coeff-Com: -0.114D+00-0.523D-01 0.484D+00 0.757D+00
 Coeff-En:   0.000D+00 0.000D+00 0.000D+00 0.000D+00 0.000D+00 0.000D+00
 Coeff-En:   0.000D+00 0.000D+00 0.000D+00 0.100D+01
 Coeff:      0.924D-03-0.122D-02 0.702D-03-0.141D-03-0.199D-01-0.541D-01
 Coeff:     -0.114D+00-0.522D-01 0.483D+00 0.757D+00
 Gap=     0.081 Goal=   None    Shift=    0.000
 Gap=     0.146 Goal=   None    Shift=    0.000
 RMSDP=6.61D-05 MaxDP=5.78D-03 DE=-1.37D-05 OVMax= 2.12D-03

 Cycle  11  Pass 1  IDiag  1:
 RMSU=  3.01D-05    CP:  9.35D-01  3.09D-03  4.74D-01  6.30D-01  7.85D-01
                    CP:  8.17D-01  7.62D-01  1.01D+00  1.29D+00  1.28D+00
 E= -3301.89501952340     Delta-E=       -0.000007393121 Rises=F Damp=F
 DIIS: error= 8.10D-05 at cycle  11 NSaved=  11.
 NSaved=11 IEnMin=11 EnMin= -3301.89501952340     IErMin=11 ErrMin= 8.10D-05
 ErrMax= 8.10D-05  0.00D+00 EMaxC= 1.00D-01 BMatC= 3.38D-06 BMatP= 1.86D-05
 IDIUse=1 WtCom= 1.00D+00 WtEn= 0.00D+00
 Coeff-Com:  0.468D-03-0.582D-03 0.107D-02 0.521D-03-0.112D-01-0.323D-01
 Coeff-Com: -0.726D-01-0.592D-01 0.155D+00 0.429D+00 0.590D+00
 Coeff:      0.468D-03-0.582D-03 0.107D-02 0.521D-03-0.112D-01-0.323D-01
 Coeff:     -0.726D-01-0.592D-01 0.155D+00 0.429D+00 0.590D+00
 Gap=     0.081 Goal=   None    Shift=    0.000
 Gap=     0.146 Goal=   None    Shift=    0.000
 RMSDP=2.35D-05 MaxDP=1.88D-03 DE=-7.39D-06 OVMax= 6.26D-04

 Cycle  12  Pass 1  IDiag  1:
 RMSU=  1.11D-05    CP:  9.36D-01  3.11D-03  4.74D-01  6.29D-01  7.84D-01
                    CP:  8.20D-01  7.64D-01  1.02D+00  1.38D+00  1.50D+00
                    CP:  8.40D-01
 E= -3301.89502064739     Delta-E=       -0.000001123987 Rises=F Damp=F
 DIIS: error= 3.17D-05 at cycle  12 NSaved=  12.
 NSaved=12 IEnMin=12 EnMin= -3301.89502064739     IErMin=12 ErrMin= 3.17D-05
 ErrMax= 3.17D-05  0.00D+00 EMaxC= 1.00D-01 BMatC= 9.39D-07 BMatP= 3.38D-06
 IDIUse=1 WtCom= 1.00D+00 WtEn= 0.00D+00
 Coeff-Com:  0.170D-03-0.201D-03 0.628D-03 0.337D-03-0.143D-02-0.498D-02
 Coeff-Com: -0.134D-01-0.195D-01-0.479D-01 0.488D-01 0.377D+00 0.660D+00
 Coeff:      0.170D-03-0.201D-03 0.628D-03 0.337D-03-0.143D-02-0.498D-02
 Coeff:     -0.134D-01-0.195D-01-0.479D-01 0.488D-01 0.377D+00 0.660D+00
 Gap=     0.081 Goal=   None    Shift=    0.000
 Gap=     0.146 Goal=   None    Shift=    0.000
 RMSDP=1.38D-05 MaxDP=1.19D-03 DE=-1.12D-06 OVMax= 3.56D-04

 Cycle  13  Pass 1  IDiag  1:
 RMSU=  5.72D-06    CP:  9.35D-01  3.11D-03  4.75D-01  6.28D-01  7.84D-01
                    CP:  8.19D-01  7.64D-01  1.06D+00  1.39D+00  1.58D+00
                    CP:  9.91D-01  1.02D+00
 E= -3301.89502093216     Delta-E=       -0.000000284772 Rises=F Damp=F
 DIIS: error= 8.74D-06 at cycle  13 NSaved=  13.
 NSaved=13 IEnMin=13 EnMin= -3301.89502093216     IErMin=13 ErrMin= 8.74D-06
 ErrMax= 8.74D-06  0.00D+00 EMaxC= 1.00D-01 BMatC= 1.07D-07 BMatP= 9.39D-07
 IDIUse=1 WtCom= 1.00D+00 WtEn= 0.00D+00
 Coeff-Com:  0.838D-04-0.103D-03 0.208D-03 0.133D-03 0.659D-03 0.118D-02
 Coeff-Com:  0.122D-02-0.507D-02-0.393D-01-0.237D-01 0.133D+00 0.346D+00
 Coeff-Com:  0.586D+00
 Coeff:      0.838D-04-0.103D-03 0.208D-03 0.133D-03 0.659D-03 0.118D-02
 Coeff:      0.122D-02-0.507D-02-0.393D-01-0.237D-01 0.133D+00 0.346D+00
 Coeff:      0.586D+00
 Gap=     0.081 Goal=   None    Shift=    0.000
 Gap=     0.146 Goal=   None    Shift=    0.000
 RMSDP=2.69D-06 MaxDP=2.03D-04 DE=-2.85D-07 OVMax= 7.65D-05

 Cycle  14  Pass 1  IDiag  1:
 RMSU=  1.90D-06    CP:  9.35D-01  3.11D-03  4.75D-01  6.28D-01  7.84D-01
                    CP:  8.19D-01  7.64D-01  1.06D+00  1.39D+00  1.60D+00
                    CP:  1.02D+00  1.11D+00  9.53D-01
 E= -3301.89502096007     Delta-E=       -0.000000027906 Rises=F Damp=F
 DIIS: error= 4.34D-06 at cycle  14 NSaved=  14.
 NSaved=14 IEnMin=14 EnMin= -3301.89502096007     IErMin=14 ErrMin= 4.34D-06
 ErrMax= 4.34D-06  0.00D+00 EMaxC= 1.00D-01 BMatC= 2.36D-08 BMatP= 1.07D-07
 IDIUse=1 WtCom= 1.00D+00 WtEn= 0.00D+00
 Coeff-Com:  0.210D-04-0.340D-04-0.614D-04-0.224D-04 0.828D-03 0.219D-02
 Coeff-Com:  0.492D-02 0.225D-02-0.663D-02-0.310D-01-0.298D-01 0.125D-01
 Coeff-Com:  0.332D+00 0.712D+00
 Coeff:      0.210D-04-0.340D-04-0.614D-04-0.224D-04 0.828D-03 0.219D-02
 Coeff:      0.492D-02 0.225D-02-0.663D-02-0.310D-01-0.298D-01 0.125D-01
 Coeff:      0.332D+00 0.712D+00
 Gap=     0.081 Goal=   None    Shift=    0.000
 Gap=     0.146 Goal=   None    Shift=    0.000
 RMSDP=2.05D-06 MaxDP=2.11D-04 DE=-2.79D-08 OVMax= 4.62D-05

 Cycle  15  Pass 1  IDiag  1:
 RMSU=  1.14D-06    CP:  9.35D-01  3.11D-03  4.75D-01  6.28D-01  7.84D-01
                    CP:  8.19D-01  7.64D-01  1.05D+00  1.40D+00  1.61D+00
                    CP:  1.04D+00  1.14D+00  9.52D-01  1.04D+00
 E= -3301.89502096723     Delta-E=       -0.000000007164 Rises=F Damp=F
 DIIS: error= 1.51D-06 at cycle  15 NSaved=  15.
 NSaved=15 IEnMin=15 EnMin= -3301.89502096723     IErMin=15 ErrMin= 1.51D-06
 ErrMax= 1.51D-06  0.00D+00 EMaxC= 1.00D-01 BMatC= 2.10D-09 BMatP= 2.36D-08
 IDIUse=1 WtCom= 1.00D+00 WtEn= 0.00D+00
 Coeff-Com: -0.892D-06-0.170D-05-0.403D-04-0.218D-04 0.325D-03 0.885D-03
 Coeff-Com:  0.218D-02 0.150D-02 0.576D-03-0.125D-01-0.245D-01-0.237D-01
 Coeff-Com:  0.976D-01 0.321D+00 0.637D+00
 Coeff:     -0.892D-06-0.170D-05-0.403D-04-0.218D-04 0.325D-03 0.885D-03
 Coeff:      0.218D-02 0.150D-02 0.576D-03-0.125D-01-0.245D-01-0.237D-01
 Coeff:      0.976D-01 0.321D+00 0.637D+00
 Gap=     0.081 Goal=   None    Shift=    0.000
 Gap=     0.146 Goal=   None    Shift=    0.000
 RMSDP=7.82D-07 MaxDP=9.58D-05 DE=-7.16D-09 OVMax= 2.05D-05

 Cycle  16  Pass 1  IDiag  1:
 RMSU=  5.28D-07    CP:  9.35D-01  3.11D-03  4.75D-01  6.28D-01  7.84D-01
                    CP:  8.19D-01  7.64D-01  1.05D+00  1.40D+00  1.61D+00
                    CP:  1.04D+00  1.15D+00  9.94D-01  1.04D+00  8.01D-01
 E= -3301.89502096786     Delta-E=       -0.000000000633 Rises=F Damp=F
 DIIS: error= 8.31D-07 at cycle  16 NSaved=  16.
 NSaved=16 IEnMin=16 EnMin= -3301.89502096786     IErMin=16 ErrMin= 8.31D-07
 ErrMax= 8.31D-07  0.00D+00 EMaxC= 1.00D-01 BMatC= 7.70D-10 BMatP= 2.10D-09
 IDIUse=1 WtCom= 1.00D+00 WtEn= 0.00D+00
 Coeff-Com: -0.480D-05 0.585D-05-0.109D-04-0.788D-05-0.349D-05-0.240D-04
 Coeff-Com:  0.560D-04 0.307D-03 0.208D-02 0.688D-03-0.714D-02-0.181D-01
 Coeff-Com: -0.296D-01 0.595D-02 0.401D+00 0.645D+00
 Coeff:     -0.480D-05 0.585D-05-0.109D-04-0.788D-05-0.349D-05-0.240D-04
 Coeff:      0.560D-04 0.307D-03 0.208D-02 0.688D-03-0.714D-02-0.181D-01
 Coeff:     -0.296D-01 0.595D-02 0.401D+00 0.645D+00
 Gap=     0.081 Goal=   None    Shift=    0.000
 Gap=     0.146 Goal=   None    Shift=    0.000
 RMSDP=2.75D-07 MaxDP=2.16D-05 DE=-6.33D-10 OVMax= 1.31D-05

 Cycle  17  Pass 1  IDiag  1:
 RMSU=  1.54D-07    CP:  9.35D-01  3.11D-03  4.75D-01  6.28D-01  7.84D-01
                    CP:  8.19D-01  7.64D-01  1.05D+00  1.40D+00  1.61D+00
                    CP:  1.04D+00  1.15D+00  9.96D-01  1.07D+00  9.12D-01
                    CP:  8.46D-01
 E= -3301.89502096816     Delta-E=       -0.000000000296 Rises=F Damp=F
 DIIS: error= 4.36D-07 at cycle  17 NSaved=  17.
 NSaved=17 IEnMin=17 EnMin= -3301.89502096816     IErMin=17 ErrMin= 4.36D-07
 ErrMax= 4.36D-07  0.00D+00 EMaxC= 1.00D-01 BMatC= 9.59D-11 BMatP= 7.70D-10
 IDIUse=1 WtCom= 1.00D+00 WtEn= 0.00D+00
 Coeff-Com: -0.208D-05 0.296D-05 0.610D-06 0.855D-06-0.530D-04-0.158D-03
 Coeff-Com: -0.343D-03-0.133D-03 0.699D-03 0.245D-02 0.802D-03-0.383D-02
 Coeff-Com: -0.294D-01-0.501D-01 0.776D-01 0.280D+00 0.723D+00
 Coeff:     -0.208D-05 0.296D-05 0.610D-06 0.855D-06-0.530D-04-0.158D-03
 Coeff:     -0.343D-03-0.133D-03 0.699D-03 0.245D-02 0.802D-03-0.383D-02
 Coeff:     -0.294D-01-0.501D-01 0.776D-01 0.280D+00 0.723D+00
 Gap=     0.081 Goal=   None    Shift=    0.000
 Gap=     0.146 Goal=   None    Shift=    0.000
 RMSDP=1.18D-07 MaxDP=8.81D-06 DE=-2.96D-10 OVMax= 5.82D-06

 Cycle  18  Pass 1  IDiag  1:
 RMSU=  7.35D-08    CP:  9.35D-01  3.11D-03  4.75D-01  6.28D-01  7.84D-01
                    CP:  8.19D-01  7.64D-01  1.05D+00  1.40D+00  1.61D+00
                    CP:  1.04D+00  1.15D+00  9.94D-01  1.08D+00  9.45D-01
                    CP:  9.04D-01  9.14D-01
 E= -3301.89502096824     Delta-E=       -0.000000000079 Rises=F Damp=F
 DIIS: error= 1.52D-07 at cycle  18 NSaved=  18.
 NSaved=18 IEnMin=18 EnMin= -3301.89502096824     IErMin=18 ErrMin= 1.52D-07
 ErrMax= 1.52D-07  0.00D+00 EMaxC= 1.00D-01 BMatC= 2.41D-11 BMatP= 9.59D-11
 IDIUse=1 WtCom= 1.00D+00 WtEn= 0.00D+00
 Coeff-Com: -0.742D-06 0.131D-05 0.337D-05 0.202D-05-0.257D-04-0.653D-04
 Coeff-Com: -0.146D-03-0.106D-03-0.291D-03 0.825D-03 0.246D-02 0.394D-02
 Coeff-Com: -0.546D-02-0.252D-01-0.779D-01-0.587D-01 0.295D+00 0.866D+00
 Coeff:     -0.742D-06 0.131D-05 0.337D-05 0.202D-05-0.257D-04-0.653D-04
 Coeff:     -0.146D-03-0.106D-03-0.291D-03 0.825D-03 0.246D-02 0.394D-02
 Coeff:     -0.546D-02-0.252D-01-0.779D-01-0.587D-01 0.295D+00 0.866D+00
 Gap=     0.081 Goal=   None    Shift=    0.000
 Gap=     0.146 Goal=   None    Shift=    0.000
 RMSDP=8.26D-08 MaxDP=9.39D-06 DE=-7.91D-11 OVMax= 5.39D-06

 Cycle  19  Pass 1  IDiag  1:
 RMSU=  4.96D-08    CP:  9.35D-01  3.11D-03  4.75D-01  6.28D-01  7.84D-01
                    CP:  8.19D-01  7.64D-01  1.05D+00  1.40D+00  1.61D+00
                    CP:  1.04D+00  1.15D+00  9.91D-01  1.08D+00  9.65D-01
                    CP:  9.09D-01  1.03D+00  1.12D+00
 E= -3301.89502096825     Delta-E=       -0.000000000015 Rises=F Damp=F
 DIIS: error= 1.21D-07 at cycle  19 NSaved=  19.
 NSaved=19 IEnMin=19 EnMin= -3301.89502096825     IErMin=19 ErrMin= 1.21D-07
 ErrMax= 1.21D-07  0.00D+00 EMaxC= 1.00D-01 BMatC= 1.28D-11 BMatP= 2.41D-11
 IDIUse=1 WtCom= 1.00D+00 WtEn= 0.00D+00
 Coeff-Com: -0.632D-07 0.255D-06 0.230D-05 0.147D-05-0.492D-05-0.878D-05
 Coeff-Com: -0.191D-04-0.438D-04-0.344D-03-0.591D-04 0.149D-02 0.340D-02
 Coeff-Com:  0.290D-02-0.532D-02-0.682D-01-0.100D+00 0.206D-02 0.576D+00
 Coeff-Com:  0.589D+00
 Coeff:     -0.632D-07 0.255D-06 0.230D-05 0.147D-05-0.492D-05-0.878D-05
 Coeff:     -0.191D-04-0.438D-04-0.344D-03-0.591D-04 0.149D-02 0.340D-02
 Coeff:      0.290D-02-0.532D-02-0.682D-01-0.100D+00 0.206D-02 0.576D+00
 Coeff:      0.589D+00
 Gap=     0.081 Goal=   None    Shift=    0.000
 Gap=     0.146 Goal=   None    Shift=    0.000
 RMSDP=4.36D-08 MaxDP=2.94D-06 DE=-1.55D-11 OVMax= 2.17D-06

 Cycle  20  Pass 1  IDiag  1:
 RMSU=  2.48D-08    CP:  9.35D-01  3.11D-03  4.75D-01  6.28D-01  7.84D-01
                    CP:  8.19D-01  7.64D-01  1.05D+00  1.40D+00  1.61D+00
                    CP:  1.04D+00  1.15D+00  9.91D-01  1.09D+00  9.63D-01
                    CP:  9.29D-01  1.11D+00  1.26D+00  8.58D-01
 E= -3301.89502096824     Delta-E=        0.000000000015 Rises=F Damp=F
 DIIS: error= 6.01D-08 at cycle  20 NSaved=  20.
 NSaved=20 IEnMin=19 EnMin= -3301.89502096825     IErMin=20 ErrMin= 6.01D-08
 ErrMax= 6.01D-08  0.00D+00 EMaxC= 1.00D-01 BMatC= 2.35D-12 BMatP= 1.28D-11
 IDIUse=1 WtCom= 1.00D+00 WtEn= 0.00D+00
 Coeff-Com:  0.428D-06-0.588D-06 0.506D-07 0.165D-06 0.852D-05 0.212D-04
 Coeff-Com:  0.477D-04 0.474D-05-0.123D-03-0.397D-03 0.807D-04 0.682D-03
 Coeff-Com:  0.419D-02 0.645D-02-0.156D-01-0.400D-01-0.104D+00 0.826D-01
 Coeff-Com:  0.327D+00 0.738D+00
 Coeff:      0.428D-06-0.588D-06 0.506D-07 0.165D-06 0.852D-05 0.212D-04
 Coeff:      0.477D-04 0.474D-05-0.123D-03-0.397D-03 0.807D-04 0.682D-03
 Coeff:      0.419D-02 0.645D-02-0.156D-01-0.400D-01-0.104D+00 0.826D-01
 Coeff:      0.327D+00 0.738D+00
 Gap=     0.081 Goal=   None    Shift=    0.000
 Gap=     0.146 Goal=   None    Shift=    0.000
 RMSDP=2.03D-08 MaxDP=1.67D-06 DE= 1.46D-11 OVMax= 1.20D-06

 Cycle  21  Pass 1  IDiag  1:
 Restarting incremental Fock formation.
 E= -3301.89502096822     Delta-E=        0.000000000023 Rises=F Damp=F
 DIIS: error= 1.75D-08 at cycle  21 NSaved=  20.
 NSaved=20 IEnMin=18 EnMin= -3301.89502096825     IErMin=20 ErrMin= 1.75D-08
 ErrMax= 1.75D-08  0.00D+00 EMaxC= 1.00D-01 BMatC= 3.73D-13 BMatP= 2.35D-12
 IDIUse=1 WtCom= 1.00D+00 WtEn= 0.00D+00
 Coeff-Com:  0.168D-07-0.210D-06-0.120D-06 0.410D-05 0.876D-05 0.206D-04
 Coeff-Com:  0.120D-04 0.359D-04-0.119D-03-0.287D-03-0.569D-03 0.630D-03
 Coeff-Com:  0.271D-02 0.603D-02 0.504D-02-0.365D-01-0.656D-01 0.999D-02
 Coeff-Com:  0.275D+00 0.804D+00
 Coeff:      0.168D-07-0.210D-06-0.120D-06 0.410D-05 0.876D-05 0.206D-04
 Coeff:      0.120D-04 0.359D-04-0.119D-03-0.287D-03-0.569D-03 0.630D-03
 Coeff:      0.271D-02 0.603D-02 0.504D-02-0.365D-01-0.656D-01 0.999D-02
 Coeff:      0.275D+00 0.804D+00
 Gap=     0.081 Goal=   None    Shift=    0.000
 Gap=     0.146 Goal=   None    Shift=    0.000
 RMSDP=9.52D-09 MaxDP=6.54D-07 DE= 2.27D-11 OVMax= 3.65D-07

 SCF Done:  E(UB3LYP) =  -3301.89502097     A.U. after   21 cycles
            NFock= 21  Conv=0.95D-08     -V/T= 2.0019
 <Sx>= 0.0000 <Sy>= 0.0000 <Sz>= 0.5000 <S**2>= 0.7605 S= 0.5053
 <L.S>=  0.00000000000    
 KE= 3.295771509552D+03 PE=-1.090235024377D+04 EE= 2.787514676707D+03
 Annihilation of the first spin contaminant:
 S**2 before annihilation     0.7605,   after     0.7500
 Leave Link  502 at Wed Dec 27 19:52:35 2023, MaxMem=  4026531840 cpu:            3637.8 elap:             461.2
 (Enter /sysapps/ubuntu-applications/gaussian/Gaussian/AVX2/g16/l601.exe)
 Copying SCF densities to generalized density rwf, IOpCl= 1 IROHF=0.

 **********************************************************************

            Population analysis using the SCF density.

 **********************************************************************

 Alpha  occ. eigenvalues -- -482.72686 -62.37976 -56.19987 -56.19638 -56.19623
 Alpha  occ. eigenvalues --  -18.95354 -18.95295 -10.11961 -10.10395 -10.10300
 Alpha  occ. eigenvalues --  -10.08555 -10.07633 -10.06768 -10.06422 -10.06374
 Alpha  occ. eigenvalues --  -10.06229 -10.06072 -10.05866 -10.05738 -10.05726
 Alpha  occ. eigenvalues --  -10.05682 -10.05643  -8.58942  -6.42005  -6.40837
 Alpha  occ. eigenvalues --   -6.40804  -2.53112  -2.52780  -2.52757  -2.51828
 Alpha  occ. eigenvalues --   -2.51827  -0.88068  -0.87773  -0.76545  -0.74223
 Alpha  occ. eigenvalues --   -0.70134  -0.67897  -0.65120  -0.63670  -0.62282
 Alpha  occ. eigenvalues --   -0.59398  -0.54600  -0.52085  -0.49544  -0.48184
 Alpha  occ. eigenvalues --   -0.44308  -0.41376  -0.40837  -0.36990  -0.35325
 Alpha  occ. eigenvalues --   -0.34326  -0.33610  -0.33147  -0.31935  -0.31039
 Alpha  occ. eigenvalues --   -0.30662  -0.30185  -0.28903  -0.28807  -0.28343
 Alpha  occ. eigenvalues --   -0.26610  -0.25996  -0.25632  -0.24079  -0.23511
 Alpha  occ. eigenvalues --   -0.23312  -0.22026  -0.20018  -0.19193  -0.14828
 Alpha  occ. eigenvalues --   -0.14488  -0.14034  -0.13210  -0.12322  -0.11458
 Alpha  occ. eigenvalues --   -0.02241
 Alpha virt. eigenvalues --    0.05891   0.07142   0.07977   0.08355   0.08737
 Alpha virt. eigenvalues --    0.09950   0.10438   0.10590   0.11190   0.11521
 Alpha virt. eigenvalues --    0.12149   0.12708   0.13600   0.13956   0.14583
 Alpha virt. eigenvalues --    0.15135   0.15396   0.16371   0.16400   0.16694
 Alpha virt. eigenvalues --    0.16990   0.17396   0.18154   0.18633   0.18808
 Alpha virt. eigenvalues --    0.19188   0.19372   0.19792   0.20130   0.20522
 Alpha virt. eigenvalues --    0.21040   0.21271   0.21956   0.22219   0.22295
 Alpha virt. eigenvalues --    0.22697   0.22961   0.23028   0.23673   0.24310
 Alpha virt. eigenvalues --    0.24484   0.25116   0.25315   0.25618   0.26045
 Alpha virt. eigenvalues --    0.26384   0.27225   0.27679   0.27977   0.28340
 Alpha virt. eigenvalues --    0.29220   0.29390   0.29982   0.30203   0.30549
 Alpha virt. eigenvalues --    0.30837   0.31622   0.32258   0.32350   0.32511
 Alpha virt. eigenvalues --    0.32746   0.33005   0.33960   0.34158   0.34516
 Alpha virt. eigenvalues --    0.35123   0.35657   0.36059   0.36298   0.36663
 Alpha virt. eigenvalues --    0.36797   0.37431   0.37841   0.38389   0.38939
 Alpha virt. eigenvalues --    0.39518   0.39941   0.40407   0.40659   0.41260
 Alpha virt. eigenvalues --    0.41666   0.42388   0.42792   0.42864   0.43552
 Alpha virt. eigenvalues --    0.43846   0.44494   0.45116   0.46000   0.46374
 Alpha virt. eigenvalues --    0.46557   0.47057   0.47134   0.47372   0.49092
 Alpha virt. eigenvalues --    0.49553   0.50255   0.51921   0.52482   0.52739
 Alpha virt. eigenvalues --    0.52852   0.54469   0.54477   0.55525   0.56251
 Alpha virt. eigenvalues --    0.57079   0.58011   0.61036   0.61229   0.61950
 Alpha virt. eigenvalues --    0.63371   0.63875   0.65034   0.65715   0.66766
 Alpha virt. eigenvalues --    0.67570   0.67861   0.67996   0.68698   0.68902
 Alpha virt. eigenvalues --    0.69006   0.70055   0.70255   0.70557   0.71791
 Alpha virt. eigenvalues --    0.72945   0.73734   0.74393   0.75089   0.75320
 Alpha virt. eigenvalues --    0.76191   0.76435   0.77327   0.77821   0.77882
 Alpha virt. eigenvalues --    0.78441   0.78596   0.79041   0.80204   0.80318
 Alpha virt. eigenvalues --    0.80504   0.81350   0.84077   0.84470   0.84560
 Alpha virt. eigenvalues --    0.85596   0.86530   0.87192   0.88881   0.88909
 Alpha virt. eigenvalues --    0.89295   0.89724   0.91073   0.91423   0.92293
 Alpha virt. eigenvalues --    0.93681   0.94224   0.95823   0.97435   0.98252
 Alpha virt. eigenvalues --    1.00197   1.01467   1.02107   1.03278   1.04952
 Alpha virt. eigenvalues --    1.05162   1.05809   1.05884   1.06162   1.07093
 Alpha virt. eigenvalues --    1.07753   1.08712   1.09687   1.10965   1.11161
 Alpha virt. eigenvalues --    1.11944   1.12403   1.13482   1.14663   1.15696
 Alpha virt. eigenvalues --    1.16196   1.16515   1.18422   1.19080   1.20308
 Alpha virt. eigenvalues --    1.21606   1.22717   1.23556   1.23875   1.25452
 Alpha virt. eigenvalues --    1.29036   1.29789   1.30965   1.33000   1.34794
 Alpha virt. eigenvalues --    1.36114   1.36265   1.38157   1.38532   1.39897
 Alpha virt. eigenvalues --    1.42809   1.44650   1.45672   1.47628   1.48010
 Alpha virt. eigenvalues --    1.48293   1.50028   1.54970   1.55054   1.58367
 Alpha virt. eigenvalues --    1.59558   1.60731   1.60787   1.62156   1.63469
 Alpha virt. eigenvalues --    1.64296   1.64510   1.65115   1.65887   1.66722
 Alpha virt. eigenvalues --    1.67927   1.68543   1.70364   1.71638   1.74082
 Alpha virt. eigenvalues --    1.75211   1.75243   1.76890   1.78745   1.79375
 Alpha virt. eigenvalues --    1.81492   1.82765   1.84160   1.85202   1.85259
 Alpha virt. eigenvalues --    1.87012   1.89798   1.90595   1.90841   1.91308
 Alpha virt. eigenvalues --    1.93409   1.95506   1.96133   1.98641   2.00204
 Alpha virt. eigenvalues --    2.02272   2.03560   2.04335   2.04995   2.06347
 Alpha virt. eigenvalues --    2.06474   2.07229   2.08302   2.08908   2.09470
 Alpha virt. eigenvalues --    2.10059   2.11729   2.12282   2.14735   2.16365
 Alpha virt. eigenvalues --    2.16658   2.17810   2.19457   2.21587   2.23272
 Alpha virt. eigenvalues --    2.24608   2.27447   2.30506   2.30891   2.32394
 Alpha virt. eigenvalues --    2.33961   2.37968   2.38846   2.40368   2.42296
 Alpha virt. eigenvalues --    2.43647   2.45474   2.46328   2.49789   2.52406
 Alpha virt. eigenvalues --    2.52493   2.52973   2.55795   2.57937   2.59704
 Alpha virt. eigenvalues --    2.64025   2.64321   2.65044   2.67249   2.68440
 Alpha virt. eigenvalues --    2.74224   2.75094   2.76463   2.77429   2.77728
 Alpha virt. eigenvalues --    2.81102   2.82196   2.82377   2.82760   2.85380
 Alpha virt. eigenvalues --    2.87611   2.88442   2.88716   2.89684   2.90115
 Alpha virt. eigenvalues --    2.90860   2.91798   2.92574   2.94045   2.96225
 Alpha virt. eigenvalues --    2.96540   2.98904   3.00201   3.00485   3.01279
 Alpha virt. eigenvalues --    3.02326   3.03095   3.06571   3.07262   3.08697
 Alpha virt. eigenvalues --    3.09017   3.11205   3.15761   3.18163   3.21509
 Alpha virt. eigenvalues --    3.22680   3.25150   3.27537   3.31586   3.33431
 Alpha virt. eigenvalues --    3.34948   3.38551   3.39814   3.45451   3.45689
 Alpha virt. eigenvalues --    3.46034   3.48406   3.49286   3.54919   3.59129
 Alpha virt. eigenvalues --    3.64260   3.65204   3.66579   3.67777   3.69794
 Alpha virt. eigenvalues --    3.70376   3.74313   3.82155   3.87584   3.89747
 Alpha virt. eigenvalues --    3.91481   3.96504   3.97557   4.02153   4.15459
 Alpha virt. eigenvalues --    4.19268   4.24994   4.29954   4.32299   4.32727
 Alpha virt. eigenvalues --    4.33945   4.37212   4.42861   4.44188   4.51266
 Alpha virt. eigenvalues --    4.61352   4.70179   4.93278   4.95509   4.97728
 Alpha virt. eigenvalues --    5.20208   5.21587   5.40364   5.43009   5.88679
 Alpha virt. eigenvalues --    5.96647   6.90636   7.67369   7.80340   7.87891
 Alpha virt. eigenvalues --   23.60783  23.78339  23.99883  24.02493  24.05271
 Alpha virt. eigenvalues --   24.05805  24.06963  24.08463  24.08996  24.12933
 Alpha virt. eigenvalues --   24.16303  24.22179  24.23412  24.27595  24.30509
 Alpha virt. eigenvalues --   48.15690  50.18737  50.24270 289.87262 290.00324
 Alpha virt. eigenvalues --  290.099671020.97633
  Beta  occ. eigenvalues -- -482.72685 -62.37976 -56.19987 -56.19636 -56.19623
  Beta  occ. eigenvalues --  -18.94757 -18.94691 -10.11904 -10.10266 -10.10167
  Beta  occ. eigenvalues --  -10.08493 -10.07639 -10.06783 -10.06374 -10.06325
  Beta  occ. eigenvalues --  -10.06242 -10.05972 -10.05760 -10.05741 -10.05729
  Beta  occ. eigenvalues --  -10.05605 -10.05560  -8.58941  -6.42006  -6.40833
  Beta  occ. eigenvalues --   -6.40803  -2.53112  -2.52778  -2.52758  -2.51826
  Beta  occ. eigenvalues --   -2.51825  -0.87050  -0.86720  -0.76387  -0.74035
  Beta  occ. eigenvalues --   -0.69931  -0.67721  -0.64884  -0.63485  -0.62110
  Beta  occ. eigenvalues --   -0.59226  -0.53914  -0.51972  -0.49278  -0.48124
  Beta  occ. eigenvalues --   -0.44083  -0.41138  -0.40707  -0.36906  -0.35039
  Beta  occ. eigenvalues --   -0.34176  -0.33540  -0.33009  -0.31872  -0.31010
  Beta  occ. eigenvalues --   -0.30560  -0.29037  -0.28690  -0.28447  -0.27984
  Beta  occ. eigenvalues --   -0.26430  -0.25619  -0.24015  -0.23415  -0.23388
  Beta  occ. eigenvalues --   -0.22541  -0.21824  -0.19316  -0.19183  -0.14213
  Beta  occ. eigenvalues --   -0.13121  -0.12783  -0.12392  -0.11764  -0.10898
  Beta virt. eigenvalues --    0.03710   0.06683   0.07162   0.07970   0.08374
  Beta virt. eigenvalues --    0.09800   0.09943   0.10595   0.10612   0.11194
  Beta virt. eigenvalues --    0.11575   0.12142   0.12708   0.13610   0.14060
  Beta virt. eigenvalues --    0.14580   0.15208   0.15403   0.16390   0.16695
  Beta virt. eigenvalues --    0.17014   0.17271   0.17615   0.18156   0.18643
  Beta virt. eigenvalues --    0.19199   0.19375   0.19797   0.20143   0.20202
  Beta virt. eigenvalues --    0.20527   0.21119   0.21274   0.21977   0.22249
  Beta virt. eigenvalues --    0.22434   0.22719   0.23059   0.23266   0.23681
  Beta virt. eigenvalues --    0.24314   0.24529   0.25206   0.25319   0.25634
  Beta virt. eigenvalues --    0.26045   0.26659   0.27230   0.27701   0.28066
  Beta virt. eigenvalues --    0.28341   0.29417   0.29454   0.30005   0.30313
  Beta virt. eigenvalues --    0.30561   0.30894   0.31599   0.32282   0.32391
  Beta virt. eigenvalues --    0.32521   0.33037   0.33215   0.33988   0.34200
  Beta virt. eigenvalues --    0.34599   0.35246   0.35704   0.36375   0.36401
  Beta virt. eigenvalues --    0.36898   0.36956   0.37508   0.37978   0.38430
  Beta virt. eigenvalues --    0.39060   0.39605   0.39967   0.40477   0.40680
  Beta virt. eigenvalues --    0.41337   0.41760   0.42518   0.42896   0.43291
  Beta virt. eigenvalues --    0.43907   0.43982   0.44577   0.45238   0.46061
  Beta virt. eigenvalues --    0.46445   0.46621   0.47126   0.47184   0.47493
  Beta virt. eigenvalues --    0.49183   0.49683   0.50321   0.52121   0.52603
  Beta virt. eigenvalues --    0.52767   0.52932   0.54510   0.54643   0.55697
  Beta virt. eigenvalues --    0.56340   0.57126   0.58114   0.61075   0.61367
  Beta virt. eigenvalues --    0.62088   0.63450   0.64025   0.65184   0.65864
  Beta virt. eigenvalues --    0.66852   0.67649   0.67956   0.68455   0.68777
  Beta virt. eigenvalues --    0.68950   0.69213   0.70104   0.70293   0.70740
  Beta virt. eigenvalues --    0.71861   0.73012   0.73802   0.74466   0.75213
  Beta virt. eigenvalues --    0.75436   0.76294   0.76626   0.77407   0.77930
  Beta virt. eigenvalues --    0.78078   0.78522   0.78797   0.79176   0.80276
  Beta virt. eigenvalues --    0.80617   0.80927   0.81401   0.84145   0.84627
  Beta virt. eigenvalues --    0.84890   0.85641   0.86574   0.87217   0.88913
  Beta virt. eigenvalues --    0.88965   0.89497   0.89753   0.91146   0.91686
  Beta virt. eigenvalues --    0.92304   0.93747   0.94326   0.95889   0.97482
  Beta virt. eigenvalues --    0.98315   1.00309   1.01611   1.02219   1.03377
  Beta virt. eigenvalues --    1.05140   1.05300   1.05902   1.06237   1.06278
  Beta virt. eigenvalues --    1.07143   1.07918   1.08820   1.09874   1.11227
  Beta virt. eigenvalues --    1.11361   1.12116   1.12582   1.13563   1.14839
  Beta virt. eigenvalues --    1.15746   1.16565   1.16607   1.18505   1.19438
  Beta virt. eigenvalues --    1.20539   1.21686   1.23415   1.23612   1.24191
  Beta virt. eigenvalues --    1.25962   1.29906   1.30091   1.31132   1.33404
  Beta virt. eigenvalues --    1.34904   1.36502   1.37191   1.38797   1.38864
  Beta virt. eigenvalues --    1.40206   1.42961   1.44925   1.45786   1.47814
  Beta virt. eigenvalues --    1.48197   1.48353   1.50341   1.55064   1.55177
  Beta virt. eigenvalues --    1.58456   1.59606   1.60883   1.61154   1.62230
  Beta virt. eigenvalues --    1.63545   1.64564   1.64609   1.65491   1.65959
  Beta virt. eigenvalues --    1.66801   1.68037   1.68710   1.70403   1.71777
  Beta virt. eigenvalues --    1.74200   1.75316   1.75407   1.77044   1.78800
  Beta virt. eigenvalues --    1.79432   1.81923   1.82932   1.84301   1.85297
  Beta virt. eigenvalues --    1.85390   1.87213   1.89899   1.90722   1.91222
  Beta virt. eigenvalues --    1.91431   1.93655   1.95594   1.96374   1.98828
  Beta virt. eigenvalues --    2.00522   2.02594   2.03695   2.04512   2.05088
  Beta virt. eigenvalues --    2.06517   2.06662   2.07591   2.08549   2.09079
  Beta virt. eigenvalues --    2.09558   2.10151   2.11846   2.12472   2.14939
  Beta virt. eigenvalues --    2.16542   2.16882   2.18013   2.19571   2.21678
  Beta virt. eigenvalues --    2.23369   2.24717   2.27576   2.30798   2.30964
  Beta virt. eigenvalues --    2.32488   2.34121   2.38018   2.39095   2.40675
  Beta virt. eigenvalues --    2.42529   2.43732   2.45832   2.46587   2.49885
  Beta virt. eigenvalues --    2.52562   2.52746   2.53332   2.55852   2.57977
  Beta virt. eigenvalues --    2.59721   2.64062   2.64385   2.65091   2.67349
  Beta virt. eigenvalues --    2.68497   2.74304   2.75719   2.76509   2.77588
  Beta virt. eigenvalues --    2.77985   2.81165   2.82244   2.82741   2.82797
  Beta virt. eigenvalues --    2.85405   2.87665   2.88481   2.89370   2.89711
  Beta virt. eigenvalues --    2.90139   2.90889   2.91975   2.93208   2.94158
  Beta virt. eigenvalues --    2.96542   2.96639   2.99570   3.00301   3.00936
  Beta virt. eigenvalues --    3.02056   3.02607   3.03659   3.06727   3.08456
  Beta virt. eigenvalues --    3.09893   3.10223   3.12207   3.16226   3.18263
  Beta virt. eigenvalues --    3.21848   3.23181   3.25322   3.27731   3.32084
  Beta virt. eigenvalues --    3.33620   3.34986   3.38703   3.39961   3.45568
  Beta virt. eigenvalues --    3.45767   3.47594   3.49399   3.49949   3.55000
  Beta virt. eigenvalues --    3.59229   3.64436   3.65366   3.66750   3.67912
  Beta virt. eigenvalues --    3.69873   3.70649   3.74409   3.82296   3.87605
  Beta virt. eigenvalues --    3.89782   3.91589   3.96718   3.97926   4.02404
  Beta virt. eigenvalues --    4.15546   4.19394   4.25001   4.30068   4.32307
  Beta virt. eigenvalues --    4.32788   4.34003   4.37419   4.43038   4.44512
  Beta virt. eigenvalues --    4.51275   4.61629   4.70201   4.93700   4.95655
  Beta virt. eigenvalues --    4.97849   5.22699   5.24075   5.40862   5.43507
  Beta virt. eigenvalues --    5.89182   5.97149   6.90640   7.67379   7.80342
  Beta virt. eigenvalues --    7.87891  23.60849  23.78395  23.99936  24.02586
  Beta virt. eigenvalues --   24.05384  24.05852  24.07013  24.08577  24.09119
  Beta virt. eigenvalues --   24.13021  24.16401  24.22192  24.23432  24.27615
  Beta virt. eigenvalues --   24.30537  48.15691  50.19340  50.24873 289.87265
  Beta virt. eigenvalues --  290.00324 290.099661020.97634
          Condensed to atoms (all electrons):
               1          2          3          4          5          6
     1  C    8.660091   0.332232  -0.324297   1.020723  -1.393349   1.613399
     2  C    0.332232   6.990883   0.313981  -0.821699   0.123211  -0.379874
     3  C   -0.324297   0.313981   7.005219   0.086793  -0.881490   0.147894
     4  C    1.020723  -0.821699   0.086793  18.525537  -0.086831  -1.467329
     5  C   -1.393349   0.123211  -0.881490  -0.086831  18.655512  -0.302098
     6  C    1.613399  -0.379874   0.147894  -1.467329  -0.302098   8.738188
     7  C   -1.754170  -0.025281  -0.408595  -0.411327  -0.694783  -0.708692
     8  C   -0.090254   0.008560  -0.248803  -2.409773  -5.923986  -0.779966
     9  C   -1.380280  -0.256894   0.174159  -5.581556  -1.532539   0.485541
    10  C   -0.772830   0.028740   0.384814   0.832740  -1.327413  -1.456751
    11  C   -0.084907  -0.059131  -0.049530  -1.174386  -1.914052  -0.097672
    12  C    0.021874  -0.001047   0.008816   1.139058   0.195363  -0.168887
    13  C   -0.165313  -0.021200  -0.022960  -0.985657   0.803053   0.002344
    14  C   -0.238296  -0.079709  -0.092099  -2.136055   0.557726  -0.045141
    15  O    0.206100   0.062964  -0.010737  -0.311437  -0.358835  -0.011045
    16  O   -0.020945  -0.008443   0.069347  -0.362991  -0.295887   0.164075
    17  Br   0.003777  -0.000272  -0.000271   0.050298   0.003036  -0.002371
    18  C   -0.005070  -0.000952  -0.002353  -0.125148   0.024546   0.014789
    19  H    0.368328  -0.178313  -0.006579   0.043380   0.071880   0.032105
    20  H   -0.118121   0.461109  -0.052013   0.012723  -0.021993  -0.011478
    21  H   -0.002434  -0.051487   0.499845  -0.008711   0.009088  -0.135743
    22  H    0.027882   0.004528  -0.171546   0.077027  -0.010892   0.374910
    23  H   -0.016437   0.002473  -0.000212  -0.108829  -0.002768  -0.000642
    24  H   -0.000635   0.001862   0.001874   0.027261  -0.089464  -0.010063
    25  H   -0.000036   0.000006   0.000014  -0.001498  -0.001435   0.000426
    26  H   -0.000036   0.000006   0.000014  -0.001505  -0.001478   0.000430
    27  H   -0.000254  -0.000094  -0.000186  -0.000636   0.020107  -0.001036
               7          8          9         10         11         12
     1  C   -1.754170  -0.090254  -1.380280  -0.772830  -0.084907   0.021874
     2  C   -0.025281   0.008560  -0.256894   0.028740  -0.059131  -0.001047
     3  C   -0.408595  -0.248803   0.174159   0.384814  -0.049530   0.008816
     4  C   -0.411327  -2.409773  -5.581556   0.832740  -1.174386   1.139058
     5  C   -0.694783  -5.923986  -1.532539  -1.327413  -1.914052   0.195363
     6  C   -0.708692  -0.779966   0.485541  -1.456751  -0.097672  -0.168887
     7  C   13.766816  -0.867386   0.716481   0.345131  -2.951519   1.742202
     8  C   -0.867386  17.015009   0.708329   1.783475   1.932471  -2.421633
     9  C    0.716481   0.708329  18.478365  -1.614910   0.436297  -2.089186
    10  C    0.345131   1.783475  -1.614910  10.218371  -0.737584  -0.867723
    11  C   -2.951519   1.932471   0.436297  -0.737584   9.940288  -0.878559
    12  C    1.742202  -2.421633  -2.089186  -0.867723  -0.878559  13.187691
    13  C   -1.432904  -0.778563  -4.290005   1.173440  -0.655100  -0.826358
    14  C   -1.114563  -1.528837   2.513634  -2.323306   1.761765  -1.899600
    15  O    0.899450  -0.327614  -0.298504  -0.000535   0.131776   0.155950
    16  O   -0.014408  -0.262702  -0.326266   0.648877  -0.026924  -0.001160
    17  Br   0.075302  -0.062583  -0.016586  -0.035899  -0.040491   0.351647
    18  C   -0.327289  -0.385660  -0.677431   0.202232   0.243969  -0.833306
    19  H    0.067332  -0.042110   0.006241   0.000101  -0.015426  -0.000534
    20  H    0.032240   0.017578  -0.004051  -0.010510   0.000805  -0.000594
    21  H   -0.022418  -0.009652   0.011508   0.015410  -0.000013   0.000718
    22  H    0.008033   0.019339  -0.022765   0.059150   0.001043  -0.003604
    23  H    0.052783   0.207270   0.103483   0.030259   0.299105  -0.354955
    24  H    0.036920   0.145158   0.286295   0.097150   0.007067  -0.023921
    25  H   -0.003929   0.004807  -0.000433   0.004224   0.008646  -0.029281
    26  H   -0.003939   0.004845   0.000187   0.004214   0.008663  -0.030751
    27  H   -0.001090  -0.036546  -0.071355   0.015366  -0.034981  -0.048522
              13         14         15         16         17         18
     1  C   -0.165313  -0.238296   0.206100  -0.020945   0.003777  -0.005070
     2  C   -0.021200  -0.079709   0.062964  -0.008443  -0.000272  -0.000952
     3  C   -0.022960  -0.092099  -0.010737   0.069347  -0.000271  -0.002353
     4  C   -0.985657  -2.136055  -0.311437  -0.362991   0.050298  -0.125148
     5  C    0.803053   0.557726  -0.358835  -0.295887   0.003036   0.024546
     6  C    0.002344  -0.045141  -0.011045   0.164075  -0.002371   0.014789
     7  C   -1.432904  -1.114563   0.899450  -0.014408   0.075302  -0.327289
     8  C   -0.778563  -1.528837  -0.327614  -0.262702  -0.062583  -0.385660
     9  C   -4.290005   2.513634  -0.298504  -0.326266  -0.016586  -0.677431
    10  C    1.173440  -2.323306  -0.000535   0.648877  -0.035899   0.202232
    11  C   -0.655100   1.761765   0.131776  -0.026924  -0.040491   0.243969
    12  C   -0.826358  -1.899600   0.155950  -0.001160   0.351647  -0.833306
    13  C   13.515374  -0.713267  -0.033130   0.196069  -0.087399   0.001532
    14  C   -0.713267  11.162371  -0.038734   0.296327   0.008460  -0.284262
    15  O   -0.033130  -0.038734   8.304362  -0.000142   0.004403  -0.001798
    16  O    0.196069   0.296327  -0.000142   8.309642   0.000123   0.009924
    17  Br  -0.087399   0.008460   0.004403   0.000123  35.306400  -0.180500
    18  C    0.001532  -0.284262  -0.001798   0.009924  -0.180500   7.353317
    19  H   -0.003662  -0.001640  -0.007846   0.000531   0.000069  -0.000428
    20  H    0.000644   0.001334   0.002824  -0.000324  -0.000004   0.000032
    21  H   -0.001056  -0.000767  -0.000347   0.002957   0.000008  -0.000051
    22  H   -0.004249  -0.017666   0.000584  -0.006619  -0.000052  -0.000115
    23  H    0.061150   0.026703  -0.013880   0.000408  -0.075052   0.016896
    24  H   -0.354771   0.290063   0.000270  -0.014970  -0.001865  -0.074647
    25  H   -0.056022   0.017279  -0.000036  -0.000255  -0.005664   0.403093
    26  H   -0.055612   0.018469  -0.000037  -0.000261  -0.005852   0.402217
    27  H    0.090780  -0.026022   0.000059   0.003816   0.009220   0.421410
              19         20         21         22         23         24
     1  C    0.368328  -0.118121  -0.002434   0.027882  -0.016437  -0.000635
     2  C   -0.178313   0.461109  -0.051487   0.004528   0.002473   0.001862
     3  C   -0.006579  -0.052013   0.499845  -0.171546  -0.000212   0.001874
     4  C    0.043380   0.012723  -0.008711   0.077027  -0.108829   0.027261
     5  C    0.071880  -0.021993   0.009088  -0.010892  -0.002768  -0.089464
     6  C    0.032105  -0.011478  -0.135743   0.374910  -0.000642  -0.010063
     7  C    0.067332   0.032240  -0.022418   0.008033   0.052783   0.036920
     8  C   -0.042110   0.017578  -0.009652   0.019339   0.207270   0.145158
     9  C    0.006241  -0.004051   0.011508  -0.022765   0.103483   0.286295
    10  C    0.000101  -0.010510   0.015410   0.059150   0.030259   0.097150
    11  C   -0.015426   0.000805  -0.000013   0.001043   0.299105   0.007067
    12  C   -0.000534  -0.000594   0.000718  -0.003604  -0.354955  -0.023921
    13  C   -0.003662   0.000644  -0.001056  -0.004249   0.061150  -0.354771
    14  C   -0.001640   0.001334  -0.000767  -0.017666   0.026703   0.290063
    15  O   -0.007846   0.002824  -0.000347   0.000584  -0.013880   0.000270
    16  O    0.000531  -0.000324   0.002957  -0.006619   0.000408  -0.014970
    17  Br   0.000069  -0.000004   0.000008  -0.000052  -0.075052  -0.001865
    18  C   -0.000428   0.000032  -0.000051  -0.000115   0.016896  -0.074647
    19  H    0.519710  -0.014523   0.000426   0.001566  -0.000100  -0.000099
    20  H   -0.014523   0.598183  -0.020238   0.000663  -0.000123  -0.000033
    21  H    0.000426  -0.020238   0.601193  -0.015652  -0.000048  -0.000139
    22  H    0.001566   0.000663  -0.015652   0.523558  -0.000067   0.000349
    23  H   -0.000100  -0.000123  -0.000048  -0.000067   0.543990   0.003138
    24  H   -0.000099  -0.000033  -0.000139   0.000349   0.003138   0.562023
    25  H   -0.000002   0.000000  -0.000000   0.000016   0.000556   0.000795
    26  H   -0.000002   0.000000  -0.000000   0.000016   0.000564   0.000805
    27  H   -0.000003   0.000002   0.000000  -0.000088   0.000398  -0.012985
              25         26         27
     1  C   -0.000036  -0.000036  -0.000254
     2  C    0.000006   0.000006  -0.000094
     3  C    0.000014   0.000014  -0.000186
     4  C   -0.001498  -0.001505  -0.000636
[...]
 1483,0.00000770,0.00026456,-0.00007531,-0.00001821,0.00002509,0.000040
 67,-0.00000050,-0.00006977,0.00008928,0.00000024,-0.00003233,-0.000125
 77,0.00000280,0.00010290,0.00004163,-0.00000097,0.00007980,-0.00003108
 ,0.00000352,0.00022472,0.00008982,-0.00000212,0.00003416,0.00002557,-0
 .00000084,-0.00000759,0.00001164,-0.00000039,0.00058285,0.00084865,-0.
 00010136,-0.12906184,0.13466475,0.00042896,-0.00028383,0.00277854,-0.0
 0017900,0.00067728,-0.03229400,-0.00050206,0.00021283,0.00115820,0.000
 14026,0.00018605,0.00792480,0.00001359,0.00000516,-0.00049470,0.000061
 23,0.00019751,0.00564488,0.00000797,-0.00001718,0.00050435,0.00000413,
 -0.00001090,-0.00080749,0.00000276,0.00000676,0.00019054,-0.00001466,-
 0.00001357,-0.00102581,0.00000002,-0.00000169,0.00002656,0.00000140,-0
 .00000078,0.00006743,0.00000084,0.00000264,0.00002138,-0.00000134,0.,0
 .00003317,0.00000086,0.00000732,0.00021705,-0.00000233,-0.00000344,0.0
 0007308,0.00000048,-0.00000003,-0.00000681,-0.00000004,-0.00000033,-0.
 00001301,-0.00005944,-0.00009361,-0.00488158,0.00013395,-0.00081743,0.
 02332529,0.00191067,-0.00007210,0.00003201,0.00207859,0.00224719,-0.00
 004511,-0.26282150,-0.11394688,0.00381079,-0.00004220,0.00082229,-0.00
 001778,-0.00250053,0.00450925,0.00001041,-0.02035182,-0.01615187,0.000
 46171,0.00023470,0.00028460,-0.00001501,0.00006355,-0.00000061,0.00000
 097,-0.00058911,0.00049486,-0.00001024,-0.00030355,-0.00175654,0.00003
 588,-0.00003767,-0.00000561,0.00000089,0.00011146,0.00007892,-0.000002
 44,-0.00011735,0.00003012,0.00000123,0.00000539,-0.00022396,0.00000389
 ,-0.00012572,-0.00038035,0.00000803,-0.00004733,0.00039977,-0.00000459
 ,-0.00009434,-0.00004998,0.00000154,-0.00000904,-0.00003409,0.00000067
 ,-0.00006103,0.00016858,-0.00000002,0.00076739,-0.00064864,-0.00001776
 ,0.28080967,0.00149190,-0.00605109,0.00018504,-0.02931579,-0.00921979,
 0.00041560,-0.11417660,-0.12201615,0.00244765,0.00099423,-0.00045460,-
 0.00000927,0.00317842,-0.00122270,0.00012955,0.01530964,0.01127583,-0.
 00026880,-0.00027243,-0.00009309,-0.00001347,0.00008236,-0.00021102,0.
 00000592,0.00037472,0.00001987,-0.00001720,0.00013172,0.00072306,-0.00
 000543,-0.00010262,0.00003565,0.00000119,0.00008951,-0.00009647,0.0000
 0061,0.00003976,0.00011663,-0.00000058,-0.00003770,0.00004608,-0.00000
 011,-0.00021356,0.00011931,0.00000104,-0.00008011,-0.00003531,0.000004
 96,-0.00004671,-0.00002206,0.00000057,0.00001272,-0.00000729,-0.000000
 03,-0.00132612,-0.00045993,0.00002344,0.00065519,0.00097422,-0.0000672
 9,0.12381781,0.12570818,0.00000562,0.00019763,0.00564759,0.00048665,0.
 00015750,0.00119087,0.00381458,0.00244520,-0.03246119,-0.00002045,-0.0
 0000795,-0.00052087,0.00003336,0.00011889,0.00801919,-0.00006938,-0.00
 001061,0.00278701,-0.00000578,-0.00001806,-0.00102601,-0.00000040,0.00
 000663,0.00018105,-0.00000820,-0.00001819,-0.00082005,0.00000393,0.000
 01017,0.00046644,0.00000247,0.00000037,0.00005655,-0.00000253,0.000000
 67,-0.00001753,0.00000116,-0.00000034,0.00010940,0.00000072,0.00000137
 ,0.00001933,0.00000526,0.00000237,0.00007653,0.00000351,0.00000108,0.0
 0021991,0.00000148,0.00000059,-0.00001150,-0.00000019,0.00000025,-0.00
 000827,0.00002513,0.00001109,0.00028113,-0.00003954,-0.00005672,-0.002
 71167,-0.00419848,-0.00274112,0.02343146,-0.00114204,-0.00004197,0.000
 00189,-0.00406321,0.00203247,0.00006561,0.00383397,0.02714264,-0.00045
 804,-0.00484492,-0.00124097,0.00010744,0.00542410,-0.02844921,0.000470
 87,-0.05671497,0.00043041,0.00014325,0.00105788,-0.00163236,0.00001816
 ,-0.00014870,-0.00025220,0.00000600,0.00116280,0.00074089,-0.00002165,
 -0.00107946,-0.00337982,0.00004259,0.00015289,0.00015713,-0.00000390,-
 0.00011439,-0.00011625,0.00000295,0.00014459,0.00017873,-0.00000416,-0
 .00028718,0.00018724,0.00000002,-0.00065539,0.00000773,0.00000518,0.00
 085774,0.00281057,-0.00006069,0.00001533,0.00001770,-0.00000044,0.0000
 0720,0.00000633,-0.00000032,0.00011115,-0.00003308,-0.00000816,-0.0000
 2093,0.00130886,-0.00001953,0.00114573,-0.00059435,-0.00003918,0.05522
 202,-0.00032852,0.00071701,-0.00002615,0.00288973,0.00091925,0.0000974
 5,-0.00274121,-0.00969270,0.00024786,-0.00254163,0.00058285,0.00010665
 ,-0.00163120,-0.01321094,0.00030745,-0.00072109,-0.33432836,0.00498720
 ,0.00073601,-0.00048805,0.00000084,-0.00019207,-0.00005363,0.00000358,
 -0.00009341,0.00003057,0.00000069,0.00149866,-0.00305826,-0.00001151,0
 .00005771,0.00003703,-0.00000116,0.00001219,0.00001835,-0.00000038,0.0
 0000738,0.00004066,-0.00000082,-0.00004287,-0.00005943,0.00000325,-0.0
 0032250,-0.00027516,0.00000711,0.00253618,0.00166182,-0.00006091,-0.00
 006264,-0.00003171,0.00000100,-0.00000116,-0.00000911,-0.00000019,0.00
 002554,-0.00010048,-0.00001451,-0.00018412,-0.00050040,0.00001482,0.00
 037103,0.00085809,-0.00009990,0.00073106,0.35691570,0.00000680,-0.0000
 2870,-0.00100536,0.00005120,0.00010458,0.00811810,0.00004457,0.0000035
 1,0.00370442,0.00012911,0.00009615,0.00567552,0.00002026,0.00052557,0.
 00422265,0.00016205,0.00497544,-0.03845306,-0.00002164,0.00002011,-0.0
 0007936,0.00000494,0.00000404,0.00006520,-0.00000788,-0.00000619,0.000
 02236,-0.00004284,0.00002750,-0.00306248,-0.00000225,-0.00000199,-0.00
 000536,0.00000072,0.00000071,0.00000425,-0.00000131,-0.00000218,-0.000
 00385,0.00000391,0.00000141,0.00011420,0.00001071,0.00000444,-0.000010
 82,-0.00005155,-0.00005883,-0.00068568,0.00000090,0.00000032,-0.000004
 10,-0.00000025,-0.00000028,-0.00002102,-0.00000914,-0.00001405,-0.0009
 4942,0.00000563,0.00000257,0.00028851,-0.00005589,-0.00009181,-0.00488
 994,-0.00024872,-0.00556226,0.02693773,-0.00026802,0.00018888,0.000000
 03,0.00013354,0.00016594,-0.00000378,-0.00008006,-0.00009522,0.0000021
 3,0.00121257,0.00074203,-0.00002157,-0.00010816,-0.00027433,0.00000581
 ,0.00012849,0.00015069,-0.00000356,-0.00101386,-0.00347735,0.00004176,
 0.00506833,-0.02801379,0.00047222,-0.00459876,-0.00121158,0.00010185,0
 .00098683,-0.00160424,0.00001819,-0.05218908,-0.00425630,0.00019373,0.
 00001113,0.02644725,-0.00042422,-0.00387478,0.00175626,0.00005477,-0.0
 0124829,-0.00015742,0.00000242,0.00122464,0.00291126,-0.00006562,-0.00
 066281,0.00006801,0.00000407,0.00101861,0.00109160,-0.00004995,0.00045
 707,0.00101587,-0.00001729,-0.00011385,-0.00000481,0.00000122,0.000023
 20,0.00000339,-0.00000042,0.00000757,0.00001605,-0.00000033,0.00003133
 ,0.00001149,-0.00000048,0.05410109,0.00001415,-0.00005592,0.00000274,0
 .00000144,0.00000523,0.00000016,-0.00003553,-0.00000163,0.00000002,-0.
 00020710,-0.00015503,0.00000616,-0.00016308,0.00003221,0.00000132,0.00
 004039,0.00000872,-0.00000040,0.00150395,-0.00247085,-0.00002481,-0.00
 248779,-0.01190264,0.00030059,-0.00216646,0.00041840,0.00010176,0.0006
 0736,-0.00036336,-0.00000067,-0.00158935,-0.33932694,0.00511343,-0.002
 53045,-0.01073469,0.00024840,0.00233608,0.00084553,0.00007418,-0.00038
 929,0.00084597,-0.00003255,0.00216077,0.00104982,-0.00004808,-0.000230
 55,-0.00029477,0.00000648,-0.00108113,0.00112792,-0.00005818,-0.000333
 12,-0.00013612,0.00001358,0.00002315,0.00003347,-0.00000044,-0.0000190
 6,0.00000156,-0.00000024,-0.00001175,-0.00000343,0.00000017,0.00000303
 ,-0.00001955,0.00000025,0.00427639,0.36133042,0.00000296,0.00000131,0.
 00011439,-0.00000105,-0.00000134,0.00001481,0.00000104,0.00000061,-0.0
 0001877,-0.00000592,-0.00000189,0.00010659,0.00000365,0.00000235,0.000
 02966,-0.00000161,-0.00000129,0.00000571,-0.00004435,0.00001523,-0.003
 22610,0.00003918,0.00050644,0.00468473,0.00011776,0.00009430,0.0053949
 2,-0.00001912,0.00001727,-0.00011307,0.00015084,0.00513227,-0.03726493
 ,0.00006312,0.00001550,0.00275257,0.00004395,0.00007908,0.00639738,0.0
 0000734,-0.00003401,-0.00127860,-0.00004861,-0.00005040,-0.00074277,0.
 00000908,0.00000404,-0.00002372,-0.00001411,-0.00007696,-0.00286972,0.
 00000692,0.00000251,0.00052082,0.00000064,-0.00000020,0.00001847,-0.00
 000006,-0.00000043,-0.00002192,0.00000014,-0.00000005,0.00000128,-0.00
 000034,0.00000017,-0.00000357,-0.00030494,-0.00569774,0.02599718,0.000
 09369,-0.00015338,0.00000170,-0.00006826,0.00011947,-0.00000161,0.0001
 0843,-0.00019430,0.00000242,-0.00003418,0.00033402,-0.00000422,0.00114
 243,-0.00087788,0.00000576,-0.00027375,-0.00015441,0.00000577,0.001029
 92,0.00143368,-0.00003372,-0.00466118,0.00148329,0.00005364,0.00648664
 ,0.02763587,-0.00048428,-0.00110749,0.00353259,-0.00007485,-0.00115309
 ,0.00011761,-0.00000050,-0.00284939,-0.00131738,0.00009918,-0.00031724
 ,-0.02625937,0.00048586,-0.05522170,-0.01041054,0.00031784,-0.00064784
 ,0.00009352,0.00000351,0.00077657,-0.00291504,0.00003694,-0.00102998,-
 0.00144284,0.00003622,0.00127629,-0.00200070,-0.00001747,0.00003017,-0
 .00000967,-0.00000011,0.00000065,-0.00001289,0.00000021,0.00001492,-0.
 00000554,-0.00000015,-0.00010841,0.00000507,0.00000089,0.00007906,0.00
 002762,-0.00000383,0.05677907,-0.00006807,0.00004876,-0.00000040,0.000
 06468,-0.00002621,-0.00000049,-0.00000993,0.00003819,-0.00000036,0.000
 18051,-0.00003510,0.00000139,0.00010613,0.00000361,-0.00000037,0.00003
 312,-0.00005653,0.00000250,-0.00083237,-0.00044944,0.00001224,0.002861
 55,0.00036534,0.00005621,0.00119932,-0.01428866,0.00030289,-0.00159512
 ,-0.00302657,0.00001413,0.00014787,0.00064315,-0.00002902,-0.00197892,
 0.00066172,0.00011698,0.00155050,-0.01095781,0.00025272,-0.01079033,-0
 .33077141,0.00505443,0.00032714,-0.00034665,0.00000269,-0.00242441,0.0
 0170660,-0.00002275,-0.00012167,-0.00010516,0.00000905,0.00164716,0.00
 056114,-0.00011134,-0.00001088,-0.00002150,0.00000040,0.00001595,-0.00
 000423,-0.00000004,0.00002470,0.00000346,-0.00000053,-0.00000777,0.000
 03731,-0.00000026,0.00000368,-0.00010648,-0.00000377,0.01002727,0.3544
 6826,0.00000017,0.00000024,-0.00001124,-0.00000062,-0.00000085,-0.0000
 2135,-0.00000073,0.00000101,0.00000925,-0.00000132,0.00000041,0.000143
 38,-0.00001093,0.00000750,0.00003162,0.00000262,0.00000406,0.00010812,
 0.00000473,-0.00000700,-0.00014112,0.00003043,0.00006749,0.00504802,-0
 .00003683,0.00008857,0.00424645,0.00001098,-0.00002850,-0.00299488,-0.
 00000122,-0.00002836,-0.00099338,0.00010948,0.00010987,0.00657883,0.00
 001121,0.00047871,0.00466047,0.00032735,0.00505512,-0.03754511,-0.0000
 0054,0.00000517,-0.00002493,0.00002854,-0.00001745,-0.00072998,0.00001
 369,0.00001899,0.00038700,-0.00008333,-0.00009461,-0.00545907,-0.00000
 007,0.00000040,-0.00000283,-0.00000028,0.00000019,0.00000072,-0.000000
 67,-0.00000028,-0.00001538,0.00000120,-0.00000037,0.00001823,-0.000003
 45,-0.00000398,-0.00032801,-0.00041727,-0.00563568,0.02649923,-0.00004
 324,-0.00003808,0.00000340,-0.00004156,0.00020005,-0.00000253,0.000084
 31,-0.00017532,0.00000885,0.00014330,0.00031291,0.00003864,0.00038739,
 -0.00037947,-0.00018510,-0.00021839,0.00004509,0.00003373,-0.00044945,
 0.00009814,-0.00010574,0.00052684,-0.00035323,-0.00013299,-0.00108480,
 0.00008562,0.00170055,-0.00032162,0.00114567,0.00006408,-0.00089979,0.
 00019343,0.00045497,-0.00016346,-0.00296317,0.00034941,-0.01960021,-0.
 00429357,-0.02049084,-0.00122291,0.00282307,-0.00056697,0.00003243,0.0
 0009896,0.00000818,0.00003504,-0.00075467,0.00010635,0.00113323,0.0002
 7668,0.00008637,-0.12188042,-0.03279109,-0.11530301,-0.00000645,0.0000
 1545,-0.00000291,-0.00001768,0.00001301,-0.00000030,-0.00002756,-0.000
 01177,-0.00000165,0.00000885,-0.00001160,-0.00000808,0.00000105,0.0000
 5801,0.00005208,0.00007576,0.00012688,-0.00092443,0.13764532,-0.000107
 22,0.00003236,0.00000109,0.00009330,-0.00003876,0.00000627,-0.00006751
 ,0.00001467,0.00000001,0.00017179,-0.00007908,-0.00003523,-0.00022896,
 0.00009997,0.00011106,0.00010751,-0.00000126,-0.00000871,-0.00004261,-
 0.00024958,-0.00000561,-0.00005629,0.00017979,0.00012187,0.00061368,0.
 00012437,-0.00056513,0.00006565,-0.00073785,-0.00012702,0.00013897,0.0
 0027207,-0.00043386,0.00087285,0.00058993,-0.00009285,0.00935936,0.004
 43091,0.01500033,0.00002163,-0.00113842,0.00007835,0.00001292,0.000127
 31,0.00000832,-0.00008114,0.00046770,0.00001445,-0.00031337,-0.0009695
 9,0.00029668,-0.03134921,-0.05999912,-0.04631536,0.00000564,-0.0000066
 8,0.00000088,0.00000346,-0.00000244,-0.00000387,0.00000987,0.00000320,
 -0.00000162,-0.00000499,0.00000124,0.00000160,-0.00000009,-0.00005454,
 -0.00002128,0.00013176,0.00027448,-0.00000523,0.03353958,0.06136835,-0
 .00002606,-0.00001444,0.00000258,-0.00001189,0.00009201,-0.00000266,0.
 00004174,-0.00007863,0.00000626,0.00008740,0.00013805,0.00000341,0.000
 20348,-0.00014414,-0.00000975,-0.00009070,0.00001326,-0.00000090,-0.00
 020893,0.00002301,0.00001794,0.00023920,-0.00018450,0.00001374,-0.0000
 7921,0.00016827,-0.00022122,-0.00011721,0.00036348,0.00001678,-0.00011
 043,0.00034555,-0.00013367,-0.00118799,-0.00106570,0.00065959,0.000374
 20,0.00182456,0.00326559,0.00081167,0.00036876,-0.00028173,0.00002985,
 0.00007485,-0.00000697,0.00001995,-0.00025141,0.00002415,0.00069947,-0
 .00042182,0.00017170,-0.11369927,-0.04646567,-0.20682159,-0.00000341,0
 .00000649,-0.00000088,-0.00000856,0.00000634,-0.00000071,-0.00001118,-
 0.00000586,-0.00000127,0.00000510,-0.00000378,-0.00000139,-0.00007988,
 0.00004832,0.00000367,0.00010226,0.00003446,0.00009292,0.12557333,0.05
 198412,0.22467645,-0.00004282,-0.00003824,-0.00000141,-0.00004175,0.00
 019964,-0.00000355,0.00008439,-0.00017512,-0.00000428,0.00014124,0.000
 31104,-0.00005149,0.00039137,-0.00037202,0.00019171,-0.00021886,0.0000
 4344,-0.00003167,-0.00044732,0.00010313,0.00011048,0.00052938,-0.00034
 539,0.00013686,-0.00111078,0.00003150,-0.00169296,-0.00032273,0.001141
 60,-0.00009739,-0.00091250,0.00017317,-0.00045192,-0.00014485,-0.00295
 656,-0.00023155,-0.01922445,-0.00350361,0.02107975,-0.00120279,0.00281
 943,0.00047453,0.00003198,0.00009596,-0.00001214,0.00003452,-0.0007588
 2,-0.00008118,0.00111419,0.00029484,-0.00010882,-0.11733655,-0.0275396
 6,0.11461703,-0.00000638,0.00001548,0.00000248,-0.00001757,0.00001294,
 0.00000014,-0.00002738,-0.00001167,0.00000247,0.00000888,-0.00001127,0
 .00000832,0.00000124,0.00005519,-0.00005448,0.00008668,0.00015549,0.00
 092220,0.00997439,0.00369447,-0.01466370,0.13267463,-0.00010668,0.0000
 3305,-0.00000008,0.00009407,-0.00004212,-0.00000628,-0.00006909,0.0000
 1712,0.00000037,0.00017010,-0.00008278,0.00003457,-0.00023812,0.000100
 79,-0.00011115,0.00011080,-0.00000135,0.00000753,-0.00003519,-0.000250
 68,0.00001535,-0.00006506,0.00018601,-0.00012620,0.00063041,0.00012719
 ,0.00054150,0.00006895,-0.00074757,0.00015199,0.00014847,0.00027309,0.
 00042129,0.00092234,0.00062455,0.00008393,0.00907528,0.00378373,-0.015
 20677,-0.00003095,-0.00114010,-0.00005504,0.00001210,0.00012465,-0.000
 01292,-0.00008158,0.00047722,-0.00002863,-0.00034507,-0.00093836,-0.00
 024980,-0.02614007,-0.05663145,0.04100512,0.00000575,-0.00000699,-0.00
 000079,0.00000388,-0.00000256,0.00000384,0.00001036,0.00000349,0.00000
 131,-0.00000526,0.00000133,-0.00000164,0.00000334,-0.00005590,0.000023
 10,0.00012638,0.00027183,-0.00000240,0.00411974,0.00104762,-0.00671326
 ,0.02776587,0.05758937,0.00003092,0.00001405,0.00000177,0.00000928,-0.
 00009440,0.00000049,-0.00004083,0.00008147,0.00000440,-0.00009631,-0.0
 0014078,0.00000922,-0.00020253,0.00014700,-0.00001060,0.00009087,-0.00
 001413,-0.00000170,0.00022068,-0.00001607,0.00001256,-0.00024823,0.000
 18879,0.00001346,0.00008316,-0.00018710,-0.00020675,0.00011900,-0.0003
 5925,0.00002336,0.00012105,-0.00036367,-0.00013085,0.00116540,0.001118
 33,0.00060018,-0.00027193,-0.00178653,0.00352466,-0.00080002,-0.000385
 66,-0.00026219,-0.00003113,-0.00008096,-0.00000324,-0.00001701,0.00025
 057,0.00001855,-0.00070138,0.00045150,0.00018072,0.11292820,0.04121184
 ,-0.21456841,0.00000334,-0.00000657,-0.00000074,0.00000876,-0.00000652
 ,-0.00000079,0.00001134,0.00000591,-0.00000175,-0.00000514,0.00000390,
 -0.00000153,0.00007977,-0.00004702,0.00000432,-0.00010701,-0.00004548,
 0.00007714,0.01386568,0.00571520,-0.02311934,-0.12484021,-0.04606889,0
 .23326309,0.00005578,-0.00001065,-0.00000037,-0.00003293,-0.00002640,0
 .00000052,0.00002405,0.00003520,-0.00000061,-0.00011731,-0.00002760,0.
 00000166,0.00008647,0.00005403,-0.00000147,-0.00000703,-0.00002956,0.0
 0000031,0.00003114,0.00013440,-0.00000236,0.00019564,-0.00002757,-0.00
 000090,-0.00013900,-0.00004398,-0.00000111,0.00003964,0.00024096,-0.00
 000444,0.00050943,0.00140339,-0.00002190,-0.00547971,0.00149323,0.0000
 2569,0.00498782,0.02885832,-0.00061256,0.00131573,0.00180743,-0.000040
 14,-0.00005712,-0.00015918,0.00000304,0.00013258,-0.00019863,0.0000018
 5,0.00024390,-0.00085738,0.00001461,-0.05903180,-0.05863563,0.00121526
 ,-0.00000022,-0.00000181,0.00000005,0.00000455,-0.00000378,0.00000008,
 0.00000648,0.00000093,-0.00000008,-0.00000487,0.00000324,0.00000002,-0
 .00032808,0.00013712,-0.00000030,-0.00050781,-0.00063247,0.00001910,-0
 .00407038,-0.01659106,0.00211077,-0.00401615,-0.01615076,-0.00137571,0
 .06615921,-0.00002505,0.00004071,-0.00000064,0.00004168,-0.00004941,0.
 00000016,-0.00001515,0.00004682,-0.00000030,0.00004949,-0.00012930,0.0
 0000224,-0.00017176,0.00013672,-0.00000032,0.00005587,-0.00000882,-0.0
 0000087,0.00006506,0.00001936,-0.00000089,-0.00016452,0.00042348,-0.00
 000378,0.00072134,0.00011893,-0.00001550,0.00002488,-0.00062895,0.0000
 1011,-0.00060343,-0.00091858,0.00002520,0.00282815,-0.00031130,0.00000
 656,-0.00380591,-0.01802415,0.00034188,-0.00334119,0.00076067,0.000006
 18,0.00006447,0.00007119,-0.00000173,-0.00010396,0.00052794,-0.0000095
 3,0.00040261,-0.00011657,0.00000472,-0.05362055,-0.29663674,0.00527320
 ,-0.00000454,-0.00000558,0.00000017,0.00001021,-0.00000410,0.00000006,
 0.00001303,0.00000587,-0.00000024,0.00000347,0.00000654,-0.00000002,0.
 00024298,-0.00001741,-0.00000483,0.00068579,0.00111192,-0.00001300,-0.
 00138033,-0.00575664,-0.00014231,-0.00120083,-0.00476116,0.00041447,0.
 05922821,0.32409856,0.00000035,-0.00000089,-0.00000896,-0.00000093,0.0
 0000073,-0.00001725,0.00000034,-0.00000067,0.00001979,-0.00000050,0.00
 000293,0.00002385,0.00000305,-0.00000253,0.00002885,-0.00000129,-0.000
 00004,-0.00002499,-0.00000084,-0.00000144,-0.00002375,0.00000090,-0.00
 000653,0.00010728,-0.00001480,-0.00000545,-0.00020029,-0.00000095,0.00
 001049,-0.00005643,0.00001123,0.00000743,0.00034140,0.00000579,0.00000
 964,0.00104777,0.00002102,0.00002293,-0.00153395,0.00004643,-0.0000302
 0,-0.00013711,-0.00000072,-0.00000035,0.00000139,0.00000054,-0.0000103
 9,-0.00005929,-0.00000512,0.00001023,0.00031787,0.00111683,0.00532855,
 -0.04773401,0.00000011,0.00000016,0.00000190,-0.00000020,0.00000017,0.
 00000400,-0.00000033,-0.00000017,-0.00000231,0.00000004,-0.00000005,0.
 00000574,-0.00000248,-0.00000344,-0.00015534,-0.00000720,-0.00000960,0
 .00036591,-0.00462107,-0.02572444,0.00164730,0.00478079,0.02629395,0.0
 0057395,-0.00133101,-0.00589103,0.04546669\\-0.00001487,-0.00006508,0.
 00000176,-0.00002131,-0.00000416,-0.00000019,-0.00001147,0.00000238,-0
 .00000024,-0.00000762,0.00008853,0.00000472,0.00000181,-0.00011160,0.0
 0000929,-0.00002395,0.00006889,-0.00000070,-0.00001299,-0.00000050,-0.
 00001910,0.00002294,0.00010027,0.00000449,-0.00001332,-0.00012147,0.00
 000833,0.00000747,0.00013369,-0.00002718,0.00001270,-0.00004201,0.0000
 0010,-0.00004561,-0.00000873,0.00000904,0.00012652,-0.00000163,-0.0000
 0045,-0.00002063,0.00007012,-0.00000963,0.00001427,-0.00008667,0.00000
 929,-0.00000749,-0.00001607,0.00000979,0.00000832,-0.00000570,-0.00000
 056,-0.00005063,-0.00003135,0.00001593,0.00001524,0.00002250,-0.000000
 51,0.00000872,0.00001037,-0.00000015,0.00000772,-0.00001311,-0.0000001
 0,0.00001389,-0.00002632,-0.00000022,-0.00000631,0.00001949,0.00000029
 ,-0.00001465,-0.00002803,0.00000163,0.00000501,0.00001543,0.00000047,0
 .00000407,0.00000687,-0.00001729,0.00000220,0.00002387,0.00000117\\\@


 SACRED COWS MAKE GREAT HAMBURGERS -- ROBERT REISNER
 Job cpu time:       0 days  8 hours 59 minutes 36.6 seconds.
 Elapsed time:       0 days  1 hours 12 minutes 46.2 seconds.
 File lengths (MBytes):  RWF=   1249 Int=      0 D2E=      0 Chk=     25 Scr=      1
 Normal termination of Gaussian 16 at Wed Dec 27 21:06:47 2023.
