 Entering Gaussian System, Link 0=g16
 Input=107.com
 Output=107.log
 Initial command:
 /sysapps/ubuntu-applications/gaussian/Gaussian/AVX2/g16/l1.exe "/scratch/selhajj1/4406541/Gau-2040818.inp" -scrdir="/scratch/selhajj1/4406541/"
 Entering Link 1 = /sysapps/ubuntu-applications/gaussian/Gaussian/AVX2/g16/l1.exe PID=   2040820.
  
 Copyright (c) 1988,1990,1992,1993,1995,1998,2003,2009,2016,
            Gaussian, Inc.  All Rights Reserved.
  
 This is part of the Gaussian(R) 16 program.  It is based on
 the Gaussian(R) 09 system (copyright 2009, Gaussian, Inc.),
 the Gaussian(R) 03 system (copyright 2003, Gaussian, Inc.),
 the Gaussian(R) 98 system (copyright 1998, Gaussian, Inc.),
 the Gaussian(R) 94 system (copyright 1995, Gaussian, Inc.),
 the Gaussian 92(TM) system (copyright 1992, Gaussian, Inc.),
 the Gaussian 90(TM) system (copyright 1990, Gaussian, Inc.),
 the Gaussian 88(TM) system (copyright 1988, Gaussian, Inc.),
 the Gaussian 86(TM) system (copyright 1986, Carnegie Mellon
 University), and the Gaussian 82(TM) system (copyright 1983,
 Carnegie Mellon University). Gaussian is a federally registered
 trademark of Gaussian, Inc.
  
 This software contains proprietary and confidential information,
 including trade secrets, belonging to Gaussian, Inc.
  
 This software is provided under written license and may be
 used, copied, transmitted, or stored only in accord with that
 written license.
  
 The following legend is applicable only to US Government
 contracts under FAR:
  
                    RESTRICTED RIGHTS LEGEND
  
 Use, reproduction and disclosure by the US Government is
 subject to restrictions as set forth in subparagraphs (a)
 and (c) of the Commercial Computer Software - Restricted
 Rights clause in FAR 52.227-19.
  
 Gaussian, Inc.
 340 Quinnipiac St., Bldg. 40, Wallingford CT 06492
  
  
 ---------------------------------------------------------------
 Warning -- This program may not be used in any manner that
 competes with the business of Gaussian, Inc. or will provide
 assistance to any competitor of Gaussian, Inc.  The licensee
 of this program is prohibited from giving any competitor of
 Gaussian, Inc. access to this program.  By using this program,
 the user acknowledges that Gaussian, Inc. is engaged in the
 business of creating and licensing software in the field of
 computational chemistry and represents and warrants to the
 licensee that it is not a competitor of Gaussian, Inc. and that
 it will not use this program in any manner prohibited above.
 ---------------------------------------------------------------
  

 Cite this work as:
 Gaussian 16, Revision A.03,
 M. J. Frisch, G. W. Trucks, H. B. Schlegel, G. E. Scuseria, 
 M. A. Robb, J. R. Cheeseman, G. Scalmani, V. Barone, 
 G. A. Petersson, H. Nakatsuji, X. Li, M. Caricato, A. V. Marenich, 
 J. Bloino, B. G. Janesko, R. Gomperts, B. Mennucci, H. P. Hratchian, 
 J. V. Ortiz, A. F. Izmaylov, J. L. Sonnenberg, D. Williams-Young, 
 F. Ding, F. Lipparini, F. Egidi, J. Goings, B. Peng, A. Petrone, 
 T. Henderson, D. Ranasinghe, V. G. Zakrzewski, J. Gao, N. Rega, 
 G. Zheng, W. Liang, M. Hada, M. Ehara, K. Toyota, R. Fukuda, 
 J. Hasegawa, M. Ishida, T. Nakajima, Y. Honda, O. Kitao, H. Nakai, 
 T. Vreven, K. Throssell, J. A. Montgomery, Jr., J. E. Peralta, 
 F. Ogliaro, M. J. Bearpark, J. J. Heyd, E. N. Brothers, K. N. Kudin, 
 V. N. Staroverov, T. A. Keith, R. Kobayashi, J. Normand, 
 K. Raghavachari, A. P. Rendell, J. C. Burant, S. S. Iyengar, 
 J. Tomasi, M. Cossi, J. M. Millam, M. Klene, C. Adamo, R. Cammi, 
 J. W. Ochterski, R. L. Martin, K. Morokuma, O. Farkas, 
 J. B. Foresman, and D. J. Fox, Gaussian, Inc., Wallingford CT, 2016.
 
 ******************************************
 Gaussian 16:  ES64L-G16RevA.03 25-Dec-2016
                10-Feb-2024 
 ******************************************
 %chk=107.chk
 %nproc=8
 Will use up to    8 processors via shared memory.
 %mem=30GB
 ----------------------------------------------------------------------
 #P UB3LYP/6-311++G(d,p) nosym opt freq SCRF=(PCM,Solvent=n,n-DiMethylF
 ormamide)
 ----------------------------------------------------------------------
 1/18=20,19=15,26=3,38=1/1,3;
 2/9=110,12=2,15=1,17=6,18=5,40=1/2;
 3/5=4,6=6,7=1111,11=2,25=1,30=1,70=2201,71=1,72=148,74=-5,116=2/1,2,3;
 4//1;
 5/5=2,38=5,53=148/2;
 6/7=2,8=2,9=2,10=2,28=1/1;
 7/30=1/1,2,3,16;
 1/18=20,19=15,26=3/3(2);
 2/9=110,15=1/2;
 99//99;
 2/9=110,15=1/2;
 3/5=4,6=6,7=1111,11=2,25=1,30=1,70=2205,71=1,72=148,74=-5,116=2/1,2,3;
 4/5=5,16=3,69=1/1;
 5/5=2,38=5,53=148/2;
 7/30=1/1,2,3,16;
 1/18=20,19=15,26=3/3(-5);
 2/9=110,15=1/2;
 6/7=2,8=2,9=2,10=2,19=2,28=1/1;
 99/9=1/99;
 Leave Link    1 at Sat Feb 10 10:39:40 2024, MaxMem=  4026531840 cpu:               0.9 elap:               0.1
 (Enter /sysapps/ubuntu-applications/gaussian/Gaussian/AVX2/g16/l101.exe)
 --------
 Oxidized
 --------
 Symbolic Z-matrix:
 Charge =  0 Multiplicity = 1
 C                    -0.54597  -2.19478   1.00147 
 C                     0.84184  -2.49221   0.84575 
 C                     1.77775  -1.49511   0.72159 
 C                     1.34289  -0.02039   0.74847 
 C                    -0.0449    0.27706   0.90439 
 C                    -0.98078  -0.72004   1.02875 
 O                    -1.42486  -3.05244   1.11639 
 O                     2.2217    0.8373    0.63315 
 N                    -2.30691  -0.60989   1.1809 
 N                     3.10391  -1.60527   0.56964 
 C                    -3.1784    0.58114   1.26212 
 C                    -4.60751   0.04253   1.43705 
 C                    -2.80756   1.44181   2.48497 
 C                    -3.10071   1.39934  -0.04101 
 C                     3.97539  -2.79634   0.48814 
 C                     3.89724  -3.61522   1.79078 
 C                     5.40459  -2.25772   0.31411 
 C                     3.60491  -3.65632  -0.73531 
 H                     1.09606  -3.54164   0.83275 
 H                    -0.29919   1.32648   0.91725 
 H                    -2.74916  -1.52481   1.24616 
 H                     3.54612  -0.6904    0.50376 
 H                    -4.89725  -0.58231   0.58744 
 H                    -5.31589   0.87039   1.50524 
 H                    -4.69269  -0.55257   2.35074 
 H                    -2.8843    0.85344   3.40251 
 H                    -3.49292   2.28988   2.56211 
 H                    -1.79298   1.83582   2.42069 
 H                    -3.38409   0.7814   -0.89646 
 H                    -2.09959   1.79042  -0.22423 
 H                    -3.78799   2.24764   0.01296 
 H                     2.89628  -4.00706   1.9732 
 H                     4.17972  -2.9976    2.64676 
 H                     4.58509  -4.46307   1.73678 
 H                     5.69404  -1.63344   1.16424 
 H                     5.49017  -1.66204  -0.59916 
 H                     6.11296  -3.08556   0.24563 
 H                     2.59009  -4.04985  -0.67177 
 H                     4.2899   -4.50469  -0.81243 
 H                     3.68247  -3.06756  -1.65253 
 
 ITRead=  0  0  0  0  0  0  0  0  0  0  0  0  0  0  0  0  0  0  0  0
 ITRead=  0  0  0  0  0  0  0  0  0  0  0  0  0  0  0  0  0  0  0  0
 MicOpt= -1 -1 -1 -1 -1 -1 -1 -1 -1 -1 -1 -1 -1 -1 -1 -1 -1 -1 -1 -1
 MicOpt= -1 -1 -1 -1 -1 -1 -1 -1 -1 -1 -1 -1 -1 -1 -1 -1 -1 -1 -1 -1
 NAtoms=     40 NQM=       40 NQMF=       0 NMMI=      0 NMMIF=      0
                NMic=       0 NMicF=      0.
                    Isotopes and Nuclear Properties:
 (Nuclear quadrupole moments (NQMom) in fm**2, nuclear magnetic moments (NMagM)
  in nuclear magnetons)

  Atom         1           2           3           4           5           6           7           8           9          10
 IAtWgt=          12          12          12          12          12          12          16          16          14          14
 AtmWgt=  12.0000000  12.0000000  12.0000000  12.0000000  12.0000000  12.0000000  15.9949146  15.9949146  14.0030740  14.0030740
 NucSpn=           0           0           0           0           0           0           0           0           2           2
 AtZEff=  -0.0000000  -0.0000000  -0.0000000  -0.0000000  -0.0000000  -0.0000000  -0.0000000  -0.0000000  -0.0000000  -0.0000000
 NQMom=    0.0000000   0.0000000   0.0000000   0.0000000   0.0000000   0.0000000   0.0000000   0.0000000   2.0440000   2.0440000
 NMagM=    0.0000000   0.0000000   0.0000000   0.0000000   0.0000000   0.0000000   0.0000000   0.0000000   0.4037610   0.4037610
 AtZNuc=   6.0000000   6.0000000   6.0000000   6.0000000   6.0000000   6.0000000   8.0000000   8.0000000   7.0000000   7.0000000

  Atom        11          12          13          14          15          16          17          18          19          20
 IAtWgt=          12          12          12          12          12          12          12          12           1           1
 AtmWgt=  12.0000000  12.0000000  12.0000000  12.0000000  12.0000000  12.0000000  12.0000000  12.0000000   1.0078250   1.0078250
 NucSpn=           0           0           0           0           0           0           0           0           1           1
 AtZEff=  -0.0000000  -0.0000000  -0.0000000  -0.0000000  -0.0000000  -0.0000000  -0.0000000  -0.0000000  -0.0000000  -0.0000000
 NQMom=    0.0000000   0.0000000   0.0000000   0.0000000   0.0000000   0.0000000   0.0000000   0.0000000   0.0000000   0.0000000
 NMagM=    0.0000000   0.0000000   0.0000000   0.0000000   0.0000000   0.0000000   0.0000000   0.0000000   2.7928460   2.7928460
 AtZNuc=   6.0000000   6.0000000   6.0000000   6.0000000   6.0000000   6.0000000   6.0000000   6.0000000   1.0000000   1.0000000

  Atom        21          22          23          24          25          26          27          28          29          30
 IAtWgt=           1           1           1           1           1           1           1           1           1           1
 AtmWgt=   1.0078250   1.0078250   1.0078250   1.0078250   1.0078250   1.0078250   1.0078250   1.0078250   1.0078250   1.0078250
 NucSpn=           1           1           1           1           1           1           1           1           1           1
 AtZEff=  -0.0000000  -0.0000000  -0.0000000  -0.0000000  -0.0000000  -0.0000000  -0.0000000  -0.0000000  -0.0000000  -0.0000000
 NQMom=    0.0000000   0.0000000   0.0000000   0.0000000   0.0000000   0.0000000   0.0000000   0.0000000   0.0000000   0.0000000
 NMagM=    2.7928460   2.7928460   2.7928460   2.7928460   2.7928460   2.7928460   2.7928460   2.7928460   2.7928460   2.7928460
 AtZNuc=   1.0000000   1.0000000   1.0000000   1.0000000   1.0000000   1.0000000   1.0000000   1.0000000   1.0000000   1.0000000

  Atom        31          32          33          34          35          36          37          38          39          40
 IAtWgt=           1           1           1           1           1           1           1           1           1           1
 AtmWgt=   1.0078250   1.0078250   1.0078250   1.0078250   1.0078250   1.0078250   1.0078250   1.0078250   1.0078250   1.0078250
 NucSpn=           1           1           1           1           1           1           1           1           1           1
 AtZEff=  -0.0000000  -0.0000000  -0.0000000  -0.0000000  -0.0000000  -0.0000000  -0.0000000  -0.0000000  -0.0000000  -0.0000000
 NQMom=    0.0000000   0.0000000   0.0000000   0.0000000   0.0000000   0.0000000   0.0000000   0.0000000   0.0000000   0.0000000
 NMagM=    2.7928460   2.7928460   2.7928460   2.7928460   2.7928460   2.7928460   2.7928460   2.7928460   2.7928460   2.7928460
 AtZNuc=   1.0000000   1.0000000   1.0000000   1.0000000   1.0000000   1.0000000   1.0000000   1.0000000   1.0000000   1.0000000
 Leave Link  101 at Sat Feb 10 10:39:41 2024, MaxMem=  4026531840 cpu:               3.6 elap:               0.5
 (Enter /sysapps/ubuntu-applications/gaussian/Gaussian/AVX2/g16/l103.exe)

 GradGradGradGradGradGradGradGradGradGradGradGradGradGradGradGradGradGrad
 Berny optimization.
 Initialization pass.
                           ----------------------------
                           !    Initial Parameters    !
                           ! (Angstroms and Degrees)  !
 --------------------------                            --------------------------
 ! Name  Definition              Value          Derivative Info.                !
 --------------------------------------------------------------------------------
 ! R1    R(1,2)                  1.4278         estimate D2E/DX2                !
 ! R2    R(1,6)                  1.5378         estimate D2E/DX2                !
 ! R3    R(1,7)                  1.2334         estimate D2E/DX2                !
 ! R4    R(2,3)                  1.3732         estimate D2E/DX2                !
 ! R5    R(2,19)                 1.0799         estimate D2E/DX2                !
 ! R6    R(3,4)                  1.5377         estimate D2E/DX2                !
 ! R7    R(3,10)                 1.3394         estimate D2E/DX2                !
 ! R8    R(4,5)                  1.4278         estimate D2E/DX2                !
 ! R9    R(4,8)                  1.2334         estimate D2E/DX2                !
 ! R10   R(5,6)                  1.3731         estimate D2E/DX2                !
 ! R11   R(5,20)                 1.0799         estimate D2E/DX2                !
 ! R12   R(6,9)                  1.3394         estimate D2E/DX2                !
 ! R13   R(9,11)                 1.4781         estimate D2E/DX2                !
 ! R14   R(9,21)                 1.0183         estimate D2E/DX2                !
 ! R15   R(10,15)                1.4781         estimate D2E/DX2                !
 ! R16   R(10,22)                1.0183         estimate D2E/DX2                !
 ! R17   R(11,12)                1.5372         estimate D2E/DX2                !
 ! R18   R(11,13)                1.5407         estimate D2E/DX2                !
 ! R19   R(11,14)                1.5407         estimate D2E/DX2                !
 ! R20   R(12,23)                1.0937         estimate D2E/DX2                !
 ! R21   R(12,24)                1.0917         estimate D2E/DX2                !
 ! R22   R(12,25)                1.0937         estimate D2E/DX2                !
 ! R23   R(13,26)                1.0927         estimate D2E/DX2                !
 ! R24   R(13,27)                1.0931         estimate D2E/DX2                !
 ! R25   R(13,28)                1.0903         estimate D2E/DX2                !
 ! R26   R(14,29)                1.0927         estimate D2E/DX2                !
 ! R27   R(14,30)                1.0903         estimate D2E/DX2                !
 ! R28   R(14,31)                1.0931         estimate D2E/DX2                !
 ! R29   R(15,16)                1.5406         estimate D2E/DX2                !
 ! R30   R(15,17)                1.5372         estimate D2E/DX2                !
 ! R31   R(15,18)                1.5407         estimate D2E/DX2                !
 ! R32   R(16,32)                1.0903         estimate D2E/DX2                !
 ! R33   R(16,33)                1.0927         estimate D2E/DX2                !
 ! R34   R(16,34)                1.0931         estimate D2E/DX2                !
 ! R35   R(17,35)                1.0937         estimate D2E/DX2                !
 ! R36   R(17,36)                1.0937         estimate D2E/DX2                !
 ! R37   R(17,37)                1.0917         estimate D2E/DX2                !
 ! R38   R(18,38)                1.0903         estimate D2E/DX2                !
 ! R39   R(18,39)                1.0931         estimate D2E/DX2                !
 ! R40   R(18,40)                1.0927         estimate D2E/DX2                !
 ! A1    A(2,1,6)              118.4592         estimate D2E/DX2                !
 ! A2    A(2,1,7)              123.9116         estimate D2E/DX2                !
 ! A3    A(6,1,7)              117.6292         estimate D2E/DX2                !
 ! A4    A(1,2,3)              121.4039         estimate D2E/DX2                !
 ! A5    A(1,2,19)             115.6306         estimate D2E/DX2                !
 ! A6    A(3,2,19)             122.9655         estimate D2E/DX2                !
 ! A7    A(2,3,4)              120.1363         estimate D2E/DX2                !
 ! A8    A(2,3,10)             128.7106         estimate D2E/DX2                !
 ! A9    A(4,3,10)             111.1531         estimate D2E/DX2                !
 ! A10   A(3,4,5)              118.4604         estimate D2E/DX2                !
 ! A11   A(3,4,8)              117.6305         estimate D2E/DX2                !
 ! A12   A(5,4,8)              123.9091         estimate D2E/DX2                !
 ! A13   A(4,5,6)              121.4032         estimate D2E/DX2                !
 ! A14   A(4,5,20)             115.6342         estimate D2E/DX2                !
 ! A15   A(6,5,20)             122.9627         estimate D2E/DX2                !
 ! A16   A(1,6,5)              120.1371         estimate D2E/DX2                !
 ! A17   A(1,6,9)              111.1518         estimate D2E/DX2                !
 ! A18   A(5,6,9)              128.7111         estimate D2E/DX2                !
 ! A19   A(6,9,11)             131.0187         estimate D2E/DX2                !
 ! A20   A(6,9,21)             111.3095         estimate D2E/DX2                !
 ! A21   A(11,9,21)            117.6718         estimate D2E/DX2                !
 ! A22   A(3,10,15)            131.0191         estimate D2E/DX2                !
 ! A23   A(3,10,22)            111.3117         estimate D2E/DX2                !
 ! A24   A(15,10,22)           117.6692         estimate D2E/DX2                !
 ! A25   A(9,11,12)            105.7875         estimate D2E/DX2                !
 ! A26   A(9,11,13)            110.6006         estimate D2E/DX2                !
 ! A27   A(9,11,14)            110.5928         estimate D2E/DX2                !
 ! A28   A(12,11,13)           109.2191         estimate D2E/DX2                !
 ! A29   A(12,11,14)           109.2207         estimate D2E/DX2                !
 ! A30   A(13,11,14)           111.256          estimate D2E/DX2                !
 ! A31   A(11,12,23)           110.9807         estimate D2E/DX2                !
 ! A32   A(11,12,24)           110.1607         estimate D2E/DX2                !
 ! A33   A(11,12,25)           110.9846         estimate D2E/DX2                !
 ! A34   A(23,12,24)           108.0499         estimate D2E/DX2                !
 ! A35   A(23,12,25)           108.5097         estimate D2E/DX2                !
 ! A36   A(24,12,25)           108.0528         estimate D2E/DX2                !
 ! A37   A(11,13,26)           110.4132         estimate D2E/DX2                !
 ! A38   A(11,13,27)           109.7858         estimate D2E/DX2                !
 ! A39   A(11,13,28)           112.2761         estimate D2E/DX2                !
 ! A40   A(26,13,27)           108.3292         estimate D2E/DX2                !
 ! A41   A(26,13,28)           108.026          estimate D2E/DX2                !
 ! A42   A(27,13,28)           107.8918         estimate D2E/DX2                !
 ! A43   A(11,14,29)           110.4128         estimate D2E/DX2                !
 ! A44   A(11,14,30)           112.2673         estimate D2E/DX2                !
 ! A45   A(11,14,31)           109.7956         estimate D2E/DX2                !
 ! A46   A(29,14,30)           108.0247         estimate D2E/DX2                !
 ! A47   A(29,14,31)           108.3286         estimate D2E/DX2                !
 ! A48   A(30,14,31)           107.8933         estimate D2E/DX2                !
 ! A49   A(10,15,16)           110.5967         estimate D2E/DX2                !
 ! A50   A(10,15,17)           105.7872         estimate D2E/DX2                !
 ! A51   A(10,15,18)           110.5975         estimate D2E/DX2                !
 ! A52   A(16,15,17)           109.2156         estimate D2E/DX2                !
 ! A53   A(16,15,18)           111.2566         estimate D2E/DX2                !
 ! A54   A(17,15,18)           109.223          estimate D2E/DX2                !
 ! A55   A(15,16,32)           112.2754         estimate D2E/DX2                !
 ! A56   A(15,16,33)           110.4141         estimate D2E/DX2                !
 ! A57   A(15,16,34)           109.7902         estimate D2E/DX2                !
 ! A58   A(32,16,33)           108.024          estimate D2E/DX2                !
 ! A59   A(32,16,34)           107.8912         estimate D2E/DX2                !
 ! A60   A(33,16,34)           108.3271         estimate D2E/DX2                !
 ! A61   A(15,17,35)           110.9805         estimate D2E/DX2                !
 ! A62   A(15,17,36)           110.985          estimate D2E/DX2                !
 ! A63   A(15,17,37)           110.1622         estimate D2E/DX2                !
 ! A64   A(35,17,36)           108.5097         estimate D2E/DX2                !
 ! A65   A(35,17,37)           108.051          estimate D2E/DX2                !
 ! A66   A(36,17,37)           108.0499         estimate D2E/DX2                !
 ! A67   A(15,18,38)           112.2721         estimate D2E/DX2                !
 ! A68   A(15,18,39)           109.7885         estimate D2E/DX2                !
 ! A69   A(15,18,40)           110.4116         estimate D2E/DX2                !
 ! A70   A(38,18,39)           107.893          estimate D2E/DX2                !
 ! A71   A(38,18,40)           108.0271         estimate D2E/DX2                !
 ! A72   A(39,18,40)           108.33           estimate D2E/DX2                !
 ! D1    D(6,1,2,3)             -0.0244         estimate D2E/DX2                !
 ! D2    D(6,1,2,19)           179.9981         estimate D2E/DX2                !
 ! D3    D(7,1,2,3)            179.9766         estimate D2E/DX2                !
 ! D4    D(7,1,2,19)            -0.0009         estimate D2E/DX2                !
 ! D5    D(2,1,6,5)              0.0337         estimate D2E/DX2                !
 ! D6    D(2,1,6,9)           -179.9708         estimate D2E/DX2                !
 ! D7    D(7,1,6,5)           -179.9672         estimate D2E/DX2                !
 ! D8    D(7,1,6,9)              0.0282         estimate D2E/DX2                !
 ! D9    D(1,2,3,4)              0.0076         estimate D2E/DX2                !
 ! D10   D(1,2,3,10)          -179.9799         estimate D2E/DX2                !
 ! D11   D(19,2,3,4)           179.9835         estimate D2E/DX2                !
 ! D12   D(19,2,3,10)           -0.004          estimate D2E/DX2                !
 ! D13   D(2,3,4,5)              0.0017         estimate D2E/DX2                !
 ! D14   D(2,3,4,8)            179.9993         estimate D2E/DX2                !
 ! D15   D(10,3,4,5)           179.9913         estimate D2E/DX2                !
 ! D16   D(10,3,4,8)            -0.0112         estimate D2E/DX2                !
 ! D17   D(2,3,10,15)           -0.0382         estimate D2E/DX2                !
 ! D18   D(2,3,10,22)          179.9864         estimate D2E/DX2                !
 ! D19   D(4,3,10,15)          179.9734         estimate D2E/DX2                !
 ! D20   D(4,3,10,22)           -0.002          estimate D2E/DX2                !
 ! D21   D(3,4,5,6)              0.008          estimate D2E/DX2                !
 ! D22   D(3,4,5,20)           179.9936         estimate D2E/DX2                !
 ! D23   D(8,4,5,6)           -179.9894         estimate D2E/DX2                !
 ! D24   D(8,4,5,20)            -0.0039         estimate D2E/DX2                !
 ! D25   D(4,5,6,1)             -0.0253         estimate D2E/DX2                !
 ! D26   D(4,5,6,9)            179.9801         estimate D2E/DX2                !
 ! D27   D(20,5,6,1)           179.9902         estimate D2E/DX2                !
 ! D28   D(20,5,6,9)            -0.0044         estimate D2E/DX2                !
 ! D29   D(1,6,9,11)          -179.9396         estimate D2E/DX2                !
 ! D30   D(1,6,9,21)            -0.0259         estimate D2E/DX2                !
 ! D31   D(5,6,9,11)             0.0553         estimate D2E/DX2                !
 ! D32   D(5,6,9,21)           179.9691         estimate D2E/DX2                !
 ! D33   D(6,9,11,12)          179.9979         estimate D2E/DX2                !
 ! D34   D(6,9,11,13)          -61.8553         estimate D2E/DX2                !
 ! D35   D(6,9,11,14)           61.8533         estimate D2E/DX2                !
 ! D36   D(21,9,11,12)           0.0886         estimate D2E/DX2                !
 ! D37   D(21,9,11,13)         118.2354         estimate D2E/DX2                !
 ! D38   D(21,9,11,14)        -118.056          estimate D2E/DX2                !
 ! D39   D(3,10,15,16)         -61.8397         estimate D2E/DX2                !
 ! D40   D(3,10,15,17)        -179.9801         estimate D2E/DX2                !
 ! D41   D(3,10,15,18)          61.8703         estimate D2E/DX2                !
 ! D42   D(22,10,15,16)        118.1345         estimate D2E/DX2                !
 ! D43   D(22,10,15,17)         -0.0059         estimate D2E/DX2                !
 ! D44   D(22,10,15,18)       -118.1556         estimate D2E/DX2                !
 ! D45   D(9,11,12,23)         -60.3659         estimate D2E/DX2                !
 ! D46   D(9,11,12,24)        -179.9895         estimate D2E/DX2                !
 ! D47   D(9,11,12,25)          60.3808         estimate D2E/DX2                !
 ! D48   D(13,11,12,23)       -179.4302         estimate D2E/DX2                !
 ! D49   D(13,11,12,24)         60.9462         estimate D2E/DX2                !
 ! D50   D(13,11,12,25)        -58.6835         estimate D2E/DX2                !
 ! D51   D(14,11,12,23)         58.69           estimate D2E/DX2                !
 ! D52   D(14,11,12,24)        -60.9336         estimate D2E/DX2                !
 ! D53   D(14,11,12,25)        179.4367         estimate D2E/DX2                !
 ! D54   D(9,11,13,26)         -57.6772         estimate D2E/DX2                !
 ! D55   D(9,11,13,27)        -177.0494         estimate D2E/DX2                !
 ! D56   D(9,11,13,28)          62.9377         estimate D2E/DX2                !
 ! D57   D(12,11,13,26)         58.3534         estimate D2E/DX2                !
 ! D58   D(12,11,13,27)        -61.0189         estimate D2E/DX2                !
 ! D59   D(12,11,13,28)        178.9683         estimate D2E/DX2                !
 ! D60   D(14,11,13,26)        178.9971         estimate D2E/DX2                !
 ! D61   D(14,11,13,27)         59.6248         estimate D2E/DX2                !
 ! D62   D(14,11,13,28)        -60.388          estimate D2E/DX2                !
 ! D63   D(9,11,14,29)          57.7243         estimate D2E/DX2                !
 ! D64   D(9,11,14,30)         -62.8827         estimate D2E/DX2                !
 ! D65   D(9,11,14,31)         177.1018         estimate D2E/DX2                !
 ! D66   D(12,11,14,29)        -58.3027         estimate D2E/DX2                !
 ! D67   D(12,11,14,30)       -178.9097         estimate D2E/DX2                !
 ! D68   D(12,11,14,31)         61.0747         estimate D2E/DX2                !
 ! D69   D(13,11,14,29)       -178.9455         estimate D2E/DX2                !
 ! D70   D(13,11,14,30)         60.4475         estimate D2E/DX2                !
 ! D71   D(13,11,14,31)        -59.568          estimate D2E/DX2                !
 ! D72   D(10,15,16,32)         62.9255         estimate D2E/DX2                !
 ! D73   D(10,15,16,33)        -57.6869         estimate D2E/DX2                !
 ! D74   D(10,15,16,34)       -177.0599         estimate D2E/DX2                !
 ! D75   D(17,15,16,32)        178.9514         estimate D2E/DX2                !
 ! D76   D(17,15,16,33)         58.3389         estimate D2E/DX2                !
 ! D77   D(17,15,16,34)        -61.0341         estimate D2E/DX2                !
 ! D78   D(18,15,16,32)        -60.404          estimate D2E/DX2                !
 ! D79   D(18,15,16,33)        178.9835         estimate D2E/DX2                !
 ! D80   D(18,15,16,34)         59.6105         estimate D2E/DX2                !
 ! D81   D(10,15,17,35)         60.3723         estimate D2E/DX2                !
 ! D82   D(10,15,17,36)        -60.3745         estimate D2E/DX2                !
 ! D83   D(10,15,17,37)        179.9982         estimate D2E/DX2                !
 ! D84   D(16,15,17,35)        -58.6854         estimate D2E/DX2                !
 ! D85   D(16,15,17,36)       -179.4322         estimate D2E/DX2                !
 ! D86   D(16,15,17,37)         60.9404         estimate D2E/DX2                !
 ! D87   D(18,15,17,35)        179.4349         estimate D2E/DX2                !
 ! D88   D(18,15,17,36)         58.688          estimate D2E/DX2                !
 ! D89   D(18,15,17,37)        -60.9393         estimate D2E/DX2                !
 ! D90   D(10,15,18,38)        -62.91           estimate D2E/DX2                !
 ! D91   D(10,15,18,39)        177.0764         estimate D2E/DX2                !
 ! D92   D(10,15,18,40)         57.7025         estimate D2E/DX2                !
 ! D93   D(16,15,18,38)         60.419          estimate D2E/DX2                !
 ! D94   D(16,15,18,39)        -59.5945         estimate D2E/DX2                !
 ! D95   D(16,15,18,40)       -178.9684         estimate D2E/DX2                !
 ! D96   D(17,15,18,38)       -178.9408         estimate D2E/DX2                !
 ! D97   D(17,15,18,39)         61.0457         estimate D2E/DX2                !
 ! D98   D(17,15,18,40)        -58.3282         estimate D2E/DX2                !
 --------------------------------------------------------------------------------
 Trust Radius=3.00D-01 FncErr=1.00D-07 GrdErr=1.00D-06 EigMax=2.50D+02 EigMin=1.00D-04
 Number of steps in this run=    220 maximum allowed number of steps=    240.
 GradGradGradGradGradGradGradGradGradGradGradGradGradGradGradGradGradGrad

 Leave Link  103 at Sat Feb 10 10:39:41 2024, MaxMem=  4026531840 cpu:               0.4 elap:               0.1
 (Enter /sysapps/ubuntu-applications/gaussian/Gaussian/AVX2/g16/l202.exe)
                          Input orientation:                          
 ---------------------------------------------------------------------
 Center     Atomic      Atomic             Coordinates (Angstroms)
 Number     Number       Type             X           Y           Z
 ---------------------------------------------------------------------
      1          6           0       -0.545974   -2.194782    1.001470
      2          6           0        0.841841   -2.492214    0.845751
      3          6           0        1.777751   -1.495111    0.721590
      4          6           0        1.342890   -0.020387    0.748474
      5          6           0       -0.044899    0.277061    0.904391
      6          6           0       -0.980776   -0.720035    1.028749
      7          8           0       -1.424857   -3.052443    1.116387
      8          8           0        2.221700    0.837301    0.633150
      9          7           0       -2.306908   -0.609889    1.180897
     10          7           0        3.103906   -1.605269    0.569637
     11          6           0       -3.178399    0.581136    1.262123
     12          6           0       -4.607506    0.042529    1.437054
     13          6           0       -2.807563    1.441805    2.484972
     14          6           0       -3.100706    1.399335   -0.041013
     15          6           0        3.975385   -2.796335    0.488143
     16          6           0        3.897239   -3.615224    1.790783
     17          6           0        5.404586   -2.257716    0.314111
     18          6           0        3.604911   -3.656319   -0.735314
     19          1           0        1.096056   -3.541639    0.832749
     20          1           0       -0.299189    1.326475    0.917247
     21          1           0       -2.749159   -1.524808    1.246159
     22          1           0        3.546123   -0.690398    0.503757
     23          1           0       -4.897248   -0.582310    0.587436
     24          1           0       -5.315890    0.870388    1.505238
     25          1           0       -4.692691   -0.552570    2.350735
     26          1           0       -2.884296    0.853438    3.402509
     27          1           0       -3.492916    2.289875    2.562107
     28          1           0       -1.792978    1.835824    2.420690
     29          1           0       -3.384092    0.781399   -0.896464
     30          1           0       -2.099587    1.790417   -0.224229
     31          1           0       -3.787985    2.247641    0.012960
     32          1           0        2.896280   -4.007065    1.973201
     33          1           0        4.179720   -2.997595    2.646759
     34          1           0        4.585087   -4.463072    1.736779
     35          1           0        5.694038   -1.633442    1.164241
     36          1           0        5.490174   -1.662037   -0.599159
     37          1           0        6.112957   -3.085561    0.245629
     38          1           0        2.590091   -4.049854   -0.671771
     39          1           0        4.289898   -4.504688   -0.812426
     40          1           0        3.682466   -3.067564   -1.652531
 ---------------------------------------------------------------------
                    Distance matrix (angstroms):
                    1          2          3          4          5
     1  C    0.000000
     2  C    1.427846   0.000000
     3  C    2.442861   1.373156   0.000000
     4  C    2.891333   2.523973   1.537738   0.000000
     5  C    2.523987   2.908372   2.548737   1.427846   0.000000
     6  C    1.537750   2.548733   2.881763   2.442844   1.373146
     7  O    1.233379   2.350536   3.582994   4.121789   3.610377
     8  O    4.121796   3.610385   2.375933   1.233384   2.350513
     9  N    2.375914   3.683760   4.204643   3.722301   2.445367
    10  N    3.722315   2.445373   1.339370   2.375923   3.683775
    11  C    3.834491   5.077517   5.400593   4.589959   3.168479
    12  C    4.657396   6.039035   6.606643   5.990435   4.599578
    13  C    4.532144   5.610856   5.723644   4.730718   3.389274
    14  C    4.531126   5.610185   5.723524   4.731220   3.389874
    15  C    4.589995   3.168512   2.564620   3.834539   5.077569
    16  C    4.731048   3.389645   3.182810   4.531441   5.610350
    17  C    5.990458   4.599595   3.728477   4.657433   6.039074
    18  C    4.730999   3.389611   3.183065   4.531928   5.610813
    19  H    2.130435   1.079855   2.159940   3.530899   3.986149
    20  H    3.530899   3.986157   3.509032   2.130480   1.079860
    21  H    2.315764   3.740519   4.557298   4.388147   3.267500
    22  H    4.388183   3.267513   1.955033   2.315823   3.740578
    23  H    4.658871   6.054057   6.738458   6.267457   4.938043
    24  H    5.692201   7.046961   7.518606   6.760586   5.338202
    25  H    4.659682   6.054605   6.738629   6.267272   4.937830
    26  H    4.530384   5.622677   5.868364   5.067206   3.825569
    27  H    5.588578   6.678650   6.744891   5.657879   4.322992
    28  H    4.451403   5.306092   5.170317   4.009426   2.790105
    29  H    4.529318   5.622310   5.869005   5.068830   3.827224
    30  H    4.449479   5.304506   5.169431   4.009465   2.790300
    31  H    5.587746   6.677953   6.744462   5.657810   4.323023
    32  H    4.009706   2.790455   3.021184   4.450458   5.305339
    33  H    5.067906   3.826287   3.425374   4.529333   5.621977
    34  H    5.658057   4.323205   4.209577   5.588026   6.678211
    35  H    6.267324   4.937888   3.943650   4.659109   6.054167
    36  H    6.267449   4.938012   3.943897   4.659516   6.054568
    37  H    6.760632   5.338246   4.642206   5.692248   7.047012
    38  H    4.009480   2.790250   3.021268   4.450754   5.305625
    39  H    5.657874   4.323043   4.209708   5.588401   6.678551
    40  H    5.068054   3.826433   3.425930   4.530312   5.622954
                    6          7          8          9         10
     6  C    0.000000
     7  O    2.375924   0.000000
     8  O    3.582966   5.353597   0.000000
     9  N    1.339368   2.597739   4.785674   0.000000
    10  N    4.204646   4.785702   2.597782   5.535461   0.000000
    11  C    2.564577   4.037208   5.442637   1.478051   6.687844
    12  C    3.728456   4.450948   6.922137   2.404998   7.933065
    13  C    3.182968   4.897261   5.393344   2.482079   6.920884
    14  C    3.182801   4.895546   5.394292   2.481967   6.920820
    15  C    5.400630   5.442692   4.037295   6.687874   1.478092
    16  C    5.723447   5.394093   4.896174   6.920653   2.482034
    17  C    6.606665   6.922177   4.451031   7.933082   2.405017
    18  C    5.723828   5.393703   4.896794   6.921142   2.482078
    19  H    3.509002   2.583557   4.525708   4.505167   2.801824
    20  H    2.159907   4.525672   2.583580   2.801777   4.505220
    21  H    1.955020   2.025904   5.537579   1.018294   5.892582
    22  H    4.557336   5.537618   2.026007   5.892620   1.018276
    23  H    3.943663   4.294048   7.259257   2.657596   8.066302
    24  H    4.642165   5.538948   7.587944   3.369034   8.825939
    25  H    3.943857   4.295546   7.258832   2.657775   8.066437
    26  H    3.425484   4.755231   5.808684   2.722180   7.066043
    27  H    4.209702   5.908243   6.203844   3.423885   7.915816
    28  H    3.021521   5.072659   4.506660   2.789753   6.264742
    29  H    3.425883   4.752738   5.811002   2.722395   7.066807
    30  H    3.020606   5.070089   4.507444   2.789055   6.263964
    31  H    4.209436   5.907014   6.204032   3.423908   7.915363
    32  H    5.169924   4.507511   5.071358   6.264321   2.789574
    33  H    5.868216   5.810020   4.753408   7.065850   2.722202
    34  H    6.744662   6.204368   5.907415   7.915530   3.423909
    35  H    6.738384   7.259099   4.294620   8.066169   2.657655
    36  H    6.738742   7.259062   4.295137   8.066604   2.657740
    37  H    7.518646   7.588014   5.539034   8.825973   3.369070
    38  H    5.170160   4.506900   5.071766   6.264690   2.789462
    39  H    6.744889   6.203850   5.907959   7.915848   3.423931
    40  H    5.869070   5.809637   4.754592   7.066900   2.722328
                   11         12         13         14         15
    11  C    0.000000
    12  C    1.537220   0.000000
    13  C    1.540659   2.509163   0.000000
    14  C    1.540665   2.509193   2.543292   0.000000
    15  C    7.948772   9.089862   8.243636   8.243465   0.000000
    16  C    8.243396   9.264716   8.426732   8.801847   1.540635
    17  C    9.089854  10.334124   9.264906   9.264995   1.537210
    18  C    8.243729   9.265228   8.802325   8.426565   1.540672
    19  H    5.954209   6.763288   6.542385   6.541368   2.994122
    20  H    2.994047   4.525518   2.960237   2.961768   5.954299
    21  H    2.149303   2.438532   3.215410   3.214189   6.885555
    22  H    6.885573   8.239532   6.988621   6.988855   2.149298
    23  H    2.182487   1.093721   3.473394   2.747622   9.145238
    24  H    2.170631   1.091699   2.752835   2.752765  10.040275
    25  H    2.182532   1.093715   2.747591   3.473443   9.145451
    26  H    2.177590   2.736794   1.092675   3.493234   8.298771
    27  H    2.169947   2.749294   1.093106   2.779051   9.270727
    28  H    2.199070   3.479226   1.090305   2.821464   7.646283
    29  H    2.177593   2.736417   3.493226   1.092680   8.299351
    30  H    2.198963   3.479171   2.821796   1.090299   7.645329
    31  H    2.170079   2.749941   2.778748   1.093110   9.270243
    32  H    7.645845   8.543622   7.904804   8.321662   2.199030
    33  H    8.298581   9.376624   8.279890   8.919737   2.177586
    34  H    9.270439  10.241779   9.490977   9.828518   2.169986
    35  H    9.145167  10.440551   9.136668   9.380719   2.182475
    36  H    9.145510  10.441018   9.380732   9.137108   2.182531
    37  H   10.040280  11.230885  10.251213  10.251246   2.170640
    38  H    7.646011   8.544012   8.322140   7.904220   2.199034
    39  H    9.270643  10.242126   9.828915   9.490711   2.169993
    40  H    8.299379   9.377732   8.920416   8.280193   2.177579
                   16         17         18         19         20
    16  C    0.000000
    17  C    2.509080   0.000000
    18  C    2.543287   2.509226   0.000000
    19  H    2.961397   4.525580   2.960798   0.000000
    20  H    6.541671   6.763375   6.542262   5.064818   0.000000
    21  H    6.988638   8.239504   6.988833   4.361673   3.773639
    22  H    3.214705   2.438511   3.214878   3.773677   4.361786
    23  H    9.380278  10.440760   9.137062   6.688610   4.989427
    24  H   10.251049  11.230869  10.251431   7.812252   5.071591
    25  H    9.136755  10.440803   9.381213   6.689425   4.988843
    26  H    8.279844   9.376729   8.920162   6.462474   3.617053
    27  H    9.491023  10.242051   9.829006   7.619442   3.719354
    28  H    7.905016   8.543985   8.322332   6.307550   2.179721
    29  H    8.920167   9.377770   8.280427   6.461467   3.619846
    30  H    8.321247   8.543407   7.903761   6.305566   2.181661
    31  H    9.828352  10.241694   9.490604   7.618509   3.719943
    32  H    1.090291   3.479138   2.821566   2.181297   6.306561
    33  H    1.092683   2.736597   3.493242   3.618784   6.461379
    34  H    1.093114   2.749392   2.779000   3.720168   7.618835
    35  H    2.747454   1.093719   3.473441   4.989243   6.688863
    36  H    3.473356   1.093719   2.747711   4.989142   6.689351
    37  H    2.752717   1.091699   2.752873   5.071687   7.812346
    38  H    2.821650   3.479239   1.090306   2.180368   6.306967
    39  H    2.778853   2.749636   1.093107   3.719501   7.619314
    40  H    3.493203   2.736646   1.092673   3.618132   6.462578
                   21         22         23         24         25
    21  H    0.000000
    22  H    6.393589   0.000000
    23  H    2.436494   8.444477   0.000000
    24  H    3.520255   9.053966   1.768602   0.000000
    25  H    2.437755   8.444429   1.775374   1.768630   0.000000
    26  H    3.213123   7.220560   3.746730   3.084246   2.520591
    27  H    4.103255   7.916243   3.757781   2.540699   3.092512
    28  H    3.686143   6.209865   4.341046   3.765771   3.757347
    29  H    3.211318   7.221820   2.520179   3.083494   3.746492
    30  H    3.684386   6.209545   3.757065   3.765915   4.340993
    31  H    4.102598   7.915939   3.093398   2.541301   3.758306
    32  H    6.209764   3.685355   8.624869   9.562859   8.346769
    33  H    7.220813   3.212018   9.615912  10.316539   9.207902
    34  H    7.916140   4.102787  10.309994  11.248500  10.086929
    35  H    8.444293   2.437029  10.658936  11.296192  10.510004
    36  H    8.444563   2.437179  10.510583  11.296578  10.659434
    37  H    9.053956   3.520238  11.296358  12.159551  11.296439
    38  H    6.209823   3.685350   8.346838   9.563090   8.625859
    39  H    7.916172   4.102968  10.087037  11.248741  10.310758
    40  H    7.221378   3.212333   9.208986  10.317431   9.617411
                   26         27         28         29         30
    26  H    0.000000
    27  H    1.772017   0.000000
    28  H    1.766359   1.765205   0.000000
    29  H    4.328528   3.774792   3.827136   0.000000
    30  H    3.827130   3.155074   2.663018   1.766344   0.000000
    31  H    3.774851   2.566515   3.153856   1.772018   1.765220
    32  H    7.686512   8.989999   7.505247   8.402823   7.962298
    33  H    8.080961   9.318468   7.686753   9.167687   8.402222
    34  H    9.318348  10.561136   8.990191   9.896780   9.361439
    35  H    9.207727  10.086950   8.346848   9.617193   8.625036
    36  H    9.616273  10.310534   8.625475   9.209309   8.346525
    37  H   10.316597  11.248741   9.563197  10.317543   9.562521
    38  H    8.403032   9.362324   7.963405   7.686505   7.503475
    39  H    9.896679  10.868567   9.362506   9.318793   8.988873
    40  H    9.167881   9.897042   8.403263   8.082227   7.685842
                   31         32         33         34         35
    31  H    0.000000
    32  H    9.361800   0.000000
    33  H    9.896147   1.766332   0.000000
    34  H   10.868006   1.765193   1.772007   0.000000
    35  H   10.310044   3.757120   2.520304   3.092633   0.000000
    36  H   10.086848   4.341023   3.746597   3.757870   1.775375
    37  H   11.248370   3.765725   3.083921   2.540758   1.768613
    38  H    8.989280   2.662979   3.827115   3.154659   4.341022
    39  H   10.560654   3.154286   3.774842   2.566576   3.758041
    40  H    9.318417   3.827099   4.328516   3.774863   3.746643
                   36         37         38         39         40
    36  H    0.000000
    37  H    1.768600   0.000000
    38  H    3.757316   3.765909   0.000000
    39  H    3.093026   2.541052   1.765220   0.000000
    40  H    2.520497   3.083930   1.766371   1.772026   0.000000
 Symmetry turned off by external request.
 Stoichiometry    C14H22N2O2
 Framework group  C1[X(C14H22N2O2)]
 Deg. of freedom   114
 Full point group                 C1      NOp   1
 Rotational constants (GHZ):           0.9806570           0.1919854           0.1730276
 Leave Link  202 at Sat Feb 10 10:39:41 2024, MaxMem=  4026531840 cpu:               0.4 elap:               0.1
 (Enter /sysapps/ubuntu-applications/gaussian/Gaussian/AVX2/g16/l301.exe)
 Standard basis: 6-311++G(d,p) (5D, 7F)
 Ernie: Thresh=  0.10000D-02 Tol=  0.10000D-05 Strict=F.
   550 basis functions,   846 primitive gaussians,   568 cartesian basis functions
    68 alpha electrons       68 beta electrons
       nuclear repulsion energy      1354.5381169887 Hartrees.
 IExCor=  402 DFT=T Ex+Corr=B3LYP ExCW=0 ScaHFX=  0.200000
 ScaDFX=  0.800000  0.720000  1.000000  0.810000 ScalE2=  1.000000  1.000000
 IRadAn=      5 IRanWt=     -1 IRanGd=            0 ICorTp=0 IEmpDi=  4
 NAtoms=   40 NActive=   40 NUniq=   40 SFac= 1.00D+00 NAtFMM=   60 NAOKFM=F Big=F
 Integral buffers will be    131072 words long.
 Raffenetti 2 integral format.
 Two-electron integral symmetry is turned off.
 ------------------------------------------------------------------------------
 Polarizable Continuum Model (PCM)
 =================================
 Model                : PCM.
 Atomic radii         : UFF (Universal Force Field).
 Polarization charges : Total charges.
 Charge compensation  : None.
 Solution method      : On-the-fly selection.
 Cavity type          : Scaled VdW (van der Waals Surface) (Alpha=1.100).
 Cavity algorithm     : GePol (No added spheres)
                        Default sphere list used, NSphG=   40.
                        Lebedev-Laikov grids with approx.  5.0 points / Ang**2.
                        Smoothing algorithm: York/Karplus (Gamma=1.0000).
                        Polarization charges: spherical gaussians, with
                                              point-specific exponents (IZeta= 3).
                        Self-potential: point-specific (ISelfS= 7).
                        Self-field    : sphere-specific E.n sum rule (ISelfD= 2).
 1st derivatives      : Analytical E(r).r(x)/FMM algorithm (CHGder, D1EAlg=3).
                        Cavity 1st derivative terms included.
 Solvent              : n,n-DiMethylFormamide, Eps=  37.219000 Eps(inf)=   2.046330
 ------------------------------------------------------------------------------
 GePol: Number of generator spheres                  =      40
 GePol: Total number of spheres                      =      40
 GePol: Number of exposed spheres                    =      40 (100.00%)
 GePol: Number of points                             =    2701
 GePol: Average weight of points                     =       0.13
 GePol: Minimum weight of points                     =   0.38D-10
 GePol: Maximum weight of points                     =    0.20577
 GePol: Number of points with low weight             =     209
 GePol: Fraction of low-weight points (<1% of avg)   =       7.74%
 GePol: Cavity surface area                          =    348.809 Ang**2
 GePol: Cavity volume                                =    381.712 Ang**3
 Leave Link  301 at Sat Feb 10 10:39:41 2024, MaxMem=  4026531840 cpu:               0.8 elap:               0.2
 (Enter /sysapps/ubuntu-applications/gaussian/Gaussian/AVX2/g16/l302.exe)
 NPDir=0 NMtPBC=     1 NCelOv=     1 NCel=       1 NClECP=     1 NCelD=      1
         NCelK=      1 NCelE2=     1 NClLst=     1 CellRange=     0.0.
 One-electron integrals computed using PRISM.
 NBasis=   550 RedAO= T EigKep=  1.34D-06  NBF=   550
 NBsUse=   548 1.00D-06 EigRej=  3.91D-07 NBFU=   548
 Precomputing XC quadrature grid using
 IXCGrd= 4 IRadAn=           5 IRanWt=          -1 IRanGd=           0 AccXCQ= 0.00D+00.
 Generated NRdTot=       0 NPtTot=           0 NUsed=           0 NTot=          32
 NSgBfM=   563   563   563   563   563 MxSgAt=    40 MxSgA2=    40.
 Leave Link  302 at Sat Feb 10 10:39:42 2024, MaxMem=  4026531840 cpu:               6.4 elap:               0.9
 (Enter /sysapps/ubuntu-applications/gaussian/Gaussian/AVX2/g16/l303.exe)
 DipDrv:  MaxL=1.
 Leave Link  303 at Sat Feb 10 10:39:43 2024, MaxMem=  4026531840 cpu:               0.9 elap:               0.2
 (Enter /sysapps/ubuntu-applications/gaussian/Gaussian/AVX2/g16/l401.exe)
 ExpMin= 3.60D-02 ExpMax= 8.59D+03 ExpMxC= 1.30D+03 IAcc=3 IRadAn=         5 AccDes= 0.00D+00
 Harris functional with IExCor=  402 and IRadAn=       5 diagonalized for initial guess.
 HarFok:  IExCor=  402 AccDes= 0.00D+00 IRadAn=         5 IDoV= 1 UseB2=F ITyADJ=14
 ICtDFT=  3500011 ScaDFX=  1.000000  1.000000  1.000000  1.000000
 FoFCou: FMM=F IPFlag=           0 FMFlag=      100000 FMFlg1=           0
         NFxFlg=           0 DoJE=T BraDBF=F KetDBF=T FulRan=T
         wScrn=  0.000000 ICntrl=       500 IOpCl=  0 I1Cent=   200000004 NGrid=           0
         NMat0=    1 NMatS0=      1 NMatT0=    0 NMatD0=    1 NMtDS0=    0 NMtDT0=    0
 Symmetry not used in FoFCou.
 Harris En= -807.043472120174    
 JPrj=0 DoOrth=F DoCkMO=F.
 Initial guess <Sx>= 0.0000 <Sy>= 0.0000 <Sz>= 0.0000 <S**2>=-0.0000 S=-0.0000
 Leave Link  401 at Sat Feb 10 10:39:48 2024, MaxMem=  4026531840 cpu:              42.3 elap:               5.3
 (Enter /sysapps/ubuntu-applications/gaussian/Gaussian/AVX2/g16/l502.exe)
 Two-electron integral symmetry not used.
 UHF open shell SCF:
 Using DIIS extrapolation, IDIIS=  1040.
 NGot=  4026531840 LenX=  4025877796 LenY=  4025554604
 Requested convergence on RMS density matrix=1.00D-08 within 128 cycles.
 Requested convergence on MAX density matrix=1.00D-06.
 Requested convergence on             energy=1.00D-06.
 No special actions if energy rises.
 Fock matrices will be formed incrementally for  20 cycles.

 Cycle   1  Pass 1  IDiag  1:
 FoFJK:  IHMeth= 1 ICntrl=       0 DoSepK=F KAlg= 0 I1Cent=           0 FoldK=F
 IRaf= 830000000 NMat=       1 IRICut=       1 DoRegI=T DoRafI=F ISym2E= 0 IDoP0=0 IntGTp=1.
 FoFCou: FMM=F IPFlag=           0 FMFlag=      100000 FMFlg1=           0
         NFxFlg=           0 DoJE=F BraDBF=F KetDBF=F FulRan=T
         wScrn=  0.000000 ICntrl=         0 IOpCl=  1 I1Cent=           0 NGrid=           0
         NMat0=    1 NMatS0=      1 NMatT0=    0 NMatD0=    1 NMtDS0=    0 NMtDT0=    0
 Symmetry not used in FoFCou.
 Inv3:  Mode=1 IEnd=    21886203.
 Iteration    1 A*A^-1 deviation from unit magnitude is 3.55D-15 for   1442.
 Iteration    1 A*A^-1 deviation from orthogonality  is 2.16D-15 for   2269   1036.
 Iteration    1 A^-1*A deviation from unit magnitude is 3.55D-15 for   1442.
 Iteration    1 A^-1*A deviation from orthogonality  is 2.37D-15 for   1240    384.
 E= -806.324449880402    
 DIIS: error= 4.02D-02 at cycle   1 NSaved=   1.
 NSaved= 1 IEnMin= 1 EnMin= -806.324449880402     IErMin= 1 ErrMin= 4.02D-02
 ErrMax= 4.02D-02  0.00D+00 EMaxC= 1.00D-01 BMatC= 2.94D+00 BMatP= 2.94D+00
 IDIUse=3 WtCom= 5.98D-01 WtEn= 4.02D-01
 Coeff-Com:  0.100D+01
 Coeff-En:   0.100D+01
 Coeff:      0.100D+01
 Gap=     0.073 Goal=   None    Shift=    0.000
 Gap=     0.073 Goal=   None    Shift=    0.000
 GapD=    0.073 DampG=0.500 DampE=0.500 DampFc=0.2500 IDamp=-1.
 Damping current iteration by 2.50D-01
 RMSDP=1.50D-02 MaxDP=1.43D+00              OVMax= 3.60D-01

 Cycle   2  Pass 1  IDiag  1:
 RMSU=  3.72D-03    CP:  9.90D-01
 E= -806.550588212467     Delta-E=       -0.226138332065 Rises=F Damp=T
 DIIS: error= 1.73D-02 at cycle   2 NSaved=   2.
 NSaved= 2 IEnMin= 2 EnMin= -806.550588212467     IErMin= 2 ErrMin= 1.73D-02
 ErrMax= 1.73D-02  0.00D+00 EMaxC= 1.00D-01 BMatC= 6.65D-01 BMatP= 2.94D+00
 IDIUse=3 WtCom= 8.27D-01 WtEn= 1.73D-01
 Coeff-Com: -0.683D+00 0.168D+01
 Coeff-En:   0.000D+00 0.100D+01
 Coeff:     -0.565D+00 0.156D+01
 Gap=     0.081 Goal=   None    Shift=    0.000
 Gap=     0.081 Goal=   None    Shift=    0.000
 RMSDP=8.91D-03 MaxDP=7.57D-01 DE=-2.26D-01 OVMax= 3.17D-01

 Cycle   3  Pass 1  IDiag  1:
 RMSU=  4.27D-03    CP:  7.98D-01  1.10D+00
 E= -806.868068993904     Delta-E=       -0.317480781437 Rises=F Damp=F
 DIIS: error= 2.12D-02 at cycle   3 NSaved=   3.
 NSaved= 3 IEnMin= 3 EnMin= -806.868068993904     IErMin= 2 ErrMin= 1.73D-02
 ErrMax= 2.12D-02  0.00D+00 EMaxC= 1.00D-01 BMatC= 3.78D-01 BMatP= 6.65D-01
 IDIUse=3 WtCom= 7.88D-01 WtEn= 2.12D-01
 Coeff-Com: -0.443D+00 0.102D+01 0.424D+00
 Coeff-En:   0.000D+00 0.000D+00 0.100D+01
 Coeff:     -0.349D+00 0.802D+00 0.547D+00
 Gap=     0.119 Goal=   None    Shift=    0.000
 Gap=     0.119 Goal=   None    Shift=    0.000
 RMSDP=3.76D-03 MaxDP=2.23D-01 DE=-3.17D-01 OVMax= 1.88D-01

 Cycle   4  Pass 1  IDiag  1:
 RMSU=  2.05D-03    CP:  8.56D-01  1.60D+00  7.79D-01
 E= -806.916452218746     Delta-E=       -0.048383224842 Rises=F Damp=F
 DIIS: error= 1.47D-02 at cycle   4 NSaved=   4.
 NSaved= 4 IEnMin= 4 EnMin= -806.916452218746     IErMin= 4 ErrMin= 1.47D-02
 ErrMax= 1.47D-02  0.00D+00 EMaxC= 1.00D-01 BMatC= 1.58D-01 BMatP= 3.78D-01
 IDIUse=3 WtCom= 8.53D-01 WtEn= 1.47D-01
 Coeff-Com: -0.409D-01 0.123D+00 0.381D+00 0.537D+00
 Coeff-En:   0.000D+00 0.000D+00 0.332D+00 0.668D+00
 Coeff:     -0.349D-01 0.105D+00 0.374D+00 0.556D+00
 Gap=     0.114 Goal=   None    Shift=    0.000
 Gap=     0.114 Goal=   None    Shift=    0.000
 RMSDP=2.38D-03 MaxDP=1.94D-01 DE=-4.84D-02 OVMax= 8.53D-02

 Cycle   5  Pass 1  IDiag  1:
 RMSU=  5.86D-04    CP:  8.10D-01  1.36D+00  8.46D-01  5.15D-01
 E= -806.948015925139     Delta-E=       -0.031563706393 Rises=F Damp=F
 DIIS: error= 2.54D-03 at cycle   5 NSaved=   5.
 NSaved= 5 IEnMin= 5 EnMin= -806.948015925139     IErMin= 5 ErrMin= 2.54D-03
 ErrMax= 2.54D-03  0.00D+00 EMaxC= 1.00D-01 BMatC= 4.22D-03 BMatP= 1.58D-01
 IDIUse=3 WtCom= 9.75D-01 WtEn= 2.54D-02
 Coeff-Com: -0.734D-04 0.102D-01 0.173D+00 0.305D+00 0.511D+00
 Coeff-En:   0.000D+00 0.000D+00 0.000D+00 0.000D+00 0.100D+01
 Coeff:     -0.715D-04 0.990D-02 0.169D+00 0.298D+00 0.524D+00
 Gap=     0.117 Goal=   None    Shift=    0.000
 Gap=     0.117 Goal=   None    Shift=    0.000
 RMSDP=3.87D-04 MaxDP=2.66D-02 DE=-3.16D-02 OVMax= 1.86D-02

 Cycle   6  Pass 1  IDiag  1:
 RMSU=  2.14D-04    CP:  8.04D-01  1.36D+00  8.70D-01  5.55D-01  8.08D-01
 E= -806.948890433135     Delta-E=       -0.000874507996 Rises=F Damp=F
 DIIS: error= 7.19D-04 at cycle   6 NSaved=   6.
 NSaved= 6 IEnMin= 6 EnMin= -806.948890433135     IErMin= 6 ErrMin= 7.19D-04
 ErrMax= 7.19D-04  0.00D+00 EMaxC= 1.00D-01 BMatC= 5.81D-04 BMatP= 4.22D-03
 IDIUse=3 WtCom= 9.93D-01 WtEn= 7.19D-03
 Coeff-Com:  0.318D-02-0.682D-02 0.461D-01 0.957D-01 0.321D+00 0.541D+00
 Coeff-En:   0.000D+00 0.000D+00 0.000D+00 0.000D+00 0.104D+00 0.896D+00
 Coeff:      0.316D-02-0.677D-02 0.457D-01 0.950D-01 0.320D+00 0.543D+00
 Gap=     0.118 Goal=   None    Shift=    0.000
 Gap=     0.118 Goal=   None    Shift=    0.000
 RMSDP=8.46D-05 MaxDP=5.94D-03 DE=-8.75D-04 OVMax= 4.38D-03

 Cycle   7  Pass 1  IDiag  1:
 RMSU=  6.08D-05    CP:  8.03D-01  1.35D+00  8.73D-01  5.63D-01  7.98D-01
                    CP:  7.88D-01
 E= -806.949004109807     Delta-E=       -0.000113676671 Rises=F Damp=F
 DIIS: error= 1.88D-04 at cycle   7 NSaved=   7.
 NSaved= 7 IEnMin= 7 EnMin= -806.949004109807     IErMin= 7 ErrMin= 1.88D-04
 ErrMax= 1.88D-04  0.00D+00 EMaxC= 1.00D-01 BMatC= 6.74D-05 BMatP= 5.81D-04
 IDIUse=3 WtCom= 9.98D-01 WtEn= 1.88D-03
 Coeff-Com:  0.715D-03-0.259D-02 0.739D-02 0.204D-01 0.143D+00 0.328D+00
 Coeff-Com:  0.504D+00
 Coeff-En:   0.000D+00 0.000D+00 0.000D+00 0.000D+00 0.000D+00 0.228D-01
 Coeff-En:   0.977D+00
 Coeff:      0.713D-03-0.259D-02 0.737D-02 0.204D-01 0.142D+00 0.327D+00
 Coeff:      0.504D+00
 Gap=     0.117 Goal=   None    Shift=    0.000
 Gap=     0.117 Goal=   None    Shift=    0.000
 RMSDP=3.74D-05 MaxDP=3.00D-03 DE=-1.14D-04 OVMax= 1.54D-03

 Cycle   8  Pass 1  IDiag  1:
 RMSU=  1.73D-05    CP:  8.03D-01  1.36D+00  8.71D-01  5.60D-01  8.21D-01
                    CP:  7.92D-01  6.33D-01
 E= -806.949018051231     Delta-E=       -0.000013941425 Rises=F Damp=F
 DIIS: error= 4.27D-05 at cycle   8 NSaved=   8.
 NSaved= 8 IEnMin= 8 EnMin= -806.949018051231     IErMin= 8 ErrMin= 4.27D-05
 ErrMax= 4.27D-05  0.00D+00 EMaxC= 1.00D-01 BMatC= 2.65D-06 BMatP= 6.74D-05
 IDIUse=1 WtCom= 1.00D+00 WtEn= 0.00D+00
 Coeff-Com: -0.105D-03-0.187D-03-0.268D-03 0.727D-03 0.387D-01 0.903D-01
 Coeff-Com:  0.217D+00 0.653D+00
 Coeff:     -0.105D-03-0.187D-03-0.268D-03 0.727D-03 0.387D-01 0.903D-01
 Coeff:      0.217D+00 0.653D+00
 Gap=     0.118 Goal=   None    Shift=    0.000
 Gap=     0.118 Goal=   None    Shift=    0.000
 RMSDP=9.08D-06 MaxDP=7.44D-04 DE=-1.39D-05 OVMax= 2.35D-04

 Cycle   9  Pass 1  IDiag  1:
 RMSU=  4.11D-06    CP:  8.04D-01  1.36D+00  8.71D-01  5.60D-01  8.22D-01
                    CP:  7.74D-01  6.92D-01  9.40D-01
 E= -806.949018593680     Delta-E=       -0.000000542449 Rises=F Damp=F
 DIIS: error= 2.11D-05 at cycle   9 NSaved=   9.
 NSaved= 9 IEnMin= 9 EnMin= -806.949018593680     IErMin= 9 ErrMin= 2.11D-05
 ErrMax= 2.11D-05  0.00D+00 EMaxC= 1.00D-01 BMatC= 3.37D-07 BMatP= 2.65D-06
 IDIUse=1 WtCom= 1.00D+00 WtEn= 0.00D+00
 Coeff-Com: -0.574D-04 0.462D-04-0.807D-03-0.176D-02 0.575D-02 0.911D-02
 Coeff-Com:  0.579D-01 0.314D+00 0.616D+00
 Coeff:     -0.574D-04 0.462D-04-0.807D-03-0.176D-02 0.575D-02 0.911D-02
 Coeff:      0.579D-01 0.314D+00 0.616D+00
 Gap=     0.118 Goal=   None    Shift=    0.000
 Gap=     0.118 Goal=   None    Shift=    0.000
 RMSDP=4.11D-06 MaxDP=3.51D-04 DE=-5.42D-07 OVMax= 1.32D-04

 Cycle  10  Pass 1  IDiag  1:
 RMSU=  1.17D-06    CP:  8.04D-01  1.36D+00  8.71D-01  5.60D-01  8.24D-01
                    CP:  7.77D-01  6.91D-01  9.64D-01  8.87D-01
 E= -806.949018669928     Delta-E=       -0.000000076248 Rises=F Damp=F
 DIIS: error= 3.36D-06 at cycle  10 NSaved=  10.
 NSaved=10 IEnMin=10 EnMin= -806.949018669928     IErMin=10 ErrMin= 3.36D-06
 ErrMax= 3.36D-06  0.00D+00 EMaxC= 1.00D-01 BMatC= 2.38D-08 BMatP= 3.37D-07
 IDIUse=1 WtCom= 1.00D+00 WtEn= 0.00D+00
 Coeff-Com: -0.710D-05 0.183D-04-0.218D-03-0.659D-03-0.292D-03-0.414D-02
 Coeff-Com:  0.698D-02 0.429D-01 0.187D+00 0.768D+00
 Coeff:     -0.710D-05 0.183D-04-0.218D-03-0.659D-03-0.292D-03-0.414D-02
 Coeff:      0.698D-02 0.429D-01 0.187D+00 0.768D+00
 Gap=     0.118 Goal=   None    Shift=    0.000
 Gap=     0.118 Goal=   None    Shift=    0.000
 RMSDP=1.20D-06 MaxDP=1.12D-04 DE=-7.62D-08 OVMax= 2.20D-05

 Cycle  11  Pass 1  IDiag  1:
 RMSU=  2.86D-07    CP:  8.04D-01  1.36D+00  8.71D-01  5.60D-01  8.24D-01
                    CP:  7.75D-01  7.01D-01  9.62D-01  9.37D-01  1.11D+00
 E= -806.949018675667     Delta-E=       -0.000000005739 Rises=F Damp=F
 DIIS: error= 1.71D-06 at cycle  11 NSaved=  11.
 NSaved=11 IEnMin=11 EnMin= -806.949018675667     IErMin=11 ErrMin= 1.71D-06
 ErrMax= 1.71D-06  0.00D+00 EMaxC= 1.00D-01 BMatC= 3.71D-09 BMatP= 2.38D-08
 IDIUse=1 WtCom= 1.00D+00 WtEn= 0.00D+00
 Coeff-Com:  0.501D-05 0.129D-05 0.330D-05-0.110D-03-0.793D-03-0.349D-02
 Coeff-Com: -0.328D-02-0.239D-01 0.142D-01 0.386D+00 0.632D+00
 Coeff:      0.501D-05 0.129D-05 0.330D-05-0.110D-03-0.793D-03-0.349D-02
 Coeff:     -0.328D-02-0.239D-01 0.142D-01 0.386D+00 0.632D+00
 Gap=     0.118 Goal=   None    Shift=    0.000
 Gap=     0.118 Goal=   None    Shift=    0.000
 RMSDP=3.06D-07 MaxDP=2.31D-05 DE=-5.74D-09 OVMax= 2.09D-05

 Cycle  12  Pass 1  IDiag  1:
 RMSU=  1.51D-07    CP:  8.04D-01  1.36D+00  8.71D-01  5.60D-01  8.24D-01
                    CP:  7.75D-01  7.02D-01  9.69D-01  9.44D-01  1.12D+00
                    CP:  1.00D+00
 E= -806.949018676547     Delta-E=       -0.000000000881 Rises=F Damp=F
 DIIS: error= 4.67D-07 at cycle  12 NSaved=  12.
 NSaved=12 IEnMin=12 EnMin= -806.949018676547     IErMin=12 ErrMin= 4.67D-07
 ErrMax= 4.67D-07  0.00D+00 EMaxC= 1.00D-01 BMatC= 3.37D-10 BMatP= 3.71D-09
 IDIUse=1 WtCom= 1.00D+00 WtEn= 0.00D+00
 Coeff-Com:  0.686D-05-0.890D-05 0.271D-04 0.276D-04-0.177D-03-0.669D-03
 Coeff-Com: -0.147D-02-0.131D-01-0.135D-01 0.196D-01 0.207D+00 0.803D+00
 Coeff:      0.686D-05-0.890D-05 0.271D-04 0.276D-04-0.177D-03-0.669D-03
 Coeff:     -0.147D-02-0.131D-01-0.135D-01 0.196D-01 0.207D+00 0.803D+00
 Gap=     0.118 Goal=   None    Shift=    0.000
 Gap=     0.118 Goal=   None    Shift=    0.000
 RMSDP=1.13D-07 MaxDP=7.67D-06 DE=-8.81D-10 OVMax= 5.28D-06

 Cycle  13  Pass 1  IDiag  1:
 RMSU=  4.08D-08    CP:  8.04D-01  1.36D+00  8.71D-01  5.60D-01  8.24D-01
                    CP:  7.74D-01  7.02D-01  9.67D-01  9.53D-01  1.15D+00
                    CP:  1.05D+00  9.36D-01
 E= -806.949018676621     Delta-E=       -0.000000000074 Rises=F Damp=F
 DIIS: error= 1.11D-07 at cycle  13 NSaved=  13.
 NSaved=13 IEnMin=13 EnMin= -806.949018676621     IErMin=13 ErrMin= 1.11D-07
 ErrMax= 1.11D-07  0.00D+00 EMaxC= 1.00D-01 BMatC= 1.64D-11 BMatP= 3.37D-10
 IDIUse=1 WtCom= 1.00D+00 WtEn= 0.00D+00
 Coeff-Com:  0.226D-05-0.320D-05 0.626D-05 0.844D-05 0.164D-04 0.608D-04
 Coeff-Com:  0.136D-04-0.133D-02-0.242D-02-0.207D-01 0.798D-02 0.134D+00
 Coeff-Com:  0.883D+00
 Coeff:      0.226D-05-0.320D-05 0.626D-05 0.844D-05 0.164D-04 0.608D-04
 Coeff:      0.136D-04-0.133D-02-0.242D-02-0.207D-01 0.798D-02 0.134D+00
 Coeff:      0.883D+00
 Gap=     0.118 Goal=   None    Shift=    0.000
 Gap=     0.118 Goal=   None    Shift=    0.000
 RMSDP=3.75D-08 MaxDP=2.95D-06 DE=-7.39D-11 OVMax= 7.82D-07

 Cycle  14  Pass 1  IDiag  1:
 RMSU=  8.89D-09    CP:  8.04D-01  1.36D+00  8.71D-01  5.60D-01  8.24D-01
                    CP:  7.74D-01  7.03D-01  9.67D-01  9.54D-01  1.15D+00
                    CP:  1.08D+00  9.61D-01  9.04D-01
 E= -806.949018676653     Delta-E=       -0.000000000032 Rises=F Damp=F
 DIIS: error= 3.97D-08 at cycle  14 NSaved=  14.
 NSaved=14 IEnMin=14 EnMin= -806.949018676653     IErMin=14 ErrMin= 3.97D-08
 ErrMax= 3.97D-08  0.00D+00 EMaxC= 1.00D-01 BMatC= 1.28D-12 BMatP= 1.64D-11
 IDIUse=1 WtCom= 1.00D+00 WtEn= 0.00D+00
 Coeff-Com:  0.103D-05-0.145D-05 0.220D-05 0.280D-05 0.148D-04 0.596D-04
 Coeff-Com:  0.765D-04-0.160D-03-0.644D-03-0.116D-01-0.401D-02 0.331D-01
 Coeff-Com:  0.445D+00 0.538D+00
 Coeff:      0.103D-05-0.145D-05 0.220D-05 0.280D-05 0.148D-04 0.596D-04
 Coeff:      0.765D-04-0.160D-03-0.644D-03-0.116D-01-0.401D-02 0.331D-01
 Coeff:      0.445D+00 0.538D+00
 Gap=     0.118 Goal=   None    Shift=    0.000
 Gap=     0.118 Goal=   None    Shift=    0.000
 RMSDP=4.89D-09 MaxDP=3.64D-07 DE=-3.16D-11 OVMax= 3.21D-07

 Error on total polarization charges =  0.01966
 SCF Done:  E(UB3LYP) =  -806.949018677     A.U. after   14 cycles
            NFock= 14  Conv=0.49D-08     -V/T= 2.0044
 <Sx>= 0.0000 <Sy>= 0.0000 <Sz>= 0.0000 <S**2>=-0.0000 S=-0.0000
 <L.S>=  0.00000000000    
 KE= 8.033799745592D+02 PE=-4.587341666169D+03 EE= 1.622474555944D+03
 Annihilation of the first spin contaminant:
 S**2 before annihilation    -0.0000,   after    -0.0000
 Leave Link  502 at Sat Feb 10 10:52:04 2024, MaxMem=  4026531840 cpu:            4145.3 elap:             736.3
 (Enter /sysapps/ubuntu-applications/gaussian/Gaussian/AVX2/g16/l601.exe)
 Copying SCF densities to generalized density rwf, IOpCl= 1 IROHF=0.

 **********************************************************************

            Population analysis using the SCF density.

 **********************************************************************

 Alpha  occ. eigenvalues --  -19.11631 -19.11631 -14.35521 -14.35520 -10.26922
 Alpha  occ. eigenvalues --  -10.26921 -10.24881 -10.24880 -10.23640 -10.23639
 Alpha  occ. eigenvalues --  -10.17172 -10.17171 -10.16852 -10.16852 -10.16600
 Alpha  occ. eigenvalues --  -10.16600 -10.16598 -10.16598  -1.05391  -1.05124
 Alpha  occ. eigenvalues --   -0.96493  -0.96481  -0.84263  -0.82047  -0.79727
 Alpha  occ. eigenvalues --   -0.75221  -0.70244  -0.70218  -0.69946  -0.69945
 Alpha  occ. eigenvalues --   -0.68395  -0.64290  -0.60833  -0.59781  -0.56536
 Alpha  occ. eigenvalues --   -0.54659  -0.52094  -0.50849  -0.48694  -0.47539
 Alpha  occ. eigenvalues --   -0.46608  -0.46211  -0.45102  -0.44584  -0.44461
 Alpha  occ. eigenvalues --   -0.44347  -0.44234  -0.43033  -0.41700  -0.40953
 Alpha  occ. eigenvalues --   -0.40243  -0.40240  -0.39392  -0.39361  -0.38314
 Alpha  occ. eigenvalues --   -0.37706  -0.37690  -0.36685  -0.36484  -0.36109
 Alpha  occ. eigenvalues --   -0.34562  -0.34463  -0.33606  -0.32692  -0.28399
 Alpha  occ. eigenvalues --   -0.27159  -0.24920  -0.22175
 Alpha virt. eigenvalues --   -0.10424  -0.01031  -0.00408  -0.00078   0.00883
 Alpha virt. eigenvalues --    0.01437   0.01862   0.01900   0.02135   0.02201
 Alpha virt. eigenvalues --    0.02899   0.03194   0.03541   0.03599   0.04111
 Alpha virt. eigenvalues --    0.04361   0.04715   0.05109   0.05136   0.06230
 Alpha virt. eigenvalues --    0.06442   0.06647   0.07154   0.07574   0.07864
 Alpha virt. eigenvalues --    0.07946   0.08486   0.09385   0.09426   0.09434
 Alpha virt. eigenvalues --    0.09647   0.10370   0.10685   0.10787   0.11453
 Alpha virt. eigenvalues --    0.11589   0.11898   0.12271   0.12363   0.12698
 Alpha virt. eigenvalues --    0.12789   0.13284   0.13471   0.13726   0.13819
 Alpha virt. eigenvalues --    0.14153   0.14184   0.14257   0.14267   0.14812
 Alpha virt. eigenvalues --    0.15010   0.15297   0.15379   0.15502   0.15947
 Alpha virt. eigenvalues --    0.16016   0.16508   0.16609   0.16643   0.16976
 Alpha virt. eigenvalues --    0.17380   0.17446   0.18162   0.18325   0.18516
 Alpha virt. eigenvalues --    0.18624   0.18657   0.19280   0.19326   0.19442
 Alpha virt. eigenvalues --    0.19541   0.19982   0.19990   0.20655   0.20661
 Alpha virt. eigenvalues --    0.20922   0.20997   0.21650   0.22269   0.22525
 Alpha virt. eigenvalues --    0.23175   0.23722   0.23993   0.24018   0.24634
 Alpha virt. eigenvalues --    0.24895   0.25639   0.26018   0.26765   0.27026
 Alpha virt. eigenvalues --    0.27208   0.27323   0.27736   0.27937   0.28191
 Alpha virt. eigenvalues --    0.28361   0.28410   0.29087   0.29145   0.29189
 Alpha virt. eigenvalues --    0.29654   0.29725   0.30783   0.30857   0.31468
 Alpha virt. eigenvalues --    0.31916   0.32515   0.32517   0.33202   0.33557
 Alpha virt. eigenvalues --    0.33761   0.34479   0.35385   0.35925   0.36034
 Alpha virt. eigenvalues --    0.36066   0.36615   0.36654   0.37028   0.37047
 Alpha virt. eigenvalues --    0.37512   0.38452   0.39996   0.40061   0.40190
 Alpha virt. eigenvalues --    0.41372   0.43266   0.44077   0.44631   0.45173
 Alpha virt. eigenvalues --    0.45519   0.45625   0.47250   0.48349   0.49141
 Alpha virt. eigenvalues --    0.49200   0.49473   0.50142   0.50632   0.50936
 Alpha virt. eigenvalues --    0.52872   0.53442   0.54313   0.54669   0.55139
 Alpha virt. eigenvalues --    0.56862   0.56928   0.57870   0.58444   0.58681
 Alpha virt. eigenvalues --    0.60456   0.60556   0.60825   0.61669   0.62136
 Alpha virt. eigenvalues --    0.62320   0.63235   0.63619   0.63783   0.64589
 Alpha virt. eigenvalues --    0.65059   0.65260   0.65571   0.65716   0.66014
 Alpha virt. eigenvalues --    0.67015   0.67865   0.68431   0.68604   0.68781
 Alpha virt. eigenvalues --    0.69304   0.69462   0.69489   0.70210   0.71272
 Alpha virt. eigenvalues --    0.71429   0.71859   0.72061   0.73376   0.73473
 Alpha virt. eigenvalues --    0.74137   0.75308   0.78982   0.79018   0.79364
 Alpha virt. eigenvalues --    0.79828   0.79922   0.80372   0.81559   0.81822
 Alpha virt. eigenvalues --    0.82091   0.83035   0.85319   0.86123   0.87077
 Alpha virt. eigenvalues --    0.87854   0.88432   0.88577   0.89879   0.89971
 Alpha virt. eigenvalues --    0.92047   0.93420   0.93875   0.94616   0.97460
 Alpha virt. eigenvalues --    0.98794   0.99174   1.00092   1.01222   1.01375
 Alpha virt. eigenvalues --    1.01629   1.01710   1.02336   1.03672   1.04315
 Alpha virt. eigenvalues --    1.05243   1.07003   1.08726   1.08939   1.11929
 Alpha virt. eigenvalues --    1.13464   1.13841   1.14237   1.15471   1.15520
 Alpha virt. eigenvalues --    1.16241   1.17056   1.21228   1.21757   1.23317
 Alpha virt. eigenvalues --    1.23873   1.24369   1.24508   1.26950   1.29754
 Alpha virt. eigenvalues --    1.30077   1.30812   1.31177   1.32870   1.33938
 Alpha virt. eigenvalues --    1.37497   1.42152   1.42396   1.43855   1.44597
 Alpha virt. eigenvalues --    1.44713   1.44973   1.45206   1.45994   1.46074
 Alpha virt. eigenvalues --    1.48253   1.48337   1.50282   1.51064   1.51156
 Alpha virt. eigenvalues --    1.51921   1.52414   1.53742   1.54569   1.54925
 Alpha virt. eigenvalues --    1.55687   1.55810   1.56292   1.58047   1.58157
 Alpha virt. eigenvalues --    1.59243   1.59406   1.62075   1.62090   1.63020
 Alpha virt. eigenvalues --    1.64572   1.65459   1.65631   1.66596   1.67177
 Alpha virt. eigenvalues --    1.67869   1.67911   1.68047   1.68791   1.69286
 Alpha virt. eigenvalues --    1.69799   1.70123   1.71347   1.73101   1.73999
 Alpha virt. eigenvalues --    1.74821   1.76308   1.76325   1.76814   1.77388
 Alpha virt. eigenvalues --    1.77914   1.78411   1.78727   1.79181   1.81019
 Alpha virt. eigenvalues --    1.82966   1.83127   1.83325   1.83537   1.87517
 Alpha virt. eigenvalues --    1.87698   1.89074   1.90643   1.92240   1.92869
 Alpha virt. eigenvalues --    1.94638   1.97556   1.98439   1.99752   2.00948
 Alpha virt. eigenvalues --    2.01651   2.03280   2.03482   2.04013   2.07476
 Alpha virt. eigenvalues --    2.08114   2.08747   2.09693   2.10386   2.11044
 Alpha virt. eigenvalues --    2.11460   2.12256   2.14086   2.15388   2.16752
 Alpha virt. eigenvalues --    2.19841   2.20015   2.20388   2.23085   2.23786
 Alpha virt. eigenvalues --    2.24745   2.26141   2.26680   2.26834   2.31289
 Alpha virt. eigenvalues --    2.34270   2.36466   2.37077   2.38138   2.43492
 Alpha virt. eigenvalues --    2.44451   2.44954   2.45803   2.46472   2.47121
 Alpha virt. eigenvalues --    2.47255   2.49011   2.50633   2.51463   2.51627
 Alpha virt. eigenvalues --    2.52701   2.52768   2.52829   2.53515   2.53848
 Alpha virt. eigenvalues --    2.53940   2.56660   2.56960   2.57152   2.57915
 Alpha virt. eigenvalues --    2.58182   2.59551   2.59551   2.61318   2.62688
 Alpha virt. eigenvalues --    2.63392   2.64149   2.64233   2.65793   2.66254
 Alpha virt. eigenvalues --    2.66855   2.73796   2.74757   2.74972   2.75788
 Alpha virt. eigenvalues --    2.75846   2.77719   2.78198   2.78289   2.78355
 Alpha virt. eigenvalues --    2.78516   2.78917   2.79273   2.79355   2.83609
 Alpha virt. eigenvalues --    2.83726   2.85486   2.87879   2.89691   2.90165
 Alpha virt. eigenvalues --    2.90981   2.91886   2.93674   2.94900   2.96376
 Alpha virt. eigenvalues --    2.97230   3.00464   3.00528   3.03187   3.04118
 Alpha virt. eigenvalues --    3.05428   3.06135   3.06761   3.07763   3.08928
 Alpha virt. eigenvalues --    3.12074   3.15759   3.18229   3.18769   3.24488
 Alpha virt. eigenvalues --    3.28880   3.29250   3.29357   3.32022   3.32929
 Alpha virt. eigenvalues --    3.35190   3.35882   3.39172   3.42884   3.43878
 Alpha virt. eigenvalues --    3.45767   3.50790   3.61033   3.61694   3.67371
 Alpha virt. eigenvalues --    3.72703   3.76575   3.76592   3.77853   3.77977
 Alpha virt. eigenvalues --    3.79140   3.79530   3.81340   3.81597   3.84044
 Alpha virt. eigenvalues --    3.84419   3.85933   3.86399   3.89921   3.89936
 Alpha virt. eigenvalues --    3.93335   3.94602   3.96566   4.00395   4.14135
 Alpha virt. eigenvalues --    4.17205   4.23835   4.28613   4.28921   4.28942
 Alpha virt. eigenvalues --    4.29036   4.71980   4.83153   4.84035   5.03490
 Alpha virt. eigenvalues --    5.06934   5.07123   5.12051   5.29361   5.30441
 Alpha virt. eigenvalues --    5.75718   5.82426  23.72072  23.76305  23.76998
 Alpha virt. eigenvalues --   23.77553  23.88010  23.96978  23.97006  23.97720
 Alpha virt. eigenvalues --   23.97842  23.99000  24.00138  24.00841  24.13281
 Alpha virt. eigenvalues --   24.17770  35.64051  35.66268  50.02409  50.04598
  Beta  occ. eigenvalues --  -19.11631 -19.11631 -14.35521 -14.35520 -10.26922
  Beta  occ. eigenvalues --  -10.26921 -10.24881 -10.24880 -10.23640 -10.23639
  Beta  occ. eigenvalues --  -10.17172 -10.17171 -10.16852 -10.16852 -10.16600
  Beta  occ. eigenvalues --  -10.16600 -10.16598 -10.16598  -1.05391  -1.05124
  Beta  occ. eigenvalues --   -0.96493  -0.96481  -0.84263  -0.82047  -0.79727
  Beta  occ. eigenvalues --   -0.75221  -0.70244  -0.70218  -0.69946  -0.69945
  Beta  occ. eigenvalues --   -0.68395  -0.64290  -0.60833  -0.59781  -0.56536
  Beta  occ. eigenvalues --   -0.54659  -0.52094  -0.50849  -0.48694  -0.47539
  Beta  occ. eigenvalues --   -0.46608  -0.46211  -0.45102  -0.44584  -0.44461
  Beta  occ. eigenvalues --   -0.44347  -0.44234  -0.43033  -0.41700  -0.40953
  Beta  occ. eigenvalues --   -0.40243  -0.40240  -0.39392  -0.39361  -0.38314
  Beta  occ. eigenvalues --   -0.37706  -0.37690  -0.36685  -0.36484  -0.36109
  Beta  occ. eigenvalues --   -0.34562  -0.34463  -0.33606  -0.32692  -0.28399
  Beta  occ. eigenvalues --   -0.27159  -0.24920  -0.22175
  Beta virt. eigenvalues --   -0.10424  -0.01031  -0.00408  -0.00078   0.00883
  Beta virt. eigenvalues --    0.01437   0.01862   0.01900   0.02135   0.02201
  Beta virt. eigenvalues --    0.02899   0.03194   0.03541   0.03599   0.04111
  Beta virt. eigenvalues --    0.04361   0.04715   0.05109   0.05136   0.06230
  Beta virt. eigenvalues --    0.06442   0.06647   0.07154   0.07574   0.07864
  Beta virt. eigenvalues --    0.07946   0.08486   0.09385   0.09426   0.09434
  Beta virt. eigenvalues --    0.09647   0.10370   0.10685   0.10787   0.11453
  Beta virt. eigenvalues --    0.11589   0.11898   0.12271   0.12363   0.12698
  Beta virt. eigenvalues --    0.12789   0.13284   0.13471   0.13726   0.13819
  Beta virt. eigenvalues --    0.14153   0.14184   0.14257   0.14267   0.14812
  Beta virt. eigenvalues --    0.15010   0.15297   0.15379   0.15502   0.15947
  Beta virt. eigenvalues --    0.16016   0.16508   0.16609   0.16643   0.16976
  Beta virt. eigenvalues --    0.17380   0.17446   0.18162   0.18325   0.18516
  Beta virt. eigenvalues --    0.18624   0.18657   0.19280   0.19326   0.19442
  Beta virt. eigenvalues --    0.19541   0.19982   0.19990   0.20655   0.20661
  Beta virt. eigenvalues --    0.20922   0.20997   0.21650   0.22269   0.22525
  Beta virt. eigenvalues --    0.23175   0.23722   0.23993   0.24018   0.24634
  Beta virt. eigenvalues --    0.24895   0.25639   0.26018   0.26765   0.27026
  Beta virt. eigenvalues --    0.27208   0.27323   0.27736   0.27937   0.28191
  Beta virt. eigenvalues --    0.28361   0.28410   0.29087   0.29145   0.29189
  Beta virt. eigenvalues --    0.29654   0.29725   0.30783   0.30857   0.31468
  Beta virt. eigenvalues --    0.31916   0.32515   0.32517   0.33202   0.33557
  Beta virt. eigenvalues --    0.33761   0.34479   0.35385   0.35925   0.36034
  Beta virt. eigenvalues --    0.36066   0.36615   0.36654   0.37028   0.37047
  Beta virt. eigenvalues --    0.37512   0.38452   0.39996   0.40061   0.40190
  Beta virt. eigenvalues --    0.41372   0.43266   0.44077   0.44631   0.45173
  Beta virt. eigenvalues --    0.45519   0.45625   0.47250   0.48349   0.49141
  Beta virt. eigenvalues --    0.49200   0.49473   0.50142   0.50632   0.50936
  Beta virt. eigenvalues --    0.52872   0.53442   0.54313   0.54669   0.55139
  Beta virt. eigenvalues --    0.56862   0.56928   0.57870   0.58444   0.58681
  Beta virt. eigenvalues --    0.60456   0.60556   0.60825   0.61669   0.62136
  Beta virt. eigenvalues --    0.62320   0.63235   0.63619   0.63783   0.64589
  Beta virt. eigenvalues --    0.65059   0.65260   0.65571   0.65716   0.66014
  Beta virt. eigenvalues --    0.67015   0.67865   0.68431   0.68604   0.68781
  Beta virt. eigenvalues --    0.69304   0.69462   0.69489   0.70210   0.71272
  Beta virt. eigenvalues --    0.71429   0.71859   0.72061   0.73376   0.73473
  Beta virt. eigenvalues --    0.74137   0.75308   0.78982   0.79018   0.79364
  Beta virt. eigenvalues --    0.79828   0.79922   0.80372   0.81559   0.81822
  Beta virt. eigenvalues --    0.82091   0.83035   0.85319   0.86123   0.87077
  Beta virt. eigenvalues --    0.87854   0.88432   0.88577   0.89879   0.89971
  Beta virt. eigenvalues --    0.92047   0.93420   0.93875   0.94616   0.97460
  Beta virt. eigenvalues --    0.98794   0.99174   1.00092   1.01222   1.01375
  Beta virt. eigenvalues --    1.01629   1.01710   1.02336   1.03672   1.04315
  Beta virt. eigenvalues --    1.05243   1.07003   1.08726   1.08939   1.11929
  Beta virt. eigenvalues --    1.13464   1.13841   1.14237   1.15471   1.15520
  Beta virt. eigenvalues --    1.16241   1.17056   1.21228   1.21757   1.23317
  Beta virt. eigenvalues --    1.23873   1.24369   1.24508   1.26950   1.29754
  Beta virt. eigenvalues --    1.30077   1.30812   1.31177   1.32870   1.33938
  Beta virt. eigenvalues --    1.37497   1.42152   1.42396   1.43855   1.44597
  Beta virt. eigenvalues --    1.44713   1.44973   1.45206   1.45994   1.46074
  Beta virt. eigenvalues --    1.48253   1.48337   1.50282   1.51064   1.51156
  Beta virt. eigenvalues --    1.51921   1.52414   1.53742   1.54569   1.54925
  Beta virt. eigenvalues --    1.55687   1.55810   1.56292   1.58047   1.58157
  Beta virt. eigenvalues --    1.59243   1.59406   1.62075   1.62090   1.63020
  Beta virt. eigenvalues --    1.64572   1.65459   1.65631   1.66596   1.67177
  Beta virt. eigenvalues --    1.67869   1.67911   1.68047   1.68791   1.69286
  Beta virt. eigenvalues --    1.69799   1.70123   1.71347   1.73101   1.73999
  Beta virt. eigenvalues --    1.74821   1.76308   1.76325   1.76814   1.77388
  Beta virt. eigenvalues --    1.77914   1.78411   1.78727   1.79181   1.81019
  Beta virt. eigenvalues --    1.82966   1.83127   1.83325   1.83537   1.87517
  Beta virt. eigenvalues --    1.87698   1.89074   1.90643   1.92240   1.92869
  Beta virt. eigenvalues --    1.94638   1.97556   1.98439   1.99752   2.00948
  Beta virt. eigenvalues --    2.01651   2.03280   2.03482   2.04013   2.07476
  Beta virt. eigenvalues --    2.08114   2.08747   2.09693   2.10386   2.11044
  Beta virt. eigenvalues --    2.11460   2.12256   2.14086   2.15388   2.16752
  Beta virt. eigenvalues --    2.19841   2.20015   2.20388   2.23085   2.23786
  Beta virt. eigenvalues --    2.24745   2.26141   2.26680   2.26834   2.31289
  Beta virt. eigenvalues --    2.34270   2.36466   2.37077   2.38138   2.43492
  Beta virt. eigenvalues --    2.44451   2.44954   2.45803   2.46472   2.47121
  Beta virt. eigenvalues --    2.47255   2.49011   2.50633   2.51463   2.51627
  Beta virt. eigenvalues --    2.52701   2.52768   2.52829   2.53515   2.53848
  Beta virt. eigenvalues --    2.53940   2.56660   2.56960   2.57152   2.57915
  Beta virt. eigenvalues --    2.58182   2.59551   2.59551   2.61318   2.62688
  Beta virt. eigenvalues --    2.63392   2.64149   2.64233   2.65793   2.66254
  Beta virt. eigenvalues --    2.66855   2.73796   2.74757   2.74972   2.75788
  Beta virt. eigenvalues --    2.75846   2.77719   2.78198   2.78289   2.78355
[...]
 59,0.00002224,-0.00001034,0.00000590,0.00000259,0.00000746,-0.00000526
 ,-0.00000034,0.00028616,0.00003701,-0.00001120,0.00000026,-0.00000078,
 -0.00000022,-0.00000238,0.00000041,0.00000018,0.00000033,-0.00000055,-
 0.00000013,0.00000007,-0.00000089,-0.00000003,-0.00000105,0.00000231,0
 .00000214,0.00000024,-0.00000204,-0.00000129,-0.00000072,-0.00000082,-
 0.00000032,0.00000044,-0.00000139,0.00000131,-0.00000134,0.00000235,-0
 .00000212,-0.00013391,-0.00005579,0.00094087,0.00010529,0.00010939,0.0
 0022714,-0.00000492,0.00035572,-0.00033204,0.00174087,0.01139221,-0.01
 559474,0.01181204,0.13148457,-0.00005873,-0.00004222,-0.00000557,-0.00
 002983,0.00004109,-0.00000024,-0.00001927,-0.00040744,0.00012139,0.000
 11745,0.00007692,-0.00001686,-0.00002240,-0.00003545,0.00000431,0.0000
 1387,0.00001125,-0.00000815,0.00002505,0.00001932,0.00000480,-0.000067
 37,-0.00005325,0.00002084,-0.00000723,-0.00000988,0.00000243,-0.000441
 39,-0.00000356,0.00061379,-0.00000045,0.00000173,-0.00000113,0.0000003
 3,-0.00000059,0.,0.00000037,-0.00000047,-0.00000022,0.00000044,-0.0000
 0033,0.00000009,-0.00051004,0.00142471,-0.00401408,0.00176402,0.000102
 76,0.00084823,0.01439868,0.11820727,-0.23024251,-0.00049555,-0.0007210
 0,0.00057592,-0.00002684,-0.00003190,-0.00000117,0.00000505,-0.0000029
 3,-0.00000085,-0.00000188,0.00000344,-0.00000085,0.00074509,-0.0003839
 4,-0.00054468,0.00000006,0.00000021,-0.00000005,0.00000028,-0.00000010
 ,-0.00000006,-0.00000018,-0.00000013,0.00000034,-0.00000028,-0.0000001
 3,0.00000041,0.00000050,-0.00000015,-0.00000010,0.,0.00000063,0.000000
 03,0.00000029,0.00000026,0.00000019,-0.00000051,0.00000019,-0.00000057
 ,0.00000035,0.,0.00000020,-0.00002690,0.00045568,-0.00010969,-0.000136
 96,-0.00010090,0.00037813,-0.00020940,-0.00004939,0.00005754,0.0016468
 2,0.01385165,-0.01925453,-0.01585408,-0.13036108,0.24814447,0.00088333
 ,0.00001966,-0.00010906,-0.00091144,-0.00018270,0.00010217,0.00144982,
 0.00187452,-0.00014555,-0.00037777,-0.00043831,0.00004543,-0.00007060,
 0.00023970,0.00000568,0.00016831,-0.00002495,-0.00001896,-0.00058133,-
 0.00033208,0.00007465,0.00001274,0.00033778,-0.00000521,-0.00013078,0.
 00004751,0.00001418,-0.00827113,-0.00151421,0.00108750,0.00005806,-0.0
 0005764,-0.00000583,-0.00000022,0.00001781,-0.00000023,-0.00001564,0.0
 0001542,-0.00000869,-0.00001347,0.00001590,0.00001144,-0.01669523,0.02
 353622,0.00133436,0.00084003,0.00120836,-0.00059816,-0.15565845,0.1284
 2280,0.01082382,0.00087575,0.00124390,0.00034120,0.00000638,-0.0000416
 0,0.00000290,-0.00006312,0.00003267,0.00000665,0.00002820,-0.00002372,
 -0.00000247,-0.00028396,-0.00077606,-0.00001741,0.00000126,-0.00000239
 ,-0.00000046,-0.00000798,0.00000138,0.00000090,0.00000110,-0.00000237,
 0.00000028,-0.00000125,-0.00000293,0.00000125,-0.00000372,0.00000780,0
 .00000792,0.00000039,-0.00000721,-0.00000556,-0.00000154,-0.00000287,-
 0.00000069,0.00000143,-0.00000712,0.00000539,-0.00000556,0.00000768,-0
 .00000712,0.00030096,-0.00025451,-0.00025859,0.00000111,-0.00011209,0.
 00003924,0.00022238,-0.00060368,0.00043624,0.00601428,-0.00714742,0.00
 031734,0.00174476,-0.00264285,-0.00086562,0.17015687,-0.00020134,-0.00
 000862,0.00002237,0.00035875,0.00008610,-0.00004478,-0.00078295,0.0007
 6137,0.00008707,-0.00021980,-0.00006167,0.00002654,0.00000991,0.000035
 56,-0.00000177,-0.00000889,0.00002158,0.00000091,0.00013219,0.00007648
 ,-0.00001616,0.00009322,-0.00003038,-0.00001075,0.00001326,-0.00001582
 ,-0.00000137,-0.00220320,-0.00000351,0.00026423,-0.00000909,0.00000981
 ,0.00000092,0.00000008,-0.00000316,0.00000004,0.00000303,-0.00000205,0
 .00000196,0.00000253,-0.00000212,-0.00000252,-0.00767850,0.00768827,0.
 00075717,-0.00016744,0.00028595,0.00001506,0.13302899,-0.20409391,-0.0
 1299216,-0.00016706,0.00030418,0.00001997,0.00000892,-0.00001369,0.000
 00010,-0.00001185,0.00000120,0.00000132,-0.00000745,0.00000820,0.00000
 063,-0.00073273,0.00040096,0.00006285,-0.00000020,0.00000043,0.0000001
 4,0.00000139,-0.00000037,-0.00000015,-0.00000016,0.00000042,-0.0000001
 0,-0.00000013,0.00000039,-0.00000014,0.00000034,-0.00000148,-0.0000012
 9,-0.00000020,0.00000060,0.00000016,-0.00000011,0.00000037,0.00000010,
 -0.00000019,0.00000063,-0.00000007,0.00000066,-0.00000148,0.00000122,0
 .00002631,0.00022859,-0.00017595,0.00003614,-0.00000919,0.00007454,-0.
 00027866,0.00027315,0.00008483,0.01080220,-0.01307675,-0.00010938,0.01
 004028,-0.01249898,-0.00188982,-0.14176019,0.21936880,-0.00010718,-0.0
 0000316,-0.00004968,0.00009374,0.00001953,-0.00007263,-0.00010207,-0.0
 0022087,0.00050516,0.00004272,0.00005095,-0.00004574,0.00000851,-0.000
 02823,0.00000652,-0.00001821,0.00000285,0.00000910,0.00006817,0.000037
 76,0.00001391,-0.00000259,-0.00003876,0.00000624,0.00001430,-0.0000053
 9,-0.00000472,0.00108491,0.00018899,0.00074000,-0.00000655,0.00000649,
 0.00000066,0.00000004,-0.00000201,0.00000015,0.00000200,-0.00000182,0.
 00000074,0.00000123,-0.00000173,-0.00000145,0.00181121,-0.00287101,-0.
 00220950,0.00030152,-0.00028744,-0.00004773,0.01074836,-0.01246211,-0.
 04656220,-0.00049356,-0.00000887,-0.00006276,0.00000274,0.00000544,0.0
 0003014,0.00000718,-0.00000383,-0.00000301,-0.00000322,0.00000268,-0.0
 0000013,-0.00002937,0.00008002,-0.00053869,-0.00000016,0.00000035,0.00
 000002,0.00000090,-0.00000015,-0.00000007,-0.00000012,0.00000018,-0.00
 000006,0.00000033,0.00000023,-0.00000026,0.00000059,-0.00000077,-0.000
 00103,0.00000025,0.00000045,0.00000053,-0.00000002,0.00000043,0.,-0.00
 000047,0.00000117,-0.00000066,0.00000044,-0.00000096,0.00000072,-0.000
 18493,-0.00000055,0.00000518,0.00005765,-0.00002801,0.00000362,0.00030
 782,0.00023942,-0.00003909,0.01714347,-0.01880820,-0.00095624,-0.01815
 115,0.02036003,0.00275373,-0.01228124,0.01380276,0.04649874,-0.0001876
 5,0.00026430,0.00015779,-0.00110334,0.00031687,0.00127467,-0.00039106,
 -0.00040578,-0.00001693,-0.00003956,0.00000475,-0.00007764,0.00000077,
 -0.00000986,0.00001264,-0.00010544,0.00001944,-0.00007493,0.00013082,0
 .00003729,-0.00000889,0.00005244,-0.00007640,0.00000813,0.00002207,0.0
 0002123,-0.00000641,0.00071625,-0.00025030,-0.00021161,-0.00001253,0.0
 0000263,0.00000221,-0.00000091,-0.00000055,-0.00000046,0.00000252,-0.0
 0000077,0.00000157,0.00000248,-0.00000290,-0.00000218,-0.00606347,-0.0
 0081418,0.00110375,0.00016251,0.00008397,0.00040814,0.00079938,-0.0010
 7995,-0.00201309,-0.27637242,-0.09147081,0.01725117,-0.00096337,0.0010
 1695,0.00127677,0.00001254,-0.00000343,0.00001605,-0.00000653,0.000004
 40,-0.00000046,-0.00000683,0.00000345,-0.00001975,0.00000007,0.0000001
 8,0.00000029,0.00000039,-0.00000020,0.00000025,0.00000002,0.00000024,0
 .,0.00000009,0.00000016,-0.00000002,0.00000002,-0.00000101,-0.00000086
 ,0.00000002,0.00000055,-0.00000004,0.00000077,0.00000019,0.00000042,0.
 00000020,0.00000049,-0.00000076,0.00000036,-0.00000105,0.00000144,0.00
 020441,0.00022578,-0.00045665,0.00017702,0.00002294,-0.00010555,-0.000
 00974,-0.00003478,-0.00002819,-0.00038175,-0.00034231,0.00010614,0.000
 06100,0.00007820,0.00014696,0.00037878,0.00007277,0.00009378,0.3013713
 3,0.00052588,0.00034860,0.00001696,0.00018803,-0.00023519,0.00018118,-
 0.00061934,-0.00054696,-0.00015761,0.00012364,-0.00039498,-0.00007565,
 -0.00014239,0.00007042,0.00001896,0.00001929,0.00007327,-0.00001377,-0
 .00026727,-0.00016918,0.00003082,0.00005070,0.00022282,-0.00000209,-0.
 00012181,0.00007612,0.00000665,0.00036249,0.00099117,0.00064276,0.0000
 3796,-0.00005483,-0.00001212,-0.00000165,0.00001639,0.00000074,-0.0000
 0926,0.00001128,-0.00000589,-0.00000996,0.00001203,0.00000935,-0.01717
 922,-0.00754602,0.00245930,0.00061127,0.00020484,0.00100442,0.00002401
 ,-0.00175563,-0.00350806,-0.08969048,-0.08211681,0.00704464,0.00030507
 ,0.00048573,-0.00047450,-0.00001089,0.00001589,0.00000560,0.00001543,-
 0.00000631,-0.00000026,-0.00003668,0.00001903,0.00018739,0.00000107,-0
 .00000142,-0.00000044,-0.00000721,0.00000060,0.00000045,0.00000053,-0.
 00000204,0.00000063,-0.00000056,-0.00000196,0.00000112,-0.00000340,0.0
 0000567,0.00000543,0.00000055,-0.00000688,-0.00000340,-0.00000083,-0.0
 0000107,-0.00000063,0.00000120,-0.00000576,0.00000342,-0.00000452,0.00
 000610,-0.00000540,0.00011902,0.00038640,-0.00029555,0.00013508,-0.000
 10815,0.00002174,0.00007892,0.00001834,-0.00003770,-0.00126238,-0.0001
 0382,-0.00017262,0.00037787,0.00019280,-0.00007323,-0.00023181,0.00023
 095,0.00005125,0.09980199,0.08557553,0.00024896,0.00030616,-0.00009846
 ,0.00074568,-0.00069220,-0.00046532,-0.00045791,-0.00022666,0.00010293
 ,0.00022021,-0.00028369,-0.00007636,-0.00011121,0.00002323,0.00001813,
 -0.00000367,0.00003527,0.00004787,-0.00013154,-0.00006871,0.00001659,0
 .00000827,0.00020430,-0.00000053,-0.00010374,0.00006611,0.00000429,0.0
 0072522,0.00137329,0.00093526,0.00002674,-0.00004397,-0.00000853,-0.00
 000111,0.00001339,0.00000049,-0.00000723,0.00000706,-0.00000479,-0.000
 00789,0.00000984,0.00000720,-0.02622317,-0.00810213,0.00209469,-0.0003
 9045,-0.00010701,0.00184737,-0.00042739,-0.00282610,-0.00419338,0.0193
 7438,0.00759392,-0.04933587,0.00143537,-0.00030046,-0.00102928,-0.0000
 0487,0.00000884,-0.00000135,0.00000918,0.00000072,0.00000509,-0.000071
 37,-0.00000224,0.00012688,0.00000039,-0.00000141,-0.00000060,-0.000005
 56,0.00000016,0.00000053,0.00000050,-0.00000129,0.00000003,-0.00000019
 ,-0.00000119,0.00000026,-0.00000187,0.00000429,0.00000398,-0.00000004,
 -0.00000340,-0.00000212,-0.00000149,-0.00000136,-0.00000100,0.00000143
 ,-0.00000352,0.00000334,-0.00000282,0.00000440,-0.00000457,0.00025949,
 0.00018169,-0.00050848,0.00026008,-0.00000480,0.00022606,0.00000442,0.
 00001454,-0.00007891,-0.00146263,-0.00088190,0.00027472,-0.00001877,-0
 .00022180,0.00016150,0.00018052,0.00015585,-0.00008672,-0.02102533,-0.
 00548064,0.05235148,0.00017693,0.00023493,0.00000449,-0.00004516,-0.00
 017970,0.00031970,-0.00048096,-0.00040673,-0.00018595,0.00005342,-0.00
 014968,0.00002954,-0.00008820,0.00004275,0.00000940,-0.00000529,0.0000
 5112,-0.00000845,-0.00008031,-0.00005693,0.00001554,-0.00000358,0.0000
 7114,-0.00000466,-0.00006721,0.00004396,0.00000168,0.00106599,-0.00175
 436,-0.00133311,0.00001783,-0.00003008,-0.00000618,-0.00000100,0.00000
 876,-0.00000031,-0.00000421,0.00000627,-0.00000299,-0.00000452,0.00000
 632,0.00000387,0.00344668,-0.00614020,-0.00077906,0.00005909,0.0001108
 7,0.00008541,0.00014437,-0.00054991,-0.00012763,-0.15426420,0.13036679
 ,0.01137508,0.00002781,0.00038186,-0.00013095,-0.00000577,0.00000771,0
 .00001018,0.00000552,0.00000130,0.00000239,0.00016762,-0.00017050,0.00
 007277,0.00000047,-0.00000083,-0.00000041,-0.00000372,0.00000034,0.000
 00059,0.00000030,-0.00000105,0.00000050,-0.00000032,-0.00000094,0.0000
 0091,-0.00000210,0.00000277,0.00000282,0.00000002,-0.00000340,-0.00000
 187,-0.00000014,-0.00000107,-0.00000002,0.00000034,-0.00000313,0.00000
 167,-0.00000219,0.00000295,-0.00000227,-0.00001384,0.00009106,-0.00002
 185,0.00006349,-0.00014432,0.00016518,0.00017211,-0.00014954,-0.000015
 14,0.00022545,0.00007598,0.00016536,-0.00001833,-0.00003944,0.00002784
 ,-0.00003109,-0.00042465,-0.00035356,-0.01779321,0.02322882,0.00156044
 ,0.16554009,-0.00111325,-0.00002186,0.00016854,0.00119724,0.00049677,0
 .00003826,-0.00307657,-0.00085411,0.00028355,-0.00004635,0.00011197,0.
 00015561,-0.00000118,-0.00011790,0.00000740,-0.00012089,0.00011255,-0.
 00000200,0.00071465,0.00041974,-0.00007796,0.00014007,-0.00030052,-0.0
 0000939,0.00008382,-0.00006136,-0.00001144,0.00114064,-0.00276107,-0.0
 0396870,-0.00005514,0.00005171,0.00000594,0.00000036,-0.00001714,0.000
 00004,0.00001661,-0.00001314,0.00000958,0.00001525,-0.00001464,-0.0000
 1317,0.01119970,-0.01356284,0.00090083,0.00030306,0.00027196,0.0009572
 5,0.00084409,0.00019566,0.00068240,0.12848171,-0.20060327,-0.01368119,
 -0.00000931,0.00009825,-0.00010361,0.00002492,-0.00002133,0.00000017,-
 0.00003792,0.00003953,0.00000278,0.00043067,-0.00016945,-0.00043324,-0
 .00000142,0.00000242,0.00000024,0.00000780,-0.00000148,-0.00000077,-0.
 00000114,0.00000231,-0.00000015,0.00000080,0.00000265,-0.00000104,0.00
 000277,-0.00000786,-0.00000773,-0.00000101,0.00000567,0.00000429,0.000
 00090,0.00000242,0.00000066,-0.00000197,0.00000615,-0.00000419,0.00000
 484,-0.00000789,0.00000754,-0.00004220,0.00002013,-0.00001175,-0.00026
 579,0.00015911,0.00004490,-0.00022205,0.00050685,-0.00016491,-0.000140
 43,0.00037989,0.00007070,-0.00006215,-0.00002812,-0.00008385,-0.000758
 75,0.00005506,-0.00013731,-0.00755959,0.01057038,0.00081253,-0.1414651
 8,0.21760823,-0.00088371,-0.00010945,0.00013289,0.00090313,0.00053092,
 -0.00016207,-0.00198590,-0.00088011,0.00026645,-0.00011707,0.00020631,
 0.00027253,0.00006345,-0.00009591,-0.00001388,-0.00013344,0.00006959,-
 0.00000435,0.00058030,0.00034527,-0.00005680,0.00016986,-0.00034318,-0
 .00001749,0.00012461,-0.00005591,-0.00001184,-0.00001929,-0.00455410,-
 0.00340075,-0.00005457,0.00005672,0.00001133,0.00000027,-0.00001801,0.
 00000039,0.00001542,-0.00001317,0.00000957,0.00001556,-0.00001515,-0.0
 0001312,0.01690010,-0.01843441,-0.00166594,0.00055364,0.00002957,0.000
 75504,0.00080678,0.00037524,0.00080536,0.00958138,-0.01149337,-0.04797
 622,0.00000272,-0.00003757,-0.00009552,0.00002535,-0.00002041,-0.00001
 001,-0.00003157,0.00002489,-0.00000274,0.00068367,-0.00038770,-0.00059
 477,-0.00000114,0.00000232,0.00000039,0.00000792,-0.00000129,-0.000001
 03,-0.00000130,0.00000214,-0.00000010,0.00000108,0.00000256,-0.0000010
 1,0.00000282,-0.00000773,-0.00000763,-0.00000086,0.00000544,0.00000398
 ,0.00000143,0.00000263,0.00000090,-0.00000243,0.00000609,-0.00000456,0
 .00000453,-0.00000806,0.00000785,0.00001670,0.00001745,-0.00007924,-0.
 00014756,0.00014366,0.00036629,-0.00018717,0.00016936,-0.00071326,0.00
 010362,0.00031264,-0.00002904,-0.00013169,0.00003050,0.00000623,-0.000
 47360,-0.00005758,0.00008996,0.00170132,-0.00194096,-0.00110292,-0.010
 06376,0.01638682,0.05025516,0.00010371,0.00016353,-0.00001435,-0.00020
 076,-0.00007161,0.00013691,-0.00021899,-0.00011172,0.00009440,0.000015
 98,-0.00001852,-0.00000285,-0.00000219,0.00000458,-0.00000161,-0.00005
 863,-0.00000710,-0.00000374,-0.00004707,-0.00003685,0.00001514,0.00001
 737,0.00003308,-0.00001002,-0.00000550,0.00003185,-0.00000284,0.000108
 40,0.00005062,0.00064223,0.00000173,-0.00000762,0.00000098,-0.00000128
 ,0.00000351,-0.00000032,-0.00000164,0.00000174,-0.00000145,-0.00000087
 ,0.00000136,0.00000172,-0.00134118,0.00501238,-0.00605369,-0.00009750,
 -0.00102461,-0.00116100,0.00033618,0.00065183,-0.00070691,-0.04849272,
 -0.01121523,0.01584930,0.00021655,0.00006293,-0.00020954,0.00000242,0.
 00000309,-0.00000226,0.00000517,-0.00000577,0.00000155,0.00006719,-0.0
 0005059,0.00004302,-0.00000028,-0.00000060,-0.00000009,-0.00000125,-0.
 00000013,0.00000033,0.00000007,0.00000007,-0.00000028,-0.00000017,0.00
 000044,0.00000066,-0.00000032,0.00000080,0.00000108,0.00000009,-0.0000
 0056,-0.00000018,-0.00000161,0.00000011,-0.00000081,0.00000092,-0.0000
 0062,0.00000107,-0.00000036,0.00000060,-0.00000113,0.00014637,0.000127
 77,-0.00024536,0.00048207,0.00010607,-0.00048999,0.00007911,-0.0002528
 4,0.00022647,0.00004631,0.00006518,0.00020260,-0.00011374,-0.00033121,
 -0.00011855,-0.00002163,0.00002381,-0.00005748,-0.00065845,-0.01640917
 ,0.02539896,0.00174780,0.01037238,-0.01803060,0.04788870,0.00034888,0.
 00008017,-0.00003046,-0.00039913,-0.00017017,0.00005736,0.00063190,0.0
 0016352,0.00003858,0.00004740,-0.00007252,-0.00003778,-0.00001543,0.00
 003035,-0.00000357,0.00001559,-0.00002518,-0.00000262,-0.00021489,-0.0
 0012838,0.00002458,-0.00002098,0.00010399,0.00000240,-0.00002954,0.000
 03234,-0.00000048,-0.00075666,0.00199779,0.00042768,0.00001696,-0.0000
 2059,-0.00000010,-0.00000018,0.00000667,0.00000048,-0.00000478,0.00000
 428,-0.00000345,-0.00000406,0.00000466,0.00000420,0.00133036,0.0084679
 2,-0.01709725,-0.00091124,-0.00165226,-0.00269966,0.00065624,0.0008062
 4,-0.00027607,-0.01027000,-0.12730421,0.12250900,0.00005039,0.00003953
 ,-0.00006009,-0.00000220,0.00000667,0.00000265,0.00001177,-0.00001256,
 -0.00000041,-0.00013905,0.00002073,-0.00001245,0.00000028,-0.00000086,
 -0.00000026,-0.00000292,0.00000039,0.00000023,0.00000048,-0.00000089,-
 0.00000013,0.00000044,-0.00000113,-0.00000031,-0.00000094,0.00000265,0
 .00000256,0.00000016,-0.00000196,-0.00000119,0.00000005,-0.00000178,-0
 .00000032,0.00000043,-0.00000107,0.00000128,-0.00000169,0.00000242,-0.
 00000240,0.00002889,-0.00010891,0.00001059,-0.00008354,0.00069614,-0.0
 0088720,-0.00017757,0.00014460,-0.00010054,0.00022107,0.00010143,0.000
 06730,-0.00006288,-0.00006130,0.00005463,-0.00010168,-0.00001583,0.000
 06021,0.00007510,-0.00647733,0.00843889,-0.00306403,-0.01255543,0.0197
 5395,0.01282703,0.13589988,-0.00002599,-0.00009267,0.00003994,-0.00004
 665,0.00007558,-0.00011171,0.00071826,-0.00020827,-0.00002968,0.000039
 65,0.00009485,-0.00003423,0.00002780,-0.00002747,-0.00000642,-0.000009
 07,-0.00000399,-0.00001867,0.00002233,0.00002061,0.00000098,-0.0000103
 5,-0.00005395,0.00000750,0.00003054,-0.00001267,-0.00000035,-0.0007398
 0,0.00120976,0.00206043,-0.00000721,0.00001119,0.00000185,0.00000042,-
 0.00000300,0.00000010,0.00000219,-0.00000235,0.00000092,0.00000228,-0.
 00000265,-0.00000173,0.00138306,0.01485199,-0.02294653,-0.00156710,-0.
 00464199,-0.00307309,0.00121317,0.00112095,0.00078404,0.01516103,0.119
 44928,-0.22709483,-0.00007991,-0.00009757,-0.00003676,0.00000835,-0.00
 000326,-0.00000109,-0.00000164,-0.00000155,-0.00000373,0.00013657,-0.0
 0015877,-0.00018354,0.00000006,0.00000055,0.00000018,0.00000125,-0.000
 00014,-0.00000026,-0.00000034,-0.00000003,0.00000041,0.00000066,-0.000
 00031,0.00000021,0.00000091,-0.00000104,-0.00000101,-0.00000002,0.0000
 0112,0.00000026,0.00000131,0.00000046,0.00000074,-0.00000091,0.0000009
 4,-0.00000129,0.00000048,-0.00000104,0.00000141,0.00012358,-0.00004195
 ,0.00026150,0.00001246,0.00080988,-0.00153974,-0.00009337,0.00002952,0
 .00035410,0.00015295,-0.00023351,0.00031110,-0.00059007,-0.00051202,0.
 00050674,-0.00003462,-0.00007671,0.00001726,0.00048624,0.00056773,-0.0
 0122954,-0.00081718,-0.00182763,0.00297995,-0.01550131,-0.13023985,0.2
 4898459\\-0.00001548,0.00001001,0.00000185,0.00001062,-0.00000768,-0.0
 0000382,-0.00002544,0.00000929,-0.00001739,0.00002417,-0.00000893,0.00
 007121,-0.00001304,0.00000730,-0.00001426,0.00002194,-0.00000955,-0.00
 001226,-0.00000246,0.00000712,-0.00000179,-0.00000109,-0.00000770,-0.0
 0002845,-0.00002515,0.00000614,0.00000652,0.00002567,-0.00000577,-0.00
 000418,-0.00000252,0.00000230,-0.00000410,0.00000365,0.00000078,-0.000
 00157,-0.00000156,-0.00000445,-0.00000308,-0.00000182,0.00000137,0.000
 00391,0.00000221,-0.00000236,0.00000256,0.00000172,-0.00000080,-0.0000
 0387,-0.00000377,-0.00000085,0.00000178,0.00000182,0.00000373,0.000002
 94,-0.00000627,0.00000469,-0.00000076,0.00000614,-0.00000461,0.0000022
 0,-0.00000127,-0.00000749,0.00000435,0.00000176,0.00000731,-0.00000076
 ,-0.00000035,-0.00000003,-0.00000076,-0.00000195,0.00000008,0.00000022
 ,-0.00000033,-0.00000052,0.00000003,0.00000074,-0.00000045,0.00000166,
 0.00000078,-0.00000267,0.00000015,0.00000401,-0.00000087,-0.00000006,0
 .00000091,0.00000057,-0.00000167,-0.00000450,0.00000026,-0.00000155,0.
 00000114,-0.00000210,0.00000024,0.00000363,-0.00000022,0.00000140,-0.0
 0000089,-0.00000054,0.00000163,-0.00000116,0.00000211,-0.00000028,0.00
 000020,0.,0.00000074,0.00000030,0.00000059,-0.00000005,0.00000192,-0.0
 0000016,-0.00000028,-0.00000278,0.00000094,-0.00000054,-0.00000073,0.0
 0000270,-0.00000025,-0.00000074,0.00000045,-0.00000166\\\@


 IT IS THE BEHAVIOR AND DISTRIBUTION OF THE ELECTRONS 
 AROUND THE NUCLEUS THAT GIVES THE FUNDAMENTAL 
 CHARACTER OF AN ATOM:  IT MUST BE THE SAME FOR MOLECULES.

                               -- C. A. COULSON, 1951
 Job cpu time:       0 days 18 hours 19 minutes 51.9 seconds.
 Elapsed time:       0 days  2 hours 28 minutes 33.7 seconds.
 File lengths (MBytes):  RWF=   2227 Int=      0 D2E=      0 Chk=     46 Scr=      1
 Normal termination of Gaussian 16 at Sat Feb 10 14:37:56 2024.
