 Entering Gaussian System, Link 0=g16
 Input=228-an.com
 Output=228-an.log
 Initial command:
 /sysapps/ubuntu-applications/gaussian/Gaussian/AVX2/g16/l1.exe "/scratch/selhajj1/4292484/Gau-223813.inp" -scrdir="/scratch/selhajj1/4292484/"
 Entering Link 1 = /sysapps/ubuntu-applications/gaussian/Gaussian/AVX2/g16/l1.exe PID=    223815.
  
 Copyright (c) 1988,1990,1992,1993,1995,1998,2003,2009,2016,
            Gaussian, Inc.  All Rights Reserved.
  
 This is part of the Gaussian(R) 16 program.  It is based on
 the Gaussian(R) 09 system (copyright 2009, Gaussian, Inc.),
 the Gaussian(R) 03 system (copyright 2003, Gaussian, Inc.),
 the Gaussian(R) 98 system (copyright 1998, Gaussian, Inc.),
 the Gaussian(R) 94 system (copyright 1995, Gaussian, Inc.),
 the Gaussian 92(TM) system (copyright 1992, Gaussian, Inc.),
 the Gaussian 90(TM) system (copyright 1990, Gaussian, Inc.),
 the Gaussian 88(TM) system (copyright 1988, Gaussian, Inc.),
 the Gaussian 86(TM) system (copyright 1986, Carnegie Mellon
 University), and the Gaussian 82(TM) system (copyright 1983,
 Carnegie Mellon University). Gaussian is a federally registered
 trademark of Gaussian, Inc.
  
 This software contains proprietary and confidential information,
 including trade secrets, belonging to Gaussian, Inc.
  
 This software is provided under written license and may be
 used, copied, transmitted, or stored only in accord with that
 written license.
  
 The following legend is applicable only to US Government
 contracts under FAR:
  
                    RESTRICTED RIGHTS LEGEND
  
 Use, reproduction and disclosure by the US Government is
 subject to restrictions as set forth in subparagraphs (a)
 and (c) of the Commercial Computer Software - Restricted
 Rights clause in FAR 52.227-19.
  
 Gaussian, Inc.
 340 Quinnipiac St., Bldg. 40, Wallingford CT 06492
  
  
 ---------------------------------------------------------------
 Warning -- This program may not be used in any manner that
 competes with the business of Gaussian, Inc. or will provide
 assistance to any competitor of Gaussian, Inc.  The licensee
 of this program is prohibited from giving any competitor of
 Gaussian, Inc. access to this program.  By using this program,
 the user acknowledges that Gaussian, Inc. is engaged in the
 business of creating and licensing software in the field of
 computational chemistry and represents and warrants to the
 licensee that it is not a competitor of Gaussian, Inc. and that
 it will not use this program in any manner prohibited above.
 ---------------------------------------------------------------
  

 Cite this work as:
 Gaussian 16, Revision A.03,
 M. J. Frisch, G. W. Trucks, H. B. Schlegel, G. E. Scuseria, 
 M. A. Robb, J. R. Cheeseman, G. Scalmani, V. Barone, 
 G. A. Petersson, H. Nakatsuji, X. Li, M. Caricato, A. V. Marenich, 
 J. Bloino, B. G. Janesko, R. Gomperts, B. Mennucci, H. P. Hratchian, 
 J. V. Ortiz, A. F. Izmaylov, J. L. Sonnenberg, D. Williams-Young, 
 F. Ding, F. Lipparini, F. Egidi, J. Goings, B. Peng, A. Petrone, 
 T. Henderson, D. Ranasinghe, V. G. Zakrzewski, J. Gao, N. Rega, 
 G. Zheng, W. Liang, M. Hada, M. Ehara, K. Toyota, R. Fukuda, 
 J. Hasegawa, M. Ishida, T. Nakajima, Y. Honda, O. Kitao, H. Nakai, 
 T. Vreven, K. Throssell, J. A. Montgomery, Jr., J. E. Peralta, 
 F. Ogliaro, M. J. Bearpark, J. J. Heyd, E. N. Brothers, K. N. Kudin, 
 V. N. Staroverov, T. A. Keith, R. Kobayashi, J. Normand, 
 K. Raghavachari, A. P. Rendell, J. C. Burant, S. S. Iyengar, 
 J. Tomasi, M. Cossi, J. M. Millam, M. Klene, C. Adamo, R. Cammi, 
 J. W. Ochterski, R. L. Martin, K. Morokuma, O. Farkas, 
 J. B. Foresman, and D. J. Fox, Gaussian, Inc., Wallingford CT, 2016.
 
 ******************************************
 Gaussian 16:  ES64L-G16RevA.03 25-Dec-2016
                15-Jan-2024 
 ******************************************
 %chk=228-an.chk
 %nproc=8
 Will use up to    8 processors via shared memory.
 %mem=30GB
 --------------------------------------
 #P UB3LYP/6-311++G(d,p) nosym opt freq
 --------------------------------------
 1/18=20,19=15,26=3,38=1/1,3;
 2/9=110,12=2,15=1,17=6,18=5,40=1/2;
 3/5=4,6=6,7=1111,11=2,25=1,30=1,71=1,74=-5,116=2/1,2,3;
 4//1;
 5/5=2,38=5/2;
 6/7=2,8=2,9=2,10=2,28=1/1;
 7/30=1/1,2,3,16;
 1/18=20,19=15,26=3/3(2);
 2/9=110,15=1/2;
 99//99;
 2/9=110,15=1/2;
 3/5=4,6=6,7=1111,11=2,25=1,30=1,71=1,74=-5,116=2/1,2,3;
 4/5=5,16=3,69=1/1;
 5/5=2,38=5/2;
 7/30=1/1,2,3,16;
 1/18=20,19=15,26=3/3(-5);
 2/9=110,15=1/2;
 6/7=2,8=2,9=2,10=2,19=2,28=1/1;
 99/9=1/99;
 Leave Link    1 at Mon Jan 15 16:49:49 2024, MaxMem=  4026531840 cpu:               0.9 elap:               0.1
 (Enter /sysapps/ubuntu-applications/gaussian/Gaussian/AVX2/g16/l101.exe)
 -------
 Reduced
 -------
 Symbolic Z-matrix:
 Charge = -2 Multiplicity = 1
 C                     5.77284  -5.13191   1.2397 
 C                     6.77924  -5.05245   0.30851 
 C                     6.68486  -4.08404  -0.75591 
 C                     4.62373  -4.29537   1.20839 
 C                     4.52937  -3.318     0.13352 
 C                     5.56063  -3.24775  -0.80743 
 C                     3.60599  -4.42911   2.21282 
 C                     2.49178  -3.52222   2.06895 
 C                     2.39074  -2.57256   1.03196 
 C                     3.39025  -2.41609   0.01685 
 O                     3.68091  -5.29669   3.17424 
 O                     3.28282  -1.54373  -0.92214 
 C                     7.711    -3.98759  -1.72367 
 N                     8.57607  -3.93306  -2.50794 
 H                     5.81907  -5.852     2.05111 
 H                     7.64555  -5.70596   0.35901 
 H                     5.45767  -2.50784  -1.59495 
 C                     1.41056  -3.65082   3.12097 
 C                     1.20995  -1.6366    0.90971 
 H                     1.71223  -4.44482   3.80827 
 H                     0.43128  -3.90911   2.68986 
 H                     1.26727  -2.72202   3.69405 
 H                     0.46268  -1.79166   1.69238 
 H                     0.72414  -1.75099  -0.06968 
 H                     1.53908  -0.58813   0.94058 
 
 ITRead=  0  0  0  0  0  0  0  0  0  0  0  0  0  0  0  0  0  0  0  0
 ITRead=  0  0  0  0  0
 MicOpt= -1 -1 -1 -1 -1 -1 -1 -1 -1 -1 -1 -1 -1 -1 -1 -1 -1 -1 -1 -1
 MicOpt= -1 -1 -1 -1 -1
 NAtoms=     25 NQM=       25 NQMF=       0 NMMI=      0 NMMIF=      0
                NMic=       0 NMicF=      0.
                    Isotopes and Nuclear Properties:
 (Nuclear quadrupole moments (NQMom) in fm**2, nuclear magnetic moments (NMagM)
  in nuclear magnetons)

  Atom         1           2           3           4           5           6           7           8           9          10
 IAtWgt=          12          12          12          12          12          12          12          12          12          12
 AtmWgt=  12.0000000  12.0000000  12.0000000  12.0000000  12.0000000  12.0000000  12.0000000  12.0000000  12.0000000  12.0000000
 NucSpn=           0           0           0           0           0           0           0           0           0           0
 AtZEff=  -0.0000000  -0.0000000  -0.0000000  -0.0000000  -0.0000000  -0.0000000  -0.0000000  -0.0000000  -0.0000000  -0.0000000
 NQMom=    0.0000000   0.0000000   0.0000000   0.0000000   0.0000000   0.0000000   0.0000000   0.0000000   0.0000000   0.0000000
 NMagM=    0.0000000   0.0000000   0.0000000   0.0000000   0.0000000   0.0000000   0.0000000   0.0000000   0.0000000   0.0000000
 AtZNuc=   6.0000000   6.0000000   6.0000000   6.0000000   6.0000000   6.0000000   6.0000000   6.0000000   6.0000000   6.0000000

  Atom        11          12          13          14          15          16          17          18          19          20
 IAtWgt=          16          16          12          14           1           1           1          12          12           1
 AtmWgt=  15.9949146  15.9949146  12.0000000  14.0030740   1.0078250   1.0078250   1.0078250  12.0000000  12.0000000   1.0078250
 NucSpn=           0           0           0           2           1           1           1           0           0           1
 AtZEff=  -0.0000000  -0.0000000  -0.0000000  -0.0000000  -0.0000000  -0.0000000  -0.0000000  -0.0000000  -0.0000000  -0.0000000
 NQMom=    0.0000000   0.0000000   0.0000000   2.0440000   0.0000000   0.0000000   0.0000000   0.0000000   0.0000000   0.0000000
 NMagM=    0.0000000   0.0000000   0.0000000   0.4037610   2.7928460   2.7928460   2.7928460   0.0000000   0.0000000   2.7928460
 AtZNuc=   8.0000000   8.0000000   6.0000000   7.0000000   1.0000000   1.0000000   1.0000000   6.0000000   6.0000000   1.0000000

  Atom        21          22          23          24          25
 IAtWgt=           1           1           1           1           1
 AtmWgt=   1.0078250   1.0078250   1.0078250   1.0078250   1.0078250
 NucSpn=           1           1           1           1           1
 AtZEff=  -0.0000000  -0.0000000  -0.0000000  -0.0000000  -0.0000000
 NQMom=    0.0000000   0.0000000   0.0000000   0.0000000   0.0000000
 NMagM=    2.7928460   2.7928460   2.7928460   2.7928460   2.7928460
 AtZNuc=   1.0000000   1.0000000   1.0000000   1.0000000   1.0000000
 Leave Link  101 at Mon Jan 15 16:49:50 2024, MaxMem=  4026531840 cpu:               6.1 elap:               0.8
 (Enter /sysapps/ubuntu-applications/gaussian/Gaussian/AVX2/g16/l103.exe)

 GradGradGradGradGradGradGradGradGradGradGradGradGradGradGradGradGradGrad
 Berny optimization.
 Initialization pass.
                           ----------------------------
                           !    Initial Parameters    !
                           ! (Angstroms and Degrees)  !
 --------------------------                            --------------------------
 ! Name  Definition              Value          Derivative Info.                !
 --------------------------------------------------------------------------------
 ! R1    R(1,2)                  1.3734         estimate D2E/DX2                !
 ! R2    R(1,4)                  1.4217         estimate D2E/DX2                !
 ! R3    R(1,15)                 1.0858         estimate D2E/DX2                !
 ! R4    R(2,3)                  1.4421         estimate D2E/DX2                !
 ! R5    R(2,16)                 1.0863         estimate D2E/DX2                !
 ! R6    R(3,6)                  1.4021         estimate D2E/DX2                !
 ! R7    R(3,13)                 1.4138         estimate D2E/DX2                !
 ! R8    R(4,5)                  1.4558         estimate D2E/DX2                !
 ! R9    R(4,7)                  1.4362         estimate D2E/DX2                !
 ! R10   R(5,6)                  1.3978         estimate D2E/DX2                !
 ! R11   R(5,10)                 1.4576         estimate D2E/DX2                !
 ! R12   R(6,17)                 1.0855         estimate D2E/DX2                !
 ! R13   R(7,8)                  1.4438         estimate D2E/DX2                !
 ! R14   R(7,11)                 1.2972         estimate D2E/DX2                !
 ! R15   R(8,9)                  1.4098         estimate D2E/DX2                !
 ! R16   R(8,18)                 1.514          estimate D2E/DX2                !
 ! R17   R(9,10)                 1.4332         estimate D2E/DX2                !
 ! R18   R(9,19)                 1.5117         estimate D2E/DX2                !
 ! R19   R(10,12)                1.2862         estimate D2E/DX2                !
 ! R20   R(13,14)                1.1689         estimate D2E/DX2                !
 ! R21   R(18,20)                1.0926         estimate D2E/DX2                !
 ! R22   R(18,21)                1.1007         estimate D2E/DX2                !
 ! R23   R(18,22)                1.1007         estimate D2E/DX2                !
 ! R24   R(19,23)                1.0932         estimate D2E/DX2                !
 ! R25   R(19,24)                1.0992         estimate D2E/DX2                !
 ! R26   R(19,25)                1.0994         estimate D2E/DX2                !
 ! A1    A(2,1,4)              122.9083         estimate D2E/DX2                !
 ! A2    A(2,1,15)             120.9186         estimate D2E/DX2                !
 ! A3    A(4,1,15)             116.1731         estimate D2E/DX2                !
 ! A4    A(1,2,3)              119.4275         estimate D2E/DX2                !
 ! A5    A(1,2,16)             121.2007         estimate D2E/DX2                !
 ! A6    A(3,2,16)             119.3717         estimate D2E/DX2                !
 ! A7    A(2,3,6)              118.6939         estimate D2E/DX2                !
 ! A8    A(2,3,13)             120.234          estimate D2E/DX2                !
 ! A9    A(6,3,13)             121.0721         estimate D2E/DX2                !
 ! A10   A(1,4,5)              117.6242         estimate D2E/DX2                !
 ! A11   A(1,4,7)              120.1705         estimate D2E/DX2                !
 ! A12   A(5,4,7)              122.2052         estimate D2E/DX2                !
 ! A13   A(4,5,6)              118.8769         estimate D2E/DX2                !
 ! A14   A(4,5,10)             121.6778         estimate D2E/DX2                !
 ! A15   A(6,5,10)             119.4453         estimate D2E/DX2                !
 ! A16   A(3,6,5)              122.4691         estimate D2E/DX2                !
 ! A17   A(3,6,17)             120.6166         estimate D2E/DX2                !
 ! A18   A(5,6,17)             116.9143         estimate D2E/DX2                !
 ! A19   A(4,7,8)              114.7517         estimate D2E/DX2                !
 ! A20   A(4,7,11)             122.6645         estimate D2E/DX2                !
 ! A21   A(8,7,11)             122.5839         estimate D2E/DX2                !
 ! A22   A(7,8,9)              123.4861         estimate D2E/DX2                !
 ! A23   A(7,8,18)             115.3729         estimate D2E/DX2                !
 ! A24   A(9,8,18)             121.141          estimate D2E/DX2                !
 ! A25   A(8,9,10)             122.9956         estimate D2E/DX2                !
 ! A26   A(8,9,19)             122.1776         estimate D2E/DX2                !
 ! A27   A(10,9,19)            114.8268         estimate D2E/DX2                !
 ! A28   A(5,10,9)             114.8837         estimate D2E/DX2                !
 ! A29   A(5,10,12)            122.9143         estimate D2E/DX2                !
 ! A30   A(9,10,12)            122.202          estimate D2E/DX2                !
 ! A31   A(8,18,20)            107.5561         estimate D2E/DX2                !
 ! A32   A(8,18,21)            112.5278         estimate D2E/DX2                !
 ! A33   A(8,18,22)            112.523          estimate D2E/DX2                !
 ! A34   A(20,18,21)           108.7526         estimate D2E/DX2                !
 ! A35   A(20,18,22)           108.7612         estimate D2E/DX2                !
 ! A36   A(21,18,22)           106.6247         estimate D2E/DX2                !
 ! A37   A(9,19,23)            112.844          estimate D2E/DX2                !
 ! A38   A(9,19,24)            110.6607         estimate D2E/DX2                !
 ! A39   A(9,19,25)            110.7543         estimate D2E/DX2                !
 ! A40   A(23,19,24)           108.7257         estimate D2E/DX2                !
 ! A41   A(23,19,25)           108.6529         estimate D2E/DX2                !
 ! A42   A(24,19,25)           104.8674         estimate D2E/DX2                !
 ! A43   L(3,13,14,16,-1)      178.3274         estimate D2E/DX2                !
 ! A44   L(3,13,14,16,-2)      179.9996         estimate D2E/DX2                !
 ! D1    D(4,1,2,3)              0.0041         estimate D2E/DX2                !
 ! D2    D(4,1,2,16)          -179.9978         estimate D2E/DX2                !
 ! D3    D(15,1,2,3)          -179.9996         estimate D2E/DX2                !
 ! D4    D(15,1,2,16)           -0.0014         estimate D2E/DX2                !
 ! D5    D(2,1,4,5)             -0.0072         estimate D2E/DX2                !
 ! D6    D(2,1,4,7)            179.9926         estimate D2E/DX2                !
 ! D7    D(15,1,4,5)           179.9963         estimate D2E/DX2                !
 ! D8    D(15,1,4,7)            -0.004          estimate D2E/DX2                !
 ! D9    D(1,2,3,6)              0.001          estimate D2E/DX2                !
 ! D10   D(1,2,3,13)          -179.9974         estimate D2E/DX2                !
 ! D11   D(16,2,3,6)          -179.9972         estimate D2E/DX2                !
 ! D12   D(16,2,3,13)            0.0044         estimate D2E/DX2                !
 ! D13   D(2,3,6,5)             -0.0027         estimate D2E/DX2                !
 ! D14   D(2,3,6,17)           179.9976         estimate D2E/DX2                !
 ! D15   D(13,3,6,5)           179.9957         estimate D2E/DX2                !
 ! D16   D(13,3,6,17)           -0.004          estimate D2E/DX2                !
 ! D17   D(1,4,5,6)              0.0052         estimate D2E/DX2                !
 ! D18   D(1,4,5,10)          -179.9977         estimate D2E/DX2                !
 ! D19   D(7,4,5,6)           -179.9944         estimate D2E/DX2                !
 ! D20   D(7,4,5,10)             0.0026         estimate D2E/DX2                !
 ! D21   D(1,4,7,8)           -179.9873         estimate D2E/DX2                !
 ! D22   D(1,4,7,11)            -0.0015         estimate D2E/DX2                !
 ! D23   D(5,4,7,8)              0.0124         estimate D2E/DX2                !
 ! D24   D(5,4,7,11)           179.9982         estimate D2E/DX2                !
 ! D25   D(4,5,6,3)             -0.0005         estimate D2E/DX2                !
 ! D26   D(4,5,6,17)           179.9992         estimate D2E/DX2                !
 ! D27   D(10,5,6,3)          -179.9976         estimate D2E/DX2                !
 ! D28   D(10,5,6,17)            0.0021         estimate D2E/DX2                !
 ! D29   D(4,5,10,9)            -0.0266         estimate D2E/DX2                !
 ! D30   D(4,5,10,12)          179.9671         estimate D2E/DX2                !
 ! D31   D(6,5,10,9)           179.9705         estimate D2E/DX2                !
 ! D32   D(6,5,10,12)           -0.0359         estimate D2E/DX2                !
 ! D33   D(4,7,8,9)             -0.0025         estimate D2E/DX2                !
 ! D34   D(4,7,8,18)          -179.9791         estimate D2E/DX2                !
 ! D35   D(11,7,8,9)          -179.9883         estimate D2E/DX2                !
 ! D36   D(11,7,8,18)            0.0351         estimate D2E/DX2                !
 ! D37   D(7,8,9,10)            -0.0237         estimate D2E/DX2                !
 ! D38   D(7,8,9,19)          -179.9861         estimate D2E/DX2                !
 ! D39   D(18,8,9,10)          179.9516         estimate D2E/DX2                !
 ! D40   D(18,8,9,19)           -0.0107         estimate D2E/DX2                !
 ! D41   D(7,8,18,20)            0.012          estimate D2E/DX2                !
 ! D42   D(7,8,18,21)         -119.7415         estimate D2E/DX2                !
 ! D43   D(7,8,18,22)          119.7734         estimate D2E/DX2                !
 ! D44   D(9,8,18,20)         -179.9652         estimate D2E/DX2                !
 ! D45   D(9,8,18,21)           60.2813         estimate D2E/DX2                !
 ! D46   D(9,8,18,22)          -60.2039         estimate D2E/DX2                !
 ! D47   D(8,9,10,5)             0.0369         estimate D2E/DX2                !
 ! D48   D(8,9,10,12)         -179.9568         estimate D2E/DX2                !
 ! D49   D(19,9,10,5)         -179.9982         estimate D2E/DX2                !
 ! D50   D(19,9,10,12)           0.0081         estimate D2E/DX2                !
 ! D51   D(8,9,19,23)           -0.7205         estimate D2E/DX2                !
 ! D52   D(8,9,19,24)         -122.8042         estimate D2E/DX2                !
 ! D53   D(8,9,19,25)          121.3376         estimate D2E/DX2                !
 ! D54   D(10,9,19,23)         179.3143         estimate D2E/DX2                !
 ! D55   D(10,9,19,24)          57.2306         estimate D2E/DX2                !
 ! D56   D(10,9,19,25)         -58.6276         estimate D2E/DX2                !
 --------------------------------------------------------------------------------
 Trust Radius=3.00D-01 FncErr=1.00D-07 GrdErr=1.00D-06 EigMax=2.50D+02 EigMin=1.00D-04
 Number of steps in this run=    136 maximum allowed number of steps=    150.
 GradGradGradGradGradGradGradGradGradGradGradGradGradGradGradGradGradGrad

 Leave Link  103 at Mon Jan 15 16:49:50 2024, MaxMem=  4026531840 cpu:               0.4 elap:               0.1
 (Enter /sysapps/ubuntu-applications/gaussian/Gaussian/AVX2/g16/l202.exe)
                          Input orientation:                          
 ---------------------------------------------------------------------
 Center     Atomic      Atomic             Coordinates (Angstroms)
 Number     Number       Type             X           Y           Z
 ---------------------------------------------------------------------
      1          6           0        5.772836   -5.131912    1.239704
      2          6           0        6.779243   -5.052453    0.308509
      3          6           0        6.684856   -4.084037   -0.755906
      4          6           0        4.623730   -4.295365    1.208391
      5          6           0        4.529370   -3.318001    0.133518
      6          6           0        5.560634   -3.247751   -0.807431
      7          6           0        3.605986   -4.429114    2.212819
      8          6           0        2.491783   -3.522220    2.068948
      9          6           0        2.390741   -2.572557    1.031957
     10          6           0        3.390247   -2.416086    0.016849
     11          8           0        3.680910   -5.296692    3.174242
     12          8           0        3.282819   -1.543731   -0.922144
     13          6           0        7.711001   -3.987594   -1.723667
     14          7           0        8.576073   -3.933056   -2.507940
     15          1           0        5.819069   -5.851996    2.051110
     16          1           0        7.645552   -5.705960    0.359008
     17          1           0        5.457665   -2.507839   -1.594948
     18          6           0        1.410560   -3.650820    3.120972
     19          6           0        1.209949   -1.636601    0.909708
     20          1           0        1.712227   -4.444821    3.808272
     21          1           0        0.431277   -3.909114    2.689860
     22          1           0        1.267265   -2.722022    3.694054
     23          1           0        0.462680   -1.791663    1.692377
     24          1           0        0.724144   -1.750991   -0.069680
     25          1           0        1.539084   -0.588131    0.940577
 ---------------------------------------------------------------------
                    Distance matrix (angstroms):
                    1          2          3          4          5
     1  C    0.000000
     2  C    1.373424   0.000000
     3  C    2.431518   1.442123   0.000000
     4  C    1.421702   2.455444   2.855059   0.000000
     5  C    2.461733   2.846203   2.454385   1.455849   0.000000
     6  C    2.790314   2.446892   1.402107   2.457402   1.397793
     7  C    2.477119   3.752933   4.290903   1.436164   2.531937
     8  C    3.747541   4.880888   5.086974   2.425595   2.817686
     9  C    4.246413   5.092368   4.890854   2.825851   2.436517
    10  C    3.814160   4.303579   3.772752   2.544198   1.457623
    11  O    2.854075   4.227499   5.093161   2.399195   3.725735
    12  O    4.873276   5.103981   4.249076   3.729438   2.411710
    13  C    3.721225   2.476255   1.413802   4.268832   3.744365
    14  N    4.831173   3.523355   2.582464   5.437223   4.871488
    15  H    1.085835   2.144262   3.428499   2.135910   3.429521
    16  H    2.147608   1.086330   2.190115   3.441313   3.932402
    17  H    3.875609   3.441624   2.166654   3.427741   2.122661
    18  C    4.976169   6.220714   6.560187   3.794452   4.331585
    19  C    5.757259   6.560985   6.224052   4.337296   3.801070
    20  H    4.853677   6.188070   6.759358   3.906222   4.765484
    21  H    5.668372   6.875662   7.142209   4.463250   4.866073
    22  H    5.668472   6.875662   7.141955   4.463159   4.865587
    23  H    6.289669   7.242017   7.068560   4.880277   4.614945
    24  H    6.215658   6.907018   6.437709   4.828465   4.120261
    25  H    6.217723   6.912955   6.448130   4.830150   4.128601
                    6          7          8          9         10
     6  C    0.000000
     7  C    3.786579   0.000000
     8  C    4.215061   1.443816   0.000000
     9  C    3.726588   2.513575   1.409759   0.000000
    10  C    2.466107   2.986823   2.498376   1.433157   0.000000
    11  O    4.856464   1.297166   2.405088   3.697950   4.283866
    12  O    2.846978   4.272922   3.672436   2.381763   1.286177
    13  C    2.451721   5.704560   6.468442   6.156376   4.916091
    14  N    3.529057   6.872656   7.624649   7.255354   5.963937
    15  H    3.875582   2.635997   4.061897   4.852507   4.673636
    16  H    3.427864   4.624397   5.852687   6.155007   5.389616
    17  H    1.085475   4.649635   4.821780   4.038668   2.623076
    18  C    5.728693   2.500076   1.514046   2.547035   3.883209
    19  C    4.947002   3.903488   2.557830   1.511697   2.481631
    20  H    6.127636   2.476296   2.117581   3.416677   4.615886
    21  H    6.243296   3.252191   2.186528   2.893877   4.257890
    22  H    6.242818   3.252359   2.186488   2.893320   4.257051
    23  H    5.861601   4.136107   2.693305   2.182514   3.430444
    24  H    5.116268   4.548314   3.291737   2.160120   2.749171
    25  H    5.128545   4.543549   3.284773   2.161392   2.760706
                   11         12         13         14         15
    11  O    0.000000
    12  O    5.569881   0.000000
    13  C    6.476487   5.120908   0.000000
    14  N    7.622947   6.020146   1.168935   0.000000
    15  H    2.478207   5.816696   4.615663   5.662891   0.000000
    16  H    4.879696   6.164328   2.700852   3.496920   2.494108
    17  H    5.803424   2.472271   2.698845   3.548136   4.960619
    18  C    2.804678   4.928688   7.954841   9.116407   5.042294
    19  C    4.962865   2.767869   7.397669   8.438827   6.349515
    20  H    2.236826   5.767141   8.172925   9.341778   4.683365
    21  H    3.566527   5.174254   8.513505   9.662060   5.762907
    22  H    3.567185   5.173018   8.513231   9.661781   5.763239
    23  H    4.983789   3.853618   8.308407   9.383782   6.730965
    24  H    5.642472   2.704897   7.520255   8.506427   6.875627
    25  H    5.634468   2.724612   7.533067   8.520564   6.874579
                   16         17         18         19         20
    16  H    0.000000
    17  H    4.339674   0.000000
    18  C    7.122301   6.318652   0.000000
    19  C    7.634130   5.007539   2.997834   0.000000
    20  H    6.977982   6.853830   1.092622   4.066947   0.000000
    21  H    7.791488   6.751868   1.100713   2.989914   1.782880
    22  H    7.791596   6.751212   1.100737   2.988981   1.782996
    23  H    8.288139   6.022399   2.528997   1.093172   3.616300
    24  H    7.983197   5.030455   3.776344   1.099224   4.824058
    25  H    7.988701   5.046726   3.761742   1.099351   4.809128
                   21         22         23         24         25
    21  H    0.000000
    22  H    1.765352   0.000000
    23  H    2.340845   2.349390   0.000000
    24  H    3.515441   3.924739   1.781814   0.000000
    25  H    3.913586   3.494140   1.781106   1.742696   0.000000
 Symmetry turned off by external request.
 Stoichiometry    C13H9NO2(2-)
 Framework group  C1[X(C13H9NO2)]
 Deg. of freedom    69
 Full point group                 C1      NOp   1
 Rotational constants (GHZ):           1.0077720           0.3685774           0.2707715
 Leave Link  202 at Mon Jan 15 16:49:50 2024, MaxMem=  4026531840 cpu:               0.5 elap:               0.1
 (Enter /sysapps/ubuntu-applications/gaussian/Gaussian/AVX2/g16/l301.exe)
 Standard basis: 6-311++G(d,p) (5D, 7F)
 Ernie: Thresh=  0.10000D-02 Tol=  0.10000D-05 Strict=F.
   415 basis functions,   657 primitive gaussians,   431 cartesian basis functions
    56 alpha electrons       56 beta electrons
       nuclear repulsion energy       974.7214230142 Hartrees.
 IExCor=  402 DFT=T Ex+Corr=B3LYP ExCW=0 ScaHFX=  0.200000
 ScaDFX=  0.800000  0.720000  1.000000  0.810000 ScalE2=  1.000000  1.000000
 IRadAn=      5 IRanWt=     -1 IRanGd=            0 ICorTp=0 IEmpDi=  4
 NAtoms=   25 NActive=   25 NUniq=   25 SFac= 1.00D+00 NAtFMM=   60 NAOKFM=F Big=F
 Integral buffers will be    131072 words long.
 Raffenetti 2 integral format.
 Two-electron integral symmetry is turned off.
 Leave Link  301 at Mon Jan 15 16:49:51 2024, MaxMem=  4026531840 cpu:               0.9 elap:               0.2
 (Enter /sysapps/ubuntu-applications/gaussian/Gaussian/AVX2/g16/l302.exe)
 NPDir=0 NMtPBC=     1 NCelOv=     1 NCel=       1 NClECP=     1 NCelD=      1
         NCelK=      1 NCelE2=     1 NClLst=     1 CellRange=     0.0.
 One-electron integrals computed using PRISM.
 NBasis=   415 RedAO= T EigKep=  1.23D-06  NBF=   415
 NBsUse=   410 1.00D-06 EigRej=  8.60D-07 NBFU=   410
 Precomputing XC quadrature grid using
 IXCGrd= 4 IRadAn=           5 IRanWt=          -1 IRanGd=           0 AccXCQ= 0.00D+00.
 Generated NRdTot=       0 NPtTot=           0 NUsed=           0 NTot=          32
 NSgBfM=   430   430   430   430   430 MxSgAt=    25 MxSgA2=    25.
 Leave Link  302 at Mon Jan 15 16:49:51 2024, MaxMem=  4026531840 cpu:               3.3 elap:               0.5
 (Enter /sysapps/ubuntu-applications/gaussian/Gaussian/AVX2/g16/l303.exe)
 DipDrv:  MaxL=1.
 Leave Link  303 at Mon Jan 15 16:49:51 2024, MaxMem=  4026531840 cpu:               1.1 elap:               0.2
 (Enter /sysapps/ubuntu-applications/gaussian/Gaussian/AVX2/g16/l401.exe)
 ExpMin= 3.60D-02 ExpMax= 8.59D+03 ExpMxC= 1.30D+03 IAcc=3 IRadAn=         5 AccDes= 0.00D+00
 Harris functional with IExCor=  402 and IRadAn=       5 diagonalized for initial guess.
 HarFok:  IExCor=  402 AccDes= 0.00D+00 IRadAn=         5 IDoV= 1 UseB2=F ITyADJ=14
 ICtDFT=  3500011 ScaDFX=  1.000000  1.000000  1.000000  1.000000
 FoFCou: FMM=F IPFlag=           0 FMFlag=      100000 FMFlg1=           0
         NFxFlg=           0 DoJE=T BraDBF=F KetDBF=T FulRan=T
         wScrn=  0.000000 ICntrl=       500 IOpCl=  0 I1Cent=   200000004 NGrid=           0
         NMat0=    1 NMatS0=      1 NMatT0=    0 NMatD0=    1 NMtDS0=    0 NMtDT0=    0
 Symmetry not used in FoFCou.
 Harris En= -706.668522135007    
 JPrj=0 DoOrth=F DoCkMO=F.
 Initial guess <Sx>= 0.0000 <Sy>= 0.0000 <Sz>= 0.0000 <S**2>=-0.0000 S=-0.0000
 Leave Link  401 at Mon Jan 15 16:49:53 2024, MaxMem=  4026531840 cpu:              12.1 elap:               1.6
 (Enter /sysapps/ubuntu-applications/gaussian/Gaussian/AVX2/g16/l502.exe)
 Two-electron integral symmetry not used.
 UHF open shell SCF:
 Using DIIS extrapolation, IDIIS=  1040.
 NGot=  4026531840 LenX=  4026153768 LenY=  4025967566
 Requested convergence on RMS density matrix=1.00D-08 within 128 cycles.
 Requested convergence on MAX density matrix=1.00D-06.
 Requested convergence on             energy=1.00D-06.
 No special actions if energy rises.
 Fock matrices will be formed incrementally for  20 cycles.

 Cycle   1  Pass 1  IDiag  1:
 FoFJK:  IHMeth= 1 ICntrl=       0 DoSepK=F KAlg= 0 I1Cent=           0 FoldK=F
 IRaf= 870000000 NMat=       1 IRICut=       1 DoRegI=T DoRafI=F ISym2E= 0 IDoP0=0 IntGTp=1.
 FoFCou: FMM=F IPFlag=           0 FMFlag=      100000 FMFlg1=           0
         NFxFlg=           0 DoJE=F BraDBF=F KetDBF=F FulRan=T
         wScrn=  0.000000 ICntrl=         0 IOpCl=  1 I1Cent=           0 NGrid=           0
         NMat0=    1 NMatS0=      1 NMatT0=    0 NMatD0=    1 NMtDS0=    0 NMtDT0=    0
 Symmetry not used in FoFCou.
 E= -705.605219132763    
 DIIS: error= 4.32D-02 at cycle   1 NSaved=   1.
 NSaved= 1 IEnMin= 1 EnMin= -705.605219132763     IErMin= 1 ErrMin= 4.32D-02
 ErrMax= 4.32D-02  0.00D+00 EMaxC= 1.00D-01 BMatC= 2.50D+00 BMatP= 2.50D+00
 IDIUse=3 WtCom= 5.68D-01 WtEn= 4.32D-01
 Coeff-Com:  0.100D+01
 Coeff-En:   0.100D+01
 Coeff:      0.100D+01
 Gap=     0.003 Goal=   None    Shift=    0.000
 Gap=     0.003 Goal=   None    Shift=    0.000
 GapD=    0.003 DampG=0.250 DampE=0.500 DampFc=0.2500 IDamp=-1.
 Damping current iteration by 2.50D-01
 RMSDP=2.39D+01 MaxDP=3.97D+03              OVMax= 9.95D-01

 Cycle   2  Pass 1  IDiag  1:
 RMSU=  5.92D+00    CP:  3.00D+00
 E= -705.440599308794     Delta-E=        0.164619823969 Rises=F Damp=T
 DIIS: error= 1.50D-02 at cycle   2 NSaved=   2.
 NSaved= 2 IEnMin= 1 EnMin= -705.605219132763     IErMin= 2 ErrMin= 1.50D-02
 ErrMax= 1.50D-02  0.00D+00 EMaxC= 1.00D-01 BMatC= 5.11D-01 BMatP= 2.50D+00
 IDIUse=3 WtCom= 8.50D-01 WtEn= 1.50D-01
 Coeff-Com:  0.308D-01 0.969D+00
 Coeff-En:   0.617D+00 0.383D+00
 Coeff:      0.119D+00 0.881D+00
 Gap=    -0.027 Goal=   None    Shift=    0.000
 Gap=    -0.027 Goal=   None    Shift=    0.000
 RMSDP=5.98D+00 MaxDP=9.92D+02 DE= 1.65D-01 OVMax= 6.34D-01

 Cycle   3  Pass 1  IDiag  1:
 RMSU=  1.37D-02    CP:  1.24D+00  4.44D-04
 E= -705.638727574190     Delta-E=       -0.198128265396 Rises=F Damp=F
 DIIS: error= 5.02D-02 at cycle   3 NSaved=   3.
 NSaved= 3 IEnMin= 3 EnMin= -705.638727574190     IErMin= 2 ErrMin= 1.50D-02
 ErrMax= 5.02D-02  0.00D+00 EMaxC= 1.00D-01 BMatC= 1.99D+00 BMatP= 5.11D-01
 IDIUse=2 WtCom= 0.00D+00 WtEn= 1.00D+00
 EnCoef did     2 forward-backward iterations
 Coeff-En:   0.139D+00 0.354D+00 0.506D+00
 Coeff:      0.139D+00 0.354D+00 0.506D+00
 Gap=     0.190 Goal=   None    Shift=    0.000
 Gap=     0.190 Goal=   None    Shift=    0.000
 RMSDP=1.51D-01 MaxDP=2.01D+01 DE=-1.98D-01 OVMax= 8.31D-01

 Cycle   4  Pass 1  IDiag  1:
 RMSU=  1.40D-01    CP:  1.73D+00  8.42D-03  6.19D-01
 E= -705.360503471972     Delta-E=        0.278224102218 Rises=F Damp=F
 DIIS: error= 8.23D-02 at cycle   4 NSaved=   4.
 NSaved= 4 IEnMin= 3 EnMin= -705.638727574190     IErMin= 2 ErrMin= 1.50D-02
 ErrMax= 8.23D-02  0.00D+00 EMaxC= 1.00D-01 BMatC= 2.85D+00 BMatP= 5.11D-01
 IDIUse=2 WtCom= 0.00D+00 WtEn= 1.00D+00
 Coeff-En:   0.000D+00 0.000D+00 0.572D+00 0.428D+00
 Coeff:      0.000D+00 0.000D+00 0.572D+00 0.428D+00
 Gap=     0.001 Goal=   None    Shift=    0.000
 Gap=     0.001 Goal=   None    Shift=    0.000
 RMSDP=1.50D-01 MaxDP=2.16D+01 DE= 2.78D-01 OVMax= 8.13D-01

 Cycle   5  Pass 1  IDiag  1:
 RMSU=  2.18D-02    CP:  1.13D+00  4.79D-05  6.42D-02  4.31D-02
 E= -706.096885490521     Delta-E=       -0.736382018548 Rises=F Damp=F
 DIIS: error= 1.92D-02 at cycle   5 NSaved=   5.
 NSaved= 5 IEnMin= 5 EnMin= -706.096885490521     IErMin= 2 ErrMin= 1.50D-02
 ErrMax= 1.92D-02  0.00D+00 EMaxC= 1.00D-01 BMatC= 3.04D-01 BMatP= 5.11D-01
 IDIUse=3 WtCom= 8.08D-01 WtEn= 1.92D-01
 EnCoef did     4 forward-backward iterations
 Coeff-Com: -0.121D+00 0.393D+00 0.303D+00 0.104D+00 0.320D+00
 Coeff-En:   0.000D+00 0.000D+00 0.341D-02 0.675D-01 0.929D+00
 Coeff:     -0.975D-01 0.318D+00 0.245D+00 0.973D-01 0.437D+00
 Gap=     0.084 Goal=   None    Shift=    0.000
 Gap=     0.084 Goal=   None    Shift=    0.000
 RMSDP=1.55D-02 MaxDP=1.06D+00 DE=-7.36D-01 OVMax= 2.44D-01

 Cycle   6  Pass 1  IDiag  1:
 RMSU=  6.87D-03    CP:  1.11D+00  1.74D-04  1.96D-01  2.32D-02  3.86D-01
 E= -706.113658558526     Delta-E=       -0.016773068005 Rises=F Damp=F
 DIIS: error= 2.08D-02 at cycle   6 NSaved=   6.
 NSaved= 6 IEnMin= 6 EnMin= -706.113658558526     IErMin= 2 ErrMin= 1.50D-02
 ErrMax= 2.08D-02  0.00D+00 EMaxC= 1.00D-01 BMatC= 2.91D-01 BMatP= 3.04D-01
 IDIUse=3 WtCom= 8.08D-01 WtEn= 1.92D-01
 EnCoef did     1 forward-backward iterations
 Coeff-Com: -0.138D+00 0.218D+00 0.685D-01 0.397D-01 0.388D+00 0.424D+00
 Coeff-En:   0.000D+00 0.000D+00 0.000D+00 0.170D-01 0.442D+00 0.541D+00
 Coeff:     -0.111D+00 0.177D+00 0.554D-01 0.354D-01 0.398D+00 0.446D+00
 Gap=     0.073 Goal=   None    Shift=    0.000
 Gap=     0.073 Goal=   None    Shift=    0.000
 RMSDP=8.51D-03 MaxDP=4.50D-01 DE=-1.68D-02 OVMax= 8.31D-02

 Cycle   7  Pass 1  IDiag  1:
 RMSU=  3.18D-03    CP:  1.15D+00 -8.16D-05  3.87D-02  3.05D-02  7.01D-01
                    CP:  1.07D+00
 E= -706.182102235310     Delta-E=       -0.068443676785 Rises=F Damp=F
 DIIS: error= 3.43D-03 at cycle   7 NSaved=   7.
 NSaved= 7 IEnMin= 7 EnMin= -706.182102235310     IErMin= 7 ErrMin= 3.43D-03
 ErrMax= 3.43D-03  0.00D+00 EMaxC= 1.00D-01 BMatC= 2.07D-02 BMatP= 2.91D-01
 IDIUse=3 WtCom= 9.66D-01 WtEn= 3.43D-02
 Coeff-Com: -0.962D-01 0.128D+00-0.644D-02 0.802D-02 0.225D+00 0.263D+00
 Coeff-Com:  0.479D+00
 Coeff-En:   0.000D+00 0.000D+00 0.000D+00 0.000D+00 0.000D+00 0.000D+00
 Coeff-En:   0.100D+01
 Coeff:     -0.929D-01 0.123D+00-0.622D-02 0.774D-02 0.217D+00 0.254D+00
 Coeff:      0.497D+00
 Gap=     0.052 Goal=   None    Shift=    0.000
 Gap=     0.052 Goal=   None    Shift=    0.000
 RMSDP=1.34D-03 MaxDP=5.78D-02 DE=-6.84D-02 OVMax= 1.56D-02

 Cycle   8  Pass 1  IDiag  1:
 RMSU=  7.42D-04    CP:  1.14D+00 -6.65D-05  2.47D-02  3.02D-02  7.44D-01
                    CP:  1.02D+00  8.73D-01
 E= -706.185397443283     Delta-E=       -0.003295207973 Rises=F Damp=F
 DIIS: error= 4.57D-03 at cycle   8 NSaved=   8.
 NSaved= 8 IEnMin= 8 EnMin= -706.185397443283     IErMin= 7 ErrMin= 3.43D-03
 ErrMax= 4.57D-03  0.00D+00 EMaxC= 1.00D-01 BMatC= 1.31D-02 BMatP= 2.07D-02
 IDIUse=3 WtCom= 9.66D-01 WtEn= 3.43D-02
 Coeff-Com: -0.531D-01 0.686D-01-0.124D-01 0.758D-02 0.474D-01 0.191D-02
 Coeff-Com:  0.202D+00 0.737D+00
 Coeff-En:   0.000D+00 0.000D+00 0.000D+00 0.000D+00 0.000D+00 0.000D+00
 Coeff-En:   0.000D+00 0.100D+01
 Coeff:     -0.513D-01 0.663D-01-0.119D-01 0.732D-02 0.458D-01 0.185D-02
 Coeff:      0.196D+00 0.746D+00
 Gap=     0.046 Goal=   None    Shift=    0.000
 Gap=     0.046 Goal=   None    Shift=    0.000
 RMSDP=3.09D-03 MaxDP=1.81D-01 DE=-3.30D-03 OVMax= 1.43D-02

 Cycle   9  Pass 1  IDiag  1:
 RMSU=  6.83D-04    CP:  1.16D+00 -1.52D-04 -6.59D-03  3.44D-02  8.54D-01
                    CP:  1.05D+00  1.11D+00  1.24D+00
 E= -706.187835419937     Delta-E=       -0.002437976654 Rises=F Damp=F
 DIIS: error= 2.31D-03 at cycle   9 NSaved=   9.
 NSaved= 9 IEnMin= 9 EnMin= -706.187835419937     IErMin= 9 ErrMin= 2.31D-03
 ErrMax= 2.31D-03  0.00D+00 EMaxC= 1.00D-01 BMatC= 3.56D-03 BMatP= 1.31D-02
 IDIUse=3 WtCom= 9.77D-01 WtEn= 2.31D-02
 Coeff-Com: -0.166D-01 0.257D-01-0.661D-02 0.702D-02-0.489D-01-0.111D+00
 Coeff-Com: -0.618D-01 0.541D+00 0.672D+00
 Coeff-En:   0.000D+00 0.000D+00 0.000D+00 0.000D+00 0.000D+00 0.000D+00
 Coeff-En:   0.000D+00 0.000D+00 0.100D+01
 Coeff:     -0.162D-01 0.251D-01-0.646D-02 0.686D-02-0.478D-01-0.109D+00
 Coeff:     -0.604D-01 0.528D+00 0.680D+00
 Gap=     0.041 Goal=   None    Shift=    0.000
 Gap=     0.041 Goal=   None    Shift=    0.000
 RMSDP=1.96D-03 MaxDP=1.43D-01 DE=-2.44D-03 OVMax= 1.35D-02

 Cycle  10  Pass 1  IDiag  1:
 RMSU=  2.76D-04    CP:  1.18D+00 -2.07D-04 -2.20D-02  3.65D-02  9.27D-01
                    CP:  1.05D+00  1.27D+00  1.51D+00  1.37D+00
 E= -706.188811831351     Delta-E=       -0.000976411414 Rises=F Damp=F
 DIIS: error= 1.06D-03 at cycle  10 NSaved=  10.
 NSaved=10 IEnMin=10 EnMin= -706.188811831351     IErMin=10 ErrMin= 1.06D-03
 ErrMax= 1.06D-03  0.00D+00 EMaxC= 1.00D-01 BMatC= 6.67D-04 BMatP= 3.56D-03
 IDIUse=3 WtCom= 9.89D-01 WtEn= 1.06D-02
 Coeff-Com: -0.185D-03 0.269D-02-0.448D-02 0.399D-02-0.362D-01-0.555D-01
 Coeff-Com: -0.828D-01 0.546D-01 0.394D+00 0.724D+00
 Coeff-En:   0.000D+00 0.000D+00 0.000D+00 0.000D+00 0.000D+00 0.000D+00
 Coeff-En:   0.000D+00 0.000D+00 0.000D+00 0.100D+01
 Coeff:     -0.183D-03 0.266D-02-0.443D-02 0.395D-02-0.358D-01-0.549D-01
 Coeff:     -0.819D-01 0.540D-01 0.390D+00 0.727D+00
 Gap=     0.039 Goal=   None    Shift=    0.000
 Gap=     0.039 Goal=   None    Shift=    0.000
 RMSDP=1.36D-03 MaxDP=8.20D-02 DE=-9.76D-04 OVMax= 1.38D-02

 Cycle  11  Pass 1  IDiag  1:
 RMSU=  3.74D-04    CP:  1.19D+00 -2.50D-04 -3.26D-02  3.93D-02  9.65D-01
                    CP:  1.10D+00  1.39D+00  1.59D+00  1.80D+00  1.45D+00
 E= -706.189008547945     Delta-E=       -0.000196716595 Rises=F Damp=F
 DIIS: error= 2.29D-04 at cycle  11 NSaved=  11.
 NSaved=11 IEnMin=11 EnMin= -706.189008547945     IErMin=11 ErrMin= 2.29D-04
 ErrMax= 2.29D-04  0.00D+00 EMaxC= 1.00D-01 BMatC= 5.73D-05 BMatP= 6.67D-04
 IDIUse=3 WtCom= 9.98D-01 WtEn= 2.29D-03
 Coeff-Com:  0.154D-02-0.125D-02-0.118D-02 0.116D-02-0.668D-02-0.597D-02
 Coeff-Com: -0.268D-01-0.863D-01 0.818D-01 0.477D+00 0.567D+00
 Coeff-En:   0.000D+00 0.000D+00 0.000D+00 0.000D+00 0.000D+00 0.000D+00
 Coeff-En:   0.000D+00 0.000D+00 0.000D+00 0.000D+00 0.100D+01
 Coeff:      0.153D-02-0.124D-02-0.118D-02 0.116D-02-0.667D-02-0.596D-02
 Coeff:     -0.267D-01-0.861D-01 0.817D-01 0.475D+00 0.568D+00
 Gap=     0.039 Goal=   None    Shift=    0.000
 Gap=     0.039 Goal=   None    Shift=    0.000
 RMSDP=2.37D-04 MaxDP=2.27D-02 DE=-1.97D-04 OVMax= 2.04D-03

 Cycle  12  Pass 1  IDiag  1:
 RMSU=  6.68D-05    CP:  1.19D+00 -2.54D-04 -3.50D-02  3.94D-02  9.72D-01
                    CP:  1.10D+00  1.42D+00  1.63D+00  1.83D+00  1.67D+00
                    CP:  8.24D-01
 E= -706.189020374442     Delta-E=       -0.000011826497 Rises=F Damp=F
 DIIS: error= 1.43D-04 at cycle  12 NSaved=  12.
 NSaved=12 IEnMin=12 EnMin= -706.189020374442     IErMin=12 ErrMin= 1.43D-04
 ErrMax= 1.43D-04  0.00D+00 EMaxC= 1.00D-01 BMatC= 1.30D-05 BMatP= 5.73D-05
 IDIUse=3 WtCom= 9.99D-01 WtEn= 1.43D-03
 Coeff-Com:  0.491D-03-0.505D-03 0.146D-03 0.201D-03 0.465D-03 0.373D-03
 Coeff-Com: -0.518D-02-0.442D-01 0.164D-01 0.210D+00 0.295D+00 0.527D+00
 Coeff-En:   0.000D+00 0.000D+00 0.000D+00 0.000D+00 0.000D+00 0.000D+00
 Coeff-En:   0.000D+00 0.000D+00 0.000D+00 0.000D+00 0.798D-01 0.920D+00
 Coeff:      0.490D-03-0.504D-03 0.146D-03 0.201D-03 0.465D-03 0.373D-03
 Coeff:     -0.517D-02-0.441D-01 0.163D-01 0.209D+00 0.294D+00 0.528D+00
 Gap=     0.039 Goal=   None    Shift=    0.000
 Gap=     0.039 Goal=   None    Shift=    0.000
 RMSDP=8.42D-05 MaxDP=7.87D-03 DE=-1.18D-05 OVMax= 9.75D-04

 Cycle  13  Pass 1  IDiag  1:
 RMSU=  4.06D-05    CP:  1.19D+00 -2.53D-04 -3.33D-02  3.93D-02  9.72D-01
                    CP:  1.10D+00  1.41D+00  1.61D+00  1.82D+00  1.60D+00
                    CP:  8.39D-01  7.05D-01
 E= -706.189022828172     Delta-E=       -0.000002453730 Rises=F Damp=F
 DIIS: error= 9.97D-05 at cycle  13 NSaved=  13.
 NSaved=13 IEnMin=13 EnMin= -706.189022828172     IErMin=13 ErrMin= 9.97D-05
 ErrMax= 9.97D-05  0.00D+00 EMaxC= 1.00D-01 BMatC= 4.13D-06 BMatP= 1.30D-05
 IDIUse=1 WtCom= 1.00D+00 WtEn= 0.00D+00
 Coeff-Com:  0.156D-03-0.147D-03 0.461D-03-0.110D-03 0.983D-03 0.153D-06
 Coeff-Com: -0.910D-03-0.196D-01 0.507D-02 0.102D+00 0.139D+00 0.388D+00
 Coeff-Com:  0.385D+00
 Coeff:      0.156D-03-0.147D-03 0.461D-03-0.110D-03 0.983D-03 0.153D-06
 Coeff:     -0.910D-03-0.196D-01 0.507D-02 0.102D+00 0.139D+00 0.388D+00
 Coeff:      0.385D+00
 Gap=     0.039 Goal=   None    Shift=    0.000
 Gap=     0.039 Goal=   None    Shift=    0.000
 RMSDP=4.95D-05 MaxDP=2.89D-03 DE=-2.45D-06 OVMax= 6.01D-04

 Cycle  14  Pass 1  IDiag  1:
 RMSU=  1.19D-05    CP:  1.19D+00 -2.51D-04 -3.31D-02  3.92D-02  9.71D-01
                    CP:  1.09D+00  1.40D+00  1.62D+00  1.81D+00  1.61D+00
                    CP:  7.82D-01  8.62D-01  8.85D-01
 E= -706.189023995282     Delta-E=       -0.000001167110 Rises=F Damp=F
 DIIS: error= 2.84D-05 at cycle  14 NSaved=  14.
 NSaved=14 IEnMin=14 EnMin= -706.189023995282     IErMin=14 ErrMin= 2.84D-05
 ErrMax= 2.84D-05  0.00D+00 EMaxC= 1.00D-01 BMatC= 5.82D-07 BMatP= 4.13D-06
 IDIUse=1 WtCom= 1.00D+00 WtEn= 0.00D+00
 Coeff-Com:  0.450D-05 0.175D-04 0.340D-03-0.110D-03 0.551D-03-0.318D-03
 Coeff-Com: -0.256D-03-0.587D-02 0.312D-02 0.404D-01 0.430D-01 0.144D+00
 Coeff-Com:  0.137D+00 0.638D+00
 Coeff:      0.450D-05 0.175D-04 0.340D-03-0.110D-03 0.551D-03-0.318D-03
 Coeff:     -0.256D-03-0.587D-02 0.312D-02 0.404D-01 0.430D-01 0.144D+00
 Coeff:      0.137D+00 0.638D+00
 Gap=     0.039 Goal=   None    Shift=    0.000
 Gap=     0.039 Goal=   None    Shift=    0.000
 RMSDP=2.08D-05 MaxDP=1.61D-03 DE=-1.17D-06 OVMax= 1.75D-04

 Cycle  15  Pass 1  IDiag  1:
 RMSU=  4.92D-06    CP:  1.19D+00 -2.51D-04 -3.28D-02  3.92D-02  9.71D-01
                    CP:  1.09D+00  1.40D+00  1.61D+00  1.81D+00  1.60D+00
                    CP:  7.77D-01  8.61D-01  1.05D+00  9.50D-01
 E= -706.189024141439     Delta-E=       -0.000000146157 Rises=F Damp=F
 DIIS: error= 1.47D-05 at cycle  15 NSaved=  15.
 NSaved=15 IEnMin=15 EnMin= -706.189024141439     IErMin=15 ErrMin= 1.47D-05
 ErrMax= 1.47D-05  0.00D+00 EMaxC= 1.00D-01 BMatC= 1.18D-07 BMatP= 5.82D-07
 IDIUse=1 WtCom= 1.00D+00 WtEn= 0.00D+00
 Coeff-Com: -0.245D-04 0.207D-04 0.134D-03-0.499D-04 0.172D-03-0.232D-03
 Coeff-Com: -0.103D-03 0.134D-03 0.133D-02 0.537D-02-0.490D-02-0.734D-02
 Coeff-Com: -0.582D-01 0.442D+00 0.622D+00
 Coeff:     -0.245D-04 0.207D-04 0.134D-03-0.499D-04 0.172D-03-0.232D-03
 Coeff:     -0.103D-03 0.134D-03 0.133D-02 0.537D-02-0.490D-02-0.734D-02
 Coeff:     -0.582D-01 0.442D+00 0.622D+00
 Gap=     0.039 Goal=   None    Shift=    0.000
 Gap=     0.039 Goal=   None    Shift=    0.000
 RMSDP=1.13D-05 MaxDP=6.76D-04 DE=-1.46D-07 OVMax= 7.78D-05

 Cycle  16  Pass 1  IDiag  1:
 RMSU=  2.45D-06    CP:  1.19D+00 -2.51D-04 -3.28D-02  3.91D-02  9.70D-01
                    CP:  1.09D+00  1.40D+00  1.62D+00  1.80D+00  1.60D+00
                    CP:  7.66D-01  8.81D-01  1.05D+00  1.24D+00  8.34D-01
 E= -706.189024173425     Delta-E=       -0.000000031986 Rises=F Damp=F
 DIIS: error= 4.55D-06 at cycle  16 NSaved=  16.
 NSaved=16 IEnMin=16 EnMin= -706.189024173425     IErMin=16 ErrMin= 4.55D-06
 ErrMax= 4.55D-06  0.00D+00 EMaxC= 1.00D-01 BMatC= 1.19D-08 BMatP= 1.18D-07
 IDIUse=1 WtCom= 1.00D+00 WtEn= 0.00D+00
 Coeff-Com: -0.702D-05 0.492D-05 0.273D-04-0.132D-04-0.270D-05-0.123D-03
 Coeff-Com: -0.589D-04 0.904D-03 0.277D-03-0.291D-02-0.988D-02-0.283D-01
 Coeff-Com: -0.732D-01 0.138D+00 0.347D+00 0.628D+00
 Coeff:     -0.702D-05 0.492D-05 0.273D-04-0.132D-04-0.270D-05-0.123D-03
 Coeff:     -0.589D-04 0.904D-03 0.277D-03-0.291D-02-0.988D-02-0.283D-01
 Coeff:     -0.732D-01 0.138D+00 0.347D+00 0.628D+00
 Gap=     0.039 Goal=   None    Shift=    0.000
 Gap=     0.039 Goal=   None    Shift=    0.000
 RMSDP=3.23D-06 MaxDP=1.59D-04 DE=-3.20D-08 OVMax= 3.67D-05

 Cycle  17  Pass 1  IDiag  1:
 RMSU=  7.47D-07    CP:  1.19D+00 -2.51D-04 -3.28D-02  3.91D-02  9.70D-01
                    CP:  1.09D+00  1.40D+00  1.62D+00  1.80D+00  1.60D+00
                    CP:  7.64D-01  8.87D-01  1.08D+00  1.30D+00  9.26D-01
                    CP:  9.94D-01
 E= -706.189024177046     Delta-E=       -0.000000003621 Rises=F Damp=F
 DIIS: error= 9.46D-07 at cycle  17 NSaved=  17.
 NSaved=17 IEnMin=17 EnMin= -706.189024177046     IErMin=17 ErrMin= 9.46D-07
 ErrMax= 9.46D-07  0.00D+00 EMaxC= 1.00D-01 BMatC= 1.45D-09 BMatP= 1.19D-08
 IDIUse=1 WtCom= 1.00D+00 WtEn= 0.00D+00
 Coeff-Com:  0.528D-05-0.814D-05-0.499D-05-0.232D-06-0.148D-04-0.273D-04
 Coeff-Com: -0.573D-05 0.326D-03-0.991D-04-0.185D-02-0.430D-02-0.137D-01
 Coeff-Com: -0.375D-01 0.106D-01 0.115D+00 0.408D+00 0.523D+00
 Coeff:      0.528D-05-0.814D-05-0.499D-05-0.232D-06-0.148D-04-0.273D-04
 Coeff:     -0.573D-05 0.326D-03-0.991D-04-0.185D-02-0.430D-02-0.137D-01
 Coeff:     -0.375D-01 0.106D-01 0.115D+00 0.408D+00 0.523D+00
 Gap=     0.039 Goal=   None    Shift=    0.000
 Gap=     0.039 Goal=   None    Shift=    0.000
 RMSDP=9.59D-07 MaxDP=6.35D-05 DE=-3.62D-09 OVMax= 1.16D-05

 Cycle  18  Pass 1  IDiag  1:
 RMSU=  2.95D-07    CP:  1.19D+00 -2.51D-04 -3.28D-02  3.91D-02  9.70D-01
                    CP:  1.09D+00  1.40D+00  1.62D+00  1.80D+00  1.61D+00
                    CP:  7.63D-01  8.90D-01  1.07D+00  1.31D+00  9.30D-01
                    CP:  1.10D+00  9.66D-01
 E= -706.189024177332     Delta-E=       -0.000000000286 Rises=F Damp=F
 DIIS: error= 3.76D-07 at cycle  18 NSaved=  18.
 NSaved=18 IEnMin=18 EnMin= -706.189024177332     IErMin=18 ErrMin= 3.76D-07
 ErrMax= 3.76D-07  0.00D+00 EMaxC= 1.00D-01 BMatC= 1.66D-10 BMatP= 1.45D-09
 IDIUse=1 WtCom= 1.00D+00 WtEn= 0.00D+00
 Coeff-Com:  0.256D-05-0.203D-05-0.369D-05-0.402D-07-0.115D-04-0.162D-04
 Coeff-Com: -0.314D-05 0.170D-03-0.456D-04-0.737D-03-0.166D-02-0.507D-02
 Coeff-Com: -0.156D-01-0.236D-02 0.387D-01 0.167D+00 0.270D+00 0.550D+00
 Coeff:      0.256D-05-0.203D-05-0.369D-05-0.402D-07-0.115D-04-0.162D-04
 Coeff:     -0.314D-05 0.170D-03-0.456D-04-0.737D-03-0.166D-02-0.507D-02
 Coeff:     -0.156D-01-0.236D-02 0.387D-01 0.167D+00 0.270D+00 0.550D+00
 Gap=     0.039 Goal=   None    Shift=    0.000
 Gap=     0.039 Goal=   None    Shift=    0.000
 RMSDP=4.90D-07 MaxDP=2.82D-05 DE=-2.86D-10 OVMax= 5.15D-06

 Cycle  19  Pass 1  IDiag  1:
 RMSU=  9.68D-08    CP:  1.19D+00 -2.51D-04 -3.28D-02  3.91D-02  9.70D-01
                    CP:  1.09D+00  1.40D+00  1.62D+00  1.80D+00  1.61D+00
                    CP:  7.62D-01  8.90D-01  1.07D+00  1.32D+00  9.22D-01
                    CP:  1.14D+00  1.01D+00  1.09D+00
 E= -706.189024177386     Delta-E=       -0.000000000055 Rises=F Damp=F
 DIIS: error= 1.55D-07 at cycle  19 NSaved=  19.
 NSaved=19 IEnMin=19 EnMin= -706.189024177386     IErMin=19 ErrMin= 1.55D-07
 ErrMax= 1.55D-07  0.00D+00 EMaxC= 1.00D-01 BMatC= 2.89D-11 BMatP= 1.66D-10
 IDIUse=1 WtCom= 1.00D+00 WtEn= 0.00D+00
 Coeff-Com:  0.424D-06 0.134D-06-0.193D-05 0.310D-06-0.297D-05-0.244D-05
 Coeff-Com:  0.231D-05 0.557D-04-0.226D-04-0.107D-03-0.172D-03-0.199D-03
 Coeff-Com: -0.237D-02-0.401D-02-0.969D-04 0.162D-01 0.500D-01 0.364D+00
 Coeff-Com:  0.576D+00
 Coeff:      0.424D-06 0.134D-06-0.193D-05 0.310D-06-0.297D-05-0.244D-05
 Coeff:      0.231D-05 0.557D-04-0.226D-04-0.107D-03-0.172D-03-0.199D-03
 Coeff:     -0.237D-02-0.401D-02-0.969D-04 0.162D-01 0.500D-01 0.364D+00
 Coeff:      0.576D+00
 Gap=     0.039 Goal=   None    Shift=    0.000
 Gap=     0.039 Goal=   None    Shift=    0.000
 RMSDP=2.48D-07 MaxDP=1.56D-05 DE=-5.48D-11 OVMax= 1.52D-06

 Cycle  20  Pass 1  IDiag  1:
 RMSU=  4.61D-08    CP:  1.19D+00 -2.51D-04 -3.28D-02  3.91D-02  9.70D-01
                    CP:  1.09D+00  1.40D+00  1.62D+00  1.80D+00  1.61D+00
                    CP:  7.62D-01  8.90D-01  1.07D+00  1.32D+00  9.25D-01
                    CP:  1.15D+00  1.07D+00  1.20D+00  1.38D+00
 E= -706.189024177403     Delta-E=       -0.000000000017 Rises=F Damp=F
 DIIS: error= 4.86D-08 at cycle  20 NSaved=  20.
 NSaved=20 IEnMin=20 EnMin= -706.189024177403     IErMin=20 ErrMin= 4.86D-08
 ErrMax= 4.86D-08  0.00D+00 EMaxC= 1.00D-01 BMatC= 2.99D-12 BMatP= 2.89D-11
 IDIUse=1 WtCom= 1.00D+00 WtEn= 0.00D+00
 Coeff-Com: -0.784D-07 0.266D-06-0.731D-06 0.190D-06-0.110D-05-0.510D-06
 Coeff-Com:  0.533D-06 0.206D-04-0.105D-04-0.960D-05 0.332D-04 0.378D-03
 Coeff-Com: -0.291D-04-0.155D-02-0.282D-02-0.716D-02-0.135D-02 0.147D+00
 Coeff-Com:  0.281D+00 0.584D+00
 Coeff:     -0.784D-07 0.266D-06-0.731D-06 0.190D-06-0.110D-05-0.510D-06
 Coeff:      0.533D-06 0.206D-04-0.105D-04-0.960D-05 0.332D-04 0.378D-03
 Coeff:     -0.291D-04-0.155D-02-0.282D-02-0.716D-02-0.135D-02 0.147D+00
 Coeff:      0.281D+00 0.584D+00
 Gap=     0.039 Goal=   None    Shift=    0.000
 Gap=     0.039 Goal=   None    Shift=    0.000
 RMSDP=5.79D-08 MaxDP=2.64D-06 DE=-1.68D-11 OVMax= 6.57D-07

 Cycle  21  Pass 1  IDiag  1:
 Restarting incremental Fock formation.
 E= -706.189024177389     Delta-E=        0.000000000015 Rises=F Damp=F
 DIIS: error= 4.54D-08 at cycle  21 NSaved=  20.
 NSaved=20 IEnMin=19 EnMin= -706.189024177403     IErMin=20 ErrMin= 4.54D-08
 ErrMax= 4.54D-08  0.00D+00 EMaxC= 1.00D-01 BMatC= 1.07D-12 BMatP= 2.99D-12
 IDIUse=1 WtCom= 1.00D+00 WtEn= 0.00D+00
 Coeff-Com: -0.222D-06 0.153D-06 0.130D-06 0.444D-06 0.790D-06-0.193D-06
 Coeff-Com: -0.534D-05-0.356D-05 0.272D-04 0.793D-04 0.367D-03 0.612D-03
 Coeff-Com:  0.438D-03-0.139D-02-0.930D-02-0.163D-01-0.104D-01-0.671D-02
 Coeff-Com:  0.365D+00 0.678D+00
 Coeff:     -0.222D-06 0.153D-06 0.130D-06 0.444D-06 0.790D-06-0.193D-06
 Coeff:     -0.534D-05-0.356D-05 0.272D-04 0.793D-04 0.367D-03 0.612D-03
 Coeff:      0.438D-03-0.139D-02-0.930D-02-0.163D-01-0.104D-01-0.671D-02
 Coeff:      0.365D+00 0.678D+00
 Gap=     0.039 Goal=   None    Shift=    0.000
 Gap=     0.039 Goal=   None    Shift=    0.000
 RMSDP=4.55D-08 MaxDP=2.37D-06 DE= 1.46D-11 OVMax= 5.59D-07

 Cycle  22  Pass 1  IDiag  1:
 RMSU=  4.39D-08    CP:  1.00D+00
 E= -706.189024177389     Delta-E=       -0.000000000001 Rises=F Damp=F
 DIIS: error= 5.50D-09 at cycle  22 NSaved=  20.
 NSaved=20 IEnMin=18 EnMin= -706.189024177403     IErMin=20 ErrMin= 5.50D-09
 ErrMax= 5.50D-09  0.00D+00 EMaxC= 1.00D-01 BMatC= 4.85D-14 BMatP= 1.07D-12
 IDIUse=1 WtCom= 1.00D+00 WtEn= 0.00D+00
 Coeff-Com: -0.408D-07 0.481D-07 0.845D-07 0.295D-06-0.235D-06-0.336D-05
 Coeff-Com: -0.161D-05 0.588D-05 0.251D-04 0.113D-03 0.183D-03 0.111D-03
 Coeff-Com: -0.466D-03-0.299D-02-0.526D-02-0.819D-02-0.144D-01 0.949D-01
 Coeff-Com:  0.258D+00 0.678D+00
 Coeff:     -0.408D-07 0.481D-07 0.845D-07 0.295D-06-0.235D-06-0.336D-05
 Coeff:     -0.161D-05 0.588D-05 0.251D-04 0.113D-03 0.183D-03 0.111D-03
 Coeff:     -0.466D-03-0.299D-02-0.526D-02-0.819D-02-0.144D-01 0.949D-01
 Coeff:      0.258D+00 0.678D+00
 Gap=     0.039 Goal=   None    Shift=    0.000
 Gap=     0.039 Goal=   None    Shift=    0.000
 RMSDP=1.84D-08 MaxDP=8.77D-07 DE=-6.82D-13 OVMax= 1.44D-07

 Cycle  23  Pass 1  IDiag  1:
 RMSU=  7.99D-09    CP:  1.00D+00  1.35D+00
 E= -706.189024177390     Delta-E=       -0.000000000001 Rises=F Damp=F
 DIIS: error= 1.63D-09 at cycle  23 NSaved=  20.
 NSaved=20 IEnMin=17 EnMin= -706.189024177403     IErMin=20 ErrMin= 1.63D-09
 ErrMax= 1.63D-09  0.00D+00 EMaxC= 1.00D-01 BMatC= 5.41D-15 BMatP= 4.85D-14
 IDIUse=1 WtCom= 1.00D+00 WtEn= 0.00D+00
 Coeff-Com:  0.228D-07 0.409D-07 0.473D-07-0.369D-07-0.125D-05 0.141D-06
 Coeff-Com: -0.427D-07 0.135D-05 0.362D-05-0.110D-04 0.134D-04 0.942D-05
 Coeff-Com:  0.792D-05 0.262D-04-0.262D-02-0.752D-02-0.198D-01 0.206D-01
 Coeff-Com:  0.380D+00 0.629D+00
 Coeff:      0.228D-07 0.409D-07 0.473D-07-0.369D-07-0.125D-05 0.141D-06
 Coeff:     -0.427D-07 0.135D-05 0.362D-05-0.110D-04 0.134D-04 0.942D-05
 Coeff:      0.792D-05 0.262D-04-0.262D-02-0.752D-02-0.198D-01 0.206D-01
 Coeff:      0.380D+00 0.629D+00
 Gap=     0.039 Goal=   None    Shift=    0.000
 Gap=     0.039 Goal=   None    Shift=    0.000
 RMSDP=1.11D-08 MaxDP=4.36D-07 DE=-6.82D-13 OVMax= 8.09D-08

 Cycle  24  Pass 1  IDiag  1:
 RMSU=  3.76D-09    CP:  1.00D+00  1.58D+00  1.35D+00
 E= -706.189024177384     Delta-E=        0.000000000006 Rises=F Damp=F
 DIIS: error= 6.32D-10 at cycle  24 NSaved=  20.
 NSaved=20 IEnMin=16 EnMin= -706.189024177403     IErMin=20 ErrMin= 6.32D-10
 ErrMax= 6.32D-10  0.00D+00 EMaxC= 1.00D-01 BMatC= 2.86D-16 BMatP= 5.41D-15
 IDIUse=1 WtCom= 1.00D+00 WtEn= 0.00D+00
 Large coefficients: NSaved= 20 BigCof=    0.00 CofMax=   10.00 Det=-1.72D-15
 Inversion failed.  Reducing to 19 matrices.
 Large coefficients: NSaved= 19 BigCof=    0.00 CofMax=   10.00 Det=-1.74D-15
 Inversion failed.  Reducing to 18 matrices.
 Large coefficients: NSaved= 18 BigCof=    0.00 CofMax=   10.00 Det=-1.74D-15
 Inversion failed.  Reducing to 17 matrices.
 Large coefficients: NSaved= 17 BigCof=    0.00 CofMax=   10.00 Det=-1.74D-15
 Inversion failed.  Reducing to 16 matrices.
 Large coefficients: NSaved= 16 BigCof=    0.00 CofMax=   10.00 Det=-1.95D-15
 Inversion failed.  Reducing to 15 matrices.
 Coeff-Com: -0.951D-06-0.134D-05-0.288D-05-0.138D-04-0.997D-05 0.771D-05
 Coeff-Com:  0.958D-04 0.148D-03 0.607D-04-0.720D-03-0.535D-02 0.107D-02
 Coeff-Com:  0.622D-01 0.145D+00 0.797D+00
 Coeff:     -0.951D-06-0.134D-05-0.288D-05-0.138D-04-0.997D-05 0.771D-05
 Coeff:      0.958D-04 0.148D-03 0.607D-04-0.720D-03-0.535D-02 0.107D-02
 Coeff:      0.622D-01 0.145D+00 0.797D+00
 Gap=     0.039 Goal=   None    Shift=    0.000
 Gap=     0.039 Goal=   None    Shift=    0.000
 RMSDP=5.89D-09 MaxDP=2.28D-07 DE= 6.37D-12 OVMax= 4.07D-08

 SCF Done:  E(UB3LYP) =  -706.189024177     A.U. after   24 cycles
            NFock= 24  Conv=0.59D-08     -V/T= 2.0042
 <Sx>= 0.0000 <Sy>= 0.0000 <Sz>= 0.0000 <S**2>=-0.0000 S=-0.0000
 <L.S>=  0.00000000000    
 KE= 7.032653506155D+02 PE=-3.627687110662D+03 EE= 1.243511312855D+03
 Annihilation of the first spin contaminant:
 S**2 before annihilation    -0.0000,   after     0.0000
 Leave Link  502 at Mon Jan 15 16:52:48 2024, MaxMem=  4026531840 cpu:            1393.7 elap:             175.1
 (Enter /sysapps/ubuntu-applications/gaussian/Gaussian/AVX2/g16/l601.exe)
 Copying SCF densities to generalized density rwf, IOpCl= 1 IROHF=0.

 **********************************************************************

            Population analysis using the SCF density.

 **********************************************************************

 Alpha  occ. eigenvalues --  -18.78209 -18.76910 -14.07292  -9.97816  -9.95002
 Alpha  occ. eigenvalues --   -9.93943  -9.93239  -9.93153  -9.93041  -9.92436
 Alpha  occ. eigenvalues --   -9.92139  -9.91888  -9.90662  -9.90620  -9.90081
 Alpha  occ. eigenvalues --   -9.89909  -0.69864  -0.68382  -0.67280  -0.60214
 Alpha  occ. eigenvalues --   -0.55429  -0.51376  -0.50094  -0.47900  -0.43353
 Alpha  occ. eigenvalues --   -0.40453  -0.36137  -0.34212  -0.30179  -0.27426
 Alpha  occ. eigenvalues --   -0.24902  -0.21284  -0.20814  -0.18491  -0.17610
 Alpha  occ. eigenvalues --   -0.16466  -0.16276  -0.15678  -0.15253  -0.14354
 Alpha  occ. eigenvalues --   -0.14049  -0.13245  -0.11635  -0.11468  -0.11258
 Alpha  occ. eigenvalues --   -0.09708  -0.08287  -0.07412  -0.06774  -0.06670
 Alpha  occ. eigenvalues --   -0.00251   0.01545   0.02629   0.04119   0.05155
 Alpha  occ. eigenvalues --    0.12666
 Alpha virt. eigenvalues --    0.16592   0.17902   0.18460   0.19661   0.19998
 Alpha virt. eigenvalues --    0.20227   0.20548   0.21982   0.22353   0.22760
 Alpha virt. eigenvalues --    0.23234   0.23885   0.25002   0.25182   0.25662
 Alpha virt. eigenvalues --    0.26834   0.27546   0.27621   0.28255   0.28537
 Alpha virt. eigenvalues --    0.29048   0.29181   0.30134   0.30684   0.30864
 Alpha virt. eigenvalues --    0.31180   0.31683   0.31959   0.32243   0.32782
 Alpha virt. eigenvalues --    0.32856   0.33406   0.34290   0.34291   0.34775
 Alpha virt. eigenvalues --    0.35081   0.35865   0.35994   0.36025   0.36727
 Alpha virt. eigenvalues --    0.37300   0.37942   0.38536   0.38848   0.39723
 Alpha virt. eigenvalues --    0.40253   0.40891   0.40996   0.42033   0.42308
 Alpha virt. eigenvalues --    0.42788   0.43147   0.43163   0.43462   0.44171
 Alpha virt. eigenvalues --    0.44313   0.44658   0.45021   0.45708   0.46489
 Alpha virt. eigenvalues --    0.47166   0.47742   0.47878   0.48267   0.48856
 Alpha virt. eigenvalues --    0.49119   0.49300   0.49926   0.50452   0.51503
 Alpha virt. eigenvalues --    0.52427   0.52475   0.53173   0.53862   0.54706
 Alpha virt. eigenvalues --    0.55709   0.55877   0.56176   0.56570   0.57168
 Alpha virt. eigenvalues --    0.57199   0.57346   0.58065   0.58595   0.58705
 Alpha virt. eigenvalues --    0.59493   0.60067   0.62099   0.63506   0.64672
 Alpha virt. eigenvalues --    0.66051   0.66311   0.68039   0.68201   0.69358
 Alpha virt. eigenvalues --    0.70173   0.72525   0.73639   0.74870   0.75740
 Alpha virt. eigenvalues --    0.77570   0.78027   0.79723   0.80335   0.80762
 Alpha virt. eigenvalues --    0.81501   0.82681   0.83384   0.83700   0.84478
 Alpha virt. eigenvalues --    0.85527   0.85892   0.86883   0.87853   0.88408
 Alpha virt. eigenvalues --    0.88771   0.90238   0.90276   0.90783   0.91124
 Alpha virt. eigenvalues --    0.92889   0.93376   0.93465   0.93717   0.94217
 Alpha virt. eigenvalues --    0.95862   0.96188   0.96314   0.97220   0.97400
 Alpha virt. eigenvalues --    0.98652   1.01035   1.02662   1.02956   1.03706
 Alpha virt. eigenvalues --    1.03729   1.04283   1.07124   1.08724   1.11000
 Alpha virt. eigenvalues --    1.11827   1.12985   1.14455   1.15140   1.16865
 Alpha virt. eigenvalues --    1.17276   1.19374   1.20527   1.21030   1.21410
 Alpha virt. eigenvalues --    1.21686   1.22052   1.23998   1.24702   1.25670
 Alpha virt. eigenvalues --    1.26217   1.27241   1.28966   1.30967   1.31707
 Alpha virt. eigenvalues --    1.32566   1.32898   1.34071   1.34820   1.37231
 Alpha virt. eigenvalues --    1.37301   1.39890   1.40804   1.42089   1.43474
 Alpha virt. eigenvalues --    1.47784   1.50537   1.51984   1.52604   1.53187
 Alpha virt. eigenvalues --    1.54135   1.54354   1.57086   1.58763   1.59100
 Alpha virt. eigenvalues --    1.60238   1.61603   1.64003   1.64727   1.66025
 Alpha virt. eigenvalues --    1.69053   1.70570   1.70644   1.71985   1.75214
 Alpha virt. eigenvalues --    1.75646   1.76259   1.78078   1.78931   1.79900
 Alpha virt. eigenvalues --    1.82071   1.82334   1.83507   1.83833   1.86333
 Alpha virt. eigenvalues --    1.86970   1.88849   1.89355   1.91628   1.93785
 Alpha virt. eigenvalues --    1.94526   1.96602   1.96663   1.97410   1.98520
 Alpha virt. eigenvalues --    1.99025   2.01946   2.02173   2.04443   2.08543
 Alpha virt. eigenvalues --    2.08733   2.09479   2.10867   2.11754   2.15005
 Alpha virt. eigenvalues --    2.15412   2.16463   2.18961   2.20734   2.20750
 Alpha virt. eigenvalues --    2.21924   2.23566   2.24985   2.26108   2.27625
 Alpha virt. eigenvalues --    2.29973   2.30513   2.32672   2.33592   2.34429
 Alpha virt. eigenvalues --    2.35988   2.38203   2.38974   2.41566   2.43436
 Alpha virt. eigenvalues --    2.48374   2.49779   2.52209   2.53231   2.55417
 Alpha virt. eigenvalues --    2.56542   2.59245   2.60376   2.62689   2.64233
 Alpha virt. eigenvalues --    2.68047   2.71697   2.72620   2.72647   2.75931
 Alpha virt. eigenvalues --    2.78013   2.79371   2.80381   2.82153   2.85221
 Alpha virt. eigenvalues --    2.85249   2.86206   2.87802   2.89973   2.90704
 Alpha virt. eigenvalues --    2.92976   2.93092   2.97914   2.98490   2.99909
 Alpha virt. eigenvalues --    3.02545   3.04382   3.04933   3.05477   3.07413
 Alpha virt. eigenvalues --    3.08927   3.09590   3.10831   3.13289   3.14806
 Alpha virt. eigenvalues --    3.15800   3.17407   3.17902   3.20808   3.23148
 Alpha virt. eigenvalues --    3.23740   3.26342   3.27434   3.29172   3.30615
 Alpha virt. eigenvalues --    3.32243   3.34230   3.34897   3.37920   3.40463
 Alpha virt. eigenvalues --    3.44844   3.45506   3.46781   3.48873   3.52217
 Alpha virt. eigenvalues --    3.53818   3.56691   3.59900   3.60951   3.62157
 Alpha virt. eigenvalues --    3.69661   3.74185   3.75909   3.76664   3.79240
 Alpha virt. eigenvalues --    3.83851   3.86436   3.88706   4.00156   4.01316
 Alpha virt. eigenvalues --    4.03444   4.08598   4.13096   4.14043   4.20521
 Alpha virt. eigenvalues --    4.21938   4.27536   4.31610   4.35845   4.46278
 Alpha virt. eigenvalues --    4.53696   4.59625   4.62728   4.74650   4.84059
 Alpha virt. eigenvalues --    5.07742   5.11621   5.38920   5.40430   5.56737
 Alpha virt. eigenvalues --    5.59674   6.03001   6.10095  23.80622  24.02538
 Alpha virt. eigenvalues --   24.13043  24.17923  24.19406  24.20921  24.22959
 Alpha virt. eigenvalues --   24.24290  24.27079  24.34428  24.35331  24.42610
 Alpha virt. eigenvalues --   24.71902  36.11464  50.34035  50.39324
  Beta  occ. eigenvalues --  -18.78209 -18.76910 -14.07292  -9.97816  -9.95002
  Beta  occ. eigenvalues --   -9.93943  -9.93239  -9.93153  -9.93041  -9.92436
  Beta  occ. eigenvalues --   -9.92139  -9.91888  -9.90662  -9.90620  -9.90081
  Beta  occ. eigenvalues --   -9.89909  -0.69864  -0.68382  -0.67280  -0.60214
  Beta  occ. eigenvalues --   -0.55429  -0.51376  -0.50094  -0.47900  -0.43353
  Beta  occ. eigenvalues --   -0.40453  -0.36137  -0.34212  -0.30179  -0.27426
  Beta  occ. eigenvalues --   -0.24902  -0.21284  -0.20814  -0.18491  -0.17610
  Beta  occ. eigenvalues --   -0.16466  -0.16276  -0.15678  -0.15253  -0.14354
  Beta  occ. eigenvalues --   -0.14049  -0.13245  -0.11635  -0.11468  -0.11258
  Beta  occ. eigenvalues --   -0.09708  -0.08287  -0.07412  -0.06774  -0.06670
  Beta  occ. eigenvalues --   -0.00251   0.01545   0.02629   0.04119   0.05155
  Beta  occ. eigenvalues --    0.12666
  Beta virt. eigenvalues --    0.16592   0.17902   0.18460   0.19661   0.19998
  Beta virt. eigenvalues --    0.20227   0.20548   0.21982   0.22353   0.22760
  Beta virt. eigenvalues --    0.23234   0.23885   0.25002   0.25182   0.25662
  Beta virt. eigenvalues --    0.26834   0.27546   0.27621   0.28255   0.28537
  Beta virt. eigenvalues --    0.29048   0.29181   0.30134   0.30684   0.30864
  Beta virt. eigenvalues --    0.31180   0.31683   0.31959   0.32243   0.32782
  Beta virt. eigenvalues --    0.32856   0.33406   0.34290   0.34291   0.34775
  Beta virt. eigenvalues --    0.35081   0.35865   0.35994   0.36025   0.36727
  Beta virt. eigenvalues --    0.37300   0.37942   0.38536   0.38848   0.39723
  Beta virt. eigenvalues --    0.40253   0.40891   0.40996   0.42033   0.42308
  Beta virt. eigenvalues --    0.42788   0.43147   0.43163   0.43462   0.44171
  Beta virt. eigenvalues --    0.44313   0.44658   0.45021   0.45708   0.46489
  Beta virt. eigenvalues --    0.47166   0.47742   0.47878   0.48267   0.48856
  Beta virt. eigenvalues --    0.49119   0.49300   0.49926   0.50452   0.51503
  Beta virt. eigenvalues --    0.52427   0.52475   0.53173   0.53862   0.54706
  Beta virt. eigenvalues --    0.55709   0.55877   0.56176   0.56570   0.57168
  Beta virt. eigenvalues --    0.57199   0.57346   0.58065   0.58595   0.58705
  Beta virt. eigenvalues --    0.59493   0.60067   0.62099   0.63506   0.64672
  Beta virt. eigenvalues --    0.66051   0.66311   0.68039   0.68201   0.69358
  Beta virt. eigenvalues --    0.70173   0.72525   0.73639   0.74870   0.75740
  Beta virt. eigenvalues --    0.77570   0.78027   0.79723   0.80335   0.80762
  Beta virt. eigenvalues --    0.81501   0.82681   0.83384   0.83700   0.84478
  Beta virt. eigenvalues --    0.85527   0.85892   0.86883   0.87853   0.88408
  Beta virt. eigenvalues --    0.88771   0.90238   0.90276   0.90783   0.91124
  Beta virt. eigenvalues --    0.92889   0.93376   0.93465   0.93717   0.94217
  Beta virt. eigenvalues --    0.95862   0.96188   0.96314   0.97220   0.97400
  Beta virt. eigenvalues --    0.98652   1.01035   1.02662   1.02956   1.03706
  Beta virt. eigenvalues --    1.03729   1.04283   1.07124   1.08724   1.11000
  Beta virt. eigenvalues --    1.11827   1.12985   1.14455   1.15140   1.16865
  Beta virt. eigenvalues --    1.17276   1.19374   1.20527   1.21030   1.21410
  Beta virt. eigenvalues --    1.21686   1.22052   1.23998   1.24702   1.25670
  Beta virt. eigenvalues --    1.26217   1.27241   1.28966   1.30967   1.31707
  Beta virt. eigenvalues --    1.32566   1.32898   1.34071   1.34820   1.37231
  Beta virt. eigenvalues --    1.37301   1.39890   1.40804   1.42089   1.43474
  Beta virt. eigenvalues --    1.47784   1.50537   1.51984   1.52604   1.53187
  Beta virt. eigenvalues --    1.54135   1.54354   1.57086   1.58763   1.59100
  Beta virt. eigenvalues --    1.60238   1.61603   1.64003   1.64727   1.66025
  Beta virt. eigenvalues --    1.69053   1.70570   1.70644   1.71985   1.75214
  Beta virt. eigenvalues --    1.75646   1.76259   1.78078   1.78931   1.79900
  Beta virt. eigenvalues --    1.82071   1.82334   1.83507   1.83833   1.86333
  Beta virt. eigenvalues --    1.86970   1.88849   1.89355   1.91628   1.93785
  Beta virt. eigenvalues --    1.94526   1.96602   1.96663   1.97410   1.98520
  Beta virt. eigenvalues --    1.99025   2.01946   2.02173   2.04443   2.08543
  Beta virt. eigenvalues --    2.08733   2.09479   2.10867   2.11754   2.15005
  Beta virt. eigenvalues --    2.15412   2.16463   2.18961   2.20734   2.20750
  Beta virt. eigenvalues --    2.21924   2.23566   2.24985   2.26108   2.27625
  Beta virt. eigenvalues --    2.29973   2.30513   2.32672   2.33592   2.34429
  Beta virt. eigenvalues --    2.35988   2.38203   2.38974   2.41566   2.43436
  Beta virt. eigenvalues --    2.48374   2.49779   2.52209   2.53231   2.55417
  Beta virt. eigenvalues --    2.56542   2.59245   2.60376   2.62689   2.64233
  Beta virt. eigenvalues --    2.68047   2.71697   2.72620   2.72647   2.75931
  Beta virt. eigenvalues --    2.78013   2.79371   2.80381   2.82153   2.85221
  Beta virt. eigenvalues --    2.85249   2.86206   2.87802   2.89973   2.90704
  Beta virt. eigenvalues --    2.92976   2.93092   2.97914   2.98490   2.99909
  Beta virt. eigenvalues --    3.02545   3.04382   3.04933   3.05477   3.07413
  Beta virt. eigenvalues --    3.08927   3.09590   3.10831   3.13289   3.14806
  Beta virt. eigenvalues --    3.15800   3.17407   3.17902   3.20808   3.23148
  Beta virt. eigenvalues --    3.23740   3.26342   3.27434   3.29172   3.30615
  Beta virt. eigenvalues --    3.32243   3.34230   3.34897   3.37920   3.40463
  Beta virt. eigenvalues --    3.44844   3.45506   3.46781   3.48873   3.52217
  Beta virt. eigenvalues --    3.53818   3.56691   3.59900   3.60951   3.62157
  Beta virt. eigenvalues --    3.69661   3.74185   3.75909   3.76664   3.79240
  Beta virt. eigenvalues --    3.83851   3.86436   3.88706   4.00156   4.01316
  Beta virt. eigenvalues --    4.03444   4.08598   4.13096   4.14043   4.20521
  Beta virt. eigenvalues --    4.21938   4.27536   4.31610   4.35845   4.46278
  Beta virt. eigenvalues --    4.53696   4.59625   4.62728   4.74650   4.84059
  Beta virt. eigenvalues --    5.07742   5.11621   5.38920   5.40430   5.56737
  Beta virt. eigenvalues --    5.59674   6.03001   6.10095  23.80622  24.02538
  Beta virt. eigenvalues --   24.13043  24.17923  24.19406  24.20921  24.22959
  Beta virt. eigenvalues --   24.24290  24.27079  24.34428  24.35331  24.42610
  Beta virt. eigenvalues --   24.71902  36.11464  50.34035  50.39324
          Condensed to atoms (all electrons):
               1          2          3          4          5          6
     1  C    9.244736   0.339579   0.299790   2.990542  -0.673716   0.652391
     2  C    0.339579   9.787264  -1.114252  -3.327546   0.129044  -1.314735
     3  C    0.299790  -1.114252  14.378409   1.512632  -2.879010   1.276914
     4  C    2.990542  -3.327546   1.512632  24.969441   1.094463   1.140738
     5  C   -0.673716   0.129044  -2.879010   1.094463  21.410610   1.081482
     6  C    0.652391  -1.314735   1.276914   1.140738   1.081482   9.650837
     7  C   -2.374140   0.125578  -0.275698  -0.219366  -1.632952  -0.598167
     8  C   -1.248546   0.540895  -0.556867  -6.367844  -7.441967  -1.408904
     9  C   -2.747190   0.481752   0.212830 -10.728307  -4.825503  -0.566905
    10  C   -0.083254   0.307491   0.346532  -1.253191  -0.564795  -2.424654
    11  O    0.225078   0.114685  -0.032504  -0.487219  -0.234315  -0.029199
    12  O   -0.046534   0.032402   0.116838  -0.300657  -0.445121   0.125258
    13  C   -0.547285   0.234166  -9.341589  -2.314194   1.515596  -2.058906
    14  N    0.025534  -0.050957   0.855023   0.085994  -0.046028   0.155039
    15  H    0.297894  -0.155295  -0.083757  -0.046937   0.030089  -0.036742
    16  H   -0.164368   0.513436  -0.035870  -0.024601  -0.054827  -0.007576
    17  H   -0.009162   0.069089  -0.202172  -0.031325   0.016281   0.250019
    18  C   -0.151178   0.017983  -0.007961  -0.835006  -0.427076  -0.115553
    19  C   -0.135559   0.010930   0.036844  -0.426517  -0.195817   0.032855
    20  H   -0.044380  -0.007926  -0.001375   0.071544   0.007749  -0.001596
    21  H    0.020255   0.000067   0.000182   0.025691   0.015492   0.003046
    22  H    0.020055   0.000142   0.000071   0.025866   0.014996   0.002757
    23  H   -0.012213   0.001849  -0.003611  -0.074939   0.042646  -0.001492
    24  H    0.000389  -0.001807   0.001516   0.021380  -0.026250  -0.006641
    25  H   -0.000080  -0.002236   0.003243   0.020873  -0.017928  -0.000425
               7          8          9         10         11         12
     1  C   -2.374140  -1.248546  -2.747190  -0.083254   0.225078  -0.046534
     2  C    0.125578   0.540895   0.481752   0.307491   0.114685   0.032402
     3  C   -0.275698  -0.556867   0.212830   0.346532  -0.032504   0.116838
     4  C   -0.219366  -6.367844 -10.728307  -1.253191  -0.487219  -0.300657
     5  C   -1.632952  -7.441967  -4.825503  -0.564795  -0.234315  -0.445121
     6  C   -0.598167  -1.408904  -0.566905  -2.424654  -0.029199   0.125258
     7  C   17.754677  -0.817660  -3.566418  -1.331646   1.245513  -0.036392
     8  C   -0.817660  24.327709   1.465104  -2.005074  -0.500376  -0.269141
     9  C   -3.566418   1.465104  28.101045  -2.770784  -0.276836  -0.389714
    10  C   -1.331646  -2.005074  -2.770784  15.487514  -0.020712   1.189898
    11  O    1.245513  -0.500376  -0.276836  -0.020712   8.511292  -0.000182
    12  O   -0.036392  -0.269141  -0.389714   1.189898  -0.000182   8.429755
    13  C   -0.454801  -0.408131  -0.095142   0.815372  -0.006755  -0.022953
    14  N    0.010520   0.003344  -0.003891  -0.038157   0.000029   0.000045
    15  H    0.179242   0.064981   0.011195   0.030015   0.004600   0.000217
    16  H    0.070123   0.034254   0.005685  -0.039140   0.003512   0.000231
    17  H    0.020291   0.049084   0.127334   0.159222   0.000431   0.012009
    18  C   -0.999879   0.302987   1.233417  -0.389292   0.003836  -0.014527
    19  C   -0.154525   0.442857  -0.224783  -0.704514  -0.016767   0.105870
    20  H    0.206874  -0.150435  -0.023789  -0.016044   0.013113   0.000101
    21  H    0.060910  -0.256401  -0.008899   0.019017   0.012167   0.000064
    22  H    0.060430  -0.248888  -0.012894   0.018859   0.012076   0.000057
    23  H   -0.130333  -0.128908   0.051841   0.070676  -0.003796   0.009705
    24  H    0.020368   0.036619  -0.064375   0.024464   0.000101  -0.002056
    25  H    0.022622   0.023815  -0.080813   0.040228   0.000096  -0.000988
              13         14         15         16         17         18
     1  C   -0.547285   0.025534   0.297894  -0.164368  -0.009162  -0.151178
     2  C    0.234166  -0.050957  -0.155295   0.513436   0.069089   0.017983
     3  C   -9.341589   0.855023  -0.083757  -0.035870  -0.202172  -0.007961
     4  C   -2.314194   0.085994  -0.046937  -0.024601  -0.031325  -0.835006
     5  C    1.515596  -0.046028   0.030089  -0.054827   0.016281  -0.427076
     6  C   -2.058906   0.155039  -0.036742  -0.007576   0.250019  -0.115553
     7  C   -0.454801   0.010520   0.179242   0.070123   0.020291  -0.999879
     8  C   -0.408131   0.003344   0.064981   0.034254   0.049084   0.302987
     9  C   -0.095142  -0.003891   0.011195   0.005685   0.127334   1.233417
    10  C    0.815372  -0.038157   0.030015  -0.039140   0.159222  -0.389292
    11  O   -0.006755   0.000029   0.004600   0.003512   0.000431   0.003836
    12  O   -0.022953   0.000045   0.000217   0.000231   0.012009  -0.014527
    13  C   21.047543  -0.732790   0.029959  -0.041471  -0.184222  -0.002285
    14  N   -0.732790   7.082779  -0.000511   0.001760   0.007274  -0.000033
    15  H    0.029959  -0.000511   0.565954  -0.020991   0.004916   0.000287
    16  H   -0.041471   0.001760  -0.020991   0.662662  -0.002251   0.000827
    17  H   -0.184222   0.007274   0.004916  -0.002251   0.567865   0.002043
    18  C   -0.002285  -0.000033   0.000287   0.000827   0.002043   6.988430
    19  C    0.023869  -0.000213   0.000689   0.000324  -0.004695  -0.202384
    20  H   -0.001928   0.000008  -0.001555  -0.000243   0.000045   0.314008
    21  H    0.000414  -0.000000  -0.000100  -0.000020  -0.000267   0.432164
    22  H    0.000404   0.000000  -0.000092  -0.000019  -0.000256   0.428410
    23  H   -0.001013   0.000009   0.000212   0.000044   0.001270   0.004101
    24  H    0.000785  -0.000021  -0.000103  -0.000034  -0.000577   0.004127
    25  H    0.000975  -0.000022  -0.000097  -0.000038  -0.000695   0.001872
              19         20         21         22         23         24
     1  C   -0.135559  -0.044380   0.020255   0.020055  -0.012213   0.000389
     2  C    0.010930  -0.007926   0.000067   0.000142   0.001849  -0.001807
     3  C    0.036844  -0.001375   0.000182   0.000071  -0.003611   0.001516
     4  C   -0.426517   0.071544   0.025691   0.025866  -0.074939   0.021380
     5  C   -0.195817   0.007749   0.015492   0.014996   0.042646  -0.026250
     6  C    0.032855  -0.001596   0.003046   0.002757  -0.001492  -0.006641
     7  C   -0.154525   0.206874   0.060910   0.060430  -0.130333   0.020368
     8  C    0.442857  -0.150435  -0.256401  -0.248888  -0.128908   0.036619
     9  C   -0.224783  -0.023789  -0.008899  -0.012894   0.051841  -0.064375
    10  C   -0.704514  -0.016044   0.019017   0.018859   0.070676   0.024464
    11  O   -0.016767   0.013113   0.012167   0.012076  -0.003796   0.000101
    12  O    0.105870   0.000101   0.000064   0.000057   0.009705  -0.002056
    13  C    0.023869  -0.001928   0.000414   0.000404  -0.001013   0.000785
    14  N   -0.000213   0.000008  -0.000000   0.000000   0.000009  -0.000021
    15  H    0.000689  -0.001555  -0.000100  -0.000092   0.000212  -0.000103
    16  H    0.000324  -0.000243  -0.000020  -0.000019   0.000044  -0.000034
    17  H   -0.004695   0.000045  -0.000267  -0.000256   0.001270  -0.000577
    18  C   -0.202384   0.314008   0.432164   0.428410   0.004101   0.004127
    19  C    6.808622  -0.003822  -0.017150  -0.014659   0.495654   0.326263
    20  H   -0.003822   0.469108  -0.017963  -0.017660   0.003025   0.001089
    21  H   -0.017150  -0.017963   0.779730  -0.139127  -0.011262  -0.010472
    22  H   -0.014659  -0.017660  -0.139127   0.777789  -0.010408   0.008820
    23  H    0.495654   0.003025  -0.011262  -0.010408   0.688255  -0.046096
    24  H    0.326263   0.001089  -0.010472   0.008820  -0.046096   0.700429
    25  H    0.317093   0.001036   0.009255  -0.010801  -0.052306  -0.116488
              25
     1  C   -0.000080
     2  C   -0.002236
     3  C    0.003243
     4  C    0.020873
     5  C   -0.017928
     6  C   -0.000425
     7  C    0.022622
     8  C    0.023815
     9  C   -0.080813
    10  C    0.040228
    11  O    0.000096
    12  O   -0.000988
    13  C    0.000975
    14  N   -0.000022
    15  H   -0.000097
    16  H   -0.000038
    17  H   -0.000695
    18  C    0.001872
    19  C    0.317093
    20  H    0.001036
    21  H    0.009255
    22  H   -0.010801
    23  H   -0.052306
    24  H   -0.116488
    25  H    0.715973
          Atomic-Atomic Spin Densities.
               1          2          3          4          5          6
     1  C   -0.000000   0.000000  -0.000000  -0.000000   0.000000   0.000000
     2  C    0.000000  -0.000000   0.000000   0.000000  -0.000000  -0.000000
     3  C   -0.000000   0.000000   0.000000  -0.000000   0.000000  -0.000000
     4  C   -0.000000   0.000000  -0.000000  -0.000000   0.000000   0.000000
     5  C    0.000000  -0.000000   0.000000   0.000000  -0.000000   0.000000
     6  C    0.000000  -0.000000  -0.000000   0.000000   0.000000   0.000000
     7  C    0.000000   0.000000  -0.000000  -0.000000   0.000000   0.000000
     8  C    0.000000   0.000000  -0.000000  -0.000000   0.000000  -0.000000
     9  C    0.000000  -0.000000   0.000000   0.000000  -0.000000  -0.000000
    10  C   -0.000000  -0.000000  -0.000000  -0.000000   0.000000  -0.000000
    11  O   -0.000000   0.000000  -0.000000  -0.000000   0.000000  -0.000000
    12  O    0.000000  -0.000000   0.000000   0.000000  -0.000000   0.000000
    13  C   -0.000000   0.000000  -0.000000  -0.000000   0.000000   0.000000
    14  N    0.000000   0.000000   0.000000   0.000000  -0.000000  -0.000000
    15  H    0.000000   0.000000   0.000000   0.000000   0.000000   0.000000
    16  H    0.000000  -0.000000   0.000000   0.000000  -0.000000  -0.000000
[...]
 0.00092879,0.00050473,-0.00060331,-0.00027170,-0.00043108,-0.00026802,
 0.00028586,0.00000047,0.00086312,-0.02787948,0.16805834,0.00042042,-0.
 00088025,-0.00021536,0.00140953,0.00156419,0.00292226,0.00202735,-0.00
 106432,0.00293407,0.00499401,0.00110137,0.00063727,-0.00111968,0.01650
 416,-0.01421077,-0.01669183,0.14078867,-0.20558341,-0.00089387,0.00066
 211,-0.00053794,-0.00009117,0.00029058,-0.00027587,-0.00022001,-0.0003
 1612,0.00065421,-0.00177080,0.00112790,-0.00379631,0.00036623,0.000073
 03,-0.00048307,-0.00212543,-0.00104081,0.00242487,-0.00106379,-0.00202
 546,-0.00112812,-0.00020976,0.00019535,0.00060912,-0.00027205,-0.00022
 444,-0.00029656,0.00029496,0.00018075,0.00037323,0.01486541,-0.1569016
 2,0.21582512,-0.00008978,-0.00105361,0.00023958,-0.00070010,-0.0004721
 1,0.00073347,0.00054696,0.00037342,-0.00119444,-0.00257124,0.00499640,
 0.00115404,-0.00042633,0.00112677,-0.00147375,-0.00045022,-0.00011166,
 0.00030319,-0.02151623,0.00567366,0.01862977,-0.13235829,0.00362769,0.
 05191380,0.00241497,-0.00543903,0.00761589,0.00497756,0.00244080,-0.00
 186336,-0.00322651,-0.00193270,0.00460607,-0.00056056,0.00006791,-0.00
 033578,-0.00081840,0.00009883,0.00086549,0.00059975,-0.00000700,-0.000
 58710,0.00011279,0.00002911,0.00004378,-0.00003808,0.00003689,0.000138
 41,0.00004290,-0.00000037,-0.00002594,0.48662985,-0.00006904,-0.000328
 69,-0.00125657,-0.00001331,-0.00024002,-0.00039182,-0.00004174,-0.0003
 3559,0.00013163,0.00449138,0.00090322,0.00257916,0.00022658,-0.0005921
 8,-0.00002802,-0.00031738,0.00005760,-0.00014059,0.01414723,0.00767694
 ,-0.01244956,0.00095100,-0.07850672,0.01211799,-0.01530214,0.00232412,
 0.01464065,0.00362627,0.00046690,0.00449227,0.00129600,-0.00155092,-0.
 00017537,-0.00140038,-0.00059244,0.00091243,0.00019202,0.00014378,0.00
 003708,-0.00008810,-0.00003324,0.00002529,-0.00003827,0.00011809,0.000
 14529,0.00016320,0.00006707,-0.00001034,0.00006576,-0.00001079,-0.0000
 2712,-0.02778395,0.53166112,-0.00101884,-0.00039462,0.00005325,0.00013
 621,0.00001693,-0.00069967,-0.00065007,-0.00024090,0.00062519,0.001764
 93,0.00214173,0.00167028,-0.00028889,-0.00082731,0.00087343,0.00055095
 ,-0.00031846,-0.00034787,0.00771691,-0.00490473,0.00726806,0.05519820,
 0.00976744,-0.12985392,0.02031643,0.00589889,-0.02245182,-0.00339034,0
 .00553654,0.00231419,0.00039582,0.00270132,-0.00460565,0.00154603,-0.0
 0040147,-0.00169894,0.00074559,0.00011803,-0.00050628,-0.00048296,-0.0
 0004629,0.00041242,0.00013280,0.00008554,-0.00002170,-0.00002541,0.000
 10203,0.00006257,-0.00011096,0.00003031,0.00007141,0.04332883,-0.02285
 151,0.48576025,-0.00005872,0.00001364,-0.00044269,0.00015634,-0.000846
 47,0.00083028,-0.00022968,0.00045200,-0.00077718,-0.00088147,-0.001305
 27,0.00216249,-0.00112191,0.00143112,0.00426624,-0.00058850,0.00023376
 ,-0.00059350,0.00633829,-0.00032709,0.00023912,-0.00416898,0.01022949,
 -0.00764318,-0.14504746,0.05187420,0.00235934,-0.02254066,0.01440198,0
 .00716366,-0.00078756,-0.00051991,0.00095122,-0.00344582,0.00433176,-0
 .00352082,-0.00077548,0.00021127,0.00057524,0.00048436,-0.00005192,-0.
 00043382,0.00006832,-0.00004168,0.00002221,0.00007477,0.00004553,0.000
 05208,0.00006107,0.00008335,0.00000164,-0.00138621,-0.00099888,0.00129
 906,0.46934156,0.00009915,-0.00042057,-0.00023832,-0.00030544,0.000327
 45,-0.00032396,-0.00009552,-0.00051524,0.00016553,-0.00001888,0.000630
 66,-0.00123933,0.00188711,0.00271493,0.00228011,-0.00067991,-0.0001690
 2,-0.00035763,-0.00256823,0.00339185,0.00577839,0.02027437,-0.01656216
 ,0.00599887,0.05489362,-0.11187476,0.00930848,0.00577299,0.00683410,-0
 .00556863,0.00151055,-0.00108737,-0.00053351,0.00092429,-0.00403678,0.
 00288720,0.00038735,0.00007490,-0.00020555,-0.00028912,-0.00004510,0.0
 0021003,-0.00009626,0.00008362,0.00001966,0.00004992,0.00011542,0.0000
 6281,0.00013575,0.00002064,0.00008951,0.00121989,-0.00221987,-0.000025
 75,0.03451913,0.48756116,-0.00053585,-0.00017097,0.00015694,0.00012679
 ,0.00015381,-0.00044550,-0.00005879,-0.00032116,0.00001293,0.00047497,
 -0.00008544,-0.00064800,0.00371046,0.00267262,-0.00094246,0.00057243,-
 0.00116703,0.00007801,0.00311931,0.00380211,-0.00154679,-0.02057908,0.
 01490089,0.00107322,-0.00133035,0.01182821,-0.08100434,0.01825206,-0.0
 1316065,0.00730592,-0.00165189,0.00123939,-0.00059959,0.00091477,-0.00
 015162,-0.00176802,0.00033564,-0.00005069,-0.00005107,-0.00011856,0.00
 000019,0.00002407,0.00009212,-0.00002892,-0.00001166,0.00004657,0.0000
 6653,0.00007231,-0.00006747,0.00013685,0.00006768,-0.00154604,0.001936
 63,-0.00245537,-0.02334259,-0.02278890,0.54356837,-0.00058261,0.000426
 18,-0.00002361,0.00029108,-0.00006621,-0.00017291,-0.00025987,0.000111
 28,0.00013661,0.00171273,0.00005321,-0.00153724,-0.00029034,-0.0000030
 8,0.00028051,0.00031213,0.00001090,-0.00028115,-0.00177269,-0.00218229
 ,0.00508482,0.00756737,-0.01732673,0.01518668,-0.00382596,0.00096011,0
 .00263028,0.00101128,-0.00112109,0.00075668,-0.00009433,0.00100763,-0.
 00312240,-0.00045801,0.00031386,-0.00003918,0.00002928,0.00005228,-0.0
 0010042,-0.00000919,-0.00001206,0.00001740,-0.00017738,0.00003660,0.00
 009900,0.00003484,-0.00001368,-0.00002377,0.00002858,0.00001136,-0.000
 03764,-0.06201427,0.04747106,-0.04962181,-0.00064528,0.00018440,-0.000
 40225,0.06732764,0.00032944,-0.00020395,-0.00000978,-0.00014107,0.0000
 7339,0.00002614,-0.00003583,0.00001127,0.00009150,-0.00073088,-0.00003
 622,0.00073301,-0.00003786,0.00003130,0.00003169,0.00003191,-0.0000224
 7,0.00001924,0.00192316,-0.00021601,-0.00035157,-0.00210545,-0.0016289
 7,0.00365247,-0.00011350,0.00042962,0.00022106,0.00022604,0.00017683,-
 0.00016415,0.00107788,-0.00187520,-0.00134131,-0.00005233,-0.00026571,
 0.00033946,0.00015720,-0.00001430,-0.00012974,-0.00013428,-0.00000310,
 0.00011315,0.00005745,0.00000817,-0.00007711,-0.00003624,0.00000892,0.
 00000353,0.00000488,-0.00002093,0.00002438,0.04469146,-0.17551715,0.12
 092645,-0.00035994,-0.00039262,-0.00025298,-0.04993645,0.18901494,0.00
 009884,-0.00009221,0.00004944,-0.00007564,-0.00003754,0.00011284,0.000
 31952,-0.00003880,-0.00017594,-0.00052506,0.00005323,0.00043856,0.0003
 2410,-0.00000440,-0.00025510,-0.00029802,0.00003342,0.00023178,-0.0001
 7575,0.00323280,-0.00318700,-0.00420842,0.01712596,-0.01839051,0.00400
 865,-0.00070782,-0.00207531,-0.00099419,0.00103532,-0.00024506,-0.0032
 0637,-0.00126997,0.00227825,0.00043582,0.00001379,-0.00044771,-0.00022
 911,-0.00003707,0.00024235,0.00017035,0.00000513,-0.00016454,0.0000708
 7,-0.00005806,-0.00000011,0.00000443,-0.00001571,0.00000359,-0.0000297
 7,0.00001934,0.00000356,-0.04611513,0.11851037,-0.16001813,0.00029534,
 -0.00071997,-0.00016631,0.04799089,-0.13351706,0.17753997,-0.00087171,
 -0.00009119,0.00031729,0.00011112,0.00011030,-0.00066055,-0.00095925,0
 .00005099,0.00095754,0.00143439,0.00138151,-0.00061302,-0.00052719,-0.
 00052380,0.00095828,0.00097129,-0.00025098,-0.00045096,-0.00170045,-0.
 00278221,0.00415154,-0.02216454,-0.00337569,-0.00294433,-0.00010328,0.
 00279143,-0.00216359,-0.00093361,0.00044908,0.00046084,0.00011921,0.00
 070103,-0.00124246,0.00053902,-0.00027663,0.00009956,0.00102528,0.0000
 3620,-0.00095445,-0.00073766,-0.00002248,0.00069721,0.00002913,0.00003
 470,-0.00001780,-0.00005935,0.00007602,0.00003604,-0.00005910,-0.00000
 036,0.00004528,-0.22592723,-0.04975638,-0.08837064,-0.00024690,-0.0007
 7218,-0.00146362,-0.00717817,-0.00224410,-0.00314691,0.25373763,-0.000
 31940,0.00009331,0.00003606,0.00016283,0.00001296,-0.00022254,-0.00030
 732,0.00005010,0.00029018,0.00093179,0.00026734,-0.00014613,-0.0003371
 5,-0.00021379,0.00025093,0.00035277,-0.00012450,-0.00019367,0.00007786
 ,-0.00087706,0.00131765,-0.00030232,0.00003918,0.00004338,-0.00025457,
 0.00020215,0.00049560,-0.00000474,0.00002346,0.00004695,0.00043084,-0.
 00062058,-0.00181074,0.00021993,-0.00000808,-0.00005232,0.00026307,0.0
 0000393,-0.00028145,-0.00018597,-0.00000510,0.00018620,-0.00002132,0.0
 0000070,-0.00000597,0.00000316,0.00001841,0.00000411,-0.00000807,0.000
 01736,0.00001348,-0.04935283,-0.05622434,-0.02059443,-0.00122587,-0.00
 014286,-0.00054072,0.01959026,0.00832164,0.00774764,0.05509695,0.05792
 108,0.00049708,-0.00004642,-0.00011587,-0.00010762,0.00007113,0.000227
 30,0.00030699,-0.00008293,-0.00021498,-0.00103369,-0.00115675,-0.00003
 969,0.00037240,0.00002360,-0.00030838,-0.00027645,0.00022622,0.0002852
 6,0.00119459,0.00169834,-0.00390942,0.02167188,0.00604389,0.01039897,-
 0.00044546,0.00010000,0.00010890,-0.00039228,-0.00079404,-0.00080387,-
 0.00076982,0.00024167,0.00241404,-0.00000558,-0.00009080,0.00047788,-0
 .00019838,-0.00002622,0.00019957,0.00013116,0.00000908,-0.00012545,0.0
 0002075,-0.00003135,-0.00001362,-0.00000340,-0.00004053,-0.00003078,0.
 00000633,-0.00001838,-0.00001108,-0.08468364,-0.02121405,-0.08147084,0
 .00091680,0.00060630,-0.00012315,-0.01687368,-0.00793625,-0.00867993,0
 .09365978,0.02636671,0.08959702,-0.00033634,0.00018973,0.00041822,0.00
 016873,0.00024033,-0.00015514,-0.00051582,-0.00001035,0.00040477,-0.00
 026490,-0.00026997,-0.00133646,-0.00030935,-0.00022219,0.00046953,0.00
 049374,-0.00009802,-0.00021140,-0.00142943,-0.00158057,0.00360125,-0.0
 0548045,0.02024461,0.01281006,0.00008964,0.00099218,-0.00181336,-0.000
 91330,-0.00026126,-0.00005856,0.00004899,0.00044548,-0.00092932,0.0002
 2677,0.00002086,-0.00007439,0.00047114,0.00000600,-0.00045853,-0.00034
 602,-0.00001152,0.00032405,-0.00001413,-0.00001223,-0.00003502,-0.0000
 6752,-0.00000125,-0.00000751,-0.00002584,0.00000382,0.00002571,-0.0428
 7699,0.02475889,0.01090516,0.00071905,0.00010687,0.00020751,-0.0014223
 7,0.00700804,0.00517894,0.00183367,-0.02568736,-0.01346043,0.04969064,
 0.00010920,-0.00003766,-0.00022792,-0.00004607,-0.00021038,0.00020227,
 0.00043777,0.00008905,-0.00042620,-0.00028848,-0.00023295,0.00029620,0
 .00001851,0.00027640,-0.00044239,-0.00026738,0.00022266,0.00025928,-0.
 00032733,-0.00026317,-0.00047163,0.00374699,0.00531856,0.00005752,0.00
 077027,-0.00138345,0.00180464,0.00015661,-0.00082665,-0.00057665,0.001
 24770,0.00041754,-0.00015569,-0.00013535,0.00055947,-0.00018749,-0.000
 53050,-0.00000917,0.00047460,0.00039395,0.00001657,-0.00035855,-0.0000
 3000,0.00000691,0.00002714,0.00003636,-0.00002828,-0.00000725,0.000019
 76,-0.00000630,-0.00003764,0.02145539,-0.22572799,-0.09488768,-0.00088
 816,-0.00040232,0.00065961,0.00007461,-0.01850713,-0.01163514,-0.00093
 708,-0.00900885,-0.00420748,-0.02524293,0.24882649,0.00064350,-0.00041
 969,-0.00053020,-0.00041088,-0.00030822,0.00040300,0.00095136,0.000033
 96,-0.00071327,-0.00032662,0.00089038,0.00218681,0.00049459,0.00018281
 ,-0.00103119,-0.00095176,0.00022481,0.00042744,0.00130284,0.00279360,-
 0.00475749,0.00541888,-0.01782646,-0.01156990,0.00065164,-0.00068081,0
 .00145505,0.00089781,0.00022031,0.00000606,-0.00203699,-0.00181047,0.0
 0147712,-0.00041618,0.00016401,0.00022317,-0.00083599,-0.00005356,0.00
 078157,0.00059315,0.00003289,-0.00054953,0.00002131,-0.00001359,0.0000
 2233,0.00007908,0.00000494,0.00002436,0.00005496,0.00000179,-0.0000213
 3,0.01078910,-0.09687440,-0.09462819,-0.00029409,-0.00175677,-0.000852
 98,-0.00013077,0.01729214,0.01230764,-0.00049679,-0.01349344,-0.007733
 09,-0.01575014,0.10947180,0.10239297,0.00051540,-0.00026414,-0.0000021
 7,-0.00041174,0.00060123,-0.00022321,-0.00024357,-0.00047485,0.0004274
 8,-0.00021649,0.00072616,-0.00126836,0.00140299,-0.00015218,0.00159205
 ,-0.00051659,0.00015082,-0.00015280,-0.00164790,0.00043070,0.00115369,
 0.00067568,-0.00223098,0.00345178,-0.02445277,-0.00601336,-0.00016984,
 -0.00256289,0.00376870,-0.00404273,0.00063787,0.00035651,-0.00068346,0
 .00054195,-0.00189347,0.00104106,0.00066998,0.00003575,-0.00050961,-0.
 00050338,-0.00001949,0.00044966,-0.00007336,0.00006560,-0.00001824,-0.
 00004155,0.00004222,0.00000044,0.00003203,-0.00001285,0.00003234,-0.00
 037264,-0.00168653,-0.00063927,-0.20750649,-0.10875040,-0.01323897,0.0
 0031886,0.00035297,0.00016284,0.00132586,0.00081303,-0.00023374,0.0000
 1016,0.00032685,-0.00003756,0.23438525,-0.00008411,0.00027733,0.000180
 59,0.00013496,-0.00002492,-0.00007058,-0.00018523,0.00010042,0.0001068
 0,0.00024834,-0.00023206,-0.00012940,-0.00077075,-0.00036800,-0.000798
 91,0.00036400,-0.00010201,-0.00009056,-0.00042736,-0.00092767,-0.00051
 765,-0.00040931,0.00013646,0.00048113,0.01794043,0.01286408,0.00178645
 ,0.00159155,-0.00255712,0.00170750,-0.00001161,0.00041335,-0.00021853,
 -0.00083298,0.00179145,-0.00014278,0.00014866,-0.00001691,-0.00017201,
 -0.00010452,0.00001499,0.00011182,0.00000011,-0.00000590,-0.00001025,-
 0.00001576,-0.00000311,-0.00001038,0.00001220,-0.00001985,-0.00003020,
 0.00073735,-0.00021846,0.00039408,-0.10495356,-0.10926665,-0.00726030,
 0.00022640,0.00005886,-0.00011253,0.00005596,0.00016175,0.00034551,-0.
 00045228,-0.00009089,0.00011695,0.11685509,0.12089791,0.00018047,-0.00
 014890,-0.00006665,-0.00011789,0.00012115,0.00001563,0.00018364,-0.000
 12923,-0.00002007,-0.00027467,0.00012156,-0.00022354,0.00078610,0.0000
 6024,0.00016691,-0.00021619,0.00002565,0.00011130,0.00001193,0.0000852
 9,0.00011273,-0.00027360,0.00049198,-0.00015266,-0.00051348,-0.0007290
 0,0.00003484,-0.00004143,0.00112213,-0.00095807,0.00020860,-0.00003454
 ,-0.00000019,0.00057535,-0.00192618,-0.00033116,-0.00003331,-0.0000147
 3,0.00007419,0.00003338,0.00000284,-0.00004229,-0.00000631,0.00000879,
 0.00000748,-0.00000123,-0.00001067,-0.00000320,-0.00001804,-0.00000395
 ,0.00000865,-0.00120100,-0.00049421,0.00007256,-0.01377217,-0.00640981
 ,-0.04478692,0.00013486,0.00008122,0.00010895,0.00059523,0.00064902,-0
 .00005687,-0.00005419,-0.00020422,-0.00000468,0.01414643,0.01012459,0.
 04443465,0.00038752,-0.00027148,0.00003170,-0.00026344,0.00009957,0.00
 009700,0.00051084,-0.00019748,-0.00020113,-0.00043609,0.00027188,0.000
 08432,0.00170451,-0.00105207,-0.00008097,-0.00054021,0.00001063,0.0004
 6874,0.00112354,0.00047293,-0.00144899,-0.00466809,0.00283599,0.000881
 44,0.00287539,0.01507787,-0.02206726,-0.00180588,0.00431246,-0.0032211
 1,-0.00050681,0.00016847,0.00020729,0.00067719,-0.00316910,0.00170704,
 -0.00032236,-0.00006727,0.00036725,0.00027088,0.00001132,-0.00025805,0
 .00003997,-0.00002747,0.00000231,0.00001153,-0.00002176,0.00002238,-0.
 00015552,0.00006966,0.00004123,-0.00064097,-0.00041203,0.00039574,-0.0
 4630870,-0.01812958,0.02055604,0.00025270,0.00011781,-0.00003707,0.000
 34811,0.00020380,0.00017771,-0.00012675,-0.00008823,0.00013577,-0.0026
 6940,-0.01403759,0.02215670,0.05161868,-0.00018416,0.00016635,-0.00001
 544,0.00013357,-0.00009193,-0.00001310,-0.00004315,0.00007160,-0.00005
 564,0.00026059,-0.00014282,0.00002115,-0.00036909,0.00030589,0.0000496
 4,0.00000931,0.00004281,-0.00006454,-0.00075146,-0.00006189,0.00099269
 ,0.00362771,-0.00157043,-0.00063984,-0.00001577,-0.01332764,0.01660107
 ,0.00026326,-0.00203886,0.00344994,0.00043400,-0.00037497,0.00006484,-
 0.00314180,0.00136742,-0.00152157,-0.00006016,0.00001394,0.00002951,0.
 00003532,0.00000183,-0.00003931,-0.00002549,0.00000245,0.00002308,0.00
 001308,0.00000288,-0.00000830,0.00004910,-0.00000128,-0.00005126,0.000
 12215,-0.00034219,-0.00068450,-0.01539042,-0.13193239,0.11901988,0.000
 00700,0.00023576,0.00017917,0.00022417,0.00015419,-0.00014300,-0.00003
 349,0.00034401,0.00028279,-0.00159896,-0.01033257,0.01323797,0.0140098
 8,0.14458815,-0.00008690,0.00006333,0.00001875,0.00005509,0.00001506,-
 0.00007884,-0.00039964,0.00008310,0.00024662,0.00010118,0.00000632,-0.
 00004602,-0.00096231,0.00066693,0.00009581,0.00046986,-0.00006377,-0.0
 0033312,0.00013977,-0.00009463,0.00019859,-0.00014626,0.00008291,0.000
 48561,-0.00282401,0.00336389,-0.00218889,0.00199106,-0.00016722,-0.000
 74187,-0.00013498,0.00029910,-0.00029823,0.00164444,-0.00146714,-0.001
 55148,0.00035819,0.00003611,-0.00036689,-0.00028885,-0.00001804,0.0002
 7390,-0.00000026,0.00002486,-0.00002894,-0.00002240,0.00002234,-0.0000
 0396,0.00006920,-0.00006987,0.00002159,-0.00029235,-0.00019877,-0.0002
 6885,0.01708887,0.12142228,-0.21916747,0.00010392,0.00008136,0.0001843
 2,0.00022709,0.00005465,-0.00000494,-0.00000894,0.00014733,0.00028351,
 0.00029803,-0.00358734,0.00503395,-0.01989981,-0.13398418,0.23766950,0
 .00033740,-0.00010392,0.00002531,-0.00027807,0.00023736,-0.00011593,0.
 00002080,-0.00006712,0.00032073,-0.00013885,0.00047294,-0.00049411,-0.
 00030293,-0.00154282,0.00001633,-0.00026991,0.00033825,0.00007152,-0.0
 0133764,-0.00023868,0.00010766,0.00061464,-0.00179983,0.00145215,-0.00
 545181,0.01687971,0.02093459,-0.00195623,0.00384941,-0.00228737,0.0002
 9286,0.00000607,-0.00018030,0.00066639,-0.00100641,0.00097365,0.000234
 11,-0.00003446,-0.00026067,-0.00020659,0.00000199,0.00021246,-0.000039
 73,0.00003104,-0.00001024,-0.00003097,0.00000249,-0.00001324,-0.000011
 71,-0.00003690,-0.00000216,0.00064927,0.00051871,0.00016654,-0.0415039
 3,0.00974014,0.01592681,-0.00015601,-0.00005031,-0.00001912,-0.0000062
 7,-0.00013937,-0.00047129,0.00037667,-0.00001246,-0.00034622,0.0007027
 4,-0.01603001,-0.02248917,-0.00137663,0.00242479,0.00252000,0.04917239
 ,-0.00048924,0.00028379,0.00005098,0.00045261,-0.00035281,0.00022496,-
 0.00013325,0.00019758,-0.00041850,0.00007552,-0.00099787,0.00064933,-0
 .00023241,0.00192223,0.00025600,0.00035747,-0.00035898,-0.00016835,0.0
 0125111,-0.00006777,-0.00060790,0.00023893,0.00180092,-0.00157930,0.00
 595426,-0.01120268,-0.01267577,0.00147553,-0.00389982,0.00308339,-0.00
 041109,0.00004865,0.00061500,-0.00206369,0.00096868,-0.00179179,-0.000
 34583,0.00006628,0.00032766,0.00028411,-0.00000550,-0.00026699,0.00005
 862,-0.00004101,0.00001237,0.00002679,-0.00002008,0.00000117,0.0000045
 6,0.00002671,-0.00001622,-0.00054446,-0.00097824,-0.00154164,0.0090819
 3,-0.12268703,-0.11043736,0.00012444,0.00033303,0.00029013,0.00002476,
 -0.00006242,0.00005573,-0.00013341,0.00065751,0.00152420,-0.00142844,-
 0.01255047,-0.01602699,-0.00018821,0.01291968,0.01328135,-0.01344060,0
 .13399962,0.00010202,0.00019800,0.00009822,0.00010158,-0.00017578,0.00
 021763,0.00026931,0.00000501,-0.00038785,-0.00033703,-0.00036606,0.000
 47545,-0.00006028,-0.00000339,-0.00043883,-0.00016201,-0.00007759,0.00
 012677,0.00037762,-0.00063464,-0.00103822,0.00022950,0.00180588,-0.001
 76271,0.00453356,0.00136152,0.00515861,-0.00045981,-0.00033076,-0.0002
 6201,-0.00005510,-0.00024905,0.00070932,0.00140905,-0.00004710,0.00034
 520,-0.00046263,-0.00000534,0.00042604,0.00036081,0.00001630,-0.000318
 63,0.00002581,-0.00003904,0.00000955,0.00003023,-0.00002698,0.00000378
 ,-0.00003685,0.00001551,0.00000679,-0.00104291,0.00058356,-0.00015640,
 0.01259645,-0.10866105,-0.19778983,-0.00005485,0.00014314,0.00030440,0
 .00031944,-0.00016115,-0.00006697,0.00000818,0.00042553,0.00040082,-0.
 00153587,-0.00220401,-0.00353554,-0.00011827,-0.01673104,-0.01943264,-
 0.01603795,0.12515854,0.21690703\\-0.00000096,0.00000254,-0.00000262,-
 0.00000102,-0.00000418,0.00000453,0.00000567,-0.00000041,-0.00000329,-
 0.00000553,-0.00000960,0.00001162,-0.00000666,0.00001236,-0.00001052,0
 .00000129,-0.00000201,0.00000005,0.00001728,-0.00000350,0.00000220,-0.
 00001737,0.00000394,-0.00000030,-0.00000161,-0.00000396,0.00000688,0.0
 0001251,-0.00000307,0.00000152,0.00000522,-0.00000222,-0.00000548,0.00
 000190,-0.00000139,-0.00000357,-0.00001745,0.00000954,0.00000327,0.000
 01108,-0.00000365,-0.00000494,0.00000142,-0.00000077,0.00000034,0.0000
 0013,0.00000095,-0.00000056,-0.00000065,0.00000074,0.00000010,0.000000
 93,0.00000483,-0.00001035,0.00000098,0.00001219,0.00000971,-0.00000212
 ,0.00000225,0.00000199,0.00000002,-0.00000560,-0.00000198,0.00000240,0
 .00000175,0.00000786,-0.00000804,-0.00000708,-0.00000235,-0.00000147,0
 .00000049,-0.00000180,0.00000205,-0.00000414,-0.00000231\\\@


 Cherishing children is the mark of a civilized society.
 -- Joan Ganz Cooney
 Job cpu time:       0 days  2 hours 39 minutes 41.6 seconds.
 Elapsed time:       0 days  0 hours 20 minutes  2.1 seconds.
 File lengths (MBytes):  RWF=    803 Int=      0 D2E=      0 Chk=     20 Scr=      1
 Normal termination of Gaussian 16 at Mon Jan 15 18:09:14 2024.
