 Entering Gaussian System, Link 0=g16
 Input=178-an-PCM.com
 Output=178-an-PCM.log
 Initial command:
 /sysapps/ubuntu-applications/gaussian/Gaussian/AVX2/g16/l1.exe "/scratch/selhajj1/4286678/Gau-1586991.inp" -scrdir="/scratch/selhajj1/4286678/"
 Entering Link 1 = /sysapps/ubuntu-applications/gaussian/Gaussian/AVX2/g16/l1.exe PID=   1586993.
  
 Copyright (c) 1988,1990,1992,1993,1995,1998,2003,2009,2016,
            Gaussian, Inc.  All Rights Reserved.
  
 This is part of the Gaussian(R) 16 program.  It is based on
 the Gaussian(R) 09 system (copyright 2009, Gaussian, Inc.),
 the Gaussian(R) 03 system (copyright 2003, Gaussian, Inc.),
 the Gaussian(R) 98 system (copyright 1998, Gaussian, Inc.),
 the Gaussian(R) 94 system (copyright 1995, Gaussian, Inc.),
 the Gaussian 92(TM) system (copyright 1992, Gaussian, Inc.),
 the Gaussian 90(TM) system (copyright 1990, Gaussian, Inc.),
 the Gaussian 88(TM) system (copyright 1988, Gaussian, Inc.),
 the Gaussian 86(TM) system (copyright 1986, Carnegie Mellon
 University), and the Gaussian 82(TM) system (copyright 1983,
 Carnegie Mellon University). Gaussian is a federally registered
 trademark of Gaussian, Inc.
  
 This software contains proprietary and confidential information,
 including trade secrets, belonging to Gaussian, Inc.
  
 This software is provided under written license and may be
 used, copied, transmitted, or stored only in accord with that
 written license.
  
 The following legend is applicable only to US Government
 contracts under FAR:
  
                    RESTRICTED RIGHTS LEGEND
  
 Use, reproduction and disclosure by the US Government is
 subject to restrictions as set forth in subparagraphs (a)
 and (c) of the Commercial Computer Software - Restricted
 Rights clause in FAR 52.227-19.
  
 Gaussian, Inc.
 340 Quinnipiac St., Bldg. 40, Wallingford CT 06492
  
  
 ---------------------------------------------------------------
 Warning -- This program may not be used in any manner that
 competes with the business of Gaussian, Inc. or will provide
 assistance to any competitor of Gaussian, Inc.  The licensee
 of this program is prohibited from giving any competitor of
 Gaussian, Inc. access to this program.  By using this program,
 the user acknowledges that Gaussian, Inc. is engaged in the
 business of creating and licensing software in the field of
 computational chemistry and represents and warrants to the
 licensee that it is not a competitor of Gaussian, Inc. and that
 it will not use this program in any manner prohibited above.
 ---------------------------------------------------------------
  

 Cite this work as:
 Gaussian 16, Revision A.03,
 M. J. Frisch, G. W. Trucks, H. B. Schlegel, G. E. Scuseria, 
 M. A. Robb, J. R. Cheeseman, G. Scalmani, V. Barone, 
 G. A. Petersson, H. Nakatsuji, X. Li, M. Caricato, A. V. Marenich, 
 J. Bloino, B. G. Janesko, R. Gomperts, B. Mennucci, H. P. Hratchian, 
 J. V. Ortiz, A. F. Izmaylov, J. L. Sonnenberg, D. Williams-Young, 
 F. Ding, F. Lipparini, F. Egidi, J. Goings, B. Peng, A. Petrone, 
 T. Henderson, D. Ranasinghe, V. G. Zakrzewski, J. Gao, N. Rega, 
 G. Zheng, W. Liang, M. Hada, M. Ehara, K. Toyota, R. Fukuda, 
 J. Hasegawa, M. Ishida, T. Nakajima, Y. Honda, O. Kitao, H. Nakai, 
 T. Vreven, K. Throssell, J. A. Montgomery, Jr., J. E. Peralta, 
 F. Ogliaro, M. J. Bearpark, J. J. Heyd, E. N. Brothers, K. N. Kudin, 
 V. N. Staroverov, T. A. Keith, R. Kobayashi, J. Normand, 
 K. Raghavachari, A. P. Rendell, J. C. Burant, S. S. Iyengar, 
 J. Tomasi, M. Cossi, J. M. Millam, M. Klene, C. Adamo, R. Cammi, 
 J. W. Ochterski, R. L. Martin, K. Morokuma, O. Farkas, 
 J. B. Foresman, and D. J. Fox, Gaussian, Inc., Wallingford CT, 2016.
 
 ******************************************
 Gaussian 16:  ES64L-G16RevA.03 25-Dec-2016
                14-Jan-2024 
 ******************************************
 %chk=178-an-PCM.chk
 %nproc=8
 Will use up to    8 processors via shared memory.
 %mem=30GB
 ----------------------------------------------------------------
 #P UB3LYP/6-311++G(d,p) SCRF=(PCM,Solvent=n,n-DiMethylFormamide)
 ----------------------------------------------------------------
 1/38=1,172=1/1;
 2/12=2,17=6,18=5,40=1/2;
 3/5=4,6=6,7=1111,11=2,25=1,30=1,70=2201,72=148,74=-5,116=2/1,2,3;
 4//1;
 5/5=2,38=5,53=148/2;
 6/7=2,8=2,9=2,10=2,28=1/1;
 99/5=1,9=1/99;
 Leave Link    1 at Sun Jan 14 01:29:42 2024, MaxMem=  4026531840 cpu:               0.7 elap:               0.1
 (Enter /sysapps/ubuntu-applications/gaussian/Gaussian/AVX2/g16/l101.exe)
 -------
 Reduced
 -------
 Symbolic Z-matrix:
 Charge = -2 Multiplicity = 1
 O                    -4.6072   -0.8522    1.19626 
 C                    -3.407    -0.34388   0.69047 
 C                    -3.41205   0.85032  -0.07783 
 C                    -2.21734   1.33515  -0.57325 
 C                    -0.97871   0.70648  -0.31406 
 C                     0.23853   1.29708  -0.84739 
 O                     0.23787   2.37305  -1.5398 
 C                     1.45124   0.56446  -0.5385 
 C                     2.69492   1.04983  -1.0115 
 C                     3.88688   0.40371  -0.75029 
 C                     3.87947  -0.79201   0.02266 
 C                     2.68486  -1.29062   0.49945 
 C                     1.44178  -0.65384   0.2466 
 C                     0.22808  -1.23589   0.78425 
 O                     0.23002  -2.3109    1.48501 
 C                    -0.9836   -0.50748   0.47105 
 C                    -2.23159  -1.00571   0.94035 
 H                    -5.32872  -0.53627   0.63144 
 H                    -4.34834   1.37641  -0.25537 
 H                    -2.18771   2.24262  -1.16789 
 H                     2.66536   1.96433  -1.59627 
 H                     4.82505   0.80399  -1.13061 
 H                     4.81355  -1.30958   0.23547 
 H                     2.64734  -2.19967   1.09188 
 H                    -2.22269  -1.92936   1.50785 
 
 ITRead=  0  0  0  0  0  0  0  0  0  0  0  0  0  0  0  0  0  0  0  0
 ITRead=  0  0  0  0  0
 MicOpt= -1 -1 -1 -1 -1 -1 -1 -1 -1 -1 -1 -1 -1 -1 -1 -1 -1 -1 -1 -1
 MicOpt= -1 -1 -1 -1 -1
 NAtoms=     25 NQM=       25 NQMF=       0 NMMI=      0 NMMIF=      0
                NMic=       0 NMicF=      0.
                    Isotopes and Nuclear Properties:
 (Nuclear quadrupole moments (NQMom) in fm**2, nuclear magnetic moments (NMagM)
  in nuclear magnetons)

  Atom         1           2           3           4           5           6           7           8           9          10
 IAtWgt=          16          12          12          12          12          12          16          12          12          12
 AtmWgt=  15.9949146  12.0000000  12.0000000  12.0000000  12.0000000  12.0000000  15.9949146  12.0000000  12.0000000  12.0000000
 NucSpn=           0           0           0           0           0           0           0           0           0           0
 AtZEff=  -0.0000000  -0.0000000  -0.0000000  -0.0000000  -0.0000000  -0.0000000  -0.0000000  -0.0000000  -0.0000000  -0.0000000
 NQMom=    0.0000000   0.0000000   0.0000000   0.0000000   0.0000000   0.0000000   0.0000000   0.0000000   0.0000000   0.0000000
 NMagM=    0.0000000   0.0000000   0.0000000   0.0000000   0.0000000   0.0000000   0.0000000   0.0000000   0.0000000   0.0000000
 AtZNuc=   8.0000000   6.0000000   6.0000000   6.0000000   6.0000000   6.0000000   8.0000000   6.0000000   6.0000000   6.0000000

  Atom        11          12          13          14          15          16          17          18          19          20
 IAtWgt=          12          12          12          12          16          12          12           1           1           1
 AtmWgt=  12.0000000  12.0000000  12.0000000  12.0000000  15.9949146  12.0000000  12.0000000   1.0078250   1.0078250   1.0078250
 NucSpn=           0           0           0           0           0           0           0           1           1           1
 AtZEff=  -0.0000000  -0.0000000  -0.0000000  -0.0000000  -0.0000000  -0.0000000  -0.0000000  -0.0000000  -0.0000000  -0.0000000
 NQMom=    0.0000000   0.0000000   0.0000000   0.0000000   0.0000000   0.0000000   0.0000000   0.0000000   0.0000000   0.0000000
 NMagM=    0.0000000   0.0000000   0.0000000   0.0000000   0.0000000   0.0000000   0.0000000   2.7928460   2.7928460   2.7928460
 AtZNuc=   6.0000000   6.0000000   6.0000000   6.0000000   8.0000000   6.0000000   6.0000000   1.0000000   1.0000000   1.0000000

  Atom        21          22          23          24          25
 IAtWgt=           1           1           1           1           1
 AtmWgt=   1.0078250   1.0078250   1.0078250   1.0078250   1.0078250
 NucSpn=           1           1           1           1           1
 AtZEff=  -0.0000000  -0.0000000  -0.0000000  -0.0000000  -0.0000000
 NQMom=    0.0000000   0.0000000   0.0000000   0.0000000   0.0000000
 NMagM=    2.7928460   2.7928460   2.7928460   2.7928460   2.7928460
 AtZNuc=   1.0000000   1.0000000   1.0000000   1.0000000   1.0000000
 Leave Link  101 at Sun Jan 14 01:29:42 2024, MaxMem=  4026531840 cpu:               1.4 elap:               0.2
 (Enter /sysapps/ubuntu-applications/gaussian/Gaussian/AVX2/g16/l202.exe)
                          Input orientation:                          
 ---------------------------------------------------------------------
 Center     Atomic      Atomic             Coordinates (Angstroms)
 Number     Number       Type             X           Y           Z
 ---------------------------------------------------------------------
      1          8           0       -4.607197   -0.852204    1.196263
      2          6           0       -3.407001   -0.343884    0.690471
      3          6           0       -3.412051    0.850316   -0.077832
      4          6           0       -2.217340    1.335154   -0.573245
      5          6           0       -0.978712    0.706482   -0.314057
      6          6           0        0.238532    1.297081   -0.847388
      7          8           0        0.237872    2.373047   -1.539796
      8          6           0        1.451237    0.564464   -0.538497
      9          6           0        2.694918    1.049831   -1.011504
     10          6           0        3.886884    0.403705   -0.750286
     11          6           0        3.879466   -0.792012    0.022657
     12          6           0        2.684860   -1.290620    0.499449
     13          6           0        1.441776   -0.653843    0.246604
     14          6           0        0.228083   -1.235889    0.784251
     15          8           0        0.230016   -2.310902    1.485005
     16          6           0       -0.983598   -0.507475    0.471054
     17          6           0       -2.231588   -1.005715    0.940347
     18          1           0       -5.328723   -0.536265    0.631438
     19          1           0       -4.348344    1.376408   -0.255372
     20          1           0       -2.187706    2.242620   -1.167894
     21          1           0        2.665364    1.964327   -1.596268
     22          1           0        4.825053    0.803986   -1.130612
     23          1           0        4.813547   -1.309578    0.235473
     24          1           0        2.647340   -2.199672    1.091885
     25          1           0       -2.222690   -1.929360    1.507854
 ---------------------------------------------------------------------
                    Distance matrix (angstroms):
                    1          2          3          4          5
     1  O    0.000000
     2  C    1.398101   0.000000
     3  C    2.439317   1.420010   0.000000
     4  C    3.691492   2.414837   1.381244   0.000000
     5  C    4.228058   2.830006   2.449006   1.413013   0.000000
     6  C    5.681287   4.283420   3.757469   2.471419   1.454281
     7  O    6.431404   5.063685   4.216395   2.835403   2.399990
     8  C    6.459177   5.092930   4.893413   3.748817   2.444421
     9  C    7.862115   6.486338   6.181150   4.940016   3.754980
    10  C    8.804304   7.472311   7.343440   6.177418   4.894486
    11  C    8.567638   7.330716   7.474862   6.484673   5.095170
    12  C    7.338382   6.167947   6.487618   5.663650   4.251114
    13  C    6.126277   4.878907   5.091894   4.244690   2.832594
    14  C    4.867946   3.744102   4.283225   3.799099   2.536817
    15  O    5.060613   4.210503   5.069557   4.849708   3.715138
    16  C    3.711500   2.438809   2.835887   2.451114   1.445723
    17  C    2.394280   1.371880   2.423847   2.787621   2.464720
    18  H    0.969249   1.932229   2.469677   3.825464   4.621794
    19  H    2.672258   2.177189   1.088548   2.154976   3.436083
    20  H    4.584878   3.410308   2.150759   1.085348   2.133172
    21  H    8.283793   6.886990   6.362518   5.028244   4.062700
    22  H    9.855184   8.508858   8.304238   7.084356   5.861737
    23  H    9.480650   8.289572   8.510215   7.555263   6.157657
    24  H    7.379354   6.345087   6.883813   6.239613   4.854962
    25  H    2.635000   2.141131   3.414027   3.871441   3.437223
                    6          7          8          9         10
     6  C    0.000000
     7  O    1.279505   0.000000
     8  C    1.450102   2.397045   0.000000
     9  C    2.474247   2.840258   1.416354   0.000000
    10  C    3.757396   4.221010   2.450117   1.380759   0.000000
    11  C    4.286921   5.071495   2.837467   2.421782   1.423810
    12  C    3.807189   4.854763   2.457742   2.785820   2.424342
    13  C    2.539827   3.715195   1.449395   2.460834   2.844424
    14  C    3.013020   4.292518   2.546967   3.812417   4.293006
    15  O    4.296239   5.575739   3.722052   4.858274   5.073293
    16  C    2.547217   3.719263   2.845464   4.260829   5.103285
    17  C    3.821042   4.864707   4.267979   5.683789   6.502338
    18  H    6.045032   6.645700   6.967655   8.342288   9.365902
    19  H    4.625603   4.865841   5.862982   7.091257   8.307230
    20  H    2.623623   2.457387   4.056384   5.028640   6.360554
    21  H    2.625938   2.462308   2.133682   1.085875   2.154841
    22  H    4.621638   4.865348   3.433745   2.147580   1.088593
    23  H    5.375688   6.135968   3.926346   3.407397   2.183063
    24  H    4.668021   5.800090   3.424800   3.871147   3.421642
    25  H    4.691983   5.818354   4.889218   6.277389   6.918763
                   11         12         13         14         15
    11  C    0.000000
    12  C    1.379501   0.000000
    13  C    2.451851   1.419392   0.000000
    14  C    3.756281   2.473835   1.449446   0.000000
    15  O    4.214733   2.835235   2.397466   1.283243   0.000000
    16  C    4.891974   3.751227   2.440131   1.448050   2.398605
    17  C    6.183268   4.944393   3.754823   2.475344   2.838954
    18  H    9.231834   8.050092   6.782446   5.602760   5.897244
    19  H    8.513296   7.559679   6.156248   5.371089   6.130787
    20  H    6.887451   6.245456   4.854219   4.663361   5.798087
    21  H    3.419410   3.871316   3.427559   4.674248   5.805407
    22  H    2.184347   3.409531   3.933008   5.381443   6.136640
    23  H    1.088886   2.145076   3.434960   4.618773   4.855176
    24  H    2.154737   1.085709   2.134824   2.622274   2.451606
    25  H    6.382451   5.050635   4.079952   2.647790   2.482310
                   16         17         18         19         20
    16  C    0.000000
    17  C    1.423362   0.000000
    18  H    4.348179   3.147706   0.000000
    19  H    3.924057   3.403661   2.325058   0.000000
    20  H    3.420387   3.872762   4.563528   2.500275   0.000000
    21  H    4.868116   6.263841   8.667241   7.164897   4.879881
    22  H    6.166497   7.573643  10.392317   9.232818   7.158900
    23  H    5.857112   7.086826  10.179413   9.560110   7.975280
    24  H    4.053723   5.025180   8.160669   7.971389   6.943935
    25  H    2.152222   1.084096   3.515147   4.307606   4.956437
                   21         22         23         24         25
    21  H    0.000000
    22  H    2.495493   0.000000
    23  H    4.323010   2.516639   0.000000
    24  H    4.956347   4.324799   2.493624   0.000000
    25  H    6.977782   8.006458   7.177166   4.895231   0.000000
 Stoichiometry    C14H8O3(2-)
 Framework group  C1[X(C14H8O3)]
 Deg. of freedom    69
 Full point group                 C1      NOp   1
 Largest Abelian subgroup         C1      NOp   1
 Largest concise Abelian subgroup C1      NOp   1
                         Standard orientation:                         
 ---------------------------------------------------------------------
 Center     Atomic      Atomic             Coordinates (Angstroms)
 Number     Number       Type             X           Y           Z
 ---------------------------------------------------------------------
      1          8           0        4.630204   -0.887214   -0.031977
      2          6           0        3.361220   -0.300712   -0.012482
      3          6           0        3.235095    1.113686   -0.013584
      4          6           0        1.973457    1.675402    0.010485
      5          6           0        0.795963    0.894381   -0.000563
      6          6           0       -0.495372    1.563240   -0.004233
      7          8           0       -0.612885    2.837336   -0.005500
      8          6           0       -1.638197    0.670655    0.001998
      9          6           0       -2.945182    1.216409    0.001793
     10          6           0       -4.075856    0.423901    0.003476
     11          6           0       -3.936709   -0.993093    0.002861
     12          6           0       -2.677514   -1.556521    0.001759
     13          6           0       -1.494879   -0.771636    0.003619
     14          6           0       -0.206622   -1.435911   -0.001308
     15          8           0       -0.089218   -2.713757   -0.007664
     16          6           0        0.934668   -0.544672   -0.001787
     17          6           0        2.245651   -1.098898    0.008922
     18          1           0        5.259100   -0.254696    0.347306
     19          1           0        4.126754    1.737142   -0.048006
     20          1           0        1.842964    2.752867    0.015085
     21          1           0       -3.015836    2.299983    0.000715
     22          1           0       -5.065745    0.876839    0.004566
     23          1           0       -4.821401   -1.627910    0.003454
     24          1           0       -2.539493   -2.633421    0.000710
     25          1           0        2.334513   -2.179108    0.031571
 ---------------------------------------------------------------------
 Rotational constants (GHZ):           1.0204659           0.3385924           0.2542741
 Leave Link  202 at Sun Jan 14 01:29:42 2024, MaxMem=  4026531840 cpu:               0.7 elap:               0.1
 (Enter /sysapps/ubuntu-applications/gaussian/Gaussian/AVX2/g16/l301.exe)
 Standard basis: 6-311++G(d,p) (5D, 7F)
 Ernie: Thresh=  0.10000D-02 Tol=  0.10000D-05 Strict=F.
 There are   447 symmetry adapted cartesian basis functions of A   symmetry.
 There are   430 symmetry adapted basis functions of A   symmetry.
   430 basis functions,   684 primitive gaussians,   447 cartesian basis functions
    59 alpha electrons       59 beta electrons
       nuclear repulsion energy      1082.1668276854 Hartrees.
 IExCor=  402 DFT=T Ex+Corr=B3LYP ExCW=0 ScaHFX=  0.200000
 ScaDFX=  0.800000  0.720000  1.000000  0.810000 ScalE2=  1.000000  1.000000
 IRadAn=      5 IRanWt=     -1 IRanGd=            0 ICorTp=0 IEmpDi=  4
 NAtoms=   25 NActive=   25 NUniq=   25 SFac= 1.00D+00 NAtFMM=   60 NAOKFM=F Big=F
 Integral buffers will be    131072 words long.
 Raffenetti 2 integral format.
 Two-electron integral symmetry is turned on.
 ------------------------------------------------------------------------------
 Polarizable Continuum Model (PCM)
 =================================
 Model                : PCM.
 Atomic radii         : UFF (Universal Force Field).
 Polarization charges : Total charges.
 Charge compensation  : None.
 Solution method      : On-the-fly selection.
 Cavity type          : Scaled VdW (van der Waals Surface) (Alpha=1.100).
 Cavity algorithm     : GePol (No added spheres)
                        Default sphere list used, NSphG=   25.
                        Lebedev-Laikov grids with approx.  5.0 points / Ang**2.
                        Smoothing algorithm: York/Karplus (Gamma=1.0000).
                        Polarization charges: spherical gaussians, with
                                              point-specific exponents (IZeta= 3).
                        Self-potential: point-specific (ISelfS= 7).
                        Self-field    : sphere-specific E.n sum rule (ISelfD= 2).
 Solvent              : n,n-DiMethylFormamide, Eps=  37.219000 Eps(inf)=   2.046330
 ------------------------------------------------------------------------------
 GePol: Number of generator spheres                  =      25
 GePol: Total number of spheres                      =      25
 GePol: Number of exposed spheres                    =      25 (100.00%)
 GePol: Number of points                             =    2095
 GePol: Average weight of points                     =       0.13
 GePol: Minimum weight of points                     =   0.16D-11
 GePol: Maximum weight of points                     =    0.20577
 GePol: Number of points with low weight             =     122
 GePol: Fraction of low-weight points (<1% of avg)   =       5.82%
 GePol: Cavity surface area                          =    268.604 Ang**2
 GePol: Cavity volume                                =    291.113 Ang**3
 Leave Link  301 at Sun Jan 14 01:29:43 2024, MaxMem=  4026531840 cpu:               0.9 elap:               0.2
 (Enter /sysapps/ubuntu-applications/gaussian/Gaussian/AVX2/g16/l302.exe)
 NPDir=0 NMtPBC=     1 NCelOv=     1 NCel=       1 NClECP=     1 NCelD=      1
         NCelK=      1 NCelE2=     1 NClLst=     1 CellRange=     0.0.
 One-electron integrals computed using PRISM.
 One-electron integral symmetry used in STVInt
 NBasis=   430 RedAO= T EigKep=  1.10D-06  NBF=   430
 NBsUse=   424 1.00D-06 EigRej=  8.53D-07 NBFU=   424
 Precomputing XC quadrature grid using
 IXCGrd= 4 IRadAn=           5 IRanWt=          -1 IRanGd=           0 AccXCQ= 0.00D+00.
 Generated NRdTot=       0 NPtTot=           0 NUsed=           0 NTot=          32
 NSgBfM=   445   445   445   445   445 MxSgAt=    25 MxSgA2=    25.
 Leave Link  302 at Sun Jan 14 01:29:43 2024, MaxMem=  4026531840 cpu:               4.3 elap:               0.6
 (Enter /sysapps/ubuntu-applications/gaussian/Gaussian/AVX2/g16/l303.exe)
 DipDrv:  MaxL=1.
 Leave Link  303 at Sun Jan 14 01:29:44 2024, MaxMem=  4026531840 cpu:               1.4 elap:               0.2
 (Enter /sysapps/ubuntu-applications/gaussian/Gaussian/AVX2/g16/l401.exe)
 ExpMin= 3.60D-02 ExpMax= 8.59D+03 ExpMxC= 1.30D+03 IAcc=3 IRadAn=         5 AccDes= 0.00D+00
 Harris functional with IExCor=  402 and IRadAn=       5 diagonalized for initial guess.
 HarFok:  IExCor=  402 AccDes= 0.00D+00 IRadAn=         5 IDoV= 1 UseB2=F ITyADJ=14
 ICtDFT=  3500011 ScaDFX=  1.000000  1.000000  1.000000  1.000000
 FoFCou: FMM=F IPFlag=           0 FMFlag=      100000 FMFlg1=           0
         NFxFlg=           0 DoJE=T BraDBF=F KetDBF=T FulRan=T
         wScrn=  0.000000 ICntrl=       500 IOpCl=  0 I1Cent=   200000004 NGrid=           0
         NMat0=    1 NMatS0=      1 NMatT0=    0 NMatD0=    1 NMtDS0=    0 NMtDT0=    0
 Petite list used in FoFCou.
 Harris En= -764.666477072356    
 JPrj=0 DoOrth=F DoCkMO=F.
 Initial guess <Sx>= 0.0000 <Sy>= 0.0000 <Sz>= 0.0000 <S**2>=-0.0000 S=-0.0000
 Leave Link  401 at Sun Jan 14 01:29:47 2024, MaxMem=  4026531840 cpu:              23.4 elap:               3.0
 (Enter /sysapps/ubuntu-applications/gaussian/Gaussian/AVX2/g16/l502.exe)
 Integral symmetry usage will be decided dynamically.
 UHF open shell SCF:
 Using DIIS extrapolation, IDIIS=  1040.
 NGot=  4026531840 LenX=  4026124495 LenY=  4025924239
 Requested convergence on RMS density matrix=1.00D-08 within 128 cycles.
 Requested convergence on MAX density matrix=1.00D-06.
 Requested convergence on             energy=1.00D-06.
 No special actions if energy rises.
 Fock matrices will be formed incrementally for  20 cycles.

 Cycle   1  Pass 1  IDiag  1:
 FoFJK:  IHMeth= 1 ICntrl=       0 DoSepK=F KAlg= 0 I1Cent=           0 FoldK=F
 IRaf= 860000000 NMat=       1 IRICut=       1 DoRegI=T DoRafI=F ISym2E= 0 IDoP0=0 IntGTp=1.
 FoFCou: FMM=F IPFlag=           0 FMFlag=      100000 FMFlg1=           0
         NFxFlg=           0 DoJE=F BraDBF=F KetDBF=F FulRan=T
         wScrn=  0.000000 ICntrl=         0 IOpCl=  1 I1Cent=           0 NGrid=           0
         NMat0=    1 NMatS0=      1 NMatT0=    0 NMatD0=    1 NMtDS0=    0 NMtDT0=    0
 Symmetry not used in FoFCou.
 Inv3:  Mode=1 IEnd=    13167075.
 Iteration    1 A*A^-1 deviation from unit magnitude is 3.55D-15 for    624.
 Iteration    1 A*A^-1 deviation from orthogonality  is 1.79D-15 for   1525    410.
 Iteration    1 A^-1*A deviation from unit magnitude is 2.89D-15 for    250.
 Iteration    1 A^-1*A deviation from orthogonality  is 8.03D-15 for   1013    888.
 E= -763.898043369011    
 DIIS: error= 4.34D-02 at cycle   1 NSaved=   1.
 NSaved= 1 IEnMin= 1 EnMin= -763.898043369011     IErMin= 1 ErrMin= 4.34D-02
 ErrMax= 4.34D-02  0.00D+00 EMaxC= 1.00D-01 BMatC= 2.45D+00 BMatP= 2.45D+00
 IDIUse=3 WtCom= 5.66D-01 WtEn= 4.34D-01
 Coeff-Com:  0.100D+01
 Coeff-En:   0.100D+01
 Coeff:      0.100D+01
 Gap=     0.061 Goal=   None    Shift=    0.000
 Gap=     0.061 Goal=   None    Shift=    0.000
 GapD=    0.061 DampG=0.500 DampE=0.500 DampFc=0.2500 IDamp=-1.
 Damping current iteration by 2.50D-01
 RMSDP=5.92D-01 MaxDP=3.39D+01              OVMax= 9.93D-01

 Cycle   2  Pass 1  IDiag  1:
 RMSU=  1.47D-01    CP:  1.31D+00
 E= -764.047884114718     Delta-E=       -0.149840745707 Rises=F Damp=T
 DIIS: error= 2.01D-02 at cycle   2 NSaved=   2.
 NSaved= 2 IEnMin= 2 EnMin= -764.047884114718     IErMin= 2 ErrMin= 2.01D-02
 ErrMax= 2.01D-02  0.00D+00 EMaxC= 1.00D-01 BMatC= 4.66D-01 BMatP= 2.45D+00
 IDIUse=3 WtCom= 7.99D-01 WtEn= 2.01D-01
 Coeff-Com: -0.468D+00 0.147D+01
 Coeff-En:   0.217D-01 0.978D+00
 Coeff:     -0.370D+00 0.137D+01
 Gap=     0.014 Goal=   None    Shift=    0.000
 Gap=     0.014 Goal=   None    Shift=    0.000
 RMSDP=1.49D-01 MaxDP=7.51D+00 DE=-1.50D-01 OVMax= 8.69D-01

 Cycle   3  Pass 1  IDiag  1:
 RMSU=  1.35D-02    CP:  9.64D-01  4.49D-04
 E= -764.308489928196     Delta-E=       -0.260605813478 Rises=F Damp=F
 DIIS: error= 2.54D-02 at cycle   3 NSaved=   3.
 NSaved= 3 IEnMin= 3 EnMin= -764.308489928196     IErMin= 2 ErrMin= 2.01D-02
 ErrMax= 2.54D-02  0.00D+00 EMaxC= 1.00D-01 BMatC= 5.90D-01 BMatP= 4.66D-01
 IDIUse=2 WtCom= 0.00D+00 WtEn= 1.00D+00
 Coeff-En:   0.000D+00 0.000D+00 0.100D+01
 Coeff:      0.000D+00 0.000D+00 0.100D+01
 Gap=     0.058 Goal=   None    Shift=    0.000
 Gap=     0.058 Goal=   None    Shift=    0.000
 RMSDP=3.49D-02 MaxDP=2.41D+00 DE=-2.61D-01 OVMax= 8.60D-01

 Cycle   4  Pass 1  IDiag  1:
 RMSU=  3.38D-02    CP:  8.69D-01  2.50D-02  5.35D-01
 E= -763.247375014114     Delta-E=        1.061114914081 Rises=F Damp=F
 DIIS: error= 9.07D-02 at cycle   4 NSaved=   4.
 NSaved= 4 IEnMin= 3 EnMin= -764.308489928196     IErMin= 2 ErrMin= 2.01D-02
 ErrMax= 9.07D-02  0.00D+00 EMaxC= 1.00D-01 BMatC= 4.67D+00 BMatP= 4.66D-01
 IDIUse=2 WtCom= 0.00D+00 WtEn= 1.00D+00
 Coeff-En:   0.000D+00 0.000D+00 0.862D+00 0.138D+00
 Coeff:      0.000D+00 0.000D+00 0.862D+00 0.138D+00
 Gap=    -0.021 Goal=   None    Shift=    0.000
 Gap=    -0.021 Goal=   None    Shift=    0.000
 RMSDP=2.63D-02 MaxDP=2.28D+00 DE= 1.06D+00 OVMax= 8.37D-01

 Cycle   5  Pass 1  IDiag  1:
 RMSU=  7.95D-03    CP:  7.73D-01  6.75D-03  5.25D-01  2.79D-01
 E= -764.332931058491     Delta-E=       -1.085556044377 Rises=F Damp=F
 DIIS: error= 2.41D-02 at cycle   5 NSaved=   5.
 NSaved= 5 IEnMin= 5 EnMin= -764.332931058491     IErMin= 2 ErrMin= 2.01D-02
 ErrMax= 2.41D-02  0.00D+00 EMaxC= 1.00D-01 BMatC= 5.12D-01 BMatP= 4.66D-01
 IDIUse=2 WtCom= 0.00D+00 WtEn= 1.00D+00
 Coeff-En:   0.000D+00 0.000D+00 0.460D+00 0.000D+00 0.540D+00
 Coeff:      0.000D+00 0.000D+00 0.460D+00 0.000D+00 0.540D+00
 Gap=     0.077 Goal=   None    Shift=    0.000
 Gap=     0.077 Goal=   None    Shift=    0.000
 RMSDP=6.69D-03 MaxDP=2.46D-01 DE=-1.09D+00 OVMax= 1.26D-01

 Cycle   6  Pass 1  IDiag  1:
 RMSU=  2.75D-03    CP:  7.57D-01  3.43D-03  6.67D-01  1.36D-01  6.21D-01
 E= -764.428795340639     Delta-E=       -0.095864282148 Rises=F Damp=F
 DIIS: error= 7.67D-03 at cycle   6 NSaved=   6.
 NSaved= 6 IEnMin= 6 EnMin= -764.428795340639     IErMin= 6 ErrMin= 7.67D-03
 ErrMax= 7.67D-03  0.00D+00 EMaxC= 1.00D-01 BMatC= 4.22D-02 BMatP= 4.66D-01
 IDIUse=3 WtCom= 9.23D-01 WtEn= 7.67D-02
 Coeff-Com: -0.242D-01 0.631D-01 0.286D+00-0.146D-01 0.355D+00 0.335D+00
 Coeff-En:   0.000D+00 0.000D+00 0.000D+00 0.000D+00 0.000D+00 0.100D+01
 Coeff:     -0.223D-01 0.582D-01 0.264D+00-0.135D-01 0.328D+00 0.386D+00
 Gap=     0.075 Goal=   None    Shift=    0.000
 Gap=     0.075 Goal=   None    Shift=    0.000
 RMSDP=1.65D-03 MaxDP=8.29D-02 DE=-9.59D-02 OVMax= 7.22D-02

 Cycle   7  Pass 1  IDiag  1:
 RMSU=  8.55D-04    CP:  7.69D-01  3.64D-03  6.39D-01  1.29D-01  6.77D-01
                    CP:  6.08D-01
 E= -764.437340377914     Delta-E=       -0.008545037275 Rises=F Damp=F
 DIIS: error= 2.09D-03 at cycle   7 NSaved=   7.
 NSaved= 7 IEnMin= 7 EnMin= -764.437340377914     IErMin= 7 ErrMin= 2.09D-03
 ErrMax= 2.09D-03  0.00D+00 EMaxC= 1.00D-01 BMatC= 2.42D-03 BMatP= 4.22D-02
 IDIUse=3 WtCom= 9.79D-01 WtEn= 2.09D-02
 Coeff-Com: -0.286D-02 0.208D-02 0.464D-01-0.346D-02 0.613D-01 0.208D+00
 Coeff-Com:  0.689D+00
 Coeff-En:   0.000D+00 0.000D+00 0.000D+00 0.000D+00 0.000D+00 0.523D-01
 Coeff-En:   0.948D+00
 Coeff:     -0.280D-02 0.203D-02 0.455D-01-0.339D-02 0.600D-01 0.205D+00
 Coeff:      0.694D+00
 Gap=     0.075 Goal=   None    Shift=    0.000
 Gap=     0.075 Goal=   None    Shift=    0.000
 RMSDP=6.52D-04 MaxDP=3.33D-02 DE=-8.55D-03 OVMax= 1.91D-02

 Cycle   8  Pass 1  IDiag  1:
 RMSU=  2.87D-04    CP:  7.61D-01  3.58D-03  6.35D-01  1.30D-01  6.73D-01
                    CP:  7.27D-01  8.26D-01
 E= -764.437802883849     Delta-E=       -0.000462505935 Rises=F Damp=F
 DIIS: error= 5.87D-04 at cycle   8 NSaved=   8.
 NSaved= 8 IEnMin= 8 EnMin= -764.437802883849     IErMin= 8 ErrMin= 5.87D-04
 ErrMax= 5.87D-04  0.00D+00 EMaxC= 1.00D-01 BMatC= 3.24D-04 BMatP= 2.42D-03
 IDIUse=3 WtCom= 9.94D-01 WtEn= 5.87D-03
 Coeff-Com: -0.726D-03-0.111D-02-0.143D-03-0.220D-03-0.388D-02 0.831D-01
 Coeff-Com:  0.440D+00 0.483D+00
 Coeff-En:   0.000D+00 0.000D+00 0.000D+00 0.000D+00 0.000D+00 0.000D+00
 Coeff-En:   0.106D+00 0.894D+00
 Coeff:     -0.722D-03-0.110D-02-0.142D-03-0.219D-03-0.386D-02 0.826D-01
 Coeff:      0.438D+00 0.486D+00
 Gap=     0.075 Goal=   None    Shift=    0.000
 Gap=     0.075 Goal=   None    Shift=    0.000
 RMSDP=1.25D-04 MaxDP=7.16D-03 DE=-4.63D-04 OVMax= 4.93D-03

 Cycle   9  Pass 1  IDiag  1:
 RMSU=  9.72D-05    CP:  7.61D-01  3.65D-03  6.36D-01  1.29D-01  6.75D-01
                    CP:  7.25D-01  8.78D-01  8.45D-01
 E= -764.437877416207     Delta-E=       -0.000074532358 Rises=F Damp=F
 DIIS: error= 5.03D-05 at cycle   9 NSaved=   9.
 NSaved= 9 IEnMin= 9 EnMin= -764.437877416207     IErMin= 9 ErrMin= 5.03D-05
 ErrMax= 5.03D-05  0.00D+00 EMaxC= 1.00D-01 BMatC= 6.39D-06 BMatP= 3.24D-04
 IDIUse=1 WtCom= 1.00D+00 WtEn= 0.00D+00
 Coeff-Com: -0.325D-03 0.208D-03-0.222D-02 0.420D-04-0.452D-02 0.264D-01
 Coeff-Com:  0.148D+00 0.211D+00 0.621D+00
 Coeff:     -0.325D-03 0.208D-03-0.222D-02 0.420D-04-0.452D-02 0.264D-01
 Coeff:      0.148D+00 0.211D+00 0.621D+00
 Gap=     0.075 Goal=   None    Shift=    0.000
 Gap=     0.075 Goal=   None    Shift=    0.000
 RMSDP=3.57D-05 MaxDP=2.98D-03 DE=-7.45D-05 OVMax= 6.59D-04

 Cycle  10  Pass 1  IDiag  1:
 RMSU=  2.10D-05    CP:  7.61D-01  3.63D-03  6.35D-01  1.28D-01  6.73D-01
                    CP:  7.27D-01  8.75D-01  8.86D-01  9.22D-01
 E= -764.437878727247     Delta-E=       -0.000001311040 Rises=F Damp=F
 DIIS: error= 2.33D-05 at cycle  10 NSaved=  10.
 NSaved=10 IEnMin=10 EnMin= -764.437878727247     IErMin=10 ErrMin= 2.33D-05
 ErrMax= 2.33D-05  0.00D+00 EMaxC= 1.00D-01 BMatC= 1.28D-06 BMatP= 6.39D-06
 IDIUse=1 WtCom= 1.00D+00 WtEn= 0.00D+00
 Coeff-Com: -0.124D-04 0.443D-04-0.122D-02 0.204D-05-0.158D-02 0.653D-02
 Coeff-Com:  0.325D-01 0.630D-01 0.350D+00 0.551D+00
 Coeff:     -0.124D-04 0.443D-04-0.122D-02 0.204D-05-0.158D-02 0.653D-02
 Coeff:      0.325D-01 0.630D-01 0.350D+00 0.551D+00
 Gap=     0.075 Goal=   None    Shift=    0.000
 Gap=     0.075 Goal=   None    Shift=    0.000
 RMSDP=2.15D-05 MaxDP=1.24D-03 DE=-1.31D-06 OVMax= 1.98D-04

 Cycle  11  Pass 1  IDiag  1:
 RMSU=  1.09D-05    CP:  7.60D-01  3.64D-03  6.35D-01  1.29D-01  6.73D-01
                    CP:  7.30D-01  8.72D-01  8.94D-01  1.00D+00  1.21D+00
 E= -764.437879018277     Delta-E=       -0.000000291031 Rises=F Damp=F
 DIIS: error= 6.72D-06 at cycle  11 NSaved=  11.
 NSaved=11 IEnMin=11 EnMin= -764.437879018277     IErMin=11 ErrMin= 6.72D-06
 ErrMax= 6.72D-06  0.00D+00 EMaxC= 1.00D-01 BMatC= 8.53D-08 BMatP= 1.28D-06
 IDIUse=1 WtCom= 1.00D+00 WtEn= 0.00D+00
 Coeff-Com:  0.321D-04-0.398D-04-0.524D-03 0.669D-05-0.461D-03 0.112D-02
 Coeff-Com:  0.408D-02 0.141D-01 0.127D+00 0.278D+00 0.577D+00
 Coeff:      0.321D-04-0.398D-04-0.524D-03 0.669D-05-0.461D-03 0.112D-02
 Coeff:      0.408D-02 0.141D-01 0.127D+00 0.278D+00 0.577D+00
 Gap=     0.075 Goal=   None    Shift=    0.000
 Gap=     0.075 Goal=   None    Shift=    0.000
 RMSDP=5.80D-06 MaxDP=2.79D-04 DE=-2.91D-07 OVMax= 1.17D-04

 Cycle  12  Pass 1  IDiag  1:
 RMSU=  2.65D-06    CP:  7.60D-01  3.64D-03  6.35D-01  1.29D-01  6.73D-01
                    CP:  7.30D-01  8.72D-01  9.05D-01  1.02D+00  1.24D+00
                    CP:  1.01D+00
 E= -764.437879035765     Delta-E=       -0.000000017487 Rises=F Damp=F
 DIIS: error= 4.06D-06 at cycle  12 NSaved=  12.
 NSaved=12 IEnMin=12 EnMin= -764.437879035765     IErMin=12 ErrMin= 4.06D-06
 ErrMax= 4.06D-06  0.00D+00 EMaxC= 1.00D-01 BMatC= 1.92D-08 BMatP= 8.53D-08
 IDIUse=1 WtCom= 1.00D+00 WtEn= 0.00D+00
 Coeff-Com:  0.103D-04-0.109D-04-0.120D-03 0.216D-05 0.267D-06-0.494D-03
 Coeff-Com: -0.326D-02-0.277D-02 0.211D-01 0.829D-01 0.355D+00 0.548D+00
 Coeff:      0.103D-04-0.109D-04-0.120D-03 0.216D-05 0.267D-06-0.494D-03
 Coeff:     -0.326D-02-0.277D-02 0.211D-01 0.829D-01 0.355D+00 0.548D+00
 Gap=     0.075 Goal=   None    Shift=    0.000
 Gap=     0.075 Goal=   None    Shift=    0.000
 RMSDP=2.37D-06 MaxDP=1.27D-04 DE=-1.75D-08 OVMax= 2.85D-05

 Cycle  13  Pass 1  IDiag  1:
 RMSU=  1.07D-06    CP:  7.60D-01  3.65D-03  6.35D-01  1.29D-01  6.74D-01
                    CP:  7.30D-01  8.72D-01  9.07D-01  1.03D+00  1.25D+00
                    CP:  1.09D+00  8.10D-01
 E= -764.437879040558     Delta-E=       -0.000000004793 Rises=F Damp=F
 DIIS: error= 7.37D-07 at cycle  13 NSaved=  13.
 NSaved=13 IEnMin=13 EnMin= -764.437879040558     IErMin=13 ErrMin= 7.37D-07
 ErrMax= 7.37D-07  0.00D+00 EMaxC= 1.00D-01 BMatC= 9.09D-10 BMatP= 1.92D-08
 IDIUse=1 WtCom= 1.00D+00 WtEn= 0.00D+00
 Coeff-Com: -0.520D-05 0.867D-05-0.133D-04 0.712D-06 0.214D-04-0.277D-03
 Coeff-Com: -0.126D-02-0.198D-02 0.343D-03 0.115D-01 0.830D-01 0.188D+00
 Coeff-Com:  0.721D+00
 Coeff:     -0.520D-05 0.867D-05-0.133D-04 0.712D-06 0.214D-04-0.277D-03
 Coeff:     -0.126D-02-0.198D-02 0.343D-03 0.115D-01 0.830D-01 0.188D+00
 Coeff:      0.721D+00
 Gap=     0.075 Goal=   None    Shift=    0.000
 Gap=     0.075 Goal=   None    Shift=    0.000
 RMSDP=6.78D-07 MaxDP=3.13D-05 DE=-4.79D-09 OVMax= 1.06D-05

 Cycle  14  Pass 1  IDiag  1:
 RMSU=  2.23D-07    CP:  7.60D-01  3.65D-03  6.35D-01  1.29D-01  6.74D-01
                    CP:  7.30D-01  8.72D-01  9.07D-01  1.04D+00  1.26D+00
                    CP:  1.12D+00  8.96D-01  9.80D-01
 E= -764.437879040719     Delta-E=       -0.000000000161 Rises=F Damp=F
 DIIS: error= 3.91D-07 at cycle  14 NSaved=  14.
 NSaved=14 IEnMin=14 EnMin= -764.437879040719     IErMin=14 ErrMin= 3.91D-07
 ErrMax= 3.91D-07  0.00D+00 EMaxC= 1.00D-01 BMatC= 2.85D-10 BMatP= 9.09D-10
 IDIUse=1 WtCom= 1.00D+00 WtEn= 0.00D+00
 Coeff-Com: -0.379D-05 0.435D-05 0.434D-05 0.845D-08 0.152D-04-0.132D-03
 Coeff-Com: -0.436D-03-0.104D-02-0.228D-02-0.281D-02 0.122D-01 0.533D-01
 Coeff-Com:  0.473D+00 0.468D+00
 Coeff:     -0.379D-05 0.435D-05 0.434D-05 0.845D-08 0.152D-04-0.132D-03
 Coeff:     -0.436D-03-0.104D-02-0.228D-02-0.281D-02 0.122D-01 0.533D-01
 Coeff:      0.473D+00 0.468D+00
 Gap=     0.075 Goal=   None    Shift=    0.000
 Gap=     0.075 Goal=   None    Shift=    0.000
 RMSDP=2.96D-07 MaxDP=1.68D-05 DE=-1.61D-10 OVMax= 3.14D-06

 Cycle  15  Pass 1  IDiag  1:
 RMSU=  1.06D-07    CP:  7.60D-01  3.65D-03  6.35D-01  1.29D-01  6.74D-01
                    CP:  7.30D-01  8.72D-01  9.08D-01  1.04D+00  1.27D+00
                    CP:  1.13D+00  9.06D-01  1.02D+00  1.01D+00
 E= -764.437879040796     Delta-E=       -0.000000000077 Rises=F Damp=F
 DIIS: error= 9.72D-08 at cycle  15 NSaved=  15.
 NSaved=15 IEnMin=15 EnMin= -764.437879040796     IErMin=15 ErrMin= 9.72D-08
 ErrMax= 9.72D-08  0.00D+00 EMaxC= 1.00D-01 BMatC= 9.36D-12 BMatP= 2.85D-10
 IDIUse=1 WtCom= 1.00D+00 WtEn= 0.00D+00
 Coeff-Com: -0.847D-06 0.811D-06 0.242D-05-0.328D-07 0.361D-05-0.240D-04
 Coeff-Com: -0.435D-04-0.210D-03-0.634D-03-0.213D-02-0.253D-02-0.314D-02
 Coeff-Com:  0.979D-01 0.130D+00 0.781D+00
 Coeff:     -0.847D-06 0.811D-06 0.242D-05-0.328D-07 0.361D-05-0.240D-04
 Coeff:     -0.435D-04-0.210D-03-0.634D-03-0.213D-02-0.253D-02-0.314D-02
 Coeff:      0.979D-01 0.130D+00 0.781D+00
 Gap=     0.075 Goal=   None    Shift=    0.000
 Gap=     0.075 Goal=   None    Shift=    0.000
 RMSDP=7.05D-08 MaxDP=2.40D-06 DE=-7.73D-11 OVMax= 1.61D-06

 Cycle  16  Pass 1  IDiag  1:
 RMSU=  2.83D-08    CP:  7.60D-01  3.65D-03  6.35D-01  1.29D-01  6.74D-01
                    CP:  7.30D-01  8.72D-01  9.08D-01  1.04D+00  1.27D+00
                    CP:  1.13D+00  9.11D-01  1.03D+00  1.13D+00  1.15D+00
 E= -764.437879040788     Delta-E=        0.000000000008 Rises=F Damp=F
 DIIS: error= 4.08D-08 at cycle  16 NSaved=  16.
 NSaved=16 IEnMin=15 EnMin= -764.437879040796     IErMin=16 ErrMin= 4.08D-08
 ErrMax= 4.08D-08  0.00D+00 EMaxC= 1.00D-01 BMatC= 3.80D-12 BMatP= 9.36D-12
 IDIUse=1 WtCom= 1.00D+00 WtEn= 0.00D+00
 Coeff-Com:  0.474D-07 0.246D-07 0.101D-05 0.164D-07 0.148D-06 0.213D-05
 Coeff-Com:  0.270D-04 0.408D-05 0.293D-05-0.861D-03-0.257D-02-0.102D-01
 Coeff-Com: -0.715D-02 0.897D-03 0.478D+00 0.542D+00
 Coeff:      0.474D-07 0.246D-07 0.101D-05 0.164D-07 0.148D-06 0.213D-05
 Coeff:      0.270D-04 0.408D-05 0.293D-05-0.861D-03-0.257D-02-0.102D-01
 Coeff:     -0.715D-02 0.897D-03 0.478D+00 0.542D+00
 Gap=     0.075 Goal=   None    Shift=    0.000
 Gap=     0.075 Goal=   None    Shift=    0.000
 RMSDP=3.31D-08 MaxDP=2.49D-06 DE= 7.96D-12 OVMax= 9.30D-07

 Cycle  17  Pass 1  IDiag  1:
 RMSU=  1.43D-08    CP:  7.60D-01  3.65D-03  6.35D-01  1.29D-01  6.74D-01
                    CP:  7.30D-01  8.72D-01  9.08D-01  1.04D+00  1.27D+00
                    CP:  1.13D+00  9.15D-01  1.04D+00  1.16D+00  1.28D+00
                    CP:  1.15D+00
 E= -764.437879040794     Delta-E=       -0.000000000006 Rises=F Damp=F
 DIIS: error= 2.47D-08 at cycle  17 NSaved=  17.
 NSaved=17 IEnMin=15 EnMin= -764.437879040796     IErMin=17 ErrMin= 2.47D-08
 ErrMax= 2.47D-08  0.00D+00 EMaxC= 1.00D-01 BMatC= 5.28D-13 BMatP= 3.80D-12
 IDIUse=1 WtCom= 1.00D+00 WtEn= 0.00D+00
 Coeff-Com:  0.310D-06-0.333D-06 0.474D-07 0.959D-08-0.440D-06 0.326D-05
 Coeff-Com:  0.159D-04 0.224D-04 0.122D-03-0.258D-04-0.839D-04-0.375D-02
 Coeff-Com: -0.152D-01-0.247D-01 0.629D-01 0.244D+00 0.737D+00
 Coeff:      0.310D-06-0.333D-06 0.474D-07 0.959D-08-0.440D-06 0.326D-05
 Coeff:      0.159D-04 0.224D-04 0.122D-03-0.258D-04-0.839D-04-0.375D-02
 Coeff:     -0.152D-01-0.247D-01 0.629D-01 0.244D+00 0.737D+00
 Gap=     0.075 Goal=   None    Shift=    0.000
 Gap=     0.075 Goal=   None    Shift=    0.000
 RMSDP=1.10D-08 MaxDP=5.85D-07 DE=-5.91D-12 OVMax= 3.36D-07

 Cycle  18  Pass 1  IDiag  1:
 RMSU=  4.22D-09    CP:  7.60D-01  3.65D-03  6.35D-01  1.29D-01  6.74D-01
                    CP:  7.30D-01  8.72D-01  9.08D-01  1.04D+00  1.27D+00
                    CP:  1.13D+00  9.16D-01  1.04D+00  1.19D+00  1.32D+00
                    CP:  1.27D+00  1.12D+00
 E= -764.437879040805     Delta-E=       -0.000000000011 Rises=F Damp=F
 DIIS: error= 9.53D-09 at cycle  18 NSaved=  18.
 NSaved=18 IEnMin=18 EnMin= -764.437879040805     IErMin=18 ErrMin= 9.53D-09
 ErrMax= 9.53D-09  0.00D+00 EMaxC= 1.00D-01 BMatC= 8.63D-14 BMatP= 5.28D-13
 IDIUse=1 WtCom= 1.00D+00 WtEn= 0.00D+00
 Coeff-Com:  0.229D-06-0.295D-06-0.720D-07 0.631D-08-0.250D-06 0.134D-05
 Coeff-Com:  0.651D-05 0.101D-04 0.750D-04 0.913D-04 0.391D-03-0.944D-03
 Coeff-Com: -0.678D-02-0.134D-01-0.198D-01 0.727D-01 0.356D+00 0.611D+00
 Coeff:      0.229D-06-0.295D-06-0.720D-07 0.631D-08-0.250D-06 0.134D-05
 Coeff:      0.651D-05 0.101D-04 0.750D-04 0.913D-04 0.391D-03-0.944D-03
 Coeff:     -0.678D-02-0.134D-01-0.198D-01 0.727D-01 0.356D+00 0.611D+00
 Gap=     0.075 Goal=   None    Shift=    0.000
 Gap=     0.075 Goal=   None    Shift=    0.000
 RMSDP=3.96D-09 MaxDP=2.16D-07 DE=-1.09D-11 OVMax= 1.30D-07

 Error on total polarization charges =  0.03041
 SCF Done:  E(UB3LYP) =  -764.437879041     A.U. after   18 cycles
            NFock= 18  Conv=0.40D-08     -V/T= 2.0042
 <Sx>= 0.0000 <Sy>= 0.0000 <Sz>= 0.0000 <S**2>=-0.0000 S=-0.0000
 <L.S>=  0.00000000000    
 KE= 7.612476565277D+02 PE=-3.984300605191D+03 EE= 1.376448241937D+03
 Annihilation of the first spin contaminant:
 S**2 before annihilation    -0.0000,   after     0.0000
 Leave Link  502 at Sun Jan 14 01:34:54 2024, MaxMem=  4026531840 cpu:            2326.8 elap:             307.7
 (Enter /sysapps/ubuntu-applications/gaussian/Gaussian/AVX2/g16/l601.exe)
 Copying SCF densities to generalized density rwf, IOpCl= 1 IROHF=0.

 **********************************************************************

            Population analysis using the SCF density.

 **********************************************************************

 Orbital symmetries:
 Alpha Orbitals:
       Occupied  (A) (A) (A) (A) (A) (A) (A) (A) (A) (A) (A) (A)
                 (A) (A) (A) (A) (A) (A) (A) (A) (A) (A) (A) (A)
                 (A) (A) (A) (A) (A) (A) (A) (A) (A) (A) (A) (A)
                 (A) (A) (A) (A) (A) (A) (A) (A) (A) (A) (A) (A)
                 (A) (A) (A) (A) (A) (A) (A) (A) (A) (A) (A)
       Virtual   (A) (A) (A) (A) (A) (A) (A) (A) (A) (A) (A) (A)
                 (A) (A) (A) (A) (A) (A) (A) (A) (A) (A) (A) (A)
                 (A) (A) (A) (A) (A) (A) (A) (A) (A) (A) (A) (A)
                 (A) (A) (A) (A) (A) (A) (A) (A) (A) (A) (A) (A)
                 (A) (A) (A) (A) (A) (A) (A) (A) (A) (A) (A) (A)
                 (A) (A) (A) (A) (A) (A) (A) (A) (A) (A) (A) (A)
                 (A) (A) (A) (A) (A) (A) (A) (A) (A) (A) (A) (A)
                 (A) (A) (A) (A) (A) (A) (A) (A) (A) (A) (A) (A)
                 (A) (A) (A) (A) (A) (A) (A) (A) (A) (A) (A) (A)
                 (A) (A) (A) (A) (A) (A) (A) (A) (A) (A) (A) (A)
                 (A) (A) (A) (A) (A) (A) (A) (A) (A) (A) (A) (A)
                 (A) (A) (A) (A) (A) (A) (A) (A) (A) (A) (A) (A)
                 (A) (A) (A) (A) (A) (A) (A) (A) (A) (A) (A) (A)
                 (A) (A) (A) (A) (A) (A) (A) (A) (A) (A) (A) (A)
                 (A) (A) (A) (A) (A) (A) (A) (A) (A) (A) (A) (A)
                 (A) (A) (A) (A) (A) (A) (A) (A) (A) (A) (A) (A)
                 (A) (A) (A) (A) (A) (A) (A) (A) (A) (A) (A) (A)
                 (A) (A) (A) (A) (A) (A) (A) (A) (A) (A) (A) (A)
                 (A) (A) (A) (A) (A) (A) (A) (A) (A) (A) (A) (A)
                 (A) (A) (A) (A) (A) (A) (A) (A) (A) (A) (A) (A)
                 (A) (A) (A) (A) (A) (A) (A) (A) (A) (A) (A) (A)
                 (A) (A) (A) (A) (A) (A) (A) (A) (A) (A) (A) (A)
                 (A) (A) (A) (A) (A) (A) (A) (A) (A) (A) (A) (A)
                 (A) (A) (A) (A) (A) (A) (A) (A) (A) (A) (A) (A)
                 (A) (A) (A) (A) (A) (A) (A) (A) (A) (A) (A) (A)
                 (A) (A) (A) (A) (A) (A) (A) (A) (A) (A) (A) (A)
                 (A) (A) (A) (A) (A) (A) (A) (A) (A) (A) (A) (A)
                 (A) (A) (A) (A) (A) (A) (A) (A) (A) (A) (A) (A)
                 (A) (A) (A) (A) (A) (A) (A) (A) (A) (A) (A) (A)
                 (A) (A) (A) (A) (A) (A) (A) (A) (A) (A) (A) (A)
                 (A) (A) (A) (A) (A)
 Beta  Orbitals:
       Occupied  (A) (A) (A) (A) (A) (A) (A) (A) (A) (A) (A) (A)
                 (A) (A) (A) (A) (A) (A) (A) (A) (A) (A) (A) (A)
                 (A) (A) (A) (A) (A) (A) (A) (A) (A) (A) (A) (A)
                 (A) (A) (A) (A) (A) (A) (A) (A) (A) (A) (A) (A)
                 (A) (A) (A) (A) (A) (A) (A) (A) (A) (A) (A)
       Virtual   (A) (A) (A) (A) (A) (A) (A) (A) (A) (A) (A) (A)
                 (A) (A) (A) (A) (A) (A) (A) (A) (A) (A) (A) (A)
                 (A) (A) (A) (A) (A) (A) (A) (A) (A) (A) (A) (A)
                 (A) (A) (A) (A) (A) (A) (A) (A) (A) (A) (A) (A)
                 (A) (A) (A) (A) (A) (A) (A) (A) (A) (A) (A) (A)
                 (A) (A) (A) (A) (A) (A) (A) (A) (A) (A) (A) (A)
                 (A) (A) (A) (A) (A) (A) (A) (A) (A) (A) (A) (A)
                 (A) (A) (A) (A) (A) (A) (A) (A) (A) (A) (A) (A)
                 (A) (A) (A) (A) (A) (A) (A) (A) (A) (A) (A) (A)
                 (A) (A) (A) (A) (A) (A) (A) (A) (A) (A) (A) (A)
                 (A) (A) (A) (A) (A) (A) (A) (A) (A) (A) (A) (A)
                 (A) (A) (A) (A) (A) (A) (A) (A) (A) (A) (A) (A)
                 (A) (A) (A) (A) (A) (A) (A) (A) (A) (A) (A) (A)
                 (A) (A) (A) (A) (A) (A) (A) (A) (A) (A) (A) (A)
                 (A) (A) (A) (A) (A) (A) (A) (A) (A) (A) (A) (A)
                 (A) (A) (A) (A) (A) (A) (A) (A) (A) (A) (A) (A)
                 (A) (A) (A) (A) (A) (A) (A) (A) (A) (A) (A) (A)
                 (A) (A) (A) (A) (A) (A) (A) (A) (A) (A) (A) (A)
                 (A) (A) (A) (A) (A) (A) (A) (A) (A) (A) (A) (A)
                 (A) (A) (A) (A) (A) (A) (A) (A) (A) (A) (A) (A)
                 (A) (A) (A) (A) (A) (A) (A) (A) (A) (A) (A) (A)
                 (A) (A) (A) (A) (A) (A) (A) (A) (A) (A) (A) (A)
                 (A) (A) (A) (A) (A) (A) (A) (A) (A) (A) (A) (A)
                 (A) (A) (A) (A) (A) (A) (A) (A) (A) (A) (A) (A)
                 (A) (A) (A) (A) (A) (A) (A) (A) (A) (A) (A) (A)
                 (A) (A) (A) (A) (A) (A) (A) (A) (A) (A) (A) (A)
                 (A) (A) (A) (A) (A) (A) (A) (A) (A) (A) (A) (A)
                 (A) (A) (A) (A) (A) (A) (A) (A) (A) (A) (A) (A)
                 (A) (A) (A) (A) (A) (A) (A) (A) (A) (A) (A) (A)
                 (A) (A) (A) (A) (A) (A) (A) (A) (A) (A) (A) (A)
                 (A) (A) (A) (A) (A)
 The electronic state is 1-A.
 Alpha  occ. eigenvalues --  -19.13888 -19.02088 -19.01496 -10.20942 -10.17446
 Alpha  occ. eigenvalues --  -10.16797 -10.15243 -10.15169 -10.14757 -10.14624
 Alpha  occ. eigenvalues --  -10.14462 -10.14322 -10.14076 -10.13664 -10.13425
 Alpha  occ. eigenvalues --  -10.13301 -10.13231  -1.03964  -0.94138  -0.93397
 Alpha  occ. eigenvalues --   -0.82617  -0.81895  -0.74838  -0.72655  -0.72032
 Alpha  occ. eigenvalues --   -0.70282  -0.63568  -0.60924  -0.59319  -0.56129
 Alpha  occ. eigenvalues --   -0.53817  -0.52023  -0.49968  -0.47290  -0.44609
 Alpha  occ. eigenvalues --   -0.43832  -0.42620  -0.40908  -0.40137  -0.39704
 Alpha  occ. eigenvalues --   -0.38434  -0.37854  -0.37259  -0.36831  -0.35677
 Alpha  occ. eigenvalues --   -0.35038  -0.32790  -0.32362  -0.32026  -0.31580
 Alpha  occ. eigenvalues --   -0.29856  -0.28954  -0.23313  -0.22407  -0.22063
 Alpha  occ. eigenvalues --   -0.20627  -0.20125  -0.19291  -0.10146
 Alpha virt. eigenvalues --   -0.02602  -0.00135   0.00426   0.00747   0.01549
 Alpha virt. eigenvalues --    0.02081   0.02118   0.02619   0.04184   0.04747
 Alpha virt. eigenvalues --    0.04922   0.05280   0.06138   0.06621   0.07041
 Alpha virt. eigenvalues --    0.07460   0.08355   0.08663   0.09491   0.09771
 Alpha virt. eigenvalues --    0.10077   0.10386   0.10902   0.11202   0.11516
 Alpha virt. eigenvalues --    0.12082   0.12889   0.13060   0.13172   0.13502
 Alpha virt. eigenvalues --    0.13678   0.13830   0.14021   0.14226   0.14678
 Alpha virt. eigenvalues --    0.14872   0.15697   0.16237   0.16735   0.17539
 Alpha virt. eigenvalues --    0.17772   0.17967   0.18364   0.18985   0.19718
 Alpha virt. eigenvalues --    0.19844   0.20173   0.20670   0.20913   0.21492
 Alpha virt. eigenvalues --    0.21770   0.23407   0.24051   0.24177   0.24681
 Alpha virt. eigenvalues --    0.24979   0.25644   0.26015   0.26291   0.26458
 Alpha virt. eigenvalues --    0.27019   0.27218   0.27790   0.28008   0.28314
 Alpha virt. eigenvalues --    0.29009   0.29304   0.30406   0.30516   0.30838
 Alpha virt. eigenvalues --    0.31382   0.31604   0.31724   0.31994   0.32390
 Alpha virt. eigenvalues --    0.32722   0.33470   0.34013   0.34581   0.34806
 Alpha virt. eigenvalues --    0.34943   0.35416   0.36027   0.36447   0.36555
 Alpha virt. eigenvalues --    0.37179   0.38480   0.38626   0.39243   0.40556
 Alpha virt. eigenvalues --    0.40924   0.41933   0.44200   0.44612   0.45313
 Alpha virt. eigenvalues --    0.46809   0.48038   0.51106   0.51980   0.53689
 Alpha virt. eigenvalues --    0.54703   0.54934   0.56267   0.57255   0.58025
 Alpha virt. eigenvalues --    0.58552   0.58721   0.59421   0.60091   0.60771
 Alpha virt. eigenvalues --    0.61133   0.61383   0.62325   0.62609   0.63695
 Alpha virt. eigenvalues --    0.64644   0.65542   0.66411   0.67143   0.67272
 Alpha virt. eigenvalues --    0.68260   0.68686   0.69488   0.69774   0.70115
 Alpha virt. eigenvalues --    0.70397   0.72030   0.73560   0.75896   0.76205
 Alpha virt. eigenvalues --    0.76396   0.77968   0.78663   0.79797   0.81022
 Alpha virt. eigenvalues --    0.81396   0.81570   0.82298   0.83997   0.84826
 Alpha virt. eigenvalues --    0.87429   0.88218   0.89454   0.89942   0.91849
 Alpha virt. eigenvalues --    0.92258   0.93942   0.94903   0.95318   0.96525
 Alpha virt. eigenvalues --    0.96645   0.97473   0.97800   0.98596   1.00838
 Alpha virt. eigenvalues --    1.01772   1.02120   1.02473   1.04009   1.04190
 Alpha virt. eigenvalues --    1.04814   1.05599   1.07782   1.08465   1.09191
 Alpha virt. eigenvalues --    1.09755   1.11053   1.12146   1.14203   1.15623
 Alpha virt. eigenvalues --    1.16195   1.17349   1.18852   1.19587   1.20068
 Alpha virt. eigenvalues --    1.21692   1.23068   1.24022   1.25711   1.27111
 Alpha virt. eigenvalues --    1.27901   1.29504   1.29974   1.33312   1.34253
 Alpha virt. eigenvalues --    1.36769   1.37339   1.38338   1.40362   1.43671
 Alpha virt. eigenvalues --    1.46025   1.50526   1.51855   1.52013   1.53827
 Alpha virt. eigenvalues --    1.53868   1.54910   1.55428   1.56473   1.56800
 Alpha virt. eigenvalues --    1.58975   1.59134   1.60054   1.62376   1.64592
 Alpha virt. eigenvalues --    1.65250   1.66245   1.67728   1.70256   1.72289
 Alpha virt. eigenvalues --    1.73798   1.74011   1.74302   1.75568   1.76680
 Alpha virt. eigenvalues --    1.77296   1.79572   1.81106   1.81505   1.84198
 Alpha virt. eigenvalues --    1.85160   1.86326   1.89095   1.91948   1.92568
 Alpha virt. eigenvalues --    1.93500   1.94358   1.95938   1.96397   1.98083
 Alpha virt. eigenvalues --    1.98466   1.99328   1.99791   2.00637   2.00710
 Alpha virt. eigenvalues --    2.02760   2.03034   2.04402   2.07231   2.08342
 Alpha virt. eigenvalues --    2.10254   2.10633   2.11620   2.13067   2.18356
 Alpha virt. eigenvalues --    2.19042   2.21203   2.25429   2.25603   2.30564
 Alpha virt. eigenvalues --    2.31444   2.34866   2.36466   2.37624   2.40788
 Alpha virt. eigenvalues --    2.42570   2.44466   2.46046   2.49635   2.50605
 Alpha virt. eigenvalues --    2.53281   2.58364   2.60724   2.63195   2.65261
 Alpha virt. eigenvalues --    2.66977   2.67719   2.69522   2.71743   2.73224
 Alpha virt. eigenvalues --    2.74000   2.75600   2.77134   2.77975   2.78911
 Alpha virt. eigenvalues --    2.79804   2.79937   2.80385   2.80742   2.80775
 Alpha virt. eigenvalues --    2.82021   2.83552   2.85872   2.87869   2.89894
 Alpha virt. eigenvalues --    2.90843   2.91206   2.93151   2.93255   2.94015
 Alpha virt. eigenvalues --    2.98849   3.00166   3.00313   3.03060   3.03362
 Alpha virt. eigenvalues --    3.06846   3.11943   3.12253   3.13921   3.17986
 Alpha virt. eigenvalues --    3.18676   3.20111   3.23182   3.24765   3.29904
 Alpha virt. eigenvalues --    3.30016   3.34122   3.36323   3.36566   3.37377
 Alpha virt. eigenvalues --    3.38756   3.43103   3.45889   3.47192   3.53334
 Alpha virt. eigenvalues --    3.53974   3.55785   3.57003   3.59730   3.60456
 Alpha virt. eigenvalues --    3.61916   3.67485   3.70957   3.81268   3.86957
 Alpha virt. eigenvalues --    3.89982   3.90898   4.06657   4.08341   4.11455
 Alpha virt. eigenvalues --    4.13060   4.21513   4.24107   4.32959   4.36987
 Alpha virt. eigenvalues --    4.52379   4.84716   4.86390   4.87105   5.03909
 Alpha virt. eigenvalues --    5.13661   5.15249   5.31745   5.34602   5.44002
 Alpha virt. eigenvalues --    5.72698   5.79970   5.86851  23.55164  23.72441
 Alpha virt. eigenvalues --   23.91369  23.93878  23.95440  23.98715  24.00311
 Alpha virt. eigenvalues --   24.01015  24.02267  24.06571  24.14318  24.14867
 Alpha virt. eigenvalues --   24.20304  24.21037  49.94155  50.10582  50.16552
  Beta  occ. eigenvalues --  -19.13888 -19.02088 -19.01496 -10.20942 -10.17446
  Beta  occ. eigenvalues --  -10.16797 -10.15243 -10.15169 -10.14757 -10.14624
  Beta  occ. eigenvalues --  -10.14462 -10.14322 -10.14076 -10.13664 -10.13425
  Beta  occ. eigenvalues --  -10.13301 -10.13231  -1.03964  -0.94138  -0.93397
  Beta  occ. eigenvalues --   -0.82617  -0.81895  -0.74838  -0.72655  -0.72032
  Beta  occ. eigenvalues --   -0.70282  -0.63568  -0.60924  -0.59319  -0.56129
  Beta  occ. eigenvalues --   -0.53817  -0.52023  -0.49968  -0.47290  -0.44609
  Beta  occ. eigenvalues --   -0.43832  -0.42620  -0.40908  -0.40137  -0.39704
  Beta  occ. eigenvalues --   -0.38434  -0.37854  -0.37259  -0.36831  -0.35677
  Beta  occ. eigenvalues --   -0.35038  -0.32790  -0.32362  -0.32026  -0.31580
  Beta  occ. eigenvalues --   -0.29856  -0.28954  -0.23313  -0.22407  -0.22063
  Beta  occ. eigenvalues --   -0.20627  -0.20125  -0.19291  -0.10146
  Beta virt. eigenvalues --   -0.02602  -0.00135   0.00426   0.00747   0.01549
  Beta virt. eigenvalues --    0.02081   0.02118   0.02619   0.04184   0.04747
  Beta virt. eigenvalues --    0.04922   0.05280   0.06138   0.06621   0.07041
  Beta virt. eigenvalues --    0.07460   0.08355   0.08663   0.09491   0.09771
  Beta virt. eigenvalues --    0.10077   0.10386   0.10902   0.11202   0.11516
  Beta virt. eigenvalues --    0.12082   0.12889   0.13060   0.13172   0.13502
  Beta virt. eigenvalues --    0.13678   0.13830   0.14021   0.14226   0.14678
  Beta virt. eigenvalues --    0.14872   0.15697   0.16237   0.16735   0.17539
  Beta virt. eigenvalues --    0.17772   0.17967   0.18364   0.18985   0.19718
  Beta virt. eigenvalues --    0.19844   0.20173   0.20670   0.20913   0.21492
  Beta virt. eigenvalues --    0.21770   0.23407   0.24051   0.24177   0.24681
  Beta virt. eigenvalues --    0.24979   0.25644   0.26015   0.26291   0.26458
  Beta virt. eigenvalues --    0.27019   0.27218   0.27790   0.28008   0.28314
  Beta virt. eigenvalues --    0.29009   0.29304   0.30406   0.30516   0.30838
  Beta virt. eigenvalues --    0.31382   0.31604   0.31724   0.31994   0.32390
  Beta virt. eigenvalues --    0.32722   0.33470   0.34013   0.34581   0.34806
  Beta virt. eigenvalues --    0.34943   0.35416   0.36027   0.36447   0.36555
  Beta virt. eigenvalues --    0.37179   0.38480   0.38626   0.39243   0.40556
  Beta virt. eigenvalues --    0.40924   0.41933   0.44200   0.44612   0.45313
  Beta virt. eigenvalues --    0.46809   0.48038   0.51106   0.51980   0.53689
  Beta virt. eigenvalues --    0.54703   0.54934   0.56267   0.57255   0.58025
  Beta virt. eigenvalues --    0.58552   0.58721   0.59421   0.60091   0.60771
  Beta virt. eigenvalues --    0.61133   0.61383   0.62325   0.62609   0.63695
  Beta virt. eigenvalues --    0.64644   0.65542   0.66411   0.67143   0.67272
  Beta virt. eigenvalues --    0.68260   0.68686   0.69488   0.69774   0.70115
  Beta virt. eigenvalues --    0.70397   0.72030   0.73560   0.75896   0.76205
  Beta virt. eigenvalues --    0.76396   0.77968   0.78663   0.79797   0.81022
  Beta virt. eigenvalues --    0.81396   0.81570   0.82298   0.83997   0.84826
  Beta virt. eigenvalues --    0.87429   0.88218   0.89454   0.89942   0.91849
  Beta virt. eigenvalues --    0.92258   0.93942   0.94903   0.95318   0.96525
  Beta virt. eigenvalues --    0.96645   0.97473   0.97800   0.98596   1.00838
  Beta virt. eigenvalues --    1.01772   1.02120   1.02473   1.04009   1.04190
  Beta virt. eigenvalues --    1.04814   1.05599   1.07782   1.08465   1.09191
  Beta virt. eigenvalues --    1.09755   1.11053   1.12146   1.14203   1.15623
  Beta virt. eigenvalues --    1.16195   1.17349   1.18852   1.19587   1.20068
  Beta virt. eigenvalues --    1.21692   1.23068   1.24022   1.25711   1.27111
  Beta virt. eigenvalues --    1.27901   1.29504   1.29974   1.33312   1.34253
  Beta virt. eigenvalues --    1.36769   1.37339   1.38338   1.40362   1.43671
  Beta virt. eigenvalues --    1.46025   1.50526   1.51855   1.52013   1.53827
  Beta virt. eigenvalues --    1.53868   1.54910   1.55428   1.56473   1.56800
  Beta virt. eigenvalues --    1.58975   1.59134   1.60054   1.62376   1.64592
  Beta virt. eigenvalues --    1.65250   1.66245   1.67728   1.70256   1.72289
  Beta virt. eigenvalues --    1.73798   1.74011   1.74302   1.75568   1.76680
  Beta virt. eigenvalues --    1.77296   1.79572   1.81106   1.81505   1.84198
  Beta virt. eigenvalues --    1.85160   1.86326   1.89095   1.91948   1.92568
  Beta virt. eigenvalues --    1.93500   1.94358   1.95938   1.96397   1.98083
  Beta virt. eigenvalues --    1.98466   1.99328   1.99791   2.00637   2.00710
  Beta virt. eigenvalues --    2.02760   2.03034   2.04402   2.07231   2.08342
  Beta virt. eigenvalues --    2.10254   2.10633   2.11620   2.13067   2.18356
  Beta virt. eigenvalues --    2.19042   2.21203   2.25429   2.25603   2.30564
  Beta virt. eigenvalues --    2.31444   2.34866   2.36466   2.37624   2.40788
  Beta virt. eigenvalues --    2.42570   2.44466   2.46046   2.49635   2.50605
  Beta virt. eigenvalues --    2.53281   2.58364   2.60724   2.63195   2.65261
  Beta virt. eigenvalues --    2.66977   2.67719   2.69522   2.71743   2.73224
  Beta virt. eigenvalues --    2.74000   2.75600   2.77134   2.77975   2.78911
  Beta virt. eigenvalues --    2.79804   2.79937   2.80385   2.80742   2.80775
  Beta virt. eigenvalues --    2.82021   2.83552   2.85872   2.87869   2.89894
  Beta virt. eigenvalues --    2.90843   2.91206   2.93151   2.93255   2.94015
  Beta virt. eigenvalues --    2.98849   3.00166   3.00313   3.03060   3.03362
  Beta virt. eigenvalues --    3.06846   3.11943   3.12253   3.13921   3.17986
  Beta virt. eigenvalues --    3.18676   3.20111   3.23182   3.24765   3.29904
  Beta virt. eigenvalues --    3.30016   3.34122   3.36323   3.36566   3.37377
  Beta virt. eigenvalues --    3.38756   3.43103   3.45889   3.47192   3.53334
  Beta virt. eigenvalues --    3.53974   3.55785   3.57003   3.59730   3.60456
  Beta virt. eigenvalues --    3.61916   3.67485   3.70957   3.81268   3.86957
  Beta virt. eigenvalues --    3.89982   3.90898   4.06657   4.08341   4.11455
  Beta virt. eigenvalues --    4.13060   4.21513   4.24107   4.32959   4.36987
  Beta virt. eigenvalues --    4.52379   4.84716   4.86390   4.87105   5.03909
  Beta virt. eigenvalues --    5.13661   5.15249   5.31745   5.34602   5.44002
  Beta virt. eigenvalues --    5.72698   5.79970   5.86851  23.55164  23.72441
  Beta virt. eigenvalues --   23.91369  23.93878  23.95440  23.98715  24.00311
  Beta virt. eigenvalues --   24.01015  24.02267  24.06571  24.14318  24.14867
  Beta virt. eigenvalues --   24.20304  24.21037  49.94155  50.10582  50.16552
          Condensed to atoms (all electrons):
               1          2          3          4          5          6
     1  O    8.132350   0.164161  -0.108471   0.042883  -0.050644   0.000923
     2  C    0.164161  12.081153   1.196670  -1.081024  -0.148114  -0.301905
     3  C   -0.108471   1.196670   9.770868  -1.284955  -1.909031   0.473265
     4  C    0.042883  -1.081024  -1.284955   8.848214   1.140008  -1.532487
     5  C   -0.050644  -0.148114  -1.909031   1.140008  14.516938   0.083974
     6  C    0.000923  -0.301905   0.473265  -1.532487   0.083974  10.405864
     7  O    0.000011  -0.008601   0.074017   0.123643  -0.373845   0.883122
     8  C   -0.001180  -0.158979   0.125036  -0.188315  -1.696216   0.552433
     9  C    0.000181  -0.178473  -0.139552  -0.129641  -0.362061  -1.983632
    10  C   -0.000001  -0.009953  -0.024112  -0.087651   0.174257   0.479524
    11  C    0.000018   0.001909   0.010079   0.017556  -0.011360  -0.141753
    12  C   -0.000145  -0.148801  -0.021346  -0.219849  -1.191858  -0.531638
    13  C    0.005267   0.166659   0.132115  -1.144201  -4.582140  -0.856263
    14  C    0.045438   0.980617   0.427856  -0.802456  -0.705058  -0.415334
    15  O   -0.000461   0.107834  -0.002255  -0.030115  -0.191596  -0.025217
    16  C    0.082109  -3.559815   0.093577  -0.433832  -0.609475  -0.508820
    17  C   -0.180124  -2.276715  -2.980108   2.475657   1.698075  -0.240795
    18  H    0.235064   0.219109  -0.074033  -0.043730   0.002163  -0.005777
    19  H   -0.006717  -0.261062   0.516547  -0.018606  -0.028961   0.028359
    20  H    0.000041   0.024744  -0.146318   0.352854   0.037258   0.043649
    21  H    0.000003  -0.002336   0.000534  -0.001826  -0.024090   0.018530
    22  H   -0.000000   0.000185  -0.000418  -0.000893   0.010540   0.026679
    23  H    0.000001  -0.000839   0.000117   0.000900  -0.002642  -0.020855
    24  H   -0.000024  -0.002092   0.000388  -0.002959  -0.009514   0.012477
    25  H   -0.028607  -0.202694  -0.119537   0.053694   0.186290   0.001656
               7          8          9         10         11         12
     1  O    0.000011  -0.001180   0.000181  -0.000001   0.000018  -0.000145
     2  C   -0.008601  -0.158979  -0.178473  -0.009953   0.001909  -0.148801
     3  C    0.074017   0.125036  -0.139552  -0.024112   0.010079  -0.021346
     4  C    0.123643  -0.188315  -0.129641  -0.087651   0.017556  -0.219849
     5  C   -0.373845  -1.696216  -0.362061   0.174257  -0.011360  -1.191858
     6  C    0.883122   0.552433  -1.983632   0.479524  -0.141753  -0.531638
     7  O    8.685766  -0.390767   0.132859   0.088645  -0.010691  -0.018290
     8  C   -0.390767  13.903247  -0.037778  -0.952798  -0.005737  -0.352779
     9  C    0.132859  -0.037778   8.409080   0.421384  -0.423950   1.450278
    10  C    0.088645  -0.952798   0.421384   6.577596   0.346069  -0.082530
    11  C   -0.010691  -0.005737  -0.423950   0.346069   6.544166  -0.135999
    12  C   -0.018290  -0.352779   1.450278  -0.082530  -0.135999   9.223780
    13  C   -0.239441   0.410542   0.168471  -0.377855  -0.855664   0.197782
    14  C   -0.033503  -0.478972  -0.508341  -0.283655   0.518360  -1.868749
    15  O   -0.000261  -0.182580  -0.024351  -0.005274   0.090637   0.127136
    16  C   -0.251801  -3.945254  -0.935183  -0.032293   0.260683  -0.325470
    17  C   -0.014141  -0.826121  -0.168696  -0.047952  -0.024130  -0.326671
    18  H   -0.000037  -0.002908  -0.000808  -0.000030   0.000076  -0.000450
    19  H    0.003019   0.013916   0.003205   0.000012  -0.000055   0.001557
    20  H   -0.003619  -0.009981  -0.001405   0.000911  -0.000185  -0.001752
    21  H   -0.004933   0.024129   0.352453  -0.106955   0.002496   0.018097
    22  H    0.003081  -0.002984  -0.099173   0.475989  -0.060496   0.008968
    23  H   -0.000377  -0.029942   0.012527  -0.064841   0.474196  -0.107263
    24  H    0.000493   0.072104   0.008258   0.016471  -0.100477   0.366760
    25  H    0.000521  -0.013842   0.000701  -0.001815  -0.001516  -0.022829
              13         14         15         16         17         18
     1  O    0.005267   0.045438  -0.000461   0.082109  -0.180124   0.235064
     2  C    0.166659   0.980617   0.107834  -3.559815  -2.276715   0.219109
     3  C    0.132115   0.427856  -0.002255   0.093577  -2.980108  -0.074033
     4  C   -1.144201  -0.802456  -0.030115  -0.433832   2.475657  -0.043730
     5  C   -4.582140  -0.705058  -0.191596  -0.609475   1.698075   0.002163
     6  C   -0.856263  -0.415334  -0.025217  -0.508820  -0.240795  -0.005777
     7  O   -0.239441  -0.033503  -0.000261  -0.251801  -0.014141  -0.000037
     8  C    0.410542  -0.478972  -0.182580  -3.945254  -0.826121  -0.002908
     9  C    0.168471  -0.508341  -0.024351  -0.935183  -0.168696  -0.000808
    10  C   -0.377855  -0.283655  -0.005274  -0.032293  -0.047952  -0.000030
    11  C   -0.855664   0.518360   0.090637   0.260683  -0.024130   0.000076
    12  C    0.197782  -1.868749   0.127136  -0.325470  -0.326671  -0.000450
    13  C   14.172439   0.772811  -0.371346  -0.994527  -0.908479  -0.002022
    14  C    0.772811  10.227544   0.752549   0.993081  -3.112448  -0.002542
    15  O   -0.371346   0.752549   8.721364  -0.403395   0.101754  -0.000004
    16  C   -0.994527   0.993081  -0.403395  16.301978  -0.235726  -0.045837
    17  C   -0.908479  -3.112448   0.101754  -0.235726  12.740156  -0.039181
    18  H   -0.002022  -0.002542  -0.000004  -0.045837  -0.039181   0.479808
    19  H    0.007830   0.000682  -0.000146   0.059279  -0.022642  -0.008380
    20  H   -0.002480  -0.003540   0.000368  -0.006063   0.046197   0.000507
    21  H    0.050791   0.006505   0.000351  -0.003199  -0.000737  -0.000016
    22  H   -0.023668  -0.015690  -0.000267  -0.002821  -0.000178  -0.000000
    23  H    0.012121   0.029780   0.002906   0.011380   0.000203  -0.000001
    24  H    0.009983   0.005095  -0.001782  -0.025289  -0.017352  -0.000018
    25  H   -0.082524  -0.110282   0.003644   0.010265   0.610304   0.002558
              19         20         21         22         23         24
     1  O   -0.006717   0.000041   0.000003  -0.000000   0.000001  -0.000024
     2  C   -0.261062   0.024744  -0.002336   0.000185  -0.000839  -0.002092
     3  C    0.516547  -0.146318   0.000534  -0.000418   0.000117   0.000388
     4  C   -0.018606   0.352854  -0.001826  -0.000893   0.000900  -0.002959
     5  C   -0.028961   0.037258  -0.024090   0.010540  -0.002642  -0.009514
     6  C    0.028359   0.043649   0.018530   0.026679  -0.020855   0.012477
     7  O    0.003019  -0.003619  -0.004933   0.003081  -0.000377   0.000493
     8  C    0.013916  -0.009981   0.024129  -0.002984  -0.029942   0.072104
     9  C    0.003205  -0.001405   0.352453  -0.099173   0.012527   0.008258
    10  C    0.000012   0.000911  -0.106955   0.475989  -0.064841   0.016471
    11  C   -0.000055  -0.000185   0.002496  -0.060496   0.474196  -0.100477
    12  C    0.001557  -0.001752   0.018097   0.008968  -0.107263   0.366760
    13  C    0.007830  -0.002480   0.050791  -0.023668   0.012121   0.009983
    14  C    0.000682  -0.003540   0.006505  -0.015690   0.029780   0.005095
    15  O   -0.000146   0.000368   0.000351  -0.000267   0.002906  -0.001782
    16  C    0.059279  -0.006063  -0.003199  -0.002821   0.011380  -0.025289
    17  C   -0.022642   0.046197  -0.000737  -0.000178   0.000203  -0.017352
    18  H   -0.008380   0.000507  -0.000016  -0.000000  -0.000001  -0.000018
    19  H    0.558104  -0.015051  -0.000019  -0.000006   0.000004   0.000005
    20  H   -0.015051   0.529187   0.000213  -0.000083  -0.000020  -0.000107
    21  H   -0.000019   0.000213   0.537511  -0.014226   0.000292   0.001668
    22  H   -0.000006  -0.000083  -0.014226   0.555939  -0.015037   0.000486
    23  H    0.000004  -0.000020   0.000292  -0.015037   0.557290  -0.015369
    24  H    0.000005  -0.000107   0.001668   0.000486  -0.015369   0.539817
    25  H   -0.003187   0.003029  -0.000018  -0.000044   0.000000  -0.001241
              25
     1  O   -0.028607
     2  C   -0.202694
     3  C   -0.119537
     4  C    0.053694
     5  C    0.186290
     6  C    0.001656
     7  O    0.000521
     8  C   -0.013842
     9  C    0.000701
    10  C   -0.001815
    11  C   -0.001516
    12  C   -0.022829
    13  C   -0.082524
    14  C   -0.110282
    15  O    0.003644
    16  C    0.010265
    17  C    0.610304
    18  H    0.002558
    19  H   -0.003187
    20  H    0.003029
    21  H   -0.000018
    22  H   -0.000044
    23  H    0.000000
    24  H   -0.001241
    25  H    0.556150
          Atomic-Atomic Spin Densities.
               1          2          3          4          5          6
     1  O   -0.000000   0.000000   0.000000  -0.000000   0.000000   0.000000
     2  C    0.000000   0.000000  -0.000000   0.000000  -0.000000  -0.000000
     3  C    0.000000  -0.000000   0.000000   0.000000  -0.000000  -0.000000
     4  C   -0.000000   0.000000   0.000000   0.000000   0.000000  -0.000000
     5  C    0.000000  -0.000000  -0.000000   0.000000   0.000000   0.000000
     6  C    0.000000  -0.000000  -0.000000  -0.000000   0.000000  -0.000000
     7  O   -0.000000  -0.000000  -0.000000  -0.000000   0.000000   0.000000
     8  C    0.000000  -0.000000  -0.000000  -0.000000   0.000000   0.000000
     9  C    0.000000  -0.000000   0.000000  -0.000000  -0.000000  -0.000000
    10  C    0.000000  -0.000000   0.000000  -0.000000  -0.000000  -0.000000
    11  C   -0.000000   0.000000  -0.000000   0.000000   0.000000   0.000000
    12  C    0.000000   0.000000   0.000000  -0.000000  -0.000000  -0.000000
    13  C    0.000000  -0.000000   0.000000  -0.000000  -0.000000  -0.000000
    14  C   -0.000000   0.000000   0.000000   0.000000   0.000000   0.000000
    15  O   -0.000000   0.000000   0.000000  -0.000000  -0.000000   0.000000
    16  C   -0.000000   0.000000   0.000000  -0.000000  -0.000000   0.000000
    17  C    0.000000  -0.000000  -0.000000  -0.000000  -0.000000  -0.000000
    18  H    0.000000  -0.000000  -0.000000   0.000000  -0.000000  -0.000000
    19  H    0.000000  -0.000000   0.000000  -0.000000  -0.000000   0.000000
    20  H   -0.000000   0.000000   0.000000  -0.000000   0.000000   0.000000
    21  H    0.000000  -0.000000  -0.000000  -0.000000  -0.000000  -0.000000
    22  H    0.000000   0.000000   0.000000   0.000000  -0.000000  -0.000000
    23  H   -0.000000  -0.000000  -0.000000  -0.000000  -0.000000   0.000000
    24  H    0.000000   0.000000   0.000000   0.000000   0.000000  -0.000000
    25  H    0.000000  -0.000000  -0.000000   0.000000  -0.000000  -0.000000
               7          8          9         10         11         12
     1  O   -0.000000   0.000000   0.000000   0.000000  -0.000000   0.000000
     2  C   -0.000000  -0.000000  -0.000000  -0.000000   0.000000   0.000000
     3  C   -0.000000  -0.000000   0.000000   0.000000  -0.000000   0.000000
     4  C   -0.000000  -0.000000  -0.000000  -0.000000   0.000000  -0.000000
     5  C    0.000000   0.000000  -0.000000  -0.000000   0.000000  -0.000000
     6  C    0.000000   0.000000  -0.000000  -0.000000   0.000000  -0.000000
     7  O    0.000000   0.000000  -0.000000  -0.000000   0.000000  -0.000000
     8  C    0.000000   0.000000  -0.000000  -0.000000   0.000000  -0.000000
     9  C   -0.000000  -0.000000   0.000000   0.000000   0.000000  -0.000000
    10  C   -0.000000  -0.000000   0.000000  -0.000000   0.000000  -0.000000
    11  C    0.000000   0.000000   0.000000   0.000000  -0.000000  -0.000000
    12  C   -0.000000  -0.000000  -0.000000  -0.000000  -0.000000  -0.000000
    13  C   -0.000000  -0.000000   0.000000   0.000000  -0.000000   0.000000
    14  C    0.000000   0.000000   0.000000   0.000000  -0.000000   0.000000
    15  O   -0.000000  -0.000000  -0.000000   0.000000  -0.000000  -0.000000
    16  C    0.000000   0.000000  -0.000000  -0.000000  -0.000000   0.000000
    17  C   -0.000000  -0.000000  -0.000000   0.000000  -0.000000   0.000000
    18  H    0.000000  -0.000000  -0.000000  -0.000000   0.000000   0.000000
    19  H    0.000000   0.000000   0.000000   0.000000  -0.000000   0.000000
    20  H    0.000000   0.000000  -0.000000  -0.000000   0.000000  -0.000000
    21  H   -0.000000  -0.000000   0.000000   0.000000  -0.000000   0.000000
    22  H   -0.000000   0.000000   0.000000  -0.000000   0.000000  -0.000000
    23  H    0.000000   0.000000  -0.000000   0.000000  -0.000000   0.000000
    24  H    0.000000   0.000000  -0.000000  -0.000000   0.000000  -0.000000
    25  H   -0.000000   0.000000  -0.000000   0.000000  -0.000000   0.000000
              13         14         15         16         17         18
     1  O    0.000000  -0.000000  -0.000000  -0.000000   0.000000   0.000000
     2  C   -0.000000   0.000000   0.000000   0.000000  -0.000000  -0.000000
     3  C    0.000000   0.000000   0.000000   0.000000  -0.000000  -0.000000
     4  C   -0.000000   0.000000  -0.000000  -0.000000  -0.000000   0.000000
     5  C   -0.000000   0.000000  -0.000000  -0.000000  -0.000000  -0.000000
     6  C   -0.000000   0.000000   0.000000   0.000000  -0.000000  -0.000000
     7  O   -0.000000   0.000000  -0.000000   0.000000  -0.000000   0.000000
     8  C   -0.000000   0.000000  -0.000000   0.000000  -0.000000  -0.000000
     9  C    0.000000   0.000000  -0.000000  -0.000000  -0.000000  -0.000000
    10  C    0.000000   0.000000   0.000000  -0.000000   0.000000  -0.000000
    11  C   -0.000000  -0.000000  -0.000000  -0.000000  -0.000000   0.000000
    12  C    0.000000   0.000000  -0.000000   0.000000   0.000000   0.000000
    13  C    0.000000  -0.000000   0.000000   0.000000   0.000000  -0.000000
    14  C   -0.000000  -0.000000  -0.000000  -0.000000   0.000000   0.000000
    15  O    0.000000  -0.000000   0.000000  -0.000000   0.000000  -0.000000
    16  C    0.000000  -0.000000  -0.000000  -0.000000   0.000000   0.000000
    17  C    0.000000   0.000000   0.000000   0.000000   0.000000  -0.000000
    18  H   -0.000000   0.000000  -0.000000   0.000000  -0.000000  -0.000000
    19  H    0.000000  -0.000000   0.000000   0.000000   0.000000  -0.000000
    20  H    0.000000  -0.000000  -0.000000  -0.000000  -0.000000   0.000000
    21  H    0.000000  -0.000000   0.000000   0.000000  -0.000000  -0.000000
    22  H    0.000000   0.000000   0.000000   0.000000   0.000000  -0.000000
    23  H   -0.000000  -0.000000  -0.000000  -0.000000  -0.000000  -0.000000
    24  H   -0.000000   0.000000   0.000000   0.000000   0.000000   0.000000
    25  H    0.000000   0.000000  -0.000000   0.000000  -0.000000  -0.000000
              19         20         21         22         23         24
     1  O    0.000000  -0.000000   0.000000   0.000000  -0.000000   0.000000
     2  C   -0.000000   0.000000  -0.000000   0.000000  -0.000000   0.000000
     3  C    0.000000   0.000000  -0.000000   0.000000  -0.000000   0.000000
     4  C   -0.000000  -0.000000  -0.000000   0.000000  -0.000000   0.000000
     5  C   -0.000000   0.000000  -0.000000  -0.000000  -0.000000   0.000000
     6  C    0.000000   0.000000  -0.000000  -0.000000   0.000000  -0.000000
     7  O    0.000000   0.000000  -0.000000  -0.000000   0.000000   0.000000
     8  C    0.000000   0.000000  -0.000000   0.000000   0.000000   0.000000
     9  C    0.000000  -0.000000   0.000000   0.000000  -0.000000  -0.000000
    10  C    0.000000  -0.000000   0.000000  -0.000000   0.000000  -0.000000
    11  C   -0.000000   0.000000  -0.000000   0.000000  -0.000000   0.000000
    12  C    0.000000  -0.000000   0.000000  -0.000000   0.000000  -0.000000
    13  C    0.000000   0.000000   0.000000   0.000000  -0.000000  -0.000000
    14  C   -0.000000  -0.000000  -0.000000   0.000000  -0.000000   0.000000
    15  O    0.000000  -0.000000   0.000000   0.000000  -0.000000   0.000000
    16  C    0.000000  -0.000000   0.000000   0.000000  -0.000000   0.000000
    17  C    0.000000  -0.000000  -0.000000   0.000000  -0.000000   0.000000
    18  H   -0.000000   0.000000  -0.000000  -0.000000  -0.000000   0.000000
    19  H    0.000000  -0.000000   0.000000   0.000000  -0.000000   0.000000
    20  H   -0.000000   0.000000   0.000000  -0.000000   0.000000  -0.000000
    21  H    0.000000   0.000000   0.000000   0.000000  -0.000000  -0.000000
    22  H    0.000000  -0.000000   0.000000  -0.000000   0.000000  -0.000000
    23  H   -0.000000   0.000000  -0.000000   0.000000  -0.000000   0.000000
    24  H    0.000000  -0.000000  -0.000000  -0.000000   0.000000   0.000000
    25  H   -0.000000   0.000000  -0.000000   0.000000  -0.000000   0.000000
              25
     1  O    0.000000
     2  C   -0.000000
     3  C   -0.000000
     4  C    0.000000
     5  C   -0.000000
     6  C   -0.000000
     7  O   -0.000000
     8  C    0.000000
     9  C   -0.000000
    10  C    0.000000
    11  C   -0.000000
    12  C    0.000000
    13  C    0.000000
    14  C    0.000000
    15  O   -0.000000
    16  C    0.000000
    17  C   -0.000000
    18  H   -0.000000
    19  H   -0.000000
    20  H    0.000000
    21  H   -0.000000
    22  H    0.000000
    23  H   -0.000000
    24  H    0.000000
    25  H   -0.000000
 Mulliken charges and spin densities:
               1          2
     1  O   -0.332076  -0.000000
     2  C   -0.601638   0.000000
     3  C   -0.010935   0.000000
     4  C   -0.052867  -0.000000
     5  C    0.047101   0.000000
     6  C   -0.445979  -0.000000
     7  O   -0.644871  -0.000000
     8  C    0.175727   0.000000
     9  C    0.033648  -0.000000
    10  C   -0.503144  -0.000000
    11  C   -0.494231   0.000000
    12  C   -0.037940  -0.000000
    13  C    0.333797   0.000000
    14  C   -0.419748  -0.000000
    15  O   -0.669493  -0.000000
    16  C    0.506450  -0.000000
    17  C   -0.250152  -0.000000
    18  H    0.286488  -0.000000
    19  H    0.172314   0.000000
    20  H    0.151644   0.000000
    21  H    0.144779   0.000000
    22  H    0.154118  -0.000000
    23  H    0.155467   0.000000
    24  H    0.142218   0.000000
    25  H    0.159322   0.000000
 Sum of Mulliken charges =  -2.00000   0.00000
 Mulliken charges and spin densities with hydrogens summed into heavy atoms:
               1          2
     1  O   -0.045588  -0.000000
     2  C   -0.601638   0.000000
     3  C    0.161380   0.000000
     4  C    0.098777  -0.000000
     5  C    0.047101   0.000000
     6  C   -0.445979  -0.000000
     7  O   -0.644871  -0.000000
     8  C    0.175727   0.000000
     9  C    0.178427  -0.000000
    10  C   -0.349026  -0.000000
    11  C   -0.338764   0.000000
    12  C    0.104278  -0.000000
    13  C    0.333797   0.000000
    14  C   -0.419748  -0.000000
    15  O   -0.669493  -0.000000
    16  C    0.506450  -0.000000
    17  C   -0.090830  -0.000000
 Electronic spatial extent (au):  <R**2>=           4108.2430
 Charge=             -2.0000 electrons
 Dipole moment (field-independent basis, Debye):
    X=              3.7698    Y=              1.8269    Z=              0.7627  Tot=              4.2580
 Quadrupole moment (field-independent basis, Debye-Ang):
   XX=           -123.5214   YY=           -161.7878   ZZ=           -110.8502
   XY=             12.9699   XZ=              3.9972   YZ=             -0.2522
 Traceless Quadrupole moment (field-independent basis, Debye-Ang):
   XX=              8.5317   YY=            -29.7346   ZZ=             21.2029
   XY=             12.9699   XZ=              3.9972   YZ=             -0.2522
 Octapole moment (field-independent basis, Debye-Ang**2):
  XXX=             79.1821  YYY=             -5.8579  ZZZ=              0.4070  XYY=             19.1772
  XXY=             40.6416  XXZ=             21.8967  XZZ=             14.5351  YZZ=             -1.1458
  YYZ=              0.4590  XYZ=             -1.3147
 Hexadecapole moment (field-independent basis, Debye-Ang**3):
 XXXX=          -4059.3044 YYYY=          -1992.8404 ZZZZ=           -141.7084 XXXY=            192.3118
 XXXZ=            120.1004 YYYX=             52.3868 YYYZ=             -0.2283 ZZZX=              2.8649
 ZZZY=             -0.1004 XXYY=          -1003.3552 XXZZ=           -796.6379 YYZZ=           -295.2171
 XXYZ=             -6.8376 YYXZ=              0.0178 ZZXY=            -11.3155
 N-N= 1.082166827685D+03 E-N=-3.984300604795D+03  KE= 7.612476565277D+02
                          Isotropic Fermi Contact Couplings
        Atom                 a.u.       MegaHertz       Gauss      10(-4) cm-1
     1  O(17)             -0.00000       0.00000       0.00000       0.00000
     2  C(13)             -0.00000      -0.00000      -0.00000      -0.00000
     3  C(13)              0.00000       0.00000       0.00000       0.00000
     4  C(13)              0.00000       0.00000       0.00000       0.00000
     5  C(13)              0.00000       0.00000       0.00000       0.00000
     6  C(13)             -0.00000      -0.00000      -0.00000      -0.00000
     7  O(17)              0.00000      -0.00000      -0.00000      -0.00000
     8  C(13)             -0.00000      -0.00000      -0.00000      -0.00000
     9  C(13)              0.00000       0.00000       0.00000       0.00000
    10  C(13)             -0.00000      -0.00000      -0.00000      -0.00000
    11  C(13)              0.00000       0.00000       0.00000       0.00000
    12  C(13)             -0.00000      -0.00000      -0.00000      -0.00000
    13  C(13)             -0.00000      -0.00000      -0.00000      -0.00000
    14  C(13)             -0.00000      -0.00000      -0.00000      -0.00000
    15  O(17)             -0.00000       0.00000       0.00000       0.00000
    16  C(13)             -0.00000      -0.00000      -0.00000      -0.00000
    17  C(13)              0.00000       0.00000       0.00000       0.00000
    18  H(1)              -0.00000      -0.00000      -0.00000      -0.00000
    19  H(1)              -0.00000      -0.00000      -0.00000      -0.00000
    20  H(1)               0.00000       0.00000       0.00000       0.00000
    21  H(1)               0.00000       0.00000       0.00000       0.00000
    22  H(1)              -0.00000      -0.00000      -0.00000      -0.00000
    23  H(1)              -0.00000      -0.00000      -0.00000      -0.00000
    24  H(1)               0.00000       0.00000       0.00000       0.00000
    25  H(1)               0.00000       0.00000       0.00000       0.00000
 --------------------------------------------------------
       Center         ----  Spin Dipole Couplings  ----
                      3XX-RR        3YY-RR        3ZZ-RR
 --------------------------------------------------------
     1   Atom       -0.000000     -0.000000      0.000000
     2   Atom        0.000000     -0.000000      0.000000
     3   Atom        0.000000      0.000000     -0.000000
     4   Atom       -0.000000      0.000000     -0.000000
     5   Atom       -0.000000      0.000000      0.000000
     6   Atom       -0.000000      0.000000     -0.000000
     7   Atom        0.000000     -0.000000     -0.000000
     8   Atom       -0.000000      0.000000     -0.000000
     9   Atom       -0.000000     -0.000000      0.000000
    10   Atom        0.000000     -0.000000      0.000000
    11   Atom        0.000000     -0.000000      0.000000
    12   Atom        0.000000     -0.000000      0.000000
    13   Atom       -0.000000      0.000000      0.000000
    14   Atom        0.000000     -0.000000     -0.000000
    15   Atom       -0.000000      0.000000      0.000000
    16   Atom        0.000000     -0.000000     -0.000000
    17   Atom        0.000000     -0.000000     -0.000000
    18   Atom        0.000000      0.000000     -0.000000
    19   Atom       -0.000000     -0.000000      0.000000
    20   Atom       -0.000000      0.000000     -0.000000
    21   Atom       -0.000000     -0.000000      0.000000
    22   Atom       -0.000000      0.000000      0.000000
    23   Atom        0.000000      0.000000     -0.000000
    24   Atom       -0.000000      0.000000     -0.000000
    25   Atom        0.000000      0.000000     -0.000000
 --------------------------------------------------------
                        XY            XZ            YZ
 --------------------------------------------------------
     1   Atom        0.000000     -0.000000     -0.000000
     2   Atom        0.000000      0.000000     -0.000000
     3   Atom        0.000000     -0.000000      0.000000
     4   Atom       -0.000000     -0.000000     -0.000000
     5   Atom        0.000000      0.000000      0.000000
     6   Atom       -0.000000      0.000000      0.000000
     7   Atom        0.000000      0.000000     -0.000000
     8   Atom       -0.000000      0.000000      0.000000
     9   Atom       -0.000000      0.000000     -0.000000
    10   Atom       -0.000000     -0.000000     -0.000000
    11   Atom        0.000000      0.000000      0.000000
    12   Atom       -0.000000     -0.000000     -0.000000
    13   Atom        0.000000      0.000000     -0.000000
    14   Atom       -0.000000     -0.000000     -0.000000
    15   Atom        0.000000      0.000000      0.000000
    16   Atom       -0.000000     -0.000000      0.000000
    17   Atom        0.000000      0.000000      0.000000
    18   Atom        0.000000      0.000000      0.000000
    19   Atom       -0.000000      0.000000     -0.000000
    20   Atom       -0.000000      0.000000     -0.000000
    21   Atom       -0.000000     -0.000000     -0.000000
    22   Atom       -0.000000      0.000000     -0.000000
    23   Atom        0.000000     -0.000000      0.000000
    24   Atom       -0.000000      0.000000     -0.000000
    25   Atom       -0.000000      0.000000      0.000000
 --------------------------------------------------------


 ---------------------------------------------------------------------------------
              Anisotropic Spin Dipole Couplings in Principal Axis System
 ---------------------------------------------------------------------------------

       Atom             a.u.   MegaHertz   Gauss  10(-4) cm-1        Axes

              Baa    -0.0000     0.000     0.000     0.000 -0.6191  0.7811 -0.0817
     1 O(17)  Bbb     0.0000    -0.000    -0.000    -0.000  0.5687  0.5176  0.6393
              Bcc     0.0000    -0.000    -0.000    -0.000 -0.5416 -0.3494  0.7646
 
              Baa    -0.0000    -0.000    -0.000    -0.000 -0.3561  0.9123  0.2025
     2 C(13)  Bbb     0.0000     0.000     0.000     0.000 -0.0222 -0.2249  0.9741
              Bcc     0.0000     0.000     0.000     0.000  0.9342  0.3424  0.1003
 
              Baa    -0.0000    -0.000    -0.000    -0.000  0.2281 -0.3198  0.9196
     3 C(13)  Bbb    -0.0000    -0.000    -0.000    -0.000 -0.5465  0.7397  0.3928
              Bcc     0.0000     0.000     0.000     0.000  0.8058  0.5922  0.0060
 
              Baa    -0.0000    -0.000    -0.000    -0.000  0.8613  0.1233  0.4928
     4 C(13)  Bbb    -0.0000    -0.000    -0.000    -0.000 -0.4961 -0.0043  0.8682
              Bcc     0.0000     0.000     0.000     0.000 -0.1092  0.9924 -0.0574
 
              Baa    -0.0000    -0.000    -0.000    -0.000  0.9228 -0.3790 -0.0697
     5 C(13)  Bbb     0.0000     0.000     0.000     0.000  0.0373 -0.0921  0.9951
              Bcc     0.0000     0.000     0.000     0.000  0.3835  0.9208  0.0708
 
              Baa    -0.0000    -0.000    -0.000    -0.000  0.8936  0.1027 -0.4370
     6 C(13)  Bbb     0.0000     0.000     0.000     0.000  0.4271  0.1051  0.8981
              Bcc     0.0000     0.000     0.000     0.000 -0.1382  0.9891 -0.0500
 
              Baa    -0.0000     0.000     0.000     0.000 -0.1630  0.7999  0.5776
     7 O(17)  Bbb    -0.0000     0.000     0.000     0.000  0.0460 -0.5786  0.8143
              Bcc     0.0000    -0.000    -0.000    -0.000  0.9855  0.1593  0.0576
 
              Baa    -0.0000    -0.000    -0.000    -0.000  0.7916  0.5761 -0.2039
     8 C(13)  Bbb    -0.0000    -0.000    -0.000    -0.000  0.1670  0.1170  0.9790
              Bcc     0.0000     0.000     0.000     0.000 -0.5878  0.8090  0.0035
 
              Baa    -0.0000    -0.000    -0.000    -0.000  0.8469  0.4269 -0.3169
     9 C(13)  Bbb    -0.0000    -0.000    -0.000    -0.000 -0.2811  0.8655  0.4147
              Bcc     0.0000     0.000     0.000     0.000  0.4513 -0.2621  0.8530
 
              Baa    -0.0000    -0.000    -0.000    -0.000  0.0543  0.9790  0.1963
    10 C(13)  Bbb     0.0000     0.000     0.000     0.000  0.4205 -0.2007  0.8848
              Bcc     0.0000     0.000     0.000     0.000  0.9057  0.0345 -0.4225
 
              Baa    -0.0000    -0.000    -0.000    -0.000 -0.6113  0.7877 -0.0765
    11 C(13)  Bbb     0.0000     0.000     0.000     0.000 -0.2365 -0.0895  0.9675
              Bcc     0.0000     0.000     0.000     0.000  0.7553  0.6095  0.2410
 
              Baa    -0.0000    -0.000    -0.000    -0.000  0.4682  0.8552  0.2224
    12 C(13)  Bbb     0.0000     0.000     0.000     0.000  0.5307 -0.4734  0.7030
              Bcc     0.0000     0.000     0.000     0.000  0.7065 -0.2111 -0.6755
 
              Baa    -0.0000    -0.000    -0.000    -0.000  0.9407 -0.2107 -0.2659
    13 C(13)  Bbb    -0.0000    -0.000    -0.000    -0.000  0.3320  0.7324  0.5944
              Bcc     0.0000     0.000     0.000     0.000  0.0695 -0.6474  0.7590
 
              Baa    -0.0000    -0.000    -0.000    -0.000  0.1175  0.5116  0.8511
    14 C(13)  Bbb    -0.0000    -0.000    -0.000    -0.000  0.0717  0.8505 -0.5211
              Bcc     0.0000     0.000     0.000     0.000  0.9905 -0.1222 -0.0632
 
              Baa    -0.0000     0.000     0.000     0.000  0.8300 -0.5017 -0.2436
    15 O(17)  Bbb     0.0000    -0.000    -0.000    -0.000  0.0163 -0.4147  0.9098
              Bcc     0.0000    -0.000    -0.000    -0.000  0.5575  0.7592  0.3361
 
              Baa    -0.0000    -0.000    -0.000    -0.000  0.0587  0.9291 -0.3653
    16 C(13)  Bbb    -0.0000    -0.000    -0.000    -0.000  0.1539  0.3531  0.9228
              Bcc     0.0000     0.000     0.000     0.000  0.9863 -0.1104 -0.1223
 
              Baa    -0.0000    -0.000    -0.000    -0.000 -0.1831  0.0034  0.9831
    17 C(13)  Bbb    -0.0000    -0.000    -0.000    -0.000 -0.2276  0.9727 -0.0458
              Bcc     0.0000     0.000     0.000     0.000  0.9564  0.2321  0.1773
 
              Baa    -0.0000    -0.000    -0.000    -0.000 -0.1941 -0.4678  0.8622
    18 H(1)   Bbb     0.0000     0.000     0.000     0.000 -0.5205  0.7941  0.3137
              Bcc     0.0000     0.000     0.000     0.000  0.8315  0.3879  0.3976
 
              Baa    -0.0000    -0.000    -0.000    -0.000  0.7353  0.6463 -0.2043
    19 H(1)   Bbb     0.0000     0.000     0.000     0.000 -0.5399  0.7406  0.4000
              Bcc     0.0000     0.000     0.000     0.000  0.4098 -0.1838  0.8935
 
              Baa    -0.0000    -0.000    -0.000    -0.000 -0.0013  0.0308  0.9995
    20 H(1)   Bbb    -0.0000    -0.000    -0.000    -0.000  0.9775  0.2110 -0.0052
              Bcc     0.0000     0.000     0.000     0.000 -0.2111  0.9770 -0.0304
 
              Baa    -0.0000    -0.000    -0.000    -0.000  0.4031  0.7949  0.4535
    21 H(1)   Bbb    -0.0000    -0.000    -0.000    -0.000  0.9129 -0.3839 -0.1386
              Bcc     0.0000     0.000     0.000     0.000 -0.0639 -0.4699  0.8804
 
              Baa    -0.0000    -0.000    -0.000    -0.000  0.9275  0.3561 -0.1134
    22 H(1)   Bbb     0.0000     0.000     0.000     0.000 -0.2972  0.8869  0.3537
              Bcc     0.0000     0.000     0.000     0.000  0.2266 -0.2944  0.9284
 
              Baa    -0.0000    -0.000    -0.000    -0.000  0.7546 -0.6547  0.0442
    23 H(1)   Bbb    -0.0000    -0.000    -0.000    -0.000 -0.0271  0.0361  0.9990
              Bcc     0.0000     0.000     0.000     0.000  0.6556  0.7550 -0.0095
 
              Baa    -0.0000    -0.000    -0.000    -0.000 -0.1640  0.1738  0.9710
    24 H(1)   Bbb    -0.0000    -0.000    -0.000    -0.000  0.9796  0.1442  0.1396
              Bcc     0.0000     0.000     0.000     0.000 -0.1158  0.9742 -0.1940
 
              Baa    -0.0000    -0.000    -0.000    -0.000 -0.1670 -0.1317  0.9771
    25 H(1)   Bbb    -0.0000    -0.000    -0.000    -0.000  0.7162  0.6649  0.2121
              Bcc     0.0000     0.000     0.000     0.000 -0.6776  0.7353 -0.0167
 

 ---------------------------------------------------------------------------------

 No NMR shielding tensors so no spin-rotation constants.
 Leave Link  601 at Sun Jan 14 01:34:55 2024, MaxMem=  4026531840 cpu:               6.5 elap:               1.0
 (Enter /sysapps/ubuntu-applications/gaussian/Gaussian/AVX2/g16/l9999.exe)
 1\1\GINC-ACIDSCN010\SP\UB3LYP\6-311++G(d,p)\C14H8O3(2-)\SELHAJJ1\14-Ja
 n-2024\0\\#P UB3LYP/6-311++G(d,p) SCRF=(PCM,Solvent=n,n-DiMethylFormam
 ide)\\Reduced\\-2,1\O,0,-4.607197,-0.852204,1.196263\C,0,-3.407001,-0.
 343884,0.690471\C,0,-3.412051,0.850316,-0.077832\C,0,-2.21734,1.335154
 ,-0.573245\C,0,-0.978712,0.706482,-0.314057\C,0,0.238532,1.297081,-0.8
 47388\O,0,0.237872,2.373047,-1.539796\C,0,1.451237,0.564464,-0.538497\
 C,0,2.694918,1.049831,-1.011504\C,0,3.886884,0.403705,-0.750286\C,0,3.
 879466,-0.792012,0.022657\C,0,2.68486,-1.29062,0.499449\C,0,1.441776,-
 0.653843,0.246604\C,0,0.228083,-1.235889,0.784251\O,0,0.230016,-2.3109
 02,1.485005\C,0,-0.983598,-0.507475,0.471054\C,0,-2.231588,-1.005715,0
 .940347\H,0,-5.328723,-0.536265,0.631438\H,0,-4.348344,1.376408,-0.255
 372\H,0,-2.187706,2.24262,-1.167894\H,0,2.665364,1.964327,-1.596268\H,
 0,4.825053,0.803986,-1.130612\H,0,4.813547,-1.309578,0.235473\H,0,2.64
 734,-2.199672,1.091885\H,0,-2.22269,-1.92936,1.507854\\Version=ES64L-G
 16RevA.03\State=1-A\HF=-764.437879\S2=0.\S2-1=0.\S2A=0.\RMSD=3.962e-09
 \Dipole=-1.5665886,0.4144743,-0.4247221\Quadrupole=8.59629,-11.1839471
 ,2.5876571,-3.6733344,6.7931098,18.1135405\PG=C01 [X(C14H8O3)]\\@


 REVOLUTIONS HAVE NEVER LIGHTENED THE BURDEN OF TYRANNY:
 THEY HAVE MERELY SHIFTED IT TO OTHER SHOULDERS.
                                   -- G. B. SHAW (1903)
 Job cpu time:       0 days  0 hours 39 minutes 27.6 seconds.
 Elapsed time:       0 days  0 hours  5 minutes 13.3 seconds.
 File lengths (MBytes):  RWF=    256 Int=      0 D2E=      0 Chk=     15 Scr=      1
 Normal termination of Gaussian 16 at Sun Jan 14 01:34:55 2024.
