 Entering Gaussian System, Link 0=g16
 Input=328.com
 Output=328.log
 Initial command:
 /sysapps/ubuntu-applications/gaussian/Gaussian/AVX2/g16/l1.exe "/scratch/selhajj1/4408488/Gau-2496705.inp" -scrdir="/scratch/selhajj1/4408488/"
 Entering Link 1 = /sysapps/ubuntu-applications/gaussian/Gaussian/AVX2/g16/l1.exe PID=   2496717.
  
 Copyright (c) 1988,1990,1992,1993,1995,1998,2003,2009,2016,
            Gaussian, Inc.  All Rights Reserved.
  
 This is part of the Gaussian(R) 16 program.  It is based on
 the Gaussian(R) 09 system (copyright 2009, Gaussian, Inc.),
 the Gaussian(R) 03 system (copyright 2003, Gaussian, Inc.),
 the Gaussian(R) 98 system (copyright 1998, Gaussian, Inc.),
 the Gaussian(R) 94 system (copyright 1995, Gaussian, Inc.),
 the Gaussian 92(TM) system (copyright 1992, Gaussian, Inc.),
 the Gaussian 90(TM) system (copyright 1990, Gaussian, Inc.),
 the Gaussian 88(TM) system (copyright 1988, Gaussian, Inc.),
 the Gaussian 86(TM) system (copyright 1986, Carnegie Mellon
 University), and the Gaussian 82(TM) system (copyright 1983,
 Carnegie Mellon University). Gaussian is a federally registered
 trademark of Gaussian, Inc.
  
 This software contains proprietary and confidential information,
 including trade secrets, belonging to Gaussian, Inc.
  
 This software is provided under written license and may be
 used, copied, transmitted, or stored only in accord with that
 written license.
  
 The following legend is applicable only to US Government
 contracts under FAR:
  
                    RESTRICTED RIGHTS LEGEND
  
 Use, reproduction and disclosure by the US Government is
 subject to restrictions as set forth in subparagraphs (a)
 and (c) of the Commercial Computer Software - Restricted
 Rights clause in FAR 52.227-19.
  
 Gaussian, Inc.
 340 Quinnipiac St., Bldg. 40, Wallingford CT 06492
  
  
 ---------------------------------------------------------------
 Warning -- This program may not be used in any manner that
 competes with the business of Gaussian, Inc. or will provide
 assistance to any competitor of Gaussian, Inc.  The licensee
 of this program is prohibited from giving any competitor of
 Gaussian, Inc. access to this program.  By using this program,
 the user acknowledges that Gaussian, Inc. is engaged in the
 business of creating and licensing software in the field of
 computational chemistry and represents and warrants to the
 licensee that it is not a competitor of Gaussian, Inc. and that
 it will not use this program in any manner prohibited above.
 ---------------------------------------------------------------
  

 Cite this work as:
 Gaussian 16, Revision A.03,
 M. J. Frisch, G. W. Trucks, H. B. Schlegel, G. E. Scuseria, 
 M. A. Robb, J. R. Cheeseman, G. Scalmani, V. Barone, 
 G. A. Petersson, H. Nakatsuji, X. Li, M. Caricato, A. V. Marenich, 
 J. Bloino, B. G. Janesko, R. Gomperts, B. Mennucci, H. P. Hratchian, 
 J. V. Ortiz, A. F. Izmaylov, J. L. Sonnenberg, D. Williams-Young, 
 F. Ding, F. Lipparini, F. Egidi, J. Goings, B. Peng, A. Petrone, 
 T. Henderson, D. Ranasinghe, V. G. Zakrzewski, J. Gao, N. Rega, 
 G. Zheng, W. Liang, M. Hada, M. Ehara, K. Toyota, R. Fukuda, 
 J. Hasegawa, M. Ishida, T. Nakajima, Y. Honda, O. Kitao, H. Nakai, 
 T. Vreven, K. Throssell, J. A. Montgomery, Jr., J. E. Peralta, 
 F. Ogliaro, M. J. Bearpark, J. J. Heyd, E. N. Brothers, K. N. Kudin, 
 V. N. Staroverov, T. A. Keith, R. Kobayashi, J. Normand, 
 K. Raghavachari, A. P. Rendell, J. C. Burant, S. S. Iyengar, 
 J. Tomasi, M. Cossi, J. M. Millam, M. Klene, C. Adamo, R. Cammi, 
 J. W. Ochterski, R. L. Martin, K. Morokuma, O. Farkas, 
 J. B. Foresman, and D. J. Fox, Gaussian, Inc., Wallingford CT, 2016.
 
 ******************************************
 Gaussian 16:  ES64L-G16RevA.03 25-Dec-2016
                11-Feb-2024 
 ******************************************
 %chk=328.chk
 %nproc=8
 Will use up to    8 processors via shared memory.
 %mem=30GB
 ----------------------------------------------------------------------
 #P UB3LYP/6-311++G(d,p) nosym opt freq SCRF=(PCM,Solvent=n,n-DiMethylF
 ormamide)
 ----------------------------------------------------------------------
 1/18=20,19=15,26=3,38=1/1,3;
 2/9=110,12=2,15=1,17=6,18=5,40=1/2;
 3/5=4,6=6,7=1111,11=2,25=1,30=1,70=2201,71=1,72=148,74=-5,116=2/1,2,3;
 4//1;
 5/5=2,38=5,53=148/2;
 6/7=2,8=2,9=2,10=2,28=1/1;
 7/30=1/1,2,3,16;
 1/18=20,19=15,26=3/3(2);
 2/9=110,15=1/2;
 99//99;
 2/9=110,15=1/2;
 3/5=4,6=6,7=1111,11=2,25=1,30=1,70=2205,71=1,72=148,74=-5,116=2/1,2,3;
 4/5=5,16=3,69=1/1;
 5/5=2,38=5,53=148/2;
 7/30=1/1,2,3,16;
 1/18=20,19=15,26=3/3(-5);
 2/9=110,15=1/2;
 6/7=2,8=2,9=2,10=2,19=2,28=1/1;
 99/9=1/99;
 Leave Link    1 at Sun Feb 11 15:02:20 2024, MaxMem=  4026531840 cpu:               0.7 elap:               0.1
 (Enter /sysapps/ubuntu-applications/gaussian/Gaussian/AVX2/g16/l101.exe)
 --------
 Oxidized
 --------
 Symbolic Z-matrix:
 Charge =  0 Multiplicity = 1
 C                    -1.27178   2.4943   -0.81874 
 C                    -2.30841   1.82852  -0.20702 
 C                    -2.10122   0.54668   0.35288 
 C                     0.01645   1.90668  -0.89658 
 C                     0.22677   0.61018  -0.32991 
 C                    -0.86248  -0.04952   0.29324 
 C                     1.10814   2.55878  -1.51873 
 C                     2.35242   1.97411  -1.58601 
 C                     2.56507   0.67801  -1.0178 
 C                     1.51622   0.02398  -0.40806 
 C                     3.46352   2.70589  -2.25579 
 C                     4.84627   1.99927  -2.31416 
 C                     4.95558   0.68515  -1.70288 
 C                     3.90362   0.06953  -1.09832 
 O                     3.32542   3.80489  -2.744 
 O                     5.7801    2.5569   -2.85918 
 H                    -1.42609   3.47747  -1.24986 
 H                    -3.29016   2.28455  -0.15178 
 H                    -2.92709   0.03301   0.83172 
 H                    -0.705    -1.03301   0.72279 
 H                     0.97615   3.54176  -1.95736 
 H                     1.67502  -0.95759   0.01963 
 H                     5.93301   0.22636  -1.76168 
 O                     3.9633   -1.14331  -0.51807 
 C                     5.21487  -1.86167  -0.50413 
 C                     5.0064   -3.13345   0.25411 
 C                     5.27477  -4.33828  -0.2396 
 H                     5.96875  -1.23471  -0.01348 
 H                     5.53578  -2.05936  -1.5313 
 H                     4.63879  -3.02302   1.27089 
 H                     5.63857  -4.47141  -1.25379 
 H                     5.14699  -5.2352    0.35509 
 
 ITRead=  0  0  0  0  0  0  0  0  0  0  0  0  0  0  0  0  0  0  0  0
 ITRead=  0  0  0  0  0  0  0  0  0  0  0  0
 MicOpt= -1 -1 -1 -1 -1 -1 -1 -1 -1 -1 -1 -1 -1 -1 -1 -1 -1 -1 -1 -1
 MicOpt= -1 -1 -1 -1 -1 -1 -1 -1 -1 -1 -1 -1
 NAtoms=     32 NQM=       32 NQMF=       0 NMMI=      0 NMMIF=      0
                NMic=       0 NMicF=      0.
                    Isotopes and Nuclear Properties:
 (Nuclear quadrupole moments (NQMom) in fm**2, nuclear magnetic moments (NMagM)
  in nuclear magnetons)

  Atom         1           2           3           4           5           6           7           8           9          10
 IAtWgt=          12          12          12          12          12          12          12          12          12          12
 AtmWgt=  12.0000000  12.0000000  12.0000000  12.0000000  12.0000000  12.0000000  12.0000000  12.0000000  12.0000000  12.0000000
 NucSpn=           0           0           0           0           0           0           0           0           0           0
 AtZEff=  -0.0000000  -0.0000000  -0.0000000  -0.0000000  -0.0000000  -0.0000000  -0.0000000  -0.0000000  -0.0000000  -0.0000000
 NQMom=    0.0000000   0.0000000   0.0000000   0.0000000   0.0000000   0.0000000   0.0000000   0.0000000   0.0000000   0.0000000
 NMagM=    0.0000000   0.0000000   0.0000000   0.0000000   0.0000000   0.0000000   0.0000000   0.0000000   0.0000000   0.0000000
 AtZNuc=   6.0000000   6.0000000   6.0000000   6.0000000   6.0000000   6.0000000   6.0000000   6.0000000   6.0000000   6.0000000

  Atom        11          12          13          14          15          16          17          18          19          20
 IAtWgt=          12          12          12          12          16          16           1           1           1           1
 AtmWgt=  12.0000000  12.0000000  12.0000000  12.0000000  15.9949146  15.9949146   1.0078250   1.0078250   1.0078250   1.0078250
 NucSpn=           0           0           0           0           0           0           1           1           1           1
 AtZEff=  -0.0000000  -0.0000000  -0.0000000  -0.0000000  -0.0000000  -0.0000000  -0.0000000  -0.0000000  -0.0000000  -0.0000000
 NQMom=    0.0000000   0.0000000   0.0000000   0.0000000   0.0000000   0.0000000   0.0000000   0.0000000   0.0000000   0.0000000
 NMagM=    0.0000000   0.0000000   0.0000000   0.0000000   0.0000000   0.0000000   2.7928460   2.7928460   2.7928460   2.7928460
 AtZNuc=   6.0000000   6.0000000   6.0000000   6.0000000   8.0000000   8.0000000   1.0000000   1.0000000   1.0000000   1.0000000

  Atom        21          22          23          24          25          26          27          28          29          30
 IAtWgt=           1           1           1          16          12          12          12           1           1           1
 AtmWgt=   1.0078250   1.0078250   1.0078250  15.9949146  12.0000000  12.0000000  12.0000000   1.0078250   1.0078250   1.0078250
 NucSpn=           1           1           1           0           0           0           0           1           1           1
 AtZEff=  -0.0000000  -0.0000000  -0.0000000  -0.0000000  -0.0000000  -0.0000000  -0.0000000  -0.0000000  -0.0000000  -0.0000000
 NQMom=    0.0000000   0.0000000   0.0000000   0.0000000   0.0000000   0.0000000   0.0000000   0.0000000   0.0000000   0.0000000
 NMagM=    2.7928460   2.7928460   2.7928460   0.0000000   0.0000000   0.0000000   0.0000000   2.7928460   2.7928460   2.7928460
 AtZNuc=   1.0000000   1.0000000   1.0000000   8.0000000   6.0000000   6.0000000   6.0000000   1.0000000   1.0000000   1.0000000

  Atom        31          32
 IAtWgt=           1           1
 AtmWgt=   1.0078250   1.0078250
 NucSpn=           1           1
 AtZEff=  -0.0000000  -0.0000000
 NQMom=    0.0000000   0.0000000
 NMagM=    2.7928460   2.7928460
 AtZNuc=   1.0000000   1.0000000
 Leave Link  101 at Sun Feb 11 15:02:21 2024, MaxMem=  4026531840 cpu:               3.9 elap:               0.9
 (Enter /sysapps/ubuntu-applications/gaussian/Gaussian/AVX2/g16/l103.exe)

 GradGradGradGradGradGradGradGradGradGradGradGradGradGradGradGradGradGrad
 Berny optimization.
 Initialization pass.
                           ----------------------------
                           !    Initial Parameters    !
                           ! (Angstroms and Degrees)  !
 --------------------------                            --------------------------
 ! Name  Definition              Value          Derivative Info.                !
 --------------------------------------------------------------------------------
 ! R1    R(1,2)                  1.3755         estimate D2E/DX2                !
 ! R2    R(1,4)                  1.4181         estimate D2E/DX2                !
 ! R3    R(1,17)                 1.0846         estimate D2E/DX2                !
 ! R4    R(2,3)                  1.414          estimate D2E/DX2                !
 ! R5    R(2,18)                 1.0839         estimate D2E/DX2                !
 ! R6    R(3,6)                  1.376          estimate D2E/DX2                !
 ! R7    R(3,19)                 1.0841         estimate D2E/DX2                !
 ! R8    R(4,5)                  1.4305         estimate D2E/DX2                !
 ! R9    R(4,7)                  1.4157         estimate D2E/DX2                !
 ! R10   R(5,6)                  1.4177         estimate D2E/DX2                !
 ! R11   R(5,10)                 1.4186         estimate D2E/DX2                !
 ! R12   R(6,20)                 1.0847         estimate D2E/DX2                !
 ! R13   R(7,8)                  1.3764         estimate D2E/DX2                !
 ! R14   R(7,21)                 1.0845         estimate D2E/DX2                !
 ! R15   R(8,9)                  1.4311         estimate D2E/DX2                !
 ! R16   R(8,11)                 1.4895         estimate D2E/DX2                !
 ! R17   R(9,10)                 1.3783         estimate D2E/DX2                !
 ! R18   R(9,14)                 1.4726         estimate D2E/DX2                !
 ! R19   R(10,22)                1.0824         estimate D2E/DX2                !
 ! R20   R(11,12)                1.5539         estimate D2E/DX2                !
 ! R21   R(11,15)                1.2105         estimate D2E/DX2                !
 ! R22   R(12,13)                1.4535         estimate D2E/DX2                !
 ! R23   R(12,16)                1.2166         estimate D2E/DX2                !
 ! R24   R(13,14)                1.3606         estimate D2E/DX2                !
 ! R25   R(13,23)                1.0813         estimate D2E/DX2                !
 ! R26   R(14,24)                1.3458         estimate D2E/DX2                !
 ! R27   R(24,25)                1.4431         estimate D2E/DX2                !
 ! R28   R(25,26)                1.4953         estimate D2E/DX2                !
 ! R29   R(25,28)                1.0964         estimate D2E/DX2                !
 ! R30   R(25,29)                1.0941         estimate D2E/DX2                !
 ! R31   R(26,27)                1.3294         estimate D2E/DX2                !
 ! R32   R(26,30)                1.0868         estimate D2E/DX2                !
 ! R33   R(27,31)                1.0857         estimate D2E/DX2                !
 ! R34   R(27,32)                1.0837         estimate D2E/DX2                !
 ! A1    A(2,1,4)              120.562          estimate D2E/DX2                !
 ! A2    A(2,1,17)             120.552          estimate D2E/DX2                !
 ! A3    A(4,1,17)             118.886          estimate D2E/DX2                !
 ! A4    A(1,2,3)              120.2934         estimate D2E/DX2                !
 ! A5    A(1,2,18)             120.1071         estimate D2E/DX2                !
 ! A6    A(3,2,18)             119.5994         estimate D2E/DX2                !
 ! A7    A(2,3,6)              120.4979         estimate D2E/DX2                !
 ! A8    A(2,3,19)             119.5252         estimate D2E/DX2                !
 ! A9    A(6,3,19)             119.9769         estimate D2E/DX2                !
 ! A10   A(1,4,5)              119.1694         estimate D2E/DX2                !
 ! A11   A(1,4,7)              122.2624         estimate D2E/DX2                !
 ! A12   A(5,4,7)              118.5682         estimate D2E/DX2                !
 ! A13   A(4,5,6)              118.8746         estimate D2E/DX2                !
 ! A14   A(4,5,10)             119.1003         estimate D2E/DX2                !
 ! A15   A(6,5,10)             122.0251         estimate D2E/DX2                !
 ! A16   A(3,6,5)              120.6027         estimate D2E/DX2                !
 ! A17   A(3,6,20)             120.4231         estimate D2E/DX2                !
 ! A18   A(5,6,20)             118.9742         estimate D2E/DX2                !
 ! A19   A(4,7,8)              121.5287         estimate D2E/DX2                !
 ! A20   A(4,7,21)             120.0939         estimate D2E/DX2                !
 ! A21   A(8,7,21)             118.3774         estimate D2E/DX2                !
 ! A22   A(7,8,9)              119.9758         estimate D2E/DX2                !
 ! A23   A(7,8,11)             119.1839         estimate D2E/DX2                !
 ! A24   A(9,8,11)             120.8402         estimate D2E/DX2                !
 ! A25   A(8,9,10)             119.4952         estimate D2E/DX2                !
 ! A26   A(8,9,14)             119.1834         estimate D2E/DX2                !
 ! A27   A(10,9,14)            121.3214         estimate D2E/DX2                !
 ! A28   A(5,10,9)             121.3317         estimate D2E/DX2                !
 ! A29   A(5,10,22)            119.0986         estimate D2E/DX2                !
 ! A30   A(9,10,22)            119.5696         estimate D2E/DX2                !
 ! A31   A(8,11,12)            117.2104         estimate D2E/DX2                !
 ! A32   A(8,11,15)            122.8408         estimate D2E/DX2                !
 ! A33   A(12,11,15)           119.9487         estimate D2E/DX2                !
 ! A34   A(11,12,13)           117.5331         estimate D2E/DX2                !
 ! A35   A(11,12,16)           119.4346         estimate D2E/DX2                !
 ! A36   A(13,12,16)           123.0323         estimate D2E/DX2                !
 ! A37   A(12,13,14)           122.5362         estimate D2E/DX2                !
 ! A38   A(12,13,23)           115.3863         estimate D2E/DX2                !
 ! A39   A(14,13,23)           122.0775         estimate D2E/DX2                !
 ! A40   A(9,14,13)            122.6937         estimate D2E/DX2                !
 ! A41   A(9,14,24)            112.8996         estimate D2E/DX2                !
 ! A42   A(13,14,24)           124.4065         estimate D2E/DX2                !
 ! A43   A(14,24,25)           119.4204         estimate D2E/DX2                !
 ! A44   A(24,25,26)           107.9006         estimate D2E/DX2                !
 ! A45   A(24,25,28)           108.4205         estimate D2E/DX2                !
 ! A46   A(24,25,29)           109.5866         estimate D2E/DX2                !
 ! A47   A(26,25,28)           110.8118         estimate D2E/DX2                !
 ! A48   A(26,25,29)           111.3013         estimate D2E/DX2                !
 ! A49   A(28,25,29)           108.769          estimate D2E/DX2                !
 ! A50   A(25,26,27)           123.6666         estimate D2E/DX2                !
 ! A51   A(25,26,30)           115.795          estimate D2E/DX2                !
 ! A52   A(27,26,30)           120.5175         estimate D2E/DX2                !
 ! A53   A(26,27,31)           121.7153         estimate D2E/DX2                !
 ! A54   A(26,27,32)           121.4979         estimate D2E/DX2                !
 ! A55   A(31,27,32)           116.7854         estimate D2E/DX2                !
 ! D1    D(4,1,2,3)             -0.0058         estimate D2E/DX2                !
 ! D2    D(4,1,2,18)          -179.9937         estimate D2E/DX2                !
 ! D3    D(17,1,2,3)           179.9791         estimate D2E/DX2                !
 ! D4    D(17,1,2,18)           -0.0088         estimate D2E/DX2                !
 ! D5    D(2,1,4,5)             -0.0173         estimate D2E/DX2                !
 ! D6    D(2,1,4,7)            179.9329         estimate D2E/DX2                !
 ! D7    D(17,1,4,5)           179.9976         estimate D2E/DX2                !
 ! D8    D(17,1,4,7)            -0.0522         estimate D2E/DX2                !
 ! D9    D(1,2,3,6)              0.014          estimate D2E/DX2                !
 ! D10   D(1,2,3,19)          -179.9769         estimate D2E/DX2                !
 ! D11   D(18,2,3,6)          -179.9982         estimate D2E/DX2                !
 ! D12   D(18,2,3,19)            0.0109         estimate D2E/DX2                !
 ! D13   D(2,3,6,5)              0.0017         estimate D2E/DX2                !
 ! D14   D(2,3,6,20)          -179.9757         estimate D2E/DX2                !
 ! D15   D(19,3,6,5)           179.9925         estimate D2E/DX2                !
 ! D16   D(19,3,6,20)            0.0151         estimate D2E/DX2                !
 ! D17   D(1,4,5,6)              0.0321         estimate D2E/DX2                !
 ! D18   D(1,4,5,10)          -179.9712         estimate D2E/DX2                !
 ! D19   D(7,4,5,6)           -179.9199         estimate D2E/DX2                !
 ! D20   D(7,4,5,10)             0.0768         estimate D2E/DX2                !
 ! D21   D(1,4,7,8)           -179.9845         estimate D2E/DX2                !
 ! D22   D(1,4,7,21)            -0.0176         estimate D2E/DX2                !
 ! D23   D(5,4,7,8)             -0.034          estimate D2E/DX2                !
 ! D24   D(5,4,7,21)           179.9329         estimate D2E/DX2                !
 ! D25   D(4,5,6,3)             -0.0246         estimate D2E/DX2                !
 ! D26   D(4,5,6,20)           179.9531         estimate D2E/DX2                !
 ! D27   D(10,5,6,3)           179.9788         estimate D2E/DX2                !
 ! D28   D(10,5,6,20)           -0.0435         estimate D2E/DX2                !
 ! D29   D(4,5,10,9)            -0.0232         estimate D2E/DX2                !
 ! D30   D(4,5,10,22)         -179.9232         estimate D2E/DX2                !
 ! D31   D(6,5,10,9)           179.9734         estimate D2E/DX2                !
 ! D32   D(6,5,10,22)            0.0734         estimate D2E/DX2                !
 ! D33   D(4,7,8,9)             -0.0623         estimate D2E/DX2                !
 ! D34   D(4,7,8,11)           179.8597         estimate D2E/DX2                !
 ! D35   D(21,7,8,9)           179.9702         estimate D2E/DX2                !
 ! D36   D(21,7,8,11)           -0.1078         estimate D2E/DX2                !
 ! D37   D(7,8,9,10)             0.1164         estimate D2E/DX2                !
 ! D38   D(7,8,9,14)          -179.9311         estimate D2E/DX2                !
 ! D39   D(11,8,9,10)         -179.8043         estimate D2E/DX2                !
 ! D40   D(11,8,9,14)            0.1482         estimate D2E/DX2                !
 ! D41   D(7,8,11,12)         -179.5927         estimate D2E/DX2                !
 ! D42   D(7,8,11,15)            0.352          estimate D2E/DX2                !
 ! D43   D(9,8,11,12)            0.3286         estimate D2E/DX2                !
 ! D44   D(9,8,11,15)         -179.7267         estimate D2E/DX2                !
 ! D45   D(8,9,10,5)            -0.073          estimate D2E/DX2                !
 ! D46   D(8,9,10,22)          179.8265         estimate D2E/DX2                !
 ! D47   D(14,9,10,5)          179.9755         estimate D2E/DX2                !
 ! D48   D(14,9,10,22)          -0.125          estimate D2E/DX2                !
 ! D49   D(8,9,14,13)           -0.4985         estimate D2E/DX2                !
 ! D50   D(8,9,14,24)          179.6176         estimate D2E/DX2                !
 ! D51   D(10,9,14,13)         179.4531         estimate D2E/DX2                !
 ! D52   D(10,9,14,24)          -0.4307         estimate D2E/DX2                !
 ! D53   D(8,11,12,13)          -0.4978         estimate D2E/DX2                !
 ! D54   D(8,11,12,16)         179.5463         estimate D2E/DX2                !
 ! D55   D(15,11,12,13)        179.5557         estimate D2E/DX2                !
 ! D56   D(15,11,12,16)         -0.4001         estimate D2E/DX2                !
 ! D57   D(11,12,13,14)          0.1877         estimate D2E/DX2                !
 ! D58   D(11,12,13,23)       -179.8789         estimate D2E/DX2                !
 ! D59   D(16,12,13,14)       -179.8582         estimate D2E/DX2                !
 ! D60   D(16,12,13,23)          0.0753         estimate D2E/DX2                !
 ! D61   D(12,13,14,9)           0.318          estimate D2E/DX2                !
 ! D62   D(12,13,14,24)       -179.8117         estimate D2E/DX2                !
 ! D63   D(23,13,14,9)        -179.6111         estimate D2E/DX2                !
 ! D64   D(23,13,14,24)          0.2593         estimate D2E/DX2                !
 ! D65   D(9,14,24,25)        -179.3793         estimate D2E/DX2                !
 ! D66   D(13,14,24,25)          0.7391         estimate D2E/DX2                !
 ! D67   D(14,24,25,26)        177.32           estimate D2E/DX2                !
 ! D68   D(14,24,25,28)         57.2462         estimate D2E/DX2                !
 ! D69   D(14,24,25,29)        -61.339          estimate D2E/DX2                !
 ! D70   D(24,25,26,27)        124.8185         estimate D2E/DX2                !
 ! D71   D(24,25,26,30)        -56.8399         estimate D2E/DX2                !
 ! D72   D(28,25,26,27)       -116.6256         estimate D2E/DX2                !
 ! D73   D(28,25,26,30)         61.716          estimate D2E/DX2                !
 ! D74   D(29,25,26,27)          4.5496         estimate D2E/DX2                !
 ! D75   D(29,25,26,30)       -177.1088         estimate D2E/DX2                !
 ! D76   D(25,26,27,31)         -2.0058         estimate D2E/DX2                !
 ! D77   D(25,26,27,32)        177.5565         estimate D2E/DX2                !
 ! D78   D(30,26,27,31)        179.7274         estimate D2E/DX2                !
 ! D79   D(30,26,27,32)         -0.7103         estimate D2E/DX2                !
 --------------------------------------------------------------------------------
 Trust Radius=3.00D-01 FncErr=1.00D-07 GrdErr=1.00D-06 EigMax=2.50D+02 EigMin=1.00D-04
 Number of steps in this run=    178 maximum allowed number of steps=    192.
 GradGradGradGradGradGradGradGradGradGradGradGradGradGradGradGradGradGrad

 Leave Link  103 at Sun Feb 11 15:02:21 2024, MaxMem=  4026531840 cpu:               0.3 elap:               0.1
 (Enter /sysapps/ubuntu-applications/gaussian/Gaussian/AVX2/g16/l202.exe)
                          Input orientation:                          
 ---------------------------------------------------------------------
 Center     Atomic      Atomic             Coordinates (Angstroms)
 Number     Number       Type             X           Y           Z
 ---------------------------------------------------------------------
      1          6           0       -1.271778    2.494301   -0.818737
      2          6           0       -2.308411    1.828519   -0.207021
      3          6           0       -2.101219    0.546682    0.352878
      4          6           0        0.016453    1.906682   -0.896575
      5          6           0        0.226771    0.610175   -0.329905
      6          6           0       -0.862475   -0.049518    0.293244
      7          6           0        1.108143    2.558776   -1.518732
      8          6           0        2.352415    1.974106   -1.586006
      9          6           0        2.565073    0.678014   -1.017795
     10          6           0        1.516223    0.023975   -0.408056
     11          6           0        3.463518    2.705891   -2.255789
     12          6           0        4.846272    1.999270   -2.314162
     13          6           0        4.955583    0.685153   -1.702880
     14          6           0        3.903616    0.069530   -1.098321
     15          8           0        3.325419    3.804894   -2.743998
     16          8           0        5.780104    2.556904   -2.859184
     17          1           0       -1.426085    3.477466   -1.249861
     18          1           0       -3.290155    2.284553   -0.151783
     19          1           0       -2.927090    0.033007    0.831716
     20          1           0       -0.704995   -1.033006    0.722789
     21          1           0        0.976149    3.541763   -1.957362
     22          1           0        1.675023   -0.957585    0.019626
     23          1           0        5.933006    0.226357   -1.761682
     24          8           0        3.963298   -1.143309   -0.518068
     25          6           0        5.214869   -1.861672   -0.504126
     26          6           0        5.006404   -3.133448    0.254113
     27          6           0        5.274767   -4.338282   -0.239600
     28          1           0        5.968752   -1.234708   -0.013484
     29          1           0        5.535779   -2.059363   -1.531302
     30          1           0        4.638791   -3.023020    1.270887
     31          1           0        5.638568   -4.471412   -1.253791
     32          1           0        5.146990   -5.235197    0.355094
 ---------------------------------------------------------------------
                    Distance matrix (angstroms):
                    1          2          3          4          5
     1  C    0.000000
     2  C    1.375525   0.000000
     3  C    2.419478   1.414044   0.000000
     4  C    1.418060   2.426229   2.809852   0.000000
     5  C    2.456529   2.815424   2.426883   1.430482   0.000000
     6  C    2.806251   2.422399   1.376044   2.452530   1.417733
     7  C    2.481567   3.731850   4.225098   1.415660   2.446870
     8  C    3.740866   4.862725   5.062773   2.436510   2.820720
     9  C    4.249700   5.072658   4.865211   2.831922   2.438330
    10  C    3.747548   4.233748   3.733380   2.456124   1.418599
    11  C    4.953071   6.187277   6.514110   3.790574   4.310172
    12  C    6.317586   7.460475   7.582265   5.034409   5.215999
    13  C    6.544826   7.504032   7.351447   5.151433   4.924667
    14  C    5.722096   6.517495   6.196103   4.304168   3.794990
    15  O    5.153494   6.487091   7.046629   4.238565   5.063170
    16  O    7.341416   8.543336   8.744918   6.123259   6.405194
    17  H    1.084570   2.141271   3.407943   2.161733   3.435056
    18  H    2.136040   1.083900   2.165282   3.410448   3.899236
    19  H    3.394410   2.164625   1.084071   3.893853   3.410180
    20  H    3.890943   3.409372   2.140488   3.432869   2.162498
    21  H    2.728886   4.097223   4.876260   2.172504   3.435752
    22  H    4.615410   4.866363   4.078465   3.434284   2.162748
    23  H    7.611940   8.538434   8.314009   6.211079   5.895627
    24  O    6.381899   6.947147   6.355547   5.002329   4.131797
    25  C    7.819851   8.384839   7.749824   6.432576   5.569695
    26  C    8.499302   8.851004   8.004462   7.185166   6.099236
    27  C    9.480340   9.774205   8.866740   8.190303   7.069487
    28  H    8.184083   8.827924   8.272364   6.788081   6.039376
    29  H    8.221097   8.854415   8.286455   6.826079   6.062619
    30  H    8.351179   8.601468   7.682008   7.096891   5.935365
    31  H    9.821574  10.195064   9.363063   8.509751   7.480885
    32  H   10.115513  10.285673   9.271821   8.882315   7.671125
                    6          7          8          9         10
     6  C    0.000000
     7  C    3.737618   0.000000
     8  C    4.238178   1.376437   0.000000
     9  C    3.741151   2.431224   1.431063   0.000000
    10  C    2.481013   2.797382   2.426890   1.378272   0.000000
    11  C    5.727483   2.472385   1.489520   2.540102   3.794568
    12  C    6.601961   3.862559   2.598108   2.937712   4.315583
    13  C    6.194679   4.283359   2.907154   2.486751   3.734022
    14  C    4.966513   3.766664   2.504291   1.472561   2.485596
    15  O    6.451340   2.823190   2.374756   3.651750   4.798454
    16  O    7.800967   4.860456   3.702660   4.154199   5.532128
    17  H    3.890816   2.708984   4.080459   4.880587   4.614370
    18  H    3.396994   4.613976   5.830263   6.133077   5.317627
    19  H    2.135275   5.309164   6.122615   5.831002   4.613041
    20  H    1.084692   4.605734   4.870422   4.080511   2.707366
    21  H    4.619855   1.084473   2.118859   3.407128   3.881606
    22  H    2.708939   3.879780   3.410532   2.131576   1.082400
    23  H    7.104744   5.364560   3.988248   3.478554   4.623985
    24  O    5.014249   4.781074   3.667930   2.349889   2.713454
    25  C    6.391699   6.118414   4.906863   3.706114   4.152695
    26  C    6.629924   7.123260   6.042913   4.701605   4.752805
    27  C    7.506208   8.158820   7.085139   5.754238   5.760583
    28  H    6.940059   6.346795   5.084015   4.031399   4.643811
    29  H    6.950259   6.397759   5.138645   4.072102   4.664634
    30  H    6.329410   7.169651   6.193595   4.820376   4.674768
    31  H    8.013116   8.367705   7.242504   6.001554   6.157719
    32  H    7.937806   8.976053   7.971924   6.596756   6.436129
                   11         12         13         14         15
    11  C    0.000000
    12  C    1.553940   0.000000
    13  C    2.572032   1.453450   0.000000
    14  C    2.912699   2.467948   1.360558   0.000000
    15  O    1.210466   2.399590   3.670715   4.122561   0.000000
    16  O    2.398511   1.216572   2.349537   3.578949   2.756125
    17  H    5.051281   6.531482   6.980539   6.327931   4.991637
    18  H    7.086358   8.423700   8.541439   7.586343   7.266143
    19  H    7.583988   8.613240   8.305781   7.098234   8.130605
    20  H    6.342537   7.016718   6.393597   5.076546   7.188054
    21  H    2.640974   4.181440   4.905189   4.622166   2.491406
    22  H    4.668756   4.924061   4.053109   2.696553   5.748272
    23  H    3.534205   2.151615   1.081345   2.140810   4.535458
    24  O    4.252740   3.725775   2.394093   1.345821   5.463183
    25  C    5.195978   4.280066   2.826757   2.408733   6.379421
    26  C    6.540488   5.741644   4.291167   3.647504   7.743059
    27  C    7.547583   6.682214   5.241943   4.695345   8.739753
    28  H    5.180005   4.124524   2.750716   2.672582   6.311933
    29  H    5.246598   4.190560   2.810415   2.717281   6.383246
    30  H    6.829285   6.174060   4.763842   3.964530   8.028989
    31  H    7.566275   6.604684   5.220949   4.863577   8.721732
    32  H    8.527114   7.717051   6.270761   5.639018   9.728604
                   16         17         18         19         20
    16  O    0.000000
    17  H    7.440868   0.000000
    18  H    9.469625   2.470541   0.000000
    19  H    9.788157   4.295379   2.483656   0.000000
    20  H    8.232527   4.975508   4.295827   2.466973   0.000000
    21  H    4.986102   2.505079   4.800213   5.943534   5.562191
    22  H    6.122979   5.558610   5.932439   4.777050   2.482864
    23  H    2.580570   8.061507   9.586169   9.233872   7.198725
    24  O    4.740589   7.136703   8.031001   7.119205   4.831651
    25  C    5.038810   8.553642   9.468409   8.465564   6.102196
    26  C    6.532330   9.345750   9.917277   8.561565   6.103408
    27  C    7.393320  10.344465  10.827167   9.355551   6.899898
    28  H    4.744462   8.855328   9.906144   9.025379   6.717267
    29  H    4.809666   8.899620   9.933267   9.032276   6.714283
    30  H    7.035313   9.240845   9.646891   8.171580   5.728579
    31  H    7.210724  10.634566  11.250759   9.899981   7.481330
    32  H    8.452766  11.031396  11.313221   9.652560   7.213830
                   21         22         23         24         25
    21  H    0.000000
    22  H    4.963974   0.000000
    23  H    5.966627   4.764997   0.000000
    24  O    5.739732   2.357925   2.702279   0.000000
    25  C    7.019669   3.690826   2.541069   1.443146   0.000000
    26  C    8.105061   3.985908   4.026203   2.375918   1.495259
    27  C    9.139143   4.945146   4.856536   3.464873   2.491417
    28  H    7.177703   4.302790   2.278637   2.069977   1.096427
    29  H    7.234941   4.304036   2.331390   2.082905   1.094146
    30  H    8.181254   3.823035   4.629246   2.681411   2.198014
    31  H    9.297534   5.447776   4.734309   3.797906   2.748138
    32  H    9.988914   5.519516   5.909918   4.348228   3.481887
                   26         27         28         29         30
    26  C    0.000000
    27  C    1.329435   0.000000
    28  H    2.145445   3.188246   0.000000
    29  H    2.149791   2.632507   1.780812   0.000000
    30  H    1.086813   2.101416   2.572249   3.096044   0.000000
    31  H    2.112712   1.085660   3.481901   2.430135   3.077563
    32  H    2.108865   1.083718   4.100616   3.714239   2.447585
                   31         32
    31  H    0.000000
    32  H    1.847573   0.000000
 Symmetry turned off by external request.
 Stoichiometry    C17H12O3
 Framework group  C1[X(C17H12O3)]
 Deg. of freedom    90
 Full point group                 C1      NOp   1
 Rotational constants (GHZ):           0.4301549           0.2454268           0.1573089
 Leave Link  202 at Sun Feb 11 15:02:21 2024, MaxMem=  4026531840 cpu:               0.5 elap:               0.1
 (Enter /sysapps/ubuntu-applications/gaussian/Gaussian/AVX2/g16/l301.exe)
 Standard basis: 6-311++G(d,p) (5D, 7F)
 Ernie: Thresh=  0.10000D-02 Tol=  0.10000D-05 Strict=F.
   524 basis functions,   828 primitive gaussians,   544 cartesian basis functions
    69 alpha electrons       69 beta electrons
       nuclear repulsion energy      1387.3424049802 Hartrees.
 IExCor=  402 DFT=T Ex+Corr=B3LYP ExCW=0 ScaHFX=  0.200000
 ScaDFX=  0.800000  0.720000  1.000000  0.810000 ScalE2=  1.000000  1.000000
 IRadAn=      5 IRanWt=     -1 IRanGd=            0 ICorTp=0 IEmpDi=  4
 NAtoms=   32 NActive=   32 NUniq=   32 SFac= 1.00D+00 NAtFMM=   60 NAOKFM=F Big=F
 Integral buffers will be    131072 words long.
 Raffenetti 2 integral format.
 Two-electron integral symmetry is turned off.
 ------------------------------------------------------------------------------
 Polarizable Continuum Model (PCM)
 =================================
 Model                : PCM.
 Atomic radii         : UFF (Universal Force Field).
 Polarization charges : Total charges.
 Charge compensation  : None.
 Solution method      : On-the-fly selection.
 Cavity type          : Scaled VdW (van der Waals Surface) (Alpha=1.100).
 Cavity algorithm     : GePol (No added spheres)
                        Default sphere list used, NSphG=   32.
                        Lebedev-Laikov grids with approx.  5.0 points / Ang**2.
                        Smoothing algorithm: York/Karplus (Gamma=1.0000).
                        Polarization charges: spherical gaussians, with
                                              point-specific exponents (IZeta= 3).
                        Self-potential: point-specific (ISelfS= 7).
                        Self-field    : sphere-specific E.n sum rule (ISelfD= 2).
 1st derivatives      : Analytical E(r).r(x)/FMM algorithm (CHGder, D1EAlg=3).
                        Cavity 1st derivative terms included.
 Solvent              : n,n-DiMethylFormamide, Eps=  37.219000 Eps(inf)=   2.046330
 ------------------------------------------------------------------------------
 GePol: Number of generator spheres                  =      32
 GePol: Total number of spheres                      =      32
 GePol: Number of exposed spheres                    =      32 (100.00%)
 GePol: Number of points                             =    2513
 GePol: Average weight of points                     =       0.13
 GePol: Minimum weight of points                     =   0.30D-11
 GePol: Maximum weight of points                     =    0.20577
 GePol: Number of points with low weight             =     134
 GePol: Fraction of low-weight points (<1% of avg)   =       5.33%
 GePol: Cavity surface area                          =    334.510 Ang**2
 GePol: Cavity volume                                =    359.969 Ang**3
 Leave Link  301 at Sun Feb 11 15:02:21 2024, MaxMem=  4026531840 cpu:               0.7 elap:               0.2
 (Enter /sysapps/ubuntu-applications/gaussian/Gaussian/AVX2/g16/l302.exe)
 NPDir=0 NMtPBC=     1 NCelOv=     1 NCel=       1 NClECP=     1 NCelD=      1
         NCelK=      1 NCelE2=     1 NClLst=     1 CellRange=     0.0.
 One-electron integrals computed using PRISM.
 NBasis=   524 RedAO= T EigKep=  1.19D-06  NBF=   524
 NBsUse=   517 1.00D-06 EigRej=  5.72D-07 NBFU=   517
 Precomputing XC quadrature grid using
 IXCGrd= 4 IRadAn=           5 IRanWt=          -1 IRanGd=           0 AccXCQ= 0.00D+00.
 Generated NRdTot=       0 NPtTot=           0 NUsed=           0 NTot=          32
 NSgBfM=   541   541   541   541   541 MxSgAt=    32 MxSgA2=    32.
 Leave Link  302 at Sun Feb 11 15:02:24 2024, MaxMem=  4026531840 cpu:              11.8 elap:               2.2
 (Enter /sysapps/ubuntu-applications/gaussian/Gaussian/AVX2/g16/l303.exe)
 DipDrv:  MaxL=1.
 Leave Link  303 at Sun Feb 11 15:02:24 2024, MaxMem=  4026531840 cpu:               1.2 elap:               0.3
 (Enter /sysapps/ubuntu-applications/gaussian/Gaussian/AVX2/g16/l401.exe)
 ExpMin= 3.60D-02 ExpMax= 8.59D+03 ExpMxC= 1.30D+03 IAcc=3 IRadAn=         5 AccDes= 0.00D+00
 Harris functional with IExCor=  402 and IRadAn=       5 diagonalized for initial guess.
 HarFok:  IExCor=  402 AccDes= 0.00D+00 IRadAn=         5 IDoV= 1 UseB2=F ITyADJ=14
 ICtDFT=  3500011 ScaDFX=  1.000000  1.000000  1.000000  1.000000
 FoFCou: FMM=F IPFlag=           0 FMFlag=      100000 FMFlg1=           0
         NFxFlg=           0 DoJE=T BraDBF=F KetDBF=T FulRan=T
         wScrn=  0.000000 ICntrl=       500 IOpCl=  0 I1Cent=   200000004 NGrid=           0
         NMat0=    1 NMatS0=      1 NMatT0=    0 NMatD0=    1 NMtDS0=    0 NMtDT0=    0
 Symmetry not used in FoFCou.
 Harris En= -880.948267314216    
 JPrj=0 DoOrth=F DoCkMO=F.
 Initial guess <Sx>= 0.0000 <Sy>= 0.0000 <Sz>= 0.0000 <S**2>=-0.0000 S=-0.0000
 Leave Link  401 at Sun Feb 11 15:02:29 2024, MaxMem=  4026531840 cpu:              37.8 elap:               4.8
 (Enter /sysapps/ubuntu-applications/gaussian/Gaussian/AVX2/g16/l502.exe)
 Two-electron integral symmetry not used.
 UHF open shell SCF:
 Using DIIS extrapolation, IDIIS=  1040.
 NGot=  4026531840 LenX=  4025931732 LenY=  4025635252
 Requested convergence on RMS density matrix=1.00D-08 within 128 cycles.
 Requested convergence on MAX density matrix=1.00D-06.
 Requested convergence on             energy=1.00D-06.
 No special actions if energy rises.
 Fock matrices will be formed incrementally for  20 cycles.

 Cycle   1  Pass 1  IDiag  1:
 FoFJK:  IHMeth= 1 ICntrl=       0 DoSepK=F KAlg= 0 I1Cent=           0 FoldK=F
 IRaf= 820000000 NMat=       1 IRICut=       1 DoRegI=T DoRafI=F ISym2E= 0 IDoP0=0 IntGTp=1.
 FoFCou: FMM=F IPFlag=           0 FMFlag=      100000 FMFlg1=           0
         NFxFlg=           0 DoJE=F BraDBF=F KetDBF=F FulRan=T
         wScrn=  0.000000 ICntrl=         0 IOpCl=  1 I1Cent=           0 NGrid=           0
         NMat0=    1 NMatS0=      1 NMatT0=    0 NMatD0=    1 NMtDS0=    0 NMtDT0=    0
 Symmetry not used in FoFCou.
 Inv3:  Mode=1 IEnd=    18945507.
 Iteration    1 A*A^-1 deviation from unit magnitude is 3.33D-15 for   1523.
 Iteration    1 A*A^-1 deviation from orthogonality  is 1.90D-15 for   1936   1888.
 Iteration    1 A^-1*A deviation from unit magnitude is 3.11D-15 for   1523.
 Iteration    1 A^-1*A deviation from orthogonality  is 1.55D-15 for   2357     48.
 E= -880.482134492746    
 DIIS: error= 2.93D-02 at cycle   1 NSaved=   1.
 NSaved= 1 IEnMin= 1 EnMin= -880.482134492746     IErMin= 1 ErrMin= 2.93D-02
 ErrMax= 2.93D-02  0.00D+00 EMaxC= 1.00D-01 BMatC= 2.12D+00 BMatP= 2.12D+00
 IDIUse=3 WtCom= 7.07D-01 WtEn= 2.93D-01
 Coeff-Com:  0.100D+01
 Coeff-En:   0.100D+01
 Coeff:      0.100D+01
 Gap=     0.089 Goal=   None    Shift=    0.000
 Gap=     0.089 Goal=   None    Shift=    0.000
 GapD=    0.089 DampG=0.500 DampE=0.500 DampFc=0.2500 IDamp=-1.
 Damping current iteration by 2.50D-01
 RMSDP=1.53D-02 MaxDP=1.50D+00              OVMax= 2.63D-01

 Cycle   2  Pass 1  IDiag  1:
 RMSU=  3.61D-03    CP:  9.74D-01
 E= -880.635053105587     Delta-E=       -0.152918612841 Rises=F Damp=T
 DIIS: error= 1.54D-02 at cycle   2 NSaved=   2.
 NSaved= 2 IEnMin= 2 EnMin= -880.635053105587     IErMin= 2 ErrMin= 1.54D-02
 ErrMax= 1.54D-02  0.00D+00 EMaxC= 1.00D-01 BMatC= 5.20D-01 BMatP= 2.12D+00
 IDIUse=3 WtCom= 8.46D-01 WtEn= 1.54D-01
 Coeff-Com: -0.642D+00 0.164D+01
 Coeff-En:   0.000D+00 0.100D+01
 Coeff:     -0.543D+00 0.154D+01
 Gap=     0.162 Goal=   None    Shift=    0.000
 Gap=     0.162 Goal=   None    Shift=    0.000
 RMSDP=6.72D-03 MaxDP=5.67D-01 DE=-1.53D-01 OVMax= 1.96D-01

 Cycle   3  Pass 1  IDiag  1:
 RMSU=  6.04D-03    CP:  9.14D-01  1.27D+00
 E= -880.856119468563     Delta-E=       -0.221066362976 Rises=F Damp=F
 DIIS: error= 1.29D-02 at cycle   3 NSaved=   3.
 NSaved= 3 IEnMin= 3 EnMin= -880.856119468563     IErMin= 3 ErrMin= 1.29D-02
 ErrMax= 1.29D-02  0.00D+00 EMaxC= 1.00D-01 BMatC= 3.08D-01 BMatP= 5.20D-01
 IDIUse=3 WtCom= 8.71D-01 WtEn= 1.29D-01
 Coeff-Com: -0.462D+00 0.976D+00 0.485D+00
 Coeff-En:   0.000D+00 0.000D+00 0.100D+01
 Coeff:     -0.402D+00 0.850D+00 0.552D+00
 Gap=     0.125 Goal=   None    Shift=    0.000
 Gap=     0.125 Goal=   None    Shift=    0.000
 RMSDP=3.04D-03 MaxDP=2.47D-01 DE=-2.21D-01 OVMax= 8.31D-02

 Cycle   4  Pass 1  IDiag  1:
 RMSU=  2.47D-03    CP:  9.15D-01  1.53D+00  7.52D-01
 E= -880.910735196786     Delta-E=       -0.054615728223 Rises=F Damp=F
 DIIS: error= 5.37D-03 at cycle   4 NSaved=   4.
 NSaved= 4 IEnMin= 4 EnMin= -880.910735196786     IErMin= 4 ErrMin= 5.37D-03
 ErrMax= 5.37D-03  0.00D+00 EMaxC= 1.00D-01 BMatC= 6.24D-02 BMatP= 3.08D-01
 IDIUse=3 WtCom= 9.46D-01 WtEn= 5.37D-02
 Coeff-Com: -0.954D-01 0.202D+00 0.328D+00 0.566D+00
 Coeff-En:   0.000D+00 0.000D+00 0.196D+00 0.804D+00
 Coeff:     -0.903D-01 0.191D+00 0.321D+00 0.579D+00
 Gap=     0.119 Goal=   None    Shift=    0.000
 Gap=     0.119 Goal=   None    Shift=    0.000
 RMSDP=1.70D-03 MaxDP=1.23D-01 DE=-5.46D-02 OVMax= 2.68D-02

 Cycle   5  Pass 1  IDiag  1:
 RMSU=  8.30D-04    CP:  9.01D-01  1.35D+00  7.45D-01  5.38D-01
 E= -880.923363415172     Delta-E=       -0.012628218386 Rises=F Damp=F
 DIIS: error= 1.06D-03 at cycle   5 NSaved=   5.
 NSaved= 5 IEnMin= 5 EnMin= -880.923363415172     IErMin= 5 ErrMin= 1.06D-03
 ErrMax= 1.06D-03  0.00D+00 EMaxC= 1.00D-01 BMatC= 2.34D-03 BMatP= 6.24D-02
 IDIUse=3 WtCom= 9.89D-01 WtEn= 1.06D-02
 Coeff-Com: -0.152D-01 0.305D-01 0.132D+00 0.307D+00 0.546D+00
 Coeff-En:   0.000D+00 0.000D+00 0.000D+00 0.000D+00 0.100D+01
 Coeff:     -0.151D-01 0.301D-01 0.131D+00 0.304D+00 0.550D+00
 Gap=     0.121 Goal=   None    Shift=    0.000
 Gap=     0.121 Goal=   None    Shift=    0.000
 RMSDP=3.76D-04 MaxDP=5.75D-02 DE=-1.26D-02 OVMax= 6.36D-03

 Cycle   6  Pass 1  IDiag  1:
 RMSU=  2.25D-04    CP:  8.96D-01  1.35D+00  7.59D-01  5.67D-01  8.37D-01
 E= -880.923788566371     Delta-E=       -0.000425151199 Rises=F Damp=F
 DIIS: error= 4.16D-04 at cycle   6 NSaved=   6.
 NSaved= 6 IEnMin= 6 EnMin= -880.923788566371     IErMin= 6 ErrMin= 4.16D-04
 ErrMax= 4.16D-04  0.00D+00 EMaxC= 1.00D-01 BMatC= 4.01D-04 BMatP= 2.34D-03
 IDIUse=3 WtCom= 9.96D-01 WtEn= 4.16D-03
 Coeff-Com: -0.202D-02 0.280D-02 0.492D-01 0.129D+00 0.344D+00 0.477D+00
 Coeff-En:   0.000D+00 0.000D+00 0.000D+00 0.000D+00 0.967D-01 0.903D+00
 Coeff:     -0.201D-02 0.279D-02 0.490D-01 0.128D+00 0.343D+00 0.479D+00
 Gap=     0.121 Goal=   None    Shift=    0.000
 Gap=     0.121 Goal=   None    Shift=    0.000
 RMSDP=1.16D-04 MaxDP=1.27D-02 DE=-4.25D-04 OVMax= 2.65D-03

 Cycle   7  Pass 1  IDiag  1:
 RMSU=  8.21D-05    CP:  8.96D-01  1.34D+00  7.65D-01  5.68D-01  8.24D-01
                    CP:  7.59D-01
 E= -880.923858938788     Delta-E=       -0.000070372417 Rises=F Damp=F
 DIIS: error= 1.19D-04 at cycle   7 NSaved=   7.
 NSaved= 7 IEnMin= 7 EnMin= -880.923858938788     IErMin= 7 ErrMin= 1.19D-04
 ErrMax= 1.19D-04  0.00D+00 EMaxC= 1.00D-01 BMatC= 4.16D-05 BMatP= 4.01D-04
 IDIUse=3 WtCom= 9.99D-01 WtEn= 1.19D-03
 Coeff-Com:  0.102D-02-0.261D-02 0.103D-01 0.327D-01 0.134D+00 0.291D+00
 Coeff-Com:  0.534D+00
 Coeff-En:   0.000D+00 0.000D+00 0.000D+00 0.000D+00 0.000D+00 0.485D-01
 Coeff-En:   0.952D+00
 Coeff:      0.102D-02-0.261D-02 0.103D-01 0.326D-01 0.134D+00 0.290D+00
 Coeff:      0.534D+00
 Gap=     0.121 Goal=   None    Shift=    0.000
 Gap=     0.121 Goal=   None    Shift=    0.000
 RMSDP=4.43D-05 MaxDP=4.40D-03 DE=-7.04D-05 OVMax= 1.05D-03

 Cycle   8  Pass 1  IDiag  1:
 RMSU=  2.22D-05    CP:  8.97D-01  1.35D+00  7.65D-01  5.72D-01  8.37D-01
                    CP:  7.77D-01  7.35D-01
 E= -880.923866687453     Delta-E=       -0.000007748665 Rises=F Damp=F
 DIIS: error= 3.55D-05 at cycle   8 NSaved=   8.
 NSaved= 8 IEnMin= 8 EnMin= -880.923866687453     IErMin= 8 ErrMin= 3.55D-05
 ErrMax= 3.55D-05  0.00D+00 EMaxC= 1.00D-01 BMatC= 2.56D-06 BMatP= 4.16D-05
 IDIUse=1 WtCom= 1.00D+00 WtEn= 0.00D+00
 Coeff-Com:  0.745D-03-0.161D-02 0.203D-02 0.774D-02 0.472D-01 0.115D+00
 Coeff-Com:  0.278D+00 0.551D+00
 Coeff:      0.745D-03-0.161D-02 0.203D-02 0.774D-02 0.472D-01 0.115D+00
 Coeff:      0.278D+00 0.551D+00
 Gap=     0.121 Goal=   None    Shift=    0.000
 Gap=     0.121 Goal=   None    Shift=    0.000
 RMSDP=1.27D-05 MaxDP=1.08D-03 DE=-7.75D-06 OVMax= 2.71D-04

 Cycle   9  Pass 1  IDiag  1:
 RMSU=  7.74D-06    CP:  8.97D-01  1.34D+00  7.64D-01  5.70D-01  8.45D-01
                    CP:  7.71D-01  7.62D-01  1.04D+00
 E= -880.923867193329     Delta-E=       -0.000000505877 Rises=F Damp=F
 DIIS: error= 1.71D-05 at cycle   9 NSaved=   9.
 NSaved= 9 IEnMin= 9 EnMin= -880.923867193329     IErMin= 9 ErrMin= 1.71D-05
 ErrMax= 1.71D-05  0.00D+00 EMaxC= 1.00D-01 BMatC= 4.40D-07 BMatP= 2.56D-06
 IDIUse=1 WtCom= 1.00D+00 WtEn= 0.00D+00
 Coeff-Com:  0.288D-03-0.505D-03-0.436D-03-0.985D-03 0.581D-02 0.185D-01
 Coeff-Com:  0.720D-01 0.317D+00 0.588D+00
 Coeff:      0.288D-03-0.505D-03-0.436D-03-0.985D-03 0.581D-02 0.185D-01
 Coeff:      0.720D-01 0.317D+00 0.588D+00
 Gap=     0.121 Goal=   None    Shift=    0.000
 Gap=     0.121 Goal=   None    Shift=    0.000
 RMSDP=4.19D-06 MaxDP=3.16D-04 DE=-5.06D-07 OVMax= 1.27D-04

 Cycle  10  Pass 1  IDiag  1:
 RMSU=  2.97D-06    CP:  8.97D-01  1.34D+00  7.65D-01  5.70D-01  8.47D-01
                    CP:  7.76D-01  7.71D-01  1.06D+00  8.73D-01
 E= -880.923867300274     Delta-E=       -0.000000106945 Rises=F Damp=F
 DIIS: error= 4.24D-06 at cycle  10 NSaved=  10.
 NSaved=10 IEnMin=10 EnMin= -880.923867300274     IErMin=10 ErrMin= 4.24D-06
 ErrMax= 4.24D-06  0.00D+00 EMaxC= 1.00D-01 BMatC= 3.99D-08 BMatP= 4.40D-07
 IDIUse=1 WtCom= 1.00D+00 WtEn= 0.00D+00
 Coeff-Com:  0.119D-03-0.193D-03-0.350D-03-0.107D-02 0.246D-03 0.269D-02
 Coeff-Com:  0.215D-01 0.134D+00 0.332D+00 0.511D+00
 Coeff:      0.119D-03-0.193D-03-0.350D-03-0.107D-02 0.246D-03 0.269D-02
 Coeff:      0.215D-01 0.134D+00 0.332D+00 0.511D+00
 Gap=     0.121 Goal=   None    Shift=    0.000
 Gap=     0.121 Goal=   None    Shift=    0.000
 RMSDP=1.11D-06 MaxDP=9.16D-05 DE=-1.07D-07 OVMax= 2.73D-05

 Cycle  11  Pass 1  IDiag  1:
 RMSU=  6.73D-07    CP:  8.97D-01  1.34D+00  7.65D-01  5.70D-01  8.47D-01
                    CP:  7.76D-01  7.73D-01  1.07D+00  9.15D-01  9.53D-01
 E= -880.923867308886     Delta-E=       -0.000000008612 Rises=F Damp=F
 DIIS: error= 1.48D-06 at cycle  11 NSaved=  11.
 NSaved=11 IEnMin=11 EnMin= -880.923867308886     IErMin=11 ErrMin= 1.48D-06
 ErrMax= 1.48D-06  0.00D+00 EMaxC= 1.00D-01 BMatC= 4.25D-09 BMatP= 3.99D-08
 IDIUse=1 WtCom= 1.00D+00 WtEn= 0.00D+00
 Coeff-Com:  0.141D-04-0.146D-04-0.105D-03-0.417D-03-0.831D-03-0.164D-02
 Coeff-Com: -0.667D-03 0.133D-01 0.812D-01 0.267D+00 0.642D+00
 Coeff:      0.141D-04-0.146D-04-0.105D-03-0.417D-03-0.831D-03-0.164D-02
 Coeff:     -0.667D-03 0.133D-01 0.812D-01 0.267D+00 0.642D+00
 Gap=     0.121 Goal=   None    Shift=    0.000
 Gap=     0.121 Goal=   None    Shift=    0.000
 RMSDP=5.30D-07 MaxDP=5.15D-05 DE=-8.61D-09 OVMax= 1.38D-05

 Cycle  12  Pass 1  IDiag  1:
 RMSU=  2.36D-07    CP:  8.97D-01  1.34D+00  7.65D-01  5.70D-01  8.47D-01
                    CP:  7.76D-01  7.75D-01  1.07D+00  9.28D-01  9.41D-01
                    CP:  9.12D-01
 E= -880.923867309675     Delta-E=       -0.000000000788 Rises=F Damp=F
 DIIS: error= 5.01D-07 at cycle  12 NSaved=  12.
 NSaved=12 IEnMin=12 EnMin= -880.923867309675     IErMin=12 ErrMin= 5.01D-07
 ErrMax= 5.01D-07  0.00D+00 EMaxC= 1.00D-01 BMatC= 6.77D-10 BMatP= 4.25D-09
 IDIUse=1 WtCom= 1.00D+00 WtEn= 0.00D+00
 Coeff-Com: -0.383D-05 0.102D-04-0.249D-04-0.140D-03-0.512D-03-0.122D-02
 Coeff-Com: -0.238D-02-0.626D-02 0.138D-01 0.930D-01 0.364D+00 0.539D+00
 Coeff:     -0.383D-05 0.102D-04-0.249D-04-0.140D-03-0.512D-03-0.122D-02
 Coeff:     -0.238D-02-0.626D-02 0.138D-01 0.930D-01 0.364D+00 0.539D+00
 Gap=     0.121 Goal=   None    Shift=    0.000
 Gap=     0.121 Goal=   None    Shift=    0.000
 RMSDP=2.27D-07 MaxDP=1.68D-05 DE=-7.88D-10 OVMax= 4.28D-06

 Cycle  13  Pass 1  IDiag  1:
 RMSU=  1.01D-07    CP:  8.97D-01  1.34D+00  7.65D-01  5.70D-01  8.47D-01
                    CP:  7.76D-01  7.75D-01  1.08D+00  9.38D-01  9.59D-01
                    CP:  8.80D-01  8.19D-01
 E= -880.923867309825     Delta-E=       -0.000000000151 Rises=F Damp=F
 DIIS: error= 2.21D-07 at cycle  13 NSaved=  13.
 NSaved=13 IEnMin=13 EnMin= -880.923867309825     IErMin=13 ErrMin= 2.21D-07
 ErrMax= 2.21D-07  0.00D+00 EMaxC= 1.00D-01 BMatC= 4.51D-11 BMatP= 6.77D-10
 IDIUse=1 WtCom= 1.00D+00 WtEn= 0.00D+00
 Coeff-Com: -0.273D-05 0.477D-05 0.702D-05 0.552D-05-0.787D-04-0.250D-03
 Coeff-Com: -0.777D-03-0.507D-02-0.644D-02-0.514D-02 0.521D-01 0.223D+00
 Coeff-Com:  0.743D+00
 Coeff:     -0.273D-05 0.477D-05 0.702D-05 0.552D-05-0.787D-04-0.250D-03
 Coeff:     -0.777D-03-0.507D-02-0.644D-02-0.514D-02 0.521D-01 0.223D+00
 Coeff:      0.743D+00
 Gap=     0.121 Goal=   None    Shift=    0.000
 Gap=     0.121 Goal=   None    Shift=    0.000
 RMSDP=6.13D-08 MaxDP=5.80D-06 DE=-1.51D-10 OVMax= 3.35D-06

 Cycle  14  Pass 1  IDiag  1:
 RMSU=  3.11D-08    CP:  8.97D-01  1.34D+00  7.65D-01  5.70D-01  8.47D-01
                    CP:  7.76D-01  7.76D-01  1.08D+00  9.40D-01  9.61D-01
                    CP:  9.03D-01  8.53D-01  8.47D-01
 E= -880.923867309836     Delta-E=       -0.000000000011 Rises=F Damp=F
 DIIS: error= 6.31D-08 at cycle  14 NSaved=  14.
 NSaved=14 IEnMin=14 EnMin= -880.923867309836     IErMin=14 ErrMin= 6.31D-08
 ErrMax= 6.31D-08  0.00D+00 EMaxC= 1.00D-01 BMatC= 8.61D-12 BMatP= 4.51D-11
 IDIUse=1 WtCom= 1.00D+00 WtEn= 0.00D+00
 Coeff-Com: -0.114D-05 0.185D-05 0.562D-05 0.121D-04-0.132D-04-0.733D-04
 Coeff-Com: -0.289D-03-0.267D-02-0.487D-02-0.986D-02 0.416D-02 0.839D-01
 Coeff-Com:  0.426D+00 0.504D+00
 Coeff:     -0.114D-05 0.185D-05 0.562D-05 0.121D-04-0.132D-04-0.733D-04
 Coeff:     -0.289D-03-0.267D-02-0.487D-02-0.986D-02 0.416D-02 0.839D-01
 Coeff:      0.426D+00 0.504D+00
 Gap=     0.121 Goal=   None    Shift=    0.000
 Gap=     0.121 Goal=   None    Shift=    0.000
 RMSDP=2.73D-08 MaxDP=2.76D-06 DE=-1.07D-11 OVMax= 7.37D-07

 Cycle  15  Pass 1  IDiag  1:
 RMSU=  8.92D-09    CP:  8.97D-01  1.34D+00  7.65D-01  5.70D-01  8.47D-01
                    CP:  7.76D-01  7.76D-01  1.08D+00  9.41D-01  9.64D-01
                    CP:  9.12D-01  8.63D-01  8.73D-01  8.29D-01
 E= -880.923867309856     Delta-E=       -0.000000000020 Rises=F Damp=F
 DIIS: error= 1.84D-08 at cycle  15 NSaved=  15.
 NSaved=15 IEnMin=15 EnMin= -880.923867309856     IErMin=15 ErrMin= 1.84D-08
 ErrMax= 1.84D-08  0.00D+00 EMaxC= 1.00D-01 BMatC= 5.42D-13 BMatP= 8.61D-12
 IDIUse=1 WtCom= 1.00D+00 WtEn= 0.00D+00
 Coeff-Com:  0.166D-06-0.249D-06 0.152D-05 0.421D-05 0.777D-05 0.379D-05
 Coeff-Com:  0.176D-04-0.368D-03-0.880D-03-0.309D-02-0.559D-02 0.913D-03
 Coeff-Com:  0.795D-01 0.191D+00 0.738D+00
 Coeff:      0.166D-06-0.249D-06 0.152D-05 0.421D-05 0.777D-05 0.379D-05
 Coeff:      0.176D-04-0.368D-03-0.880D-03-0.309D-02-0.559D-02 0.913D-03
 Coeff:      0.795D-01 0.191D+00 0.738D+00
 Gap=     0.121 Goal=   None    Shift=    0.000
 Gap=     0.121 Goal=   None    Shift=    0.000
 RMSDP=5.92D-09 MaxDP=4.95D-07 DE=-2.02D-11 OVMax= 2.67D-07

 Error on total polarization charges =  0.01940
 SCF Done:  E(UB3LYP) =  -880.923867310     A.U. after   15 cycles
            NFock= 15  Conv=0.59D-08     -V/T= 2.0041
 <Sx>= 0.0000 <Sy>= 0.0000 <Sz>= 0.0000 <S**2>=-0.0000 S=-0.0000
 <L.S>=  0.00000000000    
 KE= 8.772906344400D+02 PE=-4.826953380444D+03 EE= 1.681396473714D+03
 Annihilation of the first spin contaminant:
 S**2 before annihilation    -0.0000,   after     0.0000
 Leave Link  502 at Sun Feb 11 15:09:31 2024, MaxMem=  4026531840 cpu:            3329.1 elap:             422.2
 (Enter /sysapps/ubuntu-applications/gaussian/Gaussian/AVX2/g16/l601.exe)
 Copying SCF densities to generalized density rwf, IOpCl= 1 IROHF=0.

 **********************************************************************

            Population analysis using the SCF density.

 **********************************************************************

 Alpha  occ. eigenvalues --  -19.19036 -19.14166 -19.12814 -10.28388 -10.28352
 Alpha  occ. eigenvalues --  -10.27565 -10.24699 -10.21646 -10.20962 -10.20877
 Alpha  occ. eigenvalues --  -10.20823 -10.20653 -10.20280 -10.19518 -10.19491
 Alpha  occ. eigenvalues --  -10.19412 -10.19330 -10.19097 -10.18917 -10.18147
 Alpha  occ. eigenvalues --   -1.10622  -1.08268  -1.05310  -0.90681  -0.86761
 Alpha  occ. eigenvalues --   -0.82709  -0.80716  -0.80106  -0.76482  -0.75798
 Alpha  occ. eigenvalues --   -0.72339  -0.69003  -0.66130  -0.63694  -0.62096
 Alpha  occ. eigenvalues --   -0.60035  -0.58372  -0.55924  -0.55336  -0.54522
 Alpha  occ. eigenvalues --   -0.51960  -0.50812  -0.49215  -0.48472  -0.47284
 Alpha  occ. eigenvalues --   -0.46743  -0.46186  -0.45702  -0.44911  -0.44673
 Alpha  occ. eigenvalues --   -0.43753  -0.43497  -0.42725  -0.41739  -0.39817
 Alpha  occ. eigenvalues --   -0.39449  -0.38868  -0.38462  -0.36962  -0.36092
 Alpha  occ. eigenvalues --   -0.35427  -0.34587  -0.31222  -0.31190  -0.29001
 Alpha  occ. eigenvalues --   -0.28581  -0.26305  -0.25802  -0.24296
 Alpha virt. eigenvalues --   -0.12194  -0.08148  -0.03105  -0.02081  -0.01664
 Alpha virt. eigenvalues --   -0.00718  -0.00042   0.00571   0.01338   0.01513
 Alpha virt. eigenvalues --    0.01774   0.02180   0.02837   0.03517   0.03694
 Alpha virt. eigenvalues --    0.04264   0.04541   0.04886   0.05371   0.05544
 Alpha virt. eigenvalues --    0.05936   0.06579   0.06691   0.07035   0.07766
 Alpha virt. eigenvalues --    0.08232   0.08704   0.09204   0.09838   0.10025
 Alpha virt. eigenvalues --    0.10204   0.10619   0.10738   0.11197   0.11469
 Alpha virt. eigenvalues --    0.11585   0.12062   0.12207   0.12399   0.12775
 Alpha virt. eigenvalues --    0.12840   0.13260   0.13507   0.13966   0.14200
 Alpha virt. eigenvalues --    0.14352   0.14493   0.14838   0.15097   0.15379
 Alpha virt. eigenvalues --    0.15615   0.15824   0.16380   0.16682   0.16924
 Alpha virt. eigenvalues --    0.17500   0.17511   0.18184   0.18358   0.18637
 Alpha virt. eigenvalues --    0.18734   0.19470   0.19546   0.20345   0.20426
 Alpha virt. eigenvalues --    0.20523   0.20951   0.21243   0.21629   0.22043
 Alpha virt. eigenvalues --    0.22097   0.22597   0.22757   0.23255   0.23534
 Alpha virt. eigenvalues --    0.23967   0.24443   0.24612   0.25295   0.25433
 Alpha virt. eigenvalues --    0.25777   0.25967   0.26956   0.27082   0.27695
 Alpha virt. eigenvalues --    0.28070   0.28300   0.28574   0.28854   0.29457
 Alpha virt. eigenvalues --    0.29838   0.30203   0.30749   0.30759   0.31143
 Alpha virt. eigenvalues --    0.31666   0.31995   0.32188   0.32277   0.32933
 Alpha virt. eigenvalues --    0.33235   0.33635   0.33901   0.34176   0.34834
 Alpha virt. eigenvalues --    0.35307   0.35642   0.36138   0.37159   0.37734
 Alpha virt. eigenvalues --    0.38646   0.39074   0.39812   0.40933   0.41768
 Alpha virt. eigenvalues --    0.42376   0.42829   0.43620   0.44096   0.45640
 Alpha virt. eigenvalues --    0.47892   0.48044   0.48631   0.49080   0.50737
 Alpha virt. eigenvalues --    0.51826   0.51940   0.52195   0.52972   0.53010
 Alpha virt. eigenvalues --    0.54126   0.54630   0.55594   0.55913   0.56201
 Alpha virt. eigenvalues --    0.56307   0.56344   0.57361   0.58196   0.58791
 Alpha virt. eigenvalues --    0.59155   0.59496   0.59808   0.60397   0.61058
 Alpha virt. eigenvalues --    0.62868   0.63053   0.63887   0.64009   0.64501
 Alpha virt. eigenvalues --    0.64729   0.65529   0.65838   0.66464   0.67142
 Alpha virt. eigenvalues --    0.68673   0.69118   0.69569   0.69733   0.70179
 Alpha virt. eigenvalues --    0.71745   0.72669   0.72803   0.72817   0.73642
 Alpha virt. eigenvalues --    0.74519   0.75298   0.75599   0.75914   0.77563
 Alpha virt. eigenvalues --    0.78281   0.79400   0.80007   0.80469   0.81864
 Alpha virt. eigenvalues --    0.83254   0.83649   0.84867   0.85797   0.86572
 Alpha virt. eigenvalues --    0.87600   0.87820   0.88481   0.89009   0.90294
 Alpha virt. eigenvalues --    0.91071   0.91609   0.92200   0.92788   0.93422
 Alpha virt. eigenvalues --    0.94105   0.95380   0.96206   0.96654   0.97598
 Alpha virt. eigenvalues --    0.97915   0.98264   0.99052   1.00868   1.01929
 Alpha virt. eigenvalues --    1.02386   1.04073   1.04603   1.05469   1.05995
 Alpha virt. eigenvalues --    1.06364   1.07657   1.08013   1.08478   1.09510
 Alpha virt. eigenvalues --    1.09670   1.10901   1.11874   1.12131   1.13858
 Alpha virt. eigenvalues --    1.14777   1.15800   1.16458   1.17089   1.19420
 Alpha virt. eigenvalues --    1.20587   1.21416   1.21647   1.22968   1.24320
 Alpha virt. eigenvalues --    1.28469   1.28857   1.31028   1.32717   1.34917
 Alpha virt. eigenvalues --    1.35899   1.38713   1.40726   1.42883   1.45471
 Alpha virt. eigenvalues --    1.45916   1.46365   1.47196   1.47471   1.48209
 Alpha virt. eigenvalues --    1.48691   1.48883   1.50363   1.50855   1.53300
 Alpha virt. eigenvalues --    1.53646   1.54618   1.55428   1.56139   1.56419
 Alpha virt. eigenvalues --    1.57529   1.57930   1.59392   1.60045   1.60682
 Alpha virt. eigenvalues --    1.62201   1.64305   1.65605   1.66103   1.66613
 Alpha virt. eigenvalues --    1.69639   1.70143   1.71085   1.71591   1.72361
 Alpha virt. eigenvalues --    1.72890   1.73086   1.74346   1.74487   1.75016
 Alpha virt. eigenvalues --    1.75889   1.77137   1.78764   1.81404   1.82198
 Alpha virt. eigenvalues --    1.84742   1.85814   1.86221   1.86399   1.87035
 Alpha virt. eigenvalues --    1.88164   1.88722   1.89618   1.91278   1.91652
 Alpha virt. eigenvalues --    1.92694   1.95041   1.95777   1.96437   1.97293
 Alpha virt. eigenvalues --    1.98842   2.00068   2.01866   2.02107   2.02710
 Alpha virt. eigenvalues --    2.04920   2.06657   2.07254   2.09503   2.11254
 Alpha virt. eigenvalues --    2.11462   2.13652   2.14880   2.15912   2.16691
 Alpha virt. eigenvalues --    2.17248   2.19124   2.20363   2.21786   2.22537
 Alpha virt. eigenvalues --    2.23300   2.24719   2.28323   2.28510   2.31171
 Alpha virt. eigenvalues --    2.32356   2.37071   2.38993   2.39734   2.44058
 Alpha virt. eigenvalues --    2.46492   2.46776   2.47869   2.48332   2.51474
 Alpha virt. eigenvalues --    2.52926   2.56279   2.57048   2.58090   2.58149
 Alpha virt. eigenvalues --    2.60972   2.61297   2.62868   2.65528   2.67745
 Alpha virt. eigenvalues --    2.68623   2.69283   2.70059   2.71014   2.71875
 Alpha virt. eigenvalues --    2.72849   2.73779   2.74359   2.74884   2.75516
 Alpha virt. eigenvalues --    2.76063   2.76720   2.77292   2.77380   2.78809
 Alpha virt. eigenvalues --    2.79524   2.80305   2.82140   2.83686   2.84965
 Alpha virt. eigenvalues --    2.85561   2.87819   2.89094   2.89669   2.90512
 Alpha virt. eigenvalues --    2.90698   2.91754   2.92035   2.93401   2.95492
 Alpha virt. eigenvalues --    2.97447   2.99497   3.00218   3.03117   3.05419
 Alpha virt. eigenvalues --    3.06303   3.08470   3.11666   3.13949   3.15696
 Alpha virt. eigenvalues --    3.18987   3.19843   3.22277   3.22910   3.23947
 Alpha virt. eigenvalues --    3.29753   3.30100   3.30549   3.32326   3.36377
 Alpha virt. eigenvalues --    3.38020   3.38335   3.41139   3.43623   3.45257
 Alpha virt. eigenvalues --    3.48008   3.50782   3.54096   3.55523   3.58664
 Alpha virt. eigenvalues --    3.59463   3.65451   3.66592   3.69655   3.72723
 Alpha virt. eigenvalues --    3.73413   3.75984   3.81545   3.82146   3.98285
 Alpha virt. eigenvalues --    4.03030   4.03955   4.09888   4.10897   4.14226
 Alpha virt. eigenvalues --    4.18842   4.20679   4.23787   4.24300   4.34963
 Alpha virt. eigenvalues --    4.48619   4.70035   4.81651   4.84428   5.00429
 Alpha virt. eigenvalues --    5.02134   5.08213   5.14844   5.31179   5.41102
 Alpha virt. eigenvalues --    5.66550   5.78948   5.82221  23.51808  23.72863
 Alpha virt. eigenvalues --   23.76016  23.80054  23.85784  23.87154  23.88833
 Alpha virt. eigenvalues --   23.90630  23.93573  23.97485  23.99878  24.09545
 Alpha virt. eigenvalues --   24.10901  24.13970  24.15146  24.17861  24.26826
 Alpha virt. eigenvalues --   49.95587  49.98171  50.07611
  Beta  occ. eigenvalues --  -19.19036 -19.14166 -19.12814 -10.28388 -10.28352
  Beta  occ. eigenvalues --  -10.27565 -10.24699 -10.21646 -10.20962 -10.20877
  Beta  occ. eigenvalues --  -10.20823 -10.20653 -10.20280 -10.19518 -10.19491
  Beta  occ. eigenvalues --  -10.19412 -10.19330 -10.19097 -10.18917 -10.18147
  Beta  occ. eigenvalues --   -1.10622  -1.08268  -1.05310  -0.90681  -0.86761
  Beta  occ. eigenvalues --   -0.82709  -0.80716  -0.80106  -0.76482  -0.75798
  Beta  occ. eigenvalues --   -0.72339  -0.69003  -0.66130  -0.63694  -0.62096
  Beta  occ. eigenvalues --   -0.60035  -0.58372  -0.55924  -0.55336  -0.54522
  Beta  occ. eigenvalues --   -0.51960  -0.50812  -0.49215  -0.48472  -0.47284
  Beta  occ. eigenvalues --   -0.46743  -0.46186  -0.45702  -0.44911  -0.44673
  Beta  occ. eigenvalues --   -0.43753  -0.43497  -0.42725  -0.41739  -0.39817
  Beta  occ. eigenvalues --   -0.39449  -0.38868  -0.38462  -0.36962  -0.36092
  Beta  occ. eigenvalues --   -0.35427  -0.34587  -0.31222  -0.31190  -0.29001
  Beta  occ. eigenvalues --   -0.28581  -0.26305  -0.25802  -0.24296
  Beta virt. eigenvalues --   -0.12194  -0.08148  -0.03105  -0.02081  -0.01664
  Beta virt. eigenvalues --   -0.00718  -0.00042   0.00571   0.01338   0.01513
  Beta virt. eigenvalues --    0.01774   0.02180   0.02837   0.03517   0.03694
  Beta virt. eigenvalues --    0.04264   0.04541   0.04886   0.05371   0.05544
  Beta virt. eigenvalues --    0.05936   0.06579   0.06691   0.07035   0.07766
  Beta virt. eigenvalues --    0.08232   0.08704   0.09204   0.09838   0.10025
  Beta virt. eigenvalues --    0.10204   0.10619   0.10738   0.11197   0.11469
  Beta virt. eigenvalues --    0.11585   0.12062   0.12207   0.12399   0.12775
  Beta virt. eigenvalues --    0.12840   0.13260   0.13507   0.13966   0.14200
  Beta virt. eigenvalues --    0.14352   0.14493   0.14838   0.15097   0.15379
  Beta virt. eigenvalues --    0.15615   0.15824   0.16380   0.16682   0.16924
  Beta virt. eigenvalues --    0.17500   0.17511   0.18184   0.18358   0.18637
  Beta virt. eigenvalues --    0.18734   0.19470   0.19546   0.20345   0.20426
  Beta virt. eigenvalues --    0.20523   0.20951   0.21243   0.21629   0.22043
  Beta virt. eigenvalues --    0.22097   0.22597   0.22757   0.23255   0.23534
  Beta virt. eigenvalues --    0.23967   0.24443   0.24612   0.25295   0.25433
  Beta virt. eigenvalues --    0.25777   0.25967   0.26956   0.27082   0.27695
  Beta virt. eigenvalues --    0.28070   0.28300   0.28574   0.28854   0.29457
  Beta virt. eigenvalues --    0.29838   0.30203   0.30749   0.30759   0.31143
  Beta virt. eigenvalues --    0.31666   0.31995   0.32188   0.32277   0.32933
  Beta virt. eigenvalues --    0.33235   0.33635   0.33901   0.34176   0.34834
  Beta virt. eigenvalues --    0.35307   0.35642   0.36138   0.37159   0.37734
  Beta virt. eigenvalues --    0.38646   0.39074   0.39812   0.40933   0.41768
  Beta virt. eigenvalues --    0.42376   0.42829   0.43620   0.44096   0.45640
  Beta virt. eigenvalues --    0.47892   0.48044   0.48631   0.49080   0.50737
  Beta virt. eigenvalues --    0.51826   0.51940   0.52195   0.52972   0.53010
  Beta virt. eigenvalues --    0.54126   0.54630   0.55594   0.55913   0.56201
  Beta virt. eigenvalues --    0.56307   0.56344   0.57361   0.58196   0.58791
  Beta virt. eigenvalues --    0.59155   0.59496   0.59808   0.60397   0.61058
  Beta virt. eigenvalues --    0.62868   0.63053   0.63887   0.64009   0.64501
  Beta virt. eigenvalues --    0.64729   0.65529   0.65838   0.66464   0.67142
  Beta virt. eigenvalues --    0.68673   0.69118   0.69569   0.69733   0.70179
  Beta virt. eigenvalues --    0.71745   0.72669   0.72803   0.72817   0.73642
  Beta virt. eigenvalues --    0.74519   0.75298   0.75599   0.75914   0.77563
  Beta virt. eigenvalues --    0.78281   0.79400   0.80007   0.80469   0.81864
  Beta virt. eigenvalues --    0.83254   0.83649   0.84867   0.85797   0.86572
  Beta virt. eigenvalues --    0.87600   0.87820   0.88481   0.89009   0.90294
  Beta virt. eigenvalues --    0.91071   0.91609   0.92200   0.92788   0.93422
  Beta virt. eigenvalues --    0.94105   0.95380   0.96206   0.96654   0.97598
  Beta virt. eigenvalues --    0.97915   0.98264   0.99052   1.00868   1.01929
  Beta virt. eigenvalues --    1.02386   1.04073   1.04603   1.05469   1.05995
  Beta virt. eigenvalues --    1.06364   1.07657   1.08013   1.08478   1.09510
  Beta virt. eigenvalues --    1.09670   1.10901   1.11874   1.12131   1.13858
  Beta virt. eigenvalues --    1.14777   1.15800   1.16458   1.17089   1.19420
  Beta virt. eigenvalues --    1.20587   1.21416   1.21647   1.22968   1.24320
  Beta virt. eigenvalues --    1.28469   1.28857   1.31028   1.32717   1.34917
  Beta virt. eigenvalues --    1.35899   1.38713   1.40726   1.42883   1.45471
  Beta virt. eigenvalues --    1.45916   1.46365   1.47196   1.47471   1.48209
  Beta virt. eigenvalues --    1.48691   1.48883   1.50363   1.50855   1.53300
  Beta virt. eigenvalues --    1.53646   1.54618   1.55428   1.56139   1.56419
  Beta virt. eigenvalues --    1.57529   1.57930   1.59392   1.60045   1.60682
  Beta virt. eigenvalues --    1.62201   1.64305   1.65605   1.66103   1.66613
  Beta virt. eigenvalues --    1.69639   1.70143   1.71085   1.71591   1.72361
  Beta virt. eigenvalues --    1.72890   1.73086   1.74346   1.74487   1.75016
  Beta virt. eigenvalues --    1.75889   1.77137   1.78764   1.81404   1.82198
  Beta virt. eigenvalues --    1.84742   1.85814   1.86221   1.86399   1.87035
  Beta virt. eigenvalues --    1.88164   1.88722   1.89618   1.91278   1.91652
  Beta virt. eigenvalues --    1.92694   1.95041   1.95777   1.96437   1.97293
  Beta virt. eigenvalues --    1.98842   2.00068   2.01866   2.02107   2.02710
  Beta virt. eigenvalues --    2.04920   2.06657   2.07254   2.09503   2.11254
  Beta virt. eigenvalues --    2.11462   2.13652   2.14880   2.15912   2.16691
  Beta virt. eigenvalues --    2.17248   2.19124   2.20363   2.21786   2.22537
  Beta virt. eigenvalues --    2.23300   2.24719   2.28323   2.28510   2.31171
  Beta virt. eigenvalues --    2.32356   2.37071   2.38993   2.39734   2.44058
  Beta virt. eigenvalues --    2.46492   2.46776   2.47869   2.48332   2.51474
  Beta virt. eigenvalues --    2.52926   2.56279   2.57048   2.58090   2.58149
  Beta virt. eigenvalues --    2.60972   2.61297   2.62868   2.65528   2.67745
  Beta virt. eigenvalues --    2.68623   2.69283   2.70059   2.71014   2.71875
  Beta virt. eigenvalues --    2.72849   2.73779   2.74359   2.74884   2.75516
  Beta virt. eigenvalues --    2.76063   2.76720   2.77292   2.77380   2.78809
  Beta virt. eigenvalues --    2.79524   2.80305   2.82140   2.83686   2.84965
  Beta virt. eigenvalues --    2.85561   2.87819   2.89094   2.89669   2.90512
  Beta virt. eigenvalues --    2.90698   2.91754   2.92035   2.93401   2.95492
  Beta virt. eigenvalues --    2.97447   2.99497   3.00218   3.03117   3.05419
  Beta virt. eigenvalues --    3.06303   3.08470   3.11666   3.13949   3.15696
  Beta virt. eigenvalues --    3.18987   3.19843   3.22277   3.22910   3.23947
  Beta virt. eigenvalues --    3.29753   3.30100   3.30549   3.32326   3.36377
  Beta virt. eigenvalues --    3.38020   3.38335   3.41139   3.43623   3.45257
  Beta virt. eigenvalues --    3.48008   3.50782   3.54096   3.55523   3.58664
  Beta virt. eigenvalues --    3.59463   3.65451   3.66592   3.69655   3.72723
  Beta virt. eigenvalues --    3.73413   3.75984   3.81545   3.82146   3.98285
  Beta virt. eigenvalues --    4.03030   4.03955   4.09888   4.10897   4.14226
  Beta virt. eigenvalues --    4.18842   4.20679   4.23787   4.24300   4.34963
  Beta virt. eigenvalues --    4.48619   4.70035   4.81651   4.84428   5.00429
  Beta virt. eigenvalues --    5.02134   5.08213   5.14844   5.31179   5.41102
  Beta virt. eigenvalues --    5.66550   5.78948   5.82221  23.51808  23.72863
  Beta virt. eigenvalues --   23.76016  23.80054  23.85784  23.87154  23.88833
  Beta virt. eigenvalues --   23.90630  23.93573  23.97485  23.99878  24.09545
  Beta virt. eigenvalues --   24.10901  24.13970  24.15146  24.17861  24.26826
  Beta virt. eigenvalues --   49.95587  49.98171  50.07611
          Condensed to atoms (all electrons):
               1          2          3          4          5          6
     1  C    9.651368  -0.198791  -0.628231  -1.522371   0.208402   2.785553
     2  C   -0.198791   6.936231   0.653009   0.323646   0.656192  -0.829732
     3  C   -0.628231   0.653009   6.143754   0.245727  -0.207858   0.079345
     4  C   -1.522371   0.323646   0.245727  13.553061  -0.485614  -1.120753
     5  C    0.208402   0.656192  -0.207858  -0.485614  11.354283  -0.139294
     6  C    2.785553  -0.829732   0.079345  -1.120753  -0.139294   9.435714
     7  C   -1.553527  -0.504954  -0.013237   2.115801  -1.563754  -1.157237
     8  C   -1.163050  -0.483604  -0.082538  -2.136708  -2.695583  -0.879737
     9  C   -0.365658  -0.432491  -0.044027  -3.259153  -0.922456  -0.614976
    10  C   -1.658229   0.079988  -0.084654   1.177841  -0.059866  -2.168027
    11  C    0.008231  -0.023672  -0.052519  -0.980705  -0.998253  -0.014114
    12  C    0.040123   0.058496   0.017700   0.804092   0.175055  -0.151675
    13  C    0.045656  -0.054866   0.025246  -0.767762   0.982087   0.252570
    14  C    0.182863  -0.208829  -0.032938  -1.942227  -0.076798   0.409439
    15  O    0.017228   0.004669   0.000686   0.147683   0.000333  -0.003554
    16  O   -0.000313  -0.000090  -0.000004   0.002994   0.002587   0.000701
    17  H    0.482081  -0.071733   0.005355  -0.039371  -0.018352   0.069654
    18  H   -0.043184   0.407138  -0.048694   0.030996  -0.011153  -0.000306
    19  H   -0.035001  -0.012893   0.405669  -0.002459   0.047989  -0.076637
    20  H    0.102999   0.009993  -0.067691  -0.073332  -0.022335   0.543459
    21  H   -0.105257  -0.008165   0.005273  -0.248253  -0.044356  -0.055244
    22  H   -0.118193  -0.009628   0.026377   0.021657  -0.169937  -0.237854
    23  H   -0.000630   0.000030   0.000923  -0.008733   0.004763   0.000801
    24  O   -0.002012  -0.000460   0.000338   0.014336   0.026134   0.004221
    25  C    0.000228  -0.002294  -0.003463  -0.031596  -0.000101  -0.017050
    26  C   -0.000773   0.000419  -0.000379   0.012410  -0.050641   0.024107
    27  C   -0.000094  -0.000039  -0.000311  -0.002851  -0.005609  -0.001971
    28  H   -0.000132   0.000106   0.000080   0.002019   0.001414  -0.000740
    29  H    0.000332  -0.000133  -0.000357  -0.000953   0.003605   0.000562
    30  H    0.000110  -0.000028  -0.000105  -0.000167  -0.001413   0.000368
    31  H   -0.000008   0.000008   0.000021   0.000010  -0.000225  -0.000085
    32  H    0.000007  -0.000002  -0.000013  -0.000013  -0.000246   0.000257
               7          8          9         10         11         12
     1  C   -1.553527  -1.163050  -0.365658  -1.658229   0.008231   0.040123
     2  C   -0.504954  -0.483604  -0.432491   0.079988  -0.023672   0.058496
     3  C   -0.013237  -0.082538  -0.044027  -0.084654  -0.052519   0.017700
     4  C    2.115801  -2.136708  -3.259153   1.177841  -0.980705   0.804092
     5  C   -1.563754  -2.695583  -0.922456  -0.059866  -0.998253   0.175055
     6  C   -1.157237  -0.879737  -0.614976  -2.168027  -0.014114  -0.151675
     7  C    9.591684   1.324462  -0.277059   1.536541  -3.185128   1.715181
     8  C    1.324462  13.810705   2.527830   1.319156  -1.124830  -2.559630
     9  C   -0.277059   2.527830  10.075224   0.292027   0.471355  -0.877002
    10  C    1.536541   1.319156   0.292027   8.551831  -0.816946   0.257292
    11  C   -3.185128  -1.124830   0.471355  -0.816946  15.998746  -4.866945
    12  C    1.715181  -2.559630  -0.877002   0.257292  -4.866945  16.434481
    13  C   -1.383012  -1.161745  -2.813878  -0.888542  -0.208957  -0.724824
    14  C   -1.418793  -1.119770   2.287478  -1.895141   1.945849  -3.746402
    15  O    0.289891  -0.343577  -0.103836   0.040768   0.402064  -0.071749
    16  O    0.001759   0.002839  -0.026748   0.001362  -0.156621   0.164332
    17  H   -0.021724  -0.047560  -0.021639  -0.025560   0.023922   0.007661
    18  H    0.011057   0.000038  -0.001428  -0.008105  -0.002663  -0.000624
    19  H   -0.008231  -0.000373  -0.001472   0.020410   0.001232   0.000584
    20  H   -0.028573  -0.043780  -0.035214  -0.087288  -0.002731  -0.004949
    21  H    0.389553   0.270146   0.107231   0.021294  -0.013912  -0.047538
    22  H    0.097522   0.120425   0.197081   0.487723   0.012469   0.034687
    23  H   -0.000959  -0.017302  -0.012652  -0.005349  -0.147420  -0.007382
    24  O    0.018669  -0.026361  -0.338548   0.095355  -0.004217   0.118403
    25  C   -0.078147  -0.151827   0.042710  -0.164081   0.235267  -0.494453
    26  C   -0.013091   0.027528   0.032413   0.063100   0.061013  -0.284907
    27  C   -0.000651  -0.003883   0.014210  -0.007126   0.002439  -0.007704
    28  H    0.002015   0.000014  -0.006294   0.001999   0.003477   0.056165
    29  H   -0.007633  -0.024469  -0.030040  -0.010818   0.026264  -0.003173
    30  H   -0.001002  -0.001204   0.000071  -0.005389   0.000885  -0.002486
    31  H    0.000263   0.001294   0.002566  -0.000125  -0.001072   0.000196
    32  H   -0.000082  -0.000351  -0.001305   0.000894   0.000218  -0.001166
              13         14         15         16         17         18
     1  C    0.045656   0.182863   0.017228  -0.000313   0.482081  -0.043184
     2  C   -0.054866  -0.208829   0.004669  -0.000090  -0.071733   0.407138
     3  C    0.025246  -0.032938   0.000686  -0.000004   0.005355  -0.048694
     4  C   -0.767762  -1.942227   0.147683   0.002994  -0.039371   0.030996
     5  C    0.982087  -0.076798   0.000333   0.002587  -0.018352  -0.011153
     6  C    0.252570   0.409439  -0.003554   0.000701   0.069654  -0.000306
     7  C   -1.383012  -1.418793   0.289891   0.001759  -0.021724   0.011057
     8  C   -1.161745  -1.119770  -0.343577   0.002839  -0.047560   0.000038
     9  C   -2.813878   2.287478  -0.103836  -0.026748  -0.021639  -0.001428
    10  C   -0.888542  -1.895141   0.040768   0.001362  -0.025560  -0.008105
    11  C   -0.208957   1.945849   0.402064  -0.156621   0.023922  -0.002663
    12  C   -0.724824  -3.746402  -0.071749   0.164332   0.007661  -0.000624
    13  C   15.911805  -3.326666  -0.090831   0.057802   0.000458   0.000343
    14  C   -3.326666  14.813064  -0.124242   0.092499  -0.001686   0.000463
    15  O   -0.090831  -0.124242   8.100672   0.029269   0.001489  -0.000025
    16  O    0.057802   0.092499   0.029269   8.151580  -0.000027   0.000002
    17  H    0.000458  -0.001686   0.001489  -0.000027   0.497143  -0.012697
    18  H    0.000343   0.000463  -0.000025   0.000002  -0.012697   0.488151
    19  H   -0.001114  -0.003891   0.000010  -0.000001   0.000988  -0.011069
    20  H    0.016934   0.037386  -0.000071   0.000020   0.001780   0.001907
    21  H    0.026750   0.032943  -0.012405   0.000296  -0.006954   0.000359
    22  H   -0.113278  -0.054363   0.000736  -0.000337  -0.001094  -0.001103
    23  H    0.640164  -0.100651   0.000013  -0.024313  -0.000006  -0.000007
    24  O    0.028979  -0.069599   0.000479  -0.000878   0.000001  -0.000019
    25  C    0.176826  -0.003947  -0.002569   0.032019  -0.000085  -0.000011
    26  C   -0.937742   0.983964  -0.000137   0.003704  -0.000021   0.000015
    27  C   -0.018554   0.039005  -0.000011  -0.000007   0.000002  -0.000002
    28  H    0.104319  -0.154512   0.000003   0.000246  -0.000012   0.000002
    29  H    0.076181  -0.057401  -0.000043   0.001326  -0.000007   0.000002
    30  H   -0.002314  -0.000985   0.000001   0.000042   0.000002  -0.000000
[...]
 00638,-0.00000248,-0.00000116,0.00000743,0.00000696,0.00000614,-0.0000
 1424,-0.00000777,0.00000326,-0.00000386,0.00001987,0.00004476,0.000006
 55,-0.00003753,-0.00003861,-0.00012161,0.00003854,0.00000109,-0.000007
 41,0.00001366,-0.00002163,0.00000884,-0.00000812,0.00002471,0.00007029
 ,-0.00003997,-0.00004448,-0.00002640,0.00002549,0.00045364,0.00043683,
 -0.00019053,0.00001067,-0.00001541,0.00000539,-0.00002730,-0.00003562,
 0.00002880,0.00000007,0.00000011,0.00000060,0.00000075,-0.00000033,-0.
 00000080,0.00000135,-0.00000077,-0.00000114,0.00000025,0.00000244,-0.0
 0000207,0.00000499,-0.00000219,0.00000074,0.00000069,-0.00000574,-0.00
 000055,0.00000312,0.00004180,-0.00000607,-0.00017479,-0.00091811,0.000
 56640,0.00570840,-0.00422722,-0.00101521,-0.07259531,0.08079963,0.0514
 0698,0.17585945,0.00003862,0.00001971,-0.00002067,0.00000517,-0.000032
 48,0.00001483,-0.00000933,0.00002645,-0.00000850,-0.00002569,-0.000014
 43,0.00000192,-0.00002029,0.00000984,0.00001444,0.00004422,-0.00003068
 ,-0.00000076,0.00001199,-0.00004177,0.00002681,0.00020493,0.00003727,-
 0.00010748,0.00001415,-0.00035722,0.00023150,-0.00002251,-0.00005156,0
 .00002862,-0.00015663,0.00012193,-0.00001044,0.00021351,0.00060522,-0.
 00033776,-0.00019742,-0.00060243,0.00036942,0.00109563,0.00183551,-0.0
 0099192,0.00007392,-0.00012391,0.00003498,-0.00028194,-0.00030536,0.00
 023368,0.00000196,-0.00000562,0.00000243,0.00000512,-0.00000109,-0.000
 00074,0.00000635,0.00000080,-0.00000340,-0.00000131,0.00000646,-0.0000
 0239,0.00001880,-0.00000825,-0.00000137,-0.00002341,-0.00000947,0.0000
 0966,0.00007598,0.00009210,-0.00012482,-0.00156202,-0.00316642,0.00188
 784,0.00357731,-0.03061941,-0.00956080,0.07922824,-0.47153389,-0.15248
 234,-0.06509750,0.81041697,-0.00003610,-0.00001989,0.00001546,-0.00000
 559,0.00003172,-0.00001175,0.00000869,-0.00002454,0.00000938,0.0000158
 4,0.00001143,-0.00000835,0.00003037,0.00000765,-0.00000708,-0.00004439
 ,0.00002470,0.00000002,-0.00000689,0.00005548,-0.00001796,-0.00022973,
 -0.00003647,0.00006777,-0.00004968,0.00043891,-0.00024247,-0.00000235,
 0.00006727,-0.00002174,0.00015118,-0.00012085,0.00004189,-0.00021268,-
 0.00063690,0.00029105,0.00015293,0.00067349,-0.00046053,-0.00111543,-0
 .00078286,0.00084384,-0.00007176,0.00012733,-0.00004502,0.00029995,0.0
 0033170,-0.00023895,-0.00000312,0.00000645,-0.00000260,-0.00000563,0.0
 0000133,0.00000054,-0.00000660,-0.00000140,0.00000284,0.00000158,-0.00
 000595,-0.00000038,-0.00002024,0.00001160,0.00000111,0.00003758,0.0000
 0470,-0.00003215,-0.00005670,-0.00003876,0.00012973,-0.00201400,0.0062
 0653,-0.00187786,0.00040375,0.01208581,0.01117995,0.05096246,-0.152617
 12,-0.17198905,-0.17296242,0.05711907,0.60962657,-0.00009804,-0.000014
 55,0.00004001,0.00001826,0.00006759,-0.00005498,0.00003996,-0.00006535
 ,0.00004432,0.00007645,0.00004883,-0.00002218,0.00012120,0.00007362,-0
 .00002946,-0.00009923,0.00003182,0.00000719,-0.00009670,0.00005773,-0.
 00004273,-0.00016105,-0.00006132,0.00025624,-0.00046344,0.00086482,0.0
 0031019,-0.00004436,0.00005835,-0.00008900,0.00026075,-0.00024308,0.00
 003952,-0.00002513,-0.00125329,0.00064272,0.00079098,0.00174088,-0.001
 14052,-0.00009325,-0.00751791,0.00313988,-0.00008997,0.00013070,-0.000
 03968,0.00055370,0.00063796,-0.00043364,-0.00000788,0.00000715,-0.0000
 0755,-0.00000853,0.00000393,0.00000217,-0.00001086,-0.00000381,0.00000
 112,0.00000523,-0.00000731,0.00000344,-0.00002726,-0.00000270,-0.00002
 111,0.00016619,0.00004939,-0.00013831,0.00031592,0.00002842,-0.0001963
 6,-0.03891999,-0.00050422,-0.01591446,-0.15181959,-0.09749902,-0.07554
 826,0.00011851,-0.00434345,-0.00138956,-0.00013473,0.00015528,0.000547
 35,0.18101156,0.00010118,0.00000308,-0.00004450,-0.00000586,-0.0000732
 7,0.00005861,-0.00004898,0.00003751,-0.00003649,-0.00011790,-0.0000728
 2,0.00007097,-0.00012870,-0.00000676,-0.00000575,0.00006905,-0.0000160
 6,-0.00001260,0.00025032,-0.00002851,-0.00001038,-0.00018332,0.0001015
 5,-0.00016512,0.00016570,-0.00044508,-0.00063515,0.00012075,-0.0000898
 6,0.00014437,0.00012609,0.00011933,0.00017046,-0.00012929,-0.00063352,
 -0.00026691,-0.00154966,0.00005129,0.00031196,0.00165798,0.00439720,-0
 .00039510,-0.00002465,-0.00009477,-0.00001153,0.00019578,0.00016291,-0
 .00007523,0.00000521,-0.00000447,0.00000407,0.00000355,-0.00000224,-0.
 00000066,0.00000696,0.00000442,0.00000160,-0.00000365,0.00000260,-0.00
 000336,0.00001553,0.00000498,0.00001485,-0.00004152,-0.00001346,0.0000
 8355,0.00081632,-0.00074624,0.00167543,0.02038279,0.00655147,0.0108500
 9,-0.10534883,-0.13691423,-0.07475182,-0.01643549,-0.01898077,-0.01319
 741,-0.00136021,-0.00168254,0.00324292,0.10369766,0.14987417,-0.000035
 73,0.00000911,0.00002083,0.00001247,0.00001841,-0.00003466,0.00002631,
 -0.00001341,0.00002488,0.00006397,0.00003257,-0.00001894,0.00005026,-0
 .00001401,-0.00001991,-0.00002611,-0.00000832,0.00000880,-0.00008822,0
 .00002047,-0.00000688,0.00007002,-0.00004905,0.00002850,-0.00012209,0.
 00020866,-0.00010553,0.00001326,-0.00001262,-0.00005798,-0.00016773,-0
 .00005901,0.00002227,0.00052783,0.00006588,-0.00003109,-0.00036381,-0.
 00005997,-0.00018934,-0.00088197,-0.00135675,0.00129296,0.00009518,-0.
 00008998,0.00002581,-0.00007801,-0.00002885,0.00002698,-0.00000018,-0.
 00000064,0.00000019,0.00000071,0.00000081,0.00000048,-0.00000009,-0.00
 000198,-0.00000284,0.00000036,0.00000116,0.00000071,-0.00000368,-0.000
 00123,0.00000216,0.00001917,0.00000832,0.00000491,0.00023074,0.0005593
 2,-0.00101116,-0.00042357,0.00316098,0.00238712,-0.07717570,-0.0699303
 3,-0.11035885,0.01193317,0.01050183,0.01015783,0.00009814,0.00128203,-
 0.00089326,0.08656038,0.07359165,0.11046122,-0.00008981,-0.00002150,0.
 00002402,0.00001519,0.00007060,-0.00002646,0.00002570,-0.00006826,0.00
 000773,0.00005928,0.00003921,-0.00003344,0.00008896,0.00003407,-0.0000
 7984,-0.00008677,0.00003098,0.00000683,-0.00007974,0.00007065,0.000009
 03,-0.00021601,-0.00018726,-0.00002428,-0.00064180,0.00027178,-0.00061
 396,-0.00002637,0.00010786,-0.00000489,0.00027857,-0.00017578,0.000047
 72,-0.00024696,-0.00101536,0.00050718,0.00104030,0.00148718,-0.0010833
 1,0.00029693,-0.00583805,0.00383274,-0.00011166,0.00016002,-0.00005185
 ,0.00044860,0.00049445,-0.00040775,-0.00000435,0.00001188,0.00000256,-
 0.00000887,0.00000262,-0.00000002,-0.00000925,-0.00000084,0.00000650,0
 .00000506,-0.00000826,0.00000227,-0.00001174,0.00002004,0.00002680,0.0
 0017310,0.00010119,-0.00000998,0.00009511,0.00012719,0.00009686,-0.023
 13996,0.01792559,0.02566642,-0.06540832,0.00859917,0.05979907,-0.00013
 180,-0.00090767,0.00613190,-0.00047014,0.00089201,-0.00057283,0.008384
 46,-0.00379982,-0.01911333,0.07844761,0.00011605,0.00001653,-0.0000133
 5,-0.00002889,-0.00009527,0.00001868,-0.00003918,0.00007487,0.00001605
 ,-0.00012361,-0.00006096,0.00009146,-0.00012966,0.00000105,0.00002886,
 0.00008169,-0.00000733,-0.00001301,0.00020486,-0.00009227,-0.00007983,
 -0.00004156,0.00022896,0.00006678,0.00051022,-0.00020331,0.00052109,0.
 00001086,-0.00014521,-0.00002160,0.00005955,0.00003384,-0.00022416,-0.
 00027663,0.00024623,0.00040079,-0.00078895,-0.00037302,0.00020941,0.00
 117572,0.00429078,-0.00348289,-0.00004941,0.00001406,0.00005194,0.0000
 1936,-0.00006582,-0.00000650,0.00000310,-0.00000640,-0.00000153,0.0000
 0424,-0.00000160,0.00000132,0.00000371,-0.00000035,-0.00000818,-0.0000
 0254,0.00000457,0.00000042,0.00001109,-0.00000997,-0.00001757,-0.00008
 959,-0.00005449,0.00000333,-0.00035111,-0.00160073,-0.00034218,0.01312
 906,-0.00990965,-0.01307438,0.01023943,-0.05806209,-0.04171470,-0.0084
 5689,0.00503959,0.02787867,-0.00052104,0.00159932,0.00106398,0.0039843
 1,-0.00188548,-0.01738400,-0.01807936,0.06566699,-0.00002610,-0.000005
 63,0.00000249,-0.00000737,0.00002291,-0.00000657,0.00000818,-0.0000027
 2,-0.00000760,0.00003928,0.00003621,-0.00000839,0.00001880,-0.00003350
 ,-0.00001118,-0.00000652,0.00000101,-0.00000385,-0.00010804,-0.0000021
 1,0.00004148,0.00013183,-0.00006643,-0.00005600,-0.00009237,-0.0003650
 0,-0.00022803,-0.00005641,0.00009471,0.00002890,-0.00001404,0.00013547
 ,0.00010470,-0.00032117,0.00054510,-0.00052009,0.00091157,-0.00079800,
 -0.00015164,-0.00013223,0.00118275,0.00095584,-0.00001898,0.00003896,-
 0.00005900,-0.00025097,-0.00027134,0.00025427,-0.00000062,0.00000143,0
 .00000027,0.00000023,0.00000020,0.00000036,-0.00000096,0.00000018,0.00
 000174,-0.00000002,-0.00000038,-0.00000069,0.00000254,0.00000304,0.000
 00613,-0.00002807,0.00000900,0.00003002,-0.00046218,0.00069249,0.00064
 996,0.00222931,-0.00059409,0.00765487,0.06539465,-0.04331340,-0.286214
 25,0.00397947,-0.00250674,-0.01555735,-0.00028901,-0.00128891,0.001409
 60,0.00369122,-0.00142550,-0.01227530,-0.07462979,0.04492084,0.3032084
 6,0.00001559,0.00000268,-0.00000894,0.00000075,-0.00001261,0.00000555,
 -0.00000582,0.00000700,-0.00000545,-0.00000429,0.00000322,0.00002166,-
 0.00001811,-0.00001263,-0.00001065,0.00001653,-0.00000408,0.00000444,0
 .00001011,-0.00002150,-0.00001376,0.00005159,0.00003235,0.00000554,0.0
 0003851,-0.00008854,0.00003948,0.00000655,-0.00001241,0.00000722,-0.00
 004427,0.00004116,-0.00001547,0.00005482,0.00018260,-0.00008993,-0.000
 09495,-0.00017519,0.00011388,0.00014196,0.00042642,-0.00031694,0.00002
 232,-0.00004285,0.00001474,-0.00009122,-0.00010292,0.00007878,0.000001
 00,-0.00000207,0.00000157,0.00000218,-0.00000085,-0.00000025,0.0000020
 6,0.00000112,-0.00000019,-0.00000243,0.00000149,-0.00000203,0.00000497
 ,-0.00000145,0.00000095,-0.00002535,0.00000485,0.00000667,0.00002274,0
 .00001122,-0.00002467,0.00126552,-0.00151056,0.00006511,-0.00053875,0.
 00213467,0.00513733,-0.07063029,0.00839796,0.08799881,0.00452718,-0.00
 013026,0.00647163,0.00025091,0.00056181,-0.00022625,0.00125201,-0.0007
 9893,0.00042080,0.06050078,0.00000231,0.00000542,-0.00000284,0.0000045
 5,-0.00000483,-0.00000142,0.00000132,0.00000357,0.00000267,0.00000895,
 0.00000356,0.00000489,-0.00000585,-0.00000717,-0.00000979,0.00000715,-
 0.00000867,-0.00000319,-0.00001111,-0.00000315,-0.00000288,0.00005043,
 0.00000388,-0.00000051,0.00000038,-0.00003856,-0.00000375,0.00002654,-
 0.00001040,0.00002115,-0.00006984,0.00001546,0.00001302,0.00017874,0.0
 0014394,-0.00012428,-0.00014920,-0.00023543,0.00004963,-0.00001612,0.0
 0018144,-0.00024332,0.00003899,-0.00005042,0.00001254,-0.00008577,-0.0
 0007486,0.00005512,0.00000088,-0.00000188,0.00000091,0.00000123,-0.000
 00019,-0.00000024,0.00000146,0.00000045,-0.00000063,-0.00000013,0.0000
 0247,-0.00000003,0.00000237,-0.00000214,0.00000037,0.00000565,-0.00001
 807,0.00000910,0.00017007,0.00006707,-0.00000768,-0.00062793,0.0017122
 9,-0.00106827,-0.00899056,0.00295188,0.02708275,0.00805541,-0.05875525
 ,-0.02342791,0.01035818,-0.00088776,-0.02972149,0.00003475,0.00094594,
 -0.00089708,-0.00022507,-0.00427888,0.00232791,-0.00976311,0.06113212,
 -0.00000585,-0.00000621,0.00000366,-0.00000405,0.00000519,-0.00000239,
 0.00000154,-0.00000377,0.00000269,0.00000369,0.00000601,0.00001073,-0.
 00000447,-0.00001310,-0.00000871,-0.00000856,0.00001070,-0.00000018,0.
 00000174,0.00000048,-0.00001244,-0.00004796,0.00000017,0.00003043,-0.0
 0000247,0.00005625,-0.00004908,0.00000203,0.00003840,-0.00000102,0.000
 05683,-0.00000996,-0.00000829,-0.00012378,-0.00012260,0.00007392,0.000
 10960,0.00003287,-0.00006892,-0.00021153,-0.00010832,0.00026473,-0.000
 02855,0.00003338,-0.00000901,0.00005874,0.00005778,-0.00003458,-0.0000
 0011,0.00000057,-0.00000059,-0.00000093,0.00000006,0.00000016,-0.00000
 174,-0.00000015,0.00000025,-0.00000031,-0.00000215,0.00000086,-0.00000
 358,0.00000238,0.00000010,-0.00001520,0.00000078,-0.00000417,-0.000098
 07,-0.00004545,0.00004113,-0.00012401,-0.00046886,0.00067671,0.0055798
 0,-0.00277834,-0.01222208,0.08903955,-0.02547235,-0.29573015,0.0047233
 0,0.00005202,-0.00783141,0.00000724,0.00055355,0.00043809,0.00072082,0
 .00228985,0.00000089,-0.10031214,0.02734235,0.31219881,-0.00000243,-0.
 00000027,0.00000263,-0.00000022,0.00000115,-0.00000206,0.00000034,-0.0
 0000222,0.00000169,0.00000144,-0.00000108,-0.00000253,-0.00000052,-0.0
 0000189,0.00000018,-0.00000394,0.00000222,-0.00000205,0.00000389,0.000
 01238,-0.00000437,-0.00004305,-0.00000648,0.00000590,0.00001672,0.0000
 9649,-0.00005878,0.00000694,0.00000124,-0.00001107,0.00000782,-0.00000
 601,0.00001376,0.00001258,-0.00005894,0.00000156,-0.00003322,0.0000295
 9,-0.00001627,-0.00029723,0.00001293,0.00021232,-0.00000189,0.00000142
 ,-0.00000393,0.00001739,0.00002609,-0.00001444,0.00000012,0.00000014,0
 .00000021,-0.00000031,0.00000016,0.00000042,-0.00000047,0.00000013,0.0
 0000032,0.00000043,-0.00000046,0.00000142,-0.00000335,0.00000232,0.000
 00147,0.00000327,0.00000025,0.00000576,0.00003900,-0.00000845,0.000002
 66,-0.00015627,0.00162949,-0.00034739,-0.00710297,-0.00213046,-0.00308
 820,0.00411981,0.00026859,0.00810397,-0.06872049,0.01184060,0.09071625
 ,0.00021451,-0.00113471,0.00015882,0.00020811,0.00017948,-0.00056761,0
 .01017694,0.00148096,0.00348634,0.05982046,-0.00000362,-0.00000228,0.0
 0000186,-0.00000055,0.00000362,-0.00000077,0.00000063,-0.00000305,-0.0
 0000057,0.00000280,0.00000285,0.00000092,0.00000131,-0.00000308,-0.000
 00581,-0.00000344,0.00000396,0.00000337,-0.00000285,0.00000113,-0.0000
 0362,-0.00001445,-0.00000009,0.00001155,-0.00001236,0.00001993,-0.0000
 2734,-0.00000141,0.00000938,-0.00000131,0.00001583,-0.00001073,-0.0000
 0025,-0.00002284,-0.00004871,0.00002162,0.00003039,0.00003774,-0.00001
 441,-0.00006623,-0.00011265,0.00006563,-0.00000790,0.00001204,-0.00000
 306,0.00002084,0.00002505,-0.00001834,-0.00000024,0.00000068,-0.000000
 09,-0.00000051,0.00000007,0.00000001,-0.00000057,-0.00000003,0.0000004
 8,-0.00000008,-0.00000093,-0.00000053,-0.00000112,0.00000116,0.0000006
 7,0.00000047,0.00000181,-0.00000146,-0.00001096,-0.00000922,0.00001743
 ,-0.00017842,0.00039669,0.00023571,0.00019665,0.00140112,-0.00214451,0
 .01008089,-0.00041132,-0.02809086,0.00981399,-0.05988225,-0.02432214,0
 .00004251,-0.00001062,0.00016489,-0.00026642,-0.00052905,0.00061479,0.
 00135310,-0.00400456,-0.00122345,-0.01337479,0.05755586,0.00000091,0.0
 0000083,-0.00000197,0.00000103,-0.00000139,0.00000080,0.00000037,0.000
 00109,0.00000006,0.00000145,-0.00000016,0.00000058,-0.00000126,-0.0000
 0363,0.00000340,0.00000170,-0.00000150,-0.00000183,0.00000012,0.000001
 06,0.00000084,0.00000234,-0.00000190,-0.00000762,0.00000644,0.00000876
 ,-0.00002111,0.00000818,0.00000195,0.00000059,-0.00001624,0.00000899,0
 .00000386,0.00003523,0.00004573,-0.00004184,-0.00002776,-0.00008342,0.
 00004523,-0.00011365,0.00012217,0.00003959,0.00000924,-0.00001484,0.00
 000367,-0.00002758,-0.00002657,0.00002384,0.00000029,-0.00000053,0.000
 00027,0.00000055,-0.00000032,-0.00000014,0.00000045,0.00000011,-0.0000
 0022,-0.00000044,0.00000016,-0.00000054,0.00000033,0.00000007,0.000001
 24,-0.00000514,-0.00000343,0.00000265,0.00003633,0.00000697,-0.0000087
 5,0.00001304,0.00048669,-0.00000229,-0.00304047,0.00114773,0.00012895,
 0.00542030,0.00044301,-0.00863810,0.09092453,-0.02891035,-0.29800515,0
 .00002808,-0.00030221,0.00022821,-0.00006699,-0.00089008,0.00032275,0.
 00337912,-0.00162552,0.00201629,-0.10130899,0.03338392,0.31358194,0.00
 000762,0.00000450,0.00000051,-0.00000125,-0.00000548,0.00000110,-0.000
 00253,0.00000251,-0.00000501,-0.00000590,0.00000249,0.00001140,-0.0000
 0618,-0.00000378,-0.00001306,0.00000935,0.00000244,0.00000740,-0.00000
 135,-0.00002890,-0.00000092,0.00006877,0.00001998,0.00000267,-0.000020
 09,-0.00018099,0.00010006,-0.00001916,-0.00000531,0.00001312,0.0000029
 2,0.00002846,-0.00002238,-0.00004609,0.00009044,-0.00002153,0.00002569
 ,-0.00009682,0.00000622,0.00057284,0.00006623,-0.00030674,-0.00000507,
 -0.00000629,0.00000628,-0.00003641,-0.00004769,0.00003059,0.00000028,-
 0.00000118,0.00000027,0.00000081,-0.00000021,-0.00000003,0.00000069,0.
 00000059,-0.00000007,-0.00000033,0.00000074,0.00000023,0.00000682,-0.0
 0000297,-0.00000227,-0.00000633,0.00000498,-0.00000391,-0.00007754,0.0
 0000159,0.00003114,0.00039814,-0.00344748,0.00110211,0.01149724,0.0043
 8036,0.00399179,0.00516371,0.00414544,-0.00360690,-0.04442285,-0.02997
 548,0.02761659,-0.00022857,0.00213588,-0.00115433,-0.00013546,0.000044
 62,0.00018457,-0.00690954,-0.00048561,-0.00279793,0.00171663,-0.007590
 67,0.00473847,0.03245314,0.00001612,0.00000737,-0.00000800,0.00000232,
 -0.00001338,0.00000630,-0.00000474,0.00001018,-0.00000576,-0.00000695,
 -0.00000392,0.00000474,-0.00001290,-0.00000201,0.00000492,0.00002015,-
 0.00001022,0.00000308,0.00000241,-0.00001943,0.00000439,0.00008516,0.0
 0002144,-0.00002950,0.00002358,-0.00014334,0.00008391,-0.00000008,-0.0
 0002461,0.00000570,-0.00006629,0.00005100,-0.00000711,0.00007898,0.000
 25968,-0.00015355,-0.00006479,-0.00029787,0.00018598,0.00030770,0.0006
 2540,-0.00041079,0.00003198,-0.00005193,0.00001614,-0.00012595,-0.0001
 3875,0.00010516,0.00000100,-0.00000233,0.00000099,0.00000236,-0.000000
 73,-0.00000039,0.00000299,0.00000069,-0.00000086,-0.00000097,0.0000021
 6,-0.00000111,0.00000749,-0.00000385,-0.00000003,-0.00001891,-0.000003
 76,0.00000767,0.00003391,0.00003679,-0.00003478,0.00021133,-0.00187106
 ,0.00068665,0.00146497,-0.00087141,-0.00303523,-0.00435845,-0.01995678
 ,0.01782831,-0.02918590,-0.24541503,0.12681631,-0.00019971,-0.00055573
 ,0.00028111,0.00014715,0.00016511,0.00004677,-0.00048171,0.00121273,-0
 .00022807,0.00114013,0.00555548,-0.00379338,0.03094763,0.26143811,0.00
 000508,0.00000284,-0.00000121,0.00000009,-0.00000424,0.00000066,-0.000
 00121,0.00000286,-0.00000183,-0.00000231,0.00000077,0.00000538,-0.0000
 0416,-0.00000338,-0.00000689,0.00000616,-0.00000129,0.00000274,-0.0000
 0195,-0.00001466,0.00000106,0.00004463,0.00000759,-0.00000676,-0.00001
 113,-0.00010344,0.00004601,-0.00000495,-0.00000194,0.00000948,-0.00001
 143,0.00001783,-0.00000993,0.00000556,0.00008391,-0.00003754,0.0000133
 9,-0.00010025,0.00004042,0.00030024,0.00006715,-0.00010819,0.00000491,
 -0.00001367,0.00000574,-0.00003830,-0.00004343,0.00003201,0.00000034,-
 0.00000082,0.00000041,0.00000068,-0.00000013,-0.00000006,0.00000080,0.
 00000024,-0.00000020,-0.00000027,0.00000072,0.00000010,0.00000428,-0.0
 0000192,-0.00000023,-0.00000559,0.00000161,0.00000147,-0.00001612,0.00
 001104,-0.00000160,0.00015454,-0.00155322,0.00069546,0.00417519,-0.000
 33902,0.00061017,-0.00095857,-0.01400911,0.00934639,0.02670720,0.13254
 341,-0.14193405,-0.00025330,0.00056563,-0.00012622,-0.00016974,-0.0002
 8952,0.00042721,-0.00274663,0.00021841,0.00022360,0.00271200,0.0213356
 5,-0.00967521,-0.02990943,-0.13837960,0.14046160\\0.00000176,-0.000003
 00,-0.00000041,-0.00000215,-0.00000402,-0.00000056,-0.00000162,-0.0000
 0144,-0.00000334,-0.00000140,-0.00000059,0.00000002,-0.00000390,-0.000
 00432,0.00000172,-0.00000034,0.00000328,-0.00000482,0.00000306,-0.0000
 0806,0.00000421,-0.00001948,0.00000208,0.00000539,-0.00000886,0.000003
 09,0.00000059,0.00000211,0.00000199,-0.00000325,0.00002972,0.00003120,
 -0.00001999,0.00000999,0.00002163,-0.00000418,-0.00000279,0.00001950,-
 0.00000682,0.00000696,-0.00003947,0.00002108,-0.00000591,-0.00002325,0
 .00001739,-0.00001132,-0.00000859,0.00001150,-0.00000074,-0.00000079,0
 .,-0.00000107,-0.00000185,-0.00000255,-0.00000077,-0.00000365,-0.00000
 373,-0.00000109,-0.00000302,-0.00000290,0.00000303,0.00000279,0.000000
 03,0.00000144,-0.00000192,-0.00000165,-0.00000113,-0.00000141,0.000004
 42,-0.00001466,0.00003161,-0.00000685,0.00002045,-0.00002160,0.0000065
 4,-0.00000109,0.00000168,-0.00000607,0.00000191,0.00000217,0.00000082,
 -0.00000027,0.00000106,0.00000047,-0.00000267,0.00000385,0.00000022,-0
 .00000350,0.00000004,-0.00000257,0.00000180,0.00000102,-0.00000147,0.0
 0000253,-0.00000002,-0.00000322\\\@


 THOSE WITH THE GOLD MAKE THE RULES.

             -- PETER'S GOLDEN RULE
 Job cpu time:       0 days 11 hours 28 minutes 12.9 seconds.
 Elapsed time:       0 days  1 hours 33 minutes 22.4 seconds.
 File lengths (MBytes):  RWF=   1743 Int=      0 D2E=      0 Chk=     42 Scr=      1
 Normal termination of Gaussian 16 at Sun Feb 11 17:38:34 2024.
