 Entering Gaussian System, Link 0=g16
 Input=314-an.com
 Output=314-an.log
 Initial command:
 /sysapps/ubuntu-applications/gaussian/Gaussian/AVX2/g16/l1.exe "/scratch/selhajj1/4235720/Gau-3197742.inp" -scrdir="/scratch/selhajj1/4235720/"
 Entering Link 1 = /sysapps/ubuntu-applications/gaussian/Gaussian/AVX2/g16/l1.exe PID=   3197748.
  
 Copyright (c) 1988,1990,1992,1993,1995,1998,2003,2009,2016,
            Gaussian, Inc.  All Rights Reserved.
  
 This is part of the Gaussian(R) 16 program.  It is based on
 the Gaussian(R) 09 system (copyright 2009, Gaussian, Inc.),
 the Gaussian(R) 03 system (copyright 2003, Gaussian, Inc.),
 the Gaussian(R) 98 system (copyright 1998, Gaussian, Inc.),
 the Gaussian(R) 94 system (copyright 1995, Gaussian, Inc.),
 the Gaussian 92(TM) system (copyright 1992, Gaussian, Inc.),
 the Gaussian 90(TM) system (copyright 1990, Gaussian, Inc.),
 the Gaussian 88(TM) system (copyright 1988, Gaussian, Inc.),
 the Gaussian 86(TM) system (copyright 1986, Carnegie Mellon
 University), and the Gaussian 82(TM) system (copyright 1983,
 Carnegie Mellon University). Gaussian is a federally registered
 trademark of Gaussian, Inc.
  
 This software contains proprietary and confidential information,
 including trade secrets, belonging to Gaussian, Inc.
  
 This software is provided under written license and may be
 used, copied, transmitted, or stored only in accord with that
 written license.
  
 The following legend is applicable only to US Government
 contracts under FAR:
  
                    RESTRICTED RIGHTS LEGEND
  
 Use, reproduction and disclosure by the US Government is
 subject to restrictions as set forth in subparagraphs (a)
 and (c) of the Commercial Computer Software - Restricted
 Rights clause in FAR 52.227-19.
  
 Gaussian, Inc.
 340 Quinnipiac St., Bldg. 40, Wallingford CT 06492
  
  
 ---------------------------------------------------------------
 Warning -- This program may not be used in any manner that
 competes with the business of Gaussian, Inc. or will provide
 assistance to any competitor of Gaussian, Inc.  The licensee
 of this program is prohibited from giving any competitor of
 Gaussian, Inc. access to this program.  By using this program,
 the user acknowledges that Gaussian, Inc. is engaged in the
 business of creating and licensing software in the field of
 computational chemistry and represents and warrants to the
 licensee that it is not a competitor of Gaussian, Inc. and that
 it will not use this program in any manner prohibited above.
 ---------------------------------------------------------------
  

 Cite this work as:
 Gaussian 16, Revision A.03,
 M. J. Frisch, G. W. Trucks, H. B. Schlegel, G. E. Scuseria, 
 M. A. Robb, J. R. Cheeseman, G. Scalmani, V. Barone, 
 G. A. Petersson, H. Nakatsuji, X. Li, M. Caricato, A. V. Marenich, 
 J. Bloino, B. G. Janesko, R. Gomperts, B. Mennucci, H. P. Hratchian, 
 J. V. Ortiz, A. F. Izmaylov, J. L. Sonnenberg, D. Williams-Young, 
 F. Ding, F. Lipparini, F. Egidi, J. Goings, B. Peng, A. Petrone, 
 T. Henderson, D. Ranasinghe, V. G. Zakrzewski, J. Gao, N. Rega, 
 G. Zheng, W. Liang, M. Hada, M. Ehara, K. Toyota, R. Fukuda, 
 J. Hasegawa, M. Ishida, T. Nakajima, Y. Honda, O. Kitao, H. Nakai, 
 T. Vreven, K. Throssell, J. A. Montgomery, Jr., J. E. Peralta, 
 F. Ogliaro, M. J. Bearpark, J. J. Heyd, E. N. Brothers, K. N. Kudin, 
 V. N. Staroverov, T. A. Keith, R. Kobayashi, J. Normand, 
 K. Raghavachari, A. P. Rendell, J. C. Burant, S. S. Iyengar, 
 J. Tomasi, M. Cossi, J. M. Millam, M. Klene, C. Adamo, R. Cammi, 
 J. W. Ochterski, R. L. Martin, K. Morokuma, O. Farkas, 
 J. B. Foresman, and D. J. Fox, Gaussian, Inc., Wallingford CT, 2016.
 
 ******************************************
 Gaussian 16:  ES64L-G16RevA.03 25-Dec-2016
                28-Dec-2023 
 ******************************************
 %chk=314-an.chk
 %nproc=8
 Will use up to    8 processors via shared memory.
 %mem=30GB
 --------------------------------------
 #P UB3LYP/6-311++G(d,p) nosym opt freq
 --------------------------------------
 1/18=20,19=15,26=3,38=1/1,3;
 2/9=110,12=2,15=1,17=6,18=5,40=1/2;
 3/5=4,6=6,7=1111,11=2,25=1,30=1,71=1,74=-5,116=2/1,2,3;
 4//1;
 5/5=2,38=5/2;
 6/7=2,8=2,9=2,10=2,28=1/1;
 7/30=1/1,2,3,16;
 1/18=20,19=15,26=3/3(2);
 2/9=110,15=1/2;
 99//99;
 2/9=110,15=1/2;
 3/5=4,6=6,7=1111,11=2,25=1,30=1,71=1,74=-5,116=2/1,2,3;
 4/5=5,16=3,69=1/1;
 5/5=2,38=5/2;
 7/30=1/1,2,3,16;
 1/18=20,19=15,26=3/3(-5);
 2/9=110,15=1/2;
 6/7=2,8=2,9=2,10=2,19=2,28=1/1;
 99/9=1/99;
 Leave Link    1 at Thu Dec 28 19:45:52 2023, MaxMem=  4026531840 cpu:               0.6 elap:               0.1
 (Enter /sysapps/ubuntu-applications/gaussian/Gaussian/AVX2/g16/l101.exe)
 -------
 Reduced
 -------
 Symbolic Z-matrix:
 Charge = -2 Multiplicity = 1
 C                    -4.68087  -0.92261  -2.78719 
 C                    -4.06305  -1.45198  -3.92113 
 C                    -2.7158   -1.19287  -4.1631 
 C                    -3.94975  -0.12967  -1.89034 
 C                    -2.60651   0.12799  -2.12989 
 C                    -1.98703  -0.40541  -3.27039 
 C                    -4.61766   0.426    -0.70313 
 C                    -3.83602   1.29202   0.22659 
 C                    -2.52951   1.52244  -0.00092 
 C                    -1.82392   0.95687  -1.19697 
 O                    -5.8001    0.17729  -0.49362 
 O                    -0.63467   1.1517   -1.42925 
 H                    -5.73473  -1.12945  -2.60632 
 H                    -4.63389  -2.06534  -4.61496 
 H                    -2.2314   -1.60303  -5.04663 
 H                    -0.93439  -0.20825  -3.46868 
 C                    -4.65796   1.83254   1.36726 
 S                    -1.54176   2.52019   1.0372 
 C                    -0.99726   1.26495   2.1846 
 C                    -1.56616   1.19645   3.46115 
 C                    -1.1535    0.22169   4.38526 
 C                    -0.14284  -0.6962    4.01906 
 C                     0.43225  -0.6096    2.7423 
 C                     0.01273   0.3668    1.83539 
 C                    -1.72183   0.14122   5.66704 
 C                    -1.30111  -0.83249   6.57422 
 C                    -0.30773  -1.73748   6.21235 
 C                     0.26863  -1.67017   4.94292 
 H                    -5.55355   2.33648   0.98673 
 H                    -4.13258   2.56524   1.98376 
 H                    -4.97365   1.01514   2.0246 
 H                    -2.33606   1.91063   3.74489 
 H                     1.21945  -1.29874   2.44416 
 H                     0.48908   0.42108   0.8583 
 H                    -2.49833   0.8401    5.97031 
 H                    -1.7487   -0.88251   7.56349 
 H                     0.02139  -2.49543   6.91849 
 H                     1.0458   -2.38443   4.68008 
 
 ITRead=  0  0  0  0  0  0  0  0  0  0  0  0  0  0  0  0  0  0  0  0
 ITRead=  0  0  0  0  0  0  0  0  0  0  0  0  0  0  0  0  0  0
 MicOpt= -1 -1 -1 -1 -1 -1 -1 -1 -1 -1 -1 -1 -1 -1 -1 -1 -1 -1 -1 -1
 MicOpt= -1 -1 -1 -1 -1 -1 -1 -1 -1 -1 -1 -1 -1 -1 -1 -1 -1 -1
 NAtoms=     38 NQM=       38 NQMF=       0 NMMI=      0 NMMIF=      0
                NMic=       0 NMicF=      0.
                    Isotopes and Nuclear Properties:
 (Nuclear quadrupole moments (NQMom) in fm**2, nuclear magnetic moments (NMagM)
  in nuclear magnetons)

  Atom         1           2           3           4           5           6           7           8           9          10
 IAtWgt=          12          12          12          12          12          12          12          12          12          12
 AtmWgt=  12.0000000  12.0000000  12.0000000  12.0000000  12.0000000  12.0000000  12.0000000  12.0000000  12.0000000  12.0000000
 NucSpn=           0           0           0           0           0           0           0           0           0           0
 AtZEff=  -0.0000000  -0.0000000  -0.0000000  -0.0000000  -0.0000000  -0.0000000  -0.0000000  -0.0000000  -0.0000000  -0.0000000
 NQMom=    0.0000000   0.0000000   0.0000000   0.0000000   0.0000000   0.0000000   0.0000000   0.0000000   0.0000000   0.0000000
 NMagM=    0.0000000   0.0000000   0.0000000   0.0000000   0.0000000   0.0000000   0.0000000   0.0000000   0.0000000   0.0000000
 AtZNuc=   6.0000000   6.0000000   6.0000000   6.0000000   6.0000000   6.0000000   6.0000000   6.0000000   6.0000000   6.0000000

  Atom        11          12          13          14          15          16          17          18          19          20
 IAtWgt=          16          16           1           1           1           1          12          32          12          12
 AtmWgt=  15.9949146  15.9949146   1.0078250   1.0078250   1.0078250   1.0078250  12.0000000  31.9720718  12.0000000  12.0000000
 NucSpn=           0           0           1           1           1           1           0           0           0           0
 AtZEff=  -0.0000000  -0.0000000  -0.0000000  -0.0000000  -0.0000000  -0.0000000  -0.0000000  -0.0000000  -0.0000000  -0.0000000
 NQMom=    0.0000000   0.0000000   0.0000000   0.0000000   0.0000000   0.0000000   0.0000000   0.0000000   0.0000000   0.0000000
 NMagM=    0.0000000   0.0000000   2.7928460   2.7928460   2.7928460   2.7928460   0.0000000   0.0000000   0.0000000   0.0000000
 AtZNuc=   8.0000000   8.0000000   1.0000000   1.0000000   1.0000000   1.0000000   6.0000000  16.0000000   6.0000000   6.0000000

  Atom        21          22          23          24          25          26          27          28          29          30
 IAtWgt=          12          12          12          12          12          12          12          12           1           1
 AtmWgt=  12.0000000  12.0000000  12.0000000  12.0000000  12.0000000  12.0000000  12.0000000  12.0000000   1.0078250   1.0078250
 NucSpn=           0           0           0           0           0           0           0           0           1           1
 AtZEff=  -0.0000000  -0.0000000  -0.0000000  -0.0000000  -0.0000000  -0.0000000  -0.0000000  -0.0000000  -0.0000000  -0.0000000
 NQMom=    0.0000000   0.0000000   0.0000000   0.0000000   0.0000000   0.0000000   0.0000000   0.0000000   0.0000000   0.0000000
 NMagM=    0.0000000   0.0000000   0.0000000   0.0000000   0.0000000   0.0000000   0.0000000   0.0000000   2.7928460   2.7928460
 AtZNuc=   6.0000000   6.0000000   6.0000000   6.0000000   6.0000000   6.0000000   6.0000000   6.0000000   1.0000000   1.0000000

  Atom        31          32          33          34          35          36          37          38
 IAtWgt=           1           1           1           1           1           1           1           1
 AtmWgt=   1.0078250   1.0078250   1.0078250   1.0078250   1.0078250   1.0078250   1.0078250   1.0078250
 NucSpn=           1           1           1           1           1           1           1           1
 AtZEff=  -0.0000000  -0.0000000  -0.0000000  -0.0000000  -0.0000000  -0.0000000  -0.0000000  -0.0000000
 NQMom=    0.0000000   0.0000000   0.0000000   0.0000000   0.0000000   0.0000000   0.0000000   0.0000000
 NMagM=    2.7928460   2.7928460   2.7928460   2.7928460   2.7928460   2.7928460   2.7928460   2.7928460
 AtZNuc=   1.0000000   1.0000000   1.0000000   1.0000000   1.0000000   1.0000000   1.0000000   1.0000000
 Leave Link  101 at Thu Dec 28 19:45:53 2023, MaxMem=  4026531840 cpu:               3.3 elap:               0.5
 (Enter /sysapps/ubuntu-applications/gaussian/Gaussian/AVX2/g16/l103.exe)

 GradGradGradGradGradGradGradGradGradGradGradGradGradGradGradGradGradGrad
 Berny optimization.
 Initialization pass.
                           ----------------------------
                           !    Initial Parameters    !
                           ! (Angstroms and Degrees)  !
 --------------------------                            --------------------------
 ! Name  Definition              Value          Derivative Info.                !
 --------------------------------------------------------------------------------
 ! R1    R(1,2)                  1.3956         estimate D2E/DX2                !
 ! R2    R(1,4)                  1.4027         estimate D2E/DX2                !
 ! R3    R(1,13)                 1.0891         estimate D2E/DX2                !
 ! R4    R(2,3)                  1.3931         estimate D2E/DX2                !
 ! R5    R(2,14)                 1.0879         estimate D2E/DX2                !
 ! R6    R(3,6)                  1.3958         estimate D2E/DX2                !
 ! R7    R(3,15)                 1.0879         estimate D2E/DX2                !
 ! R8    R(4,5)                  1.3885         estimate D2E/DX2                !
 ! R9    R(4,7)                  1.4712         estimate D2E/DX2                !
 ! R10   R(5,6)                  1.4032         estimate D2E/DX2                !
 ! R11   R(5,10)                 1.473          estimate D2E/DX2                !
 ! R12   R(6,16)                 1.0891         estimate D2E/DX2                !
 ! R13   R(7,8)                  1.4918         estimate D2E/DX2                !
 ! R14   R(7,11)                 1.2263         estimate D2E/DX2                !
 ! R15   R(8,9)                  1.346          estimate D2E/DX2                !
 ! R16   R(8,17)                 1.5063         estimate D2E/DX2                !
 ! R17   R(9,10)                 1.4994         estimate D2E/DX2                !
 ! R18   R(9,18)                 1.7461         estimate D2E/DX2                !
 ! R19   R(10,12)                1.2273         estimate D2E/DX2                !
 ! R20   R(17,29)                1.0958         estimate D2E/DX2                !
 ! R21   R(17,30)                1.0922         estimate D2E/DX2                !
 ! R22   R(17,31)                1.0954         estimate D2E/DX2                !
 ! R23   R(18,19)                1.7857         estimate D2E/DX2                !
 ! R24   R(19,20)                1.3993         estimate D2E/DX2                !
 ! R25   R(19,24)                1.396          estimate D2E/DX2                !
 ! R26   R(20,21)                1.4051         estimate D2E/DX2                !
 ! R27   R(20,32)                1.0878         estimate D2E/DX2                !
 ! R28   R(21,22)                1.4135         estimate D2E/DX2                !
 ! R29   R(21,25)                1.4044         estimate D2E/DX2                !
 ! R30   R(22,23)                1.403          estimate D2E/DX2                !
 ! R31   R(22,28)                1.4041         estimate D2E/DX2                !
 ! R32   R(23,24)                1.3971         estimate D2E/DX2                !
 ! R33   R(23,33)                1.0879         estimate D2E/DX2                !
 ! R34   R(24,34)                1.0884         estimate D2E/DX2                !
 ! R35   R(25,26)                1.3957         estimate D2E/DX2                !
 ! R36   R(25,35)                1.0878         estimate D2E/DX2                !
 ! R37   R(26,27)                1.3917         estimate D2E/DX2                !
 ! R38   R(26,36)                1.087          estimate D2E/DX2                !
 ! R39   R(27,28)                1.3958         estimate D2E/DX2                !
 ! R40   R(27,37)                1.0869         estimate D2E/DX2                !
 ! R41   R(28,38)                1.0878         estimate D2E/DX2                !
 ! A1    A(2,1,4)              120.2097         estimate D2E/DX2                !
 ! A2    A(2,1,13)             119.4236         estimate D2E/DX2                !
 ! A3    A(4,1,13)             120.3667         estimate D2E/DX2                !
 ! A4    A(1,2,3)              119.913          estimate D2E/DX2                !
 ! A5    A(1,2,14)             119.9848         estimate D2E/DX2                !
 ! A6    A(3,2,14)             120.1022         estimate D2E/DX2                !
 ! A7    A(2,3,6)              119.9198         estimate D2E/DX2                !
 ! A8    A(2,3,15)             120.1023         estimate D2E/DX2                !
 ! A9    A(6,3,15)             119.9779         estimate D2E/DX2                !
 ! A10   A(1,4,5)              119.9207         estimate D2E/DX2                !
 ! A11   A(1,4,7)              119.5272         estimate D2E/DX2                !
 ! A12   A(5,4,7)              120.5518         estimate D2E/DX2                !
 ! A13   A(4,5,6)              119.7851         estimate D2E/DX2                !
 ! A14   A(4,5,10)             120.6036         estimate D2E/DX2                !
 ! A15   A(6,5,10)             119.6112         estimate D2E/DX2                !
 ! A16   A(3,6,5)              120.2515         estimate D2E/DX2                !
 ! A17   A(3,6,16)             119.3615         estimate D2E/DX2                !
 ! A18   A(5,6,16)             120.3869         estimate D2E/DX2                !
 ! A19   A(4,7,8)              118.9688         estimate D2E/DX2                !
 ! A20   A(4,7,11)             119.9346         estimate D2E/DX2                !
 ! A21   A(8,7,11)             121.0963         estimate D2E/DX2                !
 ! A22   A(7,8,9)              120.1737         estimate D2E/DX2                !
 ! A23   A(7,8,17)             113.2266         estimate D2E/DX2                !
 ! A24   A(9,8,17)             126.5996         estimate D2E/DX2                !
 ! A25   A(8,9,10)             121.8037         estimate D2E/DX2                !
 ! A26   A(8,9,18)             123.1208         estimate D2E/DX2                !
 ! A27   A(10,9,18)            115.061          estimate D2E/DX2                !
 ! A28   A(5,10,9)             117.8679         estimate D2E/DX2                !
 ! A29   A(5,10,12)            118.965          estimate D2E/DX2                !
 ! A30   A(9,10,12)            123.1671         estimate D2E/DX2                !
 ! A31   A(8,17,29)            110.3663         estimate D2E/DX2                !
 ! A32   A(8,17,30)            113.9342         estimate D2E/DX2                !
 ! A33   A(8,17,31)            110.1161         estimate D2E/DX2                !
 ! A34   A(29,17,30)           106.2979         estimate D2E/DX2                !
 ! A35   A(29,17,31)           108.4218         estimate D2E/DX2                !
 ! A36   A(30,17,31)           107.4873         estimate D2E/DX2                !
 ! A37   A(9,18,19)             98.7916         estimate D2E/DX2                !
 ! A38   A(18,19,20)           119.7784         estimate D2E/DX2                !
 ! A39   A(18,19,24)           120.8071         estimate D2E/DX2                !
 ! A40   A(20,19,24)           119.3986         estimate D2E/DX2                !
 ! A41   A(19,20,21)           120.9673         estimate D2E/DX2                !
 ! A42   A(19,20,32)           119.5761         estimate D2E/DX2                !
 ! A43   A(21,20,32)           119.456          estimate D2E/DX2                !
 ! A44   A(20,21,22)           119.3449         estimate D2E/DX2                !
 ! A45   A(20,21,25)           121.4082         estimate D2E/DX2                !
 ! A46   A(22,21,25)           119.2467         estimate D2E/DX2                !
 ! A47   A(21,22,23)           119.2591         estimate D2E/DX2                !
 ! A48   A(21,22,28)           119.3085         estimate D2E/DX2                !
 ! A49   A(23,22,28)           121.4316         estimate D2E/DX2                !
 ! A50   A(22,23,24)           120.717          estimate D2E/DX2                !
 ! A51   A(22,23,33)           120.4583         estimate D2E/DX2                !
 ! A52   A(24,23,33)           118.8232         estimate D2E/DX2                !
 ! A53   A(19,24,23)           120.2999         estimate D2E/DX2                !
 ! A54   A(19,24,34)           120.6073         estimate D2E/DX2                !
 ! A55   A(23,24,34)           119.0912         estimate D2E/DX2                !
 ! A56   A(21,25,26)           120.7433         estimate D2E/DX2                !
 ! A57   A(21,25,35)           120.43           estimate D2E/DX2                !
 ! A58   A(26,25,35)           118.8267         estimate D2E/DX2                !
 ! A59   A(25,26,27)           119.9878         estimate D2E/DX2                !
 ! A60   A(25,26,36)           119.9686         estimate D2E/DX2                !
 ! A61   A(27,26,36)           120.0435         estimate D2E/DX2                !
 ! A62   A(26,27,28)           119.9921         estimate D2E/DX2                !
 ! A63   A(26,27,37)           120.0443         estimate D2E/DX2                !
 ! A64   A(28,27,37)           119.9634         estimate D2E/DX2                !
 ! A65   A(22,28,27)           120.7214         estimate D2E/DX2                !
 ! A66   A(22,28,38)           120.389          estimate D2E/DX2                !
 ! A67   A(27,28,38)           118.8893         estimate D2E/DX2                !
 ! D1    D(4,1,2,3)              0.0329         estimate D2E/DX2                !
 ! D2    D(4,1,2,14)          -179.9162         estimate D2E/DX2                !
 ! D3    D(13,1,2,3)           179.9422         estimate D2E/DX2                !
 ! D4    D(13,1,2,14)           -0.0069         estimate D2E/DX2                !
 ! D5    D(2,1,4,5)             -0.1013         estimate D2E/DX2                !
 ! D6    D(2,1,4,7)            179.7111         estimate D2E/DX2                !
 ! D7    D(13,1,4,5)           179.9903         estimate D2E/DX2                !
 ! D8    D(13,1,4,7)            -0.1974         estimate D2E/DX2                !
 ! D9    D(1,2,3,6)              0.0498         estimate D2E/DX2                !
 ! D10   D(1,2,3,15)          -179.931          estimate D2E/DX2                !
 ! D11   D(14,2,3,6)           179.9989         estimate D2E/DX2                !
 ! D12   D(14,2,3,15)            0.018          estimate D2E/DX2                !
 ! D13   D(2,3,6,5)             -0.0648         estimate D2E/DX2                !
 ! D14   D(2,3,6,16)          -179.9729         estimate D2E/DX2                !
 ! D15   D(15,3,6,5)           179.9161         estimate D2E/DX2                !
 ! D16   D(15,3,6,16)            0.008          estimate D2E/DX2                !
 ! D17   D(1,4,5,6)              0.0861         estimate D2E/DX2                !
 ! D18   D(1,4,5,10)          -179.9009         estimate D2E/DX2                !
 ! D19   D(7,4,5,6)           -179.7243         estimate D2E/DX2                !
 ! D20   D(7,4,5,10)             0.2887         estimate D2E/DX2                !
 ! D21   D(1,4,7,8)           -178.6781         estimate D2E/DX2                !
 ! D22   D(1,4,7,11)             1.1132         estimate D2E/DX2                !
 ! D23   D(5,4,7,8)              1.1331         estimate D2E/DX2                !
 ! D24   D(5,4,7,11)          -179.0757         estimate D2E/DX2                !
 ! D25   D(4,5,6,3)             -0.0035         estimate D2E/DX2                !
 ! D26   D(4,5,6,16)           179.9036         estimate D2E/DX2                !
 ! D27   D(10,5,6,3)           179.9836         estimate D2E/DX2                !
 ! D28   D(10,5,6,16)           -0.1093         estimate D2E/DX2                !
 ! D29   D(4,5,10,9)            -0.8344         estimate D2E/DX2                !
 ! D30   D(4,5,10,12)          179.1043         estimate D2E/DX2                !
 ! D31   D(6,5,10,9)           179.1786         estimate D2E/DX2                !
 ! D32   D(6,5,10,12)           -0.8827         estimate D2E/DX2                !
 ! D33   D(4,7,8,9)             -2.0776         estimate D2E/DX2                !
 ! D34   D(4,7,8,17)           177.7906         estimate D2E/DX2                !
 ! D35   D(11,7,8,9)           178.1336         estimate D2E/DX2                !
 ! D36   D(11,7,8,17)           -1.9981         estimate D2E/DX2                !
 ! D37   D(7,8,9,10)             1.5576         estimate D2E/DX2                !
 ! D38   D(7,8,9,18)          -179.8995         estimate D2E/DX2                !
 ! D39   D(17,8,9,10)         -178.2916         estimate D2E/DX2                !
 ! D40   D(17,8,9,18)            0.2513         estimate D2E/DX2                !
 ! D41   D(7,8,17,29)          -53.2943         estimate D2E/DX2                !
 ! D42   D(7,8,17,30)         -172.7847         estimate D2E/DX2                !
 ! D43   D(7,8,17,31)           66.3722         estimate D2E/DX2                !
 ! D44   D(9,8,17,29)          126.5639         estimate D2E/DX2                !
 ! D45   D(9,8,17,30)            7.0735         estimate D2E/DX2                !
 ! D46   D(9,8,17,31)         -113.7697         estimate D2E/DX2                !
 ! D47   D(8,9,10,5)            -0.1227         estimate D2E/DX2                !
 ! D48   D(8,9,10,12)          179.9414         estimate D2E/DX2                !
 ! D49   D(18,9,10,5)         -178.7756         estimate D2E/DX2                !
 ! D50   D(18,9,10,12)           1.2885         estimate D2E/DX2                !
 ! D51   D(8,9,18,19)           88.859          estimate D2E/DX2                !
 ! D52   D(10,9,18,19)         -92.508          estimate D2E/DX2                !
 ! D53   D(9,18,19,20)        -104.0698         estimate D2E/DX2                !
 ! D54   D(9,18,19,24)          77.3856         estimate D2E/DX2                !
 ! D55   D(18,19,20,21)       -179.7946         estimate D2E/DX2                !
 ! D56   D(18,19,20,32)         -0.0738         estimate D2E/DX2                !
 ! D57   D(24,19,20,21)         -1.2295         estimate D2E/DX2                !
 ! D58   D(24,19,20,32)        178.4913         estimate D2E/DX2                !
 ! D59   D(18,19,24,23)        179.8825         estimate D2E/DX2                !
 ! D60   D(18,19,24,34)          0.3436         estimate D2E/DX2                !
 ! D61   D(20,19,24,23)          1.3324         estimate D2E/DX2                !
 ! D62   D(20,19,24,34)       -178.2064         estimate D2E/DX2                !
 ! D63   D(19,20,21,22)          0.3891         estimate D2E/DX2                !
 ! D64   D(19,20,21,25)       -179.7483         estimate D2E/DX2                !
 ! D65   D(32,20,21,22)       -179.332          estimate D2E/DX2                !
 ! D66   D(32,20,21,25)          0.5306         estimate D2E/DX2                !
 ! D67   D(20,21,22,23)          0.3478         estimate D2E/DX2                !
 ! D68   D(20,21,22,28)       -179.9803         estimate D2E/DX2                !
 ! D69   D(25,21,22,23)       -179.5177         estimate D2E/DX2                !
 ! D70   D(25,21,22,28)          0.1541         estimate D2E/DX2                !
 ! D71   D(20,21,25,26)       -179.9819         estimate D2E/DX2                !
 ! D72   D(20,21,25,35)         -0.0855         estimate D2E/DX2                !
 ! D73   D(22,21,25,26)         -0.1192         estimate D2E/DX2                !
 ! D74   D(22,21,25,35)        179.7772         estimate D2E/DX2                !
 ! D75   D(21,22,23,24)         -0.2417         estimate D2E/DX2                !
 ! D76   D(21,22,23,33)        179.2966         estimate D2E/DX2                !
 ! D77   D(28,22,23,24)       -179.9064         estimate D2E/DX2                !
 ! D78   D(28,22,23,33)         -0.368          estimate D2E/DX2                !
 ! D79   D(21,22,28,27)         -0.0775         estimate D2E/DX2                !
 ! D80   D(21,22,28,38)       -179.9209         estimate D2E/DX2                !
 ! D81   D(23,22,28,27)        179.587          estimate D2E/DX2                !
 ! D82   D(23,22,28,38)         -0.2564         estimate D2E/DX2                !
 ! D83   D(22,23,24,19)         -0.6059         estimate D2E/DX2                !
 ! D84   D(22,23,24,34)        178.9399         estimate D2E/DX2                !
 ! D85   D(33,23,24,19)        179.8483         estimate D2E/DX2                !
 ! D86   D(33,23,24,34)         -0.6059         estimate D2E/DX2                !
 ! D87   D(21,25,26,27)          0.0048         estimate D2E/DX2                !
 ! D88   D(21,25,26,36)        179.9197         estimate D2E/DX2                !
 ! D89   D(35,25,26,27)       -179.8933         estimate D2E/DX2                !
 ! D90   D(35,25,26,36)          0.0215         estimate D2E/DX2                !
 ! D91   D(25,26,27,28)          0.0742         estimate D2E/DX2                !
 ! D92   D(25,26,27,37)        179.9314         estimate D2E/DX2                !
 ! D93   D(36,26,27,28)       -179.8406         estimate D2E/DX2                !
 ! D94   D(36,26,27,37)          0.0166         estimate D2E/DX2                !
 ! D95   D(26,27,28,22)         -0.0373         estimate D2E/DX2                !
 ! D96   D(26,27,28,38)        179.8084         estimate D2E/DX2                !
 ! D97   D(37,27,28,22)       -179.8947         estimate D2E/DX2                !
 ! D98   D(37,27,28,38)         -0.049          estimate D2E/DX2                !
 --------------------------------------------------------------------------------
 Trust Radius=3.00D-01 FncErr=1.00D-07 GrdErr=1.00D-06 EigMax=2.50D+02 EigMin=1.00D-04
 Number of steps in this run=    216 maximum allowed number of steps=    228.
 GradGradGradGradGradGradGradGradGradGradGradGradGradGradGradGradGradGrad

 Leave Link  103 at Thu Dec 28 19:45:53 2023, MaxMem=  4026531840 cpu:               0.4 elap:               0.1
 (Enter /sysapps/ubuntu-applications/gaussian/Gaussian/AVX2/g16/l202.exe)
                          Input orientation:                          
 ---------------------------------------------------------------------
 Center     Atomic      Atomic             Coordinates (Angstroms)
 Number     Number       Type             X           Y           Z
 ---------------------------------------------------------------------
      1          6           0       -4.680870   -0.922610   -2.787190
      2          6           0       -4.063050   -1.451980   -3.921130
      3          6           0       -2.715800   -1.192870   -4.163100
      4          6           0       -3.949750   -0.129670   -1.890340
      5          6           0       -2.606510    0.127990   -2.129890
      6          6           0       -1.987030   -0.405410   -3.270390
      7          6           0       -4.617660    0.426000   -0.703130
      8          6           0       -3.836020    1.292020    0.226590
      9          6           0       -2.529510    1.522440   -0.000920
     10          6           0       -1.823920    0.956870   -1.196970
     11          8           0       -5.800100    0.177290   -0.493620
     12          8           0       -0.634670    1.151700   -1.429250
     13          1           0       -5.734730   -1.129450   -2.606320
     14          1           0       -4.633890   -2.065340   -4.614960
     15          1           0       -2.231400   -1.603030   -5.046630
     16          1           0       -0.934390   -0.208250   -3.468680
     17          6           0       -4.657960    1.832540    1.367260
     18         16           0       -1.541760    2.520190    1.037200
     19          6           0       -0.997260    1.264950    2.184600
     20          6           0       -1.566160    1.196450    3.461150
     21          6           0       -1.153500    0.221690    4.385260
     22          6           0       -0.142840   -0.696200    4.019060
     23          6           0        0.432250   -0.609600    2.742300
     24          6           0        0.012730    0.366800    1.835390
     25          6           0       -1.721830    0.141220    5.667040
     26          6           0       -1.301110   -0.832490    6.574220
     27          6           0       -0.307730   -1.737480    6.212350
     28          6           0        0.268630   -1.670170    4.942920
     29          1           0       -5.553550    2.336480    0.986730
     30          1           0       -4.132580    2.565240    1.983760
     31          1           0       -4.973650    1.015140    2.024600
     32          1           0       -2.336060    1.910630    3.744890
     33          1           0        1.219450   -1.298740    2.444160
     34          1           0        0.489080    0.421080    0.858300
     35          1           0       -2.498330    0.840100    5.970310
     36          1           0       -1.748700   -0.882510    7.563490
     37          1           0        0.021390   -2.495430    6.918490
     38          1           0        1.045800   -2.384430    4.680080
 ---------------------------------------------------------------------
                    Distance matrix (angstroms):
                    1          2          3          4          5
     1  C    0.000000
     2  C    1.395620   0.000000
     3  C    2.414057   1.393115   0.000000
     4  C    1.402722   2.425994   2.796152   0.000000
     5  C    2.416355   2.797562   2.427047   1.388548   0.000000
     6  C    2.785274   2.414256   1.395754   2.415127   1.403215
     7  C    2.483153   3.766952   4.267224   1.471170   2.483783
     8  C    3.834218   4.978419   5.167103   2.552554   2.901665
     9  C    4.286014   5.154315   4.973063   2.883827   2.546160
    10  C    3.771393   4.270516   3.770247   2.486058   1.473034
    11  O    2.779014   4.173690   4.985512   2.338556   3.588708
    12  O    4.745366   4.974174   4.159573   3.583890   2.329599
    13  H    1.089090   2.151108   3.397282   2.167566   3.404982
    14  H    2.156103   1.087874   2.155099   3.411513   3.885426
    15  H    3.401168   2.155112   1.087888   3.884029   3.412405
    16  H    3.874384   3.397071   2.150609   3.404369   2.168271
    17  C    4.985061   6.253724   6.596209   3.868305   4.398181
    18  S    6.027673   6.835208   6.496792   4.625004   4.109352
    19  C    6.563010   7.352599   7.020510   5.221810   4.743120
    20  C    7.296135   8.230838   8.072156   6.006541   5.786507
    21  C    8.074392   8.958949   8.804330   6.879362   6.675867
    22  C    8.183521   8.887399   8.591539   7.052271   6.675219
    23  C    7.537721   8.081994   7.611503   6.394811   5.789330
    24  C    6.712727   7.284056   6.771952   5.461574   4.758245
    25  C    9.020070   9.997630   9.969926   7.883591   7.846971
    26  C    9.953235  10.870347  10.836109   8.897080   8.853707
    27  C   10.038929  10.810706  10.665147   9.027898   8.851968
    28  C    9.209289   9.868254   9.594490   8.176877   7.843752
    29  H    5.062184   6.376606   6.857834   4.114803   4.824499
    30  H    5.935291   7.142172   7.342652   4.722776   5.019083
    31  H    5.195567   6.501352   6.947001   4.205439   4.863144
    32  H    7.496229   8.547368   8.503659   6.206661   6.145241
    33  H    7.894446   8.273162   7.691117   6.846550   6.131514
    34  H    6.467108   6.860991   6.171754   5.249910   4.312523
    35  H    9.195892  10.273391  10.337614   8.052136   8.132161
    36  H   10.758058  11.729323  11.770494   9.735825   9.783586
    37  H   10.898864  11.630512  11.488712   9.947978   9.780663
    38  H    9.523224  10.047419   9.683557   8.556277   8.125719
                    6          7          8          9         10
     6  C    0.000000
     7  C    3.768591   0.000000
     8  C    4.304521   1.491754   0.000000
     9  C    3.834100   2.460823   1.346040   0.000000
    10  C    2.486259   2.886292   2.487447   1.499421   0.000000
    11  O    4.752841   1.226342   2.370429   3.570566   4.112475
    12  O    2.764646   4.113162   3.606957   2.401665   1.227285
    13  H    3.874336   2.699889   4.182582   4.908571   4.651175
    14  H    3.401339   4.637828   5.945508   6.212081   5.358390
    15  H    2.156163   5.355109   6.225991   5.942779   4.641014
    16  H    1.089147   4.649410   4.932067   4.191068   2.703597
    17  C    5.800869   2.503297   1.506279   2.549192   3.920951
    18  S    5.226158   4.107985   2.725641   1.746095   2.741368
    19  C    5.790221   4.706391   3.448637   2.681527   3.494753
    20  C    6.932295   5.219815   3.952692   3.608357   4.671394
    21  C    7.726384   6.159047   5.063206   4.777440   5.670207
    22  C    7.524738   6.601699   5.654682   5.174823   5.724128
    23  C    6.484370   6.200407   5.306890   4.565400   4.802289
    24  C    5.537539   5.280918   4.272838   3.342233   3.593977
    25  C    8.958057   7.003285   5.949171   5.889472   6.913056
    26  C    9.877714   8.095871   7.157634   7.091342   7.991654
    27  C    9.721976   8.430896   7.579975   7.359899   8.028473
    28  C    8.610812   7.755491   6.918561   6.516433   6.998454
    29  H    6.193634   2.716883   2.149097   3.283737   4.536740
    30  H    6.405797   3.468577   2.190133   2.756124   4.246623
    31  H    6.242978   2.813241   2.145625   3.214639   4.505853
    32  H    7.395946   5.214854   3.874402   3.770836   5.059044
    33  H    6.613292   6.852154   6.098150   5.290763   5.254303
    34  H    4.884699   5.340120   4.456914   3.326130   3.140251
    35  H    9.338269   7.014117   5.914724   6.010170   7.199887
    36  H   10.846999   8.847606   7.931935   7.975823   8.951795
    37  H   10.593168   9.388537   8.602669   8.398131   9.010229
    38  H    8.736392   8.303749   7.561880   7.068114   7.344338
                   11         12         13         14         15
    11  O    0.000000
    12  O    5.339152   0.000000
    13  H    2.485024   5.709619   0.000000
    14  H    4.834757   6.040849   2.474343   0.000000
    15  H    6.052690   4.819079   4.295662   2.484357   0.000000
    16  H    5.716184   2.469528   4.963420   4.295235   2.473373
    17  C    2.739929   4.946804   5.071702   7.140098   7.670027
    18  S    5.095689   2.962930   6.646511   7.907924   7.381703
    19  C    5.605635   3.633760   7.150503   8.399400   7.876490
    20  C    5.882613   4.978523   7.720167   9.234381   8.981200
    21  C    6.737680   5.911229   8.467316   9.917035   9.667059
    22  C    7.289160   5.774142   8.680588   9.828040   9.347254
    23  C    7.066298   4.652131   8.179830   9.050648   8.291524
    24  C    6.264918   3.419513   7.416256   8.313447   7.501903
    25  C    7.388323   7.249850   9.282589  10.911852  10.866683
    26  C    8.438894   8.272647  10.199387  11.739893  11.683464
    27  C    8.877078   8.176081  10.372607  11.664210  11.422925
    28  C    8.354553   7.027336   9.660421  10.749136  10.297853
    29  H    2.629510   5.606785   4.995549   7.183364   7.934598
    30  H    3.823655   5.087446   6.106263   8.076923   8.391385
    31  H    2.779648   5.547475   5.159838   7.327247   8.023531
    32  H    5.741864   5.499312   7.818626   9.538105   9.468241
    33  H    7.751342   4.944262   8.596315   9.202198   8.253054
    34  H    6.437461   2.651321   7.289962   7.898334   6.809275
    35  H    7.288580   7.637003   9.376140  11.182582  11.287741
    36  H    9.080421   9.287004  10.925862  12.571319  12.639908
    37  H    9.796558   9.133276  11.212530  12.444962  12.208011
    38  H    8.955218   7.256177  10.032058  10.897636  10.293664
                   16         17         18         19         20
    16  H    0.000000
    17  C    6.435535   0.000000
    18  S    5.302475   3.208193   0.000000
    19  C    5.842418   3.793538   1.785675   0.000000
    20  C    7.098934   3.787904   2.761959   1.399257   0.000000
    21  C    7.868750   4.897387   4.079627   2.440432   1.405142
    22  C    7.545257   5.814884   4.603654   2.818047   2.432946
    23  C    6.372210   5.810768   4.074269   2.422492   2.787867
    24  C    5.418568   4.917610   2.773199   1.395959   2.413360
    25  C    9.176250   5.474443   5.208391   3.730303   2.450244
    26  C   10.068962   6.744128   6.477420   4.874458   3.725326
    27  C    9.821079   7.425930   6.814159   5.070780   4.214344
    28  C    8.622035   7.023219   6.007602   4.222054   3.712089
    29  H    6.903837   1.095828   4.016311   4.831444   4.829255
    30  H    6.902881   1.092221   2.758687   3.400194   3.262327
    31  H    6.927368   1.095399   3.875307   3.987441   3.702369
    32  H    7.647871   3.324221   2.886877   2.154946   1.087799
    33  H    6.386695   6.746004   4.918134   3.399071   3.875547
    34  H    4.598378   5.361276   2.926188   2.163422   3.405883
    35  H    9.624940   5.180445   5.298425   4.094546   2.700335
    36  H   11.082712   7.364004   7.362992   5.840266   4.602672
    37  H   10.678858   8.452443   7.886029   6.130891   5.301273
    38  H    8.663671   7.828824   6.634858   4.870266   4.596828
                   21         22         23         24         25
    21  C    0.000000
    22  C    1.413527   0.000000
    23  C    2.430013   1.402977   0.000000
    24  C    2.807666   2.433636   1.397083   0.000000
    25  C    1.404434   2.431115   3.709164   4.212022   0.000000
    26  C    2.434056   2.808738   4.211630   5.061717   1.395741
    27  C    2.809258   2.433511   3.723027   4.867080   2.413826
    28  C    2.431578   1.404081   2.448328   3.724443   2.787008
    29  H    5.948343   6.904198   6.898639   5.965177   6.434792
    30  H    4.487131   5.540529   5.611833   4.694544   5.025350
    31  H    4.560244   5.499389   5.690222   5.031911   4.960387
    32  H    2.158944   3.417740   3.875601   3.398002   2.683794
    33  H    3.422056   2.167763   1.087881   2.144947   4.594733
    34  H    3.895802   3.411457   2.148252   1.088375   5.300040
    35  H    2.168728   3.422854   4.594560   4.860761   1.087823
    36  H    3.416821   3.895700   5.298575   6.121645   2.155288
    37  H    3.896198   3.416269   4.600622   5.833553   3.399539
    38  H    3.422821   2.167933   2.698417   4.090081   3.874632
                   26         27         28         29         30
    26  C    0.000000
    27  C    1.391675   0.000000
    28  C    2.413904   1.395770   0.000000
    29  H    7.703614   8.451206   8.099535   0.000000
    30  H    6.374489   7.143098   6.787192   1.750873   0.000000
    31  H    6.131911   6.847261   6.573354   1.777469   1.764051
    32  H    4.074425   4.848834   4.587136   4.259230   2.599534
    33  H    4.860865   4.089502   2.699226   7.823839   6.617139
    34  H    6.119474   5.827533   4.594132   6.340239   5.217645
    35  H    2.143735   3.391346   3.874668   6.034036   4.641063
    36  H    1.086965   2.152428   3.399620   8.251821   6.978771
    37  H    2.152417   1.086942   2.155240   9.466419   8.198622
    38  H    3.391795   2.144397   1.087771   8.915113   7.654083
                   31         32         33         34         35
    31  H    0.000000
    32  H    3.273863   0.000000
    33  H    6.624542   4.963225   0.000000
    34  H    5.617347   4.304948   2.450749   0.000000
    35  H    4.661167   2.474845   5.552500   5.935726   0.000000
    36  H    6.684361   4.767424   5.932175   7.187947   2.463240
    37  H    7.824620   5.919685   4.784041   6.741711   4.286466
    38  H    7.405567   5.546089   2.491629   4.773555   4.962171
                   36         37         38
    36  H    0.000000
    37  H    2.480071   0.000000
    38  H    4.287079   2.464187   0.000000
 Symmetry turned off by external request.
 Stoichiometry    C21H14O2S(2-)
 Framework group  C1[X(C21H14O2S)]
 Deg. of freedom   108
 Full point group                 C1      NOp   1
 Rotational constants (GHZ):           0.4340595           0.1229246           0.1184383
 Leave Link  202 at Thu Dec 28 19:45:53 2023, MaxMem=  4026531840 cpu:               0.4 elap:               0.1
 (Enter /sysapps/ubuntu-applications/gaussian/Gaussian/AVX2/g16/l301.exe)
 Standard basis: 6-311++G(d,p) (5D, 7F)
 Ernie: Thresh=  0.10000D-02 Tol=  0.10000D-05 Strict=F.
   634 basis functions,  1004 primitive gaussians,   658 cartesian basis functions
    87 alpha electrons       87 beta electrons
       nuclear repulsion energy      1995.1559128981 Hartrees.
 IExCor=  402 DFT=T Ex+Corr=B3LYP ExCW=0 ScaHFX=  0.200000
 ScaDFX=  0.800000  0.720000  1.000000  0.810000 ScalE2=  1.000000  1.000000
 IRadAn=      5 IRanWt=     -1 IRanGd=            0 ICorTp=0 IEmpDi=  4
 NAtoms=   38 NActive=   38 NUniq=   38 SFac= 1.00D+00 NAtFMM=   60 NAOKFM=F Big=F
 Integral buffers will be    131072 words long.
 Raffenetti 2 integral format.
 Two-electron integral symmetry is turned off.
 Leave Link  301 at Thu Dec 28 19:45:53 2023, MaxMem=  4026531840 cpu:               1.0 elap:               0.2
 (Enter /sysapps/ubuntu-applications/gaussian/Gaussian/AVX2/g16/l302.exe)
 NPDir=0 NMtPBC=     1 NCelOv=     1 NCel=       1 NClECP=     1 NCelD=      1
         NCelK=      1 NCelE2=     1 NClLst=     1 CellRange=     0.0.
 One-electron integrals computed using PRISM.
 NBasis=   634 RedAO= T EigKep=  1.08D-06  NBF=   634
 NBsUse=   626 1.00D-06 EigRej=  8.60D-07 NBFU=   626
 Precomputing XC quadrature grid using
 IXCGrd= 4 IRadAn=           5 IRanWt=          -1 IRanGd=           0 AccXCQ= 0.00D+00.
 Generated NRdTot=       0 NPtTot=           0 NUsed=           0 NTot=          32
 NSgBfM=   644   644   644   644   644 MxSgAt=    38 MxSgA2=    38.
 Leave Link  302 at Thu Dec 28 19:45:55 2023, MaxMem=  4026531840 cpu:              11.6 elap:               2.1
 (Enter /sysapps/ubuntu-applications/gaussian/Gaussian/AVX2/g16/l303.exe)
 DipDrv:  MaxL=1.
 Leave Link  303 at Thu Dec 28 19:45:56 2023, MaxMem=  4026531840 cpu:               1.6 elap:               0.3
 (Enter /sysapps/ubuntu-applications/gaussian/Gaussian/AVX2/g16/l401.exe)
 ExpMin= 3.60D-02 ExpMax= 9.34D+04 ExpMxC= 3.17D+03 IAcc=3 IRadAn=         5 AccDes= 0.00D+00
 Harris functional with IExCor=  402 and IRadAn=       5 diagonalized for initial guess.
 HarFok:  IExCor=  402 AccDes= 0.00D+00 IRadAn=         5 IDoV= 1 UseB2=F ITyADJ=14
 ICtDFT=  3500011 ScaDFX=  1.000000  1.000000  1.000000  1.000000
 FoFCou: FMM=F IPFlag=           0 FMFlag=      100000 FMFlg1=           0
         NFxFlg=           0 DoJE=T BraDBF=F KetDBF=T FulRan=T
         wScrn=  0.000000 ICntrl=       500 IOpCl=  0 I1Cent=   200000004 NGrid=           0
         NMat0=    1 NMatS0=      1 NMatT0=    0 NMatD0=    1 NMtDS0=    0 NMtDT0=    0
 Symmetry not used in FoFCou.
 Harris En= -1358.02261694243    
 JPrj=0 DoOrth=F DoCkMO=F.
 Initial guess <Sx>= 0.0000 <Sy>= 0.0000 <Sz>= 0.0000 <S**2>=-0.0000 S=-0.0000
 Leave Link  401 at Thu Dec 28 19:46:03 2023, MaxMem=  4026531840 cpu:              57.0 elap:               7.2
 (Enter /sysapps/ubuntu-applications/gaussian/Gaussian/AVX2/g16/l502.exe)
 Two-electron integral symmetry not used.
 UHF open shell SCF:
 Using DIIS extrapolation, IDIIS=  1040.
 NGot=  4026531840 LenX=  4025656008 LenY=  4025222386
 Requested convergence on RMS density matrix=1.00D-08 within 128 cycles.
 Requested convergence on MAX density matrix=1.00D-06.
 Requested convergence on             energy=1.00D-06.
 No special actions if energy rises.
 Fock matrices will be formed incrementally for  20 cycles.

 Cycle   1  Pass 1  IDiag  1:
 FoFJK:  IHMeth= 1 ICntrl=       0 DoSepK=F KAlg= 0 I1Cent=           0 FoldK=F
 IRaf= 800000000 NMat=       1 IRICut=       1 DoRegI=T DoRafI=F ISym2E= 0 IDoP0=0 IntGTp=1.
 FoFCou: FMM=F IPFlag=           0 FMFlag=      100000 FMFlg1=           0
         NFxFlg=           0 DoJE=F BraDBF=F KetDBF=F FulRan=T
         wScrn=  0.000000 ICntrl=         0 IOpCl=  1 I1Cent=           0 NGrid=           0
         NMat0=    1 NMatS0=      1 NMatT0=    0 NMatD0=    1 NMtDS0=    0 NMtDT0=    0
 Symmetry not used in FoFCou.
 E= -1356.72722800716    
 DIIS: error= 3.56D-02 at cycle   1 NSaved=   1.
 NSaved= 1 IEnMin= 1 EnMin= -1356.72722800716     IErMin= 1 ErrMin= 3.56D-02
 ErrMax= 3.56D-02  0.00D+00 EMaxC= 1.00D-01 BMatC= 3.40D+00 BMatP= 3.40D+00
 IDIUse=3 WtCom= 6.44D-01 WtEn= 3.56D-01
 Coeff-Com:  0.100D+01
 Coeff-En:   0.100D+01
 Coeff:      0.100D+01
 Gap=    -0.118 Goal=   None    Shift=    0.000
 Gap=    -0.118 Goal=   None    Shift=    0.000
 GapD=   -0.118 DampG=0.250 DampE=0.500 DampFc=0.2500 IDamp=-1.
 Damping current iteration by 2.50D-01
 RMSDP=7.98D+00 MaxDP=1.64D+03              OVMax= 9.96D-01

 Cycle   2  Pass 1  IDiag  1:
 RMSU=  1.97D+00    CP:  3.00D+00
 E= -1356.47202906365     Delta-E=        0.255198943513 Rises=F Damp=T
 DIIS: error= 1.22D-02 at cycle   2 NSaved=   2.
 NSaved= 2 IEnMin= 1 EnMin= -1356.72722800716     IErMin= 2 ErrMin= 1.22D-02
 ErrMax= 1.22D-02  0.00D+00 EMaxC= 1.00D-01 BMatC= 7.57D-01 BMatP= 3.40D+00
 IDIUse=3 WtCom= 8.78D-01 WtEn= 1.22D-01
 Coeff-Com: -0.375D-02 0.100D+01
 Coeff-En:   0.620D+00 0.380D+00
 Coeff:      0.723D-01 0.928D+00
 Gap=     0.222 Goal=   None    Shift=    0.000
 Gap=     0.222 Goal=   None    Shift=    0.000
 RMSDP=1.98D+00 MaxDP=4.07D+02 DE= 2.55D-01 OVMax= 8.31D-01

 Cycle   3  Pass 1  IDiag  1:
 RMSU=  2.76D-02    CP:  1.27D+00  3.29D-03
 E= -1354.63634245734     Delta-E=        1.835686606308 Rises=F Damp=F
 DIIS: error= 4.35D-02 at cycle   3 NSaved=   3.
 NSaved= 3 IEnMin= 1 EnMin= -1356.72722800716     IErMin= 2 ErrMin= 1.22D-02
 ErrMax= 4.35D-02  0.00D+00 EMaxC= 1.00D-01 BMatC= 5.81D+00 BMatP= 7.57D-01
 IDIUse=2 WtCom= 0.00D+00 WtEn= 1.00D+00
 EnCoef did     7 forward-backward iterations
 Coeff-En:   0.552D+00 0.402D+00 0.470D-01
 Coeff:      0.552D+00 0.402D+00 0.470D-01
 Gap=    -0.073 Goal=   None    Shift=    0.000
 Gap=    -0.073 Goal=   None    Shift=    0.000
 RMSDP=7.30D-01 MaxDP=4.71D+01 DE= 1.84D+00 OVMax= 1.00D+00

 Cycle   4  Pass 1  IDiag  1:
 RMSU=  7.05D-01    CP:  3.00D+00  2.78D-02 -2.36D+00
 E= -1356.87596189914     Delta-E=       -2.239619441798 Rises=F Damp=F
 DIIS: error= 2.67D-02 at cycle   4 NSaved=   4.
 NSaved= 4 IEnMin= 4 EnMin= -1356.87596189914     IErMin= 2 ErrMin= 1.22D-02
 ErrMax= 2.67D-02  0.00D+00 EMaxC= 1.00D-01 BMatC= 2.14D+00 BMatP= 7.57D-01
 IDIUse=2 WtCom= 0.00D+00 WtEn= 1.00D+00
 EnCoef did   100 forward-backward iterations
 Coeff-En:   0.458D+00 0.000D+00 0.358D-02 0.539D+00
 Coeff:      0.458D+00 0.000D+00 0.358D-02 0.539D+00
 Gap=    -0.026 Goal=   None    Shift=    0.000
 Gap=    -0.026 Goal=   None    Shift=    0.000
 RMSDP=7.33D-01 MaxDP=4.76D+01 DE=-2.24D+00 OVMax= 9.94D-01

 Cycle   5  Pass 1  IDiag  1:
 RMSU=  1.30D-02    CP:  1.07D+00  1.42D-03  9.90D-02 -2.74D-03
 E= -1357.45119662119     Delta-E=       -0.575234722052 Rises=F Damp=F
 DIIS: error= 1.14D-02 at cycle   5 NSaved=   5.
 NSaved= 5 IEnMin= 5 EnMin= -1357.45119662119     IErMin= 5 ErrMin= 1.14D-02
 ErrMax= 1.14D-02  0.00D+00 EMaxC= 1.00D-01 BMatC= 2.40D-01 BMatP= 7.57D-01
 IDIUse=3 WtCom= 8.86D-01 WtEn= 1.14D-01
 Coeff-Com:  0.548D-01 0.145D+00-0.376D-01 0.198D+00 0.640D+00
 Coeff-En:   0.000D+00 0.000D+00 0.000D+00 0.196D+00 0.804D+00
 Coeff:      0.486D-01 0.128D+00-0.333D-01 0.198D+00 0.659D+00
 Gap=     0.035 Goal=   None    Shift=    0.000
 Gap=     0.035 Goal=   None    Shift=    0.000
 RMSDP=1.16D-02 MaxDP=1.36D+00 DE=-5.75D-01 OVMax= 1.62D-01

 Cycle   6  Pass 1  IDiag  1:
 RMSU=  1.07D-02    CP:  1.12D+00  9.11D-04  4.02D-03 -4.41D-03  1.09D+00
 E= -1357.51016284971     Delta-E=       -0.058966228514 Rises=F Damp=F
 DIIS: error= 6.98D-03 at cycle   6 NSaved=   6.
 NSaved= 6 IEnMin= 6 EnMin= -1357.51016284971     IErMin= 6 ErrMin= 6.98D-03
 ErrMax= 6.98D-03  0.00D+00 EMaxC= 1.00D-01 BMatC= 1.41D-01 BMatP= 2.40D-01
 IDIUse=3 WtCom= 9.30D-01 WtEn= 6.98D-02
 EnCoef did     3 forward-backward iterations
 Coeff-Com: -0.105D+00 0.217D+00-0.276D-01 0.452D-01 0.457D+00 0.413D+00
 Coeff-En:   0.000D+00 0.000D+00 0.000D+00 0.956D-01 0.784D-01 0.826D+00
 Coeff:     -0.973D-01 0.202D+00-0.257D-01 0.487D-01 0.430D+00 0.442D+00
 Gap=     0.022 Goal=   None    Shift=    0.000
 Gap=     0.022 Goal=   None    Shift=    0.000
 RMSDP=4.64D-03 MaxDP=4.73D-01 DE=-5.90D-02 OVMax= 1.33D-01

 Cycle   7  Pass 1  IDiag  1:
 RMSU=  3.62D-03    CP:  1.16D+00  5.81D-04 -3.18D-03 -4.84D-03  1.23D+00
                    CP:  9.90D-01
 E= -1357.52808903513     Delta-E=       -0.017926185425 Rises=F Damp=F
 DIIS: error= 7.71D-03 at cycle   7 NSaved=   7.
 NSaved= 7 IEnMin= 7 EnMin= -1357.52808903513     IErMin= 6 ErrMin= 6.98D-03
 ErrMax= 7.71D-03  0.00D+00 EMaxC= 1.00D-01 BMatC= 6.35D-02 BMatP= 1.41D-01
 IDIUse=3 WtCom= 9.30D-01 WtEn= 6.98D-02
 EnCoef did     1 forward-backward iterations
 Coeff-Com: -0.129D+00 0.213D+00-0.166D-01 0.442D-02 0.211D+00 0.300D+00
 Coeff-Com:  0.416D+00
 Coeff-En:   0.000D+00 0.000D+00 0.000D+00 0.658D-01 0.000D+00 0.118D+00
 Coeff-En:   0.816D+00
 Coeff:     -0.120D+00 0.198D+00-0.155D-01 0.871D-02 0.197D+00 0.287D+00
 Coeff:      0.444D+00
 Gap=     0.021 Goal=   None    Shift=    0.000
 Gap=     0.021 Goal=   None    Shift=    0.000
 RMSDP=2.64D-03 MaxDP=2.93D-01 DE=-1.79D-02 OVMax= 7.94D-02

 Cycle   8  Pass 1  IDiag  1:
 RMSU=  2.10D-03    CP:  1.17D+00  5.92D-04 -6.85D-03 -5.14D-03  1.30D+00
                    CP:  1.09D+00  8.35D-01
 E= -1357.54254282599     Delta-E=       -0.014453790857 Rises=F Damp=F
 DIIS: error= 6.69D-03 at cycle   8 NSaved=   8.
 NSaved= 8 IEnMin= 8 EnMin= -1357.54254282599     IErMin= 8 ErrMin= 6.69D-03
 ErrMax= 6.69D-03  0.00D+00 EMaxC= 1.00D-01 BMatC= 3.26D-02 BMatP= 6.35D-02
 IDIUse=3 WtCom= 9.33D-01 WtEn= 6.69D-02
 Coeff-Com: -0.102D+00 0.159D+00-0.717D-02 0.134D-02 0.359D-01 0.597D-01
 Coeff-Com:  0.220D+00 0.633D+00
 Coeff-En:   0.000D+00 0.000D+00 0.000D+00 0.261D-01 0.000D+00 0.000D+00
 Coeff-En:   0.000D+00 0.974D+00
 Coeff:     -0.949D-01 0.148D+00-0.669D-02 0.300D-02 0.335D-01 0.557D-01
 Coeff:      0.205D+00 0.656D+00
 Gap=     0.018 Goal=   None    Shift=    0.000
 Gap=     0.018 Goal=   None    Shift=    0.000
 RMSDP=4.99D-03 MaxDP=5.84D-01 DE=-1.45D-02 OVMax= 1.48D-01

 Cycle   9  Pass 1  IDiag  1:
 RMSU=  2.60D-03    CP:  1.19D+00  4.86D-04  1.72D-02 -5.31D-03  1.48D+00
                    CP:  1.17D+00  1.35D+00  2.19D+00
 E= -1357.55633629548     Delta-E=       -0.013793469491 Rises=F Damp=F
 DIIS: error= 2.28D-03 at cycle   9 NSaved=   9.
 NSaved= 9 IEnMin= 9 EnMin= -1357.55633629548     IErMin= 9 ErrMin= 2.28D-03
 ErrMax= 2.28D-03  0.00D+00 EMaxC= 1.00D-01 BMatC= 8.72D-03 BMatP= 3.26D-02
 IDIUse=3 WtCom= 9.77D-01 WtEn= 2.28D-02
 Coeff-Com: -0.371D-01 0.605D-01 0.752D-02 0.180D-01 0.621D-01-0.262D-01
 Coeff-Com: -0.233D+00 0.220D+00 0.928D+00
 Coeff-En:   0.000D+00 0.000D+00 0.000D+00 0.000D+00 0.000D+00 0.000D+00
 Coeff-En:   0.000D+00 0.000D+00 0.100D+01
 Coeff:     -0.363D-01 0.592D-01 0.735D-02 0.176D-01 0.607D-01-0.256D-01
 Coeff:     -0.228D+00 0.215D+00 0.930D+00
 Gap=     0.013 Goal=   None    Shift=    0.000
 Gap=     0.013 Goal=   None    Shift=    0.000
 RMSDP=5.91D-03 MaxDP=7.95D-01 DE=-1.38D-02 OVMax= 3.40D-02

 Cycle  10  Pass 1  IDiag  1:
 RMSU=  3.21D-03    CP:  1.19D+00  4.45D-04  1.91D-02 -4.59D-03  1.67D+00
                    CP:  1.19D+00  1.43D+00  3.00D+00  2.34D+00
 E= -1357.55762137371     Delta-E=       -0.001285078230 Rises=F Damp=F
 DIIS: error= 4.04D-03 at cycle  10 NSaved=  10.
 NSaved=10 IEnMin=10 EnMin= -1357.55762137371     IErMin= 9 ErrMin= 2.28D-03
 ErrMax= 4.04D-03  0.00D+00 EMaxC= 1.00D-01 BMatC= 4.98D-03 BMatP= 8.72D-03
 IDIUse=3 WtCom= 9.77D-01 WtEn= 2.28D-02
 Coeff-Com: -0.477D-02 0.113D-01 0.534D-02 0.144D-01 0.474D-01-0.396D-01
 Coeff-Com: -0.281D+00-0.108D+00 0.784D+00 0.571D+00
 Coeff-En:   0.000D+00 0.000D+00 0.000D+00 0.000D+00 0.000D+00 0.000D+00
 Coeff-En:   0.000D+00 0.000D+00 0.216D-01 0.978D+00
 Coeff:     -0.466D-02 0.110D-01 0.521D-02 0.140D-01 0.463D-01-0.387D-01
 Coeff:     -0.275D+00-0.105D+00 0.767D+00 0.580D+00
 Gap=     0.008 Goal=   None    Shift=    0.000
 Gap=     0.008 Goal=   None    Shift=    0.000
 RMSDP=1.38D-02 MaxDP=1.15D+00 DE=-1.29D-03 OVMax= 1.31D-01

 Cycle  11  Pass 1  IDiag  1:
 RMSU=  9.69D-03    CP:  1.21D+00  6.23D-04  6.46D-02  3.04D-03  1.84D+00
                    CP:  1.13D+00  1.98D+00  3.00D+00  3.00D+00  2.66D+00
 E= -1357.55969290316     Delta-E=       -0.002071529453 Rises=F Damp=F
 DIIS: error= 2.59D-03 at cycle  11 NSaved=  11.
 NSaved=11 IEnMin=11 EnMin= -1357.55969290316     IErMin= 9 ErrMin= 2.28D-03
 ErrMax= 2.59D-03  0.00D+00 EMaxC= 1.00D-01 BMatC= 2.05D-03 BMatP= 4.98D-03
 IDIUse=3 WtCom= 9.77D-01 WtEn= 2.28D-02
 Coeff-Com: -0.405D-02 0.738D-02 0.169D-02 0.315D-02 0.430D-01 0.655D-02
 Coeff-Com: -0.943D-01-0.139D+00 0.217D+00 0.498D+00 0.460D+00
 Coeff-En:   0.000D+00 0.000D+00 0.000D+00 0.000D+00 0.000D+00 0.000D+00
 Coeff-En:   0.000D+00 0.000D+00 0.000D+00 0.301D+00 0.699D+00
 Coeff:     -0.395D-02 0.722D-02 0.165D-02 0.308D-02 0.421D-01 0.640D-02
 Coeff:     -0.921D-01-0.136D+00 0.212D+00 0.494D+00 0.466D+00
 Gap=     0.008 Goal=   None    Shift=    0.000
 Gap=     0.008 Goal=   None    Shift=    0.000
 RMSDP=1.32D-02 MaxDP=8.76D-01 DE=-2.07D-03 OVMax= 7.96D-02

 Cycle  12  Pass 1  IDiag  1:
 RMSU=  5.20D-03    CP:  1.24D+00  8.50D-04  7.34D-02  1.45D-02  1.93D+00
                    CP:  9.90D-01  2.17D+00  3.00D+00  3.00D+00  3.00D+00
                    CP:  1.85D+00
 E= -1357.56085288978     Delta-E=       -0.001159986617 Rises=F Damp=F
 DIIS: error= 3.44D-04 at cycle  12 NSaved=  12.
 NSaved=12 IEnMin=12 EnMin= -1357.56085288978     IErMin=12 ErrMin= 3.44D-04
 ErrMax= 3.44D-04  0.00D+00 EMaxC= 1.00D-01 BMatC= 2.45D-04 BMatP= 2.05D-03
 IDIUse=3 WtCom= 9.97D-01 WtEn= 3.44D-03
 Coeff-Com: -0.893D-03 0.172D-02-0.129D-04 0.458D-04 0.176D-01-0.562D-02
 Coeff-Com: -0.344D-01-0.462D-01 0.627D-01 0.255D+00 0.323D+00 0.426D+00
 Coeff-En:   0.000D+00 0.000D+00 0.000D+00 0.000D+00 0.000D+00 0.000D+00
 Coeff-En:   0.000D+00 0.000D+00 0.000D+00 0.000D+00 0.000D+00 0.100D+01
 Coeff:     -0.890D-03 0.172D-02-0.129D-04 0.456D-04 0.176D-01-0.560D-02
 Coeff:     -0.343D-01-0.460D-01 0.625D-01 0.254D+00 0.322D+00 0.428D+00
 Gap=     0.007 Goal=   None    Shift=    0.000
 Gap=     0.007 Goal=   None    Shift=    0.000
 RMSDP=2.90D-02 MaxDP=1.66D+00 DE=-1.16D-03 OVMax= 1.06D-01

 Cycle  13  Pass 1  IDiag  1:
 RMSU=  7.21D-03    CP:  1.31D+00  1.23D-03  8.03D-02  4.41D-02  1.99D+00
                    CP:  7.46D-01  2.50D+00  3.00D+00  3.00D+00  3.00D+00
                    CP:  3.00D+00  2.97D+00
 E= -1357.56100765986     Delta-E=       -0.000154770080 Rises=F Damp=F
 DIIS: error= 1.68D-03 at cycle  13 NSaved=  13.
 NSaved=13 IEnMin=13 EnMin= -1357.56100765986     IErMin=12 ErrMin= 3.44D-04
 ErrMax= 1.68D-03  0.00D+00 EMaxC= 1.00D-01 BMatC= 1.22D-03 BMatP= 2.45D-04
 IDIUse=3 WtCom= 9.97D-01 WtEn= 3.44D-03
 Coeff-Com: -0.147D-02 0.248D-02 0.631D-05-0.131D-03 0.180D-01-0.602D-02
 Coeff-Com: -0.308D-01-0.339D-01 0.649D-01 0.237D+00 0.294D+00 0.388D+00
 Coeff-Com:  0.684D-01
 Coeff-En:   0.000D+00 0.000D+00 0.000D+00 0.000D+00 0.000D+00 0.000D+00
 Coeff-En:   0.000D+00 0.000D+00 0.000D+00 0.000D+00 0.000D+00 0.346D+00
 Coeff-En:   0.654D+00
 Coeff:     -0.147D-02 0.247D-02 0.629D-05-0.131D-03 0.179D-01-0.600D-02
 Coeff:     -0.307D-01-0.338D-01 0.647D-01 0.236D+00 0.293D+00 0.388D+00
 Coeff:      0.704D-01
 Gap=     0.008 Goal=   None    Shift=    0.000
 Gap=     0.008 Goal=   None    Shift=    0.000
 RMSDP=8.03D-04 MaxDP=6.08D-02 DE=-1.55D-04 OVMax= 5.50D-03

 Cycle  14  Pass 1  IDiag  1:
 RMSU=  4.17D-04    CP:  1.31D+00  1.24D-03  7.95D-02  4.49D-02  1.98D+00
                    CP:  7.40D-01  2.49D+00  3.00D+00  3.00D+00  3.00D+00
                    CP:  3.00D+00  3.00D+00  1.04D+00
 E= -1357.56115140046     Delta-E=       -0.000143740601 Rises=F Damp=F
 DIIS: error= 1.47D-03 at cycle  14 NSaved=  14.
 NSaved=14 IEnMin=14 EnMin= -1357.56115140046     IErMin=12 ErrMin= 3.44D-04
 ErrMax= 1.47D-03  0.00D+00 EMaxC= 1.00D-01 BMatC= 1.00D-03 BMatP= 2.45D-04
 IDIUse=3 WtCom= 9.97D-01 WtEn= 3.44D-03
 Coeff-Com: -0.126D-02 0.219D-02-0.147D-03-0.143D-03 0.183D-01-0.707D-02
 Coeff-Com: -0.332D-01-0.292D-01 0.903D-01 0.195D+00 0.227D+00 0.217D+00
 Coeff-Com: -0.190D+01 0.222D+01
 Coeff-En:   0.000D+00 0.000D+00 0.000D+00 0.000D+00 0.000D+00 0.000D+00
 Coeff-En:   0.000D+00 0.000D+00 0.000D+00 0.000D+00 0.000D+00 0.908D-01
 Coeff-En:   0.000D+00 0.909D+00
 Coeff:     -0.126D-02 0.218D-02-0.146D-03-0.143D-03 0.183D-01-0.704D-02
 Coeff:     -0.331D-01-0.291D-01 0.900D-01 0.194D+00 0.227D+00 0.217D+00
 Coeff:     -0.189D+01 0.221D+01
 Gap=     0.008 Goal=   None    Shift=    0.000
 Gap=     0.008 Goal=   None    Shift=    0.000
 RMSDP=1.19D-02 MaxDP=6.69D-01 DE=-1.44D-04 OVMax= 3.86D-02

 Cycle  15  Pass 1  IDiag  1:
 RMSU=  4.23D-03    CP:  1.33D+00  1.38D-03  7.32D-02  5.80D-02  1.96D+00
                    CP:  6.45D-01  2.51D+00  3.00D+00  3.00D+00  3.00D+00
                    CP:  3.00D+00  3.00D+00  1.83D+00  3.00D+00
 E= -1357.56123302962     Delta-E=       -0.000081629154 Rises=F Damp=F
 DIIS: error= 1.66D-03 at cycle  15 NSaved=  15.
 NSaved=15 IEnMin=15 EnMin= -1357.56123302962     IErMin=12 ErrMin= 3.44D-04
 ErrMax= 1.66D-03  0.00D+00 EMaxC= 1.00D-01 BMatC= 1.26D-03 BMatP= 2.45D-04
 IDIUse=3 WtCom= 9.97D-01 WtEn= 3.44D-03
 EnCoef did   100 forward-backward iterations
 Coeff-Com: -0.690D-03 0.142D-02-0.798D-04-0.221D-03 0.204D-01-0.588D-02
 Coeff-Com: -0.400D-01-0.486D-01 0.105D+00 0.197D+00 0.237D+00 0.135D+00
 Coeff-Com: -0.389D+01 0.363D+01 0.658D+00
 Coeff-En:   0.000D+00 0.000D+00 0.000D+00 0.000D+00 0.000D+00 0.000D+00
 Coeff-En:   0.000D+00 0.000D+00 0.000D+00 0.180D-01 0.000D+00 0.112D-02
 Coeff-En:   0.000D+00 0.000D+00 0.981D+00
 Coeff:     -0.688D-03 0.142D-02-0.795D-04-0.220D-03 0.203D-01-0.586D-02
 Coeff:     -0.398D-01-0.484D-01 0.105D+00 0.196D+00 0.236D+00 0.134D+00
 Coeff:     -0.387D+01 0.362D+01 0.659D+00
 Gap=     0.009 Goal=   None    Shift=    0.000
 Gap=     0.009 Goal=   None    Shift=    0.000
 RMSDP=3.41D-03 MaxDP=2.34D-01 DE=-8.16D-05 OVMax= 1.75D-02

 Cycle  16  Pass 1  IDiag  1:
 RMSU=  1.99D-03    CP:  1.33D+00  1.42D-03  6.89D-02  6.13D-02  1.92D+00
                    CP:  6.15D-01  2.45D+00  3.00D+00  3.00D+00  3.00D+00
                    CP:  3.00D+00  3.00D+00  1.93D+00  3.00D+00  1.26D+00
 E= -1357.56164258936     Delta-E=       -0.000409559748 Rises=F Damp=F
 DIIS: error= 1.08D-03 at cycle  16 NSaved=  16.
 NSaved=16 IEnMin=16 EnMin= -1357.56164258936     IErMin=12 ErrMin= 3.44D-04
 ErrMax= 1.08D-03  0.00D+00 EMaxC= 1.00D-01 BMatC= 6.41D-04 BMatP= 2.45D-04
 IDIUse=3 WtCom= 9.97D-01 WtEn= 3.44D-03
 Coeff-Com:  0.672D-03-0.652D-03-0.301D-03-0.623D-03 0.135D-01-0.610D-03
 Coeff-Com: -0.239D-01-0.533D-01 0.581D-01 0.117D+00 0.223D+00 0.132D+00
 Coeff-Com: -0.305D+01 0.190D+01 0.170D+00 0.152D+01
 Coeff-En:   0.000D+00 0.000D+00 0.000D+00 0.000D+00 0.000D+00 0.000D+00
 Coeff-En:   0.000D+00 0.000D+00 0.000D+00 0.000D+00 0.000D+00 0.000D+00
 Coeff-En:   0.000D+00 0.000D+00 0.000D+00 0.100D+01
 Coeff:      0.670D-03-0.650D-03-0.300D-03-0.620D-03 0.135D-01-0.608D-03
 Coeff:     -0.239D-01-0.531D-01 0.579D-01 0.116D+00 0.222D+00 0.132D+00
 Coeff:     -0.304D+01 0.189D+01 0.169D+00 0.152D+01
 Gap=     0.010 Goal=   None    Shift=    0.000
 Gap=     0.010 Goal=   None    Shift=    0.000
 RMSDP=1.67D-02 MaxDP=9.90D-01 DE=-4.10D-04 OVMax= 4.99D-02

 Cycle  17  Pass 1  IDiag  1:
 RMSU=  1.17D-03    CP:  1.36D+00  1.67D-03  5.03D-02  7.96D-02  1.85D+00
                    CP:  5.06D-01  2.40D+00  3.00D+00  3.00D+00  3.00D+00
                    CP:  3.00D+00  3.00D+00  2.94D+00  3.00D+00  2.64D+00
                    CP:  3.00D+00
 E= -1357.56189178349     Delta-E=       -0.000249194127 Rises=F Damp=F
 DIIS: error= 9.24D-04 at cycle  17 NSaved=  17.
 NSaved=17 IEnMin=17 EnMin= -1357.56189178349     IErMin=12 ErrMin= 3.44D-04
 ErrMax= 9.24D-04  0.00D+00 EMaxC= 1.00D-01 BMatC= 5.04D-04 BMatP= 2.45D-04
 IDIUse=3 WtCom= 9.97D-01 WtEn= 3.44D-03
 Coeff-Com:  0.568D-03-0.523D-03-0.140D-03-0.388D-03 0.666D-02 0.312D-02
 Coeff-Com: -0.693D-02-0.352D-01 0.757D-02 0.730D-01 0.193D+00 0.231D+00
 Coeff-Com:  0.638D+00-0.152D+01-0.106D+01 0.179D+01 0.678D+00
 Coeff-En:   0.000D+00 0.000D+00 0.000D+00 0.000D+00 0.000D+00 0.000D+00
 Coeff-En:   0.000D+00 0.000D+00 0.000D+00 0.000D+00 0.000D+00 0.000D+00
 Coeff-En:   0.000D+00 0.000D+00 0.000D+00 0.000D+00 0.100D+01
 Coeff:      0.566D-03-0.521D-03-0.140D-03-0.386D-03 0.664D-02 0.310D-02
 Coeff:     -0.690D-02-0.351D-01 0.754D-02 0.728D-01 0.192D+00 0.231D+00
 Coeff:      0.636D+00-0.152D+01-0.106D+01 0.179D+01 0.680D+00
 Gap=     0.011 Goal=   None    Shift=    0.000
 Gap=     0.011 Goal=   None    Shift=    0.000
 RMSDP=2.61D-03 MaxDP=1.95D-01 DE=-2.49D-04 OVMax= 1.12D-02

 Cycle  18  Pass 1  IDiag  1:
 RMSU=  2.29D-03    CP:  1.36D+00  1.69D-03  4.85D-02  7.99D-02  1.83D+00
                    CP:  4.96D-01  2.37D+00  3.00D+00  3.00D+00  3.00D+00
                    CP:  3.00D+00  3.00D+00  2.80D+00  3.00D+00  2.60D+00
                    CP:  3.00D+00  1.50D+00
 E= -1357.56208127809     Delta-E=       -0.000189494601 Rises=F Damp=F
 DIIS: error= 4.98D-04 at cycle  18 NSaved=  18.
 NSaved=18 IEnMin=18 EnMin= -1357.56208127809     IErMin=12 ErrMin= 3.44D-04
 ErrMax= 4.98D-04  0.00D+00 EMaxC= 1.00D-01 BMatC= 1.48D-04 BMatP= 2.45D-04
 IDIUse=3 WtCom= 9.97D-01 WtEn= 3.44D-03
 Coeff-Com:  0.419D-03-0.404D-03 0.249D-04-0.778D-04 0.666D-03 0.144D-02
 Coeff-Com:  0.147D-02-0.409D-02-0.513D-02 0.190D-02 0.602D-01 0.105D+00
 Coeff-Com:  0.149D+01-0.168D+01-0.114D+01 0.947D+00 0.210D+00 0.101D+01
 Coeff-En:   0.000D+00 0.000D+00 0.000D+00 0.000D+00 0.000D+00 0.000D+00
 Coeff-En:   0.000D+00 0.000D+00 0.000D+00 0.000D+00 0.000D+00 0.000D+00
 Coeff-En:   0.000D+00 0.000D+00 0.000D+00 0.000D+00 0.000D+00 0.100D+01
 Coeff:      0.417D-03-0.402D-03 0.248D-04-0.775D-04 0.664D-03 0.143D-02
 Coeff:      0.147D-02-0.407D-02-0.511D-02 0.190D-02 0.600D-01 0.105D+00
 Coeff:      0.149D+01-0.168D+01-0.114D+01 0.944D+00 0.209D+00 0.101D+01
 Gap=     0.012 Goal=   None    Shift=    0.000
 Gap=     0.012 Goal=   None    Shift=    0.000
 RMSDP=1.04D-02 MaxDP=6.45D-01 DE=-1.89D-04 OVMax= 2.81D-02

 Cycle  19  Pass 1  IDiag  1:
 RMSU=  4.00D-03    CP:  1.37D+00  1.86D-03  3.57D-02  9.06D-02  1.77D+00
                    CP:  4.40D-01  2.27D+00  3.00D+00  3.00D+00  3.00D+00
                    CP:  3.00D+00  3.00D+00  3.00D+00  3.00D+00  3.00D+00
                    CP:  3.00D+00  3.00D+00  2.16D+00
 E= -1357.56212968730     Delta-E=       -0.000048409208 Rises=F Damp=F
 DIIS: error= 4.43D-04 at cycle  19 NSaved=  19.
 NSaved=19 IEnMin=19 EnMin= -1357.56212968730     IErMin=12 ErrMin= 3.44D-04
 ErrMax= 4.43D-04  0.00D+00 EMaxC= 1.00D-01 BMatC= 1.06D-04 BMatP= 1.48D-04
 IDIUse=3 WtCom= 9.97D-01 WtEn= 3.44D-03
 Coeff-Com:  0.101D-03-0.905D-04-0.743D-05 0.908D-04-0.262D-03-0.723D-04
 Coeff-Com:  0.225D-02 0.423D-02-0.924D-02 0.239D-02 0.867D-02 0.707D-01
 Coeff-Com:  0.119D+01-0.871D+00-0.778D+00 0.127D+00-0.295D+00 0.803D+00
 Coeff-Com:  0.743D+00
 Coeff-En:   0.000D+00 0.000D+00 0.000D+00 0.000D+00 0.000D+00 0.000D+00
 Coeff-En:   0.000D+00 0.000D+00 0.000D+00 0.000D+00 0.000D+00 0.000D+00
 Coeff-En:   0.000D+00 0.000D+00 0.000D+00 0.000D+00 0.000D+00 0.000D+00
 Coeff-En:   0.100D+01
 Coeff:      0.101D-03-0.901D-04-0.741D-05 0.905D-04-0.261D-03-0.720D-04
 Coeff:      0.224D-02 0.422D-02-0.921D-02 0.238D-02 0.864D-02 0.705D-01
 Coeff:      0.119D+01-0.868D+00-0.775D+00 0.127D+00-0.294D+00 0.800D+00
 Coeff:      0.744D+00
 Gap=     0.012 Goal=   None    Shift=    0.000
 Gap=     0.012 Goal=   None    Shift=    0.000
 RMSDP=3.39D-03 MaxDP=2.19D-01 DE=-4.84D-05 OVMax= 1.14D-02

 Cycle  20  Pass 1  IDiag  1:
 RMSU=  1.05D-03    CP:  1.36D+00  1.83D-03  3.89D-02  8.71D-02  1.76D+00
                    CP:  4.52D-01  2.25D+00  3.00D+00  3.00D+00  3.00D+00
                    CP:  3.00D+00  3.00D+00  3.00D+00  3.00D+00  3.00D+00
                    CP:  3.00D+00  3.00D+00  2.39D+00  5.24D-01
 E= -1357.56218641289     Delta-E=       -0.000056725595 Rises=F Damp=F
 DIIS: error= 3.58D-05 at cycle  20 NSaved=  20.
 NSaved=20 IEnMin=20 EnMin= -1357.56218641289     IErMin=20 ErrMin= 3.58D-05
 ErrMax= 3.58D-05  0.00D+00 EMaxC= 1.00D-01 BMatC= 3.43D-06 BMatP= 1.06D-04
 IDIUse=1 WtCom= 1.00D+00 WtEn= 0.00D+00
 Coeff-Com:  0.121D-03-0.118D-03-0.128D-04 0.125D-03-0.134D-03-0.394D-03
 Coeff-Com: -0.162D-03 0.234D-02 0.445D-03-0.512D-02-0.741D-02 0.669D-02
 Coeff-Com:  0.400D+00-0.181D+00-0.298D+00-0.520D-01-0.289D+00 0.353D+00
 Coeff-Com:  0.511D+00 0.559D+00
 Coeff:      0.121D-03-0.118D-03-0.128D-04 0.125D-03-0.134D-03-0.394D-03
 Coeff:     -0.162D-03 0.234D-02 0.445D-03-0.512D-02-0.741D-02 0.669D-02
 Coeff:      0.400D+00-0.181D+00-0.298D+00-0.520D-01-0.289D+00 0.353D+00
 Coeff:      0.511D+00 0.559D+00
 Gap=     0.012 Goal=   None    Shift=    0.000
 Gap=     0.012 Goal=   None    Shift=    0.000
 RMSDP=2.41D-03 MaxDP=1.76D-01 DE=-5.67D-05 OVMax= 6.71D-03

 Cycle  21  Pass 1  IDiag  1:
 Restarting incremental Fock formation.
 E= -1357.56218991594     Delta-E=       -0.000003503047 Rises=F Damp=F
 DIIS: error= 1.02D-05 at cycle  21 NSaved=  20.
 NSaved=20 IEnMin=20 EnMin= -1357.56218991594     IErMin=20 ErrMin= 1.02D-05
 ErrMax= 1.02D-05  0.00D+00 EMaxC= 1.00D-01 BMatC= 3.23D-07 BMatP= 3.43D-06
 IDIUse=1 WtCom= 1.00D+00 WtEn= 0.00D+00
 Coeff-Com:  0.166D-04 0.351D-05 0.252D-04 0.222D-03-0.122D-03-0.986D-03
 Coeff-Com: -0.744D-03 0.387D-02-0.203D-02 0.112D-02-0.875D-02 0.948D-02
 Coeff-Com:  0.424D-02-0.227D-02-0.159D-01-0.831D-01-0.120D-01 0.124D+00
 Coeff-Com:  0.306D+00 0.677D+00
 Coeff:      0.166D-04 0.351D-05 0.252D-04 0.222D-03-0.122D-03-0.986D-03
 Coeff:     -0.744D-03 0.387D-02-0.203D-02 0.112D-02-0.875D-02 0.948D-02
 Coeff:      0.424D-02-0.227D-02-0.159D-01-0.831D-01-0.120D-01 0.124D+00
 Coeff:      0.306D+00 0.677D+00
 Gap=     0.012 Goal=   None    Shift=    0.000
 Gap=     0.012 Goal=   None    Shift=    0.000
 RMSDP=5.80D-04 MaxDP=7.25D-02 DE=-3.50D-06 OVMax= 1.58D-03

 Cycle  22  Pass 1  IDiag  1:
 RMSU=  5.20D-04    CP:  9.98D-01
 E= -1357.56218945254     Delta-E=        0.000000463399 Rises=F Damp=F
 DIIS: error= 5.01D-05 at cycle  22 NSaved=  20.
 NSaved=20 IEnMin=19 EnMin= -1357.56218991594     IErMin=19 ErrMin= 1.02D-05
 ErrMax= 5.01D-05  0.00D+00 EMaxC= 1.00D-01 BMatC= 1.19D-06 BMatP= 3.23D-07
 IDIUse=1 WtCom= 1.00D+00 WtEn= 0.00D+00
 Coeff-Com:  0.472D-05-0.276D-05 0.174D-03 0.348D-04-0.594D-03-0.966D-03
 Coeff-Com:  0.273D-02-0.818D-03 0.384D-02-0.520D-02-0.223D-01-0.219D-01
 Coeff-Com:  0.266D-01 0.282D-01 0.173D-01-0.398D-01 0.244D-01 0.263D-01
 Coeff-Com:  0.369D+00 0.593D+00
 Coeff:      0.472D-05-0.276D-05 0.174D-03 0.348D-04-0.594D-03-0.966D-03
 Coeff:      0.273D-02-0.818D-03 0.384D-02-0.520D-02-0.223D-01-0.219D-01
 Coeff:      0.266D-01 0.282D-01 0.173D-01-0.398D-01 0.244D-01 0.263D-01
 Coeff:      0.369D+00 0.593D+00
 Gap=     0.012 Goal=   None    Shift=    0.000
 Gap=     0.012 Goal=   None    Shift=    0.000
 RMSDP=5.00D-04 MaxDP=5.00D-02 DE= 4.63D-07 OVMax= 1.17D-03

 Cycle  23  Pass 1  IDiag  1:
 RMSU=  2.77D-04    CP:  9.99D-01  1.72D+00
 E= -1357.56219016660     Delta-E=       -0.000000714058 Rises=F Damp=F
 DIIS: error= 1.54D-05 at cycle  23 NSaved=  20.
 NSaved=20 IEnMin=20 EnMin= -1357.56219016660     IErMin=18 ErrMin= 1.02D-05
 ErrMax= 1.54D-05  0.00D+00 EMaxC= 1.00D-01 BMatC= 1.33D-07 BMatP= 3.23D-07
 IDIUse=1 WtCom= 1.00D+00 WtEn= 0.00D+00
 Coeff-Com: -0.272D-06-0.452D-04 0.423D-04 0.137D-03-0.146D-03-0.237D-03
 Coeff-Com:  0.655D-03 0.185D-02 0.176D-02-0.130D-01-0.180D-01 0.208D-01
 Coeff-Com:  0.170D-01 0.486D-01-0.255D-01-0.781D-02-0.147D+00-0.618D-01
 Coeff-Com:  0.352D+00 0.830D+00
 Coeff:     -0.272D-06-0.452D-04 0.423D-04 0.137D-03-0.146D-03-0.237D-03
 Coeff:      0.655D-03 0.185D-02 0.176D-02-0.130D-01-0.180D-01 0.208D-01
 Coeff:      0.170D-01 0.486D-01-0.255D-01-0.781D-02-0.147D+00-0.618D-01
 Coeff:      0.352D+00 0.830D+00
 Gap=     0.012 Goal=   None    Shift=    0.000
 Gap=     0.012 Goal=   None    Shift=    0.000
 RMSDP=5.52D-04 MaxDP=6.02D-02 DE=-7.14D-07 OVMax= 1.04D-03

 Cycle  24  Pass 1  IDiag  1:
 RMSU=  1.98D-04    CP:  9.99D-01  2.61D+00  1.79D+00
 E= -1357.56219030443     Delta-E=       -0.000000137830 Rises=F Damp=F
 DIIS: error= 1.12D-06 at cycle  24 NSaved=  20.
 NSaved=20 IEnMin=20 EnMin= -1357.56219030443     IErMin=20 ErrMin= 1.12D-06
 ErrMax= 1.12D-06  0.00D+00 EMaxC= 1.00D-01 BMatC= 5.17D-09 BMatP= 1.33D-07
 IDIUse=1 WtCom= 1.00D+00 WtEn= 0.00D+00
 Coeff-Com: -0.554D-04 0.494D-04 0.229D-03 0.122D-03-0.109D-02 0.760D-03
 Coeff-Com: -0.331D-03 0.226D-02-0.258D-01 0.181D-01 0.102D-01 0.247D-02
 Coeff-Com:  0.257D-01-0.107D-01-0.217D-01-0.954D-01-0.124D+00-0.129D-01
 Coeff-Com:  0.380D+00 0.852D+00
 Coeff:     -0.554D-04 0.494D-04 0.229D-03 0.122D-03-0.109D-02 0.760D-03
 Coeff:     -0.331D-03 0.226D-02-0.258D-01 0.181D-01 0.102D-01 0.247D-02
 Coeff:      0.257D-01-0.107D-01-0.217D-01-0.954D-01-0.124D+00-0.129D-01
 Coeff:      0.380D+00 0.852D+00
 Gap=     0.012 Goal=   None    Shift=    0.000
 Gap=     0.012 Goal=   None    Shift=    0.000
 RMSDP=4.04D-04 MaxDP=3.87D-02 DE=-1.38D-07 OVMax= 7.15D-04

 Cycle  25  Pass 1  IDiag  1:
 RMSU=  1.40D-04    CP:  1.00D+00  3.00D+00  2.50D+00  1.38D+00
 E= -1357.56219030524     Delta-E=       -0.000000000807 Rises=F Damp=F
 DIIS: error= 1.01D-05 at cycle  25 NSaved=  20.
 NSaved=20 IEnMin=20 EnMin= -1357.56219030524     IErMin=19 ErrMin= 1.12D-06
 ErrMax= 1.01D-05  0.00D+00 EMaxC= 1.00D-01 BMatC= 4.35D-08 BMatP= 5.17D-09
 IDIUse=1 WtCom= 1.00D+00 WtEn= 0.00D+00
 Coeff-Com:  0.364D-04 0.885D-04 0.370D-06-0.711D-03 0.571D-03-0.425D-03
 Coeff-Com:  0.119D-02-0.244D-01 0.252D-01 0.486D-02-0.192D-02 0.529D-02
 Coeff-Com: -0.901D-02-0.259D-01-0.115D-01-0.377D-01-0.556D-01-0.283D-01
 Coeff-Com:  0.332D+00 0.826D+00
 Coeff:      0.364D-04 0.885D-04 0.370D-06-0.711D-03 0.571D-03-0.425D-03
 Coeff:      0.119D-02-0.244D-01 0.252D-01 0.486D-02-0.192D-02 0.529D-02
 Coeff:     -0.901D-02-0.259D-01-0.115D-01-0.377D-01-0.556D-01-0.283D-01
 Coeff:      0.332D+00 0.826D+00
 Gap=     0.012 Goal=   None    Shift=    0.000
 Gap=     0.012 Goal=   None    Shift=    0.000
 RMSDP=2.05D-04 MaxDP=2.30D-02 DE=-8.07D-10 OVMax= 3.72D-04

 Cycle  26  Pass 1  IDiag  1:
 RMSU=  7.34D-06    CP:  9.99D-01  3.00D+00  2.71D+00  1.86D+00  2.18D+00
 E= -1357.56219033239     Delta-E=       -0.000000027148 Rises=F Damp=F
 DIIS: error= 3.98D-06 at cycle  26 NSaved=  20.
 NSaved=20 IEnMin=20 EnMin= -1357.56219033239     IErMin=18 ErrMin= 1.12D-06
 ErrMax= 3.98D-06  0.00D+00 EMaxC= 1.00D-01 BMatC= 7.18D-09 BMatP= 5.17D-09
 IDIUse=1 WtCom= 1.00D+00 WtEn= 0.00D+00
 Coeff-Com:  0.288D-04 0.581D-04-0.189D-03-0.459D-04-0.220D-03 0.382D-04
 Coeff-Com: -0.806D-02 0.101D-01-0.188D-02 0.967D-03-0.187D-02-0.490D-03
 Coeff-Com: -0.144D-01 0.166D-01 0.875D-02 0.100D-01-0.108D+00-0.144D+00
 Coeff-Com:  0.469D+00 0.764D+00
 Coeff:      0.288D-04 0.581D-04-0.189D-03-0.459D-04-0.220D-03 0.382D-04
 Coeff:     -0.806D-02 0.101D-01-0.188D-02 0.967D-03-0.187D-02-0.490D-03
 Coeff:     -0.144D-01 0.166D-01 0.875D-02 0.100D-01-0.108D+00-0.144D+00
 Coeff:      0.469D+00 0.764D+00
 Gap=     0.012 Goal=   None    Shift=    0.000
 Gap=     0.012 Goal=   None    Shift=    0.000
 RMSDP=9.26D-05 MaxDP=1.04D-02 DE=-2.71D-08 OVMax= 1.60D-04

 Cycle  27  Pass 1  IDiag  1:
 RMSU=  1.44D-05    CP:  9.99D-01  3.00D+00  2.88D+00  1.99D+00  2.70D+00
                    CP:  1.37D+00
 E= -1357.56219033484     Delta-E=       -0.000000002457 Rises=F Damp=F
 DIIS: error= 2.92D-06 at cycle  27 NSaved=  20.
 NSaved=20 IEnMin=20 EnMin= -1357.56219033484     IErMin=17 ErrMin= 1.12D-06
 ErrMax= 2.92D-06  0.00D+00 EMaxC= 1.00D-01 BMatC= 3.66D-09 BMatP= 5.17D-09
 IDIUse=1 WtCom= 1.00D+00 WtEn= 0.00D+00
 Coeff-Com:  0.908D-06-0.416D-05-0.669D-04 0.102D-03-0.750D-04-0.831D-03
 Coeff-Com:  0.185D-03-0.133D-02 0.237D-02-0.986D-04-0.129D-04-0.672D-02
 Coeff-Com:  0.800D-02 0.109D-01 0.323D-01-0.380D-01-0.138D+00 0.501D-01
 Coeff-Com:  0.485D+00 0.596D+00
 Coeff:      0.908D-06-0.416D-05-0.669D-04 0.102D-03-0.750D-04-0.831D-03
 Coeff:      0.185D-03-0.133D-02 0.237D-02-0.986D-04-0.129D-04-0.672D-02
 Coeff:      0.800D-02 0.109D-01 0.323D-01-0.380D-01-0.138D+00 0.501D-01
 Coeff:      0.485D+00 0.596D+00
 Gap=     0.012 Goal=   None    Shift=    0.000
 Gap=     0.012 Goal=   None    Shift=    0.000
 RMSDP=3.97D-05 MaxDP=3.29D-03 DE=-2.46D-09 OVMax= 1.39D-04

 Cycle  28  Pass 1  IDiag  1:
 RMSU=  8.09D-06    CP:  9.99D-01  3.00D+00  2.86D+00  2.12D+00  2.73D+00
                    CP:  1.92D+00  2.15D+00
 E= -1357.56219033764     Delta-E=       -0.000000002799 Rises=F Damp=F
 DIIS: error= 4.86D-07 at cycle  28 NSaved=  20.
 NSaved=20 IEnMin=20 EnMin= -1357.56219033764     IErMin=20 ErrMin= 4.86D-07
 ErrMax= 4.86D-07  0.00D+00 EMaxC= 1.00D-01 BMatC= 1.05D-10 BMatP= 3.66D-09
 IDIUse=1 WtCom= 1.00D+00 WtEn= 0.00D+00
 Coeff-Com:  0.216D-04-0.404D-04 0.112D-03-0.544D-04-0.260D-03-0.694D-03
 Coeff-Com: -0.855D-03 0.212D-02 0.573D-03 0.715D-03-0.350D-02 0.188D-02
 Coeff-Com:  0.385D-02 0.216D-01-0.914D-02-0.770D-01-0.329D-01 0.259D+00
 Coeff-Com:  0.410D+00 0.424D+00
 Coeff:      0.216D-04-0.404D-04 0.112D-03-0.544D-04-0.260D-03-0.694D-03
 Coeff:     -0.855D-03 0.212D-02 0.573D-03 0.715D-03-0.350D-02 0.188D-02
 Coeff:      0.385D-02 0.216D-01-0.914D-02-0.770D-01-0.329D-01 0.259D+00
 Coeff:      0.410D+00 0.424D+00
 Gap=     0.012 Goal=   None    Shift=    0.000
 Gap=     0.012 Goal=   None    Shift=    0.000
 RMSDP=2.54D-05 MaxDP=2.39D-03 DE=-2.80D-09 OVMax= 7.16D-05

 Cycle  29  Pass 1  IDiag  1:
 RMSU=  3.68D-06    CP:  9.99D-01  3.00D+00  2.88D+00  2.15D+00  2.77D+00
                    CP:  2.76D+00  3.00D+00  2.99D+00
 E= -1357.56219033826     Delta-E=       -0.000000000614 Rises=F Damp=F
 DIIS: error= 8.37D-07 at cycle  29 NSaved=  20.
 NSaved=20 IEnMin=20 EnMin= -1357.56219033826     IErMin=19 ErrMin= 4.86D-07
 ErrMax= 8.37D-07  0.00D+00 EMaxC= 1.00D-01 BMatC= 1.22D-10 BMatP= 1.05D-10
 IDIUse=1 WtCom= 1.00D+00 WtEn= 0.00D+00
 Coeff-Com: -0.444D-05 0.165D-03 0.535D-04-0.749D-04-0.104D-02-0.115D-02
 Coeff-Com:  0.255D-02 0.919D-03 0.999D-03-0.403D-02 0.717D-03 0.145D-02
 Coeff-Com:  0.233D-01-0.569D-02-0.792D-01-0.480D-01 0.294D+00 0.521D+00
 Coeff-Com:  0.665D+00-0.371D+00
 Coeff:     -0.444D-05 0.165D-03 0.535D-04-0.749D-04-0.104D-02-0.115D-02
 Coeff:      0.255D-02 0.919D-03 0.999D-03-0.403D-02 0.717D-03 0.145D-02
 Coeff:      0.233D-01-0.569D-02-0.792D-01-0.480D-01 0.294D+00 0.521D+00
 Coeff:      0.665D+00-0.371D+00
 Gap=     0.012 Goal=   None    Shift=    0.000
 Gap=     0.012 Goal=   None    Shift=    0.000
 RMSDP=2.73D-05 MaxDP=1.92D-03 DE=-6.14D-10 OVMax= 7.48D-05

 Cycle  30  Pass 1  IDiag  1:
 RMSU=  1.15D-06    CP:  9.99D-01  3.00D+00  2.88D+00  2.16D+00  2.77D+00
                    CP:  1.77D+00  2.08D+00  4.67D-01 -1.59D-01
 E= -1357.56219033744     Delta-E=        0.000000000817 Rises=F Damp=F
 DIIS: error= 8.49D-07 at cycle  30 NSaved=  20.
 NSaved=20 IEnMin=19 EnMin= -1357.56219033826     IErMin=18 ErrMin= 4.86D-07
 ErrMax= 8.49D-07  0.00D+00 EMaxC= 1.00D-01 BMatC= 2.16D-10 BMatP= 1.05D-10
 IDIUse=1 WtCom= 1.00D+00 WtEn= 0.00D+00
 Coeff-Com:  0.104D-03 0.367D-05 0.110D-02-0.206D-02-0.287D-03 0.123D-02
 Coeff-Com:  0.613D-03 0.511D-03-0.111D-02-0.169D-02 0.120D-03 0.101D-01
 Coeff-Com:  0.570D-02-0.241D-01-0.793D-01 0.705D-01 0.241D+00 0.641D+00
 Coeff-Com: -0.996D+00 0.113D+01
 Coeff:      0.104D-03 0.367D-05 0.110D-02-0.206D-02-0.287D-03 0.123D-02
 Coeff:      0.613D-03 0.511D-03-0.111D-02-0.169D-02 0.120D-03 0.101D-01
 Coeff:      0.570D-02-0.241D-01-0.793D-01 0.705D-01 0.241D+00 0.641D+00
 Coeff:     -0.996D+00 0.113D+01
 Gap=     0.012 Goal=   None    Shift=    0.000
 Gap=     0.012 Goal=   None    Shift=    0.000
 RMSDP=2.57D-05 MaxDP=2.17D-03 DE= 8.17D-10 OVMax= 8.12D-05

 Cycle  31  Pass 1  IDiag  1:
 RMSU=  1.84D-06    CP:  9.99D-01  3.00D+00  2.89D+00  2.19D+00  2.81D+00
                    CP:  7.88D-01  1.45D+00 -2.13D+00 -8.55D-01  3.00D+00
 E= -1357.56219033742     Delta-E=        0.000000000015 Rises=F Damp=F
 DIIS: error= 1.55D-07 at cycle  31 NSaved=  20.
 NSaved=20 IEnMin=18 EnMin= -1357.56219033826     IErMin=20 ErrMin= 1.55D-07
 ErrMax= 1.55D-07  0.00D+00 EMaxC= 1.00D-01 BMatC= 1.36D-11 BMatP= 1.05D-10
 IDIUse=1 WtCom= 1.00D+00 WtEn= 0.00D+00
 Coeff-Com: -0.507D-04-0.986D-04-0.268D-03 0.497D-03-0.108D-03 0.433D-04
 Coeff-Com:  0.618D-04 0.834D-03-0.187D-02-0.159D-02-0.254D-02 0.652D-02
 Coeff-Com:  0.137D-01-0.300D-01-0.648D-01-0.505D-01 0.131D+00-0.439D+00
 Coeff-Com:  0.661D+00 0.778D+00
 Coeff:     -0.507D-04-0.986D-04-0.268D-03 0.497D-03-0.108D-03 0.433D-04
[...]
 315,-0.00994295,-0.06217648,-0.00053828,-0.00027763,0.00007851,0.00016
 679,0.00002222,0.00013121,-0.00061844,0.00006512,0.00004198,0.00026644
 ,-0.00018796,-0.00054223,0.00002938,0.00003305,0.00003945,-0.00001079,
 0.00004334,0.00008100,-0.00000007,-0.00001971,-0.00001827,-0.00002143,
 0.00027051,0.00054320,-0.00366237,-0.00181459,0.00179345,0.04404297,-0
 .00002616,-0.00000056,0.00002102,-0.00007193,-0.00004609,-0.00004667,0
 .00005704,-0.00005033,-0.00001705,-0.00026817,-0.00004663,-0.00005696,
 0.00002791,-0.00005948,-0.00011629,-0.00006279,-0.00006391,-0.00000046
 ,-0.00007507,-0.00040926,-0.00081941,0.00139703,0.00039931,0.00081632,
 -0.00129160,0.00079778,-0.00000449,0.00288997,-0.00054330,0.00174561,0
 .00017047,0.00006131,0.00018129,-0.00202390,0.00026259,-0.00083629,0.0
 0000172,-0.00000841,-0.00003069,-0.00000077,0.00001034,0.00000725,-0.0
 0000538,0.00001445,-0.00000825,0.00000710,0.00004818,0.00000796,-0.000
 15829,0.00006617,0.00003179,-0.00100921,-0.00052892,-0.00130723,-0.006
 20478,-0.00559470,-0.02730736,0.00279353,-0.00480691,-0.00134738,0.000
 30521,-0.00089275,0.00075821,0.00450544,-0.00141573,0.00146606,0.00521
 049,0.00909012,0.02033998,-0.01111499,-0.07538943,-0.07369673,-0.00033
 183,0.00004044,-0.00017486,0.00009546,-0.00019097,-0.00017130,-0.00018
 354,-0.00009585,0.00021135,0.00012925,0.00070757,0.00062950,0.00002317
 ,-0.00006983,-0.00003394,0.00002171,0.00001487,-0.00004204,-0.00001509
 ,0.00001308,0.00003232,-0.00050029,-0.00043318,-0.00145167,-0.00191940
 ,0.00030798,0.00025948,0.00748490,0.07877231,0.00004367,0.00000143,0.0
 0004709,-0.00000280,-0.00000891,-0.00002059,0.00000728,0.00005275,0.00
 008440,-0.00003312,0.00005406,-0.00010151,-0.00018026,-0.00006151,0.00
 031206,0.00012919,-0.00008054,-0.00019630,-0.00003040,0.00034623,0.000
 49327,-0.00064181,-0.00014711,-0.00039250,0.00045894,0.00027444,-0.000
 15264,-0.00195244,0.00125211,-0.00184367,0.00001348,-0.00005176,-0.000
 11448,0.00205783,0.00093591,-0.00132807,-0.00000715,0.00000014,0.00002
 757,0.00000293,-0.00000230,-0.00000463,0.00000704,0.00000383,-0.000002
 36,0.00001119,0.00002415,-0.00001376,0.00009863,-0.00004296,0.00004893
 ,-0.00027943,0.00086426,-0.00106169,-0.00143248,-0.00332622,-0.0038640
 7,-0.00076513,-0.00123793,0.00097134,0.00034187,0.00018021,0.00021552,
 -0.00285365,0.00143121,0.00175217,-0.00358097,-0.00522601,-0.01140368,
 -0.06378667,-0.07674540,-0.30701215,0.00035690,-0.00004334,-0.00002321
 ,-0.00010859,0.00011457,-0.00002435,0.00013794,0.00022345,-0.00009278,
 -0.00009624,-0.00017272,-0.00057510,-0.00003765,0.00005388,-0.00000375
 ,0.00000647,-0.00002947,-0.00001562,0.00000529,-0.00000752,-0.00001048
 ,-0.00007571,0.00019594,-0.00006338,0.00150634,0.00051509,0.00038617,0
 .07082738,0.08071360,0.32402287,0.00000233,-0.00000138,-0.00000668,-0.
 00000940,-0.00000231,0.00000137,0.00000868,0.00000826,0.00000802,-0.00
 000681,0.00002620,0.00001057,0.00001564,-0.00001448,0.00004001,0.00000
 551,-0.00000735,-0.00001443,0.00003538,-0.00003792,0.00005705,-0.00003
 339,-0.00004535,-0.00002820,0.00001310,-0.00003017,-0.00001980,-0.0000
 7368,0.00000119,-0.00006405,-0.00005060,0.00001494,-0.00001359,-0.0000
 2264,0.00001912,0.00009852,-0.00000135,0.00000105,0.00000013,-0.000000
 93,0.00000008,-0.00000231,0.00000099,-0.00000192,0.00000005,0.00000017
 ,-0.00000220,-0.00000101,0.00001469,-0.00000977,-0.00001793,0.00010336
 ,0.00020445,-0.00004995,-0.00012744,-0.00007270,0.00027122,-0.00200061
 ,-0.00144716,0.00054882,0.00460901,-0.00626408,-0.00206576,0.00383316,
 0.00091786,-0.00289871,0.00007920,-0.00038915,0.00011208,-0.00007012,0
 .00002345,-0.00016905,-0.05082285,0.05988326,0.01039182,0.00024899,0.0
 1316840,0.00538174,0.00519035,0.00335291,-0.00422541,-0.00070558,-0.00
 042837,-0.00006550,0.00000429,0.00002160,0.00000722,-0.00000302,-0.000
 01559,0.00001318,-0.00000239,-0.00000259,-0.00000778,0.00017194,0.0002
 6061,0.00010176,0.00008537,0.00002153,-0.00012853,0.00000326,0.0000295
 9,-0.00000009,0.04369415,0.00000294,-0.00000257,-0.00000966,-0.0000349
 0,-0.00000594,-0.00000787,0.00002988,0.00000768,0.00000419,-0.00007993
 ,0.00002351,0.00004462,0.00004437,0.00001476,0.00007447,-0.00000686,0.
 00000009,-0.00001903,0.00012610,-0.00000952,-0.00002930,0.00000922,-0.
 00001186,-0.00002398,0.00005494,-0.00000790,-0.00012299,-0.00008813,0.
 00001823,0.00000203,-0.00015549,-0.00000562,-0.00000539,0.00006970,0.0
 0004743,-0.00003531,-0.00000459,-0.00000189,-0.00000210,-0.00000381,-0
 .00000485,-0.00000700,0.00000570,-0.00000401,-0.00000582,0.00000190,0.
 00000069,0.00000647,-0.00000790,-0.00001959,-0.00000253,0.00003258,0.0
 0005315,0.00003885,-0.00027599,-0.00007275,-0.00036547,-0.00027352,0.0
 0033529,0.00199063,0.00305014,-0.00692138,-0.00159573,0.00035029,0.002
 03996,-0.00186156,0.00020250,-0.00058119,0.00040365,-0.00008945,0.0002
 2292,0.00006277,0.05991666,-0.28420963,-0.07789756,0.00338107,-0.01545
 276,-0.00845782,0.00393693,0.00049793,0.00306841,-0.00039807,0.0004803
 6,0.00011847,-0.00000365,0.00002361,0.00000163,0.00000616,-0.00000641,
 0.00000621,-0.00000912,-0.00000445,-0.00000864,-0.00032435,0.00060006,
 -0.00057354,0.00002642,-0.00006931,-0.00022031,0.00003028,0.00004736,0
 .00001690,-0.06777127,0.30355083,0.00001175,-0.00000973,-0.00003058,-0
 .00004764,0.00000015,0.00000098,0.00004447,0.00001227,0.00000874,-0.00
 008143,0.00003947,0.00008907,0.00005330,0.00002322,0.00011200,0.000002
 50,-0.00000059,-0.00002623,0.00017302,0.00006719,0.00009090,-0.0001774
 0,-0.00005338,-0.00014683,0.00010532,-0.00005560,-0.00010600,-0.000178
 60,0.00001376,0.00002046,-0.00022015,-0.00002527,-0.00003789,0.0002218
 6,0.00006236,0.00005049,-0.00000626,0.00000039,0.00000472,-0.00000405,
 -0.00000601,-0.00000950,0.00000785,-0.00000646,-0.00000682,0.00000456,
 -0.00000215,0.00000403,0.00002750,-0.00003265,-0.00001595,0.00005725,-
 0.00004037,-0.00001399,-0.00003284,0.00061188,0.00013769,0.00177301,-0
 .00118957,0.00096776,0.00684451,-0.02757281,-0.00467897,-0.00321236,-0
 .00056290,-0.00432436,0.00056900,-0.00148810,0.00003090,0.00012133,-0.
 00015585,0.00008134,0.01062699,-0.07802800,-0.08028659,-0.00428518,0.0
 1933232,0.00958856,-0.00370236,0.00152553,-0.00093406,-0.00032284,0.00
 052977,-0.00102849,-0.00001035,0.00004043,0.00000729,-0.00000789,-0.00
 001506,0.00002351,-0.00000509,-0.00000543,-0.00001018,-0.00047613,0.00
 103479,-0.00006345,-0.00012052,-0.00019652,-0.00045730,-0.00004503,0.0
 0008461,0.00000124,-0.00952632,0.08506916,0.08047760,0.00001275,-0.000
 01314,-0.00003543,-0.00006645,-0.00001840,0.00000335,0.00006269,-0.000
 01323,0.00000256,-0.00014856,0.00002505,0.00013794,0.00007533,0.000162
 79,0.00007363,-0.00001252,0.00000901,-0.00000913,0.00025130,0.00015174
 ,0.00002579,-0.00026118,-0.00003230,-0.00011825,0.00044089,-0.00005992
 ,-0.00029264,-0.00025817,-0.00003191,0.00021208,-0.00032337,-0.0000798
 8,-0.00002906,0.00048266,0.00000790,-0.00013022,-0.00000935,-0.0000035
 3,0.00000606,-0.00000647,-0.00000156,-0.00001603,0.00001147,-0.0000024
 9,-0.00001644,0.00000948,0.00000358,0.00001080,0.00000343,0.00000308,-
 0.00004976,-0.00009069,-0.00043855,0.00008636,-0.00096508,0.00039986,-
 0.00012586,0.00058247,-0.00056279,-0.00020168,0.00594330,0.00466119,-0
 .00367844,0.00021601,0.00044120,0.00040301,-0.00068731,-0.00011576,-0.
 00027301,0.00005811,-0.00038003,0.00058067,-0.00011196,-0.00520906,-0.
 01289612,-0.05414425,-0.01089028,-0.06454264,0.00223248,0.00082533,0.0
 0779577,0.00394083,0.00275917,-0.00119712,-0.00003205,0.00001911,0.000
 00772,0.00000948,-0.00000180,0.00005956,-0.00001001,-0.00000025,-0.000
 01365,0.00002897,0.00002125,-0.00002998,-0.00006061,-0.00001983,-0.000
 01646,0.00005155,0.00002958,-0.00007856,-0.00359866,-0.00161257,0.0018
 1383,0.04735244,-0.00001009,0.00000130,0.00001036,0.00001486,0.0000019
 8,0.00000183,-0.00001983,0.00000128,0.00000480,0.00003039,-0.00000439,
 -0.00003446,-0.00004701,0.00002087,-0.00004062,0.00000263,0.00000659,0
 .00000011,-0.00007933,-0.00004256,-0.00012794,0.00009237,0.00008076,0.
 00012409,-0.00003542,-0.00006724,-0.00007096,0.00009417,-0.00002014,0.
 00005302,0.00009969,0.00001912,0.00005007,-0.00006759,0.00001550,-0.00
 007498,0.00000518,-0.00000248,-0.00000516,0.00000219,0.00000237,0.0000
 0863,-0.00000581,0.00000078,0.00000697,-0.00000434,-0.00000215,0.00000
 053,-0.00002360,-0.00001205,0.00001328,-0.00001291,0.00003579,0.000105
 12,-0.00012890,0.00002204,0.00040623,0.00002671,0.00068880,0.00037191,
 0.00419173,-0.00165229,0.00139417,0.00054585,-0.00045051,0.00075671,-0
 .00042315,0.00016790,-0.00042133,0.00008433,-0.00035648,0.00021022,0.0
 0483857,0.00949489,0.01993986,-0.01128664,-0.07779455,-0.07339258,-0.0
 0867044,-0.00416668,-0.02743123,0.00297891,-0.00454784,-0.00103364,-0.
 00000067,-0.00000361,-0.00000710,0.00000421,0.00000249,-0.00001757,0.0
 0000205,0.00000442,0.00000424,0.00000534,-0.00002613,-0.00005345,0.000
 00480,0.00005556,0.00009040,0.00002238,0.00000921,-0.00001425,-0.00183
 766,0.00034846,0.00000726,0.01042801,0.07759434,0.00004671,-0.00002029
 ,-0.00006621,-0.00016777,-0.00001774,-0.00002879,0.00015971,0.00005003
 ,0.00003639,-0.00033827,0.00013977,0.00022352,0.00025311,0.00003193,0.
 00040275,-0.00000268,-0.00002698,-0.00010323,0.00049778,0.00009777,0.0
 0010000,-0.00025507,-0.00002149,-0.00037182,0.00028319,-0.00028259,-0.
 00029928,-0.00075309,-0.00005421,-0.00008865,-0.00064401,-0.00008629,-
 0.00009494,0.00065087,0.00011847,0.00021276,-0.00002383,-0.00000114,0.
 00000762,-0.00001643,-0.00001957,-0.00003854,0.00002863,-0.00002531,-0
 .00002941,0.00001631,0.00000073,0.00001535,0.00003695,-0.00007067,-0.0
 0001789,0.00019105,0.00007950,0.00022723,0.00010920,0.00037359,-0.0005
 0024,-0.00002735,-0.00068022,-0.00073148,-0.00415329,0.00269221,0.0014
 9294,-0.00006266,0.00021463,0.00005871,0.00060512,-0.00008546,0.000465
 52,-0.00025165,0.00041246,-0.00040243,-0.00437505,-0.00791583,-0.01549
 336,-0.06296394,-0.07265145,-0.28418362,-0.00234057,-0.00046838,-0.005
 58109,-0.00065625,-0.00252135,0.00201447,-0.00001191,0.00006981,0.0000
 2340,-0.00000396,-0.00002129,0.00004875,-0.00002352,-0.00002103,-0.000
 03150,-0.00004695,0.00004183,-0.00001449,0.00003924,-0.00001093,0.0000
 0410,-0.00002922,0.00002608,-0.00000968,0.00164941,0.00091596,0.000221
 19,0.07179319,0.07968602,0.30231321,0.00001310,-0.00001876,-0.00003616
 ,-0.00005817,-0.00001203,0.00000336,0.00005911,-0.00002550,-0.00001456
 ,-0.00013650,-0.00000098,0.00014351,0.00008602,0.00014626,0.00002647,-
 0.00002111,-0.00000300,0.00002488,0.00027740,0.00017406,0.00011660,-0.
 00030857,-0.00012366,-0.00016072,0.00046978,0.00013787,-0.00014412,-0.
 00018533,0.00003864,0.00017677,-0.00033827,-0.00008178,-0.00006781,0.0
 0039488,-0.00006640,-0.00010073,-0.00001193,0.00000270,0.00000798,-0.0
 0000719,-0.00000469,-0.00001940,0.00001439,0.00000201,-0.00002080,0.00
 001002,0.00000622,0.00000783,0.00001068,0.00001181,-0.00005047,-0.0001
 3995,-0.00037146,-0.00008893,-0.00040093,0.00027474,0.00012559,-0.0002
 5953,-0.00031619,0.00033641,0.00013350,-0.00004468,-0.00015702,0.00730
 118,0.00099684,-0.00282312,0.00002518,0.00069259,-0.00053605,-0.000261
 71,-0.00067919,0.00035527,0.00459753,0.00215297,0.00005569,-0.00312681
 ,0.00259138,-0.00411168,-0.09197114,0.08289641,-0.08249333,-0.00090761
 ,0.00525368,-0.00373402,-0.00003003,0.00001738,0.00001244,0.00000976,0
 .00000749,0.00005327,-0.00000894,-0.00000042,-0.00001251,-0.00001291,-
 0.00000185,0.00001361,0.00001062,-0.00000460,-0.00005546,-0.00003708,0
 .00000584,-0.00000400,0.00025577,0.00016738,-0.00037368,-0.00129570,-0
 .00056232,0.00097107,0.08945077,-0.00001502,0.00001252,0.00001323,0.00
 005722,0.00000821,0.00001343,-0.00005772,0.00000072,-0.00000905,0.0001
 2915,-0.00003418,-0.00006562,-0.00010800,-0.00004736,-0.00013967,0.000
 00550,0.00002061,0.00002434,-0.00016925,0.00004796,-0.00003616,0.00004
 305,0.00007861,0.00006770,-0.00003757,-0.00000852,0.00009165,0.0002733
 4,-0.00006280,0.00013429,0.00019141,0.00000709,0.00004249,-0.00016060,
 0.00005083,-0.00011584,0.00000840,-0.00000624,0.00000038,0.00000568,0.
 00000571,0.00001414,-0.00001132,0.00000388,0.00001188,-0.00000766,-0.0
 0000715,-0.00000158,-0.00001102,0.00000356,-0.00000139,-0.00009169,-0.
 00003237,-0.00003582,-0.00000074,-0.00007756,-0.00000792,-0.00009489,-
 0.00003181,0.00025211,-0.00026615,-0.00009858,-0.00086668,0.00175529,0
 .00126986,-0.00299859,0.00011235,0.00042581,-0.00016894,-0.00022979,0.
 00001618,0.00014857,0.00169670,-0.00390826,-0.00362401,0.01217392,-0.0
 1411499,0.02038253,0.08295396,-0.16288619,0.10399328,-0.00484776,0.008
 90412,-0.00676038,-0.00000607,-0.00000816,-0.00000775,0.00000234,-0.00
 000434,-0.00000342,0.00000507,0.00000204,0.00000905,-0.00004973,0.0000
 4946,-0.00003225,0.00001986,-0.00000583,0.00004141,-0.00013094,-0.0000
 0228,-0.00006233,0.00068865,-0.00067999,0.00095320,-0.00082925,0.00086
 401,-0.00015171,-0.09158081,0.17000718,0.00004376,-0.00002687,-0.00006
 826,-0.00015214,-0.00001875,-0.00001690,0.00015219,0.00001489,0.000014
 70,-0.00031941,0.00010064,0.00023715,0.00024707,0.00009720,0.00033390,
 -0.00001369,-0.00002711,-0.00005976,0.00054196,0.00010633,0.00023354,-
 0.00036824,-0.00018544,-0.00036690,0.00034772,-0.00006071,-0.00022483,
 -0.00063448,0.00006607,-0.00010213,-0.00065622,-0.00008184,-0.00013890
 ,0.00058578,0.00000242,0.00020010,-0.00002480,0.00000531,0.00001137,-0
 .00001555,-0.00001699,-0.00004109,0.00003077,-0.00001506,-0.00003263,0
 .00001985,0.00000836,0.00001082,0.00005534,-0.00003133,-0.00004277,0.0
 0012477,-0.00002056,0.00005539,0.00003560,-0.00019177,-0.00032430,0.00
 029776,0.00015210,0.00036016,-0.00005341,-0.00051725,-0.00021039,-0.00
 290046,-0.00461149,-0.00316616,-0.00051763,0.00120126,0.00033812,-0.00
 004068,0.00010261,-0.00091125,-0.00080262,-0.00225854,0.00050260,0.005
 90430,-0.00682898,0.00905305,-0.08213437,0.10367769,-0.16080724,-0.013
 37532,0.02092704,-0.01443109,-0.00001472,0.00006169,0.00002834,-0.0000
 0436,-0.00001329,0.00006005,-0.00001873,-0.00001381,-0.00003185,-0.000
 01367,0.00005798,-0.00002246,-0.00001027,-0.00008158,-0.00003837,0.000
 02815,0.00015484,-0.00001251,0.00021470,-0.00059824,0.00024477,0.00042
 939,0.00083430,0.00054006,0.09110271,-0.11227148,0.16843649,0.00000551
 ,-0.00000697,-0.00000798,-0.00002750,-0.00000845,-0.00000567,0.0000269
 7,0.00000042,0.00000527,-0.00005869,0.00003552,0.00002273,0.00005325,-
 0.00001054,0.00007289,-0.00000107,-0.00000694,-0.00001745,0.00008541,-
 0.00001754,0.00003063,-0.00001058,-0.00002367,-0.00006228,0.00002331,-
 0.00005338,-0.00001394,-0.00011790,-0.00000980,-0.00005253,-0.00010996
 ,-0.00001589,-0.00002038,0.00005643,0.00000750,0.00005446,-0.00000481,
 0.00000193,-0.00000031,-0.00000272,-0.00000112,-0.00000789,0.00000467,
 -0.00000114,-0.00000552,0.00000342,0.00000226,0.00000184,0.00000174,-0
 .00000228,-0.00000357,0.00001525,0.00007888,0.00001014,0.00007888,-0.0
 0004714,0.00011987,-0.00012374,0.00060383,0.00040489,0.00338668,0.0024
 0064,-0.00350577,0.00013524,0.01302454,0.00495782,-0.00206023,-0.00071
 316,0.00202133,-0.00019909,-0.00014921,-0.00024285,-0.00090607,-0.0001
 7707,-0.00042036,0.00631908,0.00133656,-0.00330568,0.00458501,-0.00705
 888,-0.00256969,-0.05105882,0.05993470,0.01057242,0.00000348,-0.000000
 05,0.00000775,0.00000197,0.00000124,0.00000927,-0.00000703,-0.00000131
 ,-0.00000879,-0.00000848,0.00017375,-0.00017319,0.00016472,-0.00033990
 ,-0.00045404,0.00015531,0.00007778,-0.00006527,-0.00084584,-0.00030557
 ,0.00037803,0.00031675,-0.00025867,-0.00018408,-0.00360027,-0.00141590
 ,0.00190893,0.04371972,-0.00001633,0.00000772,0.00001359,0.00005677,0.
 00001484,0.00001602,-0.00005760,-0.00000267,-0.00000277,0.00013002,-0.
 00003889,-0.00005444,-0.00011587,-0.00003085,-0.00011124,0.00001882,0.
 00001394,0.00002311,-0.00013120,0.00000710,-0.00000119,-0.00000384,0.0
 0003712,0.00008702,-0.00007757,-0.00001772,0.00002732,0.00025993,0.000
 00527,0.00005037,0.00017115,0.00003028,0.00003506,-0.00022856,0.000033
 40,-0.00001624,0.00000745,-0.00000094,-0.00000180,0.00000458,0.0000045
 3,0.00001263,-0.00000988,0.00000525,0.00001532,-0.00000945,-0.00000973
 ,-0.00000249,0.00000988,0.00000436,-0.00000616,0.00004618,-0.00009911,
 0.00007823,-0.00013137,0.00034861,-0.00015679,-0.00010550,-0.00078374,
 -0.00090300,0.00286238,0.00028378,0.00310843,0.00372868,-0.01653846,-0
 .00837898,-0.00168765,0.00060169,-0.00166240,0.00010352,-0.00002587,0.
 00046533,-0.00018679,0.00038720,0.00069312,0.00093582,0.00225830,-0.00
 268669,0.00264711,-0.00555203,-0.00072587,0.06001620,-0.28433252,-0.07
 699697,-0.00000503,0.00000352,-0.00000367,-0.00000821,-0.00000912,-0.0
 0000301,0.00000864,0.00000275,0.00000912,0.00019726,-0.00030152,0.0002
 1881,0.00017919,0.00060662,0.00099457,0.00001719,-0.00001453,0.0000061
 3,-0.00026173,-0.00024069,0.00003870,0.00036865,-0.00028933,0.00020313
 ,-0.00167791,0.00023828,0.00030036,-0.06705495,0.30339316,0.00001030,-
 0.00000987,-0.00002172,-0.00003127,-0.00000284,0.00000308,0.00003291,0
 .00000200,0.00000477,-0.00005143,0.00002669,0.00006093,0.00004665,0.00
 002257,0.00008058,0.00000253,-0.00000712,-0.00001585,0.00011282,0.0000
 5206,0.00011168,-0.00018911,-0.00007236,-0.00012139,0.00015469,-0.0000
 2531,-0.00005008,-0.00021458,0.00000872,-0.00001092,-0.00013655,-0.000
 02245,-0.00003793,0.00024454,-0.00001052,0.00009644,-0.00000418,0.0000
 0242,0.00000575,-0.00000173,-0.00000156,-0.00000636,0.00000549,-0.0000
 0180,-0.00000589,0.00000602,0.00000245,-0.00000213,0.00003057,-0.00000
 894,-0.00001907,0.00007065,-0.00014191,-0.00002580,-0.00003945,0.00032
 462,0.00017113,-0.00007888,0.00080989,0.00049221,-0.00320100,0.0018472
 4,-0.00179353,-0.00399560,0.01756634,0.00895981,0.00072124,0.00159609,
 0.00071554,0.00030078,-0.00048058,0.00006422,-0.00011362,0.00037797,-0
 .00077420,-0.00402746,-0.00111546,-0.00397996,0.00727873,-0.02860080,-
 0.00434180,0.01045659,-0.07679905,-0.07992011,-0.00000578,0.00002100,0
 .00000911,-0.00001034,-0.00000665,0.00002394,0.00000015,-0.00000156,-0
 .00000605,-0.00016120,0.00017508,-0.00016728,0.00014449,-0.00066294,-0
 .00010133,-0.00008317,-0.00001821,-0.00001969,0.00039740,0.00002541,0.
 00001396,0.00030877,-0.00135486,-0.00032130,0.00147111,0.00116690,0.00
 038921,-0.00945106,0.08531733,0.08054006\\0.00000847,-0.00000336,-0.00
 000438,-0.00000812,-0.00000007,0.00000114,0.00000648,0.00000124,0.0000
 0247,-0.00001155,0.00000597,0.00000763,0.00001462,0.00000968,0.0000103
 8,-0.00000525,-0.00000474,-0.00000880,-0.00000606,0.00000065,0.0000003
 5,0.00000657,-0.00000117,-0.00000467,-0.00001090,-0.00000062,-0.000003
 96,-0.00002085,-0.00001189,-0.00000798,0.00000267,0.00000077,0.0000001
 1,0.00002013,0.00000131,0.00000717,-0.00000210,-0.00000008,-0.00000078
 ,-0.00000073,0.00000023,0.00000044,-0.00000030,-0.00000016,0.00000053,
 0.00000136,0.00000012,0.00000050,-0.00001380,-0.00002793,0.00000616,0.
 00000502,0.00000625,-0.00000192,0.00000689,-0.00001673,-0.00000725,0.0
 0000717,-0.00000919,0.00001174,-0.00000874,0.00001196,-0.00000880,-0.0
 0000747,-0.00000980,-0.00001866,0.00000800,0.00000569,0.00001409,-0.00
 000318,0.00001251,0.00000780,0.00000587,-0.00000386,0.00000899,-0.0000
 0500,0.00000784,-0.00000365,-0.00000031,-0.00000548,-0.00000977,0.0000
 0581,0.00000189,0.00001266,0.00000262,0.00001227,0.00000628,-0.0000010
 1,0.00001283,-0.00000459,0.00000394,0.00000283,-0.00000362,-0.00000045
 ,0.00000306,-0.00000051,-0.00000311,-0.00000168,-0.00000136,0.00000321
 ,0.00000043,-0.00000534,0.00000061,0.00000077,-0.00000184,0.00000133,-
 0.00000089,0.00000014,-0.00000074,-0.00000030,0.00000090,-0.00000109,-
 0.00000033,-0.00000162\\\@


 REFRAIN FROM ILLUSIONS, INSIST ON WORK AND NOT WORDS,
 PATIENTLY SEEK DIVINE AND SCIENTIFIC TRUTH.
 LAST WORDS OF MARIA MENDELEEVA TO HER SON DMITRI, C. 1850
 Job cpu time:       0 days 22 hours 38 minutes 36.7 seconds.
 Elapsed time:       0 days  2 hours 50 minutes  7.6 seconds.
 File lengths (MBytes):  RWF=   2788 Int=      0 D2E=      0 Chk=     45 Scr=      1
 Normal termination of Gaussian 16 at Fri Dec 29 11:15:22 2023.
