 Entering Gaussian System, Link 0=g16
 Input=120-rad.com
 Output=120-rad.log
 Initial command:
 /sysapps/ubuntu-applications/gaussian/Gaussian/AVX2/g16/l1.exe "/scratch/selhajj1/4221696/Gau-3895336.inp" -scrdir="/scratch/selhajj1/4221696/"
 Entering Link 1 = /sysapps/ubuntu-applications/gaussian/Gaussian/AVX2/g16/l1.exe PID=   3895340.
  
 Copyright (c) 1988,1990,1992,1993,1995,1998,2003,2009,2016,
            Gaussian, Inc.  All Rights Reserved.
  
 This is part of the Gaussian(R) 16 program.  It is based on
 the Gaussian(R) 09 system (copyright 2009, Gaussian, Inc.),
 the Gaussian(R) 03 system (copyright 2003, Gaussian, Inc.),
 the Gaussian(R) 98 system (copyright 1998, Gaussian, Inc.),
 the Gaussian(R) 94 system (copyright 1995, Gaussian, Inc.),
 the Gaussian 92(TM) system (copyright 1992, Gaussian, Inc.),
 the Gaussian 90(TM) system (copyright 1990, Gaussian, Inc.),
 the Gaussian 88(TM) system (copyright 1988, Gaussian, Inc.),
 the Gaussian 86(TM) system (copyright 1986, Carnegie Mellon
 University), and the Gaussian 82(TM) system (copyright 1983,
 Carnegie Mellon University). Gaussian is a federally registered
 trademark of Gaussian, Inc.
  
 This software contains proprietary and confidential information,
 including trade secrets, belonging to Gaussian, Inc.
  
 This software is provided under written license and may be
 used, copied, transmitted, or stored only in accord with that
 written license.
  
 The following legend is applicable only to US Government
 contracts under FAR:
  
                    RESTRICTED RIGHTS LEGEND
  
 Use, reproduction and disclosure by the US Government is
 subject to restrictions as set forth in subparagraphs (a)
 and (c) of the Commercial Computer Software - Restricted
 Rights clause in FAR 52.227-19.
  
 Gaussian, Inc.
 340 Quinnipiac St., Bldg. 40, Wallingford CT 06492
  
  
 ---------------------------------------------------------------
 Warning -- This program may not be used in any manner that
 competes with the business of Gaussian, Inc. or will provide
 assistance to any competitor of Gaussian, Inc.  The licensee
 of this program is prohibited from giving any competitor of
 Gaussian, Inc. access to this program.  By using this program,
 the user acknowledges that Gaussian, Inc. is engaged in the
 business of creating and licensing software in the field of
 computational chemistry and represents and warrants to the
 licensee that it is not a competitor of Gaussian, Inc. and that
 it will not use this program in any manner prohibited above.
 ---------------------------------------------------------------
  

 Cite this work as:
 Gaussian 16, Revision A.03,
 M. J. Frisch, G. W. Trucks, H. B. Schlegel, G. E. Scuseria, 
 M. A. Robb, J. R. Cheeseman, G. Scalmani, V. Barone, 
 G. A. Petersson, H. Nakatsuji, X. Li, M. Caricato, A. V. Marenich, 
 J. Bloino, B. G. Janesko, R. Gomperts, B. Mennucci, H. P. Hratchian, 
 J. V. Ortiz, A. F. Izmaylov, J. L. Sonnenberg, D. Williams-Young, 
 F. Ding, F. Lipparini, F. Egidi, J. Goings, B. Peng, A. Petrone, 
 T. Henderson, D. Ranasinghe, V. G. Zakrzewski, J. Gao, N. Rega, 
 G. Zheng, W. Liang, M. Hada, M. Ehara, K. Toyota, R. Fukuda, 
 J. Hasegawa, M. Ishida, T. Nakajima, Y. Honda, O. Kitao, H. Nakai, 
 T. Vreven, K. Throssell, J. A. Montgomery, Jr., J. E. Peralta, 
 F. Ogliaro, M. J. Bearpark, J. J. Heyd, E. N. Brothers, K. N. Kudin, 
 V. N. Staroverov, T. A. Keith, R. Kobayashi, J. Normand, 
 K. Raghavachari, A. P. Rendell, J. C. Burant, S. S. Iyengar, 
 J. Tomasi, M. Cossi, J. M. Millam, M. Klene, C. Adamo, R. Cammi, 
 J. W. Ochterski, R. L. Martin, K. Morokuma, O. Farkas, 
 J. B. Foresman, and D. J. Fox, Gaussian, Inc., Wallingford CT, 2016.
 
 ******************************************
 Gaussian 16:  ES64L-G16RevA.03 25-Dec-2016
                21-Dec-2023 
 ******************************************
 %chk=120-rad.chk
 %nproc=8
 Will use up to    8 processors via shared memory.
 %mem=30GB
 --------------------------------------
 #P UB3LYP/6-311++G(d,p) nosym opt freq
 --------------------------------------
 1/18=20,19=15,26=3,38=1/1,3;
 2/9=110,12=2,15=1,17=6,18=5,40=1/2;
 3/5=4,6=6,7=1111,11=2,25=1,30=1,71=1,74=-5,116=2/1,2,3;
 4//1;
 5/5=2,38=5/2;
 6/7=2,8=2,9=2,10=2,28=1/1;
 7/30=1/1,2,3,16;
 1/18=20,19=15,26=3/3(2);
 2/9=110,15=1/2;
 99//99;
 2/9=110,15=1/2;
 3/5=4,6=6,7=1111,11=2,25=1,30=1,71=1,74=-5,116=2/1,2,3;
 4/5=5,16=3,69=1/1;
 5/5=2,38=5/2;
 7/30=1/1,2,3,16;
 1/18=20,19=15,26=3/3(-5);
 2/9=110,15=1/2;
 6/7=2,8=2,9=2,10=2,19=2,28=1/1;
 99/9=1/99;
 Leave Link    1 at Thu Dec 21 05:33:58 2023, MaxMem=  4026531840 cpu:               0.5 elap:               0.1
 (Enter /sysapps/ubuntu-applications/gaussian/Gaussian/AVX2/g16/l101.exe)
 -------
 Radical
 -------
 Symbolic Z-matrix:
 Charge = -1 Multiplicity = 2
 C                    -3.36961   3.6859    0.03649 
 C                    -4.59111   3.0105    0.05553 
 C                    -4.61772   1.61633   0.07873 
 C                    -2.16933   2.9637    0.04053 
 C                    -2.19592   1.57023   0.06382 
 C                    -3.42287   0.89458   0.08301 
 C                    -0.88175   3.68603   0.01965 
 C                     0.37697   2.91436   0.02161 
 C                     0.35055   1.52336   0.04518 
 C                    -0.93675   0.79916   0.06813 
 C                     1.60259   3.59003  -0.00107 
 C                     2.80092   2.86912  -0.00015 
 C                     2.79188   1.46506   0.02432 
 C                     1.55271   0.80186   0.04659 
 O                    -0.85613   4.91084   0.00059 
 O                    -0.95772  -0.4258    0.09008 
 Br                    4.41999   3.86123  -0.0339 
 C                     4.05634   0.65077   0.02498 
 H                    -3.35729   4.77449   0.01837 
 H                    -5.52235   3.57295   0.05219 
 H                    -5.56977   1.09008   0.09348 
 H                    -3.45209  -0.19366   0.10115 
 H                     1.61831   4.67881  -0.01991 
 H                     1.52003  -0.2878    0.06493 
 H                     4.66311   0.88586   0.90519 
 H                     4.63431   0.84126  -0.88491 
 H                     3.84174  -0.423     0.05595 
 
 ITRead=  0  0  0  0  0  0  0  0  0  0  0  0  0  0  0  0  0  0  0  0
 ITRead=  0  0  0  0  0  0  0
 MicOpt= -1 -1 -1 -1 -1 -1 -1 -1 -1 -1 -1 -1 -1 -1 -1 -1 -1 -1 -1 -1
 MicOpt= -1 -1 -1 -1 -1 -1 -1
 NAtoms=     27 NQM=       27 NQMF=       0 NMMI=      0 NMMIF=      0
                NMic=       0 NMicF=      0.
                    Isotopes and Nuclear Properties:
 (Nuclear quadrupole moments (NQMom) in fm**2, nuclear magnetic moments (NMagM)
  in nuclear magnetons)

  Atom         1           2           3           4           5           6           7           8           9          10
 IAtWgt=          12          12          12          12          12          12          12          12          12          12
 AtmWgt=  12.0000000  12.0000000  12.0000000  12.0000000  12.0000000  12.0000000  12.0000000  12.0000000  12.0000000  12.0000000
 NucSpn=           0           0           0           0           0           0           0           0           0           0
 AtZEff=  -0.0000000  -0.0000000  -0.0000000  -0.0000000  -0.0000000  -0.0000000  -0.0000000  -0.0000000  -0.0000000  -0.0000000
 NQMom=    0.0000000   0.0000000   0.0000000   0.0000000   0.0000000   0.0000000   0.0000000   0.0000000   0.0000000   0.0000000
 NMagM=    0.0000000   0.0000000   0.0000000   0.0000000   0.0000000   0.0000000   0.0000000   0.0000000   0.0000000   0.0000000
 AtZNuc=   6.0000000   6.0000000   6.0000000   6.0000000   6.0000000   6.0000000   6.0000000   6.0000000   6.0000000   6.0000000

  Atom        11          12          13          14          15          16          17          18          19          20
 IAtWgt=          12          12          12          12          16          16          79          12           1           1
 AtmWgt=  12.0000000  12.0000000  12.0000000  12.0000000  15.9949146  15.9949146  78.9183361  12.0000000   1.0078250   1.0078250
 NucSpn=           0           0           0           0           0           0           3           0           1           1
 AtZEff=  -0.0000000  -0.0000000  -0.0000000  -0.0000000  -0.0000000  -0.0000000  -0.0000000  -0.0000000  -0.0000000  -0.0000000
 NQMom=    0.0000000   0.0000000   0.0000000   0.0000000   0.0000000   0.0000000  31.3000000   0.0000000   0.0000000   0.0000000
 NMagM=    0.0000000   0.0000000   0.0000000   0.0000000   0.0000000   0.0000000   2.1063990   0.0000000   2.7928460   2.7928460
 AtZNuc=   6.0000000   6.0000000   6.0000000   6.0000000   8.0000000   8.0000000  35.0000000   6.0000000   1.0000000   1.0000000

  Atom        21          22          23          24          25          26          27
 IAtWgt=           1           1           1           1           1           1           1
 AtmWgt=   1.0078250   1.0078250   1.0078250   1.0078250   1.0078250   1.0078250   1.0078250
 NucSpn=           1           1           1           1           1           1           1
 AtZEff=  -0.0000000  -0.0000000  -0.0000000  -0.0000000  -0.0000000  -0.0000000  -0.0000000
 NQMom=    0.0000000   0.0000000   0.0000000   0.0000000   0.0000000   0.0000000   0.0000000
 NMagM=    2.7928460   2.7928460   2.7928460   2.7928460   2.7928460   2.7928460   2.7928460
 AtZNuc=   1.0000000   1.0000000   1.0000000   1.0000000   1.0000000   1.0000000   1.0000000
 Leave Link  101 at Thu Dec 21 05:33:59 2023, MaxMem=  4026531840 cpu:               3.7 elap:               0.5
 (Enter /sysapps/ubuntu-applications/gaussian/Gaussian/AVX2/g16/l103.exe)

 GradGradGradGradGradGradGradGradGradGradGradGradGradGradGradGradGradGrad
 Berny optimization.
 Initialization pass.
                           ----------------------------
                           !    Initial Parameters    !
                           ! (Angstroms and Degrees)  !
 --------------------------                            --------------------------
 ! Name  Definition              Value          Derivative Info.                !
 --------------------------------------------------------------------------------
 ! R1    R(1,2)                  1.3959         estimate D2E/DX2                !
 ! R2    R(1,4)                  1.4008         estimate D2E/DX2                !
 ! R3    R(1,19)                 1.0888         estimate D2E/DX2                !
 ! R4    R(2,3)                  1.3946         estimate D2E/DX2                !
 ! R5    R(2,20)                 1.0879         estimate D2E/DX2                !
 ! R6    R(3,6)                  1.3959         estimate D2E/DX2                !
 ! R7    R(3,21)                 1.0879         estimate D2E/DX2                !
 ! R8    R(4,5)                  1.3939         estimate D2E/DX2                !
 ! R9    R(4,7)                  1.4765         estimate D2E/DX2                !
 ! R10   R(5,6)                  1.4008         estimate D2E/DX2                !
 ! R11   R(5,10)                 1.4765         estimate D2E/DX2                !
 ! R12   R(6,22)                 1.0888         estimate D2E/DX2                !
 ! R13   R(7,8)                  1.4764         estimate D2E/DX2                !
 ! R14   R(7,15)                 1.2252         estimate D2E/DX2                !
 ! R15   R(8,9)                  1.3915         estimate D2E/DX2                !
 ! R16   R(8,11)                 1.3997         estimate D2E/DX2                !
 ! R17   R(9,10)                 1.4772         estimate D2E/DX2                !
 ! R18   R(9,14)                 1.4021         estimate D2E/DX2                !
 ! R19   R(10,16)                1.2253         estimate D2E/DX2                !
 ! R20   R(11,12)                1.3985         estimate D2E/DX2                !
 ! R21   R(11,23)                1.0891         estimate D2E/DX2                !
 ! R22   R(12,13)                1.4043         estimate D2E/DX2                !
 ! R23   R(12,17)                1.8992         estimate D2E/DX2                !
 ! R24   R(13,14)                1.4057         estimate D2E/DX2                !
 ! R25   R(13,18)                1.504          estimate D2E/DX2                !
 ! R26   R(14,24)                1.0903         estimate D2E/DX2                !
 ! R27   R(18,25)                1.0946         estimate D2E/DX2                !
 ! R28   R(18,26)                1.0946         estimate D2E/DX2                !
 ! R29   R(18,27)                1.0954         estimate D2E/DX2                !
 ! A1    A(2,1,4)              120.0198         estimate D2E/DX2                !
 ! A2    A(2,1,19)             119.5952         estimate D2E/DX2                !
 ! A3    A(4,1,19)             120.385          estimate D2E/DX2                !
 ! A4    A(1,2,3)              120.0402         estimate D2E/DX2                !
 ! A5    A(1,2,20)             119.9235         estimate D2E/DX2                !
 ! A6    A(3,2,20)             120.0363         estimate D2E/DX2                !
 ! A7    A(2,3,6)              120.0393         estimate D2E/DX2                !
 ! A8    A(2,3,21)             120.0326         estimate D2E/DX2                !
 ! A9    A(6,3,21)             119.9281         estimate D2E/DX2                !
 ! A10   A(1,4,5)              119.9403         estimate D2E/DX2                !
 ! A11   A(1,4,7)              119.6665         estimate D2E/DX2                !
 ! A12   A(5,4,7)              120.3932         estimate D2E/DX2                !
 ! A13   A(4,5,6)              119.9411         estimate D2E/DX2                !
 ! A14   A(4,5,10)             120.387          estimate D2E/DX2                !
 ! A15   A(6,5,10)             119.6719         estimate D2E/DX2                !
 ! A16   A(3,6,5)              120.0194         estimate D2E/DX2                !
 ! A17   A(3,6,22)             119.5947         estimate D2E/DX2                !
 ! A18   A(5,6,22)             120.3859         estimate D2E/DX2                !
 ! A19   A(4,7,8)              119.1924         estimate D2E/DX2                !
 ! A20   A(4,7,15)             120.4978         estimate D2E/DX2                !
 ! A21   A(8,7,15)             120.3097         estimate D2E/DX2                !
 ! A22   A(7,8,9)              120.4193         estimate D2E/DX2                !
 ! A23   A(7,8,11)             119.6161         estimate D2E/DX2                !
 ! A24   A(9,8,11)             119.9646         estimate D2E/DX2                !
 ! A25   A(8,9,10)             120.4576         estimate D2E/DX2                !
 ! A26   A(8,9,14)             119.8792         estimate D2E/DX2                !
 ! A27   A(10,9,14)            119.6632         estimate D2E/DX2                !
 ! A28   A(5,10,9)             119.1503         estimate D2E/DX2                !
 ! A29   A(5,10,16)            120.499          estimate D2E/DX2                !
 ! A30   A(9,10,16)            120.3507         estimate D2E/DX2                !
 ! A31   A(8,11,12)            120.0966         estimate D2E/DX2                !
 ! A32   A(8,11,23)            119.7039         estimate D2E/DX2                !
 ! A33   A(12,11,23)           120.1995         estimate D2E/DX2                !
 ! A34   A(11,12,13)           120.6576         estimate D2E/DX2                !
 ! A35   A(11,12,17)           117.4651         estimate D2E/DX2                !
 ! A36   A(13,12,17)           121.8773         estimate D2E/DX2                !
 ! A37   A(12,13,14)           118.5338         estimate D2E/DX2                !
 ! A38   A(12,13,18)           122.4069         estimate D2E/DX2                !
 ! A39   A(14,13,18)           119.0592         estimate D2E/DX2                !
 ! A40   A(9,14,13)            120.8682         estimate D2E/DX2                !
 ! A41   A(9,14,24)            119.2496         estimate D2E/DX2                !
 ! A42   A(13,14,24)           119.8822         estimate D2E/DX2                !
 ! A43   A(13,18,25)           110.4942         estimate D2E/DX2                !
 ! A44   A(13,18,26)           110.4464         estimate D2E/DX2                !
 ! A45   A(13,18,27)           111.4705         estimate D2E/DX2                !
 ! A46   A(25,18,26)           109.7763         estimate D2E/DX2                !
 ! A47   A(25,18,27)           107.2401         estimate D2E/DX2                !
 ! A48   A(26,18,27)           107.3084         estimate D2E/DX2                !
 ! D1    D(4,1,2,3)              0.0067         estimate D2E/DX2                !
 ! D2    D(4,1,2,20)          -179.9896         estimate D2E/DX2                !
 ! D3    D(19,1,2,3)           179.9964         estimate D2E/DX2                !
 ! D4    D(19,1,2,20)            0.0001         estimate D2E/DX2                !
 ! D5    D(2,1,4,5)             -0.0115         estimate D2E/DX2                !
 ! D6    D(2,1,4,7)            179.9715         estimate D2E/DX2                !
 ! D7    D(19,1,4,5)           179.9989         estimate D2E/DX2                !
 ! D8    D(19,1,4,7)            -0.0182         estimate D2E/DX2                !
 ! D9    D(1,2,3,6)              0.0033         estimate D2E/DX2                !
 ! D10   D(1,2,3,21)          -179.9947         estimate D2E/DX2                !
 ! D11   D(20,2,3,6)           179.9997         estimate D2E/DX2                !
 ! D12   D(20,2,3,21)            0.0016         estimate D2E/DX2                !
 ! D13   D(2,3,6,5)             -0.0086         estimate D2E/DX2                !
 ! D14   D(2,3,6,22)          -179.9986         estimate D2E/DX2                !
 ! D15   D(21,3,6,5)           179.9895         estimate D2E/DX2                !
 ! D16   D(21,3,6,22)           -0.0006         estimate D2E/DX2                !
 ! D17   D(1,4,5,6)              0.0063         estimate D2E/DX2                !
 ! D18   D(1,4,5,10)           179.9932         estimate D2E/DX2                !
 ! D19   D(7,4,5,6)           -179.9766         estimate D2E/DX2                !
 ! D20   D(7,4,5,10)             0.0104         estimate D2E/DX2                !
 ! D21   D(1,4,7,8)           -179.8881         estimate D2E/DX2                !
 ! D22   D(1,4,7,15)             0.0945         estimate D2E/DX2                !
 ! D23   D(5,4,7,8)              0.0948         estimate D2E/DX2                !
 ! D24   D(5,4,7,15)          -179.9226         estimate D2E/DX2                !
 ! D25   D(4,5,6,3)              0.0037         estimate D2E/DX2                !
 ! D26   D(4,5,6,22)           179.9937         estimate D2E/DX2                !
 ! D27   D(10,5,6,3)          -179.9833         estimate D2E/DX2                !
 ! D28   D(10,5,6,22)            0.0067         estimate D2E/DX2                !
 ! D29   D(4,5,10,9)            -0.1009         estimate D2E/DX2                !
 ! D30   D(4,5,10,16)          179.919          estimate D2E/DX2                !
 ! D31   D(6,5,10,9)           179.8861         estimate D2E/DX2                !
 ! D32   D(6,5,10,16)           -0.094          estimate D2E/DX2                !
 ! D33   D(4,7,8,9)             -0.1102         estimate D2E/DX2                !
 ! D34   D(4,7,8,11)           179.8595         estimate D2E/DX2                !
 ! D35   D(15,7,8,9)           179.9071         estimate D2E/DX2                !
 ! D36   D(15,7,8,11)           -0.1232         estimate D2E/DX2                !
 ! D37   D(7,8,9,10)             0.0197         estimate D2E/DX2                !
 ! D38   D(7,8,9,14)           179.9905         estimate D2E/DX2                !
 ! D39   D(11,8,9,10)         -179.9498         estimate D2E/DX2                !
 ! D40   D(11,8,9,14)            0.0209         estimate D2E/DX2                !
 ! D41   D(7,8,11,12)         -179.9664         estimate D2E/DX2                !
 ! D42   D(7,8,11,23)            0.0037         estimate D2E/DX2                !
 ! D43   D(9,8,11,12)            0.0034         estimate D2E/DX2                !
 ! D44   D(9,8,11,23)          179.9735         estimate D2E/DX2                !
 ! D45   D(8,9,10,5)             0.0855         estimate D2E/DX2                !
 ! D46   D(8,9,10,16)         -179.9343         estimate D2E/DX2                !
 ! D47   D(14,9,10,5)         -179.8853         estimate D2E/DX2                !
 ! D48   D(14,9,10,16)           0.0949         estimate D2E/DX2                !
 ! D49   D(8,9,14,13)           -0.0058         estimate D2E/DX2                !
 ! D50   D(8,9,14,24)         -179.9861         estimate D2E/DX2                !
 ! D51   D(10,9,14,13)         179.9652         estimate D2E/DX2                !
 ! D52   D(10,9,14,24)          -0.0151         estimate D2E/DX2                !
 ! D53   D(8,11,12,13)          -0.0434         estimate D2E/DX2                !
 ! D54   D(8,11,12,17)         179.9278         estimate D2E/DX2                !
 ! D55   D(23,11,12,13)        179.9866         estimate D2E/DX2                !
 ! D56   D(23,11,12,17)         -0.0422         estimate D2E/DX2                !
 ! D57   D(11,12,13,14)          0.0576         estimate D2E/DX2                !
 ! D58   D(11,12,13,18)        179.944          estimate D2E/DX2                !
 ! D59   D(17,12,13,14)       -179.9122         estimate D2E/DX2                !
 ! D60   D(17,12,13,18)         -0.0258         estimate D2E/DX2                !
 ! D61   D(12,13,14,9)          -0.0331         estimate D2E/DX2                !
 ! D62   D(12,13,14,24)        179.9471         estimate D2E/DX2                !
 ! D63   D(18,13,14,9)        -179.9234         estimate D2E/DX2                !
 ! D64   D(18,13,14,24)          0.0568         estimate D2E/DX2                !
 ! D65   D(12,13,18,25)         60.2917         estimate D2E/DX2                !
 ! D66   D(12,13,18,26)        -61.3662         estimate D2E/DX2                !
 ! D67   D(12,13,18,27)        179.4357         estimate D2E/DX2                !
 ! D68   D(14,13,18,25)       -119.8225         estimate D2E/DX2                !
 ! D69   D(14,13,18,26)        118.5196         estimate D2E/DX2                !
 ! D70   D(14,13,18,27)         -0.6785         estimate D2E/DX2                !
 --------------------------------------------------------------------------------
 Trust Radius=3.00D-01 FncErr=1.00D-07 GrdErr=1.00D-06 EigMax=2.50D+02 EigMin=1.00D-04
 Number of steps in this run=    157 maximum allowed number of steps=    162.
 GradGradGradGradGradGradGradGradGradGradGradGradGradGradGradGradGradGrad

 Leave Link  103 at Thu Dec 21 05:33:59 2023, MaxMem=  4026531840 cpu:               0.4 elap:               0.1
 (Enter /sysapps/ubuntu-applications/gaussian/Gaussian/AVX2/g16/l202.exe)
                          Input orientation:                          
 ---------------------------------------------------------------------
 Center     Atomic      Atomic             Coordinates (Angstroms)
 Number     Number       Type             X           Y           Z
 ---------------------------------------------------------------------
      1          6           0       -3.369610    3.685900    0.036490
      2          6           0       -4.591110    3.010500    0.055530
      3          6           0       -4.617720    1.616330    0.078730
      4          6           0       -2.169330    2.963700    0.040530
      5          6           0       -2.195920    1.570230    0.063820
      6          6           0       -3.422870    0.894580    0.083010
      7          6           0       -0.881750    3.686030    0.019650
      8          6           0        0.376970    2.914360    0.021610
      9          6           0        0.350550    1.523360    0.045180
     10          6           0       -0.936750    0.799160    0.068130
     11          6           0        1.602590    3.590030   -0.001070
     12          6           0        2.800920    2.869120   -0.000150
     13          6           0        2.791880    1.465060    0.024320
     14          6           0        1.552710    0.801860    0.046590
     15          8           0       -0.856130    4.910840    0.000590
     16          8           0       -0.957720   -0.425800    0.090080
     17         35           0        4.419990    3.861230   -0.033900
     18          6           0        4.056340    0.650770    0.024980
     19          1           0       -3.357290    4.774490    0.018370
     20          1           0       -5.522350    3.572950    0.052190
     21          1           0       -5.569770    1.090080    0.093480
     22          1           0       -3.452090   -0.193660    0.101150
     23          1           0        1.618310    4.678810   -0.019910
     24          1           0        1.520030   -0.287800    0.064930
     25          1           0        4.663110    0.885860    0.905190
     26          1           0        4.634310    0.841260   -0.884910
     27          1           0        3.841740   -0.423000    0.055950
 ---------------------------------------------------------------------
                    Distance matrix (angstroms):
                    1          2          3          4          5
     1  C    0.000000
     2  C    1.395919   0.000000
     3  C    2.417164   1.394617   0.000000
     4  C    1.400807   2.422279   2.794902   0.000000
     5  C    2.419577   2.794885   2.422285   1.393918   0.000000
     6  C    2.792216   2.417159   1.395925   2.419592   1.400813
     7  C    2.487917   3.770541   4.271372   1.476502   2.491105
     8  C    3.825226   4.969126   5.160918   2.546848   2.903141
     9  C    4.303051   5.160591   4.969253   2.902481   2.546970
    10  C    3.775325   4.271362   3.770599   2.491034   1.476508
    11  C    4.973266   6.221011   6.526417   3.823794   4.302613
    12  C    6.224461   7.393592   7.524090   4.971316   5.163295
    13  C    6.549522   7.543070   7.411344   5.182643   4.989065
    14  C    5.705000   6.528759   6.224034   4.304320   3.826606
    15  O    2.796310   4.190989   5.000946   2.348924   3.599821
    16  O    4.767196   5.001087   4.191184   3.599884   2.349035
    17  Br   7.791891   9.051611   9.313027   6.650582   7.002035
    18  C    8.022274   8.963685   8.727801   6.641450   6.319626
    19  H    1.088810   2.152987   3.400927   2.165802   3.408538
    20  H    2.155758   1.087920   2.155788   3.407941   3.882803
    21  H    3.403268   2.155743   1.087914   3.882814   3.407974
    22  H    3.880975   3.400895   2.152965   3.408529   2.165794
    23  H    5.086098   6.430074   6.948135   4.158302   4.921243
    24  H    6.300768   6.944415   6.426342   4.917746   4.154583
    25  H    8.550991   9.532922   9.346145   7.193559   6.944246
    26  H    8.544220   9.523571   9.334313   7.186843   6.934229
    27  H    8.299820   9.105047   8.701830   6.899488   6.358173
                    6          7          8          9         10
     6  C    0.000000
     7  C    3.775381   0.000000
     8  C    4.303727   1.476433   0.000000
     9  C    3.825636   2.489248   1.391451   0.000000
    10  C    2.487995   2.887801   2.490401   1.477205   0.000000
    11  C    5.703312   2.486280   1.399710   2.416789   3.773856
    12  C    6.530030   3.772240   2.424470   2.795968   4.273122
    13  C    6.241155   4.292818   2.816428   2.442115   3.787879
    14  C    4.976577   3.774355   2.417777   1.402053   2.489555
    15  O    4.767105   1.225226   2.346681   3.596260   4.113025
    16  O    2.796501   4.113135   3.597604   2.347938   1.225336
    17  Br   8.386008   5.304904   4.152789   4.693850   6.171009
    18  C    7.483408   5.796341   4.319909   3.807191   4.995481
    19  H    3.881003   2.704264   4.171905   4.931394   4.654540
    20  H    3.403297   4.642092   5.936047   6.220275   5.359281
    21  H    2.155808   5.359285   6.220682   5.936350   4.642214
    22  H    1.088783   4.654598   4.932324   4.172692   2.704389
    23  H    6.304323   2.690256   2.157761   3.401223   4.646264
    24  H    5.082382   4.643482   3.400337   2.156009   2.686496
    25  H    8.127677   6.274600   4.823538   4.443444   5.662739
    26  H    8.115286   6.271990   4.821251   4.436319   5.652147
    27  H    7.383177   6.260735   4.810798   3.997104   4.932321
                   11         12         13         14         15
    11  C    0.000000
    12  C    1.398466   0.000000
    13  C    2.435273   1.404302   0.000000
    14  C    2.789023   2.415321   1.405657   0.000000
    15  O    2.791030   4.188393   5.018161   4.763228   0.000000
    16  O    4.763443   4.999201   4.199902   2.794870   5.338357
    17  Br   2.830613   1.899160   2.897544   4.193747   5.379620
    18  C    3.828945   2.549076   1.503971   2.508278   6.502396
    19  H    5.099386   6.446265   6.983169   6.315907   2.504937
    20  H    7.125160   8.353140   8.577319   7.598384   4.854505
    21  H    7.596146   8.558166   8.370340   7.128463   6.068380
    22  H    6.314788   6.963549   6.460992   5.103142   5.727568
    23  H    1.089056   2.161928   3.421610   3.878075   2.485380
    24  H    3.879270   3.407500   2.166049   1.090304   5.716304
    25  H    4.183375   2.867178   2.147768   3.227823   6.890630
    26  H    4.186674   2.873384   2.147178   3.219550   6.891337
    27  H    4.595808   3.453188   2.160550   2.596156   7.107946
                   16         17         18         19         20
    16  O    0.000000
    17  Br   6.878500   0.000000
    18  C    5.128746   3.231526   0.000000
    19  H    5.727660   7.830891   8.483338   0.000000
    20  H    6.068549   9.946891  10.014548   2.476354   0.000000
    21  H    4.854782  10.367777   9.636373   4.298324   2.483666
    22  H    2.505173   8.856072   7.556149   4.969744   4.298340
    23  H    5.718835   2.918569   4.708621   4.976667   7.226144
    24  H    2.481717   5.063002   2.704696   7.029737   8.031231
    25  H    5.829115   3.129509   1.094626   8.957383  10.568427
    26  H    5.816085   3.144896   1.094639   8.952758  10.559263
    27  H    4.799582   4.324011   1.095443   8.879265  10.181052
                   21         22         23         24         25
    21  H    0.000000
    22  H    2.476412   0.000000
    23  H    8.034945   7.033106   0.000000
    24  H    7.222509   4.973143   4.968307   0.000000
    25  H   10.267055   8.226075   4.951069   3.458680   0.000000
    26  H   10.253897   8.211774   4.956942   3.446116   1.790887
    27  H    9.532436   7.297575   5.565776   2.325661   1.763228
                   26         27
    26  H    0.000000
    27  H    1.764012   0.000000
 Symmetry turned off by external request.
 Stoichiometry    C15H9BrO2(1-,2)
 Framework group  C1[X(C15H9BrO2)]
 Deg. of freedom    75
 Full point group                 C1      NOp   1
 Rotational constants (GHZ):           0.8425703           0.1687647           0.1407291
 Leave Link  202 at Thu Dec 21 05:33:59 2023, MaxMem=  4026531840 cpu:               0.5 elap:               0.1
 (Enter /sysapps/ubuntu-applications/gaussian/Gaussian/AVX2/g16/l301.exe)
 Standard basis: 6-311++G(d,p) (5D, 7F)
 Ernie: Thresh=  0.10000D-02 Tol=  0.10000D-05 Strict=F.
   485 basis functions,   787 primitive gaussians,   505 cartesian basis functions
    76 alpha electrons       75 beta electrons
       nuclear repulsion energy      1522.8662366532 Hartrees.
 IExCor=  402 DFT=T Ex+Corr=B3LYP ExCW=0 ScaHFX=  0.200000
 ScaDFX=  0.800000  0.720000  1.000000  0.810000 ScalE2=  1.000000  1.000000
 IRadAn=      5 IRanWt=     -1 IRanGd=            0 ICorTp=0 IEmpDi=  4
 NAtoms=   27 NActive=   27 NUniq=   27 SFac= 1.00D+00 NAtFMM=   60 NAOKFM=F Big=F
 Integral buffers will be    131072 words long.
 Raffenetti 2 integral format.
 Two-electron integral symmetry is turned off.
 Leave Link  301 at Thu Dec 21 05:34:00 2023, MaxMem=  4026531840 cpu:               0.6 elap:               0.1
 (Enter /sysapps/ubuntu-applications/gaussian/Gaussian/AVX2/g16/l302.exe)
 NPDir=0 NMtPBC=     1 NCelOv=     1 NCel=       1 NClECP=     1 NCelD=      1
         NCelK=      1 NCelE2=     1 NClLst=     1 CellRange=     0.0.
 One-electron integrals computed using PRISM.
 NBasis=   485 RedAO= T EigKep=  1.26D-06  NBF=   485
 NBsUse=   478 1.00D-06 EigRej=  7.30D-07 NBFU=   478
 Precomputing XC quadrature grid using
 IXCGrd= 4 IRadAn=           5 IRanWt=          -1 IRanGd=           0 AccXCQ= 0.00D+00.
 Generated NRdTot=       0 NPtTot=           0 NUsed=           0 NTot=          32
 NSgBfM=   499   499   499   499   499 MxSgAt=    27 MxSgA2=    27.
 Leave Link  302 at Thu Dec 21 05:34:00 2023, MaxMem=  4026531840 cpu:               4.8 elap:               0.7
 (Enter /sysapps/ubuntu-applications/gaussian/Gaussian/AVX2/g16/l303.exe)
 DipDrv:  MaxL=1.
 Leave Link  303 at Thu Dec 21 05:34:01 2023, MaxMem=  4026531840 cpu:               0.7 elap:               0.1
 (Enter /sysapps/ubuntu-applications/gaussian/Gaussian/AVX2/g16/l401.exe)
 ExpMin= 3.50D-02 ExpMax= 4.40D+05 ExpMxC= 1.51D+04 IAcc=3 IRadAn=         5 AccDes= 0.00D+00
 Harris functional with IExCor=  402 and IRadAn=       5 diagonalized for initial guess.
 HarFok:  IExCor=  402 AccDes= 0.00D+00 IRadAn=         5 IDoV= 1 UseB2=F ITyADJ=14
 ICtDFT=  3500011 ScaDFX=  1.000000  1.000000  1.000000  1.000000
 FoFCou: FMM=F IPFlag=           0 FMFlag=      100000 FMFlg1=           0
         NFxFlg=           0 DoJE=T BraDBF=F KetDBF=T FulRan=T
         wScrn=  0.000000 ICntrl=       500 IOpCl=  0 I1Cent=   200000004 NGrid=           0
         NMat0=    1 NMatS0=      1 NMatT0=    0 NMatD0=    1 NMtDS0=    0 NMtDT0=    0
 Symmetry not used in FoFCou.
 Harris En= -3302.12752232728    
 JPrj=0 DoOrth=F DoCkMO=F.
 Initial guess <Sx>= 0.0000 <Sy>= 0.0000 <Sz>= 0.5000 <S**2>= 0.7500 S= 0.5000
 Leave Link  401 at Thu Dec 21 05:34:04 2023, MaxMem=  4026531840 cpu:              25.4 elap:               3.2
 (Enter /sysapps/ubuntu-applications/gaussian/Gaussian/AVX2/g16/l502.exe)
 Two-electron integral symmetry not used.
 UHF open shell SCF:
 Using DIIS extrapolation, IDIIS=  1040.
 NGot=  4026531840 LenX=  4026014216 LenY=  4025758686
 Requested convergence on RMS density matrix=1.00D-08 within 128 cycles.
 Requested convergence on MAX density matrix=1.00D-06.
 Requested convergence on             energy=1.00D-06.
 No special actions if energy rises.
 Fock matrices will be formed incrementally for  20 cycles.

 Cycle   1  Pass 1  IDiag  1:
 FoFJK:  IHMeth= 1 ICntrl=       0 DoSepK=F KAlg= 0 I1Cent=           0 FoldK=F
 IRaf= 840000000 NMat=       1 IRICut=       1 DoRegI=T DoRafI=F ISym2E= 0 IDoP0=0 IntGTp=1.
 FoFCou: FMM=F IPFlag=           0 FMFlag=      100000 FMFlg1=           0
         NFxFlg=           0 DoJE=F BraDBF=F KetDBF=F FulRan=T
         wScrn=  0.000000 ICntrl=         0 IOpCl=  1 I1Cent=           0 NGrid=           0
         NMat0=    1 NMatS0=      1 NMatT0=    0 NMatD0=    1 NMtDS0=    0 NMtDT0=    0
 Symmetry not used in FoFCou.
 E= -3301.37971799907    
 DIIS: error= 7.33D-02 at cycle   1 NSaved=   1.
 NSaved= 1 IEnMin= 1 EnMin= -3301.37971799907     IErMin= 1 ErrMin= 7.33D-02
 ErrMax= 7.33D-02  0.00D+00 EMaxC= 1.00D-01 BMatC= 6.89D+00 BMatP= 6.89D+00
 IDIUse=3 WtCom= 2.67D-01 WtEn= 7.33D-01
 Coeff-Com:  0.100D+01
 Coeff-En:   0.100D+01
 Coeff:      0.100D+01
 Gap=     0.057 Goal=   None    Shift=    0.000
 Gap=     0.262 Goal=   None    Shift=    0.000
 GapD=    0.057 DampG=0.500 DampE=0.500 DampFc=0.2500 IDamp=-1.
 Damping current iteration by 2.50D-01
 RMSDP=9.57D-01 MaxDP=1.80D+02              OVMax= 9.70D-01

 Cycle   2  Pass 1  IDiag  1:
 RMSU=  2.32D-01    CP:  2.10D+00
 E= -3301.49044744297     Delta-E=       -0.110729443895 Rises=F Damp=T
 DIIS: error= 5.54D-02 at cycle   2 NSaved=   2.
 NSaved= 2 IEnMin= 2 EnMin= -3301.49044744297     IErMin= 2 ErrMin= 5.54D-02
 ErrMax= 5.54D-02  0.00D+00 EMaxC= 1.00D-01 BMatC= 2.66D+00 BMatP= 6.89D+00
 IDIUse=3 WtCom= 4.46D-01 WtEn= 5.54D-01
 Coeff-Com: -0.935D+00 0.193D+01
 Coeff-En:   0.191D+00 0.809D+00
 Coeff:     -0.311D+00 0.131D+01
 Gap=     0.291 Goal=   None    Shift=    0.000
 Gap=    -0.030 Goal=   None    Shift=    0.000
 RMSDP=2.36D-01 MaxDP=4.48D+01 DE=-1.11D-01 OVMax= 8.36D-01

 Cycle   3  Pass 1  IDiag  1:
 RMSU=  1.46D-02    CP:  1.06D+00  1.39D-02
 E= -3301.66141246837     Delta-E=       -0.170965025405 Rises=F Damp=F
 DIIS: error= 4.13D-02 at cycle   3 NSaved=   3.
 NSaved= 3 IEnMin= 3 EnMin= -3301.66141246837     IErMin= 3 ErrMin= 4.13D-02
 ErrMax= 4.13D-02  0.00D+00 EMaxC= 1.00D-01 BMatC= 8.81D-01 BMatP= 2.66D+00
 IDIUse=3 WtCom= 5.87D-01 WtEn= 4.13D-01
 Coeff-Com: -0.500D+00 0.922D+00 0.578D+00
 Coeff-En:   0.000D+00 0.201D+00 0.799D+00
 Coeff:     -0.293D+00 0.624D+00 0.669D+00
 Gap=     0.062 Goal=   None    Shift=    0.000
 Gap=     0.218 Goal=   None    Shift=    0.000
 RMSDP=1.66D-02 MaxDP=1.60D+00 DE=-1.71D-01 OVMax= 4.04D-01

 Cycle   4  Pass 1  IDiag  1:
 RMSU=  1.12D-02    CP:  9.89D-01  3.84D-04  2.33D-01
 E= -3301.70495740342     Delta-E=       -0.043544935052 Rises=F Damp=F
 DIIS: error= 3.68D-02 at cycle   4 NSaved=   4.
 NSaved= 4 IEnMin= 4 EnMin= -3301.70495740342     IErMin= 4 ErrMin= 3.68D-02
 ErrMax= 3.68D-02  0.00D+00 EMaxC= 1.00D-01 BMatC= 7.30D-01 BMatP= 8.81D-01
 IDIUse=3 WtCom= 6.32D-01 WtEn= 3.68D-01
 Coeff-Com: -0.145D+00 0.263D+00 0.463D+00 0.418D+00
 Coeff-En:   0.000D+00 0.000D+00 0.457D+00 0.543D+00
 Coeff:     -0.915D-01 0.167D+00 0.461D+00 0.464D+00
 Gap=     0.059 Goal=   None    Shift=    0.000
 Gap=     0.184 Goal=   None    Shift=    0.000
 RMSDP=7.99D-03 MaxDP=7.54D-01 DE=-4.35D-02 OVMax= 2.78D-01

 Cycle   5  Pass 1  IDiag  1:
 RMSU=  5.37D-03    CP:  9.36D-01  2.07D-03  4.04D-01  5.97D-01
 E= -3301.87318125248     Delta-E=       -0.168223849058 Rises=F Damp=F
 DIIS: error= 6.91D-03 at cycle   5 NSaved=   5.
 NSaved= 5 IEnMin= 5 EnMin= -3301.87318125248     IErMin= 5 ErrMin= 6.91D-03
 ErrMax= 6.91D-03  0.00D+00 EMaxC= 1.00D-01 BMatC= 4.55D-02 BMatP= 7.30D-01
 IDIUse=3 WtCom= 9.31D-01 WtEn= 6.91D-02
 Coeff-Com: -0.269D-01 0.540D-01 0.216D+00 0.269D+00 0.489D+00
 Coeff-En:   0.000D+00 0.000D+00 0.000D+00 0.847D-02 0.992D+00
 Coeff:     -0.251D-01 0.502D-01 0.201D+00 0.251D+00 0.523D+00
 Gap=     0.062 Goal=   None    Shift=    0.000
 Gap=     0.164 Goal=   None    Shift=    0.000
 RMSDP=2.12D-03 MaxDP=1.06D-01 DE=-1.68D-01 OVMax= 9.24D-02

 Cycle   6  Pass 1  IDiag  1:
 RMSU=  1.45D-03    CP:  9.32D-01  2.84D-03  4.37D-01  6.22D-01  7.39D-01
 E= -3301.88141999981     Delta-E=       -0.008238747329 Rises=F Damp=F
 DIIS: error= 5.08D-03 at cycle   6 NSaved=   6.
 NSaved= 6 IEnMin= 6 EnMin= -3301.88141999981     IErMin= 6 ErrMin= 5.08D-03
 ErrMax= 5.08D-03  0.00D+00 EMaxC= 1.00D-01 BMatC= 1.42D-02 BMatP= 4.55D-02
 IDIUse=3 WtCom= 9.49D-01 WtEn= 5.08D-02
 Coeff-Com: -0.463D-02 0.813D-02 0.562D-01 0.864D-01 0.370D+00 0.484D+00
 Coeff-En:   0.000D+00 0.000D+00 0.000D+00 0.000D+00 0.265D+00 0.735D+00
 Coeff:     -0.439D-02 0.772D-02 0.533D-01 0.820D-01 0.365D+00 0.497D+00
 Gap=     0.065 Goal=   None    Shift=    0.000
 Gap=     0.156 Goal=   None    Shift=    0.000
 RMSDP=9.67D-04 MaxDP=7.59D-02 DE=-8.24D-03 OVMax= 5.57D-02

 Cycle   7  Pass 1  IDiag  1:
 RMSU=  7.67D-04    CP:  9.36D-01  3.08D-03  4.51D-01  6.22D-01  8.09D-01
                    CP:  7.75D-01
 E= -3301.88459810353     Delta-E=       -0.003178103714 Rises=F Damp=F
 DIIS: error= 1.64D-03 at cycle   7 NSaved=   7.
 NSaved= 7 IEnMin= 7 EnMin= -3301.88459810353     IErMin= 7 ErrMin= 1.64D-03
 ErrMax= 1.64D-03  0.00D+00 EMaxC= 1.00D-01 BMatC= 1.56D-03 BMatP= 1.42D-02
 IDIUse=3 WtCom= 9.84D-01 WtEn= 1.64D-02
 Coeff-Com: -0.641D-03-0.981D-04 0.183D-02 0.357D-02 0.128D+00 0.311D+00
 Coeff-Com:  0.556D+00
 Coeff-En:   0.000D+00 0.000D+00 0.000D+00 0.000D+00 0.000D+00 0.778D-01
 Coeff-En:   0.922D+00
 Coeff:     -0.631D-03-0.965D-04 0.180D-02 0.351D-02 0.126D+00 0.307D+00
 Coeff:      0.562D+00
 Gap=     0.066 Goal=   None    Shift=    0.000
 Gap=     0.154 Goal=   None    Shift=    0.000
 RMSDP=3.57D-04 MaxDP=2.50D-02 DE=-3.18D-03 OVMax= 1.28D-02

 Cycle   8  Pass 1  IDiag  1:
 RMSU=  2.10D-04    CP:  9.34D-01  3.01D-03  4.56D-01  6.13D-01  8.04D-01
                    CP:  8.38D-01  7.53D-01
 E= -3301.88497220729     Delta-E=       -0.000374103765 Rises=F Damp=F
 DIIS: error= 4.25D-04 at cycle   8 NSaved=   8.
 NSaved= 8 IEnMin= 8 EnMin= -3301.88497220729     IErMin= 8 ErrMin= 4.25D-04
 ErrMax= 4.25D-04  0.00D+00 EMaxC= 1.00D-01 BMatC= 2.29D-04 BMatP= 1.56D-03
 IDIUse=3 WtCom= 9.96D-01 WtEn= 4.25D-03
 Coeff-Com: -0.431D-03 0.292D-03-0.407D-02-0.686D-02 0.395D-01 0.139D+00
 Coeff-Com:  0.340D+00 0.493D+00
 Coeff-En:   0.000D+00 0.000D+00 0.000D+00 0.000D+00 0.000D+00 0.000D+00
 Coeff-En:   0.104D-01 0.990D+00
 Coeff:     -0.429D-03 0.290D-03-0.405D-02-0.683D-02 0.393D-01 0.138D+00
 Coeff:      0.339D+00 0.495D+00
 Gap=     0.067 Goal=   None    Shift=    0.000
 Gap=     0.154 Goal=   None    Shift=    0.000
 RMSDP=1.26D-04 MaxDP=1.14D-02 DE=-3.74D-04 OVMax= 8.56D-03

 Cycle   9  Pass 1  IDiag  1:
 RMSU=  9.03D-05    CP:  9.33D-01  3.08D-03  4.56D-01  6.08D-01  8.08D-01
                    CP:  8.25D-01  7.53D-01  7.58D-01
 E= -3301.88503026915     Delta-E=       -0.000058061856 Rises=F Damp=F
 DIIS: error= 2.43D-04 at cycle   9 NSaved=   9.
 NSaved= 9 IEnMin= 9 EnMin= -3301.88503026915     IErMin= 9 ErrMin= 2.43D-04
 ErrMax= 2.43D-04  0.00D+00 EMaxC= 1.00D-01 BMatC= 4.01D-05 BMatP= 2.29D-04
 IDIUse=3 WtCom= 9.98D-01 WtEn= 2.43D-03
 Coeff-Com: -0.188D-03 0.309D-03-0.339D-02-0.538D-02-0.164D-03 0.253D-01
 Coeff-Com:  0.816D-01 0.283D+00 0.619D+00
 Coeff-En:   0.000D+00 0.000D+00 0.000D+00 0.000D+00 0.000D+00 0.000D+00
 Coeff-En:   0.000D+00 0.159D-01 0.984D+00
 Coeff:     -0.187D-03 0.308D-03-0.339D-02-0.537D-02-0.163D-03 0.252D-01
 Coeff:      0.814D-01 0.282D+00 0.620D+00
 Gap=     0.067 Goal=   None    Shift=    0.000
 Gap=     0.154 Goal=   None    Shift=    0.000
 RMSDP=6.66D-05 MaxDP=5.89D-03 DE=-5.81D-05 OVMax= 2.04D-03

 Cycle  10  Pass 1  IDiag  1:
 RMSU=  4.15D-05    CP:  9.33D-01  3.08D-03  4.57D-01  6.08D-01  8.08D-01
                    CP:  8.42D-01  7.63D-01  9.19D-01  8.91D-01
 E= -3301.88504413063     Delta-E=       -0.000013861486 Rises=F Damp=F
 DIIS: error= 1.43D-04 at cycle  10 NSaved=  10.
 NSaved=10 IEnMin=10 EnMin= -3301.88504413063     IErMin=10 ErrMin= 1.43D-04
 ErrMax= 1.43D-04  0.00D+00 EMaxC= 1.00D-01 BMatC= 1.54D-05 BMatP= 4.01D-05
 IDIUse=3 WtCom= 9.99D-01 WtEn= 1.43D-03
 Coeff-Com:  0.615D-03-0.809D-03 0.254D-03 0.236D-03-0.207D-01-0.515D-01
 Coeff-Com: -0.114D+00-0.286D-01 0.441D+00 0.774D+00
 Coeff-En:   0.000D+00 0.000D+00 0.000D+00 0.000D+00 0.000D+00 0.000D+00
 Coeff-En:   0.000D+00 0.000D+00 0.000D+00 0.100D+01
 Coeff:      0.614D-03-0.808D-03 0.253D-03 0.236D-03-0.207D-01-0.514D-01
 Coeff:     -0.114D+00-0.286D-01 0.440D+00 0.775D+00
 Gap=     0.067 Goal=   None    Shift=    0.000
 Gap=     0.154 Goal=   None    Shift=    0.000
 RMSDP=6.12D-05 MaxDP=5.34D-03 DE=-1.39D-05 OVMax= 3.22D-03

 Cycle  11  Pass 1  IDiag  1:
 RMSU=  2.88D-05    CP:  9.33D-01  3.09D-03  4.56D-01  6.06D-01  8.07D-01
                    CP:  8.43D-01  7.58D-01  9.82D-01  1.27D+00  1.25D+00
 E= -3301.88505080576     Delta-E=       -0.000006675126 Rises=F Damp=F
 DIIS: error= 7.17D-05 at cycle  11 NSaved=  11.
 NSaved=11 IEnMin=11 EnMin= -3301.88505080576     IErMin=11 ErrMin= 7.17D-05
 ErrMax= 7.17D-05  0.00D+00 EMaxC= 1.00D-01 BMatC= 2.91D-06 BMatP= 1.54D-05
 IDIUse=1 WtCom= 1.00D+00 WtEn= 0.00D+00
 Coeff-Com:  0.312D-03-0.376D-03 0.845D-03 0.719D-03-0.115D-01-0.307D-01
 Coeff-Com: -0.726D-01-0.476D-01 0.121D+00 0.428D+00 0.612D+00
 Coeff:      0.312D-03-0.376D-03 0.845D-03 0.719D-03-0.115D-01-0.307D-01
 Coeff:     -0.726D-01-0.476D-01 0.121D+00 0.428D+00 0.612D+00
 Gap=     0.067 Goal=   None    Shift=    0.000
 Gap=     0.154 Goal=   None    Shift=    0.000
 RMSDP=2.34D-05 MaxDP=1.96D-03 DE=-6.68D-06 OVMax= 7.94D-04

 Cycle  12  Pass 1  IDiag  1:
 RMSU=  1.08D-05    CP:  9.33D-01  3.11D-03  4.57D-01  6.06D-01  8.05D-01
                    CP:  8.47D-01  7.56D-01  9.92D-01  1.35D+00  1.51D+00
                    CP:  9.09D-01
 E= -3301.88505180399     Delta-E=       -0.000000998230 Rises=F Damp=F
 DIIS: error= 2.54D-05 at cycle  12 NSaved=  12.
 NSaved=12 IEnMin=12 EnMin= -3301.88505180399     IErMin=12 ErrMin= 2.54D-05
 ErrMax= 2.54D-05  0.00D+00 EMaxC= 1.00D-01 BMatC= 7.92D-07 BMatP= 2.91D-06
 IDIUse=1 WtCom= 1.00D+00 WtEn= 0.00D+00
 Coeff-Com:  0.123D-03-0.135D-03 0.598D-03 0.372D-03-0.163D-02-0.491D-02
 Coeff-Com: -0.144D-01-0.176D-01-0.565D-01 0.530D-01 0.383D+00 0.658D+00
 Coeff:      0.123D-03-0.135D-03 0.598D-03 0.372D-03-0.163D-02-0.491D-02
 Coeff:     -0.144D-01-0.176D-01-0.565D-01 0.530D-01 0.383D+00 0.658D+00
 Gap=     0.067 Goal=   None    Shift=    0.000
 Gap=     0.154 Goal=   None    Shift=    0.000
 RMSDP=1.28D-05 MaxDP=1.20D-03 DE=-9.98D-07 OVMax= 5.30D-04

 Cycle  13  Pass 1  IDiag  1:
 RMSU=  5.23D-06    CP:  9.33D-01  3.11D-03  4.57D-01  6.05D-01  8.05D-01
                    CP:  8.46D-01  7.56D-01  1.03D+00  1.36D+00  1.58D+00
                    CP:  1.08D+00  9.70D-01
 E= -3301.88505207495     Delta-E=       -0.000000270957 Rises=F Damp=F
 DIIS: error= 8.84D-06 at cycle  13 NSaved=  13.
 NSaved=13 IEnMin=13 EnMin= -3301.88505207495     IErMin=13 ErrMin= 8.84D-06
 ErrMax= 8.84D-06  0.00D+00 EMaxC= 1.00D-01 BMatC= 8.32D-08 BMatP= 7.92D-07
 IDIUse=1 WtCom= 1.00D+00 WtEn= 0.00D+00
 Coeff-Com:  0.624D-04-0.737D-04 0.199D-03 0.117D-03 0.599D-03 0.139D-02
 Coeff-Com:  0.101D-02-0.350D-02-0.397D-01-0.204D-01 0.116D+00 0.323D+00
 Coeff-Com:  0.621D+00
 Coeff:      0.624D-04-0.737D-04 0.199D-03 0.117D-03 0.599D-03 0.139D-02
 Coeff:      0.101D-02-0.350D-02-0.397D-01-0.204D-01 0.116D+00 0.323D+00
 Coeff:      0.621D+00
 Gap=     0.067 Goal=   None    Shift=    0.000
 Gap=     0.154 Goal=   None    Shift=    0.000
 RMSDP=2.80D-06 MaxDP=2.30D-04 DE=-2.71D-07 OVMax= 1.92D-04

 Cycle  14  Pass 1  IDiag  1:
 RMSU=  1.71D-06    CP:  9.33D-01  3.11D-03  4.57D-01  6.05D-01  8.05D-01
                    CP:  8.46D-01  7.55D-01  1.03D+00  1.36D+00  1.60D+00
                    CP:  1.11D+00  1.07D+00  9.79D-01
 E= -3301.88505210359     Delta-E=       -0.000000028639 Rises=F Damp=F
 DIIS: error= 5.35D-06 at cycle  14 NSaved=  14.
 NSaved=14 IEnMin=14 EnMin= -3301.88505210359     IErMin=14 ErrMin= 5.35D-06
 ErrMax= 5.35D-06  0.00D+00 EMaxC= 1.00D-01 BMatC= 2.50D-08 BMatP= 8.32D-08
 IDIUse=1 WtCom= 1.00D+00 WtEn= 0.00D+00
 Coeff-Com:  0.120D-04-0.229D-04-0.715D-04-0.405D-04 0.890D-03 0.261D-02
 Coeff-Com:  0.528D-02 0.390D-02-0.504D-02-0.301D-01-0.560D-01-0.169D-01
 Coeff-Com:  0.372D+00 0.724D+00
 Coeff:      0.120D-04-0.229D-04-0.715D-04-0.405D-04 0.890D-03 0.261D-02
 Coeff:      0.528D-02 0.390D-02-0.504D-02-0.301D-01-0.560D-01-0.169D-01
 Coeff:      0.372D+00 0.724D+00
 Gap=     0.067 Goal=   None    Shift=    0.000
 Gap=     0.154 Goal=   None    Shift=    0.000
 RMSDP=1.91D-06 MaxDP=1.86D-04 DE=-2.86D-08 OVMax= 1.49D-04

 Cycle  15  Pass 1  IDiag  1:
 RMSU=  1.07D-06    CP:  9.33D-01  3.11D-03  4.57D-01  6.05D-01  8.05D-01
                    CP:  8.46D-01  7.54D-01  1.03D+00  1.37D+00  1.62D+00
                    CP:  1.13D+00  1.10D+00  1.01D+00  1.18D+00
 E= -3301.88505211575     Delta-E=       -0.000000012160 Rises=F Damp=F
 DIIS: error= 2.83D-06 at cycle  15 NSaved=  15.
 NSaved=15 IEnMin=15 EnMin= -3301.88505211575     IErMin=15 ErrMin= 2.83D-06
 ErrMax= 2.83D-06  0.00D+00 EMaxC= 1.00D-01 BMatC= 2.97D-09 BMatP= 2.50D-08
 IDIUse=1 WtCom= 1.00D+00 WtEn= 0.00D+00
 Coeff-Com: -0.839D-05 0.838D-05-0.432D-04-0.235D-04 0.206D-03 0.727D-03
 Coeff-Com:  0.143D-02 0.216D-02 0.249D-02-0.607D-02-0.333D-01-0.473D-01
 Coeff-Com:  0.462D-01 0.227D+00 0.807D+00
 Coeff:     -0.839D-05 0.838D-05-0.432D-04-0.235D-04 0.206D-03 0.727D-03
 Coeff:      0.143D-02 0.216D-02 0.249D-02-0.607D-02-0.333D-01-0.473D-01
 Coeff:      0.462D-01 0.227D+00 0.807D+00
 Gap=     0.067 Goal=   None    Shift=    0.000
 Gap=     0.154 Goal=   None    Shift=    0.000
 RMSDP=8.45D-07 MaxDP=7.90D-05 DE=-1.22D-08 OVMax= 8.43D-05

 Cycle  16  Pass 1  IDiag  1:
 RMSU=  6.61D-07    CP:  9.33D-01  3.11D-03  4.57D-01  6.05D-01  8.05D-01
                    CP:  8.46D-01  7.54D-01  1.03D+00  1.37D+00  1.62D+00
                    CP:  1.13D+00  1.10D+00  1.05D+00  1.21D+00  1.02D+00
 E= -3301.88505211815     Delta-E=       -0.000000002402 Rises=F Damp=F
 DIIS: error= 1.51D-06 at cycle  16 NSaved=  16.
 NSaved=16 IEnMin=16 EnMin= -3301.88505211815     IErMin=16 ErrMin= 1.51D-06
 ErrMax= 1.51D-06  0.00D+00 EMaxC= 1.00D-01 BMatC= 2.01D-09 BMatP= 2.97D-09
 IDIUse=1 WtCom= 1.00D+00 WtEn= 0.00D+00
 Coeff-Com: -0.956D-05 0.128D-04-0.898D-05-0.128D-05-0.157D-03-0.346D-03
 Coeff-Com: -0.898D-03 0.391D-03 0.275D-02 0.714D-02-0.407D-02-0.269D-01
 Coeff-Com: -0.922D-01-0.966D-01 0.547D+00 0.664D+00
 Coeff:     -0.956D-05 0.128D-04-0.898D-05-0.128D-05-0.157D-03-0.346D-03
 Coeff:     -0.898D-03 0.391D-03 0.275D-02 0.714D-02-0.407D-02-0.269D-01
 Coeff:     -0.922D-01-0.966D-01 0.547D+00 0.664D+00
 Gap=     0.067 Goal=   None    Shift=    0.000
 Gap=     0.154 Goal=   None    Shift=    0.000
 RMSDP=5.93D-07 MaxDP=5.66D-05 DE=-2.40D-09 OVMax= 6.67D-05

 Cycle  17  Pass 1  IDiag  1:
 RMSU=  3.23D-07    CP:  9.33D-01  3.11D-03  4.57D-01  6.05D-01  8.05D-01
                    CP:  8.47D-01  7.54D-01  1.03D+00  1.37D+00  1.62D+00
                    CP:  1.13D+00  1.11D+00  1.06D+00  1.32D+00  1.25D+00
                    CP:  9.57D-01
 E= -3301.88505211953     Delta-E=       -0.000000001382 Rises=F Damp=F
 DIIS: error= 1.10D-06 at cycle  17 NSaved=  17.
 NSaved=17 IEnMin=17 EnMin= -3301.88505211953     IErMin=17 ErrMin= 1.10D-06
 ErrMax= 1.10D-06  0.00D+00 EMaxC= 1.00D-01 BMatC= 5.09D-10 BMatP= 2.01D-09
 IDIUse=1 WtCom= 1.00D+00 WtEn= 0.00D+00
 Coeff-Com: -0.317D-05 0.524D-05 0.848D-05 0.100D-04-0.147D-03-0.370D-03
 Coeff-Com: -0.938D-03-0.368D-03-0.322D-03 0.571D-02 0.870D-02 0.504D-02
 Coeff-Com: -0.516D-01-0.121D+00-0.678D-01 0.269D+00 0.954D+00
 Coeff:     -0.317D-05 0.524D-05 0.848D-05 0.100D-04-0.147D-03-0.370D-03
 Coeff:     -0.938D-03-0.368D-03-0.322D-03 0.571D-02 0.870D-02 0.504D-02
 Coeff:     -0.516D-01-0.121D+00-0.678D-01 0.269D+00 0.954D+00
 Gap=     0.067 Goal=   None    Shift=    0.000
 Gap=     0.154 Goal=   None    Shift=    0.000
 RMSDP=3.71D-07 MaxDP=2.92D-05 DE=-1.38D-09 OVMax= 5.06D-05

 Cycle  18  Pass 1  IDiag  1:
 RMSU=  1.82D-07    CP:  9.33D-01  3.11D-03  4.57D-01  6.05D-01  8.05D-01
                    CP:  8.47D-01  7.54D-01  1.03D+00  1.37D+00  1.62D+00
                    CP:  1.13D+00  1.11D+00  1.06D+00  1.39D+00  1.38D+00
                    CP:  1.17D+00  1.22D+00
 E= -3301.88505212011     Delta-E=       -0.000000000578 Rises=F Damp=F
 DIIS: error= 4.16D-07 at cycle  18 NSaved=  18.
 NSaved=18 IEnMin=18 EnMin= -3301.88505212011     IErMin=18 ErrMin= 4.16D-07
 ErrMax= 4.16D-07  0.00D+00 EMaxC= 1.00D-01 BMatC= 1.16D-10 BMatP= 5.09D-10
 IDIUse=1 WtCom= 1.00D+00 WtEn= 0.00D+00
 Coeff-Com: -0.391D-06 0.110D-05 0.717D-05 0.540D-05-0.364D-04-0.709D-04
 Coeff-Com: -0.195D-03-0.169D-03-0.109D-02 0.739D-03 0.540D-02 0.111D-01
 Coeff-Com:  0.196D-02-0.335D-01-0.203D+00-0.566D-01 0.445D+00 0.830D+00
 Coeff:     -0.391D-06 0.110D-05 0.717D-05 0.540D-05-0.364D-04-0.709D-04
 Coeff:     -0.195D-03-0.169D-03-0.109D-02 0.739D-03 0.540D-02 0.111D-01
 Coeff:      0.196D-02-0.335D-01-0.203D+00-0.566D-01 0.445D+00 0.830D+00
 Gap=     0.067 Goal=   None    Shift=    0.000
 Gap=     0.154 Goal=   None    Shift=    0.000
 RMSDP=2.43D-07 MaxDP=2.64D-05 DE=-5.78D-10 OVMax= 2.73D-05

 Cycle  19  Pass 1  IDiag  1:
 RMSU=  7.09D-08    CP:  9.33D-01  3.11D-03  4.57D-01  6.05D-01  8.05D-01
                    CP:  8.47D-01  7.54D-01  1.03D+00  1.37D+00  1.62D+00
                    CP:  1.13D+00  1.11D+00  1.05D+00  1.42D+00  1.43D+00
                    CP:  1.24D+00  1.56D+00  1.20D+00
 E= -3301.88505212023     Delta-E=       -0.000000000126 Rises=F Damp=F
 DIIS: error= 2.69D-07 at cycle  19 NSaved=  19.
 NSaved=19 IEnMin=19 EnMin= -3301.88505212023     IErMin=19 ErrMin= 2.69D-07
 ErrMax= 2.69D-07  0.00D+00 EMaxC= 1.00D-01 BMatC= 2.87D-11 BMatP= 1.16D-10
 IDIUse=1 WtCom= 1.00D+00 WtEn= 0.00D+00
 Coeff-Com:  0.601D-06-0.697D-06 0.220D-05 0.134D-05 0.103D-04 0.389D-04
 Coeff-Com:  0.714D-04-0.140D-04-0.490D-03-0.758D-03 0.993D-03 0.425D-02
 Coeff-Com:  0.111D-01 0.677D-02-0.876D-01-0.770D-01 0.933D-02 0.426D+00
 Coeff-Com:  0.707D+00
 Coeff:      0.601D-06-0.697D-06 0.220D-05 0.134D-05 0.103D-04 0.389D-04
 Coeff:      0.714D-04-0.140D-04-0.490D-03-0.758D-03 0.993D-03 0.425D-02
 Coeff:      0.111D-01 0.677D-02-0.876D-01-0.770D-01 0.933D-02 0.426D+00
 Coeff:      0.707D+00
 Gap=     0.067 Goal=   None    Shift=    0.000
 Gap=     0.154 Goal=   None    Shift=    0.000
 RMSDP=6.99D-08 MaxDP=5.70D-06 DE=-1.26D-10 OVMax= 6.86D-06

 Cycle  20  Pass 1  IDiag  1:
 RMSU=  3.78D-08    CP:  9.33D-01  3.11D-03  4.57D-01  6.05D-01  8.05D-01
                    CP:  8.47D-01  7.54D-01  1.03D+00  1.37D+00  1.62D+00
                    CP:  1.13D+00  1.11D+00  1.06D+00  1.41D+00  1.43D+00
                    CP:  1.29D+00  1.62D+00  1.20D+00  9.41D-01
 E= -3301.88505212029     Delta-E=       -0.000000000057 Rises=F Damp=F
 DIIS: error= 1.39D-07 at cycle  20 NSaved=  20.
 NSaved=20 IEnMin=20 EnMin= -3301.88505212029     IErMin=20 ErrMin= 1.39D-07
 ErrMax= 1.39D-07  0.00D+00 EMaxC= 1.00D-01 BMatC= 8.87D-12 BMatP= 2.87D-11
 IDIUse=1 WtCom= 1.00D+00 WtEn= 0.00D+00
 Coeff-Com:  0.904D-06-0.133D-05-0.925D-06-0.776D-06 0.184D-04 0.480D-04
 Coeff-Com:  0.957D-04 0.363D-04 0.787D-05-0.650D-03-0.959D-03-0.690D-03
 Coeff-Com:  0.683D-02 0.144D-01 0.375D-02-0.264D-01-0.112D+00 0.258D-01
 Coeff-Com:  0.411D+00 0.679D+00
 Coeff:      0.904D-06-0.133D-05-0.925D-06-0.776D-06 0.184D-04 0.480D-04
 Coeff:      0.957D-04 0.363D-04 0.787D-05-0.650D-03-0.959D-03-0.690D-03
 Coeff:      0.683D-02 0.144D-01 0.375D-02-0.264D-01-0.112D+00 0.258D-01
 Coeff:      0.411D+00 0.679D+00
 Gap=     0.067 Goal=   None    Shift=    0.000
 Gap=     0.154 Goal=   None    Shift=    0.000
 RMSDP=4.52D-08 MaxDP=3.76D-06 DE=-5.73D-11 OVMax= 1.67D-06

 Cycle  21  Pass 1  IDiag  1:
 Restarting incremental Fock formation.
 E= -3301.88505212026     Delta-E=        0.000000000034 Rises=F Damp=F
 DIIS: error= 7.97D-08 at cycle  21 NSaved=  20.
 NSaved=20 IEnMin=19 EnMin= -3301.88505212029     IErMin=20 ErrMin= 7.97D-08
 ErrMax= 7.97D-08  0.00D+00 EMaxC= 1.00D-01 BMatC= 2.37D-12 BMatP= 8.87D-12
 IDIUse=1 WtCom= 1.00D+00 WtEn= 0.00D+00
 Coeff-Com: -0.223D-07-0.845D-06-0.720D-06 0.364D-05 0.579D-05 0.122D-04
 Coeff-Com:  0.268D-04 0.223D-03 0.280D-04-0.928D-03-0.222D-02-0.154D-02
 Coeff-Com:  0.380D-02 0.344D-01 0.163D-01-0.607D-01-0.148D+00-0.326D-01
 Coeff-Com:  0.349D+00 0.842D+00
 Coeff:     -0.223D-07-0.845D-06-0.720D-06 0.364D-05 0.579D-05 0.122D-04
 Coeff:      0.268D-04 0.223D-03 0.280D-04-0.928D-03-0.222D-02-0.154D-02
 Coeff:      0.380D-02 0.344D-01 0.163D-01-0.607D-01-0.148D+00-0.326D-01
 Coeff:      0.349D+00 0.842D+00
 Gap=     0.067 Goal=   None    Shift=    0.000
 Gap=     0.154 Goal=   None    Shift=    0.000
 RMSDP=2.33D-08 MaxDP=1.84D-06 DE= 3.37D-11 OVMax= 1.30D-06

 Cycle  22  Pass 1  IDiag  1:
 RMSU=  2.32D-08    CP:  1.00D+00
 E= -3301.88505212026     Delta-E=       -0.000000000006 Rises=F Damp=F
 DIIS: error= 3.45D-08 at cycle  22 NSaved=  20.
 NSaved=20 IEnMin=18 EnMin= -3301.88505212029     IErMin=20 ErrMin= 3.45D-08
 ErrMax= 3.45D-08  0.00D+00 EMaxC= 1.00D-01 BMatC= 1.02D-12 BMatP= 2.37D-12
 IDIUse=1 WtCom= 1.00D+00 WtEn= 0.00D+00
 Coeff-Com: -0.178D-06-0.257D-06-0.303D-05-0.949D-05-0.185D-04 0.789D-06
 Coeff-Com:  0.886D-04 0.174D-03-0.145D-03-0.642D-03-0.166D-02-0.566D-03
 Coeff-Com:  0.159D-01 0.123D-01-0.855D-02-0.910D-01-0.993D-01 0.340D-01
 Coeff-Com:  0.519D+00 0.620D+00
 Coeff:     -0.178D-06-0.257D-06-0.303D-05-0.949D-05-0.185D-04 0.789D-06
 Coeff:      0.886D-04 0.174D-03-0.145D-03-0.642D-03-0.166D-02-0.566D-03
 Coeff:      0.159D-01 0.123D-01-0.855D-02-0.910D-01-0.993D-01 0.340D-01
 Coeff:      0.519D+00 0.620D+00
 Gap=     0.067 Goal=   None    Shift=    0.000
 Gap=     0.154 Goal=   None    Shift=    0.000
 RMSDP=1.22D-08 MaxDP=7.50D-07 DE=-6.37D-12 OVMax= 4.65D-07

 Cycle  23  Pass 1  IDiag  1:
 RMSU=  1.04D-08    CP:  1.00D+00  7.32D-01
 E= -3301.88505212027     Delta-E=       -0.000000000010 Rises=F Damp=F
 DIIS: error= 1.22D-08 at cycle  23 NSaved=  20.
 NSaved=20 IEnMin=17 EnMin= -3301.88505212029     IErMin=20 ErrMin= 1.22D-08
 ErrMax= 1.22D-08  0.00D+00 EMaxC= 1.00D-01 BMatC= 1.14D-13 BMatP= 1.02D-12
 IDIUse=1 WtCom= 1.00D+00 WtEn= 0.00D+00
 Coeff-Com:  0.383D-07-0.207D-05-0.496D-05-0.903D-05-0.155D-05-0.993D-05
 Coeff-Com:  0.685D-04 0.968D-04 0.132D-03-0.859D-03-0.168D-02-0.561D-03
 Coeff-Com:  0.233D-02 0.166D-01-0.120D-02-0.395D-01-0.112D+00-0.138D-01
 Coeff-Com:  0.191D+00 0.960D+00
 Coeff:      0.383D-07-0.207D-05-0.496D-05-0.903D-05-0.155D-05-0.993D-05
 Coeff:      0.685D-04 0.968D-04 0.132D-03-0.859D-03-0.168D-02-0.561D-03
 Coeff:      0.233D-02 0.166D-01-0.120D-02-0.395D-01-0.112D+00-0.138D-01
 Coeff:      0.191D+00 0.960D+00
 Gap=     0.067 Goal=   None    Shift=    0.000
 Gap=     0.154 Goal=   None    Shift=    0.000
 RMSDP=5.31D-09 MaxDP=3.53D-07 DE=-1.00D-11 OVMax= 4.10D-07

 SCF Done:  E(UB3LYP) =  -3301.88505212     A.U. after   23 cycles
            NFock= 23  Conv=0.53D-08     -V/T= 2.0018
 <Sx>= 0.0000 <Sy>= 0.0000 <Sz>= 0.5000 <S**2>= 0.7592 S= 0.5046
 <L.S>=  0.00000000000    
 KE= 3.296067122723D+03 PE=-1.091409654600D+04 EE= 2.793278134502D+03
 Annihilation of the first spin contaminant:
 S**2 before annihilation     0.7592,   after     0.7500
 Leave Link  502 at Thu Dec 21 05:42:08 2023, MaxMem=  4026531840 cpu:            3816.5 elap:             483.9
 (Enter /sysapps/ubuntu-applications/gaussian/Gaussian/AVX2/g16/l601.exe)
 Copying SCF densities to generalized density rwf, IOpCl= 1 IROHF=0.

 **********************************************************************

            Population analysis using the SCF density.

 **********************************************************************

 Alpha  occ. eigenvalues -- -482.72932 -62.38236 -56.20243 -56.19897 -56.19881
 Alpha  occ. eigenvalues --  -18.94839 -18.94724 -10.11562 -10.09950 -10.09736
 Alpha  occ. eigenvalues --  -10.08245 -10.07387 -10.06716 -10.06172 -10.06155
 Alpha  occ. eigenvalues --  -10.06097 -10.05693 -10.05661 -10.05328 -10.05140
 Alpha  occ. eigenvalues --  -10.05030 -10.04968  -8.59227  -6.42297  -6.41122
 Alpha  occ. eigenvalues --   -6.41085  -2.53412  -2.53071  -2.53046  -2.52109
 Alpha  occ. eigenvalues --   -2.52108  -0.89273  -0.88992  -0.76575  -0.74289
 Alpha  occ. eigenvalues --   -0.70602  -0.67725  -0.64980  -0.63202  -0.62026
 Alpha  occ. eigenvalues --   -0.59090  -0.53227  -0.52128  -0.48950  -0.48387
 Alpha  occ. eigenvalues --   -0.44082  -0.40889  -0.40738  -0.36728  -0.35189
 Alpha  occ. eigenvalues --   -0.34311  -0.33737  -0.33426  -0.31755  -0.30981
 Alpha  occ. eigenvalues --   -0.30632  -0.30358  -0.28965  -0.28737  -0.28166
 Alpha  occ. eigenvalues --   -0.26177  -0.25965  -0.25864  -0.24393  -0.23519
 Alpha  occ. eigenvalues --   -0.23364  -0.22157  -0.20212  -0.19296  -0.14694
 Alpha  occ. eigenvalues --   -0.14085  -0.13643  -0.13281  -0.11936  -0.10908
 Alpha  occ. eigenvalues --   -0.00845
 Alpha virt. eigenvalues --    0.05869   0.07371   0.08025   0.08616   0.09278
 Alpha virt. eigenvalues --    0.09962   0.10290   0.10672   0.11264   0.11475
 Alpha virt. eigenvalues --    0.12135   0.12693   0.13761   0.13877   0.14621
 Alpha virt. eigenvalues --    0.15157   0.15385   0.16406   0.16567   0.16619
 Alpha virt. eigenvalues --    0.17135   0.17458   0.18131   0.18723   0.19229
 Alpha virt. eigenvalues --    0.19308   0.19438   0.19891   0.20189   0.20526
 Alpha virt. eigenvalues --    0.21094   0.21350   0.22043   0.22247   0.22332
 Alpha virt. eigenvalues --    0.22688   0.22990   0.23163   0.23703   0.24280
 Alpha virt. eigenvalues --    0.24459   0.25118   0.25231   0.25598   0.26076
 Alpha virt. eigenvalues --    0.26663   0.27054   0.27791   0.28086   0.28309
 Alpha virt. eigenvalues --    0.29271   0.29445   0.29985   0.30208   0.30482
 Alpha virt. eigenvalues --    0.30858   0.31602   0.32088   0.32419   0.32507
 Alpha virt. eigenvalues --    0.32850   0.33124   0.33605   0.34267   0.34584
 Alpha virt. eigenvalues --    0.35572   0.36002   0.36232   0.36294   0.36849
 Alpha virt. eigenvalues --    0.37082   0.37524   0.37847   0.38461   0.38933
 Alpha virt. eigenvalues --    0.39474   0.40153   0.40619   0.40674   0.41411
 Alpha virt. eigenvalues --    0.41763   0.42864   0.42973   0.43108   0.43651
 Alpha virt. eigenvalues --    0.43698   0.44372   0.45198   0.46017   0.46718
 Alpha virt. eigenvalues --    0.46823   0.47054   0.47297   0.47795   0.49284
 Alpha virt. eigenvalues --    0.49981   0.50773   0.52300   0.52583   0.53024
 Alpha virt. eigenvalues --    0.53219   0.54930   0.55000   0.55982   0.56012
 Alpha virt. eigenvalues --    0.57559   0.58755   0.60978   0.61853   0.62132
 Alpha virt. eigenvalues --    0.63416   0.64292   0.65351   0.65884   0.66878
 Alpha virt. eigenvalues --    0.67715   0.68049   0.68123   0.68706   0.69035
 Alpha virt. eigenvalues --    0.69211   0.70281   0.70589   0.70847   0.71581
 Alpha virt. eigenvalues --    0.73200   0.73980   0.75010   0.75140   0.75876
 Alpha virt. eigenvalues --    0.76558   0.77010   0.77984   0.78019   0.78753
 Alpha virt. eigenvalues --    0.78836   0.78959   0.80357   0.80419   0.80618
 Alpha virt. eigenvalues --    0.81424   0.81834   0.83880   0.84552   0.85047
 Alpha virt. eigenvalues --    0.85170   0.86633   0.86961   0.88647   0.89220
 Alpha virt. eigenvalues --    0.89425   0.90133   0.91204   0.91823   0.92157
 Alpha virt. eigenvalues --    0.93768   0.94310   0.95992   0.97781   0.98509
 Alpha virt. eigenvalues --    1.00559   1.01615   1.02417   1.03708   1.05048
 Alpha virt. eigenvalues --    1.05427   1.05570   1.06437   1.06547   1.07045
 Alpha virt. eigenvalues --    1.08353   1.08687   1.10014   1.11261   1.11400
 Alpha virt. eigenvalues --    1.12064   1.12785   1.13283   1.15366   1.15965
 Alpha virt. eigenvalues --    1.16534   1.16739   1.18428   1.19592   1.20426
 Alpha virt. eigenvalues --    1.21385   1.23653   1.23951   1.24296   1.26205
 Alpha virt. eigenvalues --    1.29554   1.29846   1.30899   1.32550   1.34218
 Alpha virt. eigenvalues --    1.36349   1.36766   1.37795   1.38683   1.39657
 Alpha virt. eigenvalues --    1.42855   1.46220   1.47073   1.48339   1.48799
 Alpha virt. eigenvalues --    1.49233   1.50454   1.54851   1.55220   1.58323
 Alpha virt. eigenvalues --    1.59370   1.61839   1.62019   1.62867   1.63791
 Alpha virt. eigenvalues --    1.64063   1.64600   1.65081   1.66635   1.67060
 Alpha virt. eigenvalues --    1.68441   1.68509   1.70690   1.71399   1.74695
 Alpha virt. eigenvalues --    1.75462   1.75752   1.77883   1.79051   1.79342
 Alpha virt. eigenvalues --    1.80483   1.84706   1.85243   1.85398   1.86432
 Alpha virt. eigenvalues --    1.86549   1.90429   1.90604   1.91314   1.91481
 Alpha virt. eigenvalues --    1.94236   1.96201   1.96359   1.98705   2.01027
 Alpha virt. eigenvalues --    2.03016   2.04174   2.04381   2.05188   2.05364
 Alpha virt. eigenvalues --    2.06503   2.07515   2.08793   2.08963   2.09925
 Alpha virt. eigenvalues --    2.10093   2.12009   2.13361   2.15016   2.16312
 Alpha virt. eigenvalues --    2.17298   2.17627   2.19384   2.21122   2.23975
 Alpha virt. eigenvalues --    2.24948   2.27930   2.30402   2.30680   2.32295
 Alpha virt. eigenvalues --    2.33676   2.37851   2.39962   2.40208   2.43175
 Alpha virt. eigenvalues --    2.43970   2.45794   2.47507   2.50587   2.52208
 Alpha virt. eigenvalues --    2.52892   2.53912   2.56448   2.57011   2.59524
 Alpha virt. eigenvalues --    2.63103   2.64163   2.65379   2.66843   2.68432
 Alpha virt. eigenvalues --    2.74836   2.76032   2.77168   2.77969   2.78107
 Alpha virt. eigenvalues --    2.80583   2.82034   2.82437   2.82787   2.85677
 Alpha virt. eigenvalues --    2.88355   2.88707   2.89134   2.89761   2.90865
 Alpha virt. eigenvalues --    2.91363   2.92122   2.92593   2.93464   2.96319
 Alpha virt. eigenvalues --    2.96616   2.99243   3.00770   3.01243   3.01331
 Alpha virt. eigenvalues --    3.02510   3.03101   3.07303   3.08596   3.09957
 Alpha virt. eigenvalues --    3.10852   3.12115   3.15764   3.19204   3.22351
 Alpha virt. eigenvalues --    3.23940   3.25218   3.28400   3.33386   3.34401
 Alpha virt. eigenvalues --    3.35840   3.38863   3.41676   3.47426   3.48930
 Alpha virt. eigenvalues --    3.49491   3.51542   3.52067   3.53292   3.58161
 Alpha virt. eigenvalues --    3.65846   3.67473   3.69613   3.70515   3.71366
 Alpha virt. eigenvalues --    3.74375   3.74526   3.85387   3.88613   3.91298
 Alpha virt. eigenvalues --    3.94205   3.96164   3.98129   4.03502   4.15278
 Alpha virt. eigenvalues --    4.19643   4.24774   4.30407   4.32887   4.32994
 Alpha virt. eigenvalues --    4.34268   4.36778   4.42554   4.42941   4.52023
 Alpha virt. eigenvalues --    4.61311   4.70782   4.93266   4.98033   4.99594
 Alpha virt. eigenvalues --    5.20723   5.22065   5.41280   5.43954   5.90366
 Alpha virt. eigenvalues --    5.98900   6.91230   7.67305   7.80885   7.89071
 Alpha virt. eigenvalues --   23.62131  23.77190  24.02012  24.03932  24.06030
 Alpha virt. eigenvalues --   24.08142  24.08945  24.09888  24.12200  24.17493
 Alpha virt. eigenvalues --   24.18786  24.20534  24.22286  24.27417  24.30274
 Alpha virt. eigenvalues --   48.15951  50.21046  50.25836 289.87255 290.00971
 Alpha virt. eigenvalues --  290.112711020.98009
  Beta  occ. eigenvalues -- -482.72931 -62.38235 -56.20243 -56.19894 -56.19880
  Beta  occ. eigenvalues --  -18.94281 -18.94146 -10.11497 -10.09817 -10.09594
  Beta  occ. eigenvalues --  -10.08183 -10.07393 -10.06739 -10.06185 -10.06106
  Beta  occ. eigenvalues --  -10.06044 -10.05710 -10.05672 -10.05230 -10.05029
  Beta  occ. eigenvalues --  -10.04937 -10.04876  -8.59226  -6.42298  -6.41116
  Beta  occ. eigenvalues --   -6.41085  -2.53412  -2.53068  -2.53046  -2.52107
  Beta  occ. eigenvalues --   -2.52106  -0.88326  -0.88007  -0.76429  -0.74104
  Beta  occ. eigenvalues --   -0.70426  -0.67538  -0.64743  -0.63043  -0.61856
  Beta  occ. eigenvalues --   -0.58930  -0.52538  -0.52001  -0.48672  -0.48331
  Beta  occ. eigenvalues --   -0.43854  -0.40664  -0.40551  -0.36642  -0.34891
  Beta  occ. eigenvalues --   -0.34156  -0.33667  -0.33296  -0.31692  -0.30948
  Beta  occ. eigenvalues --   -0.30507  -0.29154  -0.28770  -0.28364  -0.27854
  Beta  occ. eigenvalues --   -0.25785  -0.25705  -0.24335  -0.23734  -0.23230
  Beta  occ. eigenvalues --   -0.22818  -0.21958  -0.19456  -0.19283  -0.13795
  Beta  occ. eigenvalues --   -0.13011  -0.12830  -0.12413  -0.11415  -0.10372
  Beta virt. eigenvalues --    0.05027   0.06646   0.07381   0.08014   0.08637
  Beta virt. eigenvalues --    0.09951   0.10316   0.10487   0.10677   0.11265
  Beta virt. eigenvalues --    0.11539   0.12123   0.12689   0.13766   0.13995
  Beta virt. eigenvalues --    0.14622   0.15229   0.15388   0.16422   0.16618
  Beta virt. eigenvalues --    0.17202   0.17373   0.17679   0.18128   0.18733
  Beta virt. eigenvalues --    0.19240   0.19435   0.19916   0.20202   0.20529
  Beta virt. eigenvalues --    0.20709   0.21171   0.21350   0.22062   0.22276
  Beta virt. eigenvalues --    0.22535   0.22704   0.23017   0.23455   0.23709
  Beta virt. eigenvalues --    0.24281   0.24510   0.25214   0.25230   0.25609
  Beta virt. eigenvalues --    0.26076   0.26946   0.27056   0.27806   0.28170
  Beta virt. eigenvalues --    0.28311   0.29473   0.29535   0.30011   0.30323
  Beta virt. eigenvalues --    0.30490   0.30915   0.31582   0.32119   0.32423
  Beta virt. eigenvalues --    0.32542   0.32912   0.33514   0.33646   0.34294
  Beta virt. eigenvalues --    0.34637   0.35707   0.36053   0.36339   0.36491
  Beta virt. eigenvalues --    0.37132   0.37357   0.37631   0.37920   0.38536
  Beta virt. eigenvalues --    0.39045   0.39514   0.40190   0.40637   0.40726
  Beta virt. eigenvalues --    0.41479   0.41876   0.43076   0.43225   0.43275
  Beta virt. eigenvalues --    0.43758   0.44067   0.44459   0.45321   0.46086
  Beta virt. eigenvalues --    0.46804   0.46884   0.47111   0.47343   0.47897
  Beta virt. eigenvalues --    0.49373   0.50086   0.50878   0.52475   0.52617
  Beta virt. eigenvalues --    0.53121   0.53294   0.54969   0.55108   0.56093
  Beta virt. eigenvalues --    0.56284   0.57597   0.58935   0.61013   0.61996
  Beta virt. eigenvalues --    0.62269   0.63499   0.64407   0.65506   0.66041
  Beta virt. eigenvalues --    0.66962   0.67792   0.68149   0.68653   0.68767
  Beta virt. eigenvalues --    0.69209   0.69263   0.70311   0.70640   0.71031
  Beta virt. eigenvalues --    0.71642   0.73264   0.74027   0.75086   0.75266
  Beta virt. eigenvalues --    0.75943   0.76719   0.77082   0.78083   0.78218
  Beta virt. eigenvalues --    0.78813   0.79016   0.79134   0.80579   0.80648
  Beta virt. eigenvalues --    0.81128   0.81572   0.81905   0.83926   0.84999
  Beta virt. eigenvalues --    0.85100   0.85246   0.86684   0.86992   0.88685
  Beta virt. eigenvalues --    0.89431   0.89479   0.90159   0.91282   0.92100
  Beta virt. eigenvalues --    0.92173   0.93810   0.94424   0.96059   0.97823
  Beta virt. eigenvalues --    0.98576   1.00683   1.01712   1.02535   1.03813
  Beta virt. eigenvalues --    1.05136   1.05632   1.05910   1.06534   1.06665
  Beta virt. eigenvalues --    1.07112   1.08501   1.08816   1.10214   1.11539
  Beta virt. eigenvalues --    1.11608   1.12263   1.12982   1.13383   1.15570
  Beta virt. eigenvalues --    1.16332   1.16589   1.16821   1.18533   1.19917
  Beta virt. eigenvalues --    1.20665   1.21473   1.24005   1.24016   1.24756
  Beta virt. eigenvalues --    1.27014   1.29677   1.30941   1.31108   1.32976
  Beta virt. eigenvalues --    1.34323   1.36657   1.37616   1.38035   1.39337
  Beta virt. eigenvalues --    1.39963   1.43004   1.46399   1.47194   1.48524
  Beta virt. eigenvalues --    1.48989   1.49373   1.50792   1.54894   1.55409
  Beta virt. eigenvalues --    1.58411   1.59413   1.62111   1.62264   1.62971
  Beta virt. eigenvalues --    1.63854   1.64378   1.64651   1.65493   1.66721
  Beta virt. eigenvalues --    1.67122   1.68588   1.68638   1.70721   1.71551
  Beta virt. eigenvalues --    1.74799   1.75587   1.75923   1.77987   1.79115
  Beta virt. eigenvalues --    1.79393   1.80945   1.84838   1.85368   1.85543
  Beta virt. eigenvalues --    1.86578   1.86759   1.90753   1.90830   1.91419
  Beta virt. eigenvalues --    1.91566   1.94457   1.96333   1.96606   1.98891
  Beta virt. eigenvalues --    2.01332   2.03183   2.04419   2.04650   2.05298
  Beta virt. eigenvalues --    2.05516   2.06640   2.08017   2.08856   2.09200
  Beta virt. eigenvalues --    2.10077   2.10168   2.12160   2.13563   2.15222
  Beta virt. eigenvalues --    2.16523   2.17513   2.17785   2.19510   2.21223
  Beta virt. eigenvalues --    2.24044   2.25060   2.28056   2.30474   2.30967
  Beta virt. eigenvalues --    2.32391   2.33802   2.37923   2.40238   2.40501
  Beta virt. eigenvalues --    2.43369   2.44047   2.46207   2.47821   2.50681
  Beta virt. eigenvalues --    2.52576   2.53102   2.54119   2.56512   2.57062
  Beta virt. eigenvalues --    2.59541   2.63143   2.64240   2.65432   2.66945
  Beta virt. eigenvalues --    2.68489   2.74925   2.76642   2.77211   2.78218
  Beta virt. eigenvalues --    2.78281   2.80642   2.82104   2.82809   2.82835
  Beta virt. eigenvalues --    2.85701   2.88427   2.88749   2.89791   2.89798
  Beta virt. eigenvalues --    2.90896   2.91407   2.92302   2.93226   2.93554
  Beta virt. eigenvalues --    2.96401   2.96938   2.99872   3.01175   3.01434
  Beta virt. eigenvalues --    3.02021   3.02761   3.03587   3.07375   3.09799
  Beta virt. eigenvalues --    3.11107   3.12003   3.13128   3.16235   3.19325
  Beta virt. eigenvalues --    3.22718   3.24459   3.25397   3.28535   3.33650
  Beta virt. eigenvalues --    3.34684   3.35896   3.39024   3.41851   3.47575
  Beta virt. eigenvalues --    3.48965   3.50974   3.51630   3.53380   3.53535
  Beta virt. eigenvalues --    3.58264   3.65923   3.67603   3.69835   3.70620
  Beta virt. eigenvalues --    3.71465   3.74590   3.74782   3.85558   3.88629
  Beta virt. eigenvalues --    3.91320   3.94302   3.96337   3.98571   4.03744
  Beta virt. eigenvalues --    4.15372   4.19775   4.24781   4.30528   4.32930
  Beta virt. eigenvalues --    4.33004   4.34361   4.36988   4.42839   4.43115
  Beta virt. eigenvalues --    4.52031   4.61606   4.70802   4.93679   4.98212
  Beta virt. eigenvalues --    4.99736   5.23075   5.24420   5.41748   5.44423
  Beta virt. eigenvalues --    5.90854   5.99388   6.91235   7.67316   7.80886
  Beta virt. eigenvalues --    7.89071  23.62198  23.77252  24.02104  24.03958
  Beta virt. eigenvalues --   24.06185  24.08229  24.08978  24.09914  24.12362
  Beta virt. eigenvalues --   24.17566  24.18806  24.20549  24.22366  24.27482
  Beta virt. eigenvalues --   24.30317  48.15953  50.21615  50.26407 289.87258
  Beta virt. eigenvalues --  290.00971 290.112701020.98009
          Condensed to atoms (all electrons):
               1          2          3          4          5          6
     1  C    8.612645   0.350423  -0.266689   1.100639  -1.523253   1.570334
     2  C    0.350423   7.009084   0.141108  -0.904129   0.108282  -0.323887
     3  C   -0.266689   0.141108   7.018011   0.120826  -0.765882   0.180361
     4  C    1.100639  -0.904129   0.120826  18.736215  -1.160920  -1.458601
     5  C   -1.523253   0.108282  -0.765882  -1.160920  18.941608  -0.198146
     6  C    1.570334  -0.323887   0.180361  -1.458601  -0.198146   8.636044
     7  C   -1.684731   0.164834  -0.509722  -0.180399  -0.720562  -0.788439
     8  C   -0.009267   0.035535  -0.244123  -1.204877  -6.174877  -0.814811
     9  C   -1.453084  -0.240078   0.137517  -5.916716  -0.070187   0.463434
    10  C   -0.865914  -0.085597   0.414100   0.787543  -1.109710  -1.451233
    11  C   -0.064273  -0.066085  -0.039763  -1.214740  -2.057515  -0.090378
    12  C    0.027502  -0.011385   0.017292   1.126896   0.217998  -0.149465
    13  C   -0.129960  -0.009903  -0.037183  -1.029311   0.549212   0.011188
    14  C   -0.242233  -0.056826  -0.105381  -2.200913   0.318230  -0.024605
    15  O    0.221629   0.075231  -0.012101  -0.310059  -0.400209  -0.011564
    16  O   -0.023393  -0.008995   0.076249  -0.404937  -0.285704   0.171999
    17  Br   0.003913  -0.000358  -0.000088   0.047986   0.002095  -0.002307
    18  C   -0.003936  -0.000824  -0.002730  -0.122336  -0.001219   0.013305
    19  H    0.370989  -0.184207  -0.003202   0.041014   0.074872   0.028575
    20  H   -0.119420   0.473950  -0.061067   0.011417  -0.025087  -0.011236
    21  H    0.000422  -0.064079   0.506379  -0.010555   0.009328  -0.134212
    22  H    0.025958   0.007766  -0.178826   0.087511  -0.016781   0.379770
    23  H   -0.016846   0.002836  -0.000532  -0.098861   0.004960   0.000129
    24  H   -0.001432   0.001330   0.002659   0.031670  -0.064935  -0.010747
    25  H   -0.000057   0.000007   0.000012  -0.001544  -0.001164   0.000393
    26  H   -0.000066   0.000006   0.000015  -0.001576  -0.001327   0.000422
    27  H   -0.000055  -0.000083  -0.000232  -0.000775   0.016879  -0.000762
               7          8          9         10         11         12
     1  C   -1.684731  -0.009267  -1.453084  -0.865914  -0.064273   0.027502
     2  C    0.164834   0.035535  -0.240078  -0.085597  -0.066085  -0.011385
     3  C   -0.509722  -0.244123   0.137517   0.414100  -0.039763   0.017292
     4  C   -0.180399  -1.204877  -5.916716   0.787543  -1.214740   1.126896
     5  C   -0.720562  -6.174877  -0.070187  -1.109710  -2.057515   0.217998
     6  C   -0.788439  -0.814811   0.463434  -1.451233  -0.090378  -0.149465
     7  C   13.191775  -0.558926   0.521040   0.740171  -3.044097   1.811768
     8  C   -0.558926  16.549110  -0.374992   1.917505   1.841313  -1.945338
     9  C    0.521040  -0.374992  17.906356  -1.409493   0.188372  -2.285771
    10  C    0.740171   1.917505  -1.409493   9.685325  -0.769291  -0.803646
    11  C   -3.044097   1.841313   0.188372  -0.769291  10.181586  -1.017109
    12  C    1.811768  -1.945338  -2.285771  -0.803646  -1.017109  13.920620
    13  C   -1.450752  -0.777944  -3.496162   1.000060  -0.318770  -1.587189
    14  C   -1.257570  -1.780846   2.753933  -2.218938   1.797242  -2.238844
    15  O    0.893992  -0.298591  -0.337364  -0.008733   0.138992   0.163967
    16  O   -0.026262  -0.293800  -0.267402   0.621310  -0.031239   0.002240
    17  Br   0.076616  -0.024133  -0.046320  -0.033093  -0.039514   0.483048
    18  C   -0.304485  -0.429045  -0.602867   0.108000   0.332486  -0.821894
    19  H    0.059349  -0.039168   0.009200   0.000346  -0.013829   0.000464
    20  H    0.034642   0.016315  -0.004091  -0.009779   0.000372  -0.000755
    21  H   -0.022260  -0.009027   0.011835   0.016954   0.000222   0.000712
    22  H    0.011358   0.021643  -0.025636   0.048631   0.001456  -0.003192
    23  H    0.061842   0.193842   0.116473   0.032303   0.298626  -0.388803
    24  H    0.039712   0.149245   0.244648   0.099590  -0.002640  -0.011366
    25  H   -0.003922   0.002162  -0.000318   0.003739   0.008973  -0.033975
    26  H   -0.003914   0.002720   0.001913   0.003808   0.009163  -0.037841
    27  H   -0.000656  -0.033067  -0.075966   0.010689  -0.027030  -0.017067
              13         14         15         16         17         18
     1  C   -0.129960  -0.242233   0.221629  -0.023393   0.003913  -0.003936
     2  C   -0.009903  -0.056826   0.075231  -0.008995  -0.000358  -0.000824
     3  C   -0.037183  -0.105381  -0.012101   0.076249  -0.000088  -0.002730
     4  C   -1.029311  -2.200913  -0.310059  -0.404937   0.047986  -0.122336
     5  C    0.549212   0.318230  -0.400209  -0.285704   0.002095  -0.001219
     6  C    0.011188  -0.024605  -0.011564   0.171999  -0.002307   0.013305
     7  C   -1.450752  -1.257570   0.893992  -0.026262   0.076616  -0.304485
     8  C   -0.777944  -1.780846  -0.298591  -0.293800  -0.024133  -0.429045
     9  C   -3.496162   2.753933  -0.337364  -0.267402  -0.046320  -0.602867
    10  C    1.000060  -2.218938  -0.008733   0.621310  -0.033093   0.108000
    11  C   -0.318770   1.797242   0.138992  -0.031239  -0.039514   0.332486
    12  C   -1.587189  -2.238844   0.163967   0.002240   0.483048  -0.821894
    13  C   13.217342  -0.299174  -0.040955   0.194805  -0.225865  -0.013575
    14  C   -0.299174  11.336966  -0.042822   0.293612  -0.018068  -0.211138
    15  O   -0.040955  -0.042822   8.322406  -0.000042   0.004730  -0.002078
    16  O    0.194805   0.293612  -0.000042   8.330580   0.000178   0.007793
    17  Br  -0.225865  -0.018068   0.004730   0.000178  35.292539  -0.167325
    18  C   -0.013575  -0.211138  -0.002078   0.007793  -0.167325   7.257887
    19  H   -0.003320  -0.001497  -0.008708   0.000537   0.000061  -0.000379
    20  H    0.000612   0.001358   0.003056  -0.000329  -0.000005   0.000027
    21  H   -0.001121  -0.000995  -0.000375   0.003154   0.000008  -0.000041
    22  H   -0.003670  -0.016391   0.000608  -0.007548  -0.000046  -0.000182
    23  H    0.068754   0.025654  -0.014262   0.000394  -0.075149   0.013522
    24  H   -0.337804   0.280329   0.000276  -0.013722  -0.000610  -0.082952
    25  H   -0.047804   0.015212  -0.000036  -0.000287  -0.003934   0.400280
    26  H   -0.045877   0.018961  -0.000039  -0.000316  -0.004581   0.395162
    27  H    0.071463  -0.047987   0.000058   0.003814   0.008692   0.431695
              19         20         21         22         23         24
     1  C    0.370989  -0.119420   0.000422   0.025958  -0.016846  -0.001432
     2  C   -0.184207   0.473950  -0.064079   0.007766   0.002836   0.001330
[...]
 .00000097,0.00007980,-0.00003108,0.00000352,0.00022472,0.00008982,-0.0
 0000212,0.00003416,0.00002557,-0.00000084,-0.00000759,0.00001164,-0.00
 000039,0.00058285,0.00084865,-0.00010136,-0.12906169,0.13466461,0.0004
 2896,-0.00028383,0.00277853,-0.00017915,0.00067736,-0.03229402,-0.0005
 0204,0.00021282,0.00115820,0.00014026,0.00018605,0.00792479,0.00001359
 ,0.00000516,-0.00049471,0.00006123,0.00019751,0.00564490,0.00000797,-0
 .00001717,0.00050435,0.00000413,-0.00001090,-0.00080749,0.00000276,0.0
 0000676,0.00019054,-0.00001466,-0.00001357,-0.00102582,0.00000002,-0.0
 0000169,0.00002656,0.00000140,-0.00000078,0.00006742,0.00000084,0.0000
 0264,0.00002138,-0.00000134,0.,0.00003317,0.00000086,0.00000732,0.0002
 1705,-0.00000233,-0.00000344,0.00007308,0.00000048,-0.00000003,-0.0000
 0681,-0.00000004,-0.00000033,-0.00001301,-0.00005944,-0.00009361,-0.00
 488158,0.00013407,-0.00081749,0.02332534,0.00191067,-0.00007210,0.0000
 3202,0.00207861,0.00224720,-0.00004511,-0.26282150,-0.11394709,0.00381
 094,-0.00004220,0.00082230,-0.00001778,-0.00250054,0.00450925,0.000010
 41,-0.02035183,-0.01615189,0.00046173,0.00023470,0.00028460,-0.0000150
 1,0.00006355,-0.00000061,0.00000097,-0.00058911,0.00049486,-0.00001024
 ,-0.00030354,-0.00175654,0.00003589,-0.00003767,-0.00000561,0.00000089
 ,0.00011146,0.00007892,-0.00000244,-0.00011735,0.00003012,0.00000123,0
 .00000539,-0.00022396,0.00000389,-0.00012572,-0.00038035,0.00000803,-0
 .00004733,0.00039977,-0.00000459,-0.00009434,-0.00004998,0.00000154,-0
 .00000904,-0.00003409,0.00000067,-0.00006103,0.00016858,-0.00000002,0.
 00076739,-0.00064865,-0.00001776,0.28080967,0.00149190,-0.00605109,0.0
 0018504,-0.02931576,-0.00921974,0.00041562,-0.11417683,-0.12201637,0.0
 0244774,0.00099423,-0.00045460,-0.00000927,0.00317842,-0.00122271,0.00
 012956,0.01530964,0.01127583,-0.00026880,-0.00027243,-0.00009309,-0.00
 001347,0.00008236,-0.00021102,0.00000592,0.00037472,0.00001987,-0.0000
 1720,0.00013172,0.00072306,-0.00000543,-0.00010262,0.00003564,0.000001
 19,0.00008951,-0.00009647,0.00000061,0.00003976,0.00011663,-0.00000058
 ,-0.00003770,0.00004608,-0.00000011,-0.00021356,0.00011931,0.00000104,
 -0.00008011,-0.00003531,0.00000496,-0.00004671,-0.00002206,0.00000057,
 0.00001272,-0.00000729,-0.00000003,-0.00132612,-0.00045993,0.00002344,
 0.00065518,0.00097422,-0.00006730,0.12381801,0.12570835,0.00000563,0.0
 0019763,0.00564759,0.00048663,0.00015747,0.00119086,0.00381481,0.00244
 533,-0.03246115,-0.00002045,-0.00000795,-0.00052087,0.00003336,0.00011
 890,0.00801919,-0.00006942,-0.00001062,0.00278700,-0.00000577,-0.00001
 805,-0.00102601,-0.00000040,0.00000663,0.00018105,-0.00000821,-0.00001
 819,-0.00082005,0.00000393,0.00001017,0.00046644,0.00000247,0.00000037
 ,0.00005655,-0.00000253,0.00000067,-0.00001753,0.00000116,-0.00000035,
 0.00010940,0.00000072,0.00000137,0.00001933,0.00000526,0.00000236,0.00
 007653,0.00000351,0.00000108,0.00021991,0.00000148,0.00000059,-0.00001
 150,-0.00000020,0.00000025,-0.00000827,0.00002513,0.00001109,0.0002811
 4,-0.00003954,-0.00005672,-0.00271167,-0.00419866,-0.00274123,0.023431
 43,-0.00114204,-0.00004197,0.00000189,-0.00406322,0.00203247,0.0000656
 1,0.00383397,0.02714265,-0.00045803,-0.00484492,-0.00124097,0.00010744
 ,0.00542410,-0.02844924,0.00047085,-0.05671497,0.00043037,0.00014326,0
 .00105788,-0.00163236,0.00001816,-0.00014870,-0.00025220,0.00000600,0.
 00116280,0.00074089,-0.00002165,-0.00107946,-0.00337982,0.00004259,0.0
 0015289,0.00015713,-0.00000390,-0.00011439,-0.00011625,0.00000295,0.00
 014459,0.00017873,-0.00000416,-0.00028718,0.00018723,0.00000002,-0.000
 65539,0.00000773,0.00000518,0.00085774,0.00281056,-0.00006069,0.000015
 33,0.00001770,-0.00000044,0.00000720,0.00000633,-0.00000032,0.00011115
 ,-0.00003308,-0.00000816,-0.00002093,0.00130886,-0.00001954,0.00114573
 ,-0.00059435,-0.00003918,0.05522203,-0.00032851,0.00071702,-0.00002615
 ,0.00288972,0.00091925,0.00009745,-0.00274122,-0.00969269,0.00024784,-
 0.00254163,0.00058284,0.00010666,-0.00163120,-0.01321096,0.00030743,-0
 .00072115,-0.33432838,0.00498700,0.00073601,-0.00048805,0.00000084,-0.
 00019208,-0.00005363,0.00000358,-0.00009341,0.00003057,0.00000069,0.00
 149865,-0.00305827,-0.00001151,0.00005771,0.00003703,-0.00000116,0.000
 01219,0.00001835,-0.00000038,0.00000738,0.00004066,-0.00000082,-0.0000
 4287,-0.00005943,0.00000325,-0.00032251,-0.00027516,0.00000711,0.00253
 619,0.00166182,-0.00006091,-0.00006264,-0.00003171,0.00000100,-0.00000
 116,-0.00000911,-0.00000019,0.00002554,-0.00010048,-0.00001451,-0.0001
 8412,-0.00050040,0.00001482,0.00037103,0.00085809,-0.00009990,0.000731
 12,0.35691574,0.00000680,-0.00002871,-0.00100535,0.00005119,0.00010458
 ,0.00811809,0.00004456,0.00000356,0.00370442,0.00012912,0.00009615,0.0
 0567553,0.00002027,0.00052559,0.00422266,0.00016206,0.00497515,-0.0384
 5306,-0.00002164,0.00002011,-0.00007936,0.00000494,0.00000404,0.000065
 20,-0.00000788,-0.00000619,0.00002236,-0.00004283,0.00002749,-0.003062
 48,-0.00000225,-0.00000199,-0.00000536,0.00000072,0.00000071,0.0000042
 5,-0.00000131,-0.00000218,-0.00000384,0.00000391,0.00000141,0.00011420
 ,0.00001071,0.00000444,-0.00001082,-0.00005155,-0.00005882,-0.00068568
 ,0.00000090,0.00000032,-0.00000410,-0.00000025,-0.00000029,-0.00002102
 ,-0.00000914,-0.00001405,-0.00094942,0.00000563,0.00000257,0.00028851,
 -0.00005590,-0.00009181,-0.00488993,-0.00024873,-0.00556203,0.02693772
 ,-0.00026802,0.00018888,0.00000003,0.00013354,0.00016594,-0.00000378,-
 0.00008006,-0.00009522,0.00000213,0.00121257,0.00074202,-0.00002157,-0
 .00010816,-0.00027432,0.00000581,0.00012849,0.00015069,-0.00000356,-0.
 00101384,-0.00347735,0.00004176,0.00506832,-0.02801376,0.00047222,-0.0
 0459876,-0.00121159,0.00010185,0.00098683,-0.00160424,0.00001819,-0.05
 218895,-0.00425642,0.00019374,0.00001116,0.02644728,-0.00042423,-0.003
 87478,0.00175627,0.00005477,-0.00124829,-0.00015742,0.00000242,0.00122
 464,0.00291126,-0.00006562,-0.00066281,0.00006801,0.00000407,0.0010185
 9,0.00109160,-0.00004995,0.00045707,0.00101587,-0.00001729,-0.00011385
 ,-0.00000481,0.00000122,0.00002320,0.00000339,-0.00000042,0.00000757,0
 .00001605,-0.00000033,0.00003133,0.00001149,-0.00000048,0.05410095,0.0
 0001416,-0.00005592,0.00000274,0.00000144,0.00000523,0.00000016,-0.000
 03553,-0.00000163,0.00000002,-0.00020710,-0.00015503,0.00000616,-0.000
 16309,0.00003221,0.00000132,0.00004039,0.00000872,-0.00000040,0.001503
 94,-0.00247084,-0.00002482,-0.00248775,-0.01190258,0.00030060,-0.00216
 645,0.00041840,0.00010177,0.00060736,-0.00036336,-0.00000067,-0.001589
 46,-0.33932837,0.00511367,-0.00253044,-0.01073468,0.00024840,0.0023360
 7,0.00084553,0.00007419,-0.00038928,0.00084597,-0.00003256,0.00216077,
 0.00104982,-0.00004807,-0.00023055,-0.00029477,0.00000648,-0.00108112,
 0.00112792,-0.00005818,-0.00033312,-0.00013612,0.00001358,0.00002315,0
 .00003347,-0.00000044,-0.00001906,0.00000156,-0.00000024,-0.00001175,-
 0.00000343,0.00000017,0.00000303,-0.00001955,0.00000025,0.00427647,0.3
 6133176,0.00000296,0.00000131,0.00011439,-0.00000105,-0.00000134,0.000
 01481,0.00000104,0.00000061,-0.00001877,-0.00000592,-0.00000189,0.0001
 0660,0.00000365,0.00000235,0.00002966,-0.00000161,-0.00000129,0.000005
 71,-0.00004435,0.00001523,-0.00322609,0.00003917,0.00050644,0.00468472
 ,0.00011776,0.00009430,0.00539491,-0.00001913,0.00001727,-0.00011306,0
 .00015085,0.00513254,-0.03726472,0.00006313,0.00001549,0.00275260,0.00
 004396,0.00007908,0.00639735,0.00000734,-0.00003401,-0.00127861,-0.000
 04861,-0.00005040,-0.00074277,0.00000908,0.00000404,-0.00002373,-0.000
 01411,-0.00007696,-0.00286971,0.00000692,0.00000250,0.00052081,0.00000
 064,-0.00000020,0.00001847,-0.00000006,-0.00000043,-0.00002191,0.00000
 014,-0.00000005,0.00000128,-0.00000034,0.00000017,-0.00000357,-0.00030
 494,-0.00569799,0.02599698,0.00009369,-0.00015338,0.00000170,-0.000068
 25,0.00011947,-0.00000161,0.00010843,-0.00019429,0.00000242,-0.0000341
 8,0.00033402,-0.00000422,0.00114243,-0.00087787,0.00000576,-0.00027375
 ,-0.00015441,0.00000577,0.00102992,0.00143368,-0.00003372,-0.00466117,
 0.00148329,0.00005363,0.00648664,0.02763587,-0.00048426,-0.00110749,0.
 00353260,-0.00007485,-0.00115309,0.00011761,-0.00000050,-0.00284938,-0
 .00131739,0.00009919,-0.00031724,-0.02625936,0.00048584,-0.05522186,-0
 .01041058,0.00031783,-0.00064784,0.00009352,0.00000351,0.00077658,-0.0
 0291505,0.00003694,-0.00102997,-0.00144283,0.00003622,0.00127628,-0.00
 200070,-0.00001747,0.00003017,-0.00000967,-0.00000011,0.00000065,-0.00
 001289,0.00000021,0.00001492,-0.00000554,-0.00000015,-0.00010841,0.000
 00507,0.00000089,0.00007906,0.00002762,-0.00000383,0.05677923,-0.00006
 806,0.00004876,-0.00000040,0.00006468,-0.00002621,-0.00000049,-0.00000
 993,0.00003818,-0.00000036,0.00018051,-0.00003511,0.00000139,0.0001061
 3,0.00000361,-0.00000037,0.00003312,-0.00005653,0.00000250,-0.00083237
 ,-0.00044944,0.00001224,0.00286154,0.00036534,0.00005621,0.00119932,-0
 .01428868,0.00030288,-0.00159513,-0.00302657,0.00001413,0.00014787,0.0
 0064314,-0.00002901,-0.00197892,0.00066172,0.00011698,0.00155049,-0.01
 095784,0.00025271,-0.01079037,-0.33077006,0.00505422,0.00032714,-0.000
 34665,0.00000269,-0.00242440,0.00170660,-0.00002275,-0.00012167,-0.000
 10516,0.00000905,0.00164716,0.00056114,-0.00011133,-0.00001088,-0.0000
 2150,0.00000040,0.00001595,-0.00000423,-0.00000004,0.00002470,0.000003
 46,-0.00000053,-0.00000777,0.00003731,-0.00000026,0.00000368,-0.000106
 48,-0.00000377,0.01002730,0.35446695,0.00000017,0.00000024,-0.00001123
 ,-0.00000062,-0.00000085,-0.00002135,-0.00000073,0.00000101,0.00000925
 ,-0.00000132,0.00000041,0.00014338,-0.00001093,0.00000750,0.00003162,0
 .00000262,0.00000406,0.00010812,0.00000473,-0.00000700,-0.00014112,0.0
 0003043,0.00006749,0.00504802,-0.00003684,0.00008858,0.00424644,0.0000
 1098,-0.00002851,-0.00299487,-0.00000123,-0.00002836,-0.00099340,0.000
 10948,0.00010986,0.00657883,0.00001122,0.00047872,0.00466049,0.0003273
 4,0.00505485,-0.03754529,-0.00000054,0.00000517,-0.00002493,0.00002854
 ,-0.00001745,-0.00072999,0.00001369,0.00001899,0.00038700,-0.00008333,
 -0.00009461,-0.00545907,-0.00000007,0.00000040,-0.00000283,-0.00000028
 ,0.00000019,0.00000072,-0.00000067,-0.00000028,-0.00001538,0.00000120,
 -0.00000037,0.00001823,-0.00000345,-0.00000398,-0.00032801,-0.00041726
 ,-0.00563545,0.02649940,-0.00004324,-0.00003808,0.00000340,-0.00004156
 ,0.00020005,-0.00000253,0.00008431,-0.00017532,0.00000885,0.00014330,0
 .00031291,0.00003864,0.00038740,-0.00037947,-0.00018510,-0.00021839,0.
 00004509,0.00003373,-0.00044945,0.00009814,-0.00010574,0.00052683,-0.0
 0035323,-0.00013299,-0.00108480,0.00008562,0.00170056,-0.00032162,0.00
 114567,0.00006408,-0.00089979,0.00019343,0.00045497,-0.00016346,-0.002
 96317,0.00034941,-0.01960023,-0.00429359,-0.02049085,-0.00122290,0.002
 82307,-0.00056697,0.00003243,0.00009896,0.00000818,0.00003504,-0.00075
 467,0.00010635,0.00113323,0.00027668,0.00008637,-0.12188049,-0.0327911
 1,-0.11530307,-0.00000645,0.00001545,-0.00000291,-0.00001768,0.0000130
 1,-0.00000030,-0.00002756,-0.00001177,-0.00000165,0.00000885,-0.000011
 60,-0.00000808,0.00000105,0.00005801,0.00005207,0.00007576,0.00012688,
 -0.00092443,0.13764540,-0.00010722,0.00003236,0.00000109,0.00009330,-0
 .00003876,0.00000627,-0.00006751,0.00001467,0.00000001,0.00017179,-0.0
 0007908,-0.00003524,-0.00022896,0.00009997,0.00011106,0.00010751,-0.00
 000126,-0.00000871,-0.00004261,-0.00024958,-0.00000561,-0.00005629,0.0
 0017979,0.00012186,0.00061368,0.00012437,-0.00056513,0.00006565,-0.000
 73786,-0.00012702,0.00013897,0.00027207,-0.00043388,0.00087286,0.00058
 992,-0.00009286,0.00935936,0.00443092,0.01500036,0.00002162,-0.0011384
 3,0.00007835,0.00001292,0.00012732,0.00000832,-0.00008114,0.00046770,0
 .00001445,-0.00031337,-0.00096959,0.00029668,-0.03134924,-0.05999911,-
 0.04631540,0.00000564,-0.00000668,0.00000088,0.00000346,-0.00000244,-0
 .00000387,0.00000987,0.00000320,-0.00000162,-0.00000499,0.00000124,0.0
 0000160,-0.00000009,-0.00005454,-0.00002128,0.00013176,0.00027448,-0.0
 0000523,0.03353961,0.06136835,-0.00002606,-0.00001444,0.00000257,-0.00
 001189,0.00009201,-0.00000266,0.00004174,-0.00007863,0.00000626,0.0000
 8740,0.00013805,0.00000341,0.00020348,-0.00014414,-0.00000975,-0.00009
 070,0.00001326,-0.00000090,-0.00020893,0.00002301,0.00001794,0.0002391
 9,-0.00018450,0.00001373,-0.00007921,0.00016827,-0.00022122,-0.0001172
 1,0.00036348,0.00001678,-0.00011044,0.00034555,-0.00013367,-0.00118798
 ,-0.00106571,0.00065959,0.00037421,0.00182456,0.00326560,0.00081167,0.
 00036876,-0.00028174,0.00002985,0.00007485,-0.00000697,0.00001995,-0.0
 0025141,0.00002415,0.00069947,-0.00042182,0.00017170,-0.11369934,-0.04
 646570,-0.20682164,-0.00000341,0.00000649,-0.00000088,-0.00000856,0.00
 000634,-0.00000071,-0.00001118,-0.00000586,-0.00000127,0.00000510,-0.0
 0000378,-0.00000139,-0.00007988,0.00004832,0.00000367,0.00010226,0.000
 03446,0.00009292,0.12557339,0.05198416,0.22467650,-0.00004282,-0.00003
 824,-0.00000141,-0.00004175,0.00019964,-0.00000355,0.00008439,-0.00017
 512,-0.00000428,0.00014124,0.00031104,-0.00005149,0.00039137,-0.000372
 02,0.00019171,-0.00021886,0.00004344,-0.00003167,-0.00044732,0.0001031
 3,0.00011048,0.00052938,-0.00034539,0.00013685,-0.00111078,0.00003150,
 -0.00169296,-0.00032273,0.00114160,-0.00009739,-0.00091249,0.00017317,
 -0.00045193,-0.00014485,-0.00295656,-0.00023154,-0.01922444,-0.0035036
 2,0.02107976,-0.00120279,0.00281943,0.00047453,0.00003198,0.00009596,-
 0.00001214,0.00003452,-0.00075882,-0.00008118,0.00111419,0.00029484,-0
 .00010882,-0.11733662,-0.02753958,0.11461708,-0.00000638,0.00001548,0.
 00000248,-0.00001757,0.00001294,0.00000014,-0.00002738,-0.00001167,0.0
 0000247,0.00000888,-0.00001127,0.00000832,0.00000124,0.00005518,-0.000
 05448,0.00008668,0.00015548,0.00092220,0.00997439,0.00369447,-0.014663
 70,0.13267468,-0.00010668,0.00003305,-0.00000008,0.00009407,-0.0000421
 2,-0.00000628,-0.00006909,0.00001712,0.00000038,0.00017011,-0.00008278
 ,0.00003457,-0.00023811,0.00010079,-0.00011115,0.00011080,-0.00000135,
 0.00000753,-0.00003519,-0.00025068,0.00001535,-0.00006506,0.00018601,-
 0.00012619,0.00063041,0.00012719,0.00054150,0.00006895,-0.00074757,0.0
 0015199,0.00014847,0.00027308,0.00042131,0.00092235,0.00062455,0.00008
 394,0.00907527,0.00378373,-0.01520681,-0.00003097,-0.00114010,-0.00005
 505,0.00001210,0.00012465,-0.00001292,-0.00008157,0.00047722,-0.000028
 63,-0.00034507,-0.00093835,-0.00024980,-0.02614000,-0.05663139,0.04100
 503,0.00000575,-0.00000699,-0.00000079,0.00000388,-0.00000256,0.000003
 84,0.00001036,0.00000349,0.00000131,-0.00000526,0.00000133,-0.00000164
 ,0.00000334,-0.00005590,0.00002310,0.00012638,0.00027183,-0.00000239,0
 .00411974,0.00104762,-0.00671327,0.02776580,0.05758930,0.00003092,0.00
 001405,0.00000177,0.00000928,-0.00009440,0.00000049,-0.00004083,0.0000
 8147,0.00000440,-0.00009631,-0.00014078,0.00000922,-0.00020253,0.00014
 700,-0.00001060,0.00009087,-0.00001413,-0.00000170,0.00022068,-0.00001
 607,0.00001256,-0.00024822,0.00018879,0.00001346,0.00008316,-0.0001871
 0,-0.00020675,0.00011900,-0.00035925,0.00002336,0.00012105,-0.00036368
 ,-0.00013085,0.00116539,0.00111834,0.00060018,-0.00027194,-0.00178653,
 0.00352468,-0.00080002,-0.00038566,-0.00026219,-0.00003113,-0.00008096
 ,-0.00000324,-0.00001701,0.00025057,0.00001855,-0.00070138,0.00045150,
 0.00018072,0.11292826,0.04121174,-0.21456845,0.00000334,-0.00000657,-0
 .00000074,0.00000876,-0.00000652,-0.00000079,0.00001134,0.00000591,-0.
 00000175,-0.00000514,0.00000390,-0.00000153,0.00007977,-0.00004702,0.0
 0000432,-0.00010701,-0.00004548,0.00007714,0.01386568,0.00571519,-0.02
 311935,-0.12484027,-0.04606879,0.23326315,0.00005578,-0.00001065,-0.00
 000037,-0.00003293,-0.00002640,0.00000052,0.00002405,0.00003520,-0.000
 00061,-0.00011731,-0.00002760,0.00000166,0.00008647,0.00005403,-0.0000
 0147,-0.00000703,-0.00002957,0.00000031,0.00003113,0.00013440,-0.00000
 236,0.00019564,-0.00002757,-0.00000090,-0.00013901,-0.00004399,-0.0000
 0111,0.00003965,0.00024096,-0.00000444,0.00050942,0.00140339,-0.000021
 90,-0.00547972,0.00149324,0.00002569,0.00498783,0.02885833,-0.00061257
 ,0.00131573,0.00180743,-0.00004014,-0.00005712,-0.00015918,0.00000304,
 0.00013258,-0.00019862,0.00000185,0.00024390,-0.00085738,0.00001461,-0
 .05903182,-0.05863553,0.00121528,-0.00000022,-0.00000181,0.00000005,0.
 00000455,-0.00000378,0.00000008,0.00000648,0.00000093,-0.00000008,-0.0
 0000487,0.00000324,0.00000002,-0.00032808,0.00013712,-0.00000030,-0.00
 050781,-0.00063247,0.00001910,-0.00407038,-0.01659106,0.00211077,-0.00
 401615,-0.01615076,-0.00137570,0.06615922,-0.00002505,0.00004071,-0.00
 000064,0.00004168,-0.00004941,0.00000016,-0.00001515,0.00004682,-0.000
 00030,0.00004949,-0.00012930,0.00000224,-0.00017176,0.00013672,-0.0000
 0032,0.00005587,-0.00000882,-0.00000087,0.00006506,0.00001936,-0.00000
 089,-0.00016453,0.00042349,-0.00000377,0.00072133,0.00011893,-0.000015
 50,0.00002488,-0.00062895,0.00001011,-0.00060343,-0.00091858,0.0000252
 0,0.00282815,-0.00031131,0.00000656,-0.00380590,-0.01802418,0.00034188
 ,-0.00334119,0.00076067,0.00000617,0.00006447,0.00007119,-0.00000173,-
 0.00010396,0.00052794,-0.00000953,0.00040261,-0.00011657,0.00000472,-0
 .05362044,-0.29663643,0.00527331,-0.00000454,-0.00000558,0.00000017,0.
 00001021,-0.00000410,0.00000006,0.00001303,0.00000587,-0.00000024,0.00
 000347,0.00000654,-0.00000002,0.00024298,-0.00001741,-0.00000483,0.000
 68579,0.00111192,-0.00001299,-0.00138034,-0.00575666,-0.00014231,-0.00
 120083,-0.00476115,0.00041448,0.05922810,0.32409829,0.00000035,-0.0000
 0089,-0.00000896,-0.00000093,0.00000073,-0.00001725,0.00000034,-0.0000
 0067,0.00001979,-0.00000050,0.00000293,0.00002384,0.00000305,-0.000002
 53,0.00002885,-0.00000129,-0.00000004,-0.00002499,-0.00000084,-0.00000
 144,-0.00002375,0.00000090,-0.00000653,0.00010728,-0.00001480,-0.00000
 545,-0.00020028,-0.00000095,0.00001050,-0.00005642,0.00001123,0.000007
 43,0.00034140,0.00000579,0.00000964,0.00104778,0.00002103,0.00002293,-
 0.00153394,0.00004643,-0.00003020,-0.00013712,-0.00000072,-0.00000035,
 0.00000139,0.00000054,-0.00001040,-0.00005929,-0.00000512,0.00001023,0
 .00031787,0.00111685,0.00532866,-0.04773406,0.00000011,0.00000016,0.00
 000190,-0.00000020,0.00000017,0.00000400,-0.00000033,-0.00000017,-0.00
 000231,0.00000004,-0.00000005,0.00000574,-0.00000248,-0.00000344,-0.00
 015534,-0.00000720,-0.00000960,0.00036591,-0.00462107,-0.02572444,0.00
 164731,0.00478079,0.02629396,0.00057394,-0.00133104,-0.00589115,0.0454
 6672\\-0.00001497,-0.00006578,0.00000180,-0.00002082,-0.00000377,-0.00
 000012,-0.00001203,0.00000268,-0.00000044,-0.00000810,0.00008894,0.000
 00474,0.00000170,-0.00011172,0.00000917,-0.00002349,0.00006877,-0.0000
 0044,-0.00001236,-0.00000043,-0.00001914,0.00002233,0.00009983,0.00000
 457,-0.00001331,-0.00012134,0.00000820,0.00000777,0.00013360,-0.000027
 18,0.00001224,-0.00004090,0.00000014,-0.00004506,-0.00000921,0.0000090
 7,0.00012613,-0.00000224,-0.00000054,-0.00002007,0.00007080,-0.0000094
 5,0.00001411,-0.00008669,0.00000930,-0.00000761,-0.00001605,0.00000981
 ,0.00000847,-0.00000557,-0.00000056,-0.00005078,-0.00003097,0.00001592
 ,0.00001524,0.00002253,-0.00000052,0.00000861,0.00001030,-0.00000017,0
 .00000781,-0.00001315,-0.00000005,0.00001389,-0.00002633,-0.00000029,-
 0.00000627,0.00001906,0.00000025,-0.00001469,-0.00002842,0.00000159,0.
 00000500,0.00001540,0.00000044,0.00000409,0.00000684,-0.00001727,0.000
 00216,0.00002382,0.00000119\\\@


 IT IS THE BEHAVIOR AND DISTRIBUTION OF THE ELECTRONS 
 AROUND THE NUCLEUS THAT GIVES THE FUNDAMENTAL 
 CHARACTER OF AN ATOM:  IT MUST BE THE SAME FOR MOLECULES.

                               -- C. A. COULSON, 1951
 Job cpu time:       0 days  8 hours 52 minutes  3.9 seconds.
 Elapsed time:       0 days  1 hours 42 minutes 11.5 seconds.
 File lengths (MBytes):  RWF=   1249 Int=      0 D2E=      0 Chk=     27 Scr=      1
 Normal termination of Gaussian 16 at Thu Dec 21 08:01:13 2023.
