
Running Job 1 of 1 145-an-COSMO.in
qchem 145-an-COSMO.in_143377.0 /expanse/lustre/scratch/selhajj/temp_project/qcscratch/28869711/qchem143377/ 0
/cm/shared/apps/spack/cpu/opt/spack/linux-centos8-zen2/gcc-10.2.0/qchem-5.4-akfmr7b3t57bfs6qan3padb2wnb2i7cl/exe/qcprog.exe_s 145-an-COSMO.in_143377.0 /expanse/lustre/scratch/selhajj/temp_project/qcscratch/28869711/qchem143377/
                  Welcome to Q-Chem
     A Quantum Leap Into The Future Of Chemistry


 Q-Chem 5.4, Q-Chem, Inc., Pleasanton, CA (2021)

 License issued to: University of California, San Diego (site)

 E. Epifanovsky,  A. T. B. Gilbert,  Xintian Feng,  Joonho Lee,  Yuezhi Mao,  
 N. Mardirossian,  P. Pokhilko,  A. White,  M. Wormit,  M. P. Coons,  
 A. L. Dempwolff,  Zhengting Gan,  D. Hait,  P. R. Horn,  L. D. Jacobson,  
 I. Kaliman,  J. Kussmann,  A. W. Lange,  Ka Un Lao,  D. S. Levine,  Jie Liu,  
 S. C. McKenzie,  A. F. Morrison,  K. Nanda,  F. Plasser,  D. R. Rehn,  
 M. L. Vidal,  Zhi-Qiang You,  Ying Zhu,  B. Alam,  B. Albrecht,  
 A. Aldossary,  E. Alguire,  J. H. Andersen,  D. Barton,  K. Begam,  A. Behn,  
 Y. A. Bernard,  E. J. Berquist,  H. Burton,  A. Carreras,  K. Carter-Fenk,  
 R. Chakraborty,  A. D. Chien,  K. D. Closser,  V. Cofer-Shabica,  
 S. Dasgupta,  Jia Deng,  M. de Wergifosse,  M. Diedenhofen,  Hainam Do,  
 S. Ehlert,  Po-Tung Fang,  S. Fatehi,  Qingguo Feng,  J. Gayvert,  
 Qinghui Ge,  G. Gidofalvi,  M. Goldey,  J. Gomes,  C. Gonzalez-Espinoza,  
 S. Gulania,  A. Gunina,  M. W. D. Hanson-Heine,  P. H. P. Harbach,  
 A. W. Hauser,  M. F. Herbst,  M. Hernandez Vera,  M. Hodecker,  
 Z. C. Holden,  S. Houck,  Xunkun Huang,  Kerwin Hui,  B. C. Huynh,  
 M. Ivanov,  Hyunjun Ji,  Hanjie Jiang,  B. Kaduk,  S. Kaehler,  
 K. Khistyaev,  Jaehoon Kim,  P. Klunzinger,  Z. Koczor-Benda,  
 Joong Hoon Koh,  D. Kosenkov,  L. Koulias,  T. Kowalczyk,  C. M. Krauter,  
 K. Kue,  A. Kunitsa,  T. Kus,  A. Landau,  K. V. Lawler,  D. Lefrancois,  
 S. Lehtola,  Rain Li,  Yi-Pei Li,  Jiashu Liang,  M. Liebenthal,  
 Hung-Hsuan Lin,  You-Sheng Lin,  Fenglai Liu,  Kuan-Yu Liu,  
 M. Loipersberger,  A. Luenser,  A. Manjanath,  P. Manohar,  E. Mansoor,  
 S. F. Manzer,  Shan-Ping Mao,  A. V. Marenich,  T. Markovich,  S. Mason,  
 S. A. Maurer,  P. F. McLaughlin,  M. F. S. J. Menger,  J.-M. Mewes,  
 S. A. Mewes,  P. Morgante,  J. W. Mullinax,  T. S. Nguyen-Beck,  
 K. J. Oosterbaan,  G. Paran,  Alexander C. Paul,  Suranjan K. Paul,  
 F. Pavosevic,  Zheng Pei,  S. Prager,  E. I. Proynov,  E. Ramos,  B. Rana,  
 A. E. Rask,  A. Rettig,  R. M. Richard,  F. Rob,  E. Rossomme,  T. Scheele,  
 M. Scheurer,  M. Schneider,  N. Sergueev,  S. M. Sharada,  W. Skomorowski,  
 D. W. Small,  C. J. Stein,  Yu-Chuan Su,  E. J. Sundstrom,  Zhen Tao,  
 J. Thirman,  T. Tsuchimochi,  N. M. Tubman,  S. P. Veccham,  O. Vydrov,  
 J. Wenzel,  J. Witte,  A. Yamada,  Kun Yao,  S. Yeganeh,  S. R. Yost,  
 A. Zech,  Igor Ying Zhang,  Xing Zhang,  Yu Zhang,  D. Zuev,  
 A. Aspuru-Guzik,  A. T. Bell,  N. A. Besley,  K. B. Bravaya,  B. R. Brooks,  
 D. Casanova,  Jeng-Da Chai,  S. Coriani,  C. J. Cramer,  
 A. E. DePrince, III,  R. A. DiStasio Jr.,  A. Dreuw,  B. D. Dunietz,  
 T. R. Furlani,  W. A. Goddard III,  S. Grimme,  S. Hammes-Schiffer,  
 T. Head-Gordon,  W. J. Hehre,  Chao-Ping Hsu,  T.-C. Jagau,  Yousung Jung,  
 A. Klamt,  Jing Kong,  D. S. Lambrecht,  WanZhen Liang,  N. J. Mayhall,  
 C. W. McCurdy,  J. B. Neaton,  C. Ochsenfeld,  J. A. Parkhill,  R. Peverati,  
 V. A. Rassolov,  Yihan Shao,  L. V. Slipchenko,  T. Stauch,  R. P. Steele,  
 J. E. Subotnik,  A. J. W. Thom,  A. Tkatchenko,  D. G. Truhlar,  
 T. Van Voorhis,  T. A. Wesolowski,  K. B. Whaley,  H. L. Woodcock III,  
 P. M. Zimmerman,  S. Faraji,  P. M. W. Gill,  M. Head-Gordon,  
 J. M. Herbert,  A. I. Krylov

 Contributors to earlier versions of Q-Chem not listed above: 
 R. D. Adamson,  B. Austin,  R. Baer,  J. Baker,  G. J. O. Beran,  
 K. Brandhorst,  S. T. Brown,  E. F. C. Byrd,  A. K. Chakraborty,  
 G. K. L. Chan,  Chun-Min Chang,  Yunqing Chen,  C.-L. Cheng,  
 Siu Hung Chien,  D. M. Chipman,  D. L. Crittenden,  H. Dachsel,  
 R. J. Doerksen,  A. D. Dutoi,  R. G. Edgar,  J. Fosso-Tande,  
 L. Fusti-Molnar,  D. Ghosh,  A. Ghysels,  A. Golubeva-Zadorozhnaya,  
 J. Gonthier,  M. S. Gordon,  S. R. Gwaltney,  G. Hawkins,  J. E. Herr,  
 A. Heyden,  S. Hirata,  E. G. Hohenstein,  G. Kedziora,  F. J. Keil,  
 C. Kelley,  Jihan Kim,  R. A. King,  R. Z. Khaliullin,  P. P. Korambath,  
 W. Kurlancheek,  A. Laurent,  A. M. Lee,  M. S. Lee,  S. V. Levchenko,  
 Ching Yeh Lin,  D. Liotard,  E. Livshits,  R. C. Lochan,  I. Lotan,  
 L. A. Martinez-Martinez,  P. E. Maslen,  N. Nair,  D. P. O'Neill,  
 D. Neuhauser,  E. Neuscamman,  C. M. Oana,  R. Olivares-Amaya,  R. Olson,  
 T. M. Perrine,  B. Peters,  P. A. Pieniazek,  A. Prociuk,  Y. M. Rhee,  
 J. Ritchie,  M. A. Rohrdanz,  E. Rosta,  N. J. Russ,  H. F. Schaefer III,  
 M. W. Schmidt,  N. E. Schultz,  S. Sharma,  N. Shenvi,  C. D. Sherrill,  
 A. C. Simmonett,  A. Sodt,  T. Stein,  D. Stuck,  K. S. Thanthiriwatte,  
 V. Vanovschi,  L. Vogt,  Tao Wang,  A. Warshel,  M. A. Watson,  
 C. F. Williams,  Q. Wu,  X. Xu,  Jun Yang,  W. Zhang,  Yan Zhao

 Please cite Q-Chem as follows:
 Y. Shao et al., Mol. Phys. 113, 184-215 (2015)
 DOI: 10.1080/00268976.2014.952696

 Q-Chem 5.4.0 for Intel X86 EM64T Linux

 Parts of Q-Chem use Armadillo 9.800.1 (Horizon Scraper).
 http://arma.sourceforge.net/

 Q-Chem begins on Thu Feb 22 04:37:59 2024  

 Host: 
0

     Scratch files written to /expanse/lustre/scratch/selhajj/temp_project/qcscratch/28869711/qchem143377//
 May1621 |scratch|qcdevops|jenkins|workspace|build_RNUM    
 Processing $rem in /cm/shared/apps/spack/cpu/opt/spack/linux-centos8-zen2/gcc-10.2.0/qchem-5.4-akfmr7b3t57bfs6qan3padb2wnb2i7cl/config/preferences:
 Processing $rem in /home/selhajj/.qchemrc:

 Checking the input file for inconsistencies... 
 Q-Chem warning in module libgen/CheckREMs.C, line 172:

 Found a $solvent section, which is only used for PCM and Kirkwood-Onsager solvation models

	...done.

--------------------------------------------------------------
User input:
--------------------------------------------------------------
$molecule
-2 1
C                 -4.9631230000     -0.4480770000     -0.3174340000
C                 -3.6324740000     -0.3782230000      0.3984010000
O                 -3.3833230000     -0.9510960000      1.4335880000
O                 -2.5756580000     -1.8538130000     -1.4533930000
C                 -1.3053770000     -1.7415440000     -1.3575120000
C                 -0.4313390000     -2.6769040000     -1.9588740000
C                  0.9639690000     -2.5877430000     -1.8566680000
C                  1.5550850000     -1.5762150000     -1.1443600000
O                  2.9740770000     -1.4933740000     -1.2162420000
C                  3.7208160000     -1.8173270000     -0.1464330000
C                  5.0985100000     -1.2067710000     -0.2817620000
O                  3.3805990000     -2.5289690000      0.7700870000
C                  0.7947360000     -0.5577490000     -0.4959510000
C                  1.4498660000      0.5250500000      0.2416580000
O                  2.7068450000      0.5880950000      0.4188520000
C                  0.5841440000      1.5632330000      0.7749060000
C                  1.1542120000      2.6621270000      1.4531210000
C                  0.3874600000      3.6872430000      1.9714880000
C                 -1.0259960000      3.6342200000      1.8211580000
C                 -1.6210290000      2.5777990000      1.1748280000
C                 -0.8484940000      1.5006250000      0.6296860000
C                 -1.4146400000      0.4148640000     -0.0350660000
O                 -2.8166200000      0.4830280000     -0.2426350000
C                 -0.6504060000     -0.6227050000     -0.6160900000
H                 -4.7955720000     -1.0671630000     -1.2014770000
H                 -5.2831630000      0.5469870000     -0.6395680000
H                 -5.7131970000     -0.9006770000      0.3330310000
H                 -0.8933240000     -3.4925960000     -2.5084530000
H                  1.6033340000     -3.3193530000     -2.3452390000
H                  4.9827280000     -0.1495110000     -0.0312710000
H                  5.4594390000     -1.2828060000     -1.3109710000
H                  5.7928810000     -1.6897460000      0.4073950000
H                  2.2352590000      2.6609880000      1.5472230000
H                  0.8527760000      4.5224570000      2.4891300000
H                 -1.6437990000      4.4337790000      2.2260550000
H                 -2.6992070000      2.5418660000      1.0687970000
$end
$rem
MAX_SCF_CYCLES=200
BASIS  =  6-311++G(d,p)
GUI  =  2
JOB_TYPE  =  SP
METHOD  =  B3LYP
SOLVENT_METHOD = COSMO
$end
$solvent
dielectric 37.219
opticaldielectric 1.43
$end





--------------------------------------------------------------
 ----------------------------------------------------------------
             Standard Nuclear Orientation (Angstroms)
    I     Atom           X                Y                Z
 ----------------------------------------------------------------
    1      C      -4.6507417205     1.8024145884    -0.0633866699
    2      C      -3.4666870749     1.0339127242    -0.6068437250
    3      O      -3.1789215495     0.9626255314    -1.7790130637
    4      O      -1.8720254806     2.8328767152     0.3648300283
    5      C      -0.6946402278     2.3340858242     0.3843985499
    6      C       0.4540459414     3.1504635368     0.5049162879
    7      C       1.7567789643     2.6326777071     0.5129581077
    8      C       1.9803482728     1.2855527629     0.3894232700
    9      O       3.3250275268     0.8472777668     0.5485480042
   10      C       4.0193895317     0.4100655216    -0.5162349951
   11      C       5.1895368785    -0.4296591558    -0.0528226755
   12      O       3.7915896544     0.6773901690    -1.6733156329
   13      C       0.9135865529     0.3453722612     0.2714491902
   14      C       1.1768475941    -1.0914399450     0.1619944671
   15      O       2.3464712786    -1.5829686992     0.0861755221
   16      C       0.0154563903    -1.9647608336     0.1504597506
   17      C       0.1988941453    -3.3633548688     0.0974838244
   18      C      -0.8626667195    -4.2468501126     0.0967951884
   19      C      -2.1876146206    -3.7318631276     0.1474891326
   20      C      -2.4095665061    -2.3766407084     0.1915529966
   21      C      -1.3258187728    -1.4386722857     0.1913501615
   22      C      -1.5103746447    -0.0584639884     0.2388648977
   23      O      -2.8510160183     0.3782252975     0.3978061324
   24      C      -0.4415703725     0.8653158762     0.2886656459
   25      H      -4.2351902115     2.6851499413     0.4274983258
   26      H      -5.1914501960     1.2082066707     0.6788394241
   27      H      -5.3138036620     2.0922974595    -0.8800134295
   28      H       0.2853305744     4.2210774252     0.5832851805
   29      H       2.6146543690     3.2922363362     0.6214690389
   30      H       4.7701186329    -1.4001099574     0.2233357883
   31      H       5.6595481875     0.0102317885     0.8308670644
   32      H       5.9147163813    -0.5416989896    -0.8602352536
   33      H       1.2255218255    -3.7125552990     0.0573121215
   34      H      -0.6927677051    -5.3199376981     0.0559050340
   35      H      -3.0345918752    -4.4156341858     0.1456473783
   36      H      -3.4223112835    -1.9916123988     0.2247609748
 ----------------------------------------------------------------
 Molecular Point Group                 C1    NOp =  1
 Largest Abelian Subgroup              C1    NOp =  1
 Nuclear Repulsion Energy =        2013.92014964 hartrees
 There are       85 alpha and       85 beta electrons
 Requested basis set is 6-311++G(d,p)
 There are 204 shells and 612 basis functions

 Total QAlloc Memory Limit   8000 MB
 Mega-Array Size       188 MB
 MEM_STATIC part       192 MB
 A cutoff of  1.0D-08 yielded  12990 shell pairs
 There are    123464 function pairs (    131905 Cartesian)
 Smallest overlap matrix eigenvalue = 3.10E-08

 Q-Chem warning in module stvman/mkSTV.C, line 323:

 Overlap eigenvalue is smaller than square root of threshold
 Use THRESH >= 12 to get rid of this warning

 Linear dependence detected in AO basis
 Tighter screening thresholds may be required for diffuse basis sets
 Use S2THRESH > 14 and THRESH = 14 in case of SCF convergence issues
 Number of orthogonalized atomic orbitals = 604
 Maximum deviation from orthogonality = 1.672E-10

 Scale SEOQF with 1.000000e-02/1.000000e-02/1.000000e-01

 Standard Electronic Orientation quadrupole field applied
 Nucleus-field energy     =     0.0000000024 hartrees
 Guess from superposition of atomic densities
 Warning:  Energy on first SCF cycle will be non-variational
 SAD guess density has 168.000000 electrons

 -----------------------------------------------------------------------
  General SCF calculation program by
  Eric Jon Sundstrom, Paul Horn, Yuezhi Mao, Dmitri Zuev, Alec White,
  David Stuck, Shaama M.S., Shane Yost, Joonho Lee, David Small,
  Daniel Levine, Susi Lehtola, Hugh Burton, Evgeny Epifanovsky,
  Bang C. Huynh
 -----------------------------------------------------------------------
 Exchange:     0.2000 Hartree-Fock + 0.0800 Slater + 0.7200 B88
 Correlation:  0.1900 VWN1RPA + 0.8100 LYP
 Using SG-1 standard quadrature grid
 using 8 threads for integral computing
 -------------------------------------------------------
 OpenMP Integral computing Module                
 Release: version 1.0, May 2013, Q-Chem Inc. Pittsburgh 
 -------------------------------------------------------
 A restricted SCF calculation will be
 performed using DIIS
 SCF converges when DIIS error is below 1.0e-05
 ---------------------------------------
  Cycle       Energy         DIIS error
 ---------------------------------------
    1   -1150.2195929353      2.69e-02  
    2   -1144.2180526576      3.86e-03  
    3   -1135.4569910778      1.02e-02  
    4   -1144.0102721378      4.12e-03  
    5   -1144.7382651321      1.36e-03  
    6   -1144.7898958062      1.02e-03  
    7   -1144.8383875234      3.50e-04  
    8   -1144.8410844270      2.47e-04  
    9   -1144.8437304645      7.85e-05  
   10   -1144.8439587228      2.13e-05  
   11   -1144.8439713252      8.45e-06  Convergence criterion met
 ---------------------------------------
 SCF time:   CPU 664.01s  wall 86.00s 
 SCF   energy in the final basis set =    -1144.8439713252
 Total energy in the final basis set =    -1144.8439713252
 Exchange:     0.2000 Hartree-Fock + 0.0800 Slater + 0.7200 B88
 Correlation:  0.1900 VWN1RPA + 0.8100 LYP
 Using SG-1 standard quadrature grid
 in get_qchem_info
 IBasis=      401111
 IBasis=      401111
 USING 1082 GRID
 MICHARGE=          -2
 Set epsilon to    37.2190017700195     
==== cosmo data ====
outfile: 145-an-COSMO.out.cosmo.0
phsran:    0.00000D+00
ampran:    0.10000D-04
volume:   2401.2314124
area:   1118.4064091
routf:      0.8500000
rsolv [a.u]:      2.4566438
disex:     10.0000000
disex2:   4509.2129577
fepsi:      0.9731320
eps :    37.2190018
lcavity:     1
nppa:  1082
nspa:    92
nsph:    32
maxnps:  2592
natoms:    36
Atom   Radius [a.u.] nuc. charge
    1      3.7794520    6
    2      3.7794520    6
    3      3.2503287    8
    4      3.2503287    8
    5      3.7794520    6
    6      3.7794520    6
    7      3.7794520    6
    8      3.7794520    6
    9      3.2503287    8
   10      3.7794520    6
   11      3.7794520    6
   12      3.2503287    8
   13      3.7794520    6
   14      3.7794520    6
   15      3.2503287    8
   16      3.7794520    6
   17      3.7794520    6
   18      3.7794520    6
   19      3.7794520    6
   20      3.7794520    6
   21      3.7794520    6
   22      3.7794520    6
   23      3.2503287    8
   24      3.7794520    6
   25      2.4566438    1
   26      2.4566438    1
   27      2.4566438    1
   28      2.4566438    1
   29      2.4566438    1
   30      2.4566438    1
   31      2.4566438    1
   32      2.4566438    1
   33      2.4566438    1
   34      2.4566438    1
   35      2.4566438    1
   36      2.4566438    1
=== end cosmo data ===
 number of segments:         1372
 f_epsilon=  0.973132003749614     
Ediel:   -0.2442331
 A restricted SCF calculation will be
 performed using Roothaan-Hall, DIIS
 SCF converges when DIIS error is below 1.0e-05
 ---------------------------------------
  Cycle       Energy         DIIS error
 ---------------------------------------
 number of segments:         1372
 f_epsilon=  0.973132003749614     
Ediel:   -0.2853025
    1   -1145.0882115906      3.10e-04  Roothaan Step
 ---------------------------------------
  Cycle       Energy         DIIS error
 ---------------------------------------
 number of segments:         1372
 f_epsilon=  0.973132003749614     
Ediel:   -0.2679266
    1   -1145.0990953736      2.82e-04  
 number of segments:         1372
 f_epsilon=  0.973132003749614     
Ediel:   -0.2778997
    2   -1145.0931398131      4.75e-04  
 number of segments:         1372
 f_epsilon=  0.973132003749614     
Ediel:   -0.2787676
    3   -1145.1029819236      6.68e-05  
 number of segments:         1372
 f_epsilon=  0.973132003749614     
Ediel:   -0.2788097
    4   -1145.1031530995      2.07e-05  
    5   -1145.1031779776      9.81e-06  Convergence criterion met
 ---------------------------------------
 SCF time:   CPU 402.56s  wall 54.00s 
before final oc correction, ETot:     -1145.1031779776
 number of outlayer segments:          575
SCF energy after oc correction:     -1145.1145759719
 SCF   energy in the final basis set =    -1145.1145759719
 Total energy in the final basis set =    -1145.1031779776
 
 --------------------------------------------------------------
 
                    Orbital Energies (a.u.)
 --------------------------------------------------------------
 
 Alpha MOs
 -- Occupied --
-19.1552 -19.1522 -19.1076 -19.1051 -19.0441 -19.0355 -10.2989 -10.2972
-10.2082 -10.1997 -10.1992 -10.1974 -10.1657 -10.1652 -10.1624 -10.1601
-10.1598 -10.1595 -10.1580 -10.1577 -10.1559 -10.1511 -10.1488 -10.1298
 -1.0980  -1.0957  -1.0194  -1.0174  -0.9700  -0.9582  -0.8486  -0.8218
 -0.7839  -0.7481  -0.7435  -0.7318  -0.7212  -0.6986  -0.6705  -0.6213
 -0.6089  -0.5985  -0.5934  -0.5514  -0.5221  -0.5157  -0.4957  -0.4883
 -0.4764  -0.4716  -0.4698  -0.4619  -0.4563  -0.4455  -0.4379  -0.4325
 -0.4244  -0.4113  -0.4047  -0.4010  -0.3968  -0.3901  -0.3852  -0.3767
 -0.3736  -0.3711  -0.3675  -0.3594  -0.3576  -0.3451  -0.3382  -0.3354
 -0.3211  -0.3127  -0.3023  -0.2924  -0.2818  -0.2763  -0.2741  -0.2431
 -0.2298  -0.2217  -0.2067  -0.1882  -0.1352
 -- Virtual --
 -0.0353  -0.0072   0.0008   0.0075   0.0078   0.0113   0.0141   0.0207
  0.0258   0.0281   0.0323   0.0400   0.0407   0.0437   0.0470   0.0563
  0.0575   0.0609   0.0625   0.0655   0.0689   0.0719   0.0763   0.0817
  0.0869   0.0875   0.0890   0.0924   0.1014   0.1045   0.1060   0.1080
  0.1137   0.1196   0.1205   0.1230   0.1254   0.1272   0.1281   0.1337
  0.1351   0.1365   0.1419   0.1443   0.1472   0.1511   0.1548   0.1556
  0.1580   0.1599   0.1620   0.1658   0.1726   0.1730   0.1753   0.1802
  0.1823   0.1830   0.1871   0.1900   0.1920   0.1949   0.1989   0.2019
  0.2054   0.2114   0.2154   0.2164   0.2187   0.2218   0.2261   0.2318
  0.2329   0.2357   0.2398   0.2459   0.2464   0.2504   0.2524   0.2586
  0.2606   0.2624   0.2685   0.2720   0.2739   0.2744   0.2778   0.2831
  0.2874   0.2924   0.2962   0.3016   0.3040   0.3057   0.3083   0.3107
  0.3162   0.3183   0.3207   0.3263   0.3265   0.3296   0.3328   0.3353
  0.3380   0.3406   0.3448   0.3504   0.3524   0.3548   0.3563   0.3585
  0.3636   0.3670   0.3702   0.3723   0.3793   0.3801   0.3861   0.3902
  0.3907   0.4000   0.4025   0.4058   0.4107   0.4181   0.4255   0.4277
  0.4327   0.4360   0.4441   0.4447   0.4547   0.4571   0.4591   0.4650
  0.4687   0.4915   0.4967   0.5007   0.5124   0.5182   0.5288   0.5317
  0.5438   0.5538   0.5584   0.5669   0.5677   0.5759   0.5824   0.5885
  0.5950   0.5964   0.6043   0.6088   0.6181   0.6274   0.6295   0.6336
  0.6389   0.6412   0.6440   0.6579   0.6662   0.6668   0.6690   0.6754
  0.6805   0.6820   0.6837   0.6880   0.6912   0.6979   0.6994   0.7100
  0.7149   0.7222   0.7349   0.7438   0.7497   0.7507   0.7590   0.7665
  0.7725   0.7727   0.7768   0.7817   0.7850   0.7969   0.8069   0.8148
  0.8206   0.8241   0.8443   0.8447   0.8481   0.8665   0.8759   0.8818
  0.8910   0.9034   0.9089   0.9112   0.9264   0.9333   0.9396   0.9519
  0.9548   0.9614   0.9665   0.9747   0.9762   0.9865   1.0032   1.0079
  1.0129   1.0192   1.0242   1.0273   1.0400   1.0481   1.0532   1.0651
  1.0781   1.0842   1.0966   1.1052   1.1161   1.1212   1.1313   1.1452
  1.1471   1.1587   1.1596   1.1681   1.1811   1.1840   1.1907   1.1942
  1.2097   1.2162   1.2261   1.2268   1.2434   1.2500   1.2579   1.2660
  1.2733   1.2751   1.2879   1.2934   1.3032   1.3164   1.3257   1.3377
  1.3585   1.3619   1.3709   1.3933   1.3971   1.4145   1.4354   1.4509
  1.4573   1.4697   1.4758   1.4837   1.5039   1.5062   1.5104   1.5220
  1.5271   1.5363   1.5447   1.5473   1.5496   1.5556   1.5624   1.5678
  1.5709   1.5830   1.5912   1.5956   1.6036   1.6100   1.6170   1.6261
  1.6312   1.6409   1.6634   1.6710   1.6723   1.6845   1.6893   1.6988
  1.7130   1.7216   1.7324   1.7429   1.7626   1.7791   1.7814   1.7901
  1.7955   1.8043   1.8219   1.8281   1.8469   1.8578   1.8614   1.8845
  1.8942   1.8986   1.9017   1.9108   1.9142   1.9176   1.9282   1.9308
  1.9356   1.9422   1.9577   1.9665   1.9760   1.9810   1.9839   2.0035
  2.0130   2.0211   2.0221   2.0292   2.0464   2.0753   2.0874   2.0919
  2.1045   2.1170   2.1333   2.1366   2.1479   2.1529   2.1612   2.1852
  2.2109   2.2176   2.2344   2.2906   2.2967   2.3083   2.3135   2.3273
  2.3479   2.3526   2.3711   2.3930   2.4097   2.4189   2.4257   2.4575
  2.4932   2.4989   2.5048   2.5066   2.5177   2.5422   2.5452   2.5654
  2.5833   2.5876   2.6134   2.6218   2.6462   2.6587   2.6662   2.6742
  2.6753   2.6857   2.6905   2.7165   2.7272   2.7394   2.7450   2.7463
  2.7574   2.7603   2.7715   2.7822   2.7958   2.8056   2.8145   2.8301
  2.8353   2.8457   2.8670   2.8707   2.8732   2.8839   2.8917   2.9055
  2.9102   2.9271   2.9323   2.9489   2.9625   2.9671   2.9803   2.9873
  2.9973   3.0121   3.0247   3.0367   3.0583   3.0653   3.0826   3.0855
  3.1158   3.1353   3.1526   3.1609   3.1734   3.2007   3.2188   3.2286
  3.2312   3.2459   3.2483   3.2637   3.2707   3.3033   3.3182   3.3345
  3.3512   3.3626   3.3672   3.3765   3.4023   3.4061   3.4396   3.4591
  3.4631   3.4958   3.5268   3.5606   3.5715   3.5745   3.5841   3.5982
  3.6305   3.6369   3.6853   3.7058   3.7243   3.7823   3.8183   3.8237
  3.8308   3.8635   3.8706   3.8938   3.9533   4.0566   4.0793   4.0865
  4.1042   4.1173   4.1882   4.1995   4.2083   4.2296   4.2621   4.3308
  4.3566   4.5200   4.8262   4.8505   4.8903   5.0992   5.1221   5.1388
  5.1489   5.1978   5.2163   5.2176   5.2292   5.3746   5.3912   5.4239
  5.4254   5.6962   5.7198   5.8311   5.8592   5.9381   5.9442  23.5512
 23.7373  23.8416  23.8547  23.8557  23.9179  23.9371  23.9596  23.9810
 23.9829  23.9857  23.9965  24.0230  24.0758  24.1049  24.1421  24.2023
 24.2042  49.9667  49.9887  50.0102  50.0171  50.1160  50.1362
 --------------------------------------------------------------
 
          Ground-State Mulliken Net Atomic Charges

     Atom                 Charge (a.u.)
  ----------------------------------------
      1 C                    -0.499898
      2 C                     0.122235
      3 O                    -0.347647
      4 O                    -0.625243
      5 C                    -0.381498
      6 C                    -0.281122
      7 C                     0.168925
      8 C                    -0.656625
      9 O                    -0.031267
     10 C                     0.124560
     11 C                    -0.490806
     12 O                    -0.352807
     13 C                     0.529572
     14 C                    -0.380063
     15 O                    -0.557204
     16 C                     0.385660
     17 C                     0.000956
     18 C                    -0.449540
     19 C                    -0.577867
     20 C                    -0.078139
     21 C                     0.305680
     22 C                    -0.628951
     23 O                    -0.038099
     24 C                     0.592574
     25 H                     0.206268
     26 H                     0.168006
     27 H                     0.163284
     28 H                     0.165305
     29 H                     0.193918
     30 H                     0.203657
     31 H                     0.176083
     32 H                     0.162273
     33 H                     0.157080
     34 H                     0.190715
     35 H                     0.195530
     36 H                     0.164495
  ----------------------------------------
  Sum of atomic charges =    -2.000000

 -----------------------------------------------------------------
                    Cartesian Multipole Moments
 -----------------------------------------------------------------
    Charge (ESU x 10^10)
                -9.6064
    Dipole Moment (Debye)
         X      -0.9139      Y      -5.6625      Z       3.6766
       Tot       6.8130
    Quadrupole Moments (Debye-Ang)
        XX    -175.9236     XY      15.3199     YY    -183.6971
        XZ       2.6414     YZ       2.3155     ZZ    -166.5839
    Octopole Moments (Debye-Ang^2)
       XXX     -24.6731    XXY     -22.3813    XYY      29.1403
       YYY     -55.2049    XXZ      56.6535    XYZ       6.5730
       YYZ     -10.6210    XZZ       2.7012    YZZ      -5.7157
       ZZZ      16.2117
    Hexadecapole Moments (Debye-Ang^3)
      XXXX   -5796.1274   XXXY     -26.6972   XXYY   -1753.5802
      XYYY     159.5091   YYYY   -4110.4614   XXXZ      63.7238
      XXYZ      47.0121   XYYZ      20.0810   YYYZ     -17.7473
      XXZZ   -1300.5625   XYZZ     -23.5471   YYZZ    -823.3683
      XZZZ       0.0510   YZZZ      12.4301   ZZZZ    -553.4467
 -----------------------------------------------------------------
 Total job time:  143.84s(wall), 1076.15s(cpu) 
 Thu Feb 22 04:40:23 2024

        *************************************************************
        *                                                           *
        *  Thank you very much for using Q-Chem.  Have a nice day.  *
        *                                                           *
        *************************************************************


