
Running Job 1 of 1 290-CPCM.in
qchem 290-CPCM.in_1238417.0 /expanse/lustre/scratch/selhajj/temp_project/qcscratch/31257872/qchem1238417/ 0
/cm/shared/apps/spack/cpu/opt/spack/linux-centos8-zen2/gcc-10.2.0/qchem-5.4-akfmr7b3t57bfs6qan3padb2wnb2i7cl/exe/qcprog.exe_s 290-CPCM.in_1238417.0 /expanse/lustre/scratch/selhajj/temp_project/qcscratch/31257872/qchem1238417/
                  Welcome to Q-Chem
     A Quantum Leap Into The Future Of Chemistry


 Q-Chem 5.4, Q-Chem, Inc., Pleasanton, CA (2021)

 License issued to: University of California, San Diego (site)

 E. Epifanovsky,  A. T. B. Gilbert,  Xintian Feng,  Joonho Lee,  Yuezhi Mao,  
 N. Mardirossian,  P. Pokhilko,  A. White,  M. Wormit,  M. P. Coons,  
 A. L. Dempwolff,  Zhengting Gan,  D. Hait,  P. R. Horn,  L. D. Jacobson,  
 I. Kaliman,  J. Kussmann,  A. W. Lange,  Ka Un Lao,  D. S. Levine,  Jie Liu,  
 S. C. McKenzie,  A. F. Morrison,  K. Nanda,  F. Plasser,  D. R. Rehn,  
 M. L. Vidal,  Zhi-Qiang You,  Ying Zhu,  B. Alam,  B. Albrecht,  
 A. Aldossary,  E. Alguire,  J. H. Andersen,  D. Barton,  K. Begam,  A. Behn,  
 Y. A. Bernard,  E. J. Berquist,  H. Burton,  A. Carreras,  K. Carter-Fenk,  
 R. Chakraborty,  A. D. Chien,  K. D. Closser,  V. Cofer-Shabica,  
 S. Dasgupta,  Jia Deng,  M. de Wergifosse,  M. Diedenhofen,  Hainam Do,  
 S. Ehlert,  Po-Tung Fang,  S. Fatehi,  Qingguo Feng,  J. Gayvert,  
 Qinghui Ge,  G. Gidofalvi,  M. Goldey,  J. Gomes,  C. Gonzalez-Espinoza,  
 S. Gulania,  A. Gunina,  M. W. D. Hanson-Heine,  P. H. P. Harbach,  
 A. W. Hauser,  M. F. Herbst,  M. Hernandez Vera,  M. Hodecker,  
 Z. C. Holden,  S. Houck,  Xunkun Huang,  Kerwin Hui,  B. C. Huynh,  
 M. Ivanov,  Hyunjun Ji,  Hanjie Jiang,  B. Kaduk,  S. Kaehler,  
 K. Khistyaev,  Jaehoon Kim,  P. Klunzinger,  Z. Koczor-Benda,  
 Joong Hoon Koh,  D. Kosenkov,  L. Koulias,  T. Kowalczyk,  C. M. Krauter,  
 K. Kue,  A. Kunitsa,  T. Kus,  A. Landau,  K. V. Lawler,  D. Lefrancois,  
 S. Lehtola,  Rain Li,  Yi-Pei Li,  Jiashu Liang,  M. Liebenthal,  
 Hung-Hsuan Lin,  You-Sheng Lin,  Fenglai Liu,  Kuan-Yu Liu,  
 M. Loipersberger,  A. Luenser,  A. Manjanath,  P. Manohar,  E. Mansoor,  
 S. F. Manzer,  Shan-Ping Mao,  A. V. Marenich,  T. Markovich,  S. Mason,  
 S. A. Maurer,  P. F. McLaughlin,  M. F. S. J. Menger,  J.-M. Mewes,  
 S. A. Mewes,  P. Morgante,  J. W. Mullinax,  T. S. Nguyen-Beck,  
 K. J. Oosterbaan,  G. Paran,  Alexander C. Paul,  Suranjan K. Paul,  
 F. Pavosevic,  Zheng Pei,  S. Prager,  E. I. Proynov,  E. Ramos,  B. Rana,  
 A. E. Rask,  A. Rettig,  R. M. Richard,  F. Rob,  E. Rossomme,  T. Scheele,  
 M. Scheurer,  M. Schneider,  N. Sergueev,  S. M. Sharada,  W. Skomorowski,  
 D. W. Small,  C. J. Stein,  Yu-Chuan Su,  E. J. Sundstrom,  Zhen Tao,  
 J. Thirman,  T. Tsuchimochi,  N. M. Tubman,  S. P. Veccham,  O. Vydrov,  
 J. Wenzel,  J. Witte,  A. Yamada,  Kun Yao,  S. Yeganeh,  S. R. Yost,  
 A. Zech,  Igor Ying Zhang,  Xing Zhang,  Yu Zhang,  D. Zuev,  
 A. Aspuru-Guzik,  A. T. Bell,  N. A. Besley,  K. B. Bravaya,  B. R. Brooks,  
 D. Casanova,  Jeng-Da Chai,  S. Coriani,  C. J. Cramer,  
 A. E. DePrince, III,  R. A. DiStasio Jr.,  A. Dreuw,  B. D. Dunietz,  
 T. R. Furlani,  W. A. Goddard III,  S. Grimme,  S. Hammes-Schiffer,  
 T. Head-Gordon,  W. J. Hehre,  Chao-Ping Hsu,  T.-C. Jagau,  Yousung Jung,  
 A. Klamt,  Jing Kong,  D. S. Lambrecht,  WanZhen Liang,  N. J. Mayhall,  
 C. W. McCurdy,  J. B. Neaton,  C. Ochsenfeld,  J. A. Parkhill,  R. Peverati,  
 V. A. Rassolov,  Yihan Shao,  L. V. Slipchenko,  T. Stauch,  R. P. Steele,  
 J. E. Subotnik,  A. J. W. Thom,  A. Tkatchenko,  D. G. Truhlar,  
 T. Van Voorhis,  T. A. Wesolowski,  K. B. Whaley,  H. L. Woodcock III,  
 P. M. Zimmerman,  S. Faraji,  P. M. W. Gill,  M. Head-Gordon,  
 J. M. Herbert,  A. I. Krylov

 Contributors to earlier versions of Q-Chem not listed above: 
 R. D. Adamson,  B. Austin,  R. Baer,  J. Baker,  G. J. O. Beran,  
 K. Brandhorst,  S. T. Brown,  E. F. C. Byrd,  A. K. Chakraborty,  
 G. K. L. Chan,  Chun-Min Chang,  Yunqing Chen,  C.-L. Cheng,  
 Siu Hung Chien,  D. M. Chipman,  D. L. Crittenden,  H. Dachsel,  
 R. J. Doerksen,  A. D. Dutoi,  R. G. Edgar,  J. Fosso-Tande,  
 L. Fusti-Molnar,  D. Ghosh,  A. Ghysels,  A. Golubeva-Zadorozhnaya,  
 J. Gonthier,  M. S. Gordon,  S. R. Gwaltney,  G. Hawkins,  J. E. Herr,  
 A. Heyden,  S. Hirata,  E. G. Hohenstein,  G. Kedziora,  F. J. Keil,  
 C. Kelley,  Jihan Kim,  R. A. King,  R. Z. Khaliullin,  P. P. Korambath,  
 W. Kurlancheek,  A. Laurent,  A. M. Lee,  M. S. Lee,  S. V. Levchenko,  
 Ching Yeh Lin,  D. Liotard,  E. Livshits,  R. C. Lochan,  I. Lotan,  
 L. A. Martinez-Martinez,  P. E. Maslen,  N. Nair,  D. P. O'Neill,  
 D. Neuhauser,  E. Neuscamman,  C. M. Oana,  R. Olivares-Amaya,  R. Olson,  
 T. M. Perrine,  B. Peters,  P. A. Pieniazek,  A. Prociuk,  Y. M. Rhee,  
 J. Ritchie,  M. A. Rohrdanz,  E. Rosta,  N. J. Russ,  H. F. Schaefer III,  
 M. W. Schmidt,  N. E. Schultz,  S. Sharma,  N. Shenvi,  C. D. Sherrill,  
 A. C. Simmonett,  A. Sodt,  T. Stein,  D. Stuck,  K. S. Thanthiriwatte,  
 V. Vanovschi,  L. Vogt,  Tao Wang,  A. Warshel,  M. A. Watson,  
 C. F. Williams,  Q. Wu,  X. Xu,  Jun Yang,  W. Zhang,  Yan Zhao

 Please cite Q-Chem as follows:
 Y. Shao et al., Mol. Phys. 113, 184-215 (2015)
 DOI: 10.1080/00268976.2014.952696

 Q-Chem 5.4.0 for Intel X86 EM64T Linux

 Parts of Q-Chem use Armadillo 9.800.1 (Horizon Scraper).
 http://arma.sourceforge.net/

 Q-Chem begins on Wed Jun 12 02:35:37 2024  

 Host: 
0

     Scratch files written to /expanse/lustre/scratch/selhajj/temp_project/qcscratch/31257872/qchem1238417//
 May1621 |scratch|qcdevops|jenkins|workspace|build_RNUM    
 Processing $rem in /cm/shared/apps/spack/cpu/opt/spack/linux-centos8-zen2/gcc-10.2.0/qchem-5.4-akfmr7b3t57bfs6qan3padb2wnb2i7cl/config/preferences:
 Processing $rem in /home/selhajj/.qchemrc:
 Symmetry turned off for PCM/SM12/SMD calculation

 Checking the input file for inconsistencies... 	...done.

--------------------------------------------------------------
User input:
--------------------------------------------------------------
$molecule
0 1
O                 -0.4221850000      2.1657670000      0.2518890000
C                 -0.5791540000      0.9570590000      0.1296050000
C                  0.5791790000      0.0499410000     -0.0045470000
C                  0.3833740000     -1.2909210000     -0.1308580000
O                  1.3661730000     -2.1937050000     -0.2591090000
C                 -0.9814960000     -1.9212200000     -0.1582830000
O                 -1.1019940000     -3.1237510000     -0.2824050000
C                 -2.1487860000     -1.0086770000     -0.0332660000
C                 -3.4415360000     -1.5378010000     -0.0543630000
C                 -4.5392220000     -0.6916630000      0.0645700000
C                 -4.3493900000      0.6849100000      0.2045780000
C                 -3.0629680000      1.2164150000      0.2256560000
C                 -1.9569070000      0.3733750000      0.1071960000
C                  1.9558610000      0.6864560000     -0.0383400000
H                 -3.5637230000     -2.6084270000     -0.1634180000
H                 -5.5423780000     -1.1021970000      0.0487440000
H                 -5.2061240000      1.3428470000      0.2967230000
H                 -2.8940600000      2.2806660000      0.3326930000
C                  2.9853890000     -0.0038430000      0.8244950000
C                  4.2160800000     -0.4218120000      0.4822950000
C                  4.8221740000     -0.2907680000     -0.8924460000
C                  5.1256040000     -1.0506760000      1.5093140000
H                  2.2220480000     -1.7703520000     -0.0644870000
H                  1.8319800000      1.7196330000      0.2988470000
H                  2.2903070000      0.7497900000     -1.0790760000
H                  2.6822670000     -0.1410840000      1.8615270000
H                  4.1363810000      0.1134220000     -1.6362840000
H                  5.1789950000     -1.2629120000     -1.2501710000
H                  5.6983930000      0.3663690000     -0.8538900000
H                  4.6454870000     -1.1295450000      2.4861510000
H                  6.0417870000     -0.4603290000      1.6249330000
H                  5.4374340000     -2.0534270000      1.1961010000
$end
$rem
MAX_SCF_CYCLES=200
BASIS  =  6-311++G(d,p)
GUI  =  2
JOB_TYPE  =  SP
METHOD  =  B3LYP
SOLVENT_METHOD = PCM
$end
$pcm
theory = CPCM
$end
$solvent
dielectric 37.219
opticaldielectric 1.43
$end






--------------------------------------------------------------
 ----------------------------------------------------------------
             Standard Nuclear Orientation (Angstroms)
    I     Atom           X                Y                Z
 ----------------------------------------------------------------
    1      O      -0.4221850000     2.1657670000     0.2518890000
    2      C      -0.5791540000     0.9570590000     0.1296050000
    3      C       0.5791790000     0.0499410000    -0.0045470000
    4      C       0.3833740000    -1.2909210000    -0.1308580000
    5      O       1.3661730000    -2.1937050000    -0.2591090000
    6      C      -0.9814960000    -1.9212200000    -0.1582830000
    7      O      -1.1019940000    -3.1237510000    -0.2824050000
    8      C      -2.1487860000    -1.0086770000    -0.0332660000
    9      C      -3.4415360000    -1.5378010000    -0.0543630000
   10      C      -4.5392220000    -0.6916630000     0.0645700000
   11      C      -4.3493900000     0.6849100000     0.2045780000
   12      C      -3.0629680000     1.2164150000     0.2256560000
   13      C      -1.9569070000     0.3733750000     0.1071960000
   14      C       1.9558610000     0.6864560000    -0.0383400000
   15      H      -3.5637230000    -2.6084270000    -0.1634180000
   16      H      -5.5423780000    -1.1021970000     0.0487440000
   17      H      -5.2061240000     1.3428470000     0.2967230000
   18      H      -2.8940600000     2.2806660000     0.3326930000
   19      C       2.9853890000    -0.0038430000     0.8244950000
   20      C       4.2160800000    -0.4218120000     0.4822950000
   21      C       4.8221740000    -0.2907680000    -0.8924460000
   22      C       5.1256040000    -1.0506760000     1.5093140000
   23      H       2.2220480000    -1.7703520000    -0.0644870000
   24      H       1.8319800000     1.7196330000     0.2988470000
   25      H       2.2903070000     0.7497900000    -1.0790760000
   26      H       2.6822670000    -0.1410840000     1.8615270000
   27      H       4.1363810000     0.1134220000    -1.6362840000
   28      H       5.1789950000    -1.2629120000    -1.2501710000
   29      H       5.6983930000     0.3663690000    -0.8538900000
   30      H       4.6454870000    -1.1295450000     2.4861510000
   31      H       6.0417870000    -0.4603290000     1.6249330000
   32      H       5.4374340000    -2.0534270000     1.1961010000
 ----------------------------------------------------------------
 Nuclear Repulsion Energy =        1237.88425978 hartrees
 There are       64 alpha and       64 beta electrons
 Requested basis set is 6-311++G(d,p)
 There are 178 shells and 494 basis functions

 Total QAlloc Memory Limit   8000 MB
 Mega-Array Size       188 MB
 MEM_STATIC part       192 MB
 Discretize the solute cavity surface with Lebedev spheres
	Using 110 Lebedev grid points for each H atom
	Using 194 Lebedev grid points for other atoms
	Atomic van der Waals radii will be scaled by 1.20
 Remove points where switching function is < 1.0e-08
 Keep 2068 surface tesserae and discard 2964 interior tesserae
 Molecular Surface Area = 286.476 Angst**2
 A cutoff of  1.0D-08 yielded  10698 shell pairs
 There are     84667 function pairs (     90253 Cartesian)
 Smallest overlap matrix eigenvalue = 1.72E-07

 Q-Chem warning in module stvman/mkSTV.C, line 323:

 Overlap eigenvalue is smaller than square root of threshold
 Use THRESH >= 12 to get rid of this warning

 Linear dependence detected in AO basis
 Tighter screening thresholds may be required for diffuse basis sets
 Use S2THRESH > 14 and THRESH = 14 in case of SCF convergence issues
 Number of orthogonalized atomic orbitals = 491
 Maximum deviation from orthogonality = 3.122E-10

 Scale SEOQF with 1.000000e-02/1.000000e-01/1.000000e-01

 Standard Electronic Orientation quadrupole field applied
 Nucleus-field energy     =     0.0000000184 hartrees
 Guess from superposition of atomic densities
 Warning:  Energy on first SCF cycle will be non-variational
 SAD guess density has 128.000000 electrons

 -----------------------------------------------------------------------
  General SCF calculation program by
  Eric Jon Sundstrom, Paul Horn, Yuezhi Mao, Dmitri Zuev, Alec White,
  David Stuck, Shaama M.S., Shane Yost, Joonho Lee, David Small,
  Daniel Levine, Susi Lehtola, Hugh Burton, Evgeny Epifanovsky,
  Bang C. Huynh
 -----------------------------------------------------------------------
 Exchange:     0.2000 Hartree-Fock + 0.0800 Slater + 0.7200 B88
 Correlation:  0.1900 VWN1RPA + 0.8100 LYP
 Using SG-1 standard quadrature grid
 using 8 threads for integral computing
 -------------------------------------------------------
 OpenMP Integral computing Module                
 Release: version 1.0, May 2013, Q-Chem Inc. Pittsburgh 
 -------------------------------------------------------
 A restricted SCF calculation will be
 performed using DIIS
 SCF converges when DIIS error is below 1.0e-05
 ---------------------------------------
  Cycle       Energy         DIIS error
 ---------------------------------------
    1    -809.9744175368      2.93e-02  
    2    -805.5919200020      3.51e-03  
    3    -805.2177111709      5.40e-03  
    4    -805.8816930054      1.30e-03  
    5    -805.9242322579      2.74e-04  
    6    -805.9258226550      1.05e-04  
    7    -805.9260931459      3.19e-05  
    8    -805.9261126523      1.04e-05  
    9    -805.9261114153      3.81e-06  Convergence criterion met
 ---------------------------------------
 SCF time:   CPU 408.49s  wall 54.00s 

************** Final PCM Free Energy Summary **************
 G_electrostatic  =      -0.02073697 hartree =     -13.01264456 kcal/mol
 G_cavitation     =       0.00000000 hartree =       0.00000000 kcal/mol
 G_dispersion     =       0.00000000 hartree =       0.00000000 kcal/mol
 G_repulsion      =       0.00000000 hartree =       0.00000000 kcal/mol
 --------------------------------------------------
 Non-electrostatic Free Energy =       0.00000000 hartree =       0.00000000 kcal/mol
 Total                         =      -0.02073697 hartree =     -13.01264456 kcal/mol
 --------------------------------------------------
 SCF Energy (H0 + V/2)                       =    -805.92611142 
 Solute Internal Energy (H0)                 =    -805.90537445 
 Total Free Energy (H0 + V/2 + non-elec)     =    -805.92611142 hartree
                                             = -505726.26783931 kcal/mol
***********************************************************

 SCF   energy in the final basis set =     -805.9261114153
 Total energy in the final basis set =     -805.9261114153
 
 --------------------------------------------------------------
 
                    Orbital Energies (a.u.)
 --------------------------------------------------------------
 
 Alpha MOs
 -- Occupied --
-19.1772 -19.1406 -19.1291 -10.2892 -10.2809 -10.2702 -10.2075 -10.2069
-10.2059 -10.1973 -10.1964 -10.1954 -10.1952 -10.1915 -10.1855 -10.1738
-10.1644 -10.1629  -1.1012  -1.0687  -1.0627  -0.8897  -0.8431  -0.8216
 -0.7838  -0.7774  -0.7436  -0.6980  -0.6957  -0.6615  -0.6485  -0.6274
 -0.5902  -0.5789  -0.5476  -0.5272  -0.5079  -0.4995  -0.4751  -0.4662
 -0.4634  -0.4600  -0.4557  -0.4504  -0.4410  -0.4368  -0.4251  -0.4226
 -0.4108  -0.3988  -0.3925  -0.3867  -0.3802  -0.3758  -0.3741  -0.3678
 -0.3649  -0.3415  -0.2928  -0.2877  -0.2826  -0.2780  -0.2607  -0.2486
 -- Virtual --
 -0.1222  -0.0544  -0.0253  -0.0092  -0.0012   0.0014   0.0124   0.0148
  0.0157   0.0254   0.0276   0.0336   0.0365   0.0385   0.0442   0.0471
  0.0532   0.0573   0.0599   0.0651   0.0668   0.0702   0.0781   0.0816
  0.0878   0.0904   0.0932   0.0986   0.1013   0.1043   0.1055   0.1099
  0.1171   0.1191   0.1228   0.1248   0.1278   0.1312   0.1343   0.1351
  0.1365   0.1393   0.1406   0.1453   0.1482   0.1505   0.1539   0.1564
  0.1581   0.1625   0.1635   0.1733   0.1764   0.1806   0.1814   0.1863
  0.1886   0.1940   0.1950   0.1997   0.2006   0.2033   0.2060   0.2081
  0.2119   0.2125   0.2197   0.2220   0.2237   0.2269   0.2301   0.2392
  0.2411   0.2519   0.2531   0.2550   0.2562   0.2610   0.2629   0.2683
  0.2721   0.2747   0.2782   0.2795   0.2884   0.2944   0.2958   0.2993
  0.3017   0.3079   0.3118   0.3152   0.3156   0.3211   0.3268   0.3291
  0.3340   0.3397   0.3422   0.3436   0.3489   0.3560   0.3580   0.3670
  0.3686   0.3741   0.3768   0.3937   0.4042   0.4052   0.4081   0.4113
  0.4225   0.4293   0.4420   0.4493   0.4618   0.4663   0.4744   0.4853
  0.4956   0.5095   0.5246   0.5258   0.5293   0.5343   0.5382   0.5458
  0.5489   0.5621   0.5643   0.5761   0.5807   0.5901   0.5924   0.5959
  0.6072   0.6238   0.6258   0.6272   0.6363   0.6385   0.6454   0.6496
  0.6534   0.6568   0.6621   0.6662   0.6715   0.6748   0.6873   0.6896
  0.6954   0.7067   0.7104   0.7180   0.7256   0.7268   0.7408   0.7418
  0.7556   0.7733   0.7794   0.7894   0.7931   0.8056   0.8064   0.8102
  0.8267   0.8358   0.8554   0.8592   0.8667   0.8768   0.8819   0.9007
  0.9061   0.9146   0.9173   0.9316   0.9336   0.9371   0.9465   0.9621
  0.9700   0.9760   0.9796   0.9878   0.9988   1.0029   1.0186   1.0208
  1.0324   1.0594   1.0695   1.0715   1.0817   1.0889   1.0929   1.1026
  1.1138   1.1208   1.1378   1.1490   1.1655   1.1981   1.2019   1.2122
  1.2179   1.2346   1.2397   1.2440   1.2713   1.2778   1.3084   1.3135
  1.3256   1.3540   1.3758   1.3824   1.3990   1.4140   1.4250   1.4341
  1.4573   1.4664   1.4722   1.4810   1.4841   1.4846   1.4994   1.5038
  1.5159   1.5257   1.5300   1.5474   1.5581   1.5798   1.5922   1.6005
  1.6053   1.6140   1.6242   1.6349   1.6472   1.6523   1.6620   1.6766
  1.6843   1.6997   1.7023   1.7167   1.7284   1.7314   1.7387   1.7468
  1.7562   1.7647   1.7766   1.7903   1.8043   1.8101   1.8187   1.8291
  1.8499   1.8540   1.8635   1.8907   1.8923   1.9119   1.9192   1.9248
  1.9297   1.9498   1.9600   1.9643   1.9700   1.9813   2.0005   2.0157
  2.0231   2.0346   2.0571   2.0661   2.0897   2.1038   2.1192   2.1313
  2.1487   2.1528   2.1784   2.2068   2.2300   2.2375   2.2545   2.2774
  2.2867   2.3103   2.3152   2.3449   2.3551   2.3757   2.3833   2.4246
  2.4467   2.4626   2.4763   2.4804   2.4906   2.5052   2.5169   2.5306
  2.5403   2.5496   2.5649   2.5977   2.6143   2.6185   2.6234   2.6317
  2.6466   2.6539   2.6770   2.6891   2.7101   2.7135   2.7292   2.7389
  2.7479   2.7539   2.7576   2.7648   2.7753   2.7925   2.8148   2.8228
  2.8265   2.8388   2.8525   2.8647   2.8751   2.8863   2.8971   2.9142
  2.9176   2.9218   2.9287   2.9566   2.9872   3.0150   3.0375   3.0480
  3.0600   3.0740   3.0887   3.0938   3.1166   3.1510   3.1661   3.1795
  3.1940   3.2167   3.2273   3.2349   3.2893   3.3287   3.3425   3.3540
  3.3949   3.4003   3.4448   3.4664   3.5240   3.5300   3.5474   3.5812
  3.5908   3.6566   3.6919   3.7638   3.7866   3.8023   3.8167   3.8349
  3.8454   3.8571   3.8945   3.9068   4.0295   4.0569   4.0730   4.1700
  4.1847   4.2268   4.2528   4.2750   4.3663   4.4695   4.7350   4.8370
  4.9939   5.0533   5.0768   5.2113   5.2729   5.4855   5.6941   5.7861
  5.8237  23.5412  23.6929  23.7118  23.8499  23.9084  23.9197  23.9423
 23.9505  23.9571  23.9957  24.0523  24.0817  24.1238  24.1722  24.2411
 49.9241  50.0254  50.0711
 --------------------------------------------------------------
 
          Ground-State Mulliken Net Atomic Charges

     Atom                 Charge (a.u.)
  ----------------------------------------
      1 O                    -0.291973
      2 C                    -1.165541
      3 C                     1.938594
      4 C                    -0.847623
      5 O                    -0.288942
      6 C                    -0.542424
      7 O                    -0.293996
      8 C                     0.726650
      9 C                     0.099708
     10 C                    -0.373716
     11 C                    -0.462907
     12 C                     0.240378
     13 C                    -0.184546
     14 C                    -0.356599
     15 H                     0.191595
     16 H                     0.225406
     17 H                     0.223430
     18 H                     0.197049
     19 C                    -0.429048
     20 C                     0.537175
     21 C                    -0.594216
     22 C                    -0.618911
     23 H                     0.436728
     24 H                     0.216160
     25 H                     0.201075
     26 H                     0.215989
     27 H                     0.165854
     28 H                     0.166353
     29 H                     0.173043
     30 H                     0.169688
     31 H                     0.160576
     32 H                     0.164988
  ----------------------------------------
  Sum of atomic charges =     0.000000

 -----------------------------------------------------------------
                    Cartesian Multipole Moments
 -----------------------------------------------------------------
    Charge (ESU x 10^10)
                -0.0000
    Dipole Moment (Debye)
         X       1.1565      Y       1.4326      Z       0.2646
       Tot       1.8601
    Quadrupole Moments (Debye-Ang)
        XX     -67.0909     XY      -4.3745     YY    -128.8305
        XZ      -0.9500     YZ      -3.1629     ZZ    -105.7907
    Octopole Moments (Debye-Ang^2)
       XXX     -57.2045    XXY      28.5883    XYY     -11.6108
       YYY     175.4779    XXZ      -8.7563    XYZ      -4.6407
       YYZ      -7.2808    XZZ       3.8428    YZZ      42.3837
       ZZZ     -35.6623
    Hexadecapole Moments (Debye-Ang^3)
      XXXX   -4993.9418   XXXY      44.0694   XXYY   -1147.9124
      XYYY      66.2663   YYYY   -1605.7102   XXXZ    -133.4049
      XXYZ      -4.1389   XYYZ     -44.9846   YYYZ     -43.6379
      XXZZ   -1095.8325   XYZZ      30.4607   YYZZ    -285.8240
      XZZZ    -105.5067   YZZZ     -22.3418   ZZZZ    -337.6956
 -----------------------------------------------------------------
 Total job time:  63.29s(wall), 418.71s(cpu) 
 Wed Jun 12 02:36:40 2024

        *************************************************************
        *                                                           *
        *  Thank you very much for using Q-Chem.  Have a nice day.  *
        *                                                           *
        *************************************************************


