
Running Job 1 of 1 015-an-COSMO.in
qchem 015-an-COSMO.in_1126024.0 /expanse/lustre/scratch/selhajj/temp_project/qcscratch/28868491/qchem1126024/ 0
/cm/shared/apps/spack/cpu/opt/spack/linux-centos8-zen2/gcc-10.2.0/qchem-5.4-akfmr7b3t57bfs6qan3padb2wnb2i7cl/exe/qcprog.exe_s 015-an-COSMO.in_1126024.0 /expanse/lustre/scratch/selhajj/temp_project/qcscratch/28868491/qchem1126024/
                  Welcome to Q-Chem
     A Quantum Leap Into The Future Of Chemistry


 Q-Chem 5.4, Q-Chem, Inc., Pleasanton, CA (2021)

 License issued to: University of California, San Diego (site)

 E. Epifanovsky,  A. T. B. Gilbert,  Xintian Feng,  Joonho Lee,  Yuezhi Mao,  
 N. Mardirossian,  P. Pokhilko,  A. White,  M. Wormit,  M. P. Coons,  
 A. L. Dempwolff,  Zhengting Gan,  D. Hait,  P. R. Horn,  L. D. Jacobson,  
 I. Kaliman,  J. Kussmann,  A. W. Lange,  Ka Un Lao,  D. S. Levine,  Jie Liu,  
 S. C. McKenzie,  A. F. Morrison,  K. Nanda,  F. Plasser,  D. R. Rehn,  
 M. L. Vidal,  Zhi-Qiang You,  Ying Zhu,  B. Alam,  B. Albrecht,  
 A. Aldossary,  E. Alguire,  J. H. Andersen,  D. Barton,  K. Begam,  A. Behn,  
 Y. A. Bernard,  E. J. Berquist,  H. Burton,  A. Carreras,  K. Carter-Fenk,  
 R. Chakraborty,  A. D. Chien,  K. D. Closser,  V. Cofer-Shabica,  
 S. Dasgupta,  Jia Deng,  M. de Wergifosse,  M. Diedenhofen,  Hainam Do,  
 S. Ehlert,  Po-Tung Fang,  S. Fatehi,  Qingguo Feng,  J. Gayvert,  
 Qinghui Ge,  G. Gidofalvi,  M. Goldey,  J. Gomes,  C. Gonzalez-Espinoza,  
 S. Gulania,  A. Gunina,  M. W. D. Hanson-Heine,  P. H. P. Harbach,  
 A. W. Hauser,  M. F. Herbst,  M. Hernandez Vera,  M. Hodecker,  
 Z. C. Holden,  S. Houck,  Xunkun Huang,  Kerwin Hui,  B. C. Huynh,  
 M. Ivanov,  Hyunjun Ji,  Hanjie Jiang,  B. Kaduk,  S. Kaehler,  
 K. Khistyaev,  Jaehoon Kim,  P. Klunzinger,  Z. Koczor-Benda,  
 Joong Hoon Koh,  D. Kosenkov,  L. Koulias,  T. Kowalczyk,  C. M. Krauter,  
 K. Kue,  A. Kunitsa,  T. Kus,  A. Landau,  K. V. Lawler,  D. Lefrancois,  
 S. Lehtola,  Rain Li,  Yi-Pei Li,  Jiashu Liang,  M. Liebenthal,  
 Hung-Hsuan Lin,  You-Sheng Lin,  Fenglai Liu,  Kuan-Yu Liu,  
 M. Loipersberger,  A. Luenser,  A. Manjanath,  P. Manohar,  E. Mansoor,  
 S. F. Manzer,  Shan-Ping Mao,  A. V. Marenich,  T. Markovich,  S. Mason,  
 S. A. Maurer,  P. F. McLaughlin,  M. F. S. J. Menger,  J.-M. Mewes,  
 S. A. Mewes,  P. Morgante,  J. W. Mullinax,  T. S. Nguyen-Beck,  
 K. J. Oosterbaan,  G. Paran,  Alexander C. Paul,  Suranjan K. Paul,  
 F. Pavosevic,  Zheng Pei,  S. Prager,  E. I. Proynov,  E. Ramos,  B. Rana,  
 A. E. Rask,  A. Rettig,  R. M. Richard,  F. Rob,  E. Rossomme,  T. Scheele,  
 M. Scheurer,  M. Schneider,  N. Sergueev,  S. M. Sharada,  W. Skomorowski,  
 D. W. Small,  C. J. Stein,  Yu-Chuan Su,  E. J. Sundstrom,  Zhen Tao,  
 J. Thirman,  T. Tsuchimochi,  N. M. Tubman,  S. P. Veccham,  O. Vydrov,  
 J. Wenzel,  J. Witte,  A. Yamada,  Kun Yao,  S. Yeganeh,  S. R. Yost,  
 A. Zech,  Igor Ying Zhang,  Xing Zhang,  Yu Zhang,  D. Zuev,  
 A. Aspuru-Guzik,  A. T. Bell,  N. A. Besley,  K. B. Bravaya,  B. R. Brooks,  
 D. Casanova,  Jeng-Da Chai,  S. Coriani,  C. J. Cramer,  
 A. E. DePrince, III,  R. A. DiStasio Jr.,  A. Dreuw,  B. D. Dunietz,  
 T. R. Furlani,  W. A. Goddard III,  S. Grimme,  S. Hammes-Schiffer,  
 T. Head-Gordon,  W. J. Hehre,  Chao-Ping Hsu,  T.-C. Jagau,  Yousung Jung,  
 A. Klamt,  Jing Kong,  D. S. Lambrecht,  WanZhen Liang,  N. J. Mayhall,  
 C. W. McCurdy,  J. B. Neaton,  C. Ochsenfeld,  J. A. Parkhill,  R. Peverati,  
 V. A. Rassolov,  Yihan Shao,  L. V. Slipchenko,  T. Stauch,  R. P. Steele,  
 J. E. Subotnik,  A. J. W. Thom,  A. Tkatchenko,  D. G. Truhlar,  
 T. Van Voorhis,  T. A. Wesolowski,  K. B. Whaley,  H. L. Woodcock III,  
 P. M. Zimmerman,  S. Faraji,  P. M. W. Gill,  M. Head-Gordon,  
 J. M. Herbert,  A. I. Krylov

 Contributors to earlier versions of Q-Chem not listed above: 
 R. D. Adamson,  B. Austin,  R. Baer,  J. Baker,  G. J. O. Beran,  
 K. Brandhorst,  S. T. Brown,  E. F. C. Byrd,  A. K. Chakraborty,  
 G. K. L. Chan,  Chun-Min Chang,  Yunqing Chen,  C.-L. Cheng,  
 Siu Hung Chien,  D. M. Chipman,  D. L. Crittenden,  H. Dachsel,  
 R. J. Doerksen,  A. D. Dutoi,  R. G. Edgar,  J. Fosso-Tande,  
 L. Fusti-Molnar,  D. Ghosh,  A. Ghysels,  A. Golubeva-Zadorozhnaya,  
 J. Gonthier,  M. S. Gordon,  S. R. Gwaltney,  G. Hawkins,  J. E. Herr,  
 A. Heyden,  S. Hirata,  E. G. Hohenstein,  G. Kedziora,  F. J. Keil,  
 C. Kelley,  Jihan Kim,  R. A. King,  R. Z. Khaliullin,  P. P. Korambath,  
 W. Kurlancheek,  A. Laurent,  A. M. Lee,  M. S. Lee,  S. V. Levchenko,  
 Ching Yeh Lin,  D. Liotard,  E. Livshits,  R. C. Lochan,  I. Lotan,  
 L. A. Martinez-Martinez,  P. E. Maslen,  N. Nair,  D. P. O'Neill,  
 D. Neuhauser,  E. Neuscamman,  C. M. Oana,  R. Olivares-Amaya,  R. Olson,  
 T. M. Perrine,  B. Peters,  P. A. Pieniazek,  A. Prociuk,  Y. M. Rhee,  
 J. Ritchie,  M. A. Rohrdanz,  E. Rosta,  N. J. Russ,  H. F. Schaefer III,  
 M. W. Schmidt,  N. E. Schultz,  S. Sharma,  N. Shenvi,  C. D. Sherrill,  
 A. C. Simmonett,  A. Sodt,  T. Stein,  D. Stuck,  K. S. Thanthiriwatte,  
 V. Vanovschi,  L. Vogt,  Tao Wang,  A. Warshel,  M. A. Watson,  
 C. F. Williams,  Q. Wu,  X. Xu,  Jun Yang,  W. Zhang,  Yan Zhao

 Please cite Q-Chem as follows:
 Y. Shao et al., Mol. Phys. 113, 184-215 (2015)
 DOI: 10.1080/00268976.2014.952696

 Q-Chem 5.4.0 for Intel X86 EM64T Linux

 Parts of Q-Chem use Armadillo 9.800.1 (Horizon Scraper).
 http://arma.sourceforge.net/

 Q-Chem begins on Thu Feb 22 02:56:57 2024  

 Host: 
0

     Scratch files written to /expanse/lustre/scratch/selhajj/temp_project/qcscratch/28868491/qchem1126024//
 May1621 |scratch|qcdevops|jenkins|workspace|build_RNUM    
 Processing $rem in /cm/shared/apps/spack/cpu/opt/spack/linux-centos8-zen2/gcc-10.2.0/qchem-5.4-akfmr7b3t57bfs6qan3padb2wnb2i7cl/config/preferences:
 Processing $rem in /home/selhajj/.qchemrc:

 Checking the input file for inconsistencies... 
 Q-Chem warning in module libgen/CheckREMs.C, line 172:

 Found a $solvent section, which is only used for PCM and Kirkwood-Onsager solvation models

	...done.

--------------------------------------------------------------
User input:
--------------------------------------------------------------
$molecule
-2 1
C                 -1.8103790000      0.3083630000     -1.0848730000
C                 -1.1687970000      0.1327230000      0.3138680000
C                 -1.8749650000     -1.0492840000      1.0067000000
C                 -1.4408580000      1.4023570000      1.1582770000
C                  0.3553020000     -0.0695580000      0.1616190000
C                  0.9755230000     -1.2277550000      0.6261480000
C                  2.3756260000     -1.5403020000      0.5484240000
O                  2.8717960000     -2.6366990000      1.0025690000
C                  3.1089700000     -0.4894870000     -0.0862770000
C                  2.5083240000      0.6917520000     -0.5651830000
Br                 3.5749080000      2.0877770000     -1.4220530000
C                  1.1126860000      0.9895350000     -0.4805550000
O                  0.5797320000      2.0821010000     -0.9259110000
Br                 5.0314150000     -0.8060730000     -0.2498280000
H                 -2.8881020000      0.5198350000     -0.9981190000
H                 -1.6881620000     -0.6089630000     -1.6726490000
H                 -1.3123500000      1.1317640000     -1.6012960000
H                 -1.7500450000     -1.9811250000      0.4464180000
H                 -2.9506320000     -0.8375930000      1.0799560000
H                 -1.4919970000     -1.2137910000      2.0186920000
H                 -1.0542090000      1.2676870000      2.1752460000
H                 -2.5218200000      1.6043910000      1.2255490000
H                 -0.9345540000      2.2512020000      0.6937550000
H                  0.3925890000     -2.0088570000      1.1038360000
$end
$rem
MAX_SCF_CYCLES=200
BASIS  =  6-311++G(d,p)
GUI  =  2
JOB_TYPE  =  SP
METHOD  =  B3LYP
SOLVENT_METHOD = COSMO
$end
$solvent
dielectric 37.219
opticaldielectric 1.43
$end





--------------------------------------------------------------
 ----------------------------------------------------------------
             Standard Nuclear Orientation (Angstroms)
    I     Atom           X                Y                Z
 ----------------------------------------------------------------
    1      C      -3.8086985156    -0.5882715166     1.2613591491
    2      C      -3.3801017171     0.2023882498     0.0003614586
    3      C      -4.1513081628     1.5369555732     0.0011675809
    4      C      -3.8088349066    -0.5867712402    -1.2615535118
    5      C      -1.8456812549     0.3827460955     0.0002371037
    6      C      -1.2723291624     1.6528437747    -0.0006765403
    7      C       0.1312214284     1.9595369268    -0.0010045876
    8      O       0.5819231181     3.1642720020    -0.0013466080
    9      C       0.9239703461     0.7694109468    -0.0005033443
   10      C       0.3715240398    -0.5268353854     0.0003177490
   11      Br      1.5180010961    -2.1099662298    -0.0004003586
   12      C      -1.0282663464    -0.8170575631     0.0002650089
   13      O      -1.5165424889    -2.0160857658    -0.0001531266
   14      Br      2.8567545549     1.0645620665     0.0006889304
   15      H      -4.8923615044    -0.7864787686     1.2503165087
   16      H      -3.5757672131    -0.0115599962     2.1641611441
   17      H      -3.2603600925    -1.5323176925     1.2899353290
   18      H      -3.9194567105     2.1387530774     0.8854374737
   19      H      -5.2309177716     1.3327943716     0.0017263066
   20      H      -3.9205124251     2.1392879010    -0.8830178886
   21      H      -3.5759250506    -0.0089965775    -2.1636559689
   22      H      -4.8925276857    -0.7850499102    -1.2507075867
   23      H      -3.2607746660    -1.5309128167    -1.2913682565
   24      H      -1.8998641914     2.5384610680    -0.0007495989
 ----------------------------------------------------------------
 Molecular Point Group                 C1    NOp =  1
 Largest Abelian Subgroup              C1    NOp =  1
 Nuclear Repulsion Energy =        1617.73327226 hartrees
 There are       79 alpha and       79 beta electrons
 Requested basis set is 6-311++G(d,p)
 There are 160 shells and 430 basis functions

 Total QAlloc Memory Limit   8000 MB
 Mega-Array Size       188 MB
 MEM_STATIC part       192 MB
 A cutoff of  1.0D-08 yielded   8953 shell pairs
 There are     67095 function pairs (     72193 Cartesian)
 Smallest overlap matrix eigenvalue = 5.06E-07

 Q-Chem warning in module stvman/mkSTV.C, line 323:

 Overlap eigenvalue is smaller than square root of threshold
 Use THRESH >= 12 to get rid of this warning

 Linear dependence detected in AO basis
 Tighter screening thresholds may be required for diffuse basis sets
 Use S2THRESH > 14 and THRESH = 14 in case of SCF convergence issues
 Number of orthogonalized atomic orbitals = 428
 Maximum deviation from orthogonality = 8.302E-11

 Scale SEOQF with 1.000000e-02/1.000000e-01/1.000000e-01

 Standard Electronic Orientation quadrupole field applied
 Nucleus-field energy     =     0.0000000280 hartrees
 Guess from superposition of atomic densities
 Warning:  Energy on first SCF cycle will be non-variational
 SAD guess density has 156.000000 electrons

 -----------------------------------------------------------------------
  General SCF calculation program by
  Eric Jon Sundstrom, Paul Horn, Yuezhi Mao, Dmitri Zuev, Alec White,
  David Stuck, Shaama M.S., Shane Yost, Joonho Lee, David Small,
  Daniel Levine, Susi Lehtola, Hugh Burton, Evgeny Epifanovsky,
  Bang C. Huynh
 -----------------------------------------------------------------------
 Exchange:     0.2000 Hartree-Fock + 0.0800 Slater + 0.7200 B88
 Correlation:  0.1900 VWN1RPA + 0.8100 LYP
 Using SG-1 standard quadrature grid
 using 8 threads for integral computing
 -------------------------------------------------------
 OpenMP Integral computing Module                
 Release: version 1.0, May 2013, Q-Chem Inc. Pittsburgh 
 -------------------------------------------------------
 A restricted SCF calculation will be
 performed using DIIS
 SCF converges when DIIS error is below 1.0e-05
 ---------------------------------------
  Cycle       Energy         DIIS error
 ---------------------------------------
    1   -5688.3929172022      2.84e-02  
    2   -5685.4759245139      4.53e-03  
    3   -5675.6280532410      1.42e-02  
    4   -5685.6413251735      3.56e-03  
    5   -5685.9004714392      1.16e-03  
    6   -5685.9194340835      1.10e-03  
    7   -5685.9448306078      3.07e-04  
    8   -5685.9464222967      1.74e-04  
    9   -5685.9470441957      5.52e-05  
   10   -5685.9471046619      1.49e-05  
   11   -5685.9471095215      4.13e-06  Convergence criterion met
 ---------------------------------------
 SCF time:   CPU 296.36s  wall 38.00s 
 SCF   energy in the final basis set =    -5685.9471095215
 Total energy in the final basis set =    -5685.9471095215
 Exchange:     0.2000 Hartree-Fock + 0.0800 Slater + 0.7200 B88
 Correlation:  0.1900 VWN1RPA + 0.8100 LYP
 Using SG-1 standard quadrature grid
 in get_qchem_info
 IBasis=      401111
 IBasis=      401111
 USING 1082 GRID
 MICHARGE=          -2
 Set epsilon to    37.2190017700195     
==== cosmo data ====
outfile: 015-an-COSMO.out.cosmo.0
phsran:    0.00000D+00
ampran:    0.10000D-04
volume:   1805.1177797
area:    859.8595277
routf:      0.8500000
rsolv [a.u]:      2.4566438
disex:     10.0000000
disex2:   4762.0414826
fepsi:      0.9731320
eps :    37.2190018
lcavity:     1
nppa:  1082
nspa:    92
nsph:    32
maxnps:  1608
natoms:    24
Atom   Radius [a.u.] nuc. charge
    1      3.7794520    6
    2      3.7794520    6
    3      3.7794520    6
    4      3.7794520    6
    5      3.7794520    6
    6      3.7794520    6
    7      3.7794520    6
    8      3.2503287    8
    9      3.7794520    6
   10      3.7794520    6
   11      4.0818081   35
   12      3.7794520    6
   13      3.2503287    8
   14      4.0818081   35
   15      2.4566438    1
   16      2.4566438    1
   17      2.4566438    1
   18      2.4566438    1
   19      2.4566438    1
   20      2.4566438    1
   21      2.4566438    1
   22      2.4566438    1
   23      2.4566438    1
   24      2.4566438    1
=== end cosmo data ===
 number of segments:          859
 f_epsilon=  0.973132003749614     
Ediel:   -0.2617437
 A restricted SCF calculation will be
 performed using Roothaan-Hall, DIIS
 SCF converges when DIIS error is below 1.0e-05
 ---------------------------------------
  Cycle       Energy         DIIS error
 ---------------------------------------
 number of segments:          859
 f_epsilon=  0.973132003749614     
Ediel:   -0.2927786
    1   -5686.2088520706      3.84e-04  Roothaan Step
 ---------------------------------------
  Cycle       Energy         DIIS error
 ---------------------------------------
 number of segments:          859
 f_epsilon=  0.973132003749614     
Ediel:   -0.2811680
    1   -5686.2179752027      3.62e-04  
 number of segments:          859
 f_epsilon=  0.973132003749614     
Ediel:   -0.2881045
    2   -5686.2126425787      6.34e-04  
 number of segments:          859
 f_epsilon=  0.973132003749614     
Ediel:   -0.2886862
    3   -5686.2210493014      8.57e-05  
 number of segments:          859
 f_epsilon=  0.973132003749614     
Ediel:   -0.2888612
    4   -5686.2212086175      2.53e-05  
 number of segments:          859
 f_epsilon=  0.973132003749614     
Ediel:   -0.2888793
    5   -5686.2212233086      1.17e-05  
    6   -5686.2212232291      4.64e-06  Convergence criterion met
 ---------------------------------------
 SCF time:   CPU 202.25s  wall 26.00s 
before final oc correction, ETot:     -5686.2212232291
 number of outlayer segments:          389
SCF energy after oc correction:     -5686.2354961429
 SCF   energy in the final basis set =    -5686.2354961429
 Total energy in the final basis set =    -5686.2212232291
 
 --------------------------------------------------------------
 
                    Orbital Energies (a.u.)
 --------------------------------------------------------------
 
 Alpha MOs
 -- Occupied --
********-482.8068 -62.4602 -62.4596 -56.2805 -56.2799 -56.2771 -56.2768
-56.2765 -56.2762 -19.0304 -19.0227 -10.1906 -10.1898 -10.1892 -10.1877
-10.1669 -10.1451 -10.1404 -10.1333 -10.1333 -10.1318  -8.6689  -8.6683
 -6.4995  -6.4989  -6.4882  -6.4877  -6.4873  -6.4867  -2.6105  -2.6099
 -2.6075  -2.6070  -2.6068  -2.6062  -2.5979  -2.5978  -2.5972  -2.5972
 -0.9489  -0.9415  -0.8208  -0.8019  -0.7645  -0.7530  -0.6797  -0.6679
 -0.6621  -0.6533  -0.5716  -0.5410  -0.5031  -0.4589  -0.4452  -0.4181
 -0.4168  -0.4077  -0.3924  -0.3893  -0.3728  -0.3664  -0.3633  -0.3484
 -0.3480  -0.3346  -0.3270  -0.3135  -0.3130  -0.3035  -0.2978  -0.2848
 -0.2798  -0.2570  -0.2348  -0.2123  -0.2119  -0.2006  -0.1326
 -- Virtual --
 -0.0194   0.0029   0.0113   0.0183   0.0196   0.0244   0.0257   0.0393
  0.0441   0.0464   0.0493   0.0527   0.0594   0.0604   0.0659   0.0699
  0.0774   0.0790   0.0815   0.0890   0.0898   0.0939   0.1024   0.1051
  0.1052   0.1187   0.1201   0.1265   0.1298   0.1321   0.1359   0.1418
  0.1431   0.1529   0.1561   0.1568   0.1594   0.1611   0.1645   0.1666
  0.1759   0.1806   0.1853   0.1867   0.1917   0.1986   0.2008   0.2031
  0.2075   0.2094   0.2123   0.2155   0.2204   0.2212   0.2345   0.2379
  0.2410   0.2530   0.2578   0.2585   0.2689   0.2700   0.2769   0.2819
  0.2834   0.2914   0.2928   0.2959   0.3008   0.3156   0.3178   0.3279
  0.3343   0.3363   0.3444   0.3466   0.3526   0.3544   0.3608   0.3616
  0.3879   0.3914   0.4000   0.4089   0.4116   0.4219   0.4306   0.4433
  0.4452   0.4563   0.4639   0.4689   0.4769   0.4825   0.4997   0.5171
  0.5309   0.5312   0.5486   0.5507   0.5572   0.5723   0.5869   0.5930
  0.6000   0.6039   0.6055   0.6217   0.6278   0.6321   0.6331   0.6352
  0.6488   0.6546   0.6578   0.6708   0.6729   0.6736   0.6937   0.6957
  0.7081   0.7138   0.7172   0.7220   0.7241   0.7278   0.7451   0.7559
  0.7618   0.7724   0.7726   0.7856   0.8079   0.8106   0.8150   0.8281
  0.8423   0.8640   0.8671   0.8843   0.9061   0.9115   0.9174   0.9277
  0.9452   0.9680   0.9686   0.9954   1.0138   1.0148   1.0272   1.0410
  1.0504   1.0856   1.1070   1.1147   1.1403   1.1492   1.1521   1.1618
  1.2050   1.2188   1.2429   1.2472   1.2481   1.2803   1.2809   1.3065
  1.3067   1.3194   1.3260   1.3370   1.3590   1.3831   1.4682   1.4684
  1.4698   1.4738   1.4879   1.5045   1.5169   1.5487   1.5695   1.5782
  1.5913   1.6061   1.6138   1.6271   1.6450   1.6542   1.6692   1.6760
  1.7018   1.7150   1.7341   1.7349   1.7459   1.7822   1.7871   1.8034
  1.8120   1.8206   1.8355   1.8454   1.8516   1.8668   1.8742   1.8963
  1.9126   1.9447   1.9702   1.9797   1.9877   2.0090   2.0130   2.0282
  2.0529   2.0815   2.0819   2.1137   2.1362   2.1411   2.1630   2.1641
  2.1718   2.2254   2.2306   2.2536   2.2616   2.2844   2.2929   2.2975
  2.3231   2.3336   2.3558   2.4022   2.4479   2.4701   2.4906   2.5134
  2.5286   2.5409   2.5504   2.5621   2.5783   2.5866   2.6067   2.6175
  2.6403   2.6551   2.6781   2.6907   2.7145   2.7297   2.7860   2.7895
  2.8038   2.8072   2.8477   2.8541   2.8742   2.9078   2.9199   2.9386
  2.9727   2.9891   3.0085   3.0267   3.0532   3.0681   3.1096   3.1242
  3.1321   3.1356   3.1830   3.2170   3.2283   3.2393   3.2850   3.3205
  3.3486   3.3696   3.3771   3.4764   3.5326   3.5604   3.5778   3.6579
  3.7559   3.7840   3.8042   3.8219   3.8495   3.8599   3.8714   3.9184
  4.0273   4.0369   4.0437   4.0918   4.1050   4.1179   4.1386   4.1844
  4.2441   4.2684   4.2843   4.2901   4.3344   4.4077   4.4483   4.5020
  4.8383   5.1309   5.1737   5.2856   5.3647   5.7543   5.8528   6.7619
  6.8566   7.5843   7.6164   7.7002   7.7136   7.7627   7.8218  23.5283
 23.8332  23.8695  23.9337  23.9727  23.9952  24.0061  24.0214  24.0314
 24.1486  48.0249  48.1039  50.0723  50.1186 289.7829 289.8168 289.8990
289.9179 289.9813 290.04281020.83651020.9343
 --------------------------------------------------------------
 
          Ground-State Mulliken Net Atomic Charges

     Atom                 Charge (a.u.)
  ----------------------------------------
      1 C                    -0.698939
      2 C                     0.684456
      3 C                    -0.518343
      4 C                    -0.699192
      5 C                     1.100363
      6 C                    -0.530077
      7 C                    -0.771802
      8 O                    -0.686478
      9 C                     0.685008
     10 C                    -0.280979
     11 Br                   -0.259139
     12 C                    -0.683703
     13 O                    -0.606398
     14 Br                   -0.247190
     15 H                     0.142682
     16 H                     0.127263
     17 H                     0.182057
     18 H                     0.133188
     19 H                     0.169681
     20 H                     0.133221
     21 H                     0.127314
     22 H                     0.142646
     23 H                     0.182016
     24 H                     0.172344
  ----------------------------------------
  Sum of atomic charges =    -2.000000

 -----------------------------------------------------------------
                    Cartesian Multipole Moments
 -----------------------------------------------------------------
    Charge (ESU x 10^10)
                -9.6064
    Dipole Moment (Debye)
         X      -1.1667      Y      -3.8790      Z       0.0025
       Tot       4.0507
    Quadrupole Moments (Debye-Ang)
        XX    -140.9439     XY     -17.8085     YY    -177.3375
        XZ       0.0046     YZ       0.0140     ZZ    -120.0039
    Octopole Moments (Debye-Ang^2)
       XXX     153.0346    XXY      -6.8688    XYY      41.7538
       YYY    -131.3286    XXZ      -0.0080    XYZ       0.0103
       YYZ       0.0369    XZZ      53.1387    YZZ     -11.6240
       ZZZ       0.0085
    Hexadecapole Moments (Debye-Ang^3)
      XXXX   -4435.9640   XXXY     -36.2577   XXYY   -1112.5708
      XYYY    -147.5564   YYYY   -2408.9562   XXXZ       0.1149
      XXYZ       0.0206   XYYZ       0.0616   YYYZ       0.2266
      XXZZ    -817.4801   XYZZ     -10.4298   YYZZ    -381.2718
      XZZZ       0.0433   YZZZ       0.0623   ZZZZ    -346.5687
 -----------------------------------------------------------------
 Total job time:  66.46s(wall), 505.81s(cpu) 
 Thu Feb 22 02:58:04 2024

        *************************************************************
        *                                                           *
        *  Thank you very much for using Q-Chem.  Have a nice day.  *
        *                                                           *
        *************************************************************


