
Running Job 1 of 1 180-rad-COSMO.in
qchem 180-rad-COSMO.in_142497.0 /expanse/lustre/scratch/selhajj/temp_project/qcscratch/28869680/qchem142497/ 0
/cm/shared/apps/spack/cpu/opt/spack/linux-centos8-zen2/gcc-10.2.0/qchem-5.4-akfmr7b3t57bfs6qan3padb2wnb2i7cl/exe/qcprog.exe_s 180-rad-COSMO.in_142497.0 /expanse/lustre/scratch/selhajj/temp_project/qcscratch/28869680/qchem142497/
                  Welcome to Q-Chem
     A Quantum Leap Into The Future Of Chemistry


 Q-Chem 5.4, Q-Chem, Inc., Pleasanton, CA (2021)

 License issued to: University of California, San Diego (site)

 E. Epifanovsky,  A. T. B. Gilbert,  Xintian Feng,  Joonho Lee,  Yuezhi Mao,  
 N. Mardirossian,  P. Pokhilko,  A. White,  M. Wormit,  M. P. Coons,  
 A. L. Dempwolff,  Zhengting Gan,  D. Hait,  P. R. Horn,  L. D. Jacobson,  
 I. Kaliman,  J. Kussmann,  A. W. Lange,  Ka Un Lao,  D. S. Levine,  Jie Liu,  
 S. C. McKenzie,  A. F. Morrison,  K. Nanda,  F. Plasser,  D. R. Rehn,  
 M. L. Vidal,  Zhi-Qiang You,  Ying Zhu,  B. Alam,  B. Albrecht,  
 A. Aldossary,  E. Alguire,  J. H. Andersen,  D. Barton,  K. Begam,  A. Behn,  
 Y. A. Bernard,  E. J. Berquist,  H. Burton,  A. Carreras,  K. Carter-Fenk,  
 R. Chakraborty,  A. D. Chien,  K. D. Closser,  V. Cofer-Shabica,  
 S. Dasgupta,  Jia Deng,  M. de Wergifosse,  M. Diedenhofen,  Hainam Do,  
 S. Ehlert,  Po-Tung Fang,  S. Fatehi,  Qingguo Feng,  J. Gayvert,  
 Qinghui Ge,  G. Gidofalvi,  M. Goldey,  J. Gomes,  C. Gonzalez-Espinoza,  
 S. Gulania,  A. Gunina,  M. W. D. Hanson-Heine,  P. H. P. Harbach,  
 A. W. Hauser,  M. F. Herbst,  M. Hernandez Vera,  M. Hodecker,  
 Z. C. Holden,  S. Houck,  Xunkun Huang,  Kerwin Hui,  B. C. Huynh,  
 M. Ivanov,  Hyunjun Ji,  Hanjie Jiang,  B. Kaduk,  S. Kaehler,  
 K. Khistyaev,  Jaehoon Kim,  P. Klunzinger,  Z. Koczor-Benda,  
 Joong Hoon Koh,  D. Kosenkov,  L. Koulias,  T. Kowalczyk,  C. M. Krauter,  
 K. Kue,  A. Kunitsa,  T. Kus,  A. Landau,  K. V. Lawler,  D. Lefrancois,  
 S. Lehtola,  Rain Li,  Yi-Pei Li,  Jiashu Liang,  M. Liebenthal,  
 Hung-Hsuan Lin,  You-Sheng Lin,  Fenglai Liu,  Kuan-Yu Liu,  
 M. Loipersberger,  A. Luenser,  A. Manjanath,  P. Manohar,  E. Mansoor,  
 S. F. Manzer,  Shan-Ping Mao,  A. V. Marenich,  T. Markovich,  S. Mason,  
 S. A. Maurer,  P. F. McLaughlin,  M. F. S. J. Menger,  J.-M. Mewes,  
 S. A. Mewes,  P. Morgante,  J. W. Mullinax,  T. S. Nguyen-Beck,  
 K. J. Oosterbaan,  G. Paran,  Alexander C. Paul,  Suranjan K. Paul,  
 F. Pavosevic,  Zheng Pei,  S. Prager,  E. I. Proynov,  E. Ramos,  B. Rana,  
 A. E. Rask,  A. Rettig,  R. M. Richard,  F. Rob,  E. Rossomme,  T. Scheele,  
 M. Scheurer,  M. Schneider,  N. Sergueev,  S. M. Sharada,  W. Skomorowski,  
 D. W. Small,  C. J. Stein,  Yu-Chuan Su,  E. J. Sundstrom,  Zhen Tao,  
 J. Thirman,  T. Tsuchimochi,  N. M. Tubman,  S. P. Veccham,  O. Vydrov,  
 J. Wenzel,  J. Witte,  A. Yamada,  Kun Yao,  S. Yeganeh,  S. R. Yost,  
 A. Zech,  Igor Ying Zhang,  Xing Zhang,  Yu Zhang,  D. Zuev,  
 A. Aspuru-Guzik,  A. T. Bell,  N. A. Besley,  K. B. Bravaya,  B. R. Brooks,  
 D. Casanova,  Jeng-Da Chai,  S. Coriani,  C. J. Cramer,  
 A. E. DePrince, III,  R. A. DiStasio Jr.,  A. Dreuw,  B. D. Dunietz,  
 T. R. Furlani,  W. A. Goddard III,  S. Grimme,  S. Hammes-Schiffer,  
 T. Head-Gordon,  W. J. Hehre,  Chao-Ping Hsu,  T.-C. Jagau,  Yousung Jung,  
 A. Klamt,  Jing Kong,  D. S. Lambrecht,  WanZhen Liang,  N. J. Mayhall,  
 C. W. McCurdy,  J. B. Neaton,  C. Ochsenfeld,  J. A. Parkhill,  R. Peverati,  
 V. A. Rassolov,  Yihan Shao,  L. V. Slipchenko,  T. Stauch,  R. P. Steele,  
 J. E. Subotnik,  A. J. W. Thom,  A. Tkatchenko,  D. G. Truhlar,  
 T. Van Voorhis,  T. A. Wesolowski,  K. B. Whaley,  H. L. Woodcock III,  
 P. M. Zimmerman,  S. Faraji,  P. M. W. Gill,  M. Head-Gordon,  
 J. M. Herbert,  A. I. Krylov

 Contributors to earlier versions of Q-Chem not listed above: 
 R. D. Adamson,  B. Austin,  R. Baer,  J. Baker,  G. J. O. Beran,  
 K. Brandhorst,  S. T. Brown,  E. F. C. Byrd,  A. K. Chakraborty,  
 G. K. L. Chan,  Chun-Min Chang,  Yunqing Chen,  C.-L. Cheng,  
 Siu Hung Chien,  D. M. Chipman,  D. L. Crittenden,  H. Dachsel,  
 R. J. Doerksen,  A. D. Dutoi,  R. G. Edgar,  J. Fosso-Tande,  
 L. Fusti-Molnar,  D. Ghosh,  A. Ghysels,  A. Golubeva-Zadorozhnaya,  
 J. Gonthier,  M. S. Gordon,  S. R. Gwaltney,  G. Hawkins,  J. E. Herr,  
 A. Heyden,  S. Hirata,  E. G. Hohenstein,  G. Kedziora,  F. J. Keil,  
 C. Kelley,  Jihan Kim,  R. A. King,  R. Z. Khaliullin,  P. P. Korambath,  
 W. Kurlancheek,  A. Laurent,  A. M. Lee,  M. S. Lee,  S. V. Levchenko,  
 Ching Yeh Lin,  D. Liotard,  E. Livshits,  R. C. Lochan,  I. Lotan,  
 L. A. Martinez-Martinez,  P. E. Maslen,  N. Nair,  D. P. O'Neill,  
 D. Neuhauser,  E. Neuscamman,  C. M. Oana,  R. Olivares-Amaya,  R. Olson,  
 T. M. Perrine,  B. Peters,  P. A. Pieniazek,  A. Prociuk,  Y. M. Rhee,  
 J. Ritchie,  M. A. Rohrdanz,  E. Rosta,  N. J. Russ,  H. F. Schaefer III,  
 M. W. Schmidt,  N. E. Schultz,  S. Sharma,  N. Shenvi,  C. D. Sherrill,  
 A. C. Simmonett,  A. Sodt,  T. Stein,  D. Stuck,  K. S. Thanthiriwatte,  
 V. Vanovschi,  L. Vogt,  Tao Wang,  A. Warshel,  M. A. Watson,  
 C. F. Williams,  Q. Wu,  X. Xu,  Jun Yang,  W. Zhang,  Yan Zhao

 Please cite Q-Chem as follows:
 Y. Shao et al., Mol. Phys. 113, 184-215 (2015)
 DOI: 10.1080/00268976.2014.952696

 Q-Chem 5.4.0 for Intel X86 EM64T Linux

 Parts of Q-Chem use Armadillo 9.800.1 (Horizon Scraper).
 http://arma.sourceforge.net/

 Q-Chem begins on Thu Feb 22 04:35:58 2024  

 Host: 
0

     Scratch files written to /expanse/lustre/scratch/selhajj/temp_project/qcscratch/28869680/qchem142497//
 May1621 |scratch|qcdevops|jenkins|workspace|build_RNUM    
 Processing $rem in /cm/shared/apps/spack/cpu/opt/spack/linux-centos8-zen2/gcc-10.2.0/qchem-5.4-akfmr7b3t57bfs6qan3padb2wnb2i7cl/config/preferences:
 Processing $rem in /home/selhajj/.qchemrc:

 Checking the input file for inconsistencies... 
 Q-Chem warning in module libgen/CheckREMs.C, line 172:

 Found a $solvent section, which is only used for PCM and Kirkwood-Onsager solvation models

	...done.

--------------------------------------------------------------
User input:
--------------------------------------------------------------
$molecule
-1 2
C                 -1.5612120000      1.9039960000     -4.7410860000
C                 -1.5101650000      0.5445320000     -4.9704560000
C                 -1.2289750000     -0.3395530000     -3.9059060000
C                 -1.3374190000      2.4304840000     -3.4486600000
C                 -1.0560940000      1.5434180000     -2.3768470000
C                 -1.0058450000      0.1571620000     -2.6371350000
C                 -1.3960460000      3.8627950000     -3.2328540000
C                 -0.8081110000      2.0202290000     -1.0115700000
C                 -1.1772220000      4.3564310000     -1.8884170000
C                 -0.8964990000      3.4694440000     -0.7929980000
C                 -1.2619740000      5.7674060000     -1.6577800000
C                 -1.0834820000      6.2802550000     -0.3804960000
C                 -0.8184170000      5.4144580000      0.6861890000
C                 -0.7257960000      4.0538380000      0.4851050000
O                 -1.6426650000      4.6593210000     -4.2055380000
O                 -0.5341920000      1.2039010000     -0.0986370000
H                 -1.7726130000      2.6053260000     -5.5393460000
H                 -1.6842890000      0.1536170000     -5.9683600000
H                 -1.1868170000     -1.4093200000     -4.0868860000
H                 -0.7840770000     -0.4982520000     -1.8034230000
H                 -0.6844600000      5.7989810000      1.6909150000
O                 -1.5214610000      6.6156370000     -2.6707150000
O                 -0.5589980000      3.2613790000      1.6302350000
C                  0.6483120000      2.6748770000      1.8558340000
C                  0.5062240000      1.5865210000      2.8862550000
O                  1.6755950000      3.0083620000      1.3251770000
H                 -1.1547390000      7.3512960000     -0.2324430000
H                 -1.6191010000      6.0221610000     -3.4862650000
H                  0.0503900000      0.7319540000      2.3809320000
H                 -0.1558380000      1.8994500000      3.6961310000
H                  1.4868480000      1.3127940000      3.2733840000
$end
$rem
MAX_SCF_CYCLES=200
BASIS  =  6-311++G(d,p)
GUI  =  2
JOB_TYPE  =  SP
METHOD  =  B3LYP
SOLVENT_METHOD = COSMO
$end
$solvent
dielectric 37.219
opticaldielectric 1.43
$end





--------------------------------------------------------------
 ----------------------------------------------------------------
             Standard Nuclear Orientation (Angstroms)
    I     Atom           X                Y                Z
 ----------------------------------------------------------------
    1      C       3.6751162821     0.3292557078    -0.1392898376
    2      C       4.1967332432     1.6057362501    -0.0960240167
    3      C       3.3348470505     2.7144371362     0.0518791326
    4      C       2.2826289725     0.1107431850    -0.0350341109
    5      C       1.4146074766     1.2237467978     0.1152143217
    6      C       1.9716952803     2.5199649726     0.1533210745
    7      C       1.7585334938    -1.2399939652    -0.0835854820
    8      C      -0.0406952078     1.0715451872     0.2236318080
    9      C       0.3263611531    -1.4176523194     0.0444425858
   10      C      -0.5636304488    -0.3002740346     0.2021601932
   11      C      -0.1998148843    -2.7495979306     0.0275179190
   12      C      -1.5631430853    -2.9659521235     0.1719304768
   13      C      -2.4271458963    -1.8773591577     0.3336255174
   14      C      -1.9425465475    -0.5868885700     0.3458461032
   15      O       2.5460182792    -2.2403110698    -0.2271896837
   16      O      -0.7746501730     2.0842980781     0.3261568085
   17      H       4.3125110375    -0.5392520975    -0.2541606231
   18      H       5.2685699958     1.7591693763    -0.1770817092
   19      H       3.7452496158     3.7191645752     0.0838947454
   20      H       1.2875954379     3.3528651681     0.2633616406
   21      H      -3.4934333740    -2.0304695952     0.4555474565
   22      O       0.6165358264    -3.8098689622    -0.1216916772
   23      O      -2.8717571685     0.4285709031     0.6151883329
   24      C      -3.2585572127     1.2532823803    -0.3961047236
   25      C      -3.9304410847     2.4770108351     0.1673985604
   26      O      -3.1069293637     1.0122212851    -1.5653001746
   27      H      -1.9354497534    -3.9834552913     0.1577486961
   28      H       1.5454142135    -3.4121470755    -0.1983165923
   29      H      -3.1375906281     3.1226812233     0.5520004726
   30      H      -4.5906217626     2.2134200743     0.9961513400
   31      H      -4.4832754946     2.9907156604    -0.6180314048
 ----------------------------------------------------------------
 Molecular Point Group                 C1    NOp =  1
 Largest Abelian Subgroup              C1    NOp =  1
 Nuclear Repulsion Energy =        1608.98818922 hartrees
 There are       74 alpha and       73 beta electrons
 Requested basis set is 6-311++G(d,p)
 There are 176 shells and 532 basis functions

 Total QAlloc Memory Limit   8000 MB
 Mega-Array Size       188 MB
 MEM_STATIC part       192 MB
 A cutoff of  1.0D-08 yielded  10238 shell pairs
 There are     98425 function pairs (    105361 Cartesian)
 Smallest overlap matrix eigenvalue = 4.90E-08

 Q-Chem warning in module stvman/mkSTV.C, line 323:

 Overlap eigenvalue is smaller than square root of threshold
 Use THRESH >= 12 to get rid of this warning

 Linear dependence detected in AO basis
 Tighter screening thresholds may be required for diffuse basis sets
 Use S2THRESH > 14 and THRESH = 14 in case of SCF convergence issues
 Number of orthogonalized atomic orbitals = 525
 Maximum deviation from orthogonality = 2.167E-10

 Scale SEOQF with 1.000000e-02/1.000000e-01/1.000000e-01

 Standard Electronic Orientation quadrupole field applied
 Nucleus-field energy     =     0.0000000420 hartrees
 Guess from superposition of atomic densities
 Warning:  Energy on first SCF cycle will be non-variational
 SAD guess density has 146.000000 electrons

 -----------------------------------------------------------------------
  General SCF calculation program by
  Eric Jon Sundstrom, Paul Horn, Yuezhi Mao, Dmitri Zuev, Alec White,
  David Stuck, Shaama M.S., Shane Yost, Joonho Lee, David Small,
  Daniel Levine, Susi Lehtola, Hugh Burton, Evgeny Epifanovsky,
  Bang C. Huynh
 -----------------------------------------------------------------------
 Exchange:     0.2000 Hartree-Fock + 0.0800 Slater + 0.7200 B88
 Correlation:  0.1900 VWN1RPA + 0.8100 LYP
 Using SG-1 standard quadrature grid
 using 8 threads for integral computing
 -------------------------------------------------------
 OpenMP Integral computing Module                
 Release: version 1.0, May 2013, Q-Chem Inc. Pittsburgh 
 -------------------------------------------------------
 A unrestricted SCF calculation will be
 performed using DIIS
 SCF converges when DIIS error is below 1.0e-05
 ---------------------------------------
  Cycle       Energy         DIIS error
 ---------------------------------------
    1    -997.1425072801      1.47e-02  
    2    -991.8079231311      1.87e-03  
    3    -991.2639862411      3.00e-03  
    4    -992.1642717788      7.33e-04  
    5    -992.2258638327      1.54e-04  
    6    -992.2280198259      7.17e-05  
    7    -992.2285730211      2.46e-05  
    8    -992.2286399213      1.17e-05  
    9    -992.2286548958      5.50e-06  Convergence criterion met
 ---------------------------------------
 SCF time:   CPU 491.26s  wall 64.00s 
<S^2> =          0.759325851
 SCF   energy in the final basis set =     -992.2286548958
 Total energy in the final basis set =     -992.2286548958
 Exchange:     0.2000 Hartree-Fock + 0.0800 Slater + 0.7200 B88
 Correlation:  0.1900 VWN1RPA + 0.8100 LYP
 Using SG-1 standard quadrature grid
 in get_qchem_info
 IBasis=      401111
 IBasis=      401111
 USING 1082 GRID
 MICHARGE=          -1
 Set epsilon to    37.2190017700195     
==== cosmo data ====
outfile: 180-rad-COSMO.out.cosmo.0
phsran:    0.00000D+00
ampran:    0.10000D-04
volume:   2047.2723998
area:    980.3635416
routf:      0.8500000
rsolv [a.u]:      2.4566438
disex:     10.0000000
disex2:   4585.0832880
fepsi:      0.9731320
eps :    37.2190018
lcavity:     1
nppa:  1082
nspa:    92
nsph:    32
maxnps:  2252
natoms:    31
Atom   Radius [a.u.] nuc. charge
    1      3.7794520    6
    2      3.7794520    6
    3      3.7794520    6
    4      3.7794520    6
    5      3.7794520    6
    6      3.7794520    6
    7      3.7794520    6
    8      3.7794520    6
    9      3.7794520    6
   10      3.7794520    6
   11      3.7794520    6
   12      3.7794520    6
   13      3.7794520    6
   14      3.7794520    6
   15      3.2503287    8
   16      3.2503287    8
   17      2.4566438    1
   18      2.4566438    1
   19      2.4566438    1
   20      2.4566438    1
   21      2.4566438    1
   22      3.2503287    8
   23      3.2503287    8
   24      3.7794520    6
   25      3.7794520    6
   26      3.2503287    8
   27      2.4566438    1
   28      2.4566438    1
   29      2.4566438    1
   30      2.4566438    1
   31      2.4566438    1
=== end cosmo data ===
 number of segments:         1195
 f_epsilon=  0.973132003749614     
Ediel:   -0.0745489
 A unrestricted SCF calculation will be
 performed using Roothaan-Hall, DIIS
 SCF converges when DIIS error is below 1.0e-05
 ---------------------------------------
  Cycle       Energy         DIIS error
 ---------------------------------------
 number of segments:         1195
 f_epsilon=  0.973132003749614     
Ediel:   -0.0893910
    1    -992.3032158706      1.10e-04  Roothaan Step
 ---------------------------------------
  Cycle       Energy         DIIS error
 ---------------------------------------
 number of segments:         1195
 f_epsilon=  0.973132003749614     
Ediel:   -0.0832690
    1    -992.3072015142      1.05e-04  
 number of segments:         1195
 f_epsilon=  0.973132003749614     
Ediel:   -0.0869472
    2    -992.3044740738      1.88e-04  
 number of segments:         1195
 f_epsilon=  0.973132003749614     
Ediel:   -0.0873000
    3    -992.3086785324      1.86e-05  
    4    -992.3087152037      8.00e-06  Convergence criterion met
 ---------------------------------------
 SCF time:   CPU 349.64s  wall 47.00s 
<S^2> =          0.758793442
before final oc correction, ETot:      -992.3087152037
 number of outlayer segments:          520
SCF energy after oc correction:      -992.3135001040
 SCF   energy in the final basis set =     -992.3135001040
 Total energy in the final basis set =     -992.3087152037
 
 --------------------------------------------------------------
 
                    Orbital Energies (a.u.)
 --------------------------------------------------------------
 
 Alpha MOs
 -- Occupied --
-19.1724 -19.1355 -19.1217 -19.0974 -19.0836 -10.3125 -10.2410 -10.2393
-10.2370 -10.2354 -10.1904 -10.1864 -10.1803 -10.1797 -10.1788 -10.1763
-10.1758 -10.1744 -10.1732 -10.1722 -10.1696  -1.1165  -1.0617  -1.0370
 -1.0135  -1.0115  -0.8695  -0.8557  -0.7958  -0.7719  -0.7559  -0.7490
 -0.7307  -0.6820  -0.6489  -0.6362  -0.6264  -0.5795  -0.5644  -0.5463
 -0.5296  -0.5141  -0.4992  -0.4886  -0.4831  -0.4716  -0.4624  -0.4608
 -0.4406  -0.4343  -0.4290  -0.4276  -0.4181  -0.4148  -0.4109  -0.4049
 -0.4000  -0.3900  -0.3816  -0.3779  -0.3656  -0.3585  -0.3560  -0.3423
 -0.3351  -0.3237  -0.2923  -0.2783  -0.2646  -0.2620  -0.2564  -0.2455
 -0.2337  -0.1511
 -- Virtual --
 -0.0569  -0.0291  -0.0063  -0.0015   0.0024   0.0062   0.0098   0.0206
  0.0248   0.0333   0.0375   0.0432   0.0450   0.0462   0.0503   0.0541
  0.0578   0.0644   0.0661   0.0696   0.0709   0.0796   0.0841   0.0929
  0.0945   0.0959   0.1036   0.1096   0.1131   0.1162   0.1173   0.1199
  0.1221   0.1247   0.1281   0.1297   0.1314   0.1336   0.1387   0.1450
  0.1459   0.1477   0.1545   0.1586   0.1589   0.1653   0.1693   0.1714
  0.1738   0.1774   0.1803   0.1820   0.1867   0.1884   0.1938   0.1979
  0.2006   0.2082   0.2122   0.2149   0.2197   0.2249   0.2265   0.2282
  0.2309   0.2339   0.2363   0.2425   0.2458   0.2491   0.2511   0.2566
  0.2584   0.2621   0.2672   0.2721   0.2732   0.2776   0.2812   0.2863
  0.2905   0.2930   0.2958   0.2972   0.3046   0.3058   0.3112   0.3123
  0.3152   0.3209   0.3224   0.3230   0.3297   0.3358   0.3381   0.3404
  0.3432   0.3478   0.3497   0.3558   0.3590   0.3679   0.3705   0.3729
  0.3788   0.3825   0.3855   0.3932   0.3974   0.4028   0.4078   0.4183
  0.4205   0.4281   0.4332   0.4372   0.4385   0.4525   0.4679   0.4831
  0.4903   0.5040   0.5114   0.5173   0.5265   0.5362   0.5399   0.5474
  0.5557   0.5622   0.5685   0.5714   0.5754   0.5857   0.5919   0.6008
  0.6078   0.6159   0.6217   0.6237   0.6274   0.6388   0.6418   0.6470
  0.6553   0.6568   0.6607   0.6672   0.6685   0.6705   0.6738   0.6850
  0.6942   0.6964   0.7107   0.7145   0.7232   0.7334   0.7443   0.7469
  0.7532   0.7595   0.7731   0.7807   0.7879   0.7960   0.7997   0.8120
  0.8210   0.8304   0.8416   0.8618   0.8684   0.8808   0.8870   0.8962
  0.8998   0.9045   0.9175   0.9223   0.9306   0.9405   0.9499   0.9546
  0.9567   0.9622   0.9678   0.9871   0.9950   0.9974   1.0015   1.0068
  1.0133   1.0245   1.0462   1.0528   1.0644   1.0708   1.0813   1.0845
  1.0922   1.1016   1.1087   1.1288   1.1314   1.1387   1.1469   1.1536
  1.1663   1.1815   1.1854   1.2005   1.2065   1.2132   1.2192   1.2295
  1.2432   1.2483   1.2556   1.2657   1.2799   1.2853   1.3056   1.3308
  1.3387   1.3468   1.3621   1.3812   1.4020   1.4198   1.4329   1.4393
  1.4465   1.4588   1.4745   1.4846   1.5016   1.5085   1.5178   1.5215
  1.5304   1.5341   1.5354   1.5368   1.5560   1.5713   1.5765   1.5884
  1.5966   1.6021   1.6093   1.6205   1.6347   1.6560   1.6620   1.6710
  1.6773   1.6923   1.7018   1.7103   1.7175   1.7505   1.7633   1.7683
  1.7704   1.7800   1.7883   1.7976   1.8154   1.8420   1.8558   1.8727
  1.8796   1.8885   1.9018   1.9023   1.9113   1.9222   1.9244   1.9298
  1.9411   1.9559   1.9589   1.9628   1.9792   1.9893   1.9952   2.0011
  2.0100   2.0141   2.0429   2.0618   2.0794   2.0823   2.0902   2.1121
  2.1221   2.1290   2.1419   2.1549   2.1828   2.1959   2.2361   2.2740
  2.2820   2.2923   2.3242   2.3335   2.3512   2.3812   2.3895   2.3941
  2.4200   2.4601   2.4778   2.4838   2.4918   2.4979   2.5355   2.5398
  2.5769   2.6009   2.6291   2.6372   2.6404   2.6497   2.6565   2.6578
  2.6989   2.7107   2.7150   2.7293   2.7419   2.7454   2.7520   2.7593
  2.7709   2.7738   2.7930   2.7993   2.8052   2.8123   2.8266   2.8369
  2.8451   2.8576   2.8693   2.8799   2.8836   2.9054   2.9129   2.9207
  2.9406   2.9412   2.9696   3.0036   3.0090   3.0274   3.0417   3.0979
  3.1064   3.1154   3.1216   3.1316   3.1517   3.1536   3.1912   3.2021
  3.2082   3.2108   3.2223   3.2347   3.2415   3.2721   3.2919   3.3012
  3.3204   3.3457   3.3520   3.3902   3.4151   3.4269   3.4412   3.4845
  3.5116   3.5244   3.5424   3.5680   3.5757   3.5814   3.6139   3.6402
  3.6838   3.6906   3.7362   3.8108   3.8265   3.8438   3.8665   3.9158
  3.9340   4.0467   4.0615   4.0844   4.1000   4.1687   4.1864   4.2076
  4.2307   4.3016   4.3407   4.4913   4.8217   4.8378   4.8601   5.0211
  5.0710   5.0843   5.1035   5.1774   5.2077   5.2832   5.3663   5.3974
  5.5203   5.6848   5.7556   5.8267   5.8546   5.9238  23.5309  23.6876
 23.8343  23.8915  23.8982  23.9312  23.9511  23.9567  23.9662  23.9763
 23.9922  24.0464  24.0667  24.1195  24.1756  24.1926  49.9567  49.9945
 50.0072  50.0638  50.1182
 
 Beta MOs
 -- Occupied --
-19.1724 -19.1352 -19.1217 -19.0925 -19.0781 -10.3124 -10.2408 -10.2368
-10.2356 -10.2351 -10.1895 -10.1863 -10.1797 -10.1793 -10.1780 -10.1759
-10.1753 -10.1742 -10.1733 -10.1712 -10.1697  -1.1163  -1.0602  -1.0368
 -1.0053  -1.0024  -0.8668  -0.8544  -0.7919  -0.7706  -0.7539  -0.7472
 -0.7292  -0.6752  -0.6474  -0.6337  -0.6252  -0.5781  -0.5630  -0.5437
 -0.5284  -0.5127  -0.4986  -0.4878  -0.4811  -0.4704  -0.4607  -0.4601
 -0.4349  -0.4299  -0.4275  -0.4252  -0.4165  -0.4123  -0.4092  -0.3991
 -0.3964  -0.3844  -0.3784  -0.3673  -0.3636  -0.3570  -0.3485  -0.3411
 -0.3278  -0.3215  -0.2920  -0.2607  -0.2602  -0.2550  -0.2512  -0.2406
 -0.2251
 -- Virtual --
 -0.0944  -0.0458  -0.0189  -0.0050  -0.0011   0.0047   0.0063   0.0100
  0.0207   0.0249   0.0335   0.0378   0.0432   0.0452   0.0505   0.0550
  0.0578   0.0613   0.0663   0.0689   0.0706   0.0740   0.0796   0.0847
  0.0935   0.0952   0.0961   0.1039   0.1102   0.1133   0.1163   0.1177
  0.1201   0.1228   0.1250   0.1287   0.1300   0.1317   0.1363   0.1393
  0.1452   0.1462   0.1497   0.1549   0.1589   0.1591   0.1655   0.1700
  0.1715   0.1742   0.1786   0.1808   0.1826   0.1874   0.1890   0.1942
  0.1983   0.2029   0.2109   0.2127   0.2158   0.2205   0.2252   0.2277
  0.2288   0.2318   0.2349   0.2370   0.2438   0.2480   0.2495   0.2519
  0.2573   0.2591   0.2631   0.2682   0.2732   0.2738   0.2784   0.2828
  0.2870   0.2910   0.2936   0.2968   0.2981   0.3054   0.3070   0.3125
  0.3130   0.3161   0.3220   0.3235   0.3240   0.3309   0.3364   0.3390
  0.3414   0.3441   0.3491   0.3504   0.3565   0.3599   0.3684   0.3711
  0.3736   0.3794   0.3831   0.3861   0.3938   0.3980   0.4039   0.4083
  0.4190   0.4220   0.4295   0.4340   0.4378   0.4397   0.4534   0.4690
  0.4842   0.4907   0.5055   0.5126   0.5185   0.5275   0.5371   0.5407
  0.5488   0.5569   0.5645   0.5719   0.5732   0.5771   0.5865   0.5926
  0.6023   0.6091   0.6169   0.6230   0.6246   0.6284   0.6399   0.6449
  0.6486   0.6565   0.6598   0.6616   0.6683   0.6701   0.6718   0.6746
  0.6856   0.6959   0.6997   0.7126   0.7156   0.7239   0.7342   0.7451
  0.7488   0.7539   0.7615   0.7737   0.7815   0.7887   0.7965   0.8005
  0.8133   0.8230   0.8308   0.8430   0.8624   0.8692   0.8820   0.8880
  0.8969   0.9006   0.9057   0.9184   0.9237   0.9322   0.9423   0.9509
  0.9559   0.9582   0.9645   0.9696   0.9890   0.9974   1.0003   1.0027
  1.0080   1.0147   1.0255   1.0493   1.0545   1.0654   1.0725   1.0827
  1.0887   1.0971   1.1048   1.1135   1.1306   1.1328   1.1417   1.1502
  1.1551   1.1685   1.1824   1.1871   1.2031   1.2118   1.2144   1.2202
  1.2305   1.2471   1.2511   1.2573   1.2676   1.2840   1.2875   1.3065
  1.3328   1.3407   1.3480   1.3633   1.3820   1.4032   1.4216   1.4348
  1.4412   1.4480   1.4593   1.4755   1.4851   1.5051   1.5095   1.5188
  1.5225   1.5332   1.5366   1.5367   1.5388   1.5572   1.5723   1.5774
  1.5885   1.5983   1.6044   1.6106   1.6212   1.6362   1.6567   1.6635
  1.6720   1.6780   1.6934   1.7041   1.7126   1.7198   1.7518   1.7649
  1.7696   1.7719   1.7825   1.7891   1.7999   1.8174   1.8427   1.8571
  1.8744   1.8815   1.8893   1.9027   1.9047   1.9139   1.9242   1.9260
  1.9329   1.9433   1.9574   1.9605   1.9650   1.9809   1.9908   1.9979
  2.0039   2.0116   2.0151   2.0451   2.0633   2.0806   2.0835   2.0912
  2.1150   2.1242   2.1298   2.1431   2.1567   2.1840   2.1983   2.2385
  2.2756   2.2836   2.2953   2.3271   2.3369   2.3524   2.3841   2.3907
  2.3952   2.4218   2.4612   2.4788   2.4856   2.4920   2.4982   2.5356
  2.5402   2.5771   2.6012   2.6345   2.6379   2.6419   2.6512   2.6581
  2.6589   2.7035   2.7121   2.7165   2.7296   2.7428   2.7460   2.7559
  2.7611   2.7713   2.7743   2.7955   2.7999   2.8065   2.8164   2.8304
  2.8401   2.8466   2.8589   2.8743   2.8854   2.8881   2.9090   2.9163
  2.9244   2.9433   2.9460   2.9758   3.0066   3.0144   3.0305   3.0457
  3.1006   3.1078   3.1192   3.1246   3.1348   3.1541   3.1554   3.1926
  3.2033   3.2097   3.2130   3.2246   3.2375   3.2428   3.2736   3.2937
  3.3144   3.3215   3.3489   3.3631   3.3910   3.4165   3.4275   3.4421
  3.4861   3.5129   3.5262   3.5441   3.5688   3.5762   3.5825   3.6154
  3.6418   3.6854   3.6910   3.7370   3.8114   3.8279   3.8479   3.8668
  3.9181   3.9352   4.0475   4.0618   4.0856   4.1015   4.1696   4.1868
  4.2084   4.2315   4.3040   4.3436   4.4945   4.8252   4.8399   4.8614
  5.0234   5.0869   5.0900   5.1214   5.1795   5.2078   5.2867   5.3694
  5.3986   5.5209   5.6854   5.7589   5.8282   5.8587   5.9241  23.5316
 23.6882  23.8344  23.8927  23.8992  23.9324  23.9521  23.9579  23.9668
 23.9764  23.9930  24.0471  24.0675  24.1198  24.1764  24.1929  49.9568
 49.9946  50.0076  50.0687  50.1233
 --------------------------------------------------------------
 
          Ground-State Mulliken Net Atomic Charges

     Atom                 Charge (a.u.)    Spin (a.u.)
  --------------------------------------------------------
      1 C                    -0.078676       0.044526
      2 C                    -0.528940       0.019215
      3 C                    -0.431057       0.046617
      4 C                     0.089066      -0.011015
      5 C                    -0.073878       0.029793
      6 C                     0.000405       0.023896
      7 C                    -0.308122       0.146896
      8 C                    -0.211968       0.073522
      9 C                     0.780039      -0.008024
     10 C                     0.598418       0.061401
     11 C                    -0.364731       0.032084
     12 C                    -0.214815       0.069380
     13 C                     0.079771       0.046554
     14 C                    -0.385776       0.058093
     15 O                    -0.506969       0.172583
     16 O                    -0.437853       0.204203
     17 H                     0.185403      -0.001415
     18 H                     0.205501      -0.001975
     19 H                     0.210378      -0.003599
     20 H                     0.172775      -0.000642
     21 H                     0.228968      -0.004116
     22 O                    -0.420951       0.010082
     23 O                    -0.022792      -0.000025
     24 C                     0.087735      -0.000320
     25 C                    -0.503138       0.002365
     26 O                    -0.318742      -0.000468
     27 H                     0.222640      -0.005626
     28 H                     0.382039      -0.003533
     29 H                     0.207956      -0.000632
     30 H                     0.185329       0.000401
     31 H                     0.171984      -0.000220
  --------------------------------------------------------
  Sum of atomic charges =    -1.000000
  Sum of spin   charges =     1.000000

 -----------------------------------------------------------------
                    Cartesian Multipole Moments
 -----------------------------------------------------------------
    Charge (ESU x 10^10)
                -4.8032
    Dipole Moment (Debye)
         X      -1.6208      Y       3.5168      Z       2.3786
       Tot       4.5445
    Quadrupole Moments (Debye-Ang)
        XX    -127.6060     XY      15.2981     YY    -145.4792
        XZ      -7.2052     YZ       0.0332     ZZ    -133.9948
    Octopole Moments (Debye-Ang^2)
       XXX     -46.4558    XXY      43.2499    XYY     -42.6664
       YYY      85.7224    XXZ      25.2169    XYZ      -7.9523
       YYZ       5.0304    XZZ       5.6847    YZZ      -8.0917
       ZZZ       6.9478
    Hexadecapole Moments (Debye-Ang^3)
      XXXX   -4254.4169   XXXY      43.4112   XXYY   -1159.5527
      XYYY      93.4189   YYYY   -3233.9360   XXXZ     -97.3014
      XXYZ      12.2353   XYYZ      -1.4099   YYYZ     -11.3021
      XXZZ    -914.7993   XYZZ     -24.0441   YYZZ    -579.9473
      XZZZ     -26.9449   YZZZ      14.3065   ZZZZ    -298.9231
 -----------------------------------------------------------------
 Total job time:  114.59s(wall), 849.55s(cpu) 
 Thu Feb 22 04:37:52 2024

        *************************************************************
        *                                                           *
        *  Thank you very much for using Q-Chem.  Have a nice day.  *
        *                                                           *
        *************************************************************


