 Entering Gaussian System, Link 0=g16
 Input=271-an.com
 Output=271-an.log
 Initial command:
 /sysapps/ubuntu-applications/gaussian/Gaussian/AVX2/g16/l1.exe "/scratch/selhajj1/4263094/Gau-3739855.inp" -scrdir="/scratch/selhajj1/4263094/"
 Entering Link 1 = /sysapps/ubuntu-applications/gaussian/Gaussian/AVX2/g16/l1.exe PID=   3739857.
  
 Copyright (c) 1988,1990,1992,1993,1995,1998,2003,2009,2016,
            Gaussian, Inc.  All Rights Reserved.
  
 This is part of the Gaussian(R) 16 program.  It is based on
 the Gaussian(R) 09 system (copyright 2009, Gaussian, Inc.),
 the Gaussian(R) 03 system (copyright 2003, Gaussian, Inc.),
 the Gaussian(R) 98 system (copyright 1998, Gaussian, Inc.),
 the Gaussian(R) 94 system (copyright 1995, Gaussian, Inc.),
 the Gaussian 92(TM) system (copyright 1992, Gaussian, Inc.),
 the Gaussian 90(TM) system (copyright 1990, Gaussian, Inc.),
 the Gaussian 88(TM) system (copyright 1988, Gaussian, Inc.),
 the Gaussian 86(TM) system (copyright 1986, Carnegie Mellon
 University), and the Gaussian 82(TM) system (copyright 1983,
 Carnegie Mellon University). Gaussian is a federally registered
 trademark of Gaussian, Inc.
  
 This software contains proprietary and confidential information,
 including trade secrets, belonging to Gaussian, Inc.
  
 This software is provided under written license and may be
 used, copied, transmitted, or stored only in accord with that
 written license.
  
 The following legend is applicable only to US Government
 contracts under FAR:
  
                    RESTRICTED RIGHTS LEGEND
  
 Use, reproduction and disclosure by the US Government is
 subject to restrictions as set forth in subparagraphs (a)
 and (c) of the Commercial Computer Software - Restricted
 Rights clause in FAR 52.227-19.
  
 Gaussian, Inc.
 340 Quinnipiac St., Bldg. 40, Wallingford CT 06492
  
  
 ---------------------------------------------------------------
 Warning -- This program may not be used in any manner that
 competes with the business of Gaussian, Inc. or will provide
 assistance to any competitor of Gaussian, Inc.  The licensee
 of this program is prohibited from giving any competitor of
 Gaussian, Inc. access to this program.  By using this program,
 the user acknowledges that Gaussian, Inc. is engaged in the
 business of creating and licensing software in the field of
 computational chemistry and represents and warrants to the
 licensee that it is not a competitor of Gaussian, Inc. and that
 it will not use this program in any manner prohibited above.
 ---------------------------------------------------------------
  

 Cite this work as:
 Gaussian 16, Revision A.03,
 M. J. Frisch, G. W. Trucks, H. B. Schlegel, G. E. Scuseria, 
 M. A. Robb, J. R. Cheeseman, G. Scalmani, V. Barone, 
 G. A. Petersson, H. Nakatsuji, X. Li, M. Caricato, A. V. Marenich, 
 J. Bloino, B. G. Janesko, R. Gomperts, B. Mennucci, H. P. Hratchian, 
 J. V. Ortiz, A. F. Izmaylov, J. L. Sonnenberg, D. Williams-Young, 
 F. Ding, F. Lipparini, F. Egidi, J. Goings, B. Peng, A. Petrone, 
 T. Henderson, D. Ranasinghe, V. G. Zakrzewski, J. Gao, N. Rega, 
 G. Zheng, W. Liang, M. Hada, M. Ehara, K. Toyota, R. Fukuda, 
 J. Hasegawa, M. Ishida, T. Nakajima, Y. Honda, O. Kitao, H. Nakai, 
 T. Vreven, K. Throssell, J. A. Montgomery, Jr., J. E. Peralta, 
 F. Ogliaro, M. J. Bearpark, J. J. Heyd, E. N. Brothers, K. N. Kudin, 
 V. N. Staroverov, T. A. Keith, R. Kobayashi, J. Normand, 
 K. Raghavachari, A. P. Rendell, J. C. Burant, S. S. Iyengar, 
 J. Tomasi, M. Cossi, J. M. Millam, M. Klene, C. Adamo, R. Cammi, 
 J. W. Ochterski, R. L. Martin, K. Morokuma, O. Farkas, 
 J. B. Foresman, and D. J. Fox, Gaussian, Inc., Wallingford CT, 2016.
 
 ******************************************
 Gaussian 16:  ES64L-G16RevA.03 25-Dec-2016
                 8-Jan-2024 
 ******************************************
 %chk=271-an.chk
 %nproc=8
 Will use up to    8 processors via shared memory.
 %mem=30GB
 --------------------------------------
 #P UB3LYP/6-311++G(d,p) nosym opt freq
 --------------------------------------
 1/18=20,19=15,26=3,38=1/1,3;
 2/9=110,12=2,15=1,17=6,18=5,40=1/2;
 3/5=4,6=6,7=1111,11=2,25=1,30=1,71=1,74=-5,116=2/1,2,3;
 4//1;
 5/5=2,38=5/2;
 6/7=2,8=2,9=2,10=2,28=1/1;
 7/30=1/1,2,3,16;
 1/18=20,19=15,26=3/3(2);
 2/9=110,15=1/2;
 99//99;
 2/9=110,15=1/2;
 3/5=4,6=6,7=1111,11=2,25=1,30=1,71=1,74=-5,116=2/1,2,3;
 4/5=5,16=3,69=1/1;
 5/5=2,38=5/2;
 7/30=1/1,2,3,16;
 1/18=20,19=15,26=3/3(-5);
 2/9=110,15=1/2;
 6/7=2,8=2,9=2,10=2,19=2,28=1/1;
 99/9=1/99;
 Leave Link    1 at Mon Jan  8 16:49:52 2024, MaxMem=  4026531840 cpu:               0.5 elap:               0.1
 (Enter /sysapps/ubuntu-applications/gaussian/Gaussian/AVX2/g16/l101.exe)
 -------
 Reduced
 -------
 Symbolic Z-matrix:
 Charge = -2 Multiplicity = 1
 C                    -0.98669   3.92038   0.01027 
 C                    -2.16088   3.20579   0.1455 
 C                    -2.13141   1.78282   0.12876 
 C                     0.27308   3.28477  -0.14412 
 C                     0.30077   1.83265  -0.14584 
 C                    -0.91969   1.13082  -0.01476 
 C                     1.46475   4.07522  -0.30554 
 C                     2.68671   3.34278  -0.46394 
 C                     2.71507   1.93713  -0.38556 
 C                     1.5423    1.12029  -0.27626 
 O                     1.475     5.37453  -0.32221 
 O                     1.64407  -0.17692  -0.3211 
 N                     3.82363   4.11802  -0.75006 
 H                    -0.98368   5.0063    0.01321 
 H                    -3.10914   3.72906   0.26139 
 H                    -3.05397   1.21406   0.23147 
 H                    -0.86348   0.04621  -0.02784 
 H                     3.58587   5.08456  -0.53406 
 H                     4.67191   3.77683  -0.30488 
 N                     3.8599    1.1063   -0.56326 
 C                     5.16042   1.21088  -0.24516 
 C                     5.97868  -0.05143  -0.52519 
 H                     3.48003   0.15918  -0.70486 
 H                     5.37968  -0.89088  -0.88816 
 H                     6.49717  -0.35166   0.393 
 H                     6.7473    0.17997  -1.26797 
 O                     5.74008   2.20159   0.23468 
 
 ITRead=  0  0  0  0  0  0  0  0  0  0  0  0  0  0  0  0  0  0  0  0
 ITRead=  0  0  0  0  0  0  0
 MicOpt= -1 -1 -1 -1 -1 -1 -1 -1 -1 -1 -1 -1 -1 -1 -1 -1 -1 -1 -1 -1
 MicOpt= -1 -1 -1 -1 -1 -1 -1
 NAtoms=     27 NQM=       27 NQMF=       0 NMMI=      0 NMMIF=      0
                NMic=       0 NMicF=      0.
                    Isotopes and Nuclear Properties:
 (Nuclear quadrupole moments (NQMom) in fm**2, nuclear magnetic moments (NMagM)
  in nuclear magnetons)

  Atom         1           2           3           4           5           6           7           8           9          10
 IAtWgt=          12          12          12          12          12          12          12          12          12          12
 AtmWgt=  12.0000000  12.0000000  12.0000000  12.0000000  12.0000000  12.0000000  12.0000000  12.0000000  12.0000000  12.0000000
 NucSpn=           0           0           0           0           0           0           0           0           0           0
 AtZEff=  -0.0000000  -0.0000000  -0.0000000  -0.0000000  -0.0000000  -0.0000000  -0.0000000  -0.0000000  -0.0000000  -0.0000000
 NQMom=    0.0000000   0.0000000   0.0000000   0.0000000   0.0000000   0.0000000   0.0000000   0.0000000   0.0000000   0.0000000
 NMagM=    0.0000000   0.0000000   0.0000000   0.0000000   0.0000000   0.0000000   0.0000000   0.0000000   0.0000000   0.0000000
 AtZNuc=   6.0000000   6.0000000   6.0000000   6.0000000   6.0000000   6.0000000   6.0000000   6.0000000   6.0000000   6.0000000

  Atom        11          12          13          14          15          16          17          18          19          20
 IAtWgt=          16          16          14           1           1           1           1           1           1          14
 AtmWgt=  15.9949146  15.9949146  14.0030740   1.0078250   1.0078250   1.0078250   1.0078250   1.0078250   1.0078250  14.0030740
 NucSpn=           0           0           2           1           1           1           1           1           1           2
 AtZEff=  -0.0000000  -0.0000000  -0.0000000  -0.0000000  -0.0000000  -0.0000000  -0.0000000  -0.0000000  -0.0000000  -0.0000000
 NQMom=    0.0000000   0.0000000   2.0440000   0.0000000   0.0000000   0.0000000   0.0000000   0.0000000   0.0000000   2.0440000
 NMagM=    0.0000000   0.0000000   0.4037610   2.7928460   2.7928460   2.7928460   2.7928460   2.7928460   2.7928460   0.4037610
 AtZNuc=   8.0000000   8.0000000   7.0000000   1.0000000   1.0000000   1.0000000   1.0000000   1.0000000   1.0000000   7.0000000

  Atom        21          22          23          24          25          26          27
 IAtWgt=          12          12           1           1           1           1          16
 AtmWgt=  12.0000000  12.0000000   1.0078250   1.0078250   1.0078250   1.0078250  15.9949146
 NucSpn=           0           0           1           1           1           1           0
 AtZEff=  -0.0000000  -0.0000000  -0.0000000  -0.0000000  -0.0000000  -0.0000000  -0.0000000
 NQMom=    0.0000000   0.0000000   0.0000000   0.0000000   0.0000000   0.0000000   0.0000000
 NMagM=    0.0000000   0.0000000   2.7928460   2.7928460   2.7928460   2.7928460   0.0000000
 AtZNuc=   6.0000000   6.0000000   1.0000000   1.0000000   1.0000000   1.0000000   8.0000000
 Leave Link  101 at Mon Jan  8 16:49:52 2024, MaxMem=  4026531840 cpu:               4.5 elap:               0.7
 (Enter /sysapps/ubuntu-applications/gaussian/Gaussian/AVX2/g16/l103.exe)

 GradGradGradGradGradGradGradGradGradGradGradGradGradGradGradGradGradGrad
 Berny optimization.
 Initialization pass.
                           ----------------------------
                           !    Initial Parameters    !
                           ! (Angstroms and Degrees)  !
 --------------------------                            --------------------------
 ! Name  Definition              Value          Derivative Info.                !
 --------------------------------------------------------------------------------
 ! R1    R(1,2)                  1.3812         estimate D2E/DX2                !
 ! R2    R(1,4)                  1.4195         estimate D2E/DX2                !
 ! R3    R(1,14)                 1.0859         estimate D2E/DX2                !
 ! R4    R(2,3)                  1.4234         estimate D2E/DX2                !
 ! R5    R(2,15)                 1.0892         estimate D2E/DX2                !
 ! R6    R(3,6)                  1.3835         estimate D2E/DX2                !
 ! R7    R(3,16)                 1.0887         estimate D2E/DX2                !
 ! R8    R(4,5)                  1.4524         estimate D2E/DX2                !
 ! R9    R(4,7)                  1.4391         estimate D2E/DX2                !
 ! R10   R(5,6)                  1.4139         estimate D2E/DX2                !
 ! R11   R(5,10)                 1.4373         estimate D2E/DX2                !
 ! R12   R(6,17)                 1.0861         estimate D2E/DX2                !
 ! R13   R(7,8)                  1.4334         estimate D2E/DX2                !
 ! R14   R(7,11)                 1.2995         estimate D2E/DX2                !
 ! R15   R(8,9)                  1.4081         estimate D2E/DX2                !
 ! R16   R(8,13)                 1.4055         estimate D2E/DX2                !
 ! R17   R(9,10)                 1.4334         estimate D2E/DX2                !
 ! R18   R(9,20)                 1.4257         estimate D2E/DX2                !
 ! R19   R(10,12)                1.302          estimate D2E/DX2                !
 ! R20   R(13,18)                1.0185         estimate D2E/DX2                !
 ! R21   R(13,19)                1.0169         estimate D2E/DX2                !
 ! R22   R(20,21)                1.3429         estimate D2E/DX2                !
 ! R23   R(20,23)                1.0302         estimate D2E/DX2                !
 ! R24   R(21,22)                1.5302         estimate D2E/DX2                !
 ! R25   R(21,27)                1.2441         estimate D2E/DX2                !
 ! R26   R(22,24)                1.0933         estimate D2E/DX2                !
 ! R27   R(22,25)                1.0964         estimate D2E/DX2                !
 ! R28   R(22,26)                1.0936         estimate D2E/DX2                !
 ! A1    A(2,1,4)              122.2402         estimate D2E/DX2                !
 ! A2    A(2,1,14)             121.2963         estimate D2E/DX2                !
 ! A3    A(4,1,14)             116.4631         estimate D2E/DX2                !
 ! A4    A(1,2,3)              119.8994         estimate D2E/DX2                !
 ! A5    A(1,2,15)             120.1306         estimate D2E/DX2                !
 ! A6    A(3,2,15)             119.9697         estimate D2E/DX2                !
 ! A7    A(2,3,6)              119.3738         estimate D2E/DX2                !
 ! A8    A(2,3,16)             120.241          estimate D2E/DX2                !
 ! A9    A(6,3,16)             120.3849         estimate D2E/DX2                !
 ! A10   A(1,4,5)              117.6943         estimate D2E/DX2                !
 ! A11   A(1,4,7)              120.077          estimate D2E/DX2                !
 ! A12   A(5,4,7)              122.2256         estimate D2E/DX2                !
 ! A13   A(4,5,6)              118.6662         estimate D2E/DX2                !
 ! A14   A(4,5,10)             120.8042         estimate D2E/DX2                !
 ! A15   A(6,5,10)             120.5295         estimate D2E/DX2                !
 ! A16   A(3,6,5)              122.1197         estimate D2E/DX2                !
 ! A17   A(3,6,17)             121.1441         estimate D2E/DX2                !
 ! A18   A(5,6,17)             116.7358         estimate D2E/DX2                !
 ! A19   A(4,7,8)              115.9537         estimate D2E/DX2                !
 ! A20   A(4,7,11)             123.8612         estimate D2E/DX2                !
 ! A21   A(8,7,11)             120.1832         estimate D2E/DX2                !
 ! A22   A(7,8,9)              121.4053         estimate D2E/DX2                !
 ! A23   A(7,8,13)             115.4819         estimate D2E/DX2                !
 ! A24   A(9,8,13)             123.0687         estimate D2E/DX2                !
 ! A25   A(8,9,10)             123.8237         estimate D2E/DX2                !
 ! A26   A(8,9,20)             126.2268         estimate D2E/DX2                !
 ! A27   A(10,9,20)            109.5374         estimate D2E/DX2                !
 ! A28   A(5,10,9)             115.5449         estimate D2E/DX2                !
 ! A29   A(5,10,12)            124.3644         estimate D2E/DX2                !
 ! A30   A(9,10,12)            120.0799         estimate D2E/DX2                !
 ! A31   A(8,13,18)            106.943          estimate D2E/DX2                !
 ! A32   A(8,13,19)            113.6137         estimate D2E/DX2                !
 ! A33   A(18,13,19)           114.8512         estimate D2E/DX2                !
 ! A34   A(9,20,21)            134.6481         estimate D2E/DX2                !
 ! A35   A(9,20,23)            104.8797         estimate D2E/DX2                !
 ! A36   A(21,20,23)           117.4666         estimate D2E/DX2                !
 ! A37   A(20,21,22)           114.222          estimate D2E/DX2                !
 ! A38   A(20,21,27)           127.1996         estimate D2E/DX2                !
 ! A39   A(22,21,27)           118.5782         estimate D2E/DX2                !
 ! A40   A(21,22,24)           113.653          estimate D2E/DX2                !
 ! A41   A(21,22,25)           108.9981         estimate D2E/DX2                !
 ! A42   A(21,22,26)           109.0001         estimate D2E/DX2                !
 ! A43   A(24,22,25)           109.0807         estimate D2E/DX2                !
 ! A44   A(24,22,26)           108.7863         estimate D2E/DX2                !
 ! A45   A(25,22,26)           107.1198         estimate D2E/DX2                !
 ! D1    D(4,1,2,3)             -0.1752         estimate D2E/DX2                !
 ! D2    D(4,1,2,15)          -179.9626         estimate D2E/DX2                !
 ! D3    D(14,1,2,3)           179.5854         estimate D2E/DX2                !
 ! D4    D(14,1,2,15)           -0.202          estimate D2E/DX2                !
 ! D5    D(2,1,4,5)             -0.4957         estimate D2E/DX2                !
 ! D6    D(2,1,4,7)            178.8757         estimate D2E/DX2                !
 ! D7    D(14,1,4,5)           179.7328         estimate D2E/DX2                !
 ! D8    D(14,1,4,7)            -0.8958         estimate D2E/DX2                !
 ! D9    D(1,2,3,6)              0.4207         estimate D2E/DX2                !
 ! D10   D(1,2,3,16)          -179.7899         estimate D2E/DX2                !
 ! D11   D(15,2,3,6)          -179.7916         estimate D2E/DX2                !
 ! D12   D(15,2,3,16)           -0.0022         estimate D2E/DX2                !
 ! D13   D(2,3,6,5)              0.0319         estimate D2E/DX2                !
 ! D14   D(2,3,6,17)           179.7851         estimate D2E/DX2                !
 ! D15   D(16,3,6,5)          -179.7572         estimate D2E/DX2                !
 ! D16   D(16,3,6,17)           -0.004          estimate D2E/DX2                !
 ! D17   D(1,4,5,6)              0.9177         estimate D2E/DX2                !
 ! D18   D(1,4,5,10)          -179.0035         estimate D2E/DX2                !
 ! D19   D(7,4,5,6)           -178.4394         estimate D2E/DX2                !
 ! D20   D(7,4,5,10)             1.6394         estimate D2E/DX2                !
 ! D21   D(1,4,7,8)           -179.5622         estimate D2E/DX2                !
 ! D22   D(1,4,7,11)            -0.0524         estimate D2E/DX2                !
 ! D23   D(5,4,7,8)             -0.2201         estimate D2E/DX2                !
 ! D24   D(5,4,7,11)           179.2897         estimate D2E/DX2                !
 ! D25   D(4,5,6,3)             -0.7062         estimate D2E/DX2                !
 ! D26   D(4,5,6,17)           179.5303         estimate D2E/DX2                !
 ! D27   D(10,5,6,3)           179.2152         estimate D2E/DX2                !
 ! D28   D(10,5,6,17)           -0.5483         estimate D2E/DX2                !
 ! D29   D(4,5,10,9)             0.6664         estimate D2E/DX2                !
 ! D30   D(4,5,10,12)         -178.1347         estimate D2E/DX2                !
 ! D31   D(6,5,10,9)          -179.2534         estimate D2E/DX2                !
 ! D32   D(6,5,10,12)            1.9455         estimate D2E/DX2                !
 ! D33   D(4,7,8,9)             -3.5773         estimate D2E/DX2                !
 ! D34   D(4,7,8,13)           174.0793         estimate D2E/DX2                !
 ! D35   D(11,7,8,9)           176.8936         estimate D2E/DX2                !
 ! D36   D(11,7,8,13)           -5.4498         estimate D2E/DX2                !
 ! D37   D(7,8,9,10)             6.2935         estimate D2E/DX2                !
 ! D38   D(7,8,9,20)           178.1429         estimate D2E/DX2                !
 ! D39   D(13,8,9,10)         -171.182          estimate D2E/DX2                !
 ! D40   D(13,8,9,20)            0.6674         estimate D2E/DX2                !
 ! D41   D(7,8,13,18)           15.3588         estimate D2E/DX2                !
 ! D42   D(7,8,13,19)          143.1411         estimate D2E/DX2                !
 ! D43   D(9,8,13,18)         -167.028          estimate D2E/DX2                !
 ! D44   D(9,8,13,19)          -39.2457         estimate D2E/DX2                !
 ! D45   D(8,9,10,5)            -4.6014         estimate D2E/DX2                !
 ! D46   D(8,9,10,12)          174.2549         estimate D2E/DX2                !
 ! D47   D(20,9,10,5)         -177.6311         estimate D2E/DX2                !
 ! D48   D(20,9,10,12)           1.2252         estimate D2E/DX2                !
 ! D49   D(8,9,20,21)           36.6621         estimate D2E/DX2                !
 ! D50   D(8,9,20,23)         -164.389          estimate D2E/DX2                !
 ! D51   D(10,9,20,21)        -150.5172         estimate D2E/DX2                !
 ! D52   D(10,9,20,23)           8.4316         estimate D2E/DX2                !
 ! D53   D(9,20,21,22)         173.5275         estimate D2E/DX2                !
 ! D54   D(9,20,21,27)          -6.6459         estimate D2E/DX2                !
 ! D55   D(23,20,21,22)         16.5604         estimate D2E/DX2                !
 ! D56   D(23,20,21,27)       -163.613          estimate D2E/DX2                !
 ! D57   D(20,21,22,24)         -3.6732         estimate D2E/DX2                !
 ! D58   D(20,21,22,25)       -125.5595         estimate D2E/DX2                !
 ! D59   D(20,21,22,26)        117.8368         estimate D2E/DX2                !
 ! D60   D(27,21,22,24)        176.4841         estimate D2E/DX2                !
 ! D61   D(27,21,22,25)         54.5978         estimate D2E/DX2                !
 ! D62   D(27,21,22,26)        -62.006          estimate D2E/DX2                !
 --------------------------------------------------------------------------------
 Trust Radius=3.00D-01 FncErr=1.00D-07 GrdErr=1.00D-06 EigMax=2.50D+02 EigMin=1.00D-04
 Number of steps in this run=    145 maximum allowed number of steps=    162.
 GradGradGradGradGradGradGradGradGradGradGradGradGradGradGradGradGradGrad

 Leave Link  103 at Mon Jan  8 16:49:53 2024, MaxMem=  4026531840 cpu:               0.3 elap:               0.1
 (Enter /sysapps/ubuntu-applications/gaussian/Gaussian/AVX2/g16/l202.exe)
                          Input orientation:                          
 ---------------------------------------------------------------------
 Center     Atomic      Atomic             Coordinates (Angstroms)
 Number     Number       Type             X           Y           Z
 ---------------------------------------------------------------------
      1          6           0       -0.986689    3.920379    0.010270
      2          6           0       -2.160877    3.205787    0.145503
      3          6           0       -2.131406    1.782824    0.128756
      4          6           0        0.273077    3.284767   -0.144116
      5          6           0        0.300766    1.832652   -0.145838
      6          6           0       -0.919686    1.130821   -0.014759
      7          6           0        1.464753    4.075219   -0.305539
      8          6           0        2.686709    3.342781   -0.463939
      9          6           0        2.715067    1.937131   -0.385560
     10          6           0        1.542295    1.120290   -0.276257
     11          8           0        1.475004    5.374533   -0.322208
     12          8           0        1.644066   -0.176918   -0.321100
     13          7           0        3.823632    4.118018   -0.750064
     14          1           0       -0.983684    5.006297    0.013206
     15          1           0       -3.109142    3.729060    0.261392
     16          1           0       -3.053975    1.214063    0.231468
     17          1           0       -0.863479    0.046208   -0.027841
     18          1           0        3.585872    5.084560   -0.534063
     19          1           0        4.671911    3.776826   -0.304875
     20          7           0        3.859901    1.106298   -0.563255
     21          6           0        5.160419    1.210883   -0.245164
     22          6           0        5.978681   -0.051432   -0.525185
     23          1           0        3.480026    0.159180   -0.704856
     24          1           0        5.379679   -0.890883   -0.888160
     25          1           0        6.497174   -0.351659    0.393004
     26          1           0        6.747303    0.179970   -1.267969
     27          8           0        5.740082    2.201585    0.234679
 ---------------------------------------------------------------------
                    Distance matrix (angstroms):
                    1          2          3          4          5
     1  C    0.000000
     2  C    1.381176   0.000000
     3  C    2.427665   1.423367   0.000000
     4  C    1.419453   2.452397   2.848128   0.000000
     5  C    2.457746   2.833737   2.448131   1.452380   0.000000
     6  C    2.790475   2.423164   1.383463   2.465543   1.413949
     7  C    2.476546   3.755602   4.286729   1.439084   2.531694
     8  C    3.748646   4.887666   5.098920   2.435420   2.841549
     9  C    4.218169   5.066196   4.876129   2.799595   2.428422
    10  C    3.783960   4.270909   3.754872   2.512635   1.437311
    11  O    2.878374   4.259324   5.109788   2.417326   3.735621
    12  O    4.880422   5.112534   4.277517   3.727492   2.423539
    13  N    4.874049   6.119522   6.456619   3.697015   4.242472
    14  H    1.085926   2.155255   3.423652   2.137256   3.427409
    15  H    2.145803   1.089244   2.182062   3.435293   3.922967
    16  H    3.412733   2.184486   1.088656   3.936769   3.432098
    17  H    3.876317   3.419975   2.155921   3.434173   2.135596
    18  H    4.749729   6.084137   6.635364   3.790241   4.638701
    19  H    5.669187   6.871384   7.102760   4.429188   4.786650
    20  N    5.633597   6.415603   6.068964   4.217429   3.656401
    21  C    6.722615   7.598265   7.323773   5.310115   4.900274
    22  C    8.036067   8.792707   8.340602   6.620374   5.994364
    23  H    5.882990   6.467203   5.900788   4.513119   3.636029
    24  H    8.030321   8.643561   8.037364   6.638301   5.810683
    25  H    8.625833   9.363681   8.892595   7.228518   6.592195
    26  H    8.685573   9.513629   9.129702   7.267628   6.748954
    27  O    6.946514   7.965019   7.883331   5.586136   5.465077
                    6          7          8          9         10
     6  C    0.000000
     7  C    3.799945   0.000000
     8  C    4.254482   1.433434   0.000000
     9  C    3.741532   2.478126   1.408119   0.000000
    10  C    2.475852   2.956091   2.506865   1.433377   0.000000
    11  O    4.882433   1.299461   2.369880   3.654792   4.255023
    12  O    2.894279   4.255945   3.673661   2.370739   1.301967
    13  N    5.653590   2.400780   1.405508   2.473469   3.796757
    14  H    3.876105   2.638816   4.057923   4.822816   4.643857
    15  H    3.408933   4.621878   5.853820   6.127884   5.360095
    16  H    2.150057   5.375267   6.162019   5.846828   4.625178
    17  H    1.086147   4.661621   4.864300   4.063194   2.646339
    18  H    6.016792   2.360114   1.961429   3.269046   4.467450
    19  H    6.192856   3.221009   2.038314   2.687048   4.105180
    20  N    4.811019   3.823303   2.527469   1.425659   2.335350
    21  C    6.084996   4.676111   3.272933   2.554779   3.619392
    22  C    7.017530   6.119889   4.728796   3.824272   4.595260
    23  H    4.558266   4.422233   3.289788   1.961689   2.205047
    24  H    6.673239   6.350454   5.035470   3.917962   4.375472
    25  H    7.574551   6.738729   5.376140   4.488770   5.212041
    26  H    7.826709   6.633594   5.209440   4.486111   5.381431
    27  O    6.749908   4.699019   3.333689   3.099250   4.364822
                   11         12         13         14         15
    11  O    0.000000
    12  O    5.554025   0.000000
    13  N    2.697767   4.835390   0.000000
    14  H    2.508634   5.820872   4.947920   0.000000
    15  H    4.905361   6.179721   7.016957   2.492088   0.000000
    16  H    6.174765   4.930695   7.529797   4.326058   2.515780
    17  H    5.826337   2.534476   6.250620   4.961715   4.323200
    18  H    2.141198   5.612407   1.018523   4.602876   6.877015
    19  H    3.573959   4.979980   1.016948   5.796424   7.801777
    20  N    4.895270   2.572004   3.017726   6.245207   7.491761
    21  C    5.560953   3.781071   3.239345   7.226474   8.659299
    22  C    7.054460   4.341231   4.698842   8.622355   9.874176
    23  H    5.600575   1.905513   3.973979   6.628338   7.556111
    24  H    7.404203   3.845271   5.246851   8.722476   9.732699
    25  H    7.650032   4.908476   5.332208   9.209515  10.437955
    26  H    7.461574   5.202591   4.931967   9.203423  10.586996
    27  O    5.344961   4.769016   2.883611   7.288655   8.980126
                   16         17         18         19         20
    16  H    0.000000
    17  H    2.495876   0.000000
    18  H    7.723623   6.740770   0.000000
    19  H    8.157495   6.680928   1.715277   0.000000
    20  N    6.960236   4.870398   3.987795   2.803184   0.000000
    21  C    8.228211   6.139303   4.191424   2.612713   1.342932
    22  C    9.152206   6.860907   5.666042   4.051141   2.414750
    23  H    6.684508   4.397402   4.929477   3.829874   1.030237
    24  H    8.764182   6.371445   6.248924   4.756960   2.530617
    25  H    9.679981   7.383402   6.235993   4.567604   3.161531
    26  H    9.969088   7.712316   5.881179   4.262883   3.113165
    27  O    8.849330   6.951373   3.680099   1.978255   2.317635
                   21         22         23         24         25
    21  C    0.000000
    22  C    1.530165   0.000000
    23  H    2.034973   2.513944   0.000000
    24  H    2.208832   1.093267   2.178282   0.000000
    25  H    2.153070   1.096377   3.251067   1.783519   0.000000
    26  H    2.151072   1.093643   3.315513   1.778026   1.761824
    27  O    1.244086   2.389646   3.187789   3.309685   2.667829
                   26         27
    26  H    0.000000
    27  O    2.712816   0.000000
 Symmetry turned off by external request.
 Stoichiometry    C12H10N2O3(2-)
 Framework group  C1[X(C12H10N2O3)]
 Deg. of freedom    75
 Full point group                 C1      NOp   1
 Rotational constants (GHZ):           0.9194289           0.3249885           0.2434112
 Leave Link  202 at Mon Jan  8 16:49:53 2024, MaxMem=  4026531840 cpu:               0.6 elap:               0.1
 (Enter /sysapps/ubuntu-applications/gaussian/Gaussian/AVX2/g16/l301.exe)
 Standard basis: 6-311++G(d,p) (5D, 7F)
 Ernie: Thresh=  0.10000D-02 Tol=  0.10000D-05 Strict=F.
   444 basis functions,   702 primitive gaussians,   461 cartesian basis functions
    61 alpha electrons       61 beta electrons
       nuclear repulsion energy      1143.2237576728 Hartrees.
 IExCor=  402 DFT=T Ex+Corr=B3LYP ExCW=0 ScaHFX=  0.200000
 ScaDFX=  0.800000  0.720000  1.000000  0.810000 ScalE2=  1.000000  1.000000
 IRadAn=      5 IRanWt=     -1 IRanGd=            0 ICorTp=0 IEmpDi=  4
 NAtoms=   27 NActive=   27 NUniq=   27 SFac= 1.00D+00 NAtFMM=   60 NAOKFM=F Big=F
 Integral buffers will be    131072 words long.
 Raffenetti 2 integral format.
 Two-electron integral symmetry is turned off.
 Leave Link  301 at Mon Jan  8 16:49:53 2024, MaxMem=  4026531840 cpu:               0.6 elap:               0.1
 (Enter /sysapps/ubuntu-applications/gaussian/Gaussian/AVX2/g16/l302.exe)
 NPDir=0 NMtPBC=     1 NCelOv=     1 NCel=       1 NClECP=     1 NCelD=      1
         NCelK=      1 NCelE2=     1 NClLst=     1 CellRange=     0.0.
 One-electron integrals computed using PRISM.
 NBasis=   444 RedAO= T EigKep=  1.31D-06  NBF=   444
 NBsUse=   440 1.00D-06 EigRej=  8.71D-07 NBFU=   440
 Precomputing XC quadrature grid using
 IXCGrd= 4 IRadAn=           5 IRanWt=          -1 IRanGd=           0 AccXCQ= 0.00D+00.
 Generated NRdTot=       0 NPtTot=           0 NUsed=           0 NTot=          32
 NSgBfM=   460   460   460   460   460 MxSgAt=    27 MxSgA2=    27.
 Leave Link  302 at Mon Jan  8 16:49:55 2024, MaxMem=  4026531840 cpu:              15.0 elap:               2.2
 (Enter /sysapps/ubuntu-applications/gaussian/Gaussian/AVX2/g16/l303.exe)
 DipDrv:  MaxL=1.
 Leave Link  303 at Mon Jan  8 16:49:55 2024, MaxMem=  4026531840 cpu:               1.1 elap:               0.2
 (Enter /sysapps/ubuntu-applications/gaussian/Gaussian/AVX2/g16/l401.exe)
 ExpMin= 3.60D-02 ExpMax= 8.59D+03 ExpMxC= 1.30D+03 IAcc=3 IRadAn=         5 AccDes= 0.00D+00
 Harris functional with IExCor=  402 and IRadAn=       5 diagonalized for initial guess.
 HarFok:  IExCor=  402 AccDes= 0.00D+00 IRadAn=         5 IDoV= 1 UseB2=F ITyADJ=14
 ICtDFT=  3500011 ScaDFX=  1.000000  1.000000  1.000000  1.000000
 FoFCou: FMM=F IPFlag=           0 FMFlag=      100000 FMFlg1=           0
         NFxFlg=           0 DoJE=T BraDBF=F KetDBF=T FulRan=T
         wScrn=  0.000000 ICntrl=       500 IOpCl=  0 I1Cent=   200000004 NGrid=           0
         NMat0=    1 NMatS0=      1 NMatT0=    0 NMatD0=    1 NMtDS0=    0 NMtDT0=    0
 Symmetry not used in FoFCou.
 Harris En= -799.190974062965    
 JPrj=0 DoOrth=F DoCkMO=F.
 Initial guess <Sx>= 0.0000 <Sy>= 0.0000 <Sz>= 0.0000 <S**2>= 0.0000 S= 0.0000
 Leave Link  401 at Mon Jan  8 16:49:58 2024, MaxMem=  4026531840 cpu:              24.3 elap:               3.1
 (Enter /sysapps/ubuntu-applications/gaussian/Gaussian/AVX2/g16/l502.exe)
 Two-electron integral symmetry not used.
 UHF open shell SCF:
 Using DIIS extrapolation, IDIIS=  1040.
 NGot=  4026531840 LenX=  4026099796 LenY=  4025886814
 Requested convergence on RMS density matrix=1.00D-08 within 128 cycles.
 Requested convergence on MAX density matrix=1.00D-06.
 Requested convergence on             energy=1.00D-06.
 No special actions if energy rises.
 Fock matrices will be formed incrementally for  20 cycles.

 Cycle   1  Pass 1  IDiag  1:
 FoFJK:  IHMeth= 1 ICntrl=       0 DoSepK=F KAlg= 0 I1Cent=           0 FoldK=F
 IRaf= 850000000 NMat=       1 IRICut=       1 DoRegI=T DoRafI=F ISym2E= 0 IDoP0=0 IntGTp=1.
 FoFCou: FMM=F IPFlag=           0 FMFlag=      100000 FMFlg1=           0
         NFxFlg=           0 DoJE=F BraDBF=F KetDBF=F FulRan=T
         wScrn=  0.000000 ICntrl=         0 IOpCl=  1 I1Cent=           0 NGrid=           0
         NMat0=    1 NMatS0=      1 NMatT0=    0 NMatD0=    1 NMtDS0=    0 NMtDT0=    0
 Symmetry not used in FoFCou.
 E= -798.085768432392    
 DIIS: error= 2.58D-02 at cycle   1 NSaved=   1.
 NSaved= 1 IEnMin= 1 EnMin= -798.085768432392     IErMin= 1 ErrMin= 2.58D-02
 ErrMax= 2.58D-02  0.00D+00 EMaxC= 1.00D-01 BMatC= 2.93D+00 BMatP= 2.93D+00
 IDIUse=3 WtCom= 7.42D-01 WtEn= 2.58D-01
 Coeff-Com:  0.100D+01
 Coeff-En:   0.100D+01
 Coeff:      0.100D+01
 Gap=     0.073 Goal=   None    Shift=    0.000
 Gap=     0.073 Goal=   None    Shift=    0.000
 GapD=    0.073 DampG=0.500 DampE=0.500 DampFc=0.2500 IDamp=-1.
 Damping current iteration by 2.50D-01
 RMSDP=3.09D+00 MaxDP=2.94D+02              OVMax= 9.95D-01

 Cycle   2  Pass 1  IDiag  1:
 RMSU=  7.51D-01    CP:  3.00D+00
 E= -797.931866143854     Delta-E=        0.153902288538 Rises=F Damp=T
 DIIS: error= 1.04D-02 at cycle   2 NSaved=   2.
 NSaved= 2 IEnMin= 1 EnMin= -798.085768432392     IErMin= 2 ErrMin= 1.04D-02
 ErrMax= 1.04D-02  0.00D+00 EMaxC= 1.00D-01 BMatC= 5.61D-01 BMatP= 2.93D+00
 IDIUse=3 WtCom= 8.96D-01 WtEn= 1.04D-01
 Coeff-Com: -0.134D-01 0.101D+01
 Coeff-En:   0.604D+00 0.396D+00
 Coeff:      0.507D-01 0.949D+00
 Gap=     0.026 Goal=   None    Shift=    0.000
 Gap=     0.026 Goal=   None    Shift=    0.000
 RMSDP=7.69D-01 MaxDP=7.32D+01 DE= 1.54D-01 OVMax= 6.80D-01

 Cycle   3  Pass 1  IDiag  1:
 RMSU=  2.40D-02    CP:  1.30D+00 -2.12D-04
 E= -798.008309677494     Delta-E=       -0.076443533640 Rises=F Damp=F
 DIIS: error= 3.15D-02 at cycle   3 NSaved=   3.
 NSaved= 3 IEnMin= 1 EnMin= -798.085768432392     IErMin= 2 ErrMin= 1.04D-02
 ErrMax= 3.15D-02  0.00D+00 EMaxC= 1.00D-01 BMatC= 2.68D+00 BMatP= 5.61D-01
 IDIUse=2 WtCom= 0.00D+00 WtEn= 1.00D+00
 EnCoef did     2 forward-backward iterations
 Coeff-En:   0.205D+00 0.379D+00 0.416D+00
 Coeff:      0.205D+00 0.379D+00 0.416D+00
 Gap=     0.227 Goal=   None    Shift=    0.000
 Gap=     0.227 Goal=   None    Shift=    0.000
 RMSDP=4.60D-01 MaxDP=9.64D+01 DE=-7.64D-02 OVMax= 9.99D-01

 Cycle   4  Pass 1  IDiag  1:
 RMSU=  4.46D-01    CP:  2.09D+00  1.21D-01 -1.89D-01
 E= -797.712859393860     Delta-E=        0.295450283635 Rises=F Damp=F
 DIIS: error= 6.74D-02 at cycle   4 NSaved=   4.
 NSaved= 4 IEnMin= 1 EnMin= -798.085768432392     IErMin= 2 ErrMin= 1.04D-02
 ErrMax= 6.74D-02  0.00D+00 EMaxC= 1.00D-01 BMatC= 3.34D+00 BMatP= 5.61D-01
 IDIUse=2 WtCom= 0.00D+00 WtEn= 1.00D+00
 EnCoef did     4 forward-backward iterations
 Coeff-En:   0.192D+00 0.000D+00 0.413D+00 0.395D+00
 Coeff:      0.192D+00 0.000D+00 0.413D+00 0.395D+00
 Gap=    -0.020 Goal=   None    Shift=    0.000
 Gap=    -0.020 Goal=   None    Shift=    0.000
 RMSDP=4.60D-01 MaxDP=9.63D+01 DE= 2.95D-01 OVMax= 9.40D-01

 Cycle   5  Pass 1  IDiag  1:
 RMSU=  1.38D-02    CP:  1.22D+00  9.51D-04  3.37D-01 -9.18D-04
 E= -798.662664624033     Delta-E=       -0.949805230173 Rises=F Damp=F
 DIIS: error= 1.85D-02 at cycle   5 NSaved=   5.
 NSaved= 5 IEnMin= 5 EnMin= -798.662664624033     IErMin= 2 ErrMin= 1.04D-02
 ErrMax= 1.85D-02  0.00D+00 EMaxC= 1.00D-01 BMatC= 1.98D-01 BMatP= 5.61D-01
 IDIUse=3 WtCom= 8.15D-01 WtEn= 1.85D-01
 Coeff-Com: -0.809D-01 0.381D+00 0.222D+00 0.888D-01 0.388D+00
 Coeff-En:   0.000D+00 0.000D+00 0.000D+00 0.587D-01 0.941D+00
 Coeff:     -0.659D-01 0.311D+00 0.181D+00 0.832D-01 0.491D+00
 Gap=     0.083 Goal=   None    Shift=    0.000
 Gap=     0.083 Goal=   None    Shift=    0.000
 RMSDP=1.28D-02 MaxDP=1.46D+00 DE=-9.50D-01 OVMax= 1.96D-01

 Cycle   6  Pass 1  IDiag  1:
 RMSU=  1.02D-02    CP:  1.18D+00  8.51D-05  5.11D-01 -6.22D-04  5.80D-01
 E= -798.637682549542     Delta-E=        0.024982074490 Rises=F Damp=F
 DIIS: error= 1.36D-02 at cycle   6 NSaved=   6.
 NSaved= 6 IEnMin= 5 EnMin= -798.662664624033     IErMin= 2 ErrMin= 1.04D-02
 ErrMax= 1.36D-02  0.00D+00 EMaxC= 1.00D-01 BMatC= 3.44D-01 BMatP= 1.98D-01
 IDIUse=2 WtCom= 0.00D+00 WtEn= 1.00D+00
 EnCoef did     5 forward-backward iterations
 Coeff-En:   0.000D+00 0.000D+00 0.000D+00 0.559D-01 0.545D+00 0.400D+00
 Coeff:      0.000D+00 0.000D+00 0.000D+00 0.559D-01 0.545D+00 0.400D+00
 Gap=    -0.012 Goal=   None    Shift=    0.000
 Gap=    -0.012 Goal=   None    Shift=    0.000
 RMSDP=4.46D-01 MaxDP=1.30D+02 DE= 2.50D-02 OVMax= 1.00D+00

 Cycle   7  Pass 1  IDiag  1:
 RMSU=  3.16D-01    CP:  1.65D+00  1.07D-01  7.97D-01  6.78D-01  7.14D-01
                    CP:  1.06D+00
 E= -798.259583761549     Delta-E=        0.378098787993 Rises=F Damp=F
 DIIS: error= 3.57D-02 at cycle   7 NSaved=   7.
 NSaved= 7 IEnMin= 5 EnMin= -798.662664624033     IErMin= 2 ErrMin= 1.04D-02
 ErrMax= 3.57D-02  0.00D+00 EMaxC= 1.00D-01 BMatC= 7.62D-01 BMatP= 1.98D-01
 IDIUse=2 WtCom= 0.00D+00 WtEn= 1.00D+00
 EnCoef did     3 forward-backward iterations
 Coeff-En:   0.000D+00 0.000D+00 0.000D+00 0.000D+00 0.534D+00 0.320D+00
 Coeff-En:   0.145D+00
 Coeff:      0.000D+00 0.000D+00 0.000D+00 0.000D+00 0.534D+00 0.320D+00
 Coeff:      0.145D+00
 Gap=    -0.022 Goal=   None    Shift=    0.000
 Gap=    -0.022 Goal=   None    Shift=    0.000
 RMSDP=4.45D-01 MaxDP=1.29D+02 DE= 3.78D-01 OVMax= 1.00D+00

 Cycle   8  Pass 1  IDiag  1:
 RMSU=  6.53D-03    CP:  1.35D+00  5.21D-04  4.25D-01 -1.28D-03  1.28D+00
                    CP:  1.37D+00  1.30D-03
 E= -798.712158726796     Delta-E=       -0.452574965247 Rises=F Damp=F
 DIIS: error= 4.58D-03 at cycle   8 NSaved=   8.
 NSaved= 8 IEnMin= 8 EnMin= -798.712158726796     IErMin= 8 ErrMin= 4.58D-03
 ErrMax= 4.58D-03  0.00D+00 EMaxC= 1.00D-01 BMatC= 3.39D-02 BMatP= 1.98D-01
 IDIUse=3 WtCom= 9.54D-01 WtEn= 4.58D-02
 EnCoef did     3 forward-backward iterations
 Coeff-Com: -0.318D-01 0.542D-01-0.664D-02-0.303D-01 0.353D+00 0.221D+00
 Coeff-Com:  0.124D+00 0.317D+00
 Coeff-En:   0.000D+00 0.000D+00 0.000D+00 0.000D+00 0.501D-01 0.000D+00
 Coeff-En:   0.536D-02 0.945D+00
 Coeff:     -0.303D-01 0.517D-01-0.633D-02-0.289D-01 0.340D+00 0.211D+00
 Coeff:      0.118D+00 0.345D+00
 Gap=     0.035 Goal=   None    Shift=    0.000
 Gap=     0.035 Goal=   None    Shift=    0.000
 RMSDP=6.43D-03 MaxDP=8.12D-01 DE=-4.53D-01 OVMax= 4.07D-02

 Cycle   9  Pass 1  IDiag  1:
 RMSU=  2.98D-03    CP:  1.30D+00  1.19D-03  3.92D-01 -1.19D-03  1.23D+00
                    CP:  9.53D-01  5.87D-04  8.33D-01
 E= -798.715781889391     Delta-E=       -0.003623162595 Rises=F Damp=F
 DIIS: error= 3.30D-03 at cycle   9 NSaved=   9.
 NSaved= 9 IEnMin= 9 EnMin= -798.715781889391     IErMin= 9 ErrMin= 3.30D-03
 ErrMax= 3.30D-03  0.00D+00 EMaxC= 1.00D-01 BMatC= 1.30D-02 BMatP= 3.39D-02
 IDIUse=3 WtCom= 9.67D-01 WtEn= 3.30D-02
 EnCoef did     2 forward-backward iterations
 Coeff-Com: -0.178D-01 0.353D-01-0.149D-01-0.166D-01 0.802D-01 0.377D-01
 Coeff-Com:  0.636D-01 0.223D+00 0.609D+00
 Coeff-En:   0.000D+00 0.000D+00 0.000D+00 0.000D+00 0.000D+00 0.000D+00
 Coeff-En:   0.357D-01 0.194D+00 0.771D+00
 Coeff:     -0.172D-01 0.341D-01-0.144D-01-0.160D-01 0.776D-01 0.365D-01
 Coeff:      0.627D-01 0.222D+00 0.615D+00
 Gap=     0.023 Goal=   None    Shift=    0.000
 Gap=     0.023 Goal=   None    Shift=    0.000
 RMSDP=4.68D-03 MaxDP=5.16D-01 DE=-3.62D-03 OVMax= 2.05D-02

 Cycle  10  Pass 1  IDiag  1:
 RMSU=  1.07D-03    CP:  1.35D+00  1.49D-03  3.78D-01 -1.38D-03  1.39D+00
                    CP:  1.04D+00  9.24D-04  1.06D+00  1.28D+00
 E= -798.718223028481     Delta-E=       -0.002441139090 Rises=F Damp=F
 DIIS: error= 1.47D-03 at cycle  10 NSaved=  10.
 NSaved=10 IEnMin=10 EnMin= -798.718223028481     IErMin=10 ErrMin= 1.47D-03
 ErrMax= 1.47D-03  0.00D+00 EMaxC= 1.00D-01 BMatC= 3.82D-03 BMatP= 1.30D-02
 IDIUse=3 WtCom= 9.85D-01 WtEn= 1.47D-02
 Coeff-Com: -0.725D-02 0.126D-01-0.177D-01-0.822D-03-0.580D-01-0.385D-01
 Coeff-Com:  0.218D-01 0.471D-01 0.408D+00 0.633D+00
 Coeff-En:   0.000D+00 0.000D+00 0.000D+00 0.000D+00 0.000D+00 0.000D+00
 Coeff-En:   0.237D-01 0.000D+00 0.000D+00 0.976D+00
 Coeff:     -0.714D-02 0.124D-01-0.174D-01-0.810D-03-0.571D-01-0.380D-01
 Coeff:      0.218D-01 0.464D-01 0.402D+00 0.638D+00
 Gap=     0.016 Goal=   None    Shift=    0.000
 Gap=     0.016 Goal=   None    Shift=    0.000
 RMSDP=4.50D-03 MaxDP=6.45D-01 DE=-2.44D-03 OVMax= 1.46D-02

 Cycle  11  Pass 1  IDiag  1:
 RMSU=  1.03D-03    CP:  1.39D+00  1.79D-03  3.77D-01 -1.40D-03  1.52D+00
                    CP:  1.12D+00  9.93D-04  1.26D+00  1.55D+00  1.15D+00
 E= -798.719290979436     Delta-E=       -0.001067950955 Rises=F Damp=F
 DIIS: error= 1.14D-03 at cycle  11 NSaved=  11.
 NSaved=11 IEnMin=11 EnMin= -798.719290979436     IErMin=11 ErrMin= 1.14D-03
 ErrMax= 1.14D-03  0.00D+00 EMaxC= 1.00D-01 BMatC= 7.79D-04 BMatP= 3.82D-03
 IDIUse=3 WtCom= 9.89D-01 WtEn= 1.14D-02
 Coeff-Com: -0.587D-02 0.819D-02-0.949D-02 0.289D-02-0.465D-01-0.118D-01
 Coeff-Com:  0.680D-03-0.301D-01 0.140D-02 0.301D+00 0.790D+00
 Coeff-En:   0.000D+00 0.000D+00 0.000D+00 0.000D+00 0.000D+00 0.000D+00
 Coeff-En:   0.474D-02 0.000D+00 0.000D+00 0.000D+00 0.995D+00
 Coeff:     -0.580D-02 0.810D-02-0.938D-02 0.286D-02-0.460D-01-0.117D-01
 Coeff:      0.726D-03-0.298D-01 0.139D-02 0.298D+00 0.792D+00
 Gap=     0.013 Goal=   None    Shift=    0.000
 Gap=     0.013 Goal=   None    Shift=    0.000
 RMSDP=1.93D-03 MaxDP=2.73D-01 DE=-1.07D-03 OVMax= 9.87D-03

 Cycle  12  Pass 1  IDiag  1:
 RMSU=  3.10D-04    CP:  1.41D+00  1.95D-03  3.68D-01 -1.37D-03  1.57D+00
                    CP:  1.17D+00  1.03D-03  1.36D+00  1.68D+00  1.35D+00
                    CP:  1.47D+00
 E= -798.719519543541     Delta-E=       -0.000228564106 Rises=F Damp=F
 DIIS: error= 3.06D-04 at cycle  12 NSaved=  12.
 NSaved=12 IEnMin=12 EnMin= -798.719519543541     IErMin=12 ErrMin= 3.06D-04
 ErrMax= 3.06D-04  0.00D+00 EMaxC= 1.00D-01 BMatC= 1.52D-04 BMatP= 7.79D-04
 IDIUse=3 WtCom= 9.97D-01 WtEn= 3.06D-03
 Coeff-Com: -0.127D-02 0.149D-02-0.270D-02 0.862D-03-0.997D-02 0.578D-03
 Coeff-Com: -0.693D-03-0.940D-02-0.102D+00-0.606D-03 0.454D+00 0.669D+00
 Coeff-En:   0.000D+00 0.000D+00 0.000D+00 0.000D+00 0.000D+00 0.000D+00
 Coeff-En:   0.000D+00 0.000D+00 0.000D+00 0.000D+00 0.000D+00 0.100D+01
 Coeff:     -0.126D-02 0.149D-02-0.269D-02 0.860D-03-0.994D-02 0.576D-03
 Coeff:     -0.691D-03-0.937D-02-0.101D+00-0.604D-03 0.452D+00 0.670D+00
 Gap=     0.011 Goal=   None    Shift=    0.000
 Gap=     0.011 Goal=   None    Shift=    0.000
 RMSDP=1.14D-03 MaxDP=1.56D-01 DE=-2.29D-04 OVMax= 6.00D-03

 Cycle  13  Pass 1  IDiag  1:
 RMSU=  2.46D-04    CP:  1.42D+00  1.99D-03  3.68D-01 -1.31D-03  1.59D+00
                    CP:  1.20D+00  9.28D-04  1.41D+00  1.69D+00  1.27D+00
                    CP:  1.88D+00  1.89D+00
 E= -798.719560594988     Delta-E=       -0.000041051447 Rises=F Damp=F
 DIIS: error= 6.24D-05 at cycle  13 NSaved=  13.
 NSaved=13 IEnMin=13 EnMin= -798.719560594988     IErMin=13 ErrMin= 6.24D-05
 ErrMax= 6.24D-05  0.00D+00 EMaxC= 1.00D-01 BMatC= 1.16D-05 BMatP= 1.52D-04
 IDIUse=1 WtCom= 1.00D+00 WtEn= 0.00D+00
 Coeff-Com:  0.918D-04 0.115D-03-0.446D-04 0.164D-03-0.709D-03-0.988D-03
 Coeff-Com: -0.187D-03 0.201D-02-0.471D-01-0.257D-01 0.135D+00 0.364D+00
 Coeff-Com:  0.574D+00
 Coeff:      0.918D-04 0.115D-03-0.446D-04 0.164D-03-0.709D-03-0.988D-03
 Coeff:     -0.187D-03 0.201D-02-0.471D-01-0.257D-01 0.135D+00 0.364D+00
 Coeff:      0.574D+00
 Gap=     0.011 Goal=   None    Shift=    0.000
 Gap=     0.011 Goal=   None    Shift=    0.000
 RMSDP=4.11D-04 MaxDP=2.63D-02 DE=-4.11D-05 OVMax= 3.82D-03

 Cycle  14  Pass 1  IDiag  1:
 RMSU=  1.54D-04    CP:  1.42D+00  1.98D-03  3.72D-01 -1.22D-03  1.59D+00
                    CP:  1.20D+00  8.15D-04  1.42D+00  1.70D+00  1.22D+00
                    CP:  1.93D+00  2.71D+00  1.95D+00
 E= -798.719564070200     Delta-E=       -0.000003475212 Rises=F Damp=F
 DIIS: error= 4.05D-05 at cycle  14 NSaved=  14.
 NSaved=14 IEnMin=14 EnMin= -798.719564070200     IErMin=14 ErrMin= 4.05D-05
 ErrMax= 4.05D-05  0.00D+00 EMaxC= 1.00D-01 BMatC= 2.40D-06 BMatP= 1.16D-05
 IDIUse=1 WtCom= 1.00D+00 WtEn= 0.00D+00
 Coeff-Com:  0.265D-03-0.273D-03 0.234D-03 0.411D-04 0.464D-03-0.824D-03
 Coeff-Com: -0.162D-03 0.278D-02-0.188D-01-0.132D-01 0.402D-01 0.158D+00
 Coeff-Com:  0.356D+00 0.476D+00
 Coeff:      0.265D-03-0.273D-03 0.234D-03 0.411D-04 0.464D-03-0.824D-03
 Coeff:     -0.162D-03 0.278D-02-0.188D-01-0.132D-01 0.402D-01 0.158D+00
 Coeff:      0.356D+00 0.476D+00
 Gap=     0.011 Goal=   None    Shift=    0.000
 Gap=     0.011 Goal=   None    Shift=    0.000
 RMSDP=4.17D-04 MaxDP=2.95D-02 DE=-3.48D-06 OVMax= 3.70D-03

 Cycle  15  Pass 1  IDiag  1:
 RMSU=  1.73D-04    CP:  1.42D+00  1.98D-03  3.74D-01 -1.11D-03  1.59D+00
                    CP:  1.19D+00  7.20D-04  1.43D+00  1.70D+00  1.17D+00
                    CP:  2.01D+00  3.00D+00  3.00D+00  1.91D+00
 E= -798.719565804673     Delta-E=       -0.000001734473 Rises=F Damp=F
 DIIS: error= 1.67D-05 at cycle  15 NSaved=  15.
 NSaved=15 IEnMin=15 EnMin= -798.719565804673     IErMin=15 ErrMin= 1.67D-05
 ErrMax= 1.67D-05  0.00D+00 EMaxC= 1.00D-01 BMatC= 8.60D-07 BMatP= 2.40D-06
 IDIUse=1 WtCom= 1.00D+00 WtEn= 0.00D+00
 Coeff-Com:  0.141D-03-0.128D-03 0.148D-03-0.802D-07 0.255D-03-0.259D-03
 Coeff-Com: -0.823D-04 0.162D-02-0.501D-02-0.166D-02 0.136D-01 0.548D-01
 Coeff-Com:  0.135D+00 0.263D+00 0.539D+00
 Coeff:      0.141D-03-0.128D-03 0.148D-03-0.802D-07 0.255D-03-0.259D-03
 Coeff:     -0.823D-04 0.162D-02-0.501D-02-0.166D-02 0.136D-01 0.548D-01
 Coeff:      0.135D+00 0.263D+00 0.539D+00
 Gap=     0.011 Goal=   None    Shift=    0.000
 Gap=     0.011 Goal=   None    Shift=    0.000
 RMSDP=5.52D-04 MaxDP=4.00D-02 DE=-1.73D-06 OVMax= 4.89D-03

 Cycle  16  Pass 1  IDiag  1:
 RMSU=  3.40D-04    CP:  1.42D+00  1.97D-03  3.78D-01 -9.41D-04  1.58D+00
                    CP:  1.19D+00  6.35D-04  1.43D+00  1.71D+00  1.12D+00
                    CP:  2.04D+00  3.00D+00  3.00D+00  3.00D+00  2.93D+00
 E= -798.719568040647     Delta-E=       -0.000002235974 Rises=F Damp=F
 DIIS: error= 1.18D-05 at cycle  16 NSaved=  16.
 NSaved=16 IEnMin=16 EnMin= -798.719568040647     IErMin=16 ErrMin= 1.18D-05
 ErrMax= 1.18D-05  0.00D+00 EMaxC= 1.00D-01 BMatC= 3.67D-07 BMatP= 8.60D-07
 IDIUse=1 WtCom= 1.00D+00 WtEn= 0.00D+00
 Coeff-Com:  0.982D-04-0.780D-04 0.930D-04-0.249D-05 0.167D-03-0.656D-04
 Coeff-Com: -0.696D-04 0.116D-02-0.244D-02 0.622D-03 0.974D-02 0.318D-01
 Coeff-Com:  0.737D-01 0.159D+00 0.423D+00 0.303D+00
 Coeff:      0.982D-04-0.780D-04 0.930D-04-0.249D-05 0.167D-03-0.656D-04
 Coeff:     -0.696D-04 0.116D-02-0.244D-02 0.622D-03 0.974D-02 0.318D-01
 Coeff:      0.737D-01 0.159D+00 0.423D+00 0.303D+00
 Gap=     0.011 Goal=   None    Shift=    0.000
 Gap=     0.011 Goal=   None    Shift=    0.000
 RMSDP=4.14D-04 MaxDP=3.05D-02 DE=-2.24D-06 OVMax= 3.67D-03

 Cycle  17  Pass 1  IDiag  1:
 RMSU=  2.72D-04    CP:  1.42D+00  1.97D-03  3.82D-01 -7.90D-04  1.58D+00
                    CP:  1.18D+00  6.03D-04  1.43D+00  1.72D+00  1.09D+00
                    CP:  2.06D+00  3.00D+00  3.00D+00  3.00D+00  3.00D+00
                    CP:  1.80D+00
 E= -798.719569953480     Delta-E=       -0.000001912833 Rises=F Damp=F
 DIIS: error= 1.41D-05 at cycle  17 NSaved=  17.
 NSaved=17 IEnMin=17 EnMin= -798.719569953480     IErMin=16 ErrMin= 1.18D-05
 ErrMax= 1.41D-05  0.00D+00 EMaxC= 1.00D-01 BMatC= 3.05D-07 BMatP= 3.67D-07
 IDIUse=1 WtCom= 1.00D+00 WtEn= 0.00D+00
 Coeff-Com:  0.751D-04-0.401D-04 0.140D-03-0.447D-05 0.152D-03 0.438D-04
 Coeff-Com: -0.844D-04 0.909D-03-0.286D-02 0.123D-02 0.107D-01 0.348D-01
 Coeff-Com:  0.827D-01 0.207D+00 0.669D+00 0.120D+01-0.121D+01
 Coeff:      0.751D-04-0.401D-04 0.140D-03-0.447D-05 0.152D-03 0.438D-04
 Coeff:     -0.844D-04 0.909D-03-0.286D-02 0.123D-02 0.107D-01 0.348D-01
 Coeff:      0.827D-01 0.207D+00 0.669D+00 0.120D+01-0.121D+01
 Gap=     0.011 Goal=   None    Shift=    0.000
 Gap=     0.011 Goal=   None    Shift=    0.000
 RMSDP=1.03D-03 MaxDP=7.54D-02 DE=-1.91D-06 OVMax= 9.16D-03

 Cycle  18  Pass 1  IDiag  1:
 RMSU=  3.26D-05    CP:  1.42D+00  1.98D-03  3.73D-01 -1.13D-03  1.59D+00
                    CP:  1.20D+00  7.22D-04  1.43D+00  1.70D+00  1.16D+00
                    CP:  2.02D+00  3.00D+00  2.88D+00  1.65D+00  7.72D-01
                    CP: -9.01D-04 -4.71D-03
 E= -798.719565784815     Delta-E=        0.000004168665 Rises=F Damp=F
 DIIS: error= 9.69D-06 at cycle  18 NSaved=  18.
 NSaved=18 IEnMin=17 EnMin= -798.719569953480     IErMin=18 ErrMin= 9.69D-06
 ErrMax= 9.69D-06  0.00D+00 EMaxC= 1.00D-01 BMatC= 2.09D-07 BMatP= 3.05D-07
 IDIUse=1 WtCom= 1.00D+00 WtEn= 0.00D+00
 Coeff-Com:  0.102D-03-0.970D-04 0.700D-04-0.261D-04 0.141D-04 0.190D-04
 Coeff-Com:  0.753D-05 0.623D-03 0.711D-03 0.347D-02 0.211D-02 0.694D-02
 Coeff-Com:  0.162D-01 0.812D-01 0.488D+00 0.155D+01-0.251D+01 0.136D+01
 Coeff:      0.102D-03-0.970D-04 0.700D-04-0.261D-04 0.141D-04 0.190D-04
 Coeff:      0.753D-05 0.623D-03 0.711D-03 0.347D-02 0.211D-02 0.694D-02
 Coeff:      0.162D-01 0.812D-01 0.488D+00 0.155D+01-0.251D+01 0.136D+01
 Gap=     0.011 Goal=   None    Shift=    0.000
 Gap=     0.011 Goal=   None    Shift=    0.000
 RMSDP=1.48D-03 MaxDP=1.07D-01 DE= 4.17D-06 OVMax= 1.34D-02

 Cycle  19  Pass 1  IDiag  1:
 RMSU=  2.44D-04    CP:  1.42D+00  2.02D-03  3.61D-01 -1.41D-03  1.59D+00
                    CP:  1.22D+00  1.18D-03  1.42D+00  1.66D+00  1.25D+00
                    CP:  1.98D+00  8.96D-01 -7.74D-01 -2.46D+00 -1.03D+00
                    CP:  1.29D-01 -5.89D-02  3.00D+00
 E= -798.719562826732     Delta-E=        0.000002958084 Rises=F Damp=F
 DIIS: error= 1.10D-05 at cycle  19 NSaved=  19.
 NSaved=19 IEnMin=17 EnMin= -798.719569953480     IErMin=18 ErrMin= 9.69D-06
 ErrMax= 1.10D-05  0.00D+00 EMaxC= 1.00D-01 BMatC= 2.31D-07 BMatP= 2.09D-07
 IDIUse=1 WtCom= 1.00D+00 WtEn= 0.00D+00
 Coeff-Com:  0.794D-04-0.770D-04-0.140D-04-0.949D-05 0.369D-04 0.112D-03
 Coeff-Com: -0.157D-04 0.606D-03 0.187D-02 0.375D-02 0.566D-03-0.643D-02
 Coeff-Com: -0.237D-01-0.308D-01 0.135D+00 0.608D+00-0.137D+01 0.107D+01
 Coeff-Com:  0.608D+00
 Coeff:      0.794D-04-0.770D-04-0.140D-04-0.949D-05 0.369D-04 0.112D-03
 Coeff:     -0.157D-04 0.606D-03 0.187D-02 0.375D-02 0.566D-03-0.643D-02
 Coeff:     -0.237D-01-0.308D-01 0.135D+00 0.608D+00-0.137D+01 0.107D+01
 Coeff:      0.608D+00
 Gap=     0.011 Goal=   None    Shift=    0.000
 Gap=     0.011 Goal=   None    Shift=    0.000
 RMSDP=3.95D-04 MaxDP=3.37D-02 DE= 2.96D-06 OVMax= 3.52D-03

 Cycle  20  Pass 1  IDiag  1:
 RMSU=  8.26D-05    CP:  1.42D+00  2.03D-03  3.58D-01 -1.44D-03  1.59D+00
                    CP:  1.22D+00  1.36D-03  1.41D+00  1.65D+00  1.25D+00
                    CP:  1.99D+00  2.76D-01 -1.70D+00 -3.00D+00 -1.39D+00
                    CP:  1.34D-01 -2.38D-01  3.00D+00  1.48D+00
 E= -798.719562730266     Delta-E=        0.000000096466 Rises=F Damp=F
 DIIS: error= 6.91D-06 at cycle  20 NSaved=  20.
 NSaved=20 IEnMin=17 EnMin= -798.719569953480     IErMin=20 ErrMin= 6.91D-06
 ErrMax= 6.91D-06  0.00D+00 EMaxC= 1.00D-01 BMatC= 1.13D-07 BMatP= 2.09D-07
 IDIUse=1 WtCom= 1.00D+00 WtEn= 0.00D+00
 Coeff-Com:  0.393D-04-0.320D-04-0.365D-04 0.625D-05 0.622D-04 0.762D-04
 Coeff-Com: -0.529D-04 0.645D-03 0.151D-02 0.266D-02 0.112D-02-0.481D-02
 Coeff-Com: -0.164D-01-0.381D-01-0.450D-01-0.221D+00 0.597D-01 0.203D+00
 Coeff-Com:  0.271D+00 0.785D+00
 Coeff:      0.393D-04-0.320D-04-0.365D-04 0.625D-05 0.622D-04 0.762D-04
 Coeff:     -0.529D-04 0.645D-03 0.151D-02 0.266D-02 0.112D-02-0.481D-02
 Coeff:     -0.164D-01-0.381D-01-0.450D-01-0.221D+00 0.597D-01 0.203D+00
 Coeff:      0.271D+00 0.785D+00
 Gap=     0.011 Goal=   None    Shift=    0.000
 Gap=     0.011 Goal=   None    Shift=    0.000
 RMSDP=9.57D-05 MaxDP=8.25D-03 DE= 9.65D-08 OVMax= 6.95D-04

 Cycle  21  Pass 1  IDiag  1:
 Restarting incremental Fock formation.
 E= -798.719562776595     Delta-E=       -0.000000046330 Rises=F Damp=F
 DIIS: error= 3.10D-06 at cycle  21 NSaved=  20.
 NSaved=20 IEnMin=16 EnMin= -798.719569953480     IErMin=20 ErrMin= 3.10D-06
 ErrMax= 3.10D-06  0.00D+00 EMaxC= 1.00D-01 BMatC= 1.26D-08 BMatP= 1.13D-07
 IDIUse=1 WtCom= 1.00D+00 WtEn= 0.00D+00
 Coeff-Com:  0.601D-05 0.259D-05-0.847D-05 0.935D-05-0.302D-04-0.613D-05
 Coeff-Com:  0.194D-03 0.220D-03 0.623D-03 0.151D-02 0.604D-03 0.121D-02
 Coeff-Com: -0.409D-02-0.542D-01-0.374D+00 0.580D+00-0.295D+00-0.144D+00
 Coeff-Com:  0.439D+00 0.847D+00
 Coeff:      0.601D-05 0.259D-05-0.847D-05 0.935D-05-0.302D-04-0.613D-05
 Coeff:      0.194D-03 0.220D-03 0.623D-03 0.151D-02 0.604D-03 0.121D-02
 Coeff:     -0.409D-02-0.542D-01-0.374D+00 0.580D+00-0.295D+00-0.144D+00
 Coeff:      0.439D+00 0.847D+00
 Gap=     0.011 Goal=   None    Shift=    0.000
 Gap=     0.011 Goal=   None    Shift=    0.000
 RMSDP=6.10D-05 MaxDP=4.22D-03 DE=-4.63D-08 OVMax= 4.27D-04

 Cycle  22  Pass 1  IDiag  1:
 RMSU=  5.74D-05    CP:  1.00D+00
 E= -798.719562781387     Delta-E=       -0.000000004792 Rises=F Damp=F
 DIIS: error= 1.75D-06 at cycle  22 NSaved=  20.
 NSaved=20 IEnMin=15 EnMin= -798.719569953480     IErMin=20 ErrMin= 1.75D-06
 ErrMax= 1.75D-06  0.00D+00 EMaxC= 1.00D-01 BMatC= 5.29D-09 BMatP= 1.26D-08
 IDIUse=1 WtCom= 1.00D+00 WtEn= 0.00D+00
 Coeff-Com: -0.487D-06-0.852D-06-0.146D-04-0.126D-04 0.375D-05-0.418D-04
 Coeff-Com: -0.529D-05 0.949D-04 0.398D-03-0.101D-03-0.108D-03-0.104D-02
 Coeff-Com: -0.178D-01-0.126D+00 0.196D+00-0.967D-01-0.433D-01 0.157D+00
 Coeff-Com:  0.367D+00 0.565D+00
 Coeff:     -0.487D-06-0.852D-06-0.146D-04-0.126D-04 0.375D-05-0.418D-04
 Coeff:     -0.529D-05 0.949D-04 0.398D-03-0.101D-03-0.108D-03-0.104D-02
 Coeff:     -0.178D-01-0.126D+00 0.196D+00-0.967D-01-0.433D-01 0.157D+00
 Coeff:      0.367D+00 0.565D+00
 Gap=     0.011 Goal=   None    Shift=    0.000
 Gap=     0.011 Goal=   None    Shift=    0.000
 RMSDP=1.19D-05 MaxDP=1.08D-03 DE=-4.79D-09 OVMax= 7.77D-05

 Cycle  23  Pass 1  IDiag  1:
 RMSU=  6.37D-06    CP:  1.00D+00  1.13D+00
 E= -798.719562783693     Delta-E=       -0.000000002306 Rises=F Damp=F
 DIIS: error= 8.67D-07 at cycle  23 NSaved=  20.
 NSaved=20 IEnMin=14 EnMin= -798.719569953480     IErMin=20 ErrMin= 8.67D-07
 ErrMax= 8.67D-07  0.00D+00 EMaxC= 1.00D-01 BMatC= 8.94D-10 BMatP= 5.29D-09
 IDIUse=1 WtCom= 1.00D+00 WtEn= 0.00D+00
 Coeff-Com: -0.226D-05-0.363D-05 0.589D-05 0.124D-05-0.574D-04-0.511D-04
 Coeff-Com: -0.108D-03-0.134D-03-0.315D-03-0.632D-03-0.192D-02-0.582D-02
 Coeff-Com: -0.283D-01 0.337D-01-0.657D-02 0.616D-02 0.463D-01 0.526D-01
 Coeff-Com:  0.174D+00 0.731D+00
 Coeff:     -0.226D-05-0.363D-05 0.589D-05 0.124D-05-0.574D-04-0.511D-04
 Coeff:     -0.108D-03-0.134D-03-0.315D-03-0.632D-03-0.192D-02-0.582D-02
 Coeff:     -0.283D-01 0.337D-01-0.657D-02 0.616D-02 0.463D-01 0.526D-01
 Coeff:      0.174D+00 0.731D+00
 Gap=     0.011 Goal=   None    Shift=    0.000
 Gap=     0.011 Goal=   None    Shift=    0.000
 RMSDP=9.11D-06 MaxDP=7.30D-04 DE=-2.31D-09 OVMax= 6.10D-05

 Cycle  24  Pass 1  IDiag  1:
 RMSU=  5.86D-06    CP:  1.00D+00  1.22D+00  1.45D+00
 E= -798.719562784551     Delta-E=       -0.000000000859 Rises=F Damp=F
 DIIS: error= 2.33D-07 at cycle  24 NSaved=  20.
 NSaved=20 IEnMin=13 EnMin= -798.719569953480     IErMin=20 ErrMin= 2.33D-07
 ErrMax= 2.33D-07  0.00D+00 EMaxC= 1.00D-01 BMatC= 4.67D-11 BMatP= 8.94D-10
 IDIUse=1 WtCom= 1.00D+00 WtEn= 0.00D+00
 Coeff-Com:  0.426D-05-0.264D-05 0.209D-06 0.149D-04-0.376D-04-0.945D-04
 Coeff-Com: -0.986D-04 0.213D-03 0.499D-03-0.167D-03 0.241D-02 0.188D-01
 Coeff-Com: -0.289D-01 0.119D-01 0.295D-02-0.362D-01-0.114D+00-0.259D+00
 Coeff-Com:  0.730D-01 0.133D+01
 Coeff:      0.426D-05-0.264D-05 0.209D-06 0.149D-04-0.376D-04-0.945D-04
 Coeff:     -0.986D-04 0.213D-03 0.499D-03-0.167D-03 0.241D-02 0.188D-01
 Coeff:     -0.289D-01 0.119D-01 0.295D-02-0.362D-01-0.114D+00-0.259D+00
 Coeff:      0.730D-01 0.133D+01
 Gap=     0.011 Goal=   None    Shift=    0.000
 Gap=     0.011 Goal=   None    Shift=    0.000
 RMSDP=1.66D-05 MaxDP=8.05D-04 DE=-8.59D-10 OVMax= 1.20D-04

 Cycle  25  Pass 1  IDiag  1:
 RMSU=  1.75D-06    CP:  1.00D+00  1.39D+00  1.71D+00  3.00D+00
 E= -798.719562785175     Delta-E=       -0.000000000623 Rises=F Damp=F
 DIIS: error= 1.34D-07 at cycle  25 NSaved=  20.
 NSaved=20 IEnMin=12 EnMin= -798.719569953480     IErMin=20 ErrMin= 1.34D-07
 ErrMax= 1.34D-07  0.00D+00 EMaxC= 1.00D-01 BMatC= 2.76D-11 BMatP= 4.67D-11
 IDIUse=1 WtCom= 1.00D+00 WtEn= 0.00D+00
 Coeff-Com:  0.225D-05-0.190D-05 0.134D-04-0.879D-05-0.164D-04 0.462D-04
 Coeff-Com:  0.193D-03 0.410D-03 0.937D-03 0.285D-03 0.987D-02-0.381D-02
 Coeff-Com: -0.780D-02-0.643D-02-0.262D-01-0.287D-01-0.952D-01-0.140D+00
 Coeff-Com:  0.286D+00 0.101D+01
 Coeff:      0.225D-05-0.190D-05 0.134D-04-0.879D-05-0.164D-04 0.462D-04
 Coeff:      0.193D-03 0.410D-03 0.937D-03 0.285D-03 0.987D-02-0.381D-02
 Coeff:     -0.780D-02-0.643D-02-0.262D-01-0.287D-01-0.952D-01-0.140D+00
 Coeff:      0.286D+00 0.101D+01
 Gap=     0.011 Goal=   None    Shift=    0.000
 Gap=     0.011 Goal=   None    Shift=    0.000
 RMSDP=8.58D-06 MaxDP=4.55D-04 DE=-6.23D-10 OVMax= 6.30D-05

 Cycle  26  Pass 1  IDiag  1:
 RMSU=  3.02D-06    CP:  1.00D+00  1.50D+00  1.82D+00  3.00D+00  3.00D+00
 E= -798.719562785319     Delta-E=       -0.000000000144 Rises=F Damp=F
 DIIS: error= 4.35D-08 at cycle  26 NSaved=  20.
 NSaved=20 IEnMin=11 EnMin= -798.719569953480     IErMin=20 ErrMin= 4.35D-08
 ErrMax= 4.35D-08  0.00D+00 EMaxC= 1.00D-01 BMatC= 4.11D-12 BMatP= 2.76D-11
 IDIUse=1 WtCom= 1.00D+00 WtEn= 0.00D+00
 Coeff-Com: -0.696D-06 0.279D-05 0.244D-05 0.195D-04 0.664D-04 0.884D-04
 Coeff-Com:  0.115D-03 0.783D-03 0.238D-03 0.836D-02-0.621D-02-0.235D-02
 Coeff-Com: -0.687D-03-0.994D-02-0.676D-03-0.788D-02-0.796D-01-0.144D+00
 Coeff-Com:  0.580D+00 0.661D+00
 Coeff:     -0.696D-06 0.279D-05 0.244D-05 0.195D-04 0.664D-04 0.884D-04
 Coeff:      0.115D-03 0.783D-03 0.238D-03 0.836D-02-0.621D-02-0.235D-02
 Coeff:     -0.687D-03-0.994D-02-0.676D-03-0.788D-02-0.796D-01-0.144D+00
 Coeff:      0.580D+00 0.661D+00
 Gap=     0.011 Goal=   None    Shift=    0.000
 Gap=     0.011 Goal=   None    Shift=    0.000
 RMSDP=2.79D-06 MaxDP=1.15D-04 DE=-1.44D-10 OVMax= 2.21D-05

 Cycle  27  Pass 1  IDiag  1:
 RMSU=  1.21D-06    CP:  1.00D+00  1.52D+00  1.85D+00  3.00D+00  3.00D+00
                    CP:  1.72D+00
 E= -798.719562785331     Delta-E=       -0.000000000012 Rises=F Damp=F
 DIIS: error= 1.40D-08 at cycle  27 NSaved=  20.
 NSaved=20 IEnMin=10 EnMin= -798.719569953480     IErMin=20 ErrMin= 1.40D-08
 ErrMax= 1.40D-08  0.00D+00 EMaxC= 1.00D-01 BMatC= 4.02D-13 BMatP= 4.11D-12
 IDIUse=1 WtCom= 1.00D+00 WtEn= 0.00D+00
 Coeff-Com:  0.595D-06-0.208D-06 0.409D-05 0.182D-04 0.245D-04 0.287D-04
 Coeff-Com:  0.198D-03-0.560D-03-0.241D-03 0.155D-02-0.148D-02-0.108D-03
 Coeff-Com:  0.659D-03 0.223D-02 0.132D-02-0.712D-02-0.542D-01 0.213D-01
 Coeff-Com:  0.177D+00 0.859D+00
 Coeff:      0.595D-06-0.208D-06 0.409D-05 0.182D-04 0.245D-04 0.287D-04
 Coeff:      0.198D-03-0.560D-03-0.241D-03 0.155D-02-0.148D-02-0.108D-03
 Coeff:      0.659D-03 0.223D-02 0.132D-02-0.712D-02-0.542D-01 0.213D-01
 Coeff:      0.177D+00 0.859D+00
 Gap=     0.011 Goal=   None    Shift=    0.000
 Gap=     0.011 Goal=   None    Shift=    0.000
 RMSDP=8.40D-07 MaxDP=3.58D-05 DE=-1.23D-11 OVMax= 6.75D-06

 Cycle  28  Pass 1  IDiag  1:
 RMSU=  1.00D-07    CP:  1.00D+00  1.53D+00  1.88D+00  3.00D+00  3.00D+00
                    CP:  1.83D+00  1.25D+00
 E= -798.719562785345     Delta-E=       -0.000000000014 Rises=F Damp=F
 DIIS: error= 9.23D-09 at cycle  28 NSaved=  20.
 NSaved=20 IEnMin= 9 EnMin= -798.719569953480     IErMin=20 ErrMin= 9.23D-09
 ErrMax= 9.23D-09  0.00D+00 EMaxC= 1.00D-01 BMatC= 1.50D-13 BMatP= 4.02D-13
 IDIUse=1 WtCom= 1.00D+00 WtEn= 0.00D+00
 Coeff-Com: -0.133D-06 0.166D-05 0.444D-05 0.454D-05-0.928D-05 0.374D-04
 Coeff-Com: -0.230D-03-0.244D-03 0.329D-03-0.233D-04 0.327D-03 0.120D-02
 Coeff-Com:  0.398D-03-0.296D-03 0.229D-02-0.755D-02-0.395D-01 0.388D-02
 Coeff-Com:  0.379D+00 0.660D+00
 Coeff:     -0.133D-06 0.166D-05 0.444D-05 0.454D-05-0.928D-05 0.374D-04
 Coeff:     -0.230D-03-0.244D-03 0.329D-03-0.233D-04 0.327D-03 0.120D-02
 Coeff:      0.398D-03-0.296D-03 0.229D-02-0.755D-02-0.395D-01 0.388D-02
 Coeff:      0.379D+00 0.660D+00
 Gap=     0.011 Goal=   None    Shift=    0.000
 Gap=     0.011 Goal=   None    Shift=    0.000
 RMSDP=1.38D-07 MaxDP=1.01D-05 DE=-1.43D-11 OVMax= 1.06D-06

 Cycle  29  Pass 1  IDiag  1:
 RMSU=  1.11D-08    CP:  1.00D+00  1.53D+00  1.88D+00  3.00D+00  3.00D+00
                    CP:  1.85D+00  1.32D+00  1.33D+00
 E= -798.719562785333     Delta-E=        0.000000000013 Rises=F Damp=F
 DIIS: error= 2.15D-09 at cycle  29 NSaved=  20.
 NSaved=20 IEnMin= 8 EnMin= -798.719569953480     IErMin=20 ErrMin= 2.15D-09
 ErrMax= 2.15D-09  0.00D+00 EMaxC= 1.00D-01 BMatC= 1.31D-14 BMatP= 1.50D-13
 IDIUse=1 WtCom= 1.00D+00 WtEn= 0.00D+00
 Coeff-Com:  0.464D-06-0.324D-06-0.834D-06-0.112D-04-0.744D-05-0.671D-04
 Coeff-Com: -0.843D-04-0.109D-03 0.249D-03 0.303D-03 0.689D-03-0.380D-03
 Coeff-Com: -0.711D-03 0.273D-02 0.653D-02-0.292D-01-0.311D-01 0.801D-01
 Coeff-Com:  0.365D+00 0.606D+00
 Coeff:      0.464D-06-0.324D-06-0.834D-06-0.112D-04-0.744D-05-0.671D-04
 Coeff:     -0.843D-04-0.109D-03 0.249D-03 0.303D-03 0.689D-03-0.380D-03
 Coeff:     -0.711D-03 0.273D-02 0.653D-02-0.292D-01-0.311D-01 0.801D-01
 Coeff:      0.365D+00 0.606D+00
 Gap=     0.011 Goal=   None    Shift=    0.000
 Gap=     0.011 Goal=   None    Shift=    0.000
 RMSDP=7.07D-08 MaxDP=5.32D-06 DE= 1.27D-11 OVMax= 6.05D-07

 Cycle  30  Pass 1  IDiag  1:
 RMSU=  8.05D-09    CP:  1.00D+00  1.53D+00  1.88D+00  3.00D+00  3.00D+00
                    CP:  1.86D+00  1.35D+00  1.43D+00  1.83D+00
 E= -798.719562785330     Delta-E=        0.000000000003 Rises=F Damp=F
 DIIS: error= 1.47D-09 at cycle  30 NSaved=  20.
 NSaved=20 IEnMin= 7 EnMin= -798.719569953480     IErMin=20 ErrMin= 1.47D-09
 ErrMax= 1.47D-09  0.00D+00 EMaxC= 1.00D-01 BMatC= 4.10D-15 BMatP= 1.31D-14
 IDIUse=1 WtCom= 1.00D+00 WtEn= 0.00D+00
 Large coefficients: NSaved= 20 BigCof=    0.00 CofMax=   10.00 Det=-6.02D-15
 Inversion failed.  Reducing to 19 matrices.
 Large coefficients: NSaved= 19 BigCof=    0.00 CofMax=   10.00 Det=-6.27D-15
 Inversion failed.  Reducing to 18 matrices.
 Large coefficients: NSaved= 18 BigCof=    0.00 CofMax=   10.00 Det=-6.28D-15
 Inversion failed.  Reducing to 17 matrices.
 Large coefficients: NSaved= 17 BigCof=    0.00 CofMax=   10.00 Det=-7.55D-15
 Inversion failed.  Reducing to 16 matrices.
 Large coefficients: NSaved= 16 BigCof=    0.00 CofMax=   10.00 Det=-8.24D-15
 Inversion failed.  Reducing to 15 matrices.
 Coeff-Com:  0.611D-05-0.178D-04-0.246D-04 0.885D-04-0.800D-04 0.716D-05
 Coeff-Com:  0.246D-03-0.154D-03 0.670D-03-0.563D-03-0.392D-02-0.109D-01
 Coeff-Com:  0.319D-01 0.197D+00 0.786D+00
 Coeff:      0.611D-05-0.178D-04-0.246D-04 0.885D-04-0.800D-04 0.716D-05
 Coeff:      0.246D-03-0.154D-03 0.670D-03-0.563D-03-0.392D-02-0.109D-01
 Coeff:      0.319D-01 0.197D+00 0.786D+00
 Gap=     0.011 Goal=   None    Shift=    0.000
 Gap=     0.011 Goal=   None    Shift=    0.000
 RMSDP=4.30D-08 MaxDP=3.45D-06 DE= 2.73D-12 OVMax= 3.57D-07

 Cycle  31  Pass 1  IDiag  1:
 RMSU=  2.12D-09    CP:  1.00D+00  1.53D+00  1.88D+00  3.00D+00  3.00D+00
                    CP:  1.85D+00  1.34D+00  1.53D+00  2.20D+00  1.55D+00
 E= -798.719562785327     Delta-E=        0.000000000003 Rises=F Damp=F
 DIIS: error= 8.41D-10 at cycle  31 NSaved=  16.
 NSaved=16 IEnMin= 4 EnMin= -798.719569953480     IErMin=16 ErrMin= 8.41D-10
 ErrMax= 8.41D-10  0.00D+00 EMaxC= 1.00D-01 BMatC= 1.26D-15 BMatP= 4.10D-15
 IDIUse=1 WtCom= 1.00D+00 WtEn= 0.00D+00
 Large coefficients: NSaved= 16 BigCof=    0.00 CofMax=   10.00 Det=-2.35D-15
 Inversion failed.  Reducing to 15 matrices.
 Coeff-Com:  0.242D-05 0.202D-05-0.634D-05 0.259D-04-0.330D-04-0.398D-05
 Coeff-Com: -0.384D-04 0.150D-02-0.117D-02-0.364D-02-0.118D-01 0.529D-02
 Coeff-Com:  0.100D+00 0.501D+00 0.409D+00
 Coeff:      0.242D-05 0.202D-05-0.634D-05 0.259D-04-0.330D-04-0.398D-05
 Coeff:     -0.384D-04 0.150D-02-0.117D-02-0.364D-02-0.118D-01 0.529D-02
 Coeff:      0.100D+00 0.501D+00 0.409D+00
 Gap=     0.011 Goal=   None    Shift=    0.000
 Gap=     0.011 Goal=   None    Shift=    0.000
 RMSDP=1.28D-08 MaxDP=1.00D-06 DE= 3.18D-12 OVMax= 1.08D-07

 Cycle  32  Pass 1  IDiag  1:
 RMSU=  7.68D-10    CP:  1.00D+00  1.53D+00  1.88D+00  3.00D+00  3.00D+00
                    CP:  1.85D+00  1.35D+00  1.54D+00  2.40D+00  1.71D+00
                    CP:  1.12D+00
 E= -798.719562785342     Delta-E=       -0.000000000015 Rises=F Damp=F
 DIIS: error= 1.71D-10 at cycle  32 NSaved=  16.
 NSaved=16 IEnMin= 4 EnMin= -798.719569953480     IErMin=16 ErrMin= 1.71D-10
 ErrMax= 1.71D-10  0.00D+00 EMaxC= 1.00D-01 BMatC= 3.16D-17 BMatP= 1.26D-15
 IDIUse=1 WtCom= 1.00D+00 WtEn= 0.00D+00
 Large coefficients: NSaved= 16 BigCof=    0.00 CofMax=   10.00 Det=-1.77D-16
 Inversion failed.  Reducing to 15 matrices.
 Coeff-Com:  0.628D-06-0.305D-06-0.763D-05 0.156D-04-0.134D-04 0.507D-06
 Coeff-Com:  0.304D-03-0.290D-04-0.430D-03-0.440D-02-0.696D-02 0.144D-01
 Coeff-Com:  0.137D+00 0.159D+00 0.701D+00
 Coeff:      0.628D-06-0.305D-06-0.763D-05 0.156D-04-0.134D-04 0.507D-06
 Coeff:      0.304D-03-0.290D-04-0.430D-03-0.440D-02-0.696D-02 0.144D-01
 Coeff:      0.137D+00 0.159D+00 0.701D+00
 Gap=     0.011 Goal=   None    Shift=    0.000
 Gap=     0.011 Goal=   None    Shift=    0.000
 RMSDP=3.74D-09 MaxDP=2.20D-07 DE=-1.55D-11 OVMax= 1.19D-08

 SCF Done:  E(UB3LYP) =  -798.719562785     A.U. after   32 cycles
            NFock= 32  Conv=0.37D-08     -V/T= 2.0039
 <Sx>= 0.0000 <Sy>= 0.0000 <Sz>= 0.0000 <S**2>=-0.0000 S=-0.0000
 <L.S>=  0.00000000000    
 KE= 7.955862353299D+02 PE=-4.186859985706D+03 EE= 1.449330429917D+03
 Annihilation of the first spin contaminant:
 S**2 before annihilation    -0.0000,   after    -0.0000
 Leave Link  502 at Mon Jan  8 16:58:45 2024, MaxMem=  4026531840 cpu:            4206.3 elap:             526.5
 (Enter /sysapps/ubuntu-applications/gaussian/Gaussian/AVX2/g16/l601.exe)
 Copying SCF densities to generalized density rwf, IOpCl= 1 IROHF=0.

 **********************************************************************

            Population analysis using the SCF density.

 **********************************************************************

 Alpha  occ. eigenvalues --  -18.85736 -18.78350 -18.76225 -14.10163 -14.03285
 Alpha  occ. eigenvalues --  -10.04373  -9.97578  -9.93304  -9.92576  -9.91923
 Alpha  occ. eigenvalues --   -9.91776  -9.91764  -9.91599  -9.91182  -9.90799
 Alpha  occ. eigenvalues --   -9.89327  -9.89174  -0.80062  -0.71233  -0.68112
 Alpha  occ. eigenvalues --   -0.67196  -0.61990  -0.58488  -0.53710  -0.51176
 Alpha  occ. eigenvalues --   -0.48441  -0.45930  -0.40597  -0.37553  -0.34690
 Alpha  occ. eigenvalues --   -0.31616  -0.29803  -0.27734  -0.25752  -0.24740
 Alpha  occ. eigenvalues --   -0.23851  -0.23355  -0.20490  -0.19510  -0.18321
 Alpha  occ. eigenvalues --   -0.17203  -0.16660  -0.16284  -0.15850  -0.14669
 Alpha  occ. eigenvalues --   -0.12699  -0.11528  -0.10250  -0.09412  -0.08842
 Alpha  occ. eigenvalues --   -0.07703  -0.06157  -0.04578  -0.03524  -0.02531
 Alpha  occ. eigenvalues --    0.01095   0.02410   0.03253   0.05501   0.06353
 Alpha  occ. eigenvalues --    0.13894
 Alpha virt. eigenvalues --    0.14977   0.16579   0.18245   0.18273   0.19237
 Alpha virt. eigenvalues --    0.20510   0.21332   0.21836   0.22496   0.22942
 Alpha virt. eigenvalues --    0.24088   0.24950   0.25774   0.26323   0.26362
 Alpha virt. eigenvalues --    0.26584   0.27276   0.27474   0.27662   0.28474
 Alpha virt. eigenvalues --    0.28578   0.28899   0.29585   0.29923   0.30192
 Alpha virt. eigenvalues --    0.31013   0.31808   0.32065   0.32460   0.32895
 Alpha virt. eigenvalues --    0.33296   0.33625   0.33844   0.34562   0.34756
 Alpha virt. eigenvalues --    0.35250   0.35577   0.35842   0.36280   0.36549
 Alpha virt. eigenvalues --    0.37174   0.37584   0.38215   0.38518   0.38793
 Alpha virt. eigenvalues --    0.39236   0.39871   0.40223   0.40945   0.41575
 Alpha virt. eigenvalues --    0.42749   0.43263   0.43313   0.43534   0.44410
 Alpha virt. eigenvalues --    0.45039   0.45599   0.46210   0.46697   0.47125
 Alpha virt. eigenvalues --    0.47649   0.47965   0.48601   0.48678   0.49055
 Alpha virt. eigenvalues --    0.49395   0.49588   0.49802   0.50186   0.50491
 Alpha virt. eigenvalues --    0.51318   0.51450   0.51691   0.52236   0.52892
 Alpha virt. eigenvalues --    0.53595   0.54524   0.54829   0.55247   0.55478
 Alpha virt. eigenvalues --    0.55815   0.56392   0.56832   0.57256   0.57298
 Alpha virt. eigenvalues --    0.57990   0.58533   0.58770   0.58938   0.59656
 Alpha virt. eigenvalues --    0.60468   0.61067   0.62688   0.63080   0.63988
 Alpha virt. eigenvalues --    0.65894   0.66603   0.67129   0.67845   0.68352
 Alpha virt. eigenvalues --    0.68891   0.69839   0.70727   0.71954   0.73874
 Alpha virt. eigenvalues --    0.76929   0.77388   0.78562   0.79123   0.79484
 Alpha virt. eigenvalues --    0.80657   0.81139   0.82306   0.82823   0.83681
 Alpha virt. eigenvalues --    0.84107   0.84563   0.85431   0.86103   0.87032
 Alpha virt. eigenvalues --    0.88582   0.89618   0.90416   0.90463   0.91169
 Alpha virt. eigenvalues --    0.91575   0.92431   0.92600   0.92908   0.93803
 Alpha virt. eigenvalues --    0.94462   0.94753   0.95987   0.97654   0.98242
 Alpha virt. eigenvalues --    0.99671   1.00159   1.01421   1.02557   1.04081
 Alpha virt. eigenvalues --    1.05112   1.06214   1.07528   1.08126   1.08985
 Alpha virt. eigenvalues --    1.09377   1.10469   1.11026   1.12720   1.13643
 Alpha virt. eigenvalues --    1.14783   1.15813   1.17596   1.17897   1.19675
 Alpha virt. eigenvalues --    1.19874   1.20465   1.22080   1.22357   1.23507
 Alpha virt. eigenvalues --    1.24068   1.24715   1.26675   1.27148   1.28412
 Alpha virt. eigenvalues --    1.29537   1.30696   1.31857   1.33776   1.34658
 Alpha virt. eigenvalues --    1.35171   1.35569   1.36370   1.37867   1.39939
 Alpha virt. eigenvalues --    1.40978   1.41574   1.43759   1.44837   1.45238
 Alpha virt. eigenvalues --    1.47082   1.50710   1.51078   1.51999   1.53356
 Alpha virt. eigenvalues --    1.54192   1.55326   1.56226   1.56500   1.58362
 Alpha virt. eigenvalues --    1.59708   1.62548   1.63557   1.64528   1.65383
 Alpha virt. eigenvalues --    1.66316   1.71506   1.74318   1.75930   1.76563
 Alpha virt. eigenvalues --    1.77469   1.77537   1.78419   1.78751   1.79634
 Alpha virt. eigenvalues --    1.80941   1.81362   1.82494   1.83544   1.84997
 Alpha virt. eigenvalues --    1.88403   1.89484   1.90645   1.91620   1.93124
 Alpha virt. eigenvalues --    1.94705   1.96215   1.96918   1.98403   1.98476
 Alpha virt. eigenvalues --    2.00436   2.01449   2.02735   2.03343   2.04140
 Alpha virt. eigenvalues --    2.05761   2.06844   2.09140   2.09837   2.10625
 Alpha virt. eigenvalues --    2.12697   2.13832   2.15007   2.15308   2.17084
 Alpha virt. eigenvalues --    2.18170   2.18656   2.20789   2.22334   2.22696
 Alpha virt. eigenvalues --    2.23631   2.25316   2.26153   2.27833   2.29556
 Alpha virt. eigenvalues --    2.31884   2.32751   2.34162   2.38451   2.41546
 Alpha virt. eigenvalues --    2.42527   2.43399   2.44973   2.48290   2.50294
 Alpha virt. eigenvalues --    2.50679   2.53199   2.56157   2.57132   2.58998
 Alpha virt. eigenvalues --    2.62461   2.64159   2.65567   2.68759   2.69799
 Alpha virt. eigenvalues --    2.71404   2.72301   2.72929   2.74071   2.75919
 Alpha virt. eigenvalues --    2.77199   2.78375   2.85450   2.85518   2.88757
 Alpha virt. eigenvalues --    2.90483   2.91818   2.92615   2.95063   2.95677
 Alpha virt. eigenvalues --    2.96449   2.98181   2.99908   3.01703   3.02393
 Alpha virt. eigenvalues --    3.03780   3.05135   3.05548   3.07836   3.09383
 Alpha virt. eigenvalues --    3.10181   3.11102   3.12772   3.13921   3.15023
 Alpha virt. eigenvalues --    3.15946   3.16097   3.16769   3.18485   3.18637
 Alpha virt. eigenvalues --    3.22244   3.23358   3.25674   3.26623   3.28004
 Alpha virt. eigenvalues --    3.33425   3.34094   3.34646   3.37989   3.39296
 Alpha virt. eigenvalues --    3.43332   3.43410   3.45422   3.48141   3.52027
 Alpha virt. eigenvalues --    3.53907   3.57700   3.57931   3.58954   3.59539
 Alpha virt. eigenvalues --    3.62198   3.62825   3.63857   3.67511   3.69740
 Alpha virt. eigenvalues --    3.76597   3.77305   3.79377   3.82917   3.85919
 Alpha virt. eigenvalues --    3.86719   3.90489   3.98229   3.99019   4.05615
 Alpha virt. eigenvalues --    4.08852   4.13289   4.17906   4.22444   4.29373
 Alpha virt. eigenvalues --    4.30393   4.36131   4.40373   4.43655   4.46792
 Alpha virt. eigenvalues --    4.59865   4.64650   5.03368   5.07831   5.09360
 Alpha virt. eigenvalues --    5.13159   5.20739   5.32552   5.34547   5.39148
 Alpha virt. eigenvalues --    5.41603   5.54687   5.59451   5.61478   6.01668
 Alpha virt. eigenvalues --    6.05559   6.11015  23.82411  24.06362  24.07501
 Alpha virt. eigenvalues --   24.17121  24.18432  24.22561  24.23191  24.26172
 Alpha virt. eigenvalues --   24.27434  24.34658  24.37528  24.43708  35.86580
 Alpha virt. eigenvalues --   35.93900  50.23873  50.33386  50.38452
  Beta  occ. eigenvalues --  -18.85736 -18.78350 -18.76225 -14.10163 -14.03285
  Beta  occ. eigenvalues --  -10.04373  -9.97578  -9.93304  -9.92576  -9.91923
  Beta  occ. eigenvalues --   -9.91776  -9.91764  -9.91599  -9.91182  -9.90799
  Beta  occ. eigenvalues --   -9.89327  -9.89174  -0.80062  -0.71233  -0.68112
  Beta  occ. eigenvalues --   -0.67196  -0.61990  -0.58488  -0.53710  -0.51176
  Beta  occ. eigenvalues --   -0.48441  -0.45930  -0.40597  -0.37553  -0.34690
  Beta  occ. eigenvalues --   -0.31616  -0.29803  -0.27734  -0.25752  -0.24740
  Beta  occ. eigenvalues --   -0.23851  -0.23355  -0.20490  -0.19510  -0.18321
  Beta  occ. eigenvalues --   -0.17203  -0.16660  -0.16284  -0.15850  -0.14669
  Beta  occ. eigenvalues --   -0.12699  -0.11528  -0.10250  -0.09412  -0.08842
  Beta  occ. eigenvalues --   -0.07703  -0.06157  -0.04578  -0.03524  -0.02531
  Beta  occ. eigenvalues --    0.01095   0.02410   0.03253   0.05501   0.06353
  Beta  occ. eigenvalues --    0.13894
  Beta virt. eigenvalues --    0.14977   0.16579   0.18245   0.18273   0.19237
  Beta virt. eigenvalues --    0.20510   0.21332   0.21836   0.22496   0.22942
  Beta virt. eigenvalues --    0.24088   0.24950   0.25774   0.26323   0.26362
  Beta virt. eigenvalues --    0.26584   0.27276   0.27474   0.27662   0.28474
  Beta virt. eigenvalues --    0.28578   0.28899   0.29585   0.29923   0.30192
  Beta virt. eigenvalues --    0.31013   0.31808   0.32065   0.32460   0.32895
  Beta virt. eigenvalues --    0.33296   0.33625   0.33844   0.34562   0.34756
  Beta virt. eigenvalues --    0.35250   0.35577   0.35842   0.36280   0.36549
  Beta virt. eigenvalues --    0.37174   0.37584   0.38215   0.38518   0.38793
  Beta virt. eigenvalues --    0.39236   0.39871   0.40223   0.40945   0.41575
  Beta virt. eigenvalues --    0.42749   0.43263   0.43313   0.43534   0.44410
  Beta virt. eigenvalues --    0.45039   0.45599   0.46210   0.46697   0.47125
  Beta virt. eigenvalues --    0.47649   0.47965   0.48601   0.48678   0.49055
  Beta virt. eigenvalues --    0.49395   0.49588   0.49802   0.50186   0.50491
  Beta virt. eigenvalues --    0.51318   0.51450   0.51691   0.52236   0.52892
  Beta virt. eigenvalues --    0.53595   0.54524   0.54829   0.55247   0.55478
  Beta virt. eigenvalues --    0.55815   0.56392   0.56832   0.57256   0.57298
  Beta virt. eigenvalues --    0.57990   0.58533   0.58770   0.58938   0.59656
  Beta virt. eigenvalues --    0.60468   0.61067   0.62688   0.63080   0.63988
  Beta virt. eigenvalues --    0.65894   0.66603   0.67129   0.67845   0.68352
  Beta virt. eigenvalues --    0.68891   0.69839   0.70727   0.71954   0.73874
  Beta virt. eigenvalues --    0.76929   0.77388   0.78562   0.79123   0.79484
  Beta virt. eigenvalues --    0.80657   0.81139   0.82306   0.82823   0.83681
  Beta virt. eigenvalues --    0.84107   0.84563   0.85431   0.86103   0.87032
  Beta virt. eigenvalues --    0.88582   0.89618   0.90416   0.90463   0.91169
  Beta virt. eigenvalues --    0.91575   0.92431   0.92600   0.92908   0.93803
  Beta virt. eigenvalues --    0.94462   0.94753   0.95987   0.97654   0.98242
  Beta virt. eigenvalues --    0.99671   1.00159   1.01421   1.02557   1.04081
  Beta virt. eigenvalues --    1.05112   1.06214   1.07528   1.08126   1.08985
  Beta virt. eigenvalues --    1.09377   1.10469   1.11026   1.12720   1.13643
  Beta virt. eigenvalues --    1.14783   1.15813   1.17596   1.17897   1.19675
  Beta virt. eigenvalues --    1.19874   1.20465   1.22080   1.22357   1.23507
  Beta virt. eigenvalues --    1.24068   1.24715   1.26675   1.27148   1.28412
  Beta virt. eigenvalues --    1.29537   1.30696   1.31857   1.33776   1.34658
  Beta virt. eigenvalues --    1.35171   1.35569   1.36370   1.37867   1.39939
  Beta virt. eigenvalues --    1.40978   1.41574   1.43759   1.44837   1.45238
  Beta virt. eigenvalues --    1.47082   1.50710   1.51078   1.51999   1.53356
  Beta virt. eigenvalues --    1.54192   1.55326   1.56226   1.56500   1.58362
  Beta virt. eigenvalues --    1.59708   1.62548   1.63557   1.64528   1.65383
  Beta virt. eigenvalues --    1.66316   1.71506   1.74318   1.75930   1.76563
  Beta virt. eigenvalues --    1.77469   1.77537   1.78419   1.78751   1.79634
  Beta virt. eigenvalues --    1.80941   1.81362   1.82494   1.83544   1.84997
  Beta virt. eigenvalues --    1.88403   1.89484   1.90645   1.91620   1.93124
  Beta virt. eigenvalues --    1.94705   1.96215   1.96918   1.98403   1.98476
  Beta virt. eigenvalues --    2.00436   2.01449   2.02735   2.03343   2.04140
  Beta virt. eigenvalues --    2.05761   2.06844   2.09140   2.09837   2.10625
  Beta virt. eigenvalues --    2.12697   2.13832   2.15007   2.15308   2.17084
  Beta virt. eigenvalues --    2.18170   2.18656   2.20789   2.22334   2.22696
  Beta virt. eigenvalues --    2.23631   2.25316   2.26153   2.27833   2.29556
  Beta virt. eigenvalues --    2.31884   2.32751   2.34162   2.38451   2.41546
  Beta virt. eigenvalues --    2.42527   2.43399   2.44973   2.48290   2.50294
  Beta virt. eigenvalues --    2.50679   2.53199   2.56157   2.57132   2.58998
[...]
 .00011245,-0.00001180,-0.00022234,0.00003166,0.00005098,0.00066926,-0.
 00002229,-0.00008515,0.00044719,0.00049464,0.00014195,-0.00280294,0.00
 128584,-0.00008909,0.05306296,0.62644140,-0.00004660,0.00016608,-0.000
 21775,0.00014162,-0.00039917,0.00021764,-0.00043297,0.00048166,-0.0007
 2219,-0.00035777,-0.00084478,-0.00067469,-0.00157197,0.00099212,0.0061
 0197,0.00065507,0.00022702,-0.00070878,0.00010417,0.00148032,0.0033482
 9,-0.00029427,-0.00436737,-0.00185281,0.01097631,-0.01463104,-0.046255
 38,0.00767653,-0.00058752,0.00773411,-0.00000700,-0.00043052,0.0005953
 0,0.00067257,0.00126877,0.00036089,0.00027516,-0.00016323,-0.00139957,
 -0.00003913,0.00000715,0.00009939,0.00005233,-0.00001590,0.00012369,0.
 00002256,0.00004540,0.00003751,0.00006424,0.00002551,0.00009287,0.0002
 8322,0.00009302,-0.00000678,-0.00251657,0.00132667,-0.00054193,0.08486
 381,0.09991629,0.11782227,-0.00288037,0.00047086,0.00038387,0.00226717
 ,-0.00021860,-0.00024508,0.00030474,0.00031893,-0.00038638,0.00220716,
 -0.00370716,-0.00027138,-0.00284291,0.00283645,0.00134961,0.00041518,-
 0.00028952,-0.00032582,-0.00502502,0.00504153,-0.00085230,0.01592342,0
 .00486571,-0.00495042,-0.03917385,0.01122030,-0.00119068,0.00600284,0.
 00018737,-0.00168599,-0.00010155,-0.00657877,0.00051020,0.00738012,0.0
 0259130,-0.00103076,-0.01263821,0.00070216,0.00118897,0.00005993,-0.00
 029773,0.00004413,0.00047246,-0.00022365,-0.00000566,0.00053510,0.0002
 5439,0.00000313,-0.00022435,0.00021957,0.00006290,-0.00054565,-0.00043
 875,-0.00074334,0.00886473,-0.00736011,0.00235592,-0.34633655,-0.00693
 931,-0.05004835,0.70114485,-0.00214432,0.00060770,0.00022584,0.0019107
 9,-0.00123295,-0.00023852,-0.00138349,0.00121795,-0.00003134,0.0007056
 2,-0.00378855,0.00009795,-0.00613869,0.00353289,0.00062432,0.00293042,
 -0.00008179,-0.00047949,0.00096342,0.00368804,-0.00129263,0.01316341,0
 .01192728,-0.00257015,0.02829059,0.00427131,0.00506765,0.00388629,-0.0
 2037419,-0.00324324,-0.00227770,-0.00529513,0.00033630,-0.00836638,0.0
 0981128,0.00323867,-0.01290530,0.00122847,0.00285935,0.00020334,-0.000
 24729,0.00001203,0.00028558,-0.00015578,0.00000200,0.00039084,0.000186
 84,0.00000725,-0.00001878,0.00019596,0.00004288,-0.00059037,-0.0009789
 5,-0.00057316,0.00731722,-0.01409522,0.00030551,0.00591409,-0.12795886
 ,-0.01015067,0.11103521,0.65741902,-0.00170822,-0.00020718,0.00003274,
 0.00086014,0.00145277,-0.00018936,0.00031551,-0.00156569,-0.00004070,0
 .00337287,0.00159203,-0.00033776,0.00319517,-0.00141684,-0.00006178,-0
 .00045374,-0.00037123,0.00051431,-0.00026507,-0.00225770,0.00181240,0.
 00277628,0.00719010,0.00316810,0.00611286,0.00346661,-0.00319200,-0.00
 011387,0.00040789,-0.00088221,-0.00030778,0.00165244,-0.00095771,0.003
 60574,-0.00475545,-0.00050194,-0.00296058,-0.00021362,-0.00072681,0.00
 015057,-0.00000709,-0.00008162,-0.00008775,0.00005018,0.00002330,-0.00
 002764,-0.00010197,-0.00008529,-0.00014729,-0.00011768,0.00022600,-0.0
 0098348,-0.00034949,-0.00112436,0.00281163,-0.00406837,0.00140276,-0.0
 6373094,-0.02291590,-0.06330552,0.13067800,0.17237279,0.29145226,0.000
 24207,0.00010602,-0.00001935,0.00001649,-0.00060629,0.00000533,-0.0003
 3968,0.00051190,-0.00002891,-0.00083176,-0.00095196,0.00006408,-0.0017
 2142,0.00024723,0.00062633,0.00047474,0.00015103,-0.00020748,0.0012676
 5,0.00114043,-0.00032591,-0.00077211,0.00020904,-0.00027913,0.00427020
 ,-0.00298578,-0.00313021,-0.00037754,-0.00094848,-0.00040039,-0.000473
 49,-0.00107303,0.00016959,-0.00093891,0.00141698,0.00001739,-0.0004032
 6,0.00000332,0.00048040,0.00001849,-0.00003758,0.00001161,0.00005677,-
 0.00003766,0.00000618,0.00004184,0.00005129,0.00001960,0.00000359,0.00
 002625,0.00000286,0.00016852,-0.00006111,0.00000774,0.00005729,-0.0001
 3360,-0.00025706,-0.03819218,0.03290430,0.00468024,-0.10578555,0.03450
 492,0.00419153,0.52480319,0.00041684,-0.00002544,0.00000081,-0.0002418
 2,-0.00009777,0.00010982,0.00035443,0.00020626,-0.00016304,-0.00074742
 ,-0.00018308,0.00005388,0.00061128,0.00052228,0.00019800,-0.00042445,-
 0.00013541,-0.00014085,-0.00143778,0.00115210,-0.00060364,0.00058847,-
 0.00243872,-0.00156817,-0.00503697,0.00457855,-0.00004483,0.00085037,0
 .00102090,0.00081041,0.00046055,-0.00100213,0.00041700,0.00030725,-0.0
 0038366,-0.00053853,0.00009682,-0.00029260,0.00037833,-0.00006842,-0.0
 0001172,0.00003016,0.00006346,-0.00002571,-0.00000921,0.00005200,0.000
 02823,0.00003286,0.00000912,0.00004636,-0.00004155,0.00016290,0.000142
 83,0.00025954,-0.00033711,0.00110610,-0.00044487,0.01550051,-0.0032946
 7,-0.00090219,0.04576618,-0.12210167,-0.00865070,0.06577844,0.48821297
 ,-0.00058199,-0.00017928,-0.00004967,0.00010356,0.00095647,-0.00010961
 ,0.00010814,-0.00107332,0.00025289,0.00193242,0.00165724,-0.00018799,0
 .00175221,-0.00207159,-0.00103794,-0.00054818,0.00012099,0.00045427,0.
 00086641,-0.00303795,0.00126353,-0.00228424,0.00119079,0.00292400,-0.0
 0222019,-0.00593637,0.00408780,-0.00170472,0.00484802,-0.00027947,0.00
 015134,0.00323587,-0.00083214,0.00153748,-0.00466679,0.00024394,0.0028
 8582,-0.00023560,-0.00044462,0.00005157,0.00007732,-0.00006756,-0.0001
 6890,0.00008500,-0.00000364,-0.00017519,-0.00010890,-0.00004915,-0.000
 03997,-0.00012950,0.00007926,-0.00020661,0.00000275,-0.00007703,-0.001
 64705,0.00131431,-0.00046269,-0.00900624,0.00628075,0.00637144,0.00944
 503,-0.01010964,-0.07065605,0.02441515,-0.00164518,0.52894077,0.001271
 50,-0.00068076,-0.00006527,-0.00088433,0.00016334,0.00014562,0.0010706
 4,-0.00045580,-0.00019232,-0.00152398,0.00069440,0.00028054,0.00555903
 ,-0.00363938,-0.00097110,-0.00220523,-0.00065824,0.00024883,0.00019307
 ,0.00355984,-0.00083991,-0.00368439,0.00020561,0.00075291,0.01041314,0
 .02544010,0.00447142,-0.01205154,0.02639659,0.00331602,-0.00065912,-0.
 00246683,0.00029584,0.01561342,-0.00872268,-0.00595163,-0.00161778,-0.
 00045854,0.00053765,0.00006621,-0.00008209,-0.00001107,0.00009191,-0.0
 0011238,-0.00000337,0.00011717,0.00001524,-0.00002032,-0.00067564,-0.0
 0006060,0.00004611,0.00018221,-0.00014126,0.00002700,0.00057995,-0.000
 81029,-0.00007394,-0.08729162,-0.08703268,-0.01734475,-0.01672463,-0.0
 2730346,-0.00901110,0.00006193,-0.00075958,-0.00124900,0.09370022,0.00
 062850,-0.00048550,0.00005854,-0.00053587,0.00037067,0.00008489,0.0007
 1364,-0.00054437,-0.00010711,-0.00016206,0.00089048,0.00009061,0.00359
 779,-0.00382374,-0.00135703,-0.00186776,-0.00033394,0.00026639,-0.0008
 2252,0.00049170,-0.00002005,0.00214245,-0.00015951,-0.00143245,0.00785
 206,-0.03225614,-0.00354533,0.00004871,0.00937605,0.00049787,0.0000616
 4,-0.00124594,0.00012629,0.00560343,-0.01102102,-0.00133406,-0.0006127
 4,0.00032812,0.00016032,0.00004866,-0.00005874,-0.00000928,0.00002291,
 -0.00003939,0.00000699,0.00002398,-0.00001768,-0.00003433,-0.00039747,
 0.00000550,0.00004749,0.00004574,-0.00017367,-0.00000910,0.00038875,-0
 .00075027,-0.00010010,-0.09169373,-0.31711275,-0.04599218,-0.00911197,
 0.00565635,-0.00128891,0.00320413,0.00000421,0.00062584,0.07183164,0.3
 4679988,-0.00036286,0.00008850,0.00014737,0.00020578,0.00005474,-0.000
 04114,-0.00014019,0.00001701,0.00000402,0.00051321,-0.00021136,-0.0001
 2957,-0.00103010,0.00024113,-0.00002130,0.00021827,0.00014459,0.000140
 02,-0.00015309,-0.00034114,0.00039762,0.00067442,0.00066066,0.00009844
 ,-0.00143076,-0.00578844,0.00313020,0.00227158,-0.00184049,0.00127535,
 0.00001589,0.00041044,-0.00009879,-0.00238034,0.00058072,-0.00767082,-
 0.00006027,0.00005392,0.00007966,-0.00001015,0.00001110,0.00001111,-0.
 00001276,0.00001394,0.00000709,-0.00003035,-0.00000055,-0.00001612,0.0
 0006802,-0.00000418,-0.00006810,-0.00004701,-0.00002577,-0.00000108,0.
 00001129,-0.00023770,-0.00015911,-0.01171729,-0.03476874,-0.02869517,-
 0.00809857,-0.00900068,-0.01012026,0.00125441,0.00092534,-0.00353821,0
 .02285596,0.05007337,0.03672066,-0.00000839,0.00000172,0.00002501,0.00
 002655,-0.00005807,0.00000476,0.00002512,0.00005444,-0.00002430,-0.000
 05882,-0.00016166,-0.00000912,-0.00007220,0.00009289,-0.00007770,-0.00
 001341,-0.00003962,0.00002724,0.00010773,0.00016606,-0.00005404,0.0000
 0559,0.00012305,-0.00008609,0.00059182,-0.00000673,0.00021198,0.000160
 48,-0.00001808,0.00004639,-0.00001962,-0.00021576,0.00002160,0.0002228
 1,-0.00004171,0.00000779,-0.00012088,-0.00002303,-0.00003083,0.0000043
 9,-0.00001236,0.00000128,0.00001792,-0.00001122,-0.00000251,0.00002351
 ,0.00001086,-0.00000145,-0.00001971,0.00001193,-0.00000790,0.00000193,
 0.00000937,-0.00000533,0.00011358,-0.00008966,0.00010254,-0.00070655,0
 .00048733,0.00009603,0.01114111,0.00873921,0.00346428,-0.13408798,-0.1
 1507107,-0.04407616,-0.00120589,0.00174118,0.00023248,0.14406776,-0.00
 013374,0.00001247,-0.00000081,0.00007118,0.00008331,-0.00002238,-0.000
 01883,-0.00010135,0.00004224,0.00030369,0.00009047,-0.00004106,0.00003
 675,-0.00004701,-0.00001293,0.00001668,0.00001557,0.00007468,0.0005407
 9,-0.00051880,0.00025949,-0.00110896,0.00031344,0.00074760,0.00066078,
 0.00000833,-0.00065104,0.00002703,-0.00041039,-0.00038047,0.00000789,0
 .00066721,-0.00015731,-0.00012882,0.00013699,0.00022302,0.00083762,-0.
 00016190,-0.00001745,0.00001080,0.00000965,-0.00001313,-0.00002091,0.0
 0001180,-0.00000172,-0.00001797,-0.00001095,-0.00001573,0.00001180,-0.
 00000987,0.00001523,-0.00001376,0.00003997,0.00000849,-0.00056390,0.00
 065908,-0.00031790,-0.00049074,0.00173750,0.00109926,-0.02466325,-0.01
 411933,-0.00558349,-0.11098287,-0.19968726,-0.05544887,0.00196941,0.00
 001445,-0.00036717,0.12467517,0.21533272,-0.00008608,0.00001014,0.0000
 1097,0.00004472,0.00004232,-0.00002560,-0.00001263,-0.00005392,0.00002
 539,0.00016812,0.00004225,0.00001258,-0.00000853,-0.00000082,-0.000113
 65,0.00001784,0.00000992,0.00003528,0.00026271,-0.00027711,0.00011224,
 -0.00044644,0.00019144,0.00029294,0.00032230,-0.00015776,-0.00013316,-
 0.00005230,-0.00025022,-0.00006225,-0.00001310,0.00033868,-0.00008693,
 -0.00001350,0.00022773,-0.00016982,0.00036908,-0.00006233,-0.00003856,
 0.00000719,0.00000615,-0.00000393,-0.00001243,0.00000713,0.00000262,-0
 .00000864,-0.00000668,-0.00000577,0.00000759,-0.00000545,0.00000972,-0
 .00000347,0.00000902,0.00000268,-0.00024725,0.00026846,-0.00009318,-0.
 00056946,0.00069690,-0.00027435,-0.00513400,-0.00268101,-0.00410754,-0
 .04284560,-0.05721028,-0.06847762,0.00036157,-0.00007157,0.00078642,0.
 04777208,0.06398740,0.06933179,0.00032681,0.00003114,0.00003468,-0.000
 15048,-0.00022548,0.00008349,0.00003889,0.00027617,-0.00008921,-0.0007
 1530,-0.00030894,0.00005541,-0.00040982,0.00035321,-0.00007163,-0.0000
 1475,0.00002324,-0.00011397,-0.00085861,0.00102072,-0.00065775,0.00093
 783,-0.00111877,-0.00108252,-0.00035498,0.00048085,0.00230580,0.000230
 04,-0.00020856,0.00047084,0.00012464,-0.00098223,0.00032872,-0.0003679
 2,0.00102536,0.00030782,-0.00084040,-0.00009794,0.00014279,-0.00004320
 ,-0.00000921,0.00003058,0.00004402,-0.00001999,-0.00000693,0.00003176,
 0.00002990,0.00001854,0.00001965,0.00003310,-0.00005573,0.00011569,0.0
 0006984,0.00014833,0.00050509,-0.00017004,0.00025948,-0.00203601,0.003
 26100,0.00129335,-0.01128102,0.00570233,-0.01869170,-0.10429485,0.0296
 5907,-0.10976942,0.00096835,0.00034573,-0.00116867,-0.00849494,0.00527
 999,-0.01416714,0.11604693,-0.00027190,-0.00004790,-0.00005020,0.00009
 447,0.00029154,-0.00006039,0.00000397,-0.00032567,0.00006775,0.0006971
 5,0.00047210,-0.00006284,0.00063896,-0.00038991,0.00021203,-0.00006566
 ,-0.00002877,0.00013105,0.00053881,-0.00100123,0.00059920,-0.00088811,
 0.00082638,0.00122344,0.00007072,0.00026775,-0.00205062,-0.00019833,0.
 00036857,-0.00059287,-0.00004846,0.00102786,-0.00031340,0.00028863,-0.
 00121529,-0.00018284,0.00079948,0.00007966,-0.00024340,0.00003287,0.00
 001741,-0.00002553,-0.00005011,0.00002474,0.00000676,-0.00004120,-0.00
 003604,-0.00001952,-0.00001252,-0.00003668,0.00004180,-0.00010403,-0.0
 0004535,-0.00012049,-0.00045252,0.00018919,-0.00019536,0.00196844,-0.0
 0300778,-0.00120680,0.01195792,-0.00724571,0.02515553,0.02732305,-0.06
 197666,0.05317162,-0.00028198,-0.00002893,0.00048937,-0.01079175,0.007
 83047,-0.02080010,-0.03593900,0.06353765,0.00042608,0.00007302,0.00003
 333,-0.00015513,-0.00042449,0.00008386,0.00002698,0.00050588,-0.000127
 47,-0.00109802,-0.00068781,0.00011246,-0.00074758,0.00082856,0.0001198
 2,0.00010853,-0.00001274,-0.00022462,-0.00105179,0.00163036,-0.0008815
 4,0.00158621,-0.00124116,-0.00167328,0.00027689,0.00146114,0.00140225,
 0.00063260,-0.00147778,0.00052832,0.00010985,-0.00167962,0.00048638,-0
 .00062247,0.00216921,0.00017661,-0.00154624,-0.00009363,0.00023945,-0.
 00005251,-0.00002782,0.00004254,0.00008157,-0.00003771,-0.00000282,0.0
 0007338,0.00005260,0.00003270,0.00002577,0.00006431,-0.00006533,0.0001
 5792,0.00006205,0.00016912,0.00087457,-0.00045824,0.00039267,0.0011918
 0,-0.00014778,0.00094739,0.00327612,-0.00254950,0.00225588,-0.10635556
 ,0.05266034,-0.22484036,0.00078157,-0.00013361,-0.00023922,-0.00257932
 ,0.00110688,-0.00655664,0.11825178,-0.05717659,0.24433606,-0.00024967,
 -0.00022085,-0.00004986,-0.00013906,0.00092155,-0.00005256,0.00014851,
 -0.00093846,0.00013386,0.00147359,0.00183269,-0.00018675,0.00214967,-0
 .00167367,-0.00027697,-0.00051815,0.00002914,0.00031255,0.00011577,-0.
 00250886,0.00114310,-0.00230199,-0.00009244,0.00184287,-0.00293513,0.0
 0025634,-0.00250331,-0.00063149,0.00424582,-0.00021084,0.00016755,0.00
 295187,-0.00053944,0.00100301,-0.00443523,-0.00034899,0.00234712,0.000
 31991,-0.00066855,0.00002420,0.00009585,-0.00004103,-0.00017924,0.0000
 9414,0.00000925,-0.00018207,-0.00011928,-0.00003051,-0.00000714,-0.000
 12335,0.00005963,-0.00022239,0.00000241,-0.00013704,-0.00118831,0.0007
 0933,-0.00038199,0.00130063,0.00217114,-0.00098120,-0.01886021,-0.0046
 2430,0.01581718,-0.15777317,-0.03904748,0.12722304,-0.00002067,0.00051
 517,0.00118044,-0.01183141,-0.00187084,0.01284488,0.01004541,0.0045129
 7,-0.01342975,0.17469852,-0.00020654,0.00001688,0.00002465,0.00012019,
 0.00009797,-0.00003365,-0.00005501,-0.00012090,0.00004898,0.00037268,0
 .00007493,-0.00002057,-0.00006386,-0.00013458,-0.00027153,0.00006124,0
 .00003216,0.00004983,0.00026280,-0.00042524,0.00013845,-0.00010643,0.0
 0081881,0.00034551,0.00107311,-0.00122420,0.00089963,-0.00027618,-0.00
 041054,-0.00002402,-0.00004499,0.00040135,-0.00011037,0.00005780,0.000
 24095,0.00013086,0.00004346,-0.00004504,0.00002969,0.00001609,0.000004
 38,-0.00001015,-0.00001649,0.00000936,0.00000025,-0.00001242,-0.000009
 22,-0.00000943,-0.00000127,-0.00001200,0.00001186,-0.00004548,-0.00001
 152,-0.00003081,-0.00008362,0.00001678,-0.00008128,-0.00056113,-0.0017
 0164,-0.00050963,0.01930824,0.00453173,-0.02031691,-0.03618234,-0.0540
 3828,0.03447311,0.00009596,-0.00030502,-0.00039553,-0.01524551,-0.0044
 3628,0.01836734,-0.00544916,-0.00208191,0.00514022,0.03762414,0.057532
 59,0.00034174,0.00020231,0.00004354,0.00005773,-0.00088639,0.00006555,
 -0.00012960,0.00092193,-0.00014757,-0.00153960,-0.00169276,0.00018615,
 -0.00199590,0.00162721,0.00029558,0.00046644,-0.00002731,-0.00032241,-
 0.00021414,0.00248943,-0.00111682,0.00187197,-0.00039091,-0.00194170,0
 .00231367,0.00097957,0.00137602,0.00078966,-0.00389980,0.00028444,-0.0
 0012951,-0.00279179,0.00056744,-0.00108722,0.00422250,0.00034910,-0.00
 209021,-0.00029963,0.00049389,-0.00003293,-0.00008405,0.00004652,0.000
 16746,-0.00008726,-0.00000650,0.00016719,0.00011153,0.00003471,0.00001
 682,0.00011577,-0.00006397,0.00023335,0.00002399,0.00013961,0.00108498
 ,-0.00058225,0.00041971,-0.00202170,-0.00077995,0.00109526,0.00603427,
 0.00270597,-0.00617867,0.12288447,0.03778134,-0.17665834,0.00062998,-0
 .00022530,-0.00007852,-0.00731140,-0.00178748,0.00760462,0.02012208,0.
 00451417,-0.01834163,-0.13793111,-0.04083958,0.19001763,0.00074630,-0.
 00041917,-0.00019510,-0.00100372,0.00125411,0.00010159,0.00015420,-0.0
 0116928,0.00016720,0.00077707,0.00353593,-0.00017307,0.00337546,-0.002
 75296,-0.00083390,-0.00080707,0.00019836,0.00032620,-0.00100390,-0.003
 31606,0.00119454,-0.00261059,-0.00314449,0.00210703,0.00504797,-0.0009
 7206,0.00244787,-0.00229274,0.00417862,0.00102651,0.00024811,0.0044509
 9,-0.00020430,-0.00246093,-0.00480787,0.00060976,0.00344705,0.00655436
 ,-0.00334017,-0.00005630,0.00022402,-0.00002958,-0.00034741,0.00018716
 ,0.00002199,-0.00037456,-0.00021350,-0.00000602,0.00010294,-0.00018397
 ,-0.00000151,-0.00102963,0.00017956,-0.00079369,-0.00798200,0.00159395
 ,-0.00120242,-0.03934087,-0.06282723,-0.03821667,-0.19429895,-0.160190
 51,-0.07886259,0.01450909,0.00249441,0.00320568,-0.00134395,0.00638802
 ,-0.00285933,0.00012948,0.00556501,0.00144248,0.00042716,0.00021815,-0
 .00024327,0.00356610,-0.00068528,-0.00269849,0.22242168,0.00231464,-0.
 00035402,-0.00011544,-0.00179332,0.00042037,0.00025176,0.00103517,-0.0
 0027119,0.00002042,-0.00172197,0.00233397,-0.00002139,0.00434491,-0.00
 094146,-0.00100546,-0.00194039,-0.00003084,0.00031454,0.00068931,-0.00
 325004,-0.00016229,-0.01261671,-0.01260785,0.00252310,-0.00677171,0.00
 316692,0.00457096,-0.00105641,0.00795676,0.00246814,0.00221559,0.00475
 065,-0.00016060,0.00028159,-0.00377685,-0.00045943,0.01620977,-0.00517
 184,-0.00025609,-0.00020712,0.00020151,-0.00000024,-0.00020780,0.00011
 816,-0.00002192,-0.00027317,-0.00012939,0.00000385,0.00015110,-0.00006
 155,-0.00007882,0.00166589,0.00105123,0.00177353,-0.00528244,0.0078490
 8,0.00074143,-0.03544919,-0.01002091,-0.02692828,-0.15694730,-0.386599
 40,-0.13915209,-0.01357761,-0.05132602,-0.02339710,0.00329443,0.004419
 19,-0.00078308,0.00567303,-0.00746029,-0.00262763,-0.00306233,0.002534
 53,0.00039391,-0.00062770,0.00117845,-0.00132122,0.20365972,0.44602083
 ,0.00093947,-0.00005996,-0.00008880,-0.00069522,-0.00036775,0.00017135
 ,-0.00021982,0.00048370,0.00006749,-0.00127561,0.00036360,0.00004379,-
 0.00031954,0.00022968,0.00047139,0.00025406,0.00011675,-0.00015106,-0.
 00007730,-0.00028738,-0.00023294,-0.00238082,-0.00317663,-0.00089988,-
 0.00283630,0.00266919,-0.00101156,0.00128956,0.00006165,0.00115187,-0.
 00011575,0.00067158,0.00047135,-0.00300205,0.00022707,-0.00020457,0.00
 047015,0.00488922,0.00156177,-0.00005850,0.00007275,0.00000966,-0.0000
 8684,0.00003735,-0.00002334,-0.00009885,-0.00002757,0.00002467,0.00011
 287,-0.00000349,-0.00010329,-0.00053298,0.00009536,0.00003227,-0.00182
 741,0.00103973,-0.00499870,-0.02365717,-0.02514881,-0.00029311,-0.0803
 6345,-0.14497847,-0.13833819,-0.00498732,-0.02169479,0.00315419,0.0009
 8278,0.00362183,0.00807945,0.00225267,-0.00274539,0.00192175,0.0020209
 8,-0.00251176,0.00159406,-0.00279691,0.00299308,0.00183637,0.11700928,
 0.18342944,0.12575401\\0.00001047,0.00000872,-0.00000145,-0.00000548,-
 0.00000207,0.00000023,0.00001038,0.00000301,-0.00000196,-0.00002816,-0
 .00000411,0.00000655,0.00001266,-0.00000539,0.00000001,-0.00001142,-0.
 00001174,0.00000060,0.00000912,0.00000535,-0.00001631,0.00001698,0.000
 00569,0.00000521,-0.00000052,-0.00000429,-0.00000812,0.00000691,0.0000
 4743,-0.00000233,-0.00000059,-0.00000226,0.00000836,0.00000149,-0.0000
 3516,-0.00000245,-0.00002749,0.00001108,-0.00000212,0.00000223,0.00000
 044,-0.00000044,0.00000034,-0.00000006,-0.00000147,-0.00000154,-0.0000
 0096,-0.00000102,0.00000145,0.00000086,-0.00000050,0.00000717,-0.00000
 706,0.00000108,0.00000921,-0.00000368,0.00000324,0.00002640,-0.0000035
 5,0.00002246,-0.00002774,-0.00000311,-0.00001489,0.00000263,-0.0000005
 2,-0.00000023,-0.00001969,-0.00001302,-0.00000256,-0.00000156,0.000002
 85,0.00000142,-0.00000485,0.00000181,0.00000029,0.00000002,0.00000357,
 0.00000191,0.00001156,0.00000615,0.00000450\\\@


 THERE IS NOTHING NOBLE IN BEING SUPERIOR TO SOME OTHER MAN.
 TRUE NOBILITY IS BEING SUPERIOR TO YOUR FORMER SELF.

                                                   -- HINDU PROVERB
 Job cpu time:       0 days  6 hours 11 minutes 57.7 seconds.
 Elapsed time:       0 days  0 hours 46 minutes 39.2 seconds.
 File lengths (MBytes):  RWF=    987 Int=      0 D2E=      0 Chk=     23 Scr=      1
 Normal termination of Gaussian 16 at Mon Jan  8 18:47:29 2024.
