 Entering Gaussian System, Link 0=g16
 Input=021-rad.com
 Output=021-rad.log
 Initial command:
 /sysapps/ubuntu-applications/gaussian/Gaussian/AVX2/g16/l1.exe "/scratch/selhajj1/4217076/Gau-3837936.inp" -scrdir="/scratch/selhajj1/4217076/"
 Entering Link 1 = /sysapps/ubuntu-applications/gaussian/Gaussian/AVX2/g16/l1.exe PID=   3837970.
  
 Copyright (c) 1988,1990,1992,1993,1995,1998,2003,2009,2016,
            Gaussian, Inc.  All Rights Reserved.
  
 This is part of the Gaussian(R) 16 program.  It is based on
 the Gaussian(R) 09 system (copyright 2009, Gaussian, Inc.),
 the Gaussian(R) 03 system (copyright 2003, Gaussian, Inc.),
 the Gaussian(R) 98 system (copyright 1998, Gaussian, Inc.),
 the Gaussian(R) 94 system (copyright 1995, Gaussian, Inc.),
 the Gaussian 92(TM) system (copyright 1992, Gaussian, Inc.),
 the Gaussian 90(TM) system (copyright 1990, Gaussian, Inc.),
 the Gaussian 88(TM) system (copyright 1988, Gaussian, Inc.),
 the Gaussian 86(TM) system (copyright 1986, Carnegie Mellon
 University), and the Gaussian 82(TM) system (copyright 1983,
 Carnegie Mellon University). Gaussian is a federally registered
 trademark of Gaussian, Inc.
  
 This software contains proprietary and confidential information,
 including trade secrets, belonging to Gaussian, Inc.
  
 This software is provided under written license and may be
 used, copied, transmitted, or stored only in accord with that
 written license.
  
 The following legend is applicable only to US Government
 contracts under FAR:
  
                    RESTRICTED RIGHTS LEGEND
  
 Use, reproduction and disclosure by the US Government is
 subject to restrictions as set forth in subparagraphs (a)
 and (c) of the Commercial Computer Software - Restricted
 Rights clause in FAR 52.227-19.
  
 Gaussian, Inc.
 340 Quinnipiac St., Bldg. 40, Wallingford CT 06492
  
  
 ---------------------------------------------------------------
 Warning -- This program may not be used in any manner that
 competes with the business of Gaussian, Inc. or will provide
 assistance to any competitor of Gaussian, Inc.  The licensee
 of this program is prohibited from giving any competitor of
 Gaussian, Inc. access to this program.  By using this program,
 the user acknowledges that Gaussian, Inc. is engaged in the
 business of creating and licensing software in the field of
 computational chemistry and represents and warrants to the
 licensee that it is not a competitor of Gaussian, Inc. and that
 it will not use this program in any manner prohibited above.
 ---------------------------------------------------------------
  

 Cite this work as:
 Gaussian 16, Revision A.03,
 M. J. Frisch, G. W. Trucks, H. B. Schlegel, G. E. Scuseria, 
 M. A. Robb, J. R. Cheeseman, G. Scalmani, V. Barone, 
 G. A. Petersson, H. Nakatsuji, X. Li, M. Caricato, A. V. Marenich, 
 J. Bloino, B. G. Janesko, R. Gomperts, B. Mennucci, H. P. Hratchian, 
 J. V. Ortiz, A. F. Izmaylov, J. L. Sonnenberg, D. Williams-Young, 
 F. Ding, F. Lipparini, F. Egidi, J. Goings, B. Peng, A. Petrone, 
 T. Henderson, D. Ranasinghe, V. G. Zakrzewski, J. Gao, N. Rega, 
 G. Zheng, W. Liang, M. Hada, M. Ehara, K. Toyota, R. Fukuda, 
 J. Hasegawa, M. Ishida, T. Nakajima, Y. Honda, O. Kitao, H. Nakai, 
 T. Vreven, K. Throssell, J. A. Montgomery, Jr., J. E. Peralta, 
 F. Ogliaro, M. J. Bearpark, J. J. Heyd, E. N. Brothers, K. N. Kudin, 
 V. N. Staroverov, T. A. Keith, R. Kobayashi, J. Normand, 
 K. Raghavachari, A. P. Rendell, J. C. Burant, S. S. Iyengar, 
 J. Tomasi, M. Cossi, J. M. Millam, M. Klene, C. Adamo, R. Cammi, 
 J. W. Ochterski, R. L. Martin, K. Morokuma, O. Farkas, 
 J. B. Foresman, and D. J. Fox, Gaussian, Inc., Wallingford CT, 2016.
 
 ******************************************
 Gaussian 16:  ES64L-G16RevA.03 25-Dec-2016
                17-Dec-2023 
 ******************************************
 %chk=021-rad.chk
 %nproc=8
 Will use up to    8 processors via shared memory.
 %mem=30GB
 --------------------------------------
 #P UB3LYP/6-311++G(d,p) nosym opt freq
 --------------------------------------
 1/18=20,19=15,26=3,38=1/1,3;
 2/9=110,12=2,15=1,17=6,18=5,40=1/2;
 3/5=4,6=6,7=1111,11=2,25=1,30=1,71=1,74=-5,116=2/1,2,3;
 4//1;
 5/5=2,38=5/2;
 6/7=2,8=2,9=2,10=2,28=1/1;
 7/30=1/1,2,3,16;
 1/18=20,19=15,26=3/3(2);
 2/9=110,15=1/2;
 99//99;
 2/9=110,15=1/2;
 3/5=4,6=6,7=1111,11=2,25=1,30=1,71=1,74=-5,116=2/1,2,3;
 4/5=5,16=3,69=1/1;
 5/5=2,38=5/2;
 7/30=1/1,2,3,16;
 1/18=20,19=15,26=3/3(-5);
 2/9=110,15=1/2;
 6/7=2,8=2,9=2,10=2,19=2,28=1/1;
 99/9=1/99;
 Leave Link    1 at Sun Dec 17 20:48:53 2023, MaxMem=  4026531840 cpu:               0.4 elap:               0.1
 (Enter /sysapps/ubuntu-applications/gaussian/Gaussian/AVX2/g16/l101.exe)
 -------
 Radical
 -------
 Symbolic Z-matrix:
 Charge = -1 Multiplicity = 2
 Br                   -1.80297   2.32881   1.29491 
 C                    -0.8102    0.92454   0.47273 
 C                    -1.4581   -0.09042  -0.09464 
 C                    -0.66226  -1.13175  -0.70572 
 O                    -1.23166  -2.10491  -1.24899 
 C                     0.81527  -1.09231  -0.715 
 C                     1.45607  -0.09334  -0.15839 
 C                     0.63533   0.95628   0.45929 
 O                     1.2002    1.92411   1.00015 
 C                     2.90064   0.02265  -0.12546 
 C                     3.5249    1.24938  -0.42149 
 C                     4.88799   1.4193   -0.40678 
 C                     5.71972   0.35337  -0.08922 
 C                     5.13193  -0.85467   0.20456 
 C                     3.74195  -1.01577   0.18675 
 Br                    1.80718  -2.48543  -1.55551 
 C                    -2.91406  -0.10486  -0.05681 
 C                    -3.66248  -0.30122  -1.2136 
 C                    -5.03036  -0.33835  -1.19778 
 C                    -5.69645  -0.17358   0.01552 
 C                    -4.98645   0.02358   1.17731 
 C                    -3.58913   0.05555   1.1272 
 H                     2.86592   2.0655   -0.6669 
 H                     5.31068   2.39997  -0.64358 
 H                     6.79      0.5243   -0.08882 
 H                     5.78047  -1.68749   0.45089 
 H                     3.32264  -1.98684   0.44227 
 H                    -3.11032  -0.42937  -2.14857 
 H                    -5.60891  -0.48896  -2.09645 
 H                    -6.78102  -0.21291  -0.00327 
 H                    -5.49473   0.1459    2.11332 
 H                    -3.05178   0.19893   2.04364 
 
 ITRead=  0  0  0  0  0  0  0  0  0  0  0  0  0  0  0  0  0  0  0  0
 ITRead=  0  0  0  0  0  0  0  0  0  0  0  0
 MicOpt= -1 -1 -1 -1 -1 -1 -1 -1 -1 -1 -1 -1 -1 -1 -1 -1 -1 -1 -1 -1
 MicOpt= -1 -1 -1 -1 -1 -1 -1 -1 -1 -1 -1 -1
 NAtoms=     32 NQM=       32 NQMF=       0 NMMI=      0 NMMIF=      0
                NMic=       0 NMicF=      0.
                    Isotopes and Nuclear Properties:
 (Nuclear quadrupole moments (NQMom) in fm**2, nuclear magnetic moments (NMagM)
  in nuclear magnetons)

  Atom         1           2           3           4           5           6           7           8           9          10
 IAtWgt=          79          12          12          12          16          12          12          12          16          12
 AtmWgt=  78.9183361  12.0000000  12.0000000  12.0000000  15.9949146  12.0000000  12.0000000  12.0000000  15.9949146  12.0000000
 NucSpn=           3           0           0           0           0           0           0           0           0           0
 AtZEff=  -0.0000000  -0.0000000  -0.0000000  -0.0000000  -0.0000000  -0.0000000  -0.0000000  -0.0000000  -0.0000000  -0.0000000
 NQMom=   31.3000000   0.0000000   0.0000000   0.0000000   0.0000000   0.0000000   0.0000000   0.0000000   0.0000000   0.0000000
 NMagM=    2.1063990   0.0000000   0.0000000   0.0000000   0.0000000   0.0000000   0.0000000   0.0000000   0.0000000   0.0000000
 AtZNuc=  35.0000000   6.0000000   6.0000000   6.0000000   8.0000000   6.0000000   6.0000000   6.0000000   8.0000000   6.0000000

  Atom        11          12          13          14          15          16          17          18          19          20
 IAtWgt=          12          12          12          12          12          79          12          12          12          12
 AtmWgt=  12.0000000  12.0000000  12.0000000  12.0000000  12.0000000  78.9183361  12.0000000  12.0000000  12.0000000  12.0000000
 NucSpn=           0           0           0           0           0           3           0           0           0           0
 AtZEff=  -0.0000000  -0.0000000  -0.0000000  -0.0000000  -0.0000000  -0.0000000  -0.0000000  -0.0000000  -0.0000000  -0.0000000
 NQMom=    0.0000000   0.0000000   0.0000000   0.0000000   0.0000000  31.3000000   0.0000000   0.0000000   0.0000000   0.0000000
 NMagM=    0.0000000   0.0000000   0.0000000   0.0000000   0.0000000   2.1063990   0.0000000   0.0000000   0.0000000   0.0000000
 AtZNuc=   6.0000000   6.0000000   6.0000000   6.0000000   6.0000000  35.0000000   6.0000000   6.0000000   6.0000000   6.0000000

  Atom        21          22          23          24          25          26          27          28          29          30
 IAtWgt=          12          12           1           1           1           1           1           1           1           1
 AtmWgt=  12.0000000  12.0000000   1.0078250   1.0078250   1.0078250   1.0078250   1.0078250   1.0078250   1.0078250   1.0078250
 NucSpn=           0           0           1           1           1           1           1           1           1           1
 AtZEff=  -0.0000000  -0.0000000  -0.0000000  -0.0000000  -0.0000000  -0.0000000  -0.0000000  -0.0000000  -0.0000000  -0.0000000
 NQMom=    0.0000000   0.0000000   0.0000000   0.0000000   0.0000000   0.0000000   0.0000000   0.0000000   0.0000000   0.0000000
 NMagM=    0.0000000   0.0000000   2.7928460   2.7928460   2.7928460   2.7928460   2.7928460   2.7928460   2.7928460   2.7928460
 AtZNuc=   6.0000000   6.0000000   1.0000000   1.0000000   1.0000000   1.0000000   1.0000000   1.0000000   1.0000000   1.0000000

  Atom        31          32
 IAtWgt=           1           1
 AtmWgt=   1.0078250   1.0078250
 NucSpn=           1           1
 AtZEff=  -0.0000000  -0.0000000
 NQMom=    0.0000000   0.0000000
 NMagM=    2.7928460   2.7928460
 AtZNuc=   1.0000000   1.0000000
 Leave Link  101 at Sun Dec 17 20:48:53 2023, MaxMem=  4026531840 cpu:               3.1 elap:               0.7
 (Enter /sysapps/ubuntu-applications/gaussian/Gaussian/AVX2/g16/l103.exe)

 GradGradGradGradGradGradGradGradGradGradGradGradGradGradGradGradGradGrad
 Berny optimization.
 Initialization pass.
                           ----------------------------
                           !    Initial Parameters    !
                           ! (Angstroms and Degrees)  !
 --------------------------                            --------------------------
 ! Name  Definition              Value          Derivative Info.                !
 --------------------------------------------------------------------------------
 ! R1    R(1,2)                  1.9062         estimate D2E/DX2                !
 ! R2    R(2,3)                  1.3311         estimate D2E/DX2                !
 ! R3    R(2,8)                  1.4459         estimate D2E/DX2                !
 ! R4    R(3,4)                  1.4461         estimate D2E/DX2                !
 ! R5    R(3,17)                 1.4565         estimate D2E/DX2                !
 ! R6    R(4,5)                  1.2516         estimate D2E/DX2                !
 ! R7    R(4,6)                  1.4781         estimate D2E/DX2                !
 ! R8    R(6,7)                  1.3109         estimate D2E/DX2                !
 ! R9    R(6,16)                 1.9055         estimate D2E/DX2                !
 ! R10   R(7,8)                  1.4686         estimate D2E/DX2                !
 ! R11   R(7,10)                 1.4496         estimate D2E/DX2                !
 ! R12   R(8,9)                  1.2443         estimate D2E/DX2                !
 ! R13   R(10,11)                1.4079         estimate D2E/DX2                !
 ! R14   R(10,15)                1.3724         estimate D2E/DX2                !
 ! R15   R(11,12)                1.3737         estimate D2E/DX2                !
 ! R16   R(11,23)                1.0773         estimate D2E/DX2                !
 ! R17   R(12,13)                1.3888         estimate D2E/DX2                !
 ! R18   R(12,24)                1.0938         estimate D2E/DX2                !
 ! R19   R(13,14)                1.3752         estimate D2E/DX2                !
 ! R20   R(13,25)                1.0838         estimate D2E/DX2                !
 ! R21   R(14,15)                1.3994         estimate D2E/DX2                !
 ! R22   R(14,26)                1.0839         estimate D2E/DX2                !
 ! R23   R(15,27)                1.0882         estimate D2E/DX2                !
 ! R24   R(17,18)                1.3917         estimate D2E/DX2                !
 ! R25   R(17,22)                1.3723         estimate D2E/DX2                !
 ! R26   R(18,19)                1.3685         estimate D2E/DX2                !
 ! R27   R(18,28)                1.0934         estimate D2E/DX2                !
 ! R28   R(19,20)                1.3939         estimate D2E/DX2                !
 ! R29   R(19,29)                1.0794         estimate D2E/DX2                !
 ! R30   R(20,21)                1.3758         estimate D2E/DX2                !
 ! R31   R(20,30)                1.0854         estimate D2E/DX2                !
 ! R32   R(21,22)                1.3986         estimate D2E/DX2                !
 ! R33   R(21,31)                1.0721         estimate D2E/DX2                !
 ! R34   R(22,32)                1.072          estimate D2E/DX2                !
 ! A1    A(1,2,3)              119.4766         estimate D2E/DX2                !
 ! A2    A(1,2,8)              120.5643         estimate D2E/DX2                !
 ! A3    A(3,2,8)              119.959          estimate D2E/DX2                !
 ! A4    A(2,3,4)              117.4726         estimate D2E/DX2                !
 ! A5    A(2,3,17)             118.8846         estimate D2E/DX2                !
 ! A6    A(4,3,17)             123.6392         estimate D2E/DX2                !
 ! A7    A(3,4,5)              119.5363         estimate D2E/DX2                !
 ! A8    A(3,4,6)              122.2472         estimate D2E/DX2                !
 ! A9    A(5,4,6)              118.2165         estimate D2E/DX2                !
 ! A10   A(4,6,7)              120.4193         estimate D2E/DX2                !
 ! A11   A(4,6,16)             120.2389         estimate D2E/DX2                !
 ! A12   A(7,6,16)             119.338          estimate D2E/DX2                !
 ! A13   A(6,7,8)              116.7463         estimate D2E/DX2                !
 ! A14   A(6,7,10)             123.9016         estimate D2E/DX2                !
 ! A15   A(8,7,10)             119.3521         estimate D2E/DX2                !
 ! A16   A(2,8,7)              123.1555         estimate D2E/DX2                !
 ! A17   A(2,8,9)              117.8311         estimate D2E/DX2                !
 ! A18   A(7,8,9)              119.0133         estimate D2E/DX2                !
 ! A19   A(7,10,11)            120.4509         estimate D2E/DX2                !
 ! A20   A(7,10,15)            123.7458         estimate D2E/DX2                !
 ! A21   A(11,10,15)           115.8032         estimate D2E/DX2                !
 ! A22   A(10,11,12)           123.0583         estimate D2E/DX2                !
 ! A23   A(10,11,23)           115.8974         estimate D2E/DX2                !
 ! A24   A(12,11,23)           121.0443         estimate D2E/DX2                !
 ! A25   A(11,12,13)           120.1157         estimate D2E/DX2                !
 ! A26   A(11,12,24)           119.4742         estimate D2E/DX2                !
 ! A27   A(13,12,24)           120.4097         estimate D2E/DX2                !
 ! A28   A(12,13,14)           117.8459         estimate D2E/DX2                !
 ! A29   A(12,13,25)           118.0618         estimate D2E/DX2                !
 ! A30   A(14,13,25)           124.0923         estimate D2E/DX2                !
 ! A31   A(13,14,15)           121.5304         estimate D2E/DX2                !
 ! A32   A(13,14,26)           117.8892         estimate D2E/DX2                !
 ! A33   A(15,14,26)           120.5802         estimate D2E/DX2                !
 ! A34   A(10,15,14)           121.6464         estimate D2E/DX2                !
 ! A35   A(10,15,27)           119.499          estimate D2E/DX2                !
 ! A36   A(14,15,27)           118.8482         estimate D2E/DX2                !
 ! A37   A(3,17,18)            121.1564         estimate D2E/DX2                !
 ! A38   A(3,17,22)            120.8619         estimate D2E/DX2                !
 ! A39   A(18,17,22)           117.9748         estimate D2E/DX2                !
 ! A40   A(17,18,19)           122.1244         estimate D2E/DX2                !
 ! A41   A(17,18,28)           117.1123         estimate D2E/DX2                !
 ! A42   A(19,18,28)           120.763          estimate D2E/DX2                !
 ! A43   A(18,19,20)           118.9805         estimate D2E/DX2                !
 ! A44   A(18,19,29)           122.0015         estimate D2E/DX2                !
 ! A45   A(20,19,29)           119.0179         estimate D2E/DX2                !
 ! A46   A(19,20,21)           120.3571         estimate D2E/DX2                !
 ! A47   A(19,20,30)           117.2667         estimate D2E/DX2                !
 ! A48   A(21,20,30)           122.3756         estimate D2E/DX2                !
 ! A49   A(20,21,22)           119.2508         estimate D2E/DX2                !
 ! A50   A(20,21,31)           120.5941         estimate D2E/DX2                !
 ! A51   A(22,21,31)           120.1541         estimate D2E/DX2                !
 ! A52   A(17,22,21)           121.3124         estimate D2E/DX2                !
 ! A53   A(17,22,32)           120.439          estimate D2E/DX2                !
 ! A54   A(21,22,32)           118.2454         estimate D2E/DX2                !
 ! D1    D(1,2,3,4)            179.9916         estimate D2E/DX2                !
 ! D2    D(1,2,3,17)            -0.6796         estimate D2E/DX2                !
 ! D3    D(8,2,3,4)              0.1156         estimate D2E/DX2                !
 ! D4    D(8,2,3,17)           179.4444         estimate D2E/DX2                !
 ! D5    D(1,2,8,7)           -179.9424         estimate D2E/DX2                !
 ! D6    D(1,2,8,9)              0.0653         estimate D2E/DX2                !
 ! D7    D(3,2,8,7)             -0.0678         estimate D2E/DX2                !
 ! D8    D(3,2,8,9)            179.9399         estimate D2E/DX2                !
 ! D9    D(2,3,4,5)            179.9199         estimate D2E/DX2                !
 ! D10   D(2,3,4,6)             -0.1005         estimate D2E/DX2                !
 ! D11   D(17,3,4,5)             0.6257         estimate D2E/DX2                !
 ! D12   D(17,3,4,6)          -179.3946         estimate D2E/DX2                !
 ! D13   D(2,3,17,18)          129.2131         estimate D2E/DX2                !
 ! D14   D(2,3,17,22)          -51.7593         estimate D2E/DX2                !
 ! D15   D(4,3,17,18)          -51.5022         estimate D2E/DX2                !
 ! D16   D(4,3,17,22)          127.5255         estimate D2E/DX2                !
 ! D17   D(3,4,6,7)              0.0264         estimate D2E/DX2                !
 ! D18   D(3,4,6,16)          -179.2577         estimate D2E/DX2                !
 ! D19   D(5,4,6,7)           -179.9937         estimate D2E/DX2                !
 ! D20   D(5,4,6,16)             0.7222         estimate D2E/DX2                !
 ! D21   D(4,6,7,8)              0.0259         estimate D2E/DX2                !
 ! D22   D(4,6,7,10)          -179.9088         estimate D2E/DX2                !
 ! D23   D(16,6,7,8)           179.3164         estimate D2E/DX2                !
 ! D24   D(16,6,7,10)           -0.6183         estimate D2E/DX2                !
 ! D25   D(6,7,8,2)             -0.0085         estimate D2E/DX2                !
 ! D26   D(6,7,8,9)            179.9837         estimate D2E/DX2                !
 ! D27   D(10,7,8,2)           179.9293         estimate D2E/DX2                !
 ! D28   D(10,7,8,9)            -0.0785         estimate D2E/DX2                !
 ! D29   D(6,7,10,11)          135.3233         estimate D2E/DX2                !
 ! D30   D(6,7,10,15)          -44.745          estimate D2E/DX2                !
 ! D31   D(8,7,10,11)          -44.6098         estimate D2E/DX2                !
 ! D32   D(8,7,10,15)          135.3219         estimate D2E/DX2                !
 ! D33   D(7,10,11,12)        -179.9804         estimate D2E/DX2                !
 ! D34   D(7,10,11,23)          -0.0699         estimate D2E/DX2                !
 ! D35   D(15,10,11,12)          0.0827         estimate D2E/DX2                !
 ! D36   D(15,10,11,23)        179.9931         estimate D2E/DX2                !
 ! D37   D(7,10,15,14)         179.9646         estimate D2E/DX2                !
 ! D38   D(7,10,15,27)          -0.9752         estimate D2E/DX2                !
 ! D39   D(11,10,15,14)         -0.1008         estimate D2E/DX2                !
 ! D40   D(11,10,15,27)        178.9594         estimate D2E/DX2                !
 ! D41   D(10,11,12,13)         -0.0163         estimate D2E/DX2                !
 ! D42   D(10,11,12,24)       -179.8152         estimate D2E/DX2                !
 ! D43   D(23,11,12,13)       -179.9223         estimate D2E/DX2                !
 ! D44   D(23,11,12,24)          0.2789         estimate D2E/DX2                !
 ! D45   D(11,12,13,14)         -0.0338         estimate D2E/DX2                !
 ! D46   D(11,12,13,25)        179.9271         estimate D2E/DX2                !
 ! D47   D(24,12,13,14)        179.7632         estimate D2E/DX2                !
 ! D48   D(24,12,13,25)         -0.276          estimate D2E/DX2                !
 ! D49   D(12,13,14,15)          0.0151         estimate D2E/DX2                !
 ! D50   D(12,13,14,26)        179.9001         estimate D2E/DX2                !
 ! D51   D(25,13,14,15)       -179.9432         estimate D2E/DX2                !
 ! D52   D(25,13,14,26)         -0.0582         estimate D2E/DX2                !
 ! D53   D(13,14,15,10)          0.0559         estimate D2E/DX2                !
 ! D54   D(13,14,15,27)       -179.0102         estimate D2E/DX2                !
 ! D55   D(26,14,15,10)       -179.826          estimate D2E/DX2                !
 ! D56   D(26,14,15,27)          1.1078         estimate D2E/DX2                !
 ! D57   D(3,17,18,19)         179.0043         estimate D2E/DX2                !
 ! D58   D(3,17,18,28)          -0.8274         estimate D2E/DX2                !
 ! D59   D(22,17,18,19)         -0.0506         estimate D2E/DX2                !
 ! D60   D(22,17,18,28)       -179.8823         estimate D2E/DX2                !
 ! D61   D(3,17,22,21)        -179.0467         estimate D2E/DX2                !
 ! D62   D(3,17,22,32)           0.2919         estimate D2E/DX2                !
 ! D63   D(18,17,22,21)          0.0111         estimate D2E/DX2                !
 ! D64   D(18,17,22,32)        179.3497         estimate D2E/DX2                !
 ! D65   D(17,18,19,20)          0.0354         estimate D2E/DX2                !
 ! D66   D(17,18,19,29)        179.8855         estimate D2E/DX2                !
 ! D67   D(28,18,19,20)        179.8611         estimate D2E/DX2                !
 ! D68   D(28,18,19,29)         -0.2888         estimate D2E/DX2                !
 ! D69   D(18,19,20,21)          0.02           estimate D2E/DX2                !
 ! D70   D(18,19,20,30)       -179.699          estimate D2E/DX2                !
 ! D71   D(29,19,20,21)       -179.8346         estimate D2E/DX2                !
 ! D72   D(29,19,20,30)          0.4464         estimate D2E/DX2                !
 ! D73   D(19,20,21,22)         -0.0577         estimate D2E/DX2                !
 ! D74   D(19,20,21,31)       -179.696          estimate D2E/DX2                !
 ! D75   D(30,20,21,22)        179.6466         estimate D2E/DX2                !
 ! D76   D(30,20,21,31)          0.0083         estimate D2E/DX2                !
 ! D77   D(20,21,22,17)          0.0421         estimate D2E/DX2                !
 ! D78   D(20,21,22,32)       -179.3105         estimate D2E/DX2                !
 ! D79   D(31,21,22,17)        179.682          estimate D2E/DX2                !
 ! D80   D(31,21,22,32)          0.3294         estimate D2E/DX2                !
 --------------------------------------------------------------------------------
 Trust Radius=3.00D-01 FncErr=1.00D-07 GrdErr=1.00D-06 EigMax=2.50D+02 EigMin=1.00D-04
 Number of steps in this run=    178 maximum allowed number of steps=    192.
 GradGradGradGradGradGradGradGradGradGradGradGradGradGradGradGradGradGrad

 Leave Link  103 at Sun Dec 17 20:48:53 2023, MaxMem=  4026531840 cpu:               0.2 elap:               0.0
 (Enter /sysapps/ubuntu-applications/gaussian/Gaussian/AVX2/g16/l202.exe)
                          Input orientation:                          
 ---------------------------------------------------------------------
 Center     Atomic      Atomic             Coordinates (Angstroms)
 Number     Number       Type             X           Y           Z
 ---------------------------------------------------------------------
      1         35           0       -1.802966    2.328807    1.294913
      2          6           0       -0.810198    0.924545    0.472732
      3          6           0       -1.458101   -0.090416   -0.094637
      4          6           0       -0.662260   -1.131753   -0.705721
      5          8           0       -1.231661   -2.104911   -1.248995
      6          6           0        0.815266   -1.092312   -0.715005
      7          6           0        1.456075   -0.093343   -0.158390
      8          6           0        0.635328    0.956284    0.459294
      9          8           0        1.200196    1.924115    1.000146
     10          6           0        2.900639    0.022646   -0.125463
     11          6           0        3.524897    1.249378   -0.421494
     12          6           0        4.887985    1.419304   -0.406780
     13          6           0        5.719715    0.353368   -0.089219
     14          6           0        5.131932   -0.854668    0.204563
     15          6           0        3.741954   -1.015766    0.186755
     16         35           0        1.807179   -2.485427   -1.555513
     17          6           0       -2.914059   -0.104862   -0.056808
     18          6           0       -3.662483   -0.301215   -1.213599
     19          6           0       -5.030361   -0.338355   -1.197779
     20          6           0       -5.696450   -0.173581    0.015517
     21          6           0       -4.986451    0.023577    1.177307
     22          6           0       -3.589135    0.055549    1.127204
     23          1           0        2.865917    2.065503   -0.666897
     24          1           0        5.310685    2.399974   -0.643585
     25          1           0        6.789996    0.524295   -0.088820
     26          1           0        5.780469   -1.687486    0.450889
     27          1           0        3.322645   -1.986838    0.442265
     28          1           0       -3.110322   -0.429372   -2.148570
     29          1           0       -5.608911   -0.488961   -2.096451
     30          1           0       -6.781017   -0.212908   -0.003267
     31          1           0       -5.494726    0.145902    2.113320
     32          1           0       -3.051779    0.198927    2.043636
 ---------------------------------------------------------------------
                    Distance matrix (angstroms):
                    1          2          3          4          5
     1  Br   0.000000
     2  C    1.906180   0.000000
     3  C    2.811124   1.331102   0.000000
     4  C    4.156828   2.374657   1.446088   0.000000
     5  O    5.143511   3.509925   2.332811   1.251559   0.000000
     6  C    4.753836   2.849660   2.560634   1.478081   2.345295
     7  C    4.312801   2.563280   2.914875   2.421819   3.529836
     8  C    2.920164   1.445937   2.405175   2.720458   3.971752
     9  O    3.044609   2.306293   3.510474   3.964474   5.215900
    10  C    5.427683   3.865432   4.360315   3.789931   4.781706
    11  C    5.700644   4.438266   5.170314   4.825230   5.878847
    12  C    6.963604   5.786848   6.530658   6.115756   7.111925
    13  C    7.899932   6.578890   7.191525   6.581433   7.463903
    14  C    7.708190   6.208576   6.640944   5.871801   6.646146
    15  C    6.569651   4.956680   5.289237   4.495226   5.290033
    16  Br   6.658448   4.753141   4.304915   2.941548   3.077871
    17  C    2.997402   2.401317   1.456520   2.558553   2.872624
    18  C    4.082578   3.532949   2.481091   3.154215   3.027122
    19  C    4.872714   4.711189   3.746924   4.466757   4.189687
    20  C    4.801876   5.028955   4.240596   5.175070   5.026268
    21  C    3.932237   4.330041   3.752344   4.855843   4.951348
    22  C    2.895897   2.984289   2.460794   3.651835   3.983917
    23  H    5.071144   4.014270   4.865450   4.761511   5.875486
    24  H    7.373389   6.394392   7.233246   6.939237   7.966354
    25  H    8.888756   7.631415   8.270974   7.658928   8.520899
    26  H    8.622730   7.089434   7.432707   6.569273   7.227297
    27  H    6.754531   5.055439   5.171094   4.234207   4.859630
    28  H    4.601554   3.740974   2.657699   2.927143   2.673207
    29  H    5.824634   5.623730   4.625507   5.178481   4.742341
    30  H    5.738168   6.096807   5.325109   6.227111   5.993903
    31  H    4.366229   5.024204   4.607088   5.738652   5.877504
    32  H    2.580021   2.831775   2.682488   3.878076   4.411566
                    6          7          8          9         10
     6  C    0.000000
     7  C    1.310875   0.000000
     8  C    2.368143   1.468631   0.000000
     9  O    3.491238   2.340474   1.244304   0.000000
    10  C    2.437103   1.449587   2.518978   2.788205   0.000000
    11  C    3.593294   2.480352   3.035012   2.807235   1.407908
    12  C    4.794816   3.758698   4.364580   3.979204   2.445269
    13  C    5.151235   4.287536   5.149307   4.907140   2.838641
    14  C    4.419920   3.771376   4.854264   4.879871   2.420179
    15  C    3.063418   2.489022   3.689767   3.970521   1.372440
    16  Br   1.905549   2.792363   4.156688   5.132629   3.087252
    17  C    3.913584   4.371329   3.740393   4.707546   5.816500
    18  C    4.574349   5.230326   4.780278   5.787781   6.660593
    19  C    5.913787   6.573752   6.043345   6.983516   8.011301
    20  C    6.616659   7.155089   6.447088   7.275544   8.600483
    21  C    6.203706   6.580569   5.743682   6.474413   7.993959
    22  C    4.910200   5.208557   4.370757   5.142506   6.609646
    23  H    3.765539   2.628089   2.733899   2.360858   2.113676
    24  H    5.692974   4.616282   5.015929   4.452461   3.424684
    25  H    6.221168   5.370013   6.194109   5.864402   3.921747
    26  H    5.134860   4.648968   5.784640   5.858690   3.398552
    27  H    2.902826   2.725838   3.985464   4.484593   2.130358
    28  H    4.231411   4.992566   4.769790   5.833856   6.358375
    29  H    6.598672   7.336662   6.900079   7.859757   8.749798
    30  H    7.680067   8.239420   7.522177   8.323068   9.685291
    31  H    7.024856   7.316525   6.400788   7.015923   8.689620
    32  H    4.922543   5.025444   4.083930   4.705787   6.337771
                   11         12         13         14         15
    11  C    0.000000
    12  C    1.373718   0.000000
    13  C    2.393840   1.388827   0.000000
    14  C    2.720573   2.367319   1.375190   0.000000
    15  C    2.355410   2.755946   2.421205   1.399396   0.000000
    16  Br   4.264425   5.104692   5.051408   4.100150   2.989775
    17  C    6.589925   7.957226   8.645986   8.085078   6.722468
    18  C    7.395282   8.759090   9.471978   8.925202   7.569495
    19  C    8.735901  10.103892  10.829198  10.271580   8.906702
    20  C    9.340719  10.711950  11.428800  10.851427   9.477450
    21  C    8.746530  10.097617  10.785863  10.202902   8.845704
    22  C    7.377882   8.722069   9.392714   8.816846   7.468401
    23  H    1.077283   2.138689   3.377763   3.797587   3.315175
    24  H    2.135939   1.093830   2.159449   3.368085   3.849371
    25  H    3.361144   2.125979   1.083844   2.176417   3.426120
    26  H    3.804448   3.344289   2.111988   1.083911   2.162526
    27  H    3.355603   3.843562   3.391900   2.147517   1.088157
    28  H    7.058833   8.391922   9.100724   8.582125   7.263008
    29  H    9.447420  10.801911  11.535869  10.990637   9.639980
    30  H   10.417536  11.789510  12.513847  11.932033  10.555264
    31  H    9.433798  10.759793  11.430570  10.842987   9.506702
    32  H    7.101618   8.398435   9.028402   8.453720   7.146908
                   16         17         18         19         20
    16  Br   0.000000
    17  C    5.495752   0.000000
    18  C    5.899567   1.391711   0.000000
    19  C    7.175643   2.415589   1.368474   0.000000
    20  C    8.007323   2.784179   2.379924   1.393884   0.000000
    21  C    7.740595   2.415439   2.752238   2.402906   1.375764
    22  C    6.540163   1.372350   2.368970   2.763664   2.393559
    23  H    4.756210   6.204097   6.965648   8.271130   8.876560
    24  H    6.080568   8.617709   9.388242  10.711807  11.323189
    25  H    6.003173   9.724482  10.545185  11.903563  12.506369
    26  H    4.522101   8.851964   9.688221  11.018726  11.584521
    27  H    2.556628   6.533558   7.373956   8.670638   9.209456
    28  H    5.362919   2.125864   1.093379   2.144491   3.381828
    29  H    7.699148   3.401456   2.145520   1.079357   2.137179
    30  H    9.018366   3.868838   3.346334   2.123061   1.085442
    31  H    8.584990   3.381151   3.824319   3.378389   2.131557
    32  H    6.615822   2.126763   3.351519   3.835392   3.353552
                   21         22         23         24         25
    21  C    0.000000
    22  C    1.398579   0.000000
    23  H    8.320471   6.994741   0.000000
    24  H   10.723521   9.372236   2.467651   0.000000
    25  H   11.854894  10.460631   4.255337   2.452406   0.000000
    26  H   10.926206   9.554321   4.881494   4.257452   2.490463
    27  H    8.580392   7.239695   4.226146   4.937154   4.313974
    28  H    3.845320   3.345909   6.643432   9.010190  10.157183
    29  H    3.371593   3.842907   8.966137  11.388341  12.601197
    30  H    2.161053   3.396784   9.934530  12.387348  13.591291
    31  H    1.072113   2.147526   9.017474  11.377094  12.486273
    32  H    2.127023   1.071987   6.771279   9.055195  10.075405
                   26         27         28         29         30
    26  H    0.000000
    27  H    2.476002   0.000000
    28  H    9.348059   7.107826   0.000000
    29  H   11.732152   9.405392   2.499842   0.000000
    30  H   12.655891  10.267877   4.257133   2.414841   0.000000
    31  H   11.543614   9.224264   4.917319   4.258903   2.502644
    32  H    9.170824   6.926416   4.239432   4.914512   4.273948
                   31         32
    31  H    0.000000
    32  H    2.444516   0.000000
 Symmetry turned off by external request.
 Stoichiometry    C18H10Br2O2(1-,2)
 Framework group  C1[X(C18H10Br2O2)]
 Deg. of freedom    90
 Full point group                 C1      NOp   1
 Rotational constants (GHZ):           0.3408561           0.1269808           0.0958618
 Leave Link  202 at Sun Dec 17 20:48:54 2023, MaxMem=  4026531840 cpu:               0.3 elap:               0.1
 (Enter /sysapps/ubuntu-applications/gaussian/Gaussian/AVX2/g16/l301.exe)
 Standard basis: 6-311++G(d,p) (5D, 7F)
 Ernie: Thresh=  0.10000D-02 Tol=  0.10000D-05 Strict=F.
   606 basis functions,   998 primitive gaussians,   632 cartesian basis functions
   103 alpha electrons      102 beta electrons
       nuclear repulsion energy      2596.0451531374 Hartrees.
 IExCor=  402 DFT=T Ex+Corr=B3LYP ExCW=0 ScaHFX=  0.200000
 ScaDFX=  0.800000  0.720000  1.000000  0.810000 ScalE2=  1.000000  1.000000
 IRadAn=      5 IRanWt=     -1 IRanGd=            0 ICorTp=0 IEmpDi=  4
 NAtoms=   32 NActive=   32 NUniq=   32 SFac= 1.00D+00 NAtFMM=   60 NAOKFM=F Big=F
 Integral buffers will be    131072 words long.
 Raffenetti 2 integral format.
 Two-electron integral symmetry is turned off.
 Leave Link  301 at Sun Dec 17 20:48:54 2023, MaxMem=  4026531840 cpu:               0.4 elap:               0.1
 (Enter /sysapps/ubuntu-applications/gaussian/Gaussian/AVX2/g16/l302.exe)
 NPDir=0 NMtPBC=     1 NCelOv=     1 NCel=       1 NClECP=     1 NCelD=      1
         NCelK=      1 NCelE2=     1 NClLst=     1 CellRange=     0.0.
 One-electron integrals computed using PRISM.
 NBasis=   606 RedAO= T EigKep=  1.11D-06  NBF=   606
 NBsUse=   600 1.00D-06 EigRej=  7.60D-07 NBFU=   600
 Precomputing XC quadrature grid using
 IXCGrd= 4 IRadAn=           5 IRanWt=          -1 IRanGd=           0 AccXCQ= 0.00D+00.
 Generated NRdTot=       0 NPtTot=           0 NUsed=           0 NTot=          32
 NSgBfM=   609   609   609   609   609 MxSgAt=    32 MxSgA2=    32.
 Leave Link  302 at Sun Dec 17 20:48:55 2023, MaxMem=  4026531840 cpu:               5.6 elap:               0.9
 (Enter /sysapps/ubuntu-applications/gaussian/Gaussian/AVX2/g16/l303.exe)
 DipDrv:  MaxL=1.
 Leave Link  303 at Sun Dec 17 20:48:55 2023, MaxMem=  4026531840 cpu:               0.7 elap:               0.2
 (Enter /sysapps/ubuntu-applications/gaussian/Gaussian/AVX2/g16/l401.exe)
 ExpMin= 3.50D-02 ExpMax= 4.40D+05 ExpMxC= 1.51D+04 IAcc=3 IRadAn=         5 AccDes= 0.00D+00
 Harris functional with IExCor=  402 and IRadAn=       5 diagonalized for initial guess.
 HarFok:  IExCor=  402 AccDes= 0.00D+00 IRadAn=         5 IDoV= 1 UseB2=F ITyADJ=14
 ICtDFT=  3500011 ScaDFX=  1.000000  1.000000  1.000000  1.000000
 FoFCou: FMM=F IPFlag=           0 FMFlag=      100000 FMFlg1=           0
         NFxFlg=           0 DoJE=T BraDBF=F KetDBF=T FulRan=T
         wScrn=  0.000000 ICntrl=       500 IOpCl=  0 I1Cent=   200000004 NGrid=           0
         NMat0=    1 NMatS0=      1 NMatT0=    0 NMatD0=    1 NMtDS0=    0 NMtDT0=    0
 Symmetry not used in FoFCou.
 Harris En= -5991.23785664966    
 JPrj=0 DoOrth=F DoCkMO=F.
 Initial guess <Sx>= 0.0000 <Sy>= 0.0000 <Sz>= 0.5000 <S**2>= 0.7500 S= 0.5000
 Leave Link  401 at Sun Dec 17 20:48:58 2023, MaxMem=  4026531840 cpu:              21.0 elap:               2.7
 (Enter /sysapps/ubuntu-applications/gaussian/Gaussian/AVX2/g16/l502.exe)
 Two-electron integral symmetry not used.
 UHF open shell SCF:
 Using DIIS extrapolation, IDIIS=  1040.
 NGot=  4026531840 LenX=  4025723676 LenY=  4025323620
 Requested convergence on RMS density matrix=1.00D-08 within 128 cycles.
 Requested convergence on MAX density matrix=1.00D-06.
 Requested convergence on             energy=1.00D-06.
 No special actions if energy rises.
 Fock matrices will be formed incrementally for  20 cycles.

 Cycle   1  Pass 1  IDiag  1:
 FoFJK:  IHMeth= 1 ICntrl=       0 DoSepK=F KAlg= 0 I1Cent=           0 FoldK=F
 IRaf= 790000000 NMat=       1 IRICut=       1 DoRegI=T DoRafI=F ISym2E= 0 IDoP0=0 IntGTp=1.
 FoFCou: FMM=F IPFlag=           0 FMFlag=      100000 FMFlg1=           0
         NFxFlg=           0 DoJE=F BraDBF=F KetDBF=F FulRan=T
         wScrn=  0.000000 ICntrl=         0 IOpCl=  1 I1Cent=           0 NGrid=           0
         NMat0=    1 NMatS0=      1 NMatT0=    0 NMatD0=    1 NMtDS0=    0 NMtDT0=    0
 Symmetry not used in FoFCou.
 E= -5990.29377860398    
 DIIS: error= 6.26D-02 at cycle   1 NSaved=   1.
 NSaved= 1 IEnMin= 1 EnMin= -5990.29377860398     IErMin= 1 ErrMin= 6.26D-02
 ErrMax= 6.26D-02  0.00D+00 EMaxC= 1.00D-01 BMatC= 1.20D+01 BMatP= 1.20D+01
 IDIUse=3 WtCom= 3.74D-01 WtEn= 6.26D-01
 Coeff-Com:  0.100D+01
 Coeff-En:   0.100D+01
 Coeff:      0.100D+01
 Gap=     0.103 Goal=   None    Shift=    0.000
 Gap=     0.200 Goal=   None    Shift=    0.000
 GapD=    0.103 DampG=1.000 DampE=0.500 DampFc=0.5000 IDamp=-1.
 Damping current iteration by 5.00D-01
 RMSDP=2.74D-01 MaxDP=4.25D+01              OVMax= 9.87D-01

 Cycle   2  Pass 1  IDiag  1:
 RMSU=  1.19D-01    CP:  1.79D+00
 E= -5990.30915353854     Delta-E=       -0.015374934559 Rises=F Damp=T
 DIIS: error= 3.01D-02 at cycle   2 NSaved=   2.
 NSaved= 2 IEnMin= 2 EnMin= -5990.30915353854     IErMin= 2 ErrMin= 3.01D-02
 ErrMax= 3.01D-02  0.00D+00 EMaxC= 1.00D-01 BMatC= 2.11D+00 BMatP= 1.20D+01
 IDIUse=3 WtCom= 6.99D-01 WtEn= 3.01D-01
 Coeff-Com: -0.113D+00 0.111D+01
 Coeff-En:   0.488D+00 0.512D+00
 Coeff:      0.683D-01 0.932D+00
 Gap=    -0.028 Goal=   None    Shift=    0.000
 Gap=     0.284 Goal=   None    Shift=    0.000
 RMSDP=1.47D-01 MaxDP=2.14D+01 DE=-1.54D-02 OVMax= 7.74D-01

 Cycle   3  Pass 1  IDiag  1:
 RMSU=  2.71D-02    CP:  9.33D-01 -4.76D-02
 E= -5990.43353164683     Delta-E=       -0.124378108292 Rises=F Damp=F
 DIIS: error= 3.88D-02 at cycle   3 NSaved=   3.
 NSaved= 3 IEnMin= 3 EnMin= -5990.43353164683     IErMin= 2 ErrMin= 3.01D-02
 ErrMax= 3.88D-02  0.00D+00 EMaxC= 1.00D-01 BMatC= 2.29D+00 BMatP= 2.11D+00
 IDIUse=3 WtCom= 6.12D-01 WtEn= 3.88D-01
 Coeff-Com: -0.196D+00 0.671D+00 0.525D+00
 Coeff-En:   0.000D+00 0.425D+00 0.575D+00
 Coeff:     -0.120D+00 0.576D+00 0.544D+00
 Gap=     0.116 Goal=   None    Shift=    0.000
 Gap=     0.151 Goal=   None    Shift=    0.000
 RMSDP=4.13D-02 MaxDP=5.95D+00 DE=-1.24D-01 OVMax= 2.62D-01

 Cycle   4  Pass 1  IDiag  1:
 RMSU=  2.10D-02    CP:  1.23D+00  6.17D-02  2.29D-01
 E= -5990.83708109803     Delta-E=       -0.403549451199 Rises=F Damp=F
 DIIS: error= 1.40D-02 at cycle   4 NSaved=   4.
 NSaved= 4 IEnMin= 4 EnMin= -5990.83708109803     IErMin= 4 ErrMin= 1.40D-02
 ErrMax= 1.40D-02  0.00D+00 EMaxC= 1.00D-01 BMatC= 3.60D-01 BMatP= 2.11D+00
 IDIUse=3 WtCom= 8.60D-01 WtEn= 1.40D-01
 Coeff-Com: -0.865D-01 0.226D+00 0.323D+00 0.538D+00
 Coeff-En:   0.000D+00 0.000D+00 0.129D+00 0.871D+00
 Coeff:     -0.743D-01 0.194D+00 0.296D+00 0.585D+00
 Gap=     0.102 Goal=   None    Shift=    0.000
 Gap=     0.161 Goal=   None    Shift=    0.000
 RMSDP=1.94D-02 MaxDP=1.97D+00 DE=-4.04D-01 OVMax= 1.10D-01

 Cycle   5  Pass 1  IDiag  1:
 RMSU=  1.27D-02    CP:  1.09D+00  7.44D-02 -1.26D-02  7.90D-01
 E= -5990.89205950594     Delta-E=       -0.054978407905 Rises=F Damp=F
 DIIS: error= 7.49D-03 at cycle   5 NSaved=   5.
 NSaved= 5 IEnMin= 5 EnMin= -5990.89205950594     IErMin= 5 ErrMin= 7.49D-03
 ErrMax= 7.49D-03  0.00D+00 EMaxC= 1.00D-01 BMatC= 7.99D-02 BMatP= 3.60D-01
 IDIUse=3 WtCom= 9.25D-01 WtEn= 7.49D-02
 Coeff-Com: -0.320D-01 0.761D-01 0.108D+00 0.361D+00 0.487D+00
 Coeff-En:   0.000D+00 0.000D+00 0.000D+00 0.240D+00 0.760D+00
 Coeff:     -0.296D-01 0.704D-01 0.996D-01 0.352D+00 0.507D+00
 Gap=     0.107 Goal=   None    Shift=    0.000
 Gap=     0.147 Goal=   None    Shift=    0.000
 RMSDP=1.09D-02 MaxDP=1.28D+00 DE=-5.50D-02 OVMax= 5.78D-02

 Cycle   6  Pass 1  IDiag  1:
 RMSU=  4.94D-03    CP:  1.14D+00  5.71D-02  2.12D-01  8.44D-01  5.71D-01
 E= -5990.90818934871     Delta-E=       -0.016129842770 Rises=F Damp=F
 DIIS: error= 2.95D-03 at cycle   6 NSaved=   6.
 NSaved= 6 IEnMin= 6 EnMin= -5990.90818934871     IErMin= 6 ErrMin= 2.95D-03
 ErrMax= 2.95D-03  0.00D+00 EMaxC= 1.00D-01 BMatC= 1.17D-02 BMatP= 7.99D-02
 IDIUse=3 WtCom= 9.70D-01 WtEn= 2.95D-02
 Coeff-Com: -0.785D-02 0.161D-01 0.165D-01 0.155D+00 0.357D+00 0.464D+00
 Coeff-En:   0.000D+00 0.000D+00 0.000D+00 0.000D+00 0.116D+00 0.884D+00
 Coeff:     -0.762D-02 0.157D-01 0.161D-01 0.150D+00 0.350D+00 0.476D+00
 Gap=     0.098 Goal=   None    Shift=    0.000
 Gap=     0.141 Goal=   None    Shift=    0.000
 RMSDP=4.54D-03 MaxDP=6.09D-01 DE=-1.61D-02 OVMax= 2.85D-02

 Cycle   7  Pass 1  IDiag  1:
 RMSU=  1.60D-03    CP:  1.14D+00  6.41D-02  1.13D-01  8.95D-01  7.17D-01
                    CP:  5.18D-01
 E= -5990.91097842286     Delta-E=       -0.002789074157 Rises=F Damp=F
 DIIS: error= 1.06D-03 at cycle   7 NSaved=   7.
 NSaved= 7 IEnMin= 7 EnMin= -5990.91097842286     IErMin= 7 ErrMin= 1.06D-03
 ErrMax= 1.06D-03  0.00D+00 EMaxC= 1.00D-01 BMatC= 1.43D-03 BMatP= 1.17D-02
 IDIUse=3 WtCom= 9.89D-01 WtEn= 1.06D-02
 Coeff-Com:  0.534D-03-0.176D-02-0.707D-02 0.268D-01 0.133D+00 0.301D+00
 Coeff-Com:  0.547D+00
 Coeff-En:   0.000D+00 0.000D+00 0.000D+00 0.000D+00 0.000D+00 0.574D-01
 Coeff-En:   0.943D+00
 Coeff:      0.529D-03-0.175D-02-0.700D-02 0.265D-01 0.132D+00 0.298D+00
 Coeff:      0.551D+00
 Gap=     0.099 Goal=   None    Shift=    0.000
 Gap=     0.140 Goal=   None    Shift=    0.000
 RMSDP=1.42D-03 MaxDP=1.74D-01 DE=-2.79D-03 OVMax= 1.13D-02

 Cycle   8  Pass 1  IDiag  1:
 RMSU=  9.78D-04    CP:  1.14D+00  6.48D-02  8.37D-02  8.95D-01  7.05D-01
                    CP:  5.45D-01  8.16D-01
 E= -5990.91128286162     Delta-E=       -0.000304438750 Rises=F Damp=F
 DIIS: error= 5.16D-04 at cycle   8 NSaved=   8.
 NSaved= 8 IEnMin= 8 EnMin= -5990.91128286162     IErMin= 8 ErrMin= 5.16D-04
 ErrMax= 5.16D-04  0.00D+00 EMaxC= 1.00D-01 BMatC= 3.67D-04 BMatP= 1.43D-03
 IDIUse=3 WtCom= 9.95D-01 WtEn= 5.16D-03
 Coeff-Com:  0.148D-02-0.290D-02-0.580D-02-0.748D-02 0.323D-01 0.121D+00
 Coeff-Com:  0.375D+00 0.487D+00
 Coeff-En:   0.000D+00 0.000D+00 0.000D+00 0.000D+00 0.000D+00 0.000D+00
 Coeff-En:   0.125D+00 0.875D+00
 Coeff:      0.147D-02-0.289D-02-0.577D-02-0.744D-02 0.321D-01 0.120D+00
 Coeff:      0.374D+00 0.489D+00
 Gap=     0.100 Goal=   None    Shift=    0.000
 Gap=     0.140 Goal=   None    Shift=    0.000
 RMSDP=9.66D-04 MaxDP=9.42D-02 DE=-3.04D-04 OVMax= 4.22D-03

 Cycle   9  Pass 1  IDiag  1:
 RMSU=  2.68D-04    CP:  1.14D+00  6.37D-02  1.07D-01  8.83D-01  7.10D-01
                    CP:  5.91D-01  8.17D-01  4.10D-01
 E= -5990.91138196357     Delta-E=       -0.000099101953 Rises=F Damp=F
 DIIS: error= 2.68D-04 at cycle   9 NSaved=   9.
 NSaved= 9 IEnMin= 9 EnMin= -5990.91138196357     IErMin= 9 ErrMin= 2.68D-04
 ErrMax= 2.68D-04  0.00D+00 EMaxC= 1.00D-01 BMatC= 5.01D-05 BMatP= 3.67D-04
 IDIUse=3 WtCom= 9.97D-01 WtEn= 2.68D-03
 Coeff-Com:  0.446D-03-0.877D-03 0.156D-02-0.104D-01-0.257D-01-0.448D-01
 Coeff-Com: -0.797D-02 0.219D+00 0.869D+00
 Coeff-En:   0.000D+00 0.000D+00 0.000D+00 0.000D+00 0.000D+00 0.000D+00
 Coeff-En:   0.000D+00 0.000D+00 0.100D+01
 Coeff:      0.445D-03-0.875D-03 0.156D-02-0.104D-01-0.257D-01-0.447D-01
 Coeff:     -0.794D-02 0.218D+00 0.869D+00
 Gap=     0.100 Goal=   None    Shift=    0.000
 Gap=     0.140 Goal=   None    Shift=    0.000
 RMSDP=2.81D-04 MaxDP=2.91D-02 DE=-9.91D-05 OVMax= 2.49D-03

 Cycle  10  Pass 1  IDiag  1:
 RMSU=  1.08D-04    CP:  1.14D+00  6.38D-02  1.02D-01  8.83D-01  7.18D-01
                    CP:  5.93D-01  8.56D-01  5.55D-01  9.18D-01
 E= -5990.91139798746     Delta-E=       -0.000016023887 Rises=F Damp=F
 DIIS: error= 1.41D-04 at cycle  10 NSaved=  10.
 NSaved=10 IEnMin=10 EnMin= -5990.91139798746     IErMin=10 ErrMin= 1.41D-04
 ErrMax= 1.41D-04  0.00D+00 EMaxC= 1.00D-01 BMatC= 2.85D-05 BMatP= 5.01D-05
 IDIUse=3 WtCom= 9.99D-01 WtEn= 1.41D-03
 Coeff-Com: -0.370D-04 0.569D-04 0.226D-02-0.611D-02-0.257D-01-0.616D-01
 Coeff-Com: -0.981D-01 0.425D-01 0.636D+00 0.510D+00
 Coeff-En:   0.000D+00 0.000D+00 0.000D+00 0.000D+00 0.000D+00 0.000D+00
 Coeff-En:   0.000D+00 0.000D+00 0.000D+00 0.100D+01
 Coeff:     -0.369D-04 0.568D-04 0.225D-02-0.610D-02-0.257D-01-0.615D-01
 Coeff:     -0.980D-01 0.425D-01 0.635D+00 0.511D+00
 Gap=     0.100 Goal=   None    Shift=    0.000
 Gap=     0.140 Goal=   None    Shift=    0.000
 RMSDP=1.30D-04 MaxDP=1.58D-02 DE=-1.60D-05 OVMax= 1.22D-03

 Cycle  11  Pass 1  IDiag  1:
 RMSU=  6.63D-05    CP:  1.13D+00  6.34D-02  1.02D-01  8.81D-01  7.16D-01
                    CP:  5.86D-01  8.79D-01  5.54D-01  1.01D+00  8.33D-01
 E= -5990.91140728081     Delta-E=       -0.000009293355 Rises=F Damp=F
 DIIS: error= 3.19D-05 at cycle  11 NSaved=  11.
 NSaved=11 IEnMin=11 EnMin= -5990.91140728081     IErMin=11 ErrMin= 3.19D-05
 ErrMax= 3.19D-05  0.00D+00 EMaxC= 1.00D-01 BMatC= 2.63D-06 BMatP= 2.85D-05
 IDIUse=1 WtCom= 1.00D+00 WtEn= 0.00D+00
 Coeff-Com: -0.195D-03 0.416D-03 0.575D-03-0.175D-03-0.541D-02-0.196D-01
 Coeff-Com: -0.499D-01-0.330D-01 0.730D-01 0.249D+00 0.785D+00
 Coeff:     -0.195D-03 0.416D-03 0.575D-03-0.175D-03-0.541D-02-0.196D-01
 Coeff:     -0.499D-01-0.330D-01 0.730D-01 0.249D+00 0.785D+00
 Gap=     0.100 Goal=   None    Shift=    0.000
 Gap=     0.140 Goal=   None    Shift=    0.000
 RMSDP=6.09D-05 MaxDP=7.39D-03 DE=-9.29D-06 OVMax= 5.29D-04

 Cycle  12  Pass 1  IDiag  1:
 RMSU=  1.83D-05    CP:  1.13D+00  6.35D-02  1.01D-01  8.81D-01  7.17D-01
                    CP:  5.81D-01  8.72D-01  5.76D-01  1.07D+00  9.52D-01
                    CP:  9.25D-01
 E= -5990.91140831694     Delta-E=       -0.000001036133 Rises=F Damp=F
 DIIS: error= 1.27D-05 at cycle  12 NSaved=  12.
 NSaved=12 IEnMin=12 EnMin= -5990.91140831694     IErMin=12 ErrMin= 1.27D-05
 ErrMax= 1.27D-05  0.00D+00 EMaxC= 1.00D-01 BMatC= 5.08D-07 BMatP= 2.63D-06
 IDIUse=1 WtCom= 1.00D+00 WtEn= 0.00D+00
 Coeff-Com: -0.997D-04 0.226D-03 0.806D-04 0.346D-03-0.919D-03-0.629D-02
 Coeff-Com: -0.204D-01-0.209D-01-0.891D-02 0.101D+00 0.437D+00 0.519D+00
 Coeff:     -0.997D-04 0.226D-03 0.806D-04 0.346D-03-0.919D-03-0.629D-02
 Coeff:     -0.204D-01-0.209D-01-0.891D-02 0.101D+00 0.437D+00 0.519D+00
 Gap=     0.100 Goal=   None    Shift=    0.000
 Gap=     0.140 Goal=   None    Shift=    0.000
 RMSDP=1.45D-05 MaxDP=1.67D-03 DE=-1.04D-06 OVMax= 1.11D-04

 Cycle  13  Pass 1  IDiag  1:
 RMSU=  8.71D-06    CP:  1.13D+00  6.36D-02  1.01D-01  8.81D-01  7.17D-01
                    CP:  5.82D-01  8.72D-01  5.73D-01  1.06D+00  9.56D-01
                    CP:  9.44D-01  6.99D-01
 E= -5990.91140844067     Delta-E=       -0.000000123728 Rises=F Damp=F
 DIIS: error= 4.02D-06 at cycle  13 NSaved=  13.
 NSaved=13 IEnMin=13 EnMin= -5990.91140844067     IErMin=13 ErrMin= 4.02D-06
 ErrMax= 4.02D-06  0.00D+00 EMaxC= 1.00D-01 BMatC= 5.39D-08 BMatP= 5.08D-07
 IDIUse=1 WtCom= 1.00D+00 WtEn= 0.00D+00
 Coeff-Com: -0.628D-05 0.160D-04-0.641D-04 0.137D-03 0.460D-03 0.620D-03
 Coeff-Com:  0.229D-03-0.274D-02-0.192D-01-0.236D-02 0.381D-01 0.247D+00
 Coeff-Com:  0.738D+00
 Coeff:     -0.628D-05 0.160D-04-0.641D-04 0.137D-03 0.460D-03 0.620D-03
 Coeff:      0.229D-03-0.274D-02-0.192D-01-0.236D-02 0.381D-01 0.247D+00
 Coeff:      0.738D+00
 Gap=     0.100 Goal=   None    Shift=    0.000
 Gap=     0.140 Goal=   None    Shift=    0.000
 RMSDP=1.32D-05 MaxDP=1.34D-03 DE=-1.24D-07 OVMax= 8.13D-05

 Cycle  14  Pass 1  IDiag  1:
 RMSU=  3.95D-06    CP:  1.13D+00  6.36D-02  1.01D-01  8.81D-01  7.17D-01
                    CP:  5.82D-01  8.73D-01  5.75D-01  1.05D+00  9.75D-01
                    CP:  9.44D-01  7.54D-01  9.48D-01
 E= -5990.91140845662     Delta-E=       -0.000000015953 Rises=F Damp=F
 DIIS: error= 1.71D-06 at cycle  14 NSaved=  14.
 NSaved=14 IEnMin=14 EnMin= -5990.91140845662     IErMin=14 ErrMin= 1.71D-06
 ErrMax= 1.71D-06  0.00D+00 EMaxC= 1.00D-01 BMatC= 1.21D-08 BMatP= 5.39D-08
 IDIUse=1 WtCom= 1.00D+00 WtEn= 0.00D+00
 Coeff-Com:  0.432D-05-0.921D-05-0.282D-04 0.349D-04 0.329D-03 0.917D-03
 Coeff-Com:  0.217D-02 0.494D-03-0.913D-02-0.111D-01-0.226D-01 0.769D-01
 Coeff-Com:  0.393D+00 0.569D+00
 Coeff:      0.432D-05-0.921D-05-0.282D-04 0.349D-04 0.329D-03 0.917D-03
 Coeff:      0.217D-02 0.494D-03-0.913D-02-0.111D-01-0.226D-01 0.769D-01
 Coeff:      0.393D+00 0.569D+00
 Gap=     0.100 Goal=   None    Shift=    0.000
 Gap=     0.140 Goal=   None    Shift=    0.000
 RMSDP=4.86D-06 MaxDP=6.72D-04 DE=-1.60D-08 OVMax= 3.01D-05

 Cycle  15  Pass 1  IDiag  1:
 RMSU=  1.91D-06    CP:  1.13D+00  6.36D-02  1.01D-01  8.81D-01  7.17D-01
                    CP:  5.82D-01  8.72D-01  5.76D-01  1.05D+00  9.65D-01
                    CP:  9.54D-01  7.89D-01  1.06D+00  6.11D-01
 E= -5990.91140846002     Delta-E=       -0.000000003398 Rises=F Damp=F
 DIIS: error= 1.38D-06 at cycle  15 NSaved=  15.
 NSaved=15 IEnMin=15 EnMin= -5990.91140846002     IErMin=15 ErrMin= 1.38D-06
 ErrMax= 1.38D-06  0.00D+00 EMaxC= 1.00D-01 BMatC= 3.96D-09 BMatP= 1.21D-08
 IDIUse=1 WtCom= 1.00D+00 WtEn= 0.00D+00
 Coeff-Com:  0.446D-05-0.102D-04 0.420D-05-0.797D-05 0.106D-03 0.440D-03
 Coeff-Com:  0.139D-02 0.935D-03-0.742D-03-0.676D-02-0.255D-01-0.213D-01
 Coeff-Com:  0.545D-01 0.376D+00 0.621D+00
 Coeff:      0.446D-05-0.102D-04 0.420D-05-0.797D-05 0.106D-03 0.440D-03
 Coeff:      0.139D-02 0.935D-03-0.742D-03-0.676D-02-0.255D-01-0.213D-01
 Coeff:      0.545D-01 0.376D+00 0.621D+00
 Gap=     0.100 Goal=   None    Shift=    0.000
 Gap=     0.140 Goal=   None    Shift=    0.000
 RMSDP=1.65D-06 MaxDP=1.91D-04 DE=-3.40D-09 OVMax= 2.68D-05

 Cycle  16  Pass 1  IDiag  1:
 RMSU=  7.25D-07    CP:  1.13D+00  6.36D-02  1.01D-01  8.81D-01  7.17D-01
                    CP:  5.82D-01  8.72D-01  5.75D-01  1.05D+00  9.68D-01
                    CP:  9.50D-01  7.87D-01  1.05D+00  7.38D-01  6.14D-01
 E= -5990.91140846186     Delta-E=       -0.000000001837 Rises=F Damp=F
 DIIS: error= 6.61D-07 at cycle  16 NSaved=  16.
 NSaved=16 IEnMin=16 EnMin= -5990.91140846186     IErMin=16 ErrMin= 6.61D-07
 ErrMax= 6.61D-07  0.00D+00 EMaxC= 1.00D-01 BMatC= 8.23D-10 BMatP= 3.96D-09
 IDIUse=1 WtCom= 1.00D+00 WtEn= 0.00D+00
 Coeff-Com:  0.288D-05-0.656D-05 0.310D-05-0.668D-05 0.883D-05 0.693D-04
 Coeff-Com:  0.362D-03 0.350D-03 0.148D-02-0.135D-02-0.832D-02-0.304D-01
 Coeff-Com: -0.532D-01 0.480D-01 0.310D+00 0.733D+00
 Coeff:      0.288D-05-0.656D-05 0.310D-05-0.668D-05 0.883D-05 0.693D-04
 Coeff:      0.362D-03 0.350D-03 0.148D-02-0.135D-02-0.832D-02-0.304D-01
 Coeff:     -0.532D-01 0.480D-01 0.310D+00 0.733D+00
 Gap=     0.100 Goal=   None    Shift=    0.000
 Gap=     0.140 Goal=   None    Shift=    0.000
 RMSDP=7.10D-07 MaxDP=1.04D-04 DE=-1.84D-09 OVMax= 9.70D-06

 Cycle  17  Pass 1  IDiag  1:
 RMSU=  3.58D-07    CP:  1.13D+00  6.36D-02  1.01D-01  8.81D-01  7.17D-01
                    CP:  5.82D-01  8.72D-01  5.76D-01  1.05D+00  9.67D-01
                    CP:  9.50D-01  7.85D-01  1.08D+00  7.05D-01  7.60D-01
                    CP:  1.10D+00
 E= -5990.91140846244     Delta-E=       -0.000000000582 Rises=F Damp=F
 DIIS: error= 4.11D-07 at cycle  17 NSaved=  17.
 NSaved=17 IEnMin=17 EnMin= -5990.91140846244     IErMin=17 ErrMin= 4.11D-07
 ErrMax= 4.11D-07  0.00D+00 EMaxC= 1.00D-01 BMatC= 3.36D-10 BMatP= 8.23D-10
 IDIUse=1 WtCom= 1.00D+00 WtEn= 0.00D+00
 Coeff-Com: -0.282D-06 0.699D-06-0.115D-05-0.872D-06-0.428D-04-0.163D-03
 Coeff-Com: -0.373D-03-0.222D-03 0.125D-02 0.218D-02 0.702D-02-0.996D-02
 Coeff-Com: -0.534D-01-0.149D+00-0.983D-01 0.465D+00 0.835D+00
 Coeff:     -0.282D-06 0.699D-06-0.115D-05-0.872D-06-0.428D-04-0.163D-03
 Coeff:     -0.373D-03-0.222D-03 0.125D-02 0.218D-02 0.702D-02-0.996D-02
 Coeff:     -0.534D-01-0.149D+00-0.983D-01 0.465D+00 0.835D+00
 Gap=     0.100 Goal=   None    Shift=    0.000
 Gap=     0.140 Goal=   None    Shift=    0.000
 RMSDP=5.23D-07 MaxDP=8.28D-05 DE=-5.82D-10 OVMax= 1.02D-05

 Cycle  18  Pass 1  IDiag  1:
 RMSU=  2.22D-07    CP:  1.13D+00  6.36D-02  1.01D-01  8.81D-01  7.17D-01
                    CP:  5.82D-01  8.72D-01  5.75D-01  1.05D+00  9.67D-01
                    CP:  9.50D-01  7.79D-01  1.09D+00  7.20D-01  7.71D-01
                    CP:  1.31D+00  1.13D+00
 E= -5990.91140846277     Delta-E=       -0.000000000329 Rises=F Damp=F
 DIIS: error= 2.20D-07 at cycle  18 NSaved=  18.
 NSaved=18 IEnMin=18 EnMin= -5990.91140846277     IErMin=18 ErrMin= 2.20D-07
 ErrMax= 2.20D-07  0.00D+00 EMaxC= 1.00D-01 BMatC= 1.02D-10 BMatP= 3.36D-10
 IDIUse=1 WtCom= 1.00D+00 WtEn= 0.00D+00
 Coeff-Com: -0.149D-05 0.335D-05-0.966D-09-0.936D-06-0.347D-04-0.128D-03
 Coeff-Com: -0.324D-03-0.207D-03 0.430D-03 0.166D-02 0.650D-02 0.115D-02
 Coeff-Com: -0.204D-01-0.982D-01-0.140D+00 0.845D-01 0.490D+00 0.674D+00
 Coeff:     -0.149D-05 0.335D-05-0.966D-09-0.936D-06-0.347D-04-0.128D-03
 Coeff:     -0.324D-03-0.207D-03 0.430D-03 0.166D-02 0.650D-02 0.115D-02
 Coeff:     -0.204D-01-0.982D-01-0.140D+00 0.845D-01 0.490D+00 0.674D+00
 Gap=     0.100 Goal=   None    Shift=    0.000
 Gap=     0.140 Goal=   None    Shift=    0.000
 RMSDP=3.00D-07 MaxDP=4.04D-05 DE=-3.29D-10 OVMax= 4.80D-06

 Cycle  19  Pass 1  IDiag  1:
 RMSU=  1.33D-07    CP:  1.13D+00  6.36D-02  1.01D-01  8.81D-01  7.17D-01
                    CP:  5.82D-01  8.72D-01  5.75D-01  1.05D+00  9.66D-01
                    CP:  9.50D-01  7.80D-01  1.09D+00  6.93D-01  8.17D-01
                    CP:  1.42D+00  1.39D+00  1.07D+00
 E= -5990.91140846287     Delta-E=       -0.000000000100 Rises=F Damp=F
 DIIS: error= 1.40D-07 at cycle  19 NSaved=  19.
 NSaved=19 IEnMin=19 EnMin= -5990.91140846287     IErMin=19 ErrMin= 1.40D-07
 ErrMax= 1.40D-07  0.00D+00 EMaxC= 1.00D-01 BMatC= 3.31D-11 BMatP= 1.02D-10
 IDIUse=1 WtCom= 1.00D+00 WtEn= 0.00D+00
 Coeff-Com: -0.792D-06 0.174D-05 0.377D-06-0.188D-05-0.691D-05-0.207D-04
 Coeff-Com: -0.586D-04-0.389D-04-0.199D-03 0.120D-03 0.109D-02 0.464D-02
 Coeff-Com:  0.846D-02 0.165D-02-0.502D-01-0.135D+00-0.216D-01 0.445D+00
 Coeff-Com:  0.746D+00
 Coeff:     -0.792D-06 0.174D-05 0.377D-06-0.188D-05-0.691D-05-0.207D-04
 Coeff:     -0.586D-04-0.389D-04-0.199D-03 0.120D-03 0.109D-02 0.464D-02
 Coeff:      0.846D-02 0.165D-02-0.502D-01-0.135D+00-0.216D-01 0.445D+00
 Coeff:      0.746D+00
 Gap=     0.100 Goal=   None    Shift=    0.000
 Gap=     0.140 Goal=   None    Shift=    0.000
 RMSDP=2.22D-07 MaxDP=3.99D-05 DE=-1.00D-10 OVMax= 3.56D-06

 Cycle  20  Pass 1  IDiag  1:
 RMSU=  9.42D-08    CP:  1.13D+00  6.36D-02  1.01D-01  8.81D-01  7.17D-01
                    CP:  5.82D-01  8.72D-01  5.75D-01  1.05D+00  9.67D-01
                    CP:  9.50D-01  7.78D-01  1.09D+00  7.00D-01  7.90D-01
                    CP:  1.46D+00  1.44D+00  1.26D+00  7.05D-01
 E= -5990.91140846280     Delta-E=        0.000000000065 Rises=F Damp=F
 DIIS: error= 4.45D-08 at cycle  20 NSaved=  20.
 NSaved=20 IEnMin=19 EnMin= -5990.91140846287     IErMin=20 ErrMin= 4.45D-08
 ErrMax= 4.45D-08  0.00D+00 EMaxC= 1.00D-01 BMatC= 4.69D-12 BMatP= 3.31D-11
 IDIUse=1 WtCom= 1.00D+00 WtEn= 0.00D+00
 Coeff-Com:  0.113D-07-0.281D-07 0.418D-07-0.182D-06 0.350D-05 0.128D-04
 Coeff-Com:  0.231D-04 0.180D-04-0.163D-03-0.247D-03-0.826D-03 0.208D-02
 Coeff-Com:  0.788D-02 0.200D-01 0.170D-03-0.808D-01-0.993D-01 0.950D-01
 Coeff-Com:  0.350D+00 0.706D+00
 Coeff:      0.113D-07-0.281D-07 0.418D-07-0.182D-06 0.350D-05 0.128D-04
 Coeff:      0.231D-04 0.180D-04-0.163D-03-0.247D-03-0.826D-03 0.208D-02
 Coeff:      0.788D-02 0.200D-01 0.170D-03-0.808D-01-0.993D-01 0.950D-01
 Coeff:      0.350D+00 0.706D+00
 Gap=     0.100 Goal=   None    Shift=    0.000
 Gap=     0.140 Goal=   None    Shift=    0.000
 RMSDP=9.52D-08 MaxDP=9.06D-06 DE= 6.55D-11 OVMax= 1.02D-06

 Cycle  21  Pass 1  IDiag  1:
 Restarting incremental Fock formation.
 E= -5990.91140846287     Delta-E=       -0.000000000065 Rises=F Damp=F
 DIIS: error= 1.48D-08 at cycle  21 NSaved=  20.
 NSaved=20 IEnMin=18 EnMin= -5990.91140846287     IErMin=20 ErrMin= 1.48D-08
 ErrMax= 1.48D-08  0.00D+00 EMaxC= 1.00D-01 BMatC= 6.67D-13 BMatP= 4.69D-12
 IDIUse=1 WtCom= 1.00D+00 WtEn= 0.00D+00
 Coeff-Com:  0.247D-08 0.252D-06 0.739D-06 0.821D-06 0.247D-05 0.213D-05
 Coeff-Com:  0.135D-05-0.281D-05-0.179D-04-0.168D-03-0.161D-04-0.236D-04
 Coeff-Com:  0.394D-02 0.727D-02 0.398D-02-0.206D-01-0.516D-01-0.450D-01
 Coeff-Com:  0.208D+00 0.894D+00
 Coeff:      0.247D-08 0.252D-06 0.739D-06 0.821D-06 0.247D-05 0.213D-05
 Coeff:      0.135D-05-0.281D-05-0.179D-04-0.168D-03-0.161D-04-0.236D-04
 Coeff:      0.394D-02 0.727D-02 0.398D-02-0.206D-01-0.516D-01-0.450D-01
 Coeff:      0.208D+00 0.894D+00
 Gap=     0.100 Goal=   None    Shift=    0.000
 Gap=     0.140 Goal=   None    Shift=    0.000
 RMSDP=3.10D-08 MaxDP=4.94D-06 DE=-6.55D-11 OVMax= 4.62D-07

 Cycle  22  Pass 1  IDiag  1:
 RMSU=  3.09D-08    CP:  1.00D+00
 E= -5990.91140846279     Delta-E=        0.000000000076 Rises=F Damp=F
 DIIS: error= 6.66D-09 at cycle  22 NSaved=  20.
 NSaved=20 IEnMin=17 EnMin= -5990.91140846287     IErMin=20 ErrMin= 6.66D-09
 ErrMax= 6.66D-09  0.00D+00 EMaxC= 1.00D-01 BMatC= 2.09D-13 BMatP= 6.67D-13
 IDIUse=1 WtCom= 1.00D+00 WtEn= 0.00D+00
 Coeff-Com:  0.624D-07 0.359D-06-0.709D-07-0.819D-07-0.150D-05-0.142D-05
 Coeff-Com:  0.264D-04 0.374D-04 0.582D-04-0.403D-03-0.167D-02-0.206D-02
 Coeff-Com:  0.380D-02 0.188D-01 0.988D-02-0.446D-01-0.977D-01-0.466D-01
 Coeff-Com:  0.411D+00 0.749D+00
 Coeff:      0.624D-07 0.359D-06-0.709D-07-0.819D-07-0.150D-05-0.142D-05
 Coeff:      0.264D-04 0.374D-04 0.582D-04-0.403D-03-0.167D-02-0.206D-02
 Coeff:      0.380D-02 0.188D-01 0.988D-02-0.446D-01-0.977D-01-0.466D-01
 Coeff:      0.411D+00 0.749D+00
 Gap=     0.100 Goal=   None    Shift=    0.000
 Gap=     0.140 Goal=   None    Shift=    0.000
 RMSDP=2.03D-08 MaxDP=1.97D-06 DE= 7.64D-11 OVMax= 2.06D-07

 Cycle  23  Pass 1  IDiag  1:
 RMSU=  1.97D-08    CP:  1.00D+00  1.15D+00
 E= -5990.91140846282     Delta-E=       -0.000000000029 Rises=F Damp=F
 DIIS: error= 4.56D-09 at cycle  23 NSaved=  20.
 NSaved=20 IEnMin=16 EnMin= -5990.91140846287     IErMin=20 ErrMin= 4.56D-09
 ErrMax= 4.56D-09  0.00D+00 EMaxC= 1.00D-01 BMatC= 6.07D-14 BMatP= 2.09D-13
 IDIUse=1 WtCom= 1.00D+00 WtEn= 0.00D+00
 Coeff-Com: -0.301D-08-0.262D-06-0.512D-06-0.158D-05 0.427D-07 0.178D-04
 Coeff-Com:  0.217D-04 0.347D-04-0.208D-03-0.793D-03-0.175D-02 0.560D-03
 Coeff-Com:  0.795D-02 0.935D-02-0.940D-02-0.387D-01-0.766D-01-0.312D-01
 Coeff-Com:  0.385D+00 0.755D+00
 Coeff:     -0.301D-08-0.262D-06-0.512D-06-0.158D-05 0.427D-07 0.178D-04
 Coeff:      0.217D-04 0.347D-04-0.208D-03-0.793D-03-0.175D-02 0.560D-03
 Coeff:      0.795D-02 0.935D-02-0.940D-02-0.387D-01-0.766D-01-0.312D-01
 Coeff:      0.385D+00 0.755D+00
 Gap=     0.100 Goal=   None    Shift=    0.000
 Gap=     0.140 Goal=   None    Shift=    0.000
 RMSDP=8.69D-09 MaxDP=1.44D-06 DE=-2.91D-11 OVMax= 9.61D-08

 Cycle  24  Pass 1  IDiag  1:
 RMSU=  7.39D-09    CP:  1.00D+00  1.27D+00  8.85D-01
 E= -5990.91140846284     Delta-E=       -0.000000000015 Rises=F Damp=F
 DIIS: error= 2.98D-09 at cycle  24 NSaved=  20.
 NSaved=20 IEnMin=15 EnMin= -5990.91140846287     IErMin=20 ErrMin= 2.98D-09
 ErrMax= 2.98D-09  0.00D+00 EMaxC= 1.00D-01 BMatC= 1.91D-14 BMatP= 6.07D-14
 IDIUse=1 WtCom= 1.00D+00 WtEn= 0.00D+00
 Coeff-Com:  0.221D-08 0.114D-06-0.246D-06 0.840D-06 0.533D-05 0.203D-05
 Coeff-Com: -0.484D-05-0.607D-04-0.140D-03-0.539D-03-0.432D-04 0.108D-02
 Coeff-Com:  0.321D-02 0.200D-02-0.508D-02-0.344D-01-0.946D-01 0.780D-01
 Coeff-Com:  0.446D+00 0.604D+00
 Coeff:      0.221D-08 0.114D-06-0.246D-06 0.840D-06 0.533D-05 0.203D-05
 Coeff:     -0.484D-05-0.607D-04-0.140D-03-0.539D-03-0.432D-04 0.108D-02
 Coeff:      0.321D-02 0.200D-02-0.508D-02-0.344D-01-0.946D-01 0.780D-01
 Coeff:      0.446D+00 0.604D+00
 Gap=     0.100 Goal=   None    Shift=    0.000
 Gap=     0.140 Goal=   None    Shift=    0.000
 RMSDP=3.33D-09 MaxDP=3.23D-07 DE=-1.46D-11 OVMax= 3.83D-08

 SCF Done:  E(UB3LYP) =  -5990.91140846     A.U. after   24 cycles
            NFock= 24  Conv=0.33D-08     -V/T= 2.0014
 <Sx>= 0.0000 <Sy>= 0.0000 <Sz>= 0.5000 <S**2>= 0.7609 S= 0.5054
 <L.S>=  0.00000000000    
 KE= 5.982341322373D+03 PE=-1.948652988475D+04 EE= 4.917232000779D+03
 Annihilation of the first spin contaminant:
 S**2 before annihilation     0.7609,   after     0.7500
 Leave Link  502 at Sun Dec 17 20:57:52 2023, MaxMem=  4026531840 cpu:            4001.7 elap:             534.5
 (Enter /sysapps/ubuntu-applications/gaussian/Gaussian/AVX2/g16/l601.exe)
 Copying SCF densities to generalized density rwf, IOpCl= 1 IROHF=0.

 **********************************************************************

            Population analysis using the SCF density.

 **********************************************************************

 Alpha  occ. eigenvalues -- -482.71241-482.71164 -62.36550 -62.36475 -56.18572
 Alpha  occ. eigenvalues --  -56.18499 -56.18218 -56.18169 -56.18142 -56.18092
 Alpha  occ. eigenvalues --  -18.95718 -18.95629 -10.11798 -10.11606 -10.10443
 Alpha  occ. eigenvalues --  -10.10105 -10.07791 -10.07778 -10.07721 -10.07693
 Alpha  occ. eigenvalues --  -10.07575 -10.07546 -10.07353 -10.07262 -10.07138
 Alpha  occ. eigenvalues --  -10.07068 -10.07059 -10.06938 -10.06924 -10.06602
 Alpha  occ. eigenvalues --   -8.57552  -8.57481  -6.40665  -6.40599  -6.39472
 Alpha  occ. eigenvalues --   -6.39400  -6.39336  -6.39261  -2.51773  -2.51706
 Alpha  occ. eigenvalues --   -2.51452  -2.51385  -2.51348  -2.51278  -2.50398
 Alpha  occ. eigenvalues --   -2.50394  -2.50323  -2.50320  -0.89818  -0.89089
 Alpha  occ. eigenvalues --   -0.77594  -0.77180  -0.74612  -0.72605  -0.67123
 Alpha  occ. eigenvalues --   -0.66730  -0.65746  -0.65168  -0.64671  -0.61408
 Alpha  occ. eigenvalues --   -0.55110  -0.53747  -0.51492  -0.51159  -0.49830
 Alpha  occ. eigenvalues --   -0.46807  -0.45729  -0.42875  -0.41213  -0.40055
 Alpha  occ. eigenvalues --   -0.36870  -0.36754  -0.36175  -0.35305  -0.34004
 Alpha  occ. eigenvalues --   -0.33512  -0.32848  -0.32060  -0.31247  -0.31012
 Alpha  occ. eigenvalues --   -0.29248  -0.28249  -0.28040  -0.27532  -0.26909
 Alpha  occ. eigenvalues --   -0.25706  -0.25685  -0.25344  -0.24877  -0.24337
 Alpha  occ. eigenvalues --   -0.22604  -0.20327  -0.18670  -0.18302  -0.16911
 Alpha  occ. eigenvalues --   -0.16500  -0.15222  -0.15100  -0.13997  -0.12642
 Alpha  occ. eigenvalues --   -0.12431  -0.11730  -0.03989
 Alpha virt. eigenvalues --    0.06060   0.06849   0.06925   0.08258   0.08386
 Alpha virt. eigenvalues --    0.08757   0.08833   0.08964   0.09376   0.09603
 Alpha virt. eigenvalues --    0.10314   0.10485   0.11365   0.11993   0.12213
 Alpha virt. eigenvalues --    0.12480   0.13324   0.13859   0.14053   0.14159
 Alpha virt. eigenvalues --    0.14445   0.14928   0.15077   0.15177   0.16106
 Alpha virt. eigenvalues --    0.16474   0.16699   0.17307   0.17525   0.17648
 Alpha virt. eigenvalues --    0.18095   0.18300   0.18563   0.18743   0.19074
 Alpha virt. eigenvalues --    0.19122   0.19823   0.20058   0.20234   0.20366
 Alpha virt. eigenvalues --    0.20809   0.21386   0.21433   0.21998   0.22003
 Alpha virt. eigenvalues --    0.22578   0.22800   0.22994   0.23069   0.23424
 Alpha virt. eigenvalues --    0.24016   0.24192   0.24266   0.25110   0.25207
 Alpha virt. eigenvalues --    0.25476   0.25724   0.25867   0.26227   0.27027
 Alpha virt. eigenvalues --    0.27068   0.27389   0.28288   0.28527   0.28701
 Alpha virt. eigenvalues --    0.28863   0.29046   0.29730   0.30075   0.30251
 Alpha virt. eigenvalues --    0.30764   0.30923   0.31547   0.31898   0.32010
 Alpha virt. eigenvalues --    0.32215   0.32567   0.32940   0.33009   0.33486
 Alpha virt. eigenvalues --    0.33751   0.34263   0.34789   0.35098   0.35365
 Alpha virt. eigenvalues --    0.35706   0.36012   0.36506   0.36826   0.37559
 Alpha virt. eigenvalues --    0.37852   0.37915   0.38188   0.38345   0.38852
 Alpha virt. eigenvalues --    0.39170   0.39279   0.39593   0.40186   0.40272
 Alpha virt. eigenvalues --    0.40952   0.41229   0.41359   0.41694   0.42539
 Alpha virt. eigenvalues --    0.42763   0.43270   0.44103   0.44428   0.44536
 Alpha virt. eigenvalues --    0.45428   0.45960   0.46308   0.46563   0.47000
 Alpha virt. eigenvalues --    0.47078   0.47290   0.47649   0.48076   0.49012
 Alpha virt. eigenvalues --    0.49192   0.50144   0.50939   0.51788   0.52285
 Alpha virt. eigenvalues --    0.52874   0.54400   0.55666   0.56126   0.57148
 Alpha virt. eigenvalues --    0.57453   0.57931   0.58527   0.60535   0.61672
 Alpha virt. eigenvalues --    0.62732   0.63297   0.63763   0.64098   0.64590
 Alpha virt. eigenvalues --    0.64905   0.65570   0.65823   0.66151   0.66466
 Alpha virt. eigenvalues --    0.66594   0.66906   0.67318   0.68125   0.68570
 Alpha virt. eigenvalues --    0.69340   0.69718   0.69956   0.70556   0.70710
 Alpha virt. eigenvalues --    0.72105   0.73078   0.73168   0.73473   0.74687
 Alpha virt. eigenvalues --    0.75059   0.75320   0.77028   0.77348   0.77680
 Alpha virt. eigenvalues --    0.78122   0.78298   0.79642   0.79872   0.80861
 Alpha virt. eigenvalues --    0.81217   0.81766   0.82271   0.82472   0.82763
 Alpha virt. eigenvalues --    0.83088   0.83414   0.83857   0.84206   0.84688
 Alpha virt. eigenvalues --    0.85369   0.86017   0.86851   0.87392   0.88199
 Alpha virt. eigenvalues --    0.88927   0.89058   0.89175   0.89772   0.90346
 Alpha virt. eigenvalues --    0.90830   0.91034   0.92330   0.92846   0.94203
 Alpha virt. eigenvalues --    0.94581   0.94995   0.95308   0.95870   0.96139
 Alpha virt. eigenvalues --    0.97553   0.98002   0.99077   0.99521   1.00020
 Alpha virt. eigenvalues --    1.00795   1.01485   1.01857   1.02856   1.03142
 Alpha virt. eigenvalues --    1.05055   1.05753   1.06403   1.07084   1.07610
 Alpha virt. eigenvalues --    1.08036   1.08653   1.09308   1.10923   1.11422
 Alpha virt. eigenvalues --    1.12431   1.12954   1.13815   1.15197   1.16076
 Alpha virt. eigenvalues --    1.16561   1.17499   1.17698   1.17881   1.18015
 Alpha virt. eigenvalues --    1.19980   1.20205   1.21262   1.22428   1.24020
 Alpha virt. eigenvalues --    1.24538   1.25783   1.26005   1.26734   1.27555
 Alpha virt. eigenvalues --    1.30395   1.31641   1.31960   1.35297   1.37785
 Alpha virt. eigenvalues --    1.38303   1.40177   1.41265   1.41425   1.42360
 Alpha virt. eigenvalues --    1.42988   1.44071   1.44587   1.47019   1.48018
 Alpha virt. eigenvalues --    1.50712   1.51584   1.53620   1.58217   1.58621
 Alpha virt. eigenvalues --    1.59382   1.61566   1.62153   1.63790   1.64243
 Alpha virt. eigenvalues --    1.65008   1.65574   1.66404   1.67341   1.67621
 Alpha virt. eigenvalues --    1.68127   1.68443   1.69352   1.70095   1.70666
 Alpha virt. eigenvalues --    1.75178   1.75230   1.75902   1.76190   1.77121
 Alpha virt. eigenvalues --    1.77492   1.78780   1.80342   1.83342   1.83991
 Alpha virt. eigenvalues --    1.84473   1.84783   1.86522   1.86880   1.88314
 Alpha virt. eigenvalues --    1.88909   1.89328   1.89749   1.91938   1.94377
 Alpha virt. eigenvalues --    1.95020   1.96072   1.97735   1.97978   1.98188
 Alpha virt. eigenvalues --    1.99120   2.00499   2.01393   2.02163   2.03260
 Alpha virt. eigenvalues --    2.03408   2.05019   2.05292   2.06143   2.06262
 Alpha virt. eigenvalues --    2.07087   2.07388   2.07837   2.08594   2.09458
 Alpha virt. eigenvalues --    2.10411   2.12534   2.12620   2.14567   2.16198
 Alpha virt. eigenvalues --    2.16595   2.17621   2.18954   2.19570   2.20151
 Alpha virt. eigenvalues --    2.23226   2.23858   2.26478   2.27270   2.28722
 Alpha virt. eigenvalues --    2.32029   2.33493   2.34722   2.37931   2.39029
 Alpha virt. eigenvalues --    2.40188   2.41434   2.44837   2.44993   2.46696
 Alpha virt. eigenvalues --    2.49859   2.50998   2.52427   2.53502   2.54179
 Alpha virt. eigenvalues --    2.55179   2.56228   2.57966   2.58340   2.58633
 Alpha virt. eigenvalues --    2.60117   2.60608   2.61724   2.62969   2.75890
 Alpha virt. eigenvalues --    2.76100   2.78025   2.78258   2.79648   2.79757
 Alpha virt. eigenvalues --    2.80278   2.80389   2.80706   2.81214   2.82885
 Alpha virt. eigenvalues --    2.83324   2.83670   2.85062   2.85533   2.86079
 Alpha virt. eigenvalues --    2.89528   2.90280   2.90666   2.91653   2.92692
 Alpha virt. eigenvalues --    2.93018   2.93559   2.95686   2.96399   2.97260
 Alpha virt. eigenvalues --    2.97439   3.01062   3.02055   3.02662   3.03144
 Alpha virt. eigenvalues --    3.04823   3.06807   3.07888   3.07982   3.08626
 Alpha virt. eigenvalues --    3.09031   3.09485   3.10955   3.14523   3.17162
 Alpha virt. eigenvalues --    3.20519   3.22271   3.22832   3.23930   3.27722
 Alpha virt. eigenvalues --    3.29419   3.33376   3.34356   3.34864   3.36879
 Alpha virt. eigenvalues --    3.39488   3.44193   3.46396   3.48661   3.49227
 Alpha virt. eigenvalues --    3.49643   3.49677   3.51199   3.56103   3.62620
 Alpha virt. eigenvalues --    3.62742   3.63549   3.65597   3.67262   3.70142
 Alpha virt. eigenvalues --    3.71380   3.75322   3.78091   3.79473   3.86007
 Alpha virt. eigenvalues --    3.88733   3.94934   4.09985   4.10846   4.11028
 Alpha virt. eigenvalues --    4.14386   4.16141   4.20856   4.25385   4.26472
 Alpha virt. eigenvalues --    4.27297   4.29194   4.32516   4.33377   4.34586
 Alpha virt. eigenvalues --    4.35147   4.37961   4.38291   4.40758   4.48457
 Alpha virt. eigenvalues --    4.54544   4.56829   4.67900   4.73131   4.76278
 Alpha virt. eigenvalues --    4.93403   4.96595   4.98503   5.22520   5.22726
 Alpha virt. eigenvalues --    5.40904   5.43694   5.87609   5.96579   6.93266
 Alpha virt. eigenvalues --    6.95883   7.71519   7.72688   7.85345   7.88399
 Alpha virt. eigenvalues --    7.92764   7.94669  23.60755  23.76649  23.84169
 Alpha virt. eigenvalues --   23.90000  24.03460  24.07194  24.07752  24.09449
 Alpha virt. eigenvalues --   24.10487  24.10578  24.22778  24.23180  24.25156
 Alpha virt. eigenvalues --   24.25619  24.33339  24.33630  24.37749  24.43922
 Alpha virt. eigenvalues --   48.18313  48.20236  50.17511  50.20540 289.91575
 Alpha virt. eigenvalues --  289.92719 290.05041 290.08276 290.14647 290.16914
 Alpha virt. eigenvalues -- 1021.005711021.02951
  Beta  occ. eigenvalues -- -482.71241-482.71164 -62.36549 -62.36474 -56.18574
  Beta  occ. eigenvalues --  -56.18501 -56.18215 -56.18169 -56.18139 -56.18092
  Beta  occ. eigenvalues --  -18.94977 -18.94918 -10.11697 -10.11507 -10.10327
  Beta  occ. eigenvalues --  -10.09958 -10.07804 -10.07765 -10.07708 -10.07707
  Beta  occ. eigenvalues --  -10.07581 -10.07551 -10.07358 -10.07268 -10.07120
  Beta  occ. eigenvalues --  -10.07051 -10.06971 -10.06911 -10.06823 -10.06588
  Beta  occ. eigenvalues --   -8.57551  -8.57481  -6.40669  -6.40603  -6.39467
  Beta  occ. eigenvalues --   -6.39394  -6.39336  -6.39261  -2.51776  -2.51709
  Beta  occ. eigenvalues --   -2.51450  -2.51382  -2.51351  -2.51281  -2.50395
  Beta  occ. eigenvalues --   -2.50392  -2.50320  -2.50317  -0.88658  -0.87842
  Beta  occ. eigenvalues --   -0.77440  -0.77109  -0.74290  -0.72475  -0.67038
  Beta  occ. eigenvalues --   -0.66602  -0.65618  -0.65136  -0.64643  -0.61269
  Beta  occ. eigenvalues --   -0.54267  -0.53570  -0.51462  -0.51131  -0.49679
  Beta  occ. eigenvalues --   -0.46654  -0.45365  -0.42826  -0.41100  -0.39874
  Beta  occ. eigenvalues --   -0.36727  -0.36660  -0.36038  -0.35225  -0.33828
  Beta  occ. eigenvalues --   -0.33436  -0.32797  -0.31962  -0.30800  -0.30178
  Beta  occ. eigenvalues --   -0.28975  -0.27844  -0.27646  -0.27197  -0.26138
  Beta  occ. eigenvalues --   -0.25518  -0.25150  -0.24845  -0.24336  -0.23953
  Beta  occ. eigenvalues --   -0.21900  -0.19141  -0.18593  -0.18220  -0.16357
  Beta  occ. eigenvalues --   -0.16187  -0.15036  -0.14635  -0.12584  -0.12148
  Beta  occ. eigenvalues --   -0.11859  -0.11040
  Beta virt. eigenvalues --    0.02958   0.06616   0.06885   0.06930   0.08309
  Beta virt. eigenvalues --    0.08424   0.08779   0.08928   0.09132   0.09425
  Beta virt. eigenvalues --    0.09663   0.10441   0.10560   0.11553   0.12022
  Beta virt. eigenvalues --    0.12479   0.13172   0.13358   0.13886   0.14091
  Beta virt. eigenvalues --    0.14473   0.14891   0.14971   0.15195   0.15969
  Beta virt. eigenvalues --    0.16151   0.16530   0.16938   0.17323   0.17553
  Beta virt. eigenvalues --    0.17651   0.18104   0.18304   0.18573   0.18751
  Beta virt. eigenvalues --    0.19122   0.19144   0.19843   0.20069   0.20248
  Beta virt. eigenvalues --    0.20381   0.20838   0.21425   0.21479   0.22028
  Beta virt. eigenvalues --    0.22058   0.22624   0.22863   0.23061   0.23144
  Beta virt. eigenvalues --    0.23459   0.24027   0.24225   0.24293   0.25125
  Beta virt. eigenvalues --    0.25221   0.25499   0.25751   0.25899   0.26278
  Beta virt. eigenvalues --    0.27079   0.27372   0.27510   0.28378   0.28587
  Beta virt. eigenvalues --    0.28881   0.28905   0.29313   0.29839   0.30118
  Beta virt. eigenvalues --    0.30391   0.30814   0.30977   0.31584   0.31928
  Beta virt. eigenvalues --    0.32034   0.32234   0.32610   0.32977   0.33102
  Beta virt. eigenvalues --    0.33563   0.33793   0.34314   0.34846   0.35149
  Beta virt. eigenvalues --    0.35417   0.35784   0.36076   0.36601   0.36880
  Beta virt. eigenvalues --    0.37596   0.37867   0.37981   0.38232   0.38399
  Beta virt. eigenvalues --    0.38915   0.39221   0.39319   0.39620   0.40295
  Beta virt. eigenvalues --    0.40337   0.41029   0.41275   0.41424   0.41753
  Beta virt. eigenvalues --    0.42610   0.42811   0.43338   0.44177   0.44495
  Beta virt. eigenvalues --    0.44632   0.45563   0.46117   0.46421   0.46635
  Beta virt. eigenvalues --    0.47076   0.47297   0.47356   0.47830   0.48209
  Beta virt. eigenvalues --    0.49170   0.49316   0.50266   0.51009   0.51896
  Beta virt. eigenvalues --    0.52415   0.52990   0.54459   0.55764   0.56224
  Beta virt. eigenvalues --    0.57309   0.57545   0.58042   0.58912   0.60721
  Beta virt. eigenvalues --    0.61762   0.62806   0.63360   0.63818   0.64114
  Beta virt. eigenvalues --    0.64598   0.64961   0.65631   0.65873   0.66207
  Beta virt. eigenvalues --    0.66535   0.66632   0.66941   0.67391   0.68185
  Beta virt. eigenvalues --    0.68656   0.69421   0.69788   0.70024   0.70597
  Beta virt. eigenvalues --    0.70833   0.72189   0.73130   0.73211   0.73530
  Beta virt. eigenvalues --    0.74870   0.75299   0.75642   0.77124   0.77523
  Beta virt. eigenvalues --    0.77781   0.78225   0.78438   0.79735   0.79925
  Beta virt. eigenvalues --    0.80919   0.81323   0.81802   0.82353   0.82565
  Beta virt. eigenvalues --    0.82800   0.83234   0.83485   0.83975   0.84291
  Beta virt. eigenvalues --    0.84835   0.85485   0.86121   0.86970   0.87456
  Beta virt. eigenvalues --    0.88268   0.88975   0.89148   0.89261   0.89813
  Beta virt. eigenvalues --    0.90406   0.90941   0.91200   0.92397   0.92927
  Beta virt. eigenvalues --    0.94231   0.94642   0.95052   0.95343   0.95882
  Beta virt. eigenvalues --    0.96169   0.97595   0.98043   0.99143   0.99608
  Beta virt. eigenvalues --    1.00109   1.00822   1.01602   1.02013   1.02937
  Beta virt. eigenvalues --    1.03187   1.05127   1.05856   1.06564   1.07271
  Beta virt. eigenvalues --    1.07776   1.08230   1.08738   1.09370   1.11047
  Beta virt. eigenvalues --    1.11567   1.12536   1.13091   1.13908   1.15281
  Beta virt. eigenvalues --    1.16177   1.16669   1.17544   1.17855   1.17950
  Beta virt. eigenvalues --    1.18085   1.20033   1.20269   1.21377   1.22510
  Beta virt. eigenvalues --    1.24135   1.24827   1.25960   1.26187   1.26857
  Beta virt. eigenvalues --    1.27630   1.31728   1.31829   1.33306   1.35606
  Beta virt. eigenvalues --    1.37904   1.39032   1.40499   1.41529   1.41793
  Beta virt. eigenvalues --    1.42935   1.43378   1.44190   1.44813   1.47305
  Beta virt. eigenvalues --    1.48314   1.50966   1.51810   1.53839   1.58391
  Beta virt. eigenvalues --    1.58700   1.59570   1.61623   1.62222   1.63855
  Beta virt. eigenvalues --    1.64323   1.65066   1.65610   1.66478   1.67378
  Beta virt. eigenvalues --    1.67639   1.68175   1.68503   1.69417   1.70203
  Beta virt. eigenvalues --    1.70748   1.75275   1.75442   1.75975   1.76232
  Beta virt. eigenvalues --    1.77172   1.77602   1.78910   1.80492   1.83471
  Beta virt. eigenvalues --    1.84050   1.84677   1.85028   1.86682   1.86993
  Beta virt. eigenvalues --    1.88408   1.88991   1.89484   1.90020   1.92152
  Beta virt. eigenvalues --    1.94490   1.95141   1.96294   1.97892   1.98306
[...]
 .01021166,0.01322928,-0.00736719,-0.00119363,0.00263213,-0.00218638,-0
 .00057838,0.00064428,-0.00035876,-0.00536814,0.00071030,-0.00135356,-0
 .01014127,-0.02550195,0.01375739,-0.12039608,-0.10295830,0.05469237,-0
 .00044475,-0.00003263,-0.00081222,-0.00005757,-0.00000218,-0.00000671,
 0.00002052,0.00000637,-0.00000264,-0.00000456,0.00000218,0.00000203,0.
 00001388,0.00000131,-0.00000191,-0.00000253,-0.00000395,0.00000152,0.0
 0002087,0.00000216,0.00000031,0.00048613,0.00075231,-0.00037371,0.0000
 6285,-0.00002721,0.00012402,-0.00070801,-0.00120363,0.00065979,0.00098
 458,0.00054739,0.00011519,0.12595880,0.00003733,-0.00000692,-0.0000206
 4,0.00004442,-0.00014535,-0.00000865,-0.00001774,0.00002609,-0.0000009
 2,0.00011651,-0.00008684,0.00014544,-0.00003229,0.00000095,-0.00000961
 ,0.00023181,0.00042931,-0.00008435,-0.00167242,-0.00043967,-0.00224289
 ,0.00037866,-0.00024577,-0.00000202,0.00013972,0.00025811,-0.00008611,
 -0.01202483,-0.01377635,0.00907954,0.00317638,-0.00057499,0.00421615,0
 .00069504,-0.00000483,-0.00043344,-0.00004840,0.00316405,0.00224260,0.
 00168326,0.00251323,0.00046404,-0.10221595,-0.21924716,0.09992646,-0.0
 0044714,0.00020202,-0.00055591,0.00002751,0.00000305,-0.00000029,-0.00
 001243,-0.00000248,0.00000460,0.00000183,-0.00000362,-0.00000391,-0.00
 000708,0.00000685,0.00000176,0.00000145,-0.00000040,-0.00000519,-0.000
 00522,0.00000246,0.00001059,-0.00068317,-0.00074043,0.00045497,-0.0000
 6269,-0.00027676,-0.00042367,0.00013938,0.00005595,0.00012639,-0.00025
 831,-0.00036582,-0.00209871,0.11081428,0.22926305,0.00006437,-0.000071
 75,-0.00005154,-0.00003960,-0.00006413,-0.00005151,0.00007202,0.000054
 74,0.00002060,0.00003418,-0.00037544,-0.00001280,0.00005290,-0.0000313
 5,-0.00009627,-0.00124902,0.00100549,0.00049040,0.00059594,-0.00209566
 ,-0.00272440,0.00033600,0.00022494,0.00038287,-0.00019193,-0.00015315,
 -0.00015224,0.00847328,0.01097990,-0.00209436,-0.00251814,0.00419589,0
 .00403756,-0.00056875,-0.00048077,-0.00066559,-0.00069867,0.00227802,0
 .00583238,-0.00179231,-0.00113739,0.00367978,0.05343359,0.09872747,-0.
 09021368,0.00008102,-0.00047710,-0.00041520,-0.00002260,-0.00002132,-0
 .00002093,0.00000347,-0.00000046,0.00000276,-0.00000434,-0.00000350,-0
 .00000239,0.00000470,0.00000759,-0.00000101,-0.00000051,-0.00000361,-0
 .00000328,0.00001202,0.00000314,0.00001268,0.00043570,0.00058703,-0.00
 023709,0.00011159,-0.00042735,-0.00079700,-0.00013868,0.00006811,0.000
 24543,0.00047048,-0.00210320,-0.00282255,-0.05696017,-0.11068849,0.085
 66196,-0.00006893,0.00017189,0.00004228,0.00011165,-0.00039656,-0.0001
 5056,0.00091812,0.00032982,0.00000015,-0.00056826,-0.00001059,-0.00057
 237,-0.00039722,0.00059875,-0.00002227,-0.00017187,-0.00013659,0.00011
 376,-0.00000950,0.00013305,0.00003657,-0.00001402,-0.00006496,-0.00010
 164,0.00009337,0.00014063,0.00010019,-0.00006953,0.00000277,0.00000315
 ,0.00002495,0.00000483,0.00000308,-0.00000806,-0.00000098,0.00000088,0
 .00001805,0.,0.00000412,-0.00000199,-0.00000327,-0.00000349,0.00002492
 ,0.00000819,-0.00000056,0.00004403,-0.00003762,-0.00004763,0.01066402,
 0.00147926,-0.01561426,-0.12022882,-0.01245575,0.11720838,-0.00991460,
 -0.00230985,0.02861736,-0.00527392,-0.00079681,-0.00125912,-0.00057913
 ,0.00002683,-0.00073589,-0.00131497,-0.00016272,-0.00335693,-0.0000082
 1,-0.00000787,0.00000362,0.00000685,0.00000592,-0.00000213,0.00000789,
 -0.00000038,-0.00000018,0.00000710,-0.00000469,0.00000272,-0.00000545,
 0.00000308,-0.00000351,0.12585023,0.00000856,-0.00012021,0.00005568,-0
 .00084347,-0.00006518,-0.00006353,0.00103193,-0.00361987,-0.00027683,0
 .00167463,0.00126577,0.00101447,-0.00082886,-0.00060093,-0.00070502,-0
 .00024957,-0.00008297,-0.00018877,0.00009669,0.00007882,0.00007024,0.0
 0019337,-0.00004158,-0.00017721,-0.00014105,-0.00016989,-0.00005386,-0
 .00000979,-0.00000462,0.00000671,-0.00000195,0.00001206,-0.00000490,0.
 00000131,0.00000008,0.00000835,0.00000074,-0.00000338,-0.00001032,0.00
 000057,-0.00000058,0.00000534,0.00000760,-0.00000981,-0.00000878,0.000
 03889,-0.00005693,-0.00003807,-0.00062262,0.00384478,-0.00006257,-0.01
 113980,-0.03796751,0.01706017,-0.00132951,0.00309984,0.00294437,-0.001
 27311,0.00715608,0.00004968,0.00022878,-0.00087112,-0.00015340,-0.0004
 6320,0.00653628,0.00039647,-0.00000091,-0.00000308,-0.00000700,-0.0000
 0309,-0.00000161,0.00000043,-0.00000085,0.00000046,0.00000183,0.000000
 13,-0.00000016,0.00000040,0.00000080,-0.00000087,0.00000334,0.01319911
 ,0.02640696,-0.00004709,0.00005926,0.00009998,-0.00032933,-0.00029486,
 -0.00003615,0.00128544,-0.00001786,0.00096433,-0.00108059,-0.00094344,
 -0.00067378,0.00108940,-0.00001360,0.00110474,0.00000379,0.00022431,-0
 .00003326,-0.00001722,0.00006474,0.00001845,0.00004656,-0.00012068,-0.
 00019989,0.00002300,0.00012907,0.00010296,-0.00004075,-0.00000366,0.00
 003303,0.00001400,0.00000006,-0.00000260,-0.00000687,-0.00000175,0.000
 00389,0.00001431,-0.00000162,0.00000040,-0.00000119,-0.00000378,-0.000
 00264,0.00002397,0.00001581,0.00000084,-0.00000604,0.00000879,-0.00000
 866,0.01442429,0.00209253,-0.01925770,0.11554709,0.01881811,-0.2750724
 7,-0.00249186,-0.00022140,0.00344334,-0.00038190,-0.00003578,0.0017714
 5,-0.00082233,-0.00010925,0.00025093,-0.00394556,-0.00006290,-0.002964
 49,-0.00000787,-0.00000519,0.00000340,0.00000405,0.00000375,-0.0000022
 0,0.00000653,0.00000005,0.00000078,0.00000653,-0.00000466,0.00000179,-
 0.00000440,0.00000053,-0.00000186,-0.12441457,-0.01969767,0.29067700,0
 .00005071,-0.00010190,-0.00008291,-0.00031502,0.00043711,0.00024004,-0
 .00022949,-0.00033612,-0.00146846,-0.00031065,-0.00028953,-0.00013660,
 0.00018942,0.00027645,0.00020778,0.00024724,0.00002170,0.00002016,-0.0
 0009028,-0.00010685,-0.00006523,0.00005051,-0.00011194,0.00007331,-0.0
 0012103,-0.00004624,-0.00003213,0.00007314,0.00000526,-0.00000329,-0.0
 0003141,0.00000226,-0.00000300,0.00000771,-0.00000397,-0.00000071,-0.0
 0001820,0.00000244,-0.00000094,0.00000166,0.00000326,0.00000423,-0.000
 02803,-0.00000483,0.00000344,-0.00006650,0.00007720,0.00006245,-0.0051
 3254,-0.00098478,0.00137497,-0.01166053,0.00035169,-0.02893160,-0.1312
 9178,-0.00188280,-0.12022006,0.01106360,0.00003094,0.01397862,-0.00035
 453,-0.00085523,0.00295906,-0.00085830,-0.00004675,0.00098026,0.000006
 79,0.00000268,-0.00000514,-0.00000704,-0.00000575,0.00000172,-0.000006
 65,-0.00000079,-0.00000121,-0.00000638,0.00000379,-0.00000301,0.000005
 58,-0.00000410,0.00000084,0.00099218,0.00040547,0.00046003,0.13662511,
 0.00001853,-0.00010942,-0.00005266,-0.00007177,0.00010188,0.00005837,0
 .00021451,-0.00000127,-0.00009918,0.00006254,0.00010419,0.00014969,-0.
 00008269,-0.00015499,-0.00005962,-0.00005825,-0.00001207,0.00001559,0.
 00000610,0.00001534,-0.00000268,0.00007309,-0.00000919,-0.00000638,-0.
 00001811,-0.00003565,-0.00001089,0.00000391,0.00000196,0.00000283,-0.0
 0000290,0.00000218,-0.00000260,0.00000031,0.00000014,0.00000090,-0.000
 00112,-0.00000281,-0.00000307,0.00000078,0.00000192,0.00000258,-0.0000
 0355,-0.00000192,-0.00000346,0.00000943,-0.00000580,-0.00000364,-0.001
 24327,0.00721136,0.00069636,-0.00149054,0.00311689,-0.00275006,-0.0019
 4497,-0.03484994,0.00137349,0.00183175,0.00243195,0.00260569,-0.001007
 54,0.00679393,0.00083891,0.00015570,-0.00093172,-0.00024095,0.00000099
 ,-0.00000029,-0.00000040,-0.00000125,-0.00000067,0.00000047,-0.0000005
 8,0.00000066,0.00000123,0.00000033,-0.00000033,0.00000011,-0.00000023,
 -0.00000013,0.00000135,0.00031857,-0.00403181,-0.00004393,0.00267027,0
 .02484512,0.00001256,-0.00003289,-0.00000752,-0.00001205,0.00017849,0.
 00007696,0.00016604,-0.00010678,-0.00005398,-0.00012150,-0.00003880,-0
 .00003375,-0.00002270,0.00010246,0.00005647,0.00013004,0.00001323,0.00
 000193,-0.00004122,-0.00007303,-0.00003577,0.00002239,0.00004494,0.000
 01067,-0.00007155,-0.00005582,-0.00001750,0.00004913,0.00000427,-0.000
 00277,-0.00001955,0.00000042,-0.00000139,0.00000551,-0.00000136,-0.000
 00184,-0.00001355,0.00000094,-0.00000081,0.00000208,0.00000124,0.00000
 371,-0.00001903,-0.00000229,0.00000214,-0.00004250,0.00004507,0.000033
 52,0.00076169,0.00025972,0.00204733,0.00220828,0.00014326,0.00329335,-
 0.12029545,0.00169060,-0.25655845,-0.01747116,-0.00037752,-0.01872466,
 0.00425038,0.00100268,-0.00323231,0.00078318,-0.00003275,0.00026293,0.
 00000556,0.00000322,-0.00000346,-0.00000525,-0.00000480,0.00000180,-0.
 00000617,-0.00000029,-0.00000064,-0.00000479,0.00000330,-0.00000266,0.
 00000445,-0.00000384,0.00000089,-0.00038239,-0.00028838,0.00082226,0.1
 3057062,-0.00222718,0.27227000,-0.00000476,-0.00006065,-0.00000525,0.0
 0002403,0.00016436,0.00008180,0.00005213,-0.00002989,-0.00007432,-0.00
 005301,0.00002209,0.00003676,-0.00008453,0.00006913,-0.00002164,0.0001
 1637,-0.00000444,-0.00001140,-0.00004363,-0.00007025,-0.00003649,0.000
 04234,0.00003928,0.00004551,-0.00009478,-0.00006438,-0.00003691,0.0000
 6333,0.00000487,-0.00000131,-0.00002312,-0.00000401,-0.00000256,0.0000
 0671,0.00000029,-0.00000243,-0.00001852,0.00000106,-0.00000151,0.00000
 300,0.00000088,0.00000278,-0.00002352,-0.00000456,0.00000055,-0.000046
 31,0.00005450,0.00003987,0.00069987,0.00017174,-0.00004099,0.00098626,
 -0.00076718,0.00335390,-0.01138080,-0.00106053,-0.00296576,-0.32676291
 ,-0.02644524,0.00702208,-0.01298470,-0.00160257,0.00389096,0.00062813,
 -0.00030864,-0.00374702,0.00000746,0.00000564,-0.00000417,-0.00000625,
 -0.00000598,0.00000256,-0.00000863,-0.00000045,-0.00000027,-0.00000710
 ,0.00000528,-0.00000310,0.00000624,-0.00000435,0.00000248,-0.00067842,
 -0.00009697,-0.00020501,0.00082100,0.00039187,0.00048100,0.34870398,0.
 00001295,0.00001866,-0.00001015,-0.00022134,0.00005393,0.00008538,0.00
 008585,-0.00108315,0.00000714,0.00018767,0.00008852,0.00001617,-0.0001
 0791,0.00000708,-0.00002322,-0.00001207,-0.00000046,-0.00002403,0.0000
 0582,0.00001328,0.00001018,0.00004939,-0.00002456,-0.00008039,-0.00002
 503,-0.00002862,0.00000205,0.00001082,-0.00001128,-0.00001882,-0.00000
 384,0.00000445,0.00000231,0.00000196,-0.00000571,-0.00000722,0.0000017
 4,0.00001260,0.00002000,-0.00000124,-0.00000887,-0.00001244,-0.0000015
 0,0.00000643,0.00001224,0.00001175,-0.00001981,-0.00000799,0.00020095,
 -0.00100580,0.00013698,-0.00070143,0.00692075,0.00097134,-0.00292464,0
 .00211061,-0.00048158,-0.02651498,-0.03599358,0.00237462,0.00035874,0.
 00241506,0.00009354,-0.00033857,0.00703278,0.00040645,-0.00000002,0.00
 000166,0.00000120,-0.00000156,-0.00000026,0.00000173,-0.00000095,-0.00
 000265,-0.00000481,0.00000038,0.00000168,0.00000178,0.00000082,-0.0000
 0224,-0.00000115,-0.00019956,0.00021165,-0.00004360,0.00045158,-0.0038
 4288,-0.00023786,0.02925246,0.02674665,-0.00002962,0.00000250,0.000028
 15,0.00004546,-0.00004766,-0.00000980,-0.00003592,-0.00006151,0.000191
 01,-0.00007261,-0.00010800,-0.00008629,0.00010798,0.00001343,0.0000853
 0,-0.00000195,0.00000327,0.00000491,-0.00000578,0.00000546,0.00000584,
 0.00000816,0.00000078,-0.00001515,0.00000070,0.00001560,0.00001307,-0.
 00000093,0.00000203,-0.00000217,0.00000106,0.00000020,-0.00000009,-0.0
 0000132,-0.00000055,-0.00000002,0.00000172,0.00000017,0.00000143,0.000
 00056,-0.00000086,-0.00000021,0.00000052,0.00000286,0.00000094,0.00000
 087,0.00000105,0.00000037,-0.00005216,0.00002528,-0.00130811,0.0020068
 2,0.00088488,-0.00464195,0.02843395,0.00238739,0.00420502,0.00704362,0
 .00236790,-0.05884435,-0.02752400,-0.00270879,0.00547951,-0.00239261,0
 .00056464,-0.00429058,-0.00000067,-0.00000078,0.00000002,0.00000019,0.
 00000037,-0.00000012,0.00000020,-0.00000001,-0.00000019,0.00000051,-0.
 00000018,0.00000024,0.00000017,-0.00000070,-0.00000072,0.00134095,0.00
 016596,0.00004340,-0.00062113,-0.00034013,0.00095075,-0.00760865,-0.00
 282038,0.05717038,0.00010701,-0.00015680,-0.00007897,-0.00014421,0.000
 47931,0.00022978,-0.00009939,-0.00022750,0.00113239,-0.00051364,-0.000
 23063,-0.00011187,0.00010412,0.00014279,0.00011386,0.00017938,0.000111
 06,-0.00003404,-0.00005630,-0.00010305,-0.00002957,0.00004987,0.000012
 06,-0.00004991,-0.00009351,-0.00007303,-0.00004839,0.00006981,0.000001
 89,-0.00000658,-0.00002730,-0.00000166,-0.00000197,0.00000617,-0.00000
 239,-0.00000353,-0.00001698,0.00000010,-0.00000264,0.00000250,0.000004
 34,0.00000047,-0.00003014,-0.00001209,0.00000177,-0.00007532,0.0000722
 2,0.00005465,-0.00524638,-0.00113915,-0.00103822,-0.00091361,0.0000725
 8,-0.00086287,-0.00086057,-0.00050783,-0.00319160,0.01124145,0.0018067
 5,-0.01575265,-0.11624576,-0.01474757,0.11009064,-0.00975628,-0.003276
 41,0.02957201,0.00000640,0.00000587,-0.00000308,-0.00000578,-0.0000041
 0,0.00000264,-0.00000673,0.00000036,0.00000048,-0.00000817,0.00000515,
 -0.00000171,0.00000534,-0.00000059,0.00000460,0.00007039,0.00009790,0.
 00010717,0.00034900,0.00003344,-0.00084109,0.00083076,0.00040697,0.000
 67856,0.12012312,0.00000044,-0.00016908,-0.00006494,0.00001314,0.00016
 091,0.00016660,-0.00006804,-0.00000769,0.00008044,-0.00005830,0.000122
 08,0.00005265,-0.00002923,-0.00010610,-0.00002349,0.00002006,0.0000136
 6,0.00000307,0.00002255,-0.00001466,-0.00001120,-0.00000229,0.00000180
 ,0.00003576,-0.00001030,-0.00004436,-0.00003739,-0.00000140,-0.0000046
 9,-0.00000085,-0.00000099,0.00000181,-0.00000028,-0.00000007,0.0000014
 0,0.00000070,-0.00000344,-0.00000521,-0.00000680,0.00000075,0.00000184
 ,0.00000549,0.00000153,0.00000009,-0.00000762,-0.00000758,-0.00000541,
 -0.00000014,-0.00093042,0.00712232,0.00005049,0.00005718,-0.00095201,-
 0.00025427,-0.00036488,0.00691553,0.00040958,-0.00042864,0.00242893,-0
 .00016301,-0.01448043,-0.03737088,0.02606556,-0.00143813,0.00260111,0.
 00278057,0.00000061,-0.00000008,0.00000033,-0.00000116,-0.00000101,0.0
 0000051,-0.00000058,0.00000117,0.00000208,0.00000050,0.00000025,0.0000
 0030,0.00000028,-0.00000017,0.00000132,0.00005693,-0.00104411,0.000009
 02,-0.00006833,0.00038929,0.00004637,0.00044885,-0.00389936,-0.0002642
 0,0.01676292,0.02784751,-0.00001116,0.00008494,0.00004257,0.00002815,-
 0.00020937,-0.00013948,-0.00013587,0.00007979,0.00000198,0.00013757,0.
 00009695,0.00002242,0.00000271,-0.00007353,-0.00001040,-0.00010472,-0.
 00001605,-0.00000317,0.00003267,0.00006169,0.00002931,-0.00003687,-0.0
 0002100,-0.00002375,0.00008230,0.00006014,0.00004058,-0.00005296,-0.00
 000038,0.00000420,0.00002044,0.00000167,0.00000350,-0.00000518,0.00000
 182,0.00000326,0.00001403,-0.00000105,0.00000005,-0.00000238,-0.000001
 62,-0.00000167,0.00002098,0.00000628,-0.00000169,0.00003872,-0.0000420
 1,-0.00002676,-0.00041383,0.00024880,0.00215382,-0.00069956,-0.0001622
 2,0.00033457,-0.00452862,0.00032322,-0.00280498,0.01566681,0.00282943,
 -0.01880565,0.11013809,0.02597913,-0.26863704,-0.00155630,-0.00010292,
 0.00176769,-0.00000551,-0.00000512,0.00000241,0.00000482,0.00000395,-0
 .00000258,0.00000652,0.00000027,0.00000037,0.00000613,-0.00000468,0.00
 000216,-0.00000509,0.00000243,-0.00000258,0.00008464,-0.00006125,-0.00
 003380,0.00074707,0.00015473,-0.00112758,-0.00042239,-0.00038679,0.000
 93879,-0.11949065,-0.02856243,0.28544916,-0.00043051,-0.00074550,0.000
 38810,0.00015890,-0.00050319,-0.00028462,0.00100404,0.00071603,0.00058
 450,0.00023609,0.00021478,0.00009907,-0.00011162,-0.00018351,-0.000083
 48,-0.00010766,-0.00000523,0.00004137,0.00003747,0.00002854,0.00000028
 ,-0.00021423,0.00003193,-0.00007005,0.00008318,0.00009026,0.00005896,-
 0.00005519,-0.00000723,0.00000507,0.00002008,0.00000106,0.00000580,-0.
 00000422,0.00000267,0.00000138,0.00001344,-0.00000065,0.00000098,-0.00
 000258,-0.00000038,-0.00000388,0.00002053,0.00000170,0.00000030,0.0000
 3195,-0.00003861,-0.00004070,0.01008990,-0.00042605,0.01335129,-0.0007
 2404,-0.00099683,0.00317812,-0.00047663,-0.00001703,0.00077684,-0.0051
 9017,-0.00131806,0.00163095,-0.01158329,0.00039620,-0.02806720,-0.1340
 5783,-0.00005263,-0.12460709,-0.00000485,-0.00000372,0.00000270,0.0000
 0512,0.00000384,-0.00000249,0.00000595,0.00000073,0.00000029,0.0000053
 3,-0.00000407,0.00000204,-0.00000619,0.00000605,-0.00000096,0.00047915
 ,0.00001827,0.00074643,0.00004472,0.00013466,-0.00008297,-0.00077061,0
 .00001479,-0.00132464,0.00095472,0.00050846,0.00043942,0.14054906,-0.0
 0012927,-0.00074195,-0.00000607,-0.00100834,0.00079095,0.00085543,-0.0
 0004731,-0.00396514,-0.00028410,0.00046276,0.00037099,-0.00009465,-0.0
 0010352,-0.00017603,0.00005930,-0.00002035,-0.00010001,-0.00008526,0.0
 0005848,0.00004610,0.00004356,0.00005815,-0.00011609,-0.00036647,0.000
 03998,-0.00008834,0.00001602,-0.00000931,-0.00002541,-0.00000676,-0.00
 000206,0.00000332,-0.00000310,-0.00000318,-0.00000561,-0.00000227,0.00
 000188,0.00000433,0.00000882,0.00000027,-0.00000623,-0.00000083,0.0000
 0829,0.00001647,-0.00000419,0.00007606,-0.00007839,-0.00004107,0.00257
 853,0.00365639,0.00265792,-0.00105483,0.00641464,0.00083046,-0.0001826
 6,-0.00090620,0.00000397,-0.00106795,0.00703795,0.00040628,-0.00146766
 ,0.00315669,-0.00242773,-0.00090569,-0.03648763,0.00295650,-0.00000174
 ,-0.00000031,0.00000317,-0.00000081,-0.00000021,0.00000141,0.00000046,
 -0.00000173,-0.00000139,0.00000413,-0.00000060,0.00000139,0.00000171,-
 0.00000430,-0.00000253,0.00010859,0.00008344,0.00019959,0.00010781,-0.
 00102591,-0.00005663,-0.00010222,0.00028341,-0.00009001,0.00046707,-0.
 00398485,-0.00028483,0.00213269,0.02585027,-0.00037824,-0.00007454,0.0
 0049606,0.00077644,-0.00024008,0.00004232,-0.00176219,-0.00056891,0.00
 090075,0.00017291,-0.00030384,-0.00022589,0.00022862,0.00014434,0.0002
 6303,0.00005929,-0.00002906,-0.00010296,-0.00005013,-0.00001282,0.0000
 0627,0.00009780,0.00016312,0.00001980,-0.00005865,0.00003069,-0.000002
 76,0.00003733,0.00001522,0.00000507,-0.00001414,0.00000108,-0.00000263
 ,0.00000389,-0.00000294,-0.00000069,-0.00000919,0.00000277,0.00000195,
 0.00000195,-0.00000219,0.00000264,-0.00001108,0.00000340,-0.00000078,0
 .00000326,0.00001819,0.00002331,-0.01623912,-0.00013188,-0.01938901,0.
 00381141,0.00087403,-0.00342316,0.00091661,0.00004743,0.00013499,0.000
 66209,0.00034832,0.00178304,0.00312808,0.00019259,0.00447629,-0.123416
 87,0.00415737,-0.25933997,0.00000444,0.00000051,-0.00000302,-0.0000041
 4,-0.00000410,0.00000145,-0.00000537,-0.00000114,-0.00000092,-0.000003
 11,0.00000278,-0.00000212,0.00000633,-0.00000616,-0.00000028,-0.000894
 38,0.00001413,-0.00105345,-0.00010920,-0.00005547,-0.00002961,0.000230
 87,0.00001730,0.00008064,-0.00043968,-0.00031421,0.00082430,0.13325417
 ,-0.00428593,0.27451537\\0.00000442,0.00000335,0.00000077,-0.00001193,
 0.00000474,0.00001401,-0.00001443,0.00000426,0.00000323,0.00000578,0.0
 0000475,-0.00000503,-0.00000177,0.00000229,-0.00000175,-0.00000445,-0.
 00001608,-0.00000881,-0.00000955,0.00001631,0.00001890,0.00002920,-0.0
 0002263,-0.00000653,-0.00000586,0.00000367,-0.00000795,0.00000501,0.00
 003118,-0.00001687,-0.00001337,-0.00001360,0.00000404,0.00001250,-0.00
 001082,0.00000707,0.00000185,0.00001669,-0.00001063,-0.00001358,-0.000
 00809,0.00000558,0.00000950,-0.00001301,0.00000796,0.00000269,0.000000
 04,0.00000289,0.00001189,0.00000044,-0.00003315,0.00001298,-0.00000356
 ,0.00000539,-0.00001003,-0.00000199,0.00001508,-0.00000546,0.00000240,
 -0.00001650,0.00002096,-0.00000120,0.00000409,-0.00002334,-0.00000180,
 0.00002293,0.00000164,0.00000008,0.00000028,-0.00000047,0.00000217,-0.
 00000083,-0.00000102,-0.00000008,0.00000130,0.00000256,0.00000135,-0.0
 0000220,-0.00000090,0.00000279,0.00000019,-0.00000350,-0.00000060,0.00
 000137,0.00000007,-0.00000047,-0.00000117,0.00000167,-0.00000144,-0.00
 000015,-0.00000241,0.00000146,0.00000052,-0.00000065,-0.00000262,-0.00
 000404\\\@


 ADVERTISING--  HE WHO HAS SOMETHING TO SELL AND GOES AND WHISPERS
                IN A WELL, IS NOT SO APT TO GET THE DOLLARS AS HE
                WHO CLIMBS A TREE AND HOLLERS.

                   -- FROM THE BACK OF A SUGAR PACKET
 Job cpu time:       0 days 10 hours 44 minutes  2.0 seconds.
 Elapsed time:       0 days  1 hours 20 minutes 42.1 seconds.
 File lengths (MBytes):  RWF=   2467 Int=      0 D2E=      0 Chk=     44 Scr=      1
 Normal termination of Gaussian 16 at Sun Dec 17 23:31:18 2023.
