 Entering Gaussian System, Link 0=g16
 Input=338-rad.com
 Output=338-rad.log
 Initial command:
 /sysapps/ubuntu-applications/gaussian/Gaussian/AVX2/g16/l1.exe "/scratch/selhajj1/4265646/Gau-756338.inp" -scrdir="/scratch/selhajj1/4265646/"
 Entering Link 1 = /sysapps/ubuntu-applications/gaussian/Gaussian/AVX2/g16/l1.exe PID=    756350.
  
 Copyright (c) 1988,1990,1992,1993,1995,1998,2003,2009,2016,
            Gaussian, Inc.  All Rights Reserved.
  
 This is part of the Gaussian(R) 16 program.  It is based on
 the Gaussian(R) 09 system (copyright 2009, Gaussian, Inc.),
 the Gaussian(R) 03 system (copyright 2003, Gaussian, Inc.),
 the Gaussian(R) 98 system (copyright 1998, Gaussian, Inc.),
 the Gaussian(R) 94 system (copyright 1995, Gaussian, Inc.),
 the Gaussian 92(TM) system (copyright 1992, Gaussian, Inc.),
 the Gaussian 90(TM) system (copyright 1990, Gaussian, Inc.),
 the Gaussian 88(TM) system (copyright 1988, Gaussian, Inc.),
 the Gaussian 86(TM) system (copyright 1986, Carnegie Mellon
 University), and the Gaussian 82(TM) system (copyright 1983,
 Carnegie Mellon University). Gaussian is a federally registered
 trademark of Gaussian, Inc.
  
 This software contains proprietary and confidential information,
 including trade secrets, belonging to Gaussian, Inc.
  
 This software is provided under written license and may be
 used, copied, transmitted, or stored only in accord with that
 written license.
  
 The following legend is applicable only to US Government
 contracts under FAR:
  
                    RESTRICTED RIGHTS LEGEND
  
 Use, reproduction and disclosure by the US Government is
 subject to restrictions as set forth in subparagraphs (a)
 and (c) of the Commercial Computer Software - Restricted
 Rights clause in FAR 52.227-19.
  
 Gaussian, Inc.
 340 Quinnipiac St., Bldg. 40, Wallingford CT 06492
  
  
 ---------------------------------------------------------------
 Warning -- This program may not be used in any manner that
 competes with the business of Gaussian, Inc. or will provide
 assistance to any competitor of Gaussian, Inc.  The licensee
 of this program is prohibited from giving any competitor of
 Gaussian, Inc. access to this program.  By using this program,
 the user acknowledges that Gaussian, Inc. is engaged in the
 business of creating and licensing software in the field of
 computational chemistry and represents and warrants to the
 licensee that it is not a competitor of Gaussian, Inc. and that
 it will not use this program in any manner prohibited above.
 ---------------------------------------------------------------
  

 Cite this work as:
 Gaussian 16, Revision A.03,
 M. J. Frisch, G. W. Trucks, H. B. Schlegel, G. E. Scuseria, 
 M. A. Robb, J. R. Cheeseman, G. Scalmani, V. Barone, 
 G. A. Petersson, H. Nakatsuji, X. Li, M. Caricato, A. V. Marenich, 
 J. Bloino, B. G. Janesko, R. Gomperts, B. Mennucci, H. P. Hratchian, 
 J. V. Ortiz, A. F. Izmaylov, J. L. Sonnenberg, D. Williams-Young, 
 F. Ding, F. Lipparini, F. Egidi, J. Goings, B. Peng, A. Petrone, 
 T. Henderson, D. Ranasinghe, V. G. Zakrzewski, J. Gao, N. Rega, 
 G. Zheng, W. Liang, M. Hada, M. Ehara, K. Toyota, R. Fukuda, 
 J. Hasegawa, M. Ishida, T. Nakajima, Y. Honda, O. Kitao, H. Nakai, 
 T. Vreven, K. Throssell, J. A. Montgomery, Jr., J. E. Peralta, 
 F. Ogliaro, M. J. Bearpark, J. J. Heyd, E. N. Brothers, K. N. Kudin, 
 V. N. Staroverov, T. A. Keith, R. Kobayashi, J. Normand, 
 K. Raghavachari, A. P. Rendell, J. C. Burant, S. S. Iyengar, 
 J. Tomasi, M. Cossi, J. M. Millam, M. Klene, C. Adamo, R. Cammi, 
 J. W. Ochterski, R. L. Martin, K. Morokuma, O. Farkas, 
 J. B. Foresman, and D. J. Fox, Gaussian, Inc., Wallingford CT, 2016.
 
 ******************************************
 Gaussian 16:  ES64L-G16RevA.03 25-Dec-2016
                 9-Jan-2024 
 ******************************************
 %chk=338-rad.chk
 %nproc=8
 Will use up to    8 processors via shared memory.
 %mem=30GB
 --------------------------------------
 #P UB3LYP/6-311++G(d,p) nosym opt freq
 --------------------------------------
 1/18=20,19=15,26=3,38=1/1,3;
 2/9=110,12=2,15=1,17=6,18=5,40=1/2;
 3/5=4,6=6,7=1111,11=2,25=1,30=1,71=1,74=-5,116=2/1,2,3;
 4//1;
 5/5=2,38=5/2;
 6/7=2,8=2,9=2,10=2,28=1/1;
 7/30=1/1,2,3,16;
 1/18=20,19=15,26=3/3(2);
 2/9=110,15=1/2;
 99//99;
 2/9=110,15=1/2;
 3/5=4,6=6,7=1111,11=2,25=1,30=1,71=1,74=-5,116=2/1,2,3;
 4/5=5,16=3,69=1/1;
 5/5=2,38=5/2;
 7/30=1/1,2,3,16;
 1/18=20,19=15,26=3/3(-5);
 2/9=110,15=1/2;
 6/7=2,8=2,9=2,10=2,19=2,28=1/1;
 99/9=1/99;
 Leave Link    1 at Tue Jan  9 20:27:08 2024, MaxMem=  4026531840 cpu:               0.6 elap:               0.1
 (Enter /sysapps/ubuntu-applications/gaussian/Gaussian/AVX2/g16/l101.exe)
 -------
 Radical
 -------
 Symbolic Z-matrix:
 Charge = -1 Multiplicity = 2
 O                    -0.01655  -2.51009  -0.52551 
 C                    -0.00871  -1.29435  -0.17185 
 C                     1.24795  -0.60117   0.09732 
 C                     2.449    -1.3563    0.11396 
 C                     3.65829  -0.79251   0.4712 
 C                     3.7377    0.56591   0.83312 
 C                     2.58239   1.33745   0.79579 
 C                     1.35624   0.77596   0.42847 
 S                     0.01163   1.95009   0.21678 
 O                     0.0124    2.44698  -1.2327 
 C                    -1.34647   0.79239   0.43273 
 C                    -2.56451   1.36879   0.80393 
 C                    -3.72905   0.61142   0.84472 
 C                    -3.66739  -0.74778   0.48234 
 C                    -2.46618  -1.32628   0.12131 
 C                    -1.25602  -0.58592   0.10112 
 H                     2.36898  -2.40387  -0.1511 
 H                     4.5554   -1.40513   0.47881 
 H                     4.68502   1.00914   1.12085 
 H                     2.62427   2.39573   1.03739 
 H                    -2.59272   2.42745   1.04581 
 H                    -4.66997   1.06618   1.13549 
 H                    -4.57191  -1.34938   0.49257 
 H                    -2.39978  -2.37469  -0.14411 
 
 ITRead=  0  0  0  0  0  0  0  0  0  0  0  0  0  0  0  0  0  0  0  0
 ITRead=  0  0  0  0
 MicOpt= -1 -1 -1 -1 -1 -1 -1 -1 -1 -1 -1 -1 -1 -1 -1 -1 -1 -1 -1 -1
 MicOpt= -1 -1 -1 -1
 NAtoms=     24 NQM=       24 NQMF=       0 NMMI=      0 NMMIF=      0
                NMic=       0 NMicF=      0.
                    Isotopes and Nuclear Properties:
 (Nuclear quadrupole moments (NQMom) in fm**2, nuclear magnetic moments (NMagM)
  in nuclear magnetons)

  Atom         1           2           3           4           5           6           7           8           9          10
 IAtWgt=          16          12          12          12          12          12          12          12          32          16
 AtmWgt=  15.9949146  12.0000000  12.0000000  12.0000000  12.0000000  12.0000000  12.0000000  12.0000000  31.9720718  15.9949146
 NucSpn=           0           0           0           0           0           0           0           0           0           0
 AtZEff=  -0.0000000  -0.0000000  -0.0000000  -0.0000000  -0.0000000  -0.0000000  -0.0000000  -0.0000000  -0.0000000  -0.0000000
 NQMom=    0.0000000   0.0000000   0.0000000   0.0000000   0.0000000   0.0000000   0.0000000   0.0000000   0.0000000   0.0000000
 NMagM=    0.0000000   0.0000000   0.0000000   0.0000000   0.0000000   0.0000000   0.0000000   0.0000000   0.0000000   0.0000000
 AtZNuc=   8.0000000   6.0000000   6.0000000   6.0000000   6.0000000   6.0000000   6.0000000   6.0000000  16.0000000   8.0000000

  Atom        11          12          13          14          15          16          17          18          19          20
 IAtWgt=          12          12          12          12          12          12           1           1           1           1
 AtmWgt=  12.0000000  12.0000000  12.0000000  12.0000000  12.0000000  12.0000000   1.0078250   1.0078250   1.0078250   1.0078250
 NucSpn=           0           0           0           0           0           0           1           1           1           1
 AtZEff=  -0.0000000  -0.0000000  -0.0000000  -0.0000000  -0.0000000  -0.0000000  -0.0000000  -0.0000000  -0.0000000  -0.0000000
 NQMom=    0.0000000   0.0000000   0.0000000   0.0000000   0.0000000   0.0000000   0.0000000   0.0000000   0.0000000   0.0000000
 NMagM=    0.0000000   0.0000000   0.0000000   0.0000000   0.0000000   0.0000000   2.7928460   2.7928460   2.7928460   2.7928460
 AtZNuc=   6.0000000   6.0000000   6.0000000   6.0000000   6.0000000   6.0000000   1.0000000   1.0000000   1.0000000   1.0000000

  Atom        21          22          23          24
 IAtWgt=           1           1           1           1
 AtmWgt=   1.0078250   1.0078250   1.0078250   1.0078250
 NucSpn=           1           1           1           1
 AtZEff=  -0.0000000  -0.0000000  -0.0000000  -0.0000000
 NQMom=    0.0000000   0.0000000   0.0000000   0.0000000
 NMagM=    2.7928460   2.7928460   2.7928460   2.7928460
 AtZNuc=   1.0000000   1.0000000   1.0000000   1.0000000
 Leave Link  101 at Tue Jan  9 20:27:09 2024, MaxMem=  4026531840 cpu:               3.8 elap:               1.0
 (Enter /sysapps/ubuntu-applications/gaussian/Gaussian/AVX2/g16/l103.exe)

 GradGradGradGradGradGradGradGradGradGradGradGradGradGradGradGradGradGrad
 Berny optimization.
 Initialization pass.
                           ----------------------------
                           !    Initial Parameters    !
                           ! (Angstroms and Degrees)  !
 --------------------------                            --------------------------
 ! Name  Definition              Value          Derivative Info.                !
 --------------------------------------------------------------------------------
 ! R1    R(1,2)                  1.2662         estimate D2E/DX2                !
 ! R2    R(2,3)                  1.4602         estimate D2E/DX2                !
 ! R3    R(2,16)                 1.4602         estimate D2E/DX2                !
 ! R4    R(3,4)                  1.4188         estimate D2E/DX2                !
 ! R5    R(3,8)                  1.4205         estimate D2E/DX2                !
 ! R6    R(4,5)                  1.3813         estimate D2E/DX2                !
 ! R7    R(4,17)                 1.0835         estimate D2E/DX2                !
 ! R8    R(5,6)                  1.408          estimate D2E/DX2                !
 ! R9    R(5,18)                 1.0864         estimate D2E/DX2                !
 ! R10   R(6,7)                  1.3897         estimate D2E/DX2                !
 ! R11   R(6,19)                 1.0847         estimate D2E/DX2                !
 ! R12   R(7,8)                  1.3977         estimate D2E/DX2                !
 ! R13   R(7,20)                 1.0863         estimate D2E/DX2                !
 ! R14   R(8,9)                  1.7976         estimate D2E/DX2                !
 ! R15   R(9,10)                 1.5323         estimate D2E/DX2                !
 ! R16   R(9,11)                 1.7976         estimate D2E/DX2                !
 ! R17   R(11,12)                1.3977         estimate D2E/DX2                !
 ! R18   R(11,16)                1.4205         estimate D2E/DX2                !
 ! R19   R(12,13)                1.3898         estimate D2E/DX2                !
 ! R20   R(12,21)                1.0863         estimate D2E/DX2                !
 ! R21   R(13,14)                1.408          estimate D2E/DX2                !
 ! R22   R(13,22)                1.0847         estimate D2E/DX2                !
 ! R23   R(14,15)                1.3813         estimate D2E/DX2                !
 ! R24   R(14,23)                1.0864         estimate D2E/DX2                !
 ! R25   R(15,16)                1.4188         estimate D2E/DX2                !
 ! R26   R(15,24)                1.0835         estimate D2E/DX2                !
 ! A1    A(1,2,3)              120.8398         estimate D2E/DX2                !
 ! A2    A(1,2,16)             120.8483         estimate D2E/DX2                !
 ! A3    A(3,2,16)             118.058          estimate D2E/DX2                !
 ! A4    A(2,3,4)              118.5567         estimate D2E/DX2                !
 ! A5    A(2,3,8)              124.6669         estimate D2E/DX2                !
 ! A6    A(4,3,8)              116.6605         estimate D2E/DX2                !
 ! A7    A(3,4,5)              121.7978         estimate D2E/DX2                !
 ! A8    A(3,4,17)             116.6908         estimate D2E/DX2                !
 ! A9    A(5,4,17)             121.503          estimate D2E/DX2                !
 ! A10   A(4,5,6)              120.6398         estimate D2E/DX2                !
 ! A11   A(4,5,18)             119.645          estimate D2E/DX2                !
 ! A12   A(6,5,18)             119.7141         estimate D2E/DX2                !
 ! A13   A(5,6,7)              118.8039         estimate D2E/DX2                !
 ! A14   A(5,6,19)             120.7729         estimate D2E/DX2                !
 ! A15   A(7,6,19)             120.4158         estimate D2E/DX2                !
 ! A16   A(6,7,8)              120.8837         estimate D2E/DX2                !
 ! A17   A(6,7,20)             120.1868         estimate D2E/DX2                !
 ! A18   A(8,7,20)             118.9216         estimate D2E/DX2                !
 ! A19   A(3,8,7)              121.1704         estimate D2E/DX2                !
 ! A20   A(3,8,9)              123.2807         estimate D2E/DX2                !
 ! A21   A(7,8,9)              115.1342         estimate D2E/DX2                !
 ! A22   A(8,9,10)             108.8343         estimate D2E/DX2                !
 ! A23   A(8,9,11)              97.4879         estimate D2E/DX2                !
 ! A24   A(10,9,11)            108.836          estimate D2E/DX2                !
 ! A25   A(9,11,12)            115.132          estimate D2E/DX2                !
 ! A26   A(9,11,16)            123.2809         estimate D2E/DX2                !
 ! A27   A(12,11,16)           121.1718         estimate D2E/DX2                !
 ! A28   A(11,12,13)           120.8832         estimate D2E/DX2                !
 ! A29   A(11,12,21)           118.924          estimate D2E/DX2                !
 ! A30   A(13,12,21)           120.185          estimate D2E/DX2                !
 ! A31   A(12,13,14)           118.8038         estimate D2E/DX2                !
 ! A32   A(12,13,22)           120.4142         estimate D2E/DX2                !
 ! A33   A(14,13,22)           120.7747         estimate D2E/DX2                !
 ! A34   A(13,14,15)           120.6404         estimate D2E/DX2                !
 ! A35   A(13,14,23)           119.7151         estimate D2E/DX2                !
 ! A36   A(15,14,23)           119.6435         estimate D2E/DX2                !
 ! A37   A(14,15,16)           121.7979         estimate D2E/DX2                !
 ! A38   A(14,15,24)           121.5045         estimate D2E/DX2                !
 ! A39   A(16,15,24)           116.6891         estimate D2E/DX2                !
 ! A40   A(2,16,11)            124.6647         estimate D2E/DX2                !
 ! A41   A(2,16,15)            118.5603         estimate D2E/DX2                !
 ! A42   A(11,16,15)           116.659          estimate D2E/DX2                !
 ! D1    D(1,2,3,4)             -7.5734         estimate D2E/DX2                !
 ! D2    D(1,2,3,8)            176.4789         estimate D2E/DX2                !
 ! D3    D(16,2,3,4)           166.6859         estimate D2E/DX2                !
 ! D4    D(16,2,3,8)            -9.2618         estimate D2E/DX2                !
 ! D5    D(1,2,16,11)         -176.4875         estimate D2E/DX2                !
 ! D6    D(1,2,16,15)            7.5673         estimate D2E/DX2                !
 ! D7    D(3,2,16,11)            9.2537         estimate D2E/DX2                !
 ! D8    D(3,2,16,15)         -166.6914         estimate D2E/DX2                !
 ! D9    D(2,3,4,5)           -174.4609         estimate D2E/DX2                !
 ! D10   D(2,3,4,17)             4.5003         estimate D2E/DX2                !
 ! D11   D(8,3,4,5)              1.8102         estimate D2E/DX2                !
 ! D12   D(8,3,4,17)          -179.2286         estimate D2E/DX2                !
 ! D13   D(2,3,8,7)            173.873          estimate D2E/DX2                !
 ! D14   D(2,3,8,9)            -13.8807         estimate D2E/DX2                !
 ! D15   D(4,3,8,7)             -2.1444         estimate D2E/DX2                !
 ! D16   D(4,3,8,9)            170.102          estimate D2E/DX2                !
 ! D17   D(3,4,5,6)             -0.0607         estimate D2E/DX2                !
 ! D18   D(3,4,5,18)           179.5551         estimate D2E/DX2                !
 ! D19   D(17,4,5,6)          -178.9721         estimate D2E/DX2                !
 ! D20   D(17,4,5,18)            0.6437         estimate D2E/DX2                !
 ! D21   D(4,5,6,7)             -1.4203         estimate D2E/DX2                !
 ! D22   D(4,5,6,19)           179.5615         estimate D2E/DX2                !
 ! D23   D(18,5,6,7)           178.9642         estimate D2E/DX2                !
 ! D24   D(18,5,6,19)           -0.054          estimate D2E/DX2                !
 ! D25   D(5,6,7,8)              1.0775         estimate D2E/DX2                !
 ! D26   D(5,6,7,20)          -177.8927         estimate D2E/DX2                !
 ! D27   D(19,6,7,8)          -179.9007         estimate D2E/DX2                !
 ! D28   D(19,6,7,20)            1.1292         estimate D2E/DX2                !
 ! D29   D(6,7,8,3)              0.743          estimate D2E/DX2                !
 ! D30   D(6,7,8,9)           -172.1004         estimate D2E/DX2                !
 ! D31   D(20,7,8,3)           179.7259         estimate D2E/DX2                !
 ! D32   D(20,7,8,9)             6.8826         estimate D2E/DX2                !
 ! D33   D(3,8,9,10)           -83.9599         estimate D2E/DX2                !
 ! D34   D(3,8,9,11)            28.9257         estimate D2E/DX2                !
 ! D35   D(7,8,9,10)            88.7144         estimate D2E/DX2                !
 ! D36   D(7,8,9,11)          -158.4            estimate D2E/DX2                !
 ! D37   D(8,9,11,12)          158.3988         estimate D2E/DX2                !
 ! D38   D(8,9,11,16)          -28.9333         estimate D2E/DX2                !
 ! D39   D(10,9,11,12)         -88.717          estimate D2E/DX2                !
 ! D40   D(10,9,11,16)          83.951          estimate D2E/DX2                !
 ! D41   D(9,11,12,13)         172.0903         estimate D2E/DX2                !
 ! D42   D(9,11,12,21)          -6.8923         estimate D2E/DX2                !
 ! D43   D(16,11,12,13)         -0.7467         estimate D2E/DX2                !
 ! D44   D(16,11,12,21)       -179.7293         estimate D2E/DX2                !
 ! D45   D(9,11,16,2)           13.8963         estimate D2E/DX2                !
 ! D46   D(9,11,16,15)        -170.0887         estimate D2E/DX2                !
 ! D47   D(12,11,16,2)        -173.8643         estimate D2E/DX2                !
 ! D48   D(12,11,16,15)          2.1507         estimate D2E/DX2                !
 ! D49   D(11,12,13,14)         -1.0788         estimate D2E/DX2                !
 ! D50   D(11,12,13,22)        179.8982         estimate D2E/DX2                !
 ! D51   D(21,12,13,14)        177.891          estimate D2E/DX2                !
 ! D52   D(21,12,13,22)         -1.132          estimate D2E/DX2                !
 ! D53   D(12,13,14,15)          1.4238         estimate D2E/DX2                !
 ! D54   D(12,13,14,23)       -178.96           estimate D2E/DX2                !
 ! D55   D(22,13,14,15)       -179.5568         estimate D2E/DX2                !
 ! D56   D(22,13,14,23)          0.0594         estimate D2E/DX2                !
 ! D57   D(13,14,15,16)          0.0601         estimate D2E/DX2                !
 ! D58   D(13,14,15,24)        178.9694         estimate D2E/DX2                !
 ! D59   D(23,14,15,16)       -179.5564         estimate D2E/DX2                !
 ! D60   D(23,14,15,24)         -0.6471         estimate D2E/DX2                !
 ! D61   D(14,15,16,2)         174.4543         estimate D2E/DX2                !
 ! D62   D(14,15,16,11)         -1.8144         estimate D2E/DX2                !
 ! D63   D(24,15,16,2)          -4.5049         estimate D2E/DX2                !
 ! D64   D(24,15,16,11)        179.2264         estimate D2E/DX2                !
 --------------------------------------------------------------------------------
 Trust Radius=3.00D-01 FncErr=1.00D-07 GrdErr=1.00D-06 EigMax=2.50D+02 EigMin=1.00D-04
 Number of steps in this run=    142 maximum allowed number of steps=    144.
 GradGradGradGradGradGradGradGradGradGradGradGradGradGradGradGradGradGrad

 Leave Link  103 at Tue Jan  9 20:27:09 2024, MaxMem=  4026531840 cpu:               0.3 elap:               0.1
 (Enter /sysapps/ubuntu-applications/gaussian/Gaussian/AVX2/g16/l202.exe)
                          Input orientation:                          
 ---------------------------------------------------------------------
 Center     Atomic      Atomic             Coordinates (Angstroms)
 Number     Number       Type             X           Y           Z
 ---------------------------------------------------------------------
      1          8           0       -0.016551   -2.510093   -0.525508
      2          6           0       -0.008708   -1.294352   -0.171851
      3          6           0        1.247946   -0.601171    0.097322
      4          6           0        2.448996   -1.356299    0.113955
      5          6           0        3.658287   -0.792512    0.471200
      6          6           0        3.737697    0.565905    0.833118
      7          6           0        2.582393    1.337447    0.795794
      8          6           0        1.356239    0.775957    0.428466
      9         16           0        0.011632    1.950092    0.216780
     10          8           0        0.012397    2.446979   -1.232695
     11          6           0       -1.346467    0.792393    0.432725
     12          6           0       -2.564507    1.368785    0.803930
     13          6           0       -3.729052    0.611421    0.844723
     14          6           0       -3.667390   -0.747778    0.482344
     15          6           0       -2.466183   -1.326278    0.121312
     16          6           0       -1.256021   -0.585920    0.101122
     17          1           0        2.368976   -2.403867   -0.151096
     18          1           0        4.555401   -1.405132    0.478809
     19          1           0        4.685023    1.009139    1.120848
     20          1           0        2.624268    2.395725    1.037394
     21          1           0       -2.592719    2.427451    1.045810
     22          1           0       -4.669970    1.066178    1.135493
     23          1           0       -4.571905   -1.349379    0.492572
     24          1           0       -2.399783   -2.374693   -0.144114
 ---------------------------------------------------------------------
                    Distance matrix (angstroms):
                    1          2          3          4          5
     1  O    0.000000
     2  C    1.266160   0.000000
     3  C    2.372942   1.460183   0.000000
     4  C    2.796261   2.475042   1.418808   0.000000
     5  C    4.177074   3.756622   2.446659   1.381255   0.000000
     6  C    5.040040   4.301868   2.846458   2.423389   1.408044
     7  C    4.827413   3.817919   2.454965   2.781900   2.408243
     8  C    3.686834   2.551400   1.420516   2.416516   2.785919
     9  S    4.521619   3.267700   2.837549   4.108958   4.569978
    10  O    5.007346   3.888881   3.547780   4.713322   5.166244
    11  C    3.686909   2.551395   2.964034   4.373103   5.249854
    12  C    4.827544   3.817926   4.349117   5.747814   6.595838
    13  C    5.040243   4.301901   5.176823   6.524892   7.528833
    14  C    4.177337   3.756683   4.932572   6.157612   7.325822
    15  C    2.796514   2.475105   3.784324   4.915276   6.157634
    16  C    2.373056   1.460199   2.504016   3.784283   4.932551
    17  H    2.417066   2.623897   2.137319   1.083538   2.155467
    18  H    4.809609   4.611586   3.425076   2.138328   1.086358
    19  H    6.099203   5.385931   3.931183   3.407191   2.173057
    20  H    5.786505   4.691642   3.429196   3.867964   3.399210
    21  H    5.786624   4.691655   4.982257   6.372127   7.055028
    22  H    6.099422   5.385965   6.235349   7.588914   8.558965
    23  H    4.809885   4.611643   5.881046   7.031106   8.249037
    24  H    2.417352   2.623956   4.063201   4.961289   6.291432
                    6          7          8          9         10
     6  C    0.000000
     7  C    1.389747   0.000000
     8  C    2.424708   1.397732   0.000000
     9  S    4.022363   2.705440   1.797602   0.000000
    10  O    4.656596   3.456980   2.712505   1.532278   0.000000
    11  C    5.104932   3.983070   2.702759   1.797591   2.712525
    12  C    6.353207   5.147002   3.983048   2.705394   3.456990
    13  C    7.466897   6.353255   5.104951   4.022321   4.656542
    14  C    7.528886   6.595923   5.249907   4.569927   5.166107
    15  C    6.524964   5.747911   4.373173   4.108927   4.713190
    16  C    5.176846   4.349176   2.964079   2.837548   3.547736
    17  H    3.414911   3.865175   3.387154   4.964812   5.500366
    18  H    2.163137   3.393373   3.872250   5.654381   6.197329
    19  H    1.084745   2.152789   3.408015   4.852145   5.425862
    20  H    2.151672   1.086313   2.145306   2.774502   3.460896
    21  H    6.601875   5.294563   4.324675   2.774492   3.461011
    22  H    8.427963   7.265380   6.074480   4.852086   5.425817
    23  H    8.534270   7.648200   6.297940   5.654324   6.197153
    24  H    6.875373   6.283748   4.935802   4.964769   5.500195
                   11         12         13         14         15
    11  C    0.000000
    12  C    1.397728   0.000000
    13  C    2.424707   1.389759   0.000000
    14  C    2.785906   2.408237   1.408028   0.000000
    15  C    2.416508   2.781906   2.423394   1.381269   0.000000
    16  C    1.420524   2.454984   2.846480   2.446677   1.418813
    17  H    4.935731   6.283648   6.875286   6.291390   4.961267
    18  H    6.297879   7.648098   8.534198   8.249025   7.031121
    19  H    6.074485   7.265361   8.427994   8.559045   7.589005
    20  H    4.324701   5.294572   6.601934   7.055115   6.372221
    21  H    2.145328   1.086313   2.151663   3.399190   3.867970
    22  H    3.408007   2.152784   1.084748   2.173064   3.407211
    23  H    3.872237   3.393377   2.163134   1.086359   2.138325
    24  H    3.387130   3.865171   3.414913   2.155488   1.083528
                   16         17         18         19         20
    16  C    0.000000
    17  H    4.063145   0.000000
    18  H    5.881019   2.484896   0.000000
    19  H    6.235388   4.316309   2.501544   0.000000
    20  H    4.982314   4.951138   4.299745   2.485216   0.000000
    21  H    3.429228   7.027989   8.130547   7.415037   5.217090
    22  H    3.931208   7.952565   9.573196   9.355178   7.415068
    23  H    3.425082   7.049970   9.127487   9.573299   8.130654
    24  H    2.137298   4.768853   7.050012   7.952668   7.028082
                   21         22         23         24
    21  H    0.000000
    22  H    2.485172   0.000000
    23  H    4.299732   2.501575   0.000000
    24  H    4.951134   4.316334   2.484905   0.000000
 Symmetry turned off by external request.
 Stoichiometry    C13H8O2S(1-,2)
 Framework group  C1[X(C13H8O2S)]
 Deg. of freedom    66
 Full point group                 C1      NOp   1
 Rotational constants (GHZ):           0.9030496           0.4139750           0.3071945
 Leave Link  202 at Tue Jan  9 20:27:09 2024, MaxMem=  4026531840 cpu:               0.5 elap:               0.1
 (Enter /sysapps/ubuntu-applications/gaussian/Gaussian/AVX2/g16/l301.exe)
 Standard basis: 6-311++G(d,p) (5D, 7F)
 Ernie: Thresh=  0.10000D-02 Tol=  0.10000D-05 Strict=F.
   416 basis functions,   662 primitive gaussians,   432 cartesian basis functions
    60 alpha electrons       59 beta electrons
       nuclear repulsion energy      1134.8933714696 Hartrees.
 IExCor=  402 DFT=T Ex+Corr=B3LYP ExCW=0 ScaHFX=  0.200000
 ScaDFX=  0.800000  0.720000  1.000000  0.810000 ScalE2=  1.000000  1.000000
 IRadAn=      5 IRanWt=     -1 IRanGd=            0 ICorTp=0 IEmpDi=  4
 NAtoms=   24 NActive=   24 NUniq=   24 SFac= 1.00D+00 NAtFMM=   60 NAOKFM=F Big=F
 Integral buffers will be    131072 words long.
 Raffenetti 2 integral format.
 Two-electron integral symmetry is turned off.
 Leave Link  301 at Tue Jan  9 20:27:09 2024, MaxMem=  4026531840 cpu:               0.5 elap:               0.1
 (Enter /sysapps/ubuntu-applications/gaussian/Gaussian/AVX2/g16/l302.exe)
 NPDir=0 NMtPBC=     1 NCelOv=     1 NCel=       1 NClECP=     1 NCelD=      1
         NCelK=      1 NCelE2=     1 NClLst=     1 CellRange=     0.0.
 One-electron integrals computed using PRISM.
 NBasis=   416 RedAO= T EigKep=  1.17D-06  NBF=   416
 NBsUse=   412 1.00D-06 EigRej=  6.19D-07 NBFU=   412
 Precomputing XC quadrature grid using
 IXCGrd= 4 IRadAn=           5 IRanWt=          -1 IRanGd=           0 AccXCQ= 0.00D+00.
 Generated NRdTot=       0 NPtTot=           0 NUsed=           0 NTot=          32
 NSgBfM=   431   431   431   431   431 MxSgAt=    24 MxSgA2=    24.
 Leave Link  302 at Tue Jan  9 20:27:10 2024, MaxMem=  4026531840 cpu:               4.5 elap:               0.7
 (Enter /sysapps/ubuntu-applications/gaussian/Gaussian/AVX2/g16/l303.exe)
 DipDrv:  MaxL=1.
 Leave Link  303 at Tue Jan  9 20:27:10 2024, MaxMem=  4026531840 cpu:               1.6 elap:               0.3
 (Enter /sysapps/ubuntu-applications/gaussian/Gaussian/AVX2/g16/l401.exe)
 ExpMin= 3.60D-02 ExpMax= 9.34D+04 ExpMxC= 3.17D+03 IAcc=3 IRadAn=         5 AccDes= 0.00D+00
 Harris functional with IExCor=  402 and IRadAn=       5 diagonalized for initial guess.
 HarFok:  IExCor=  402 AccDes= 0.00D+00 IRadAn=         5 IDoV= 1 UseB2=F ITyADJ=14
 ICtDFT=  3500011 ScaDFX=  1.000000  1.000000  1.000000  1.000000
 FoFCou: FMM=F IPFlag=           0 FMFlag=      100000 FMFlg1=           0
         NFxFlg=           0 DoJE=T BraDBF=F KetDBF=T FulRan=T
         wScrn=  0.000000 ICntrl=       500 IOpCl=  0 I1Cent=   200000004 NGrid=           0
         NMat0=    1 NMatS0=      1 NMatT0=    0 NMatD0=    1 NMtDS0=    0 NMtDT0=    0
 Symmetry not used in FoFCou.
 Harris En= -1049.21764880000    
 JPrj=0 DoOrth=F DoCkMO=F.
 Initial guess <Sx>= 0.0000 <Sy>= 0.0000 <Sz>= 0.5000 <S**2>= 0.7500 S= 0.5000
 Leave Link  401 at Tue Jan  9 20:27:13 2024, MaxMem=  4026531840 cpu:              19.7 elap:               2.5
 (Enter /sysapps/ubuntu-applications/gaussian/Gaussian/AVX2/g16/l502.exe)
 Two-electron integral symmetry not used.
 UHF open shell SCF:
 Using DIIS extrapolation, IDIIS=  1040.
 NGot=  4026531840 LenX=  4026152108 LenY=  4025965043
 Requested convergence on RMS density matrix=1.00D-08 within 128 cycles.
 Requested convergence on MAX density matrix=1.00D-06.
 Requested convergence on             energy=1.00D-06.
 No special actions if energy rises.
 Fock matrices will be formed incrementally for  20 cycles.

 Cycle   1  Pass 1  IDiag  1:
 FoFJK:  IHMeth= 1 ICntrl=       0 DoSepK=F KAlg= 0 I1Cent=           0 FoldK=F
 IRaf= 880000000 NMat=       1 IRICut=       1 DoRegI=T DoRafI=F ISym2E= 0 IDoP0=0 IntGTp=1.
 FoFCou: FMM=F IPFlag=           0 FMFlag=      100000 FMFlg1=           0
         NFxFlg=           0 DoJE=F BraDBF=F KetDBF=F FulRan=T
         wScrn=  0.000000 ICntrl=         0 IOpCl=  1 I1Cent=           0 NGrid=           0
         NMat0=    1 NMatS0=      1 NMatT0=    0 NMatD0=    1 NMtDS0=    0 NMtDT0=    0
 Symmetry not used in FoFCou.
 E= -1048.46114558666    
 DIIS: error= 4.64D-02 at cycle   1 NSaved=   1.
 NSaved= 1 IEnMin= 1 EnMin= -1048.46114558666     IErMin= 1 ErrMin= 4.64D-02
 ErrMax= 4.64D-02  0.00D+00 EMaxC= 1.00D-01 BMatC= 2.70D+00 BMatP= 2.70D+00
 IDIUse=3 WtCom= 5.36D-01 WtEn= 4.64D-01
 Coeff-Com:  0.100D+01
 Coeff-En:   0.100D+01
 Coeff:      0.100D+01
 Gap=     0.072 Goal=   None    Shift=    0.000
 Gap=     0.287 Goal=   None    Shift=    0.000
 GapD=    0.072 DampG=0.500 DampE=0.500 DampFc=0.2500 IDamp=-1.
 Damping current iteration by 2.50D-01
 RMSDP=9.11D-01 MaxDP=6.83D+01              OVMax= 9.94D-01

 Cycle   2  Pass 1  IDiag  1:
 RMSU=  2.15D-01    CP:  1.85D+00
 E= -1048.49527141431     Delta-E=       -0.034125827649 Rises=F Damp=T
 DIIS: error= 1.63D-02 at cycle   2 NSaved=   2.
 NSaved= 2 IEnMin= 2 EnMin= -1048.49527141431     IErMin= 2 ErrMin= 1.63D-02
 ErrMax= 1.63D-02  0.00D+00 EMaxC= 1.00D-01 BMatC= 4.91D-01 BMatP= 2.70D+00
 IDIUse=3 WtCom= 8.37D-01 WtEn= 1.63D-01
 Coeff-Com: -0.144D+00 0.114D+01
 Coeff-En:   0.453D+00 0.547D+00
 Coeff:     -0.465D-01 0.105D+01
 Gap=     0.020 Goal=   None    Shift=    0.000
 Gap=    -0.009 Goal=   None    Shift=    0.000
 RMSDP=1.98D-01 MaxDP=1.34D+01 DE=-3.41D-02 OVMax= 6.81D-01

 Cycle   3  Pass 1  IDiag  1:
 RMSU=  4.78D-02    CP:  1.66D+00  1.10D-01
 E= -1048.52258648827     Delta-E=       -0.027315073959 Rises=F Damp=F
 DIIS: error= 5.75D-02 at cycle   3 NSaved=   3.
 NSaved= 3 IEnMin= 3 EnMin= -1048.52258648827     IErMin= 2 ErrMin= 1.63D-02
 ErrMax= 5.75D-02  0.00D+00 EMaxC= 1.00D-01 BMatC= 1.91D+00 BMatP= 4.91D-01
 IDIUse=2 WtCom= 0.00D+00 WtEn= 1.00D+00
 EnCoef did     2 forward-backward iterations
 Coeff-En:   0.103D+00 0.415D+00 0.483D+00
 Coeff:      0.103D+00 0.415D+00 0.483D+00
 Gap=     0.119 Goal=   None    Shift=    0.000
 Gap=     0.189 Goal=   None    Shift=    0.000
 RMSDP=8.31D-02 MaxDP=3.81D+00 DE=-2.73D-02 OVMax= 6.10D-01

 Cycle   4  Pass 1  IDiag  1:
 RMSU=  7.02D-02    CP:  1.95D+00  2.65D-01  1.31D+00
 E= -1048.55370199091     Delta-E=       -0.031115502643 Rises=F Damp=F
 DIIS: error= 5.13D-02 at cycle   4 NSaved=   4.
 NSaved= 4 IEnMin= 4 EnMin= -1048.55370199091     IErMin= 2 ErrMin= 1.63D-02
 ErrMax= 5.13D-02  0.00D+00 EMaxC= 1.00D-01 BMatC= 2.00D+00 BMatP= 4.91D-01
 IDIUse=2 WtCom= 0.00D+00 WtEn= 1.00D+00
 EnCoef did     2 forward-backward iterations
 Coeff-En:   0.156D-01 0.000D+00 0.479D+00 0.506D+00
 Coeff:      0.156D-01 0.000D+00 0.479D+00 0.506D+00
 Gap=     0.103 Goal=   None    Shift=    0.000
 Gap=     0.184 Goal=   None    Shift=    0.000
 RMSDP=8.41D-02 MaxDP=4.28D+00 DE=-3.11D-02 OVMax= 3.32D-01

 Cycle   5  Pass 1  IDiag  1:
 RMSU=  1.72D-02    CP:  1.38D+00  1.21D-01  6.18D-01  3.30D-01
 E= -1048.99575352982     Delta-E=       -0.442051538904 Rises=F Damp=F
 DIIS: error= 1.16D-02 at cycle   5 NSaved=   5.
 NSaved= 5 IEnMin= 5 EnMin= -1048.99575352982     IErMin= 5 ErrMin= 1.16D-02
 ErrMax= 1.16D-02  0.00D+00 EMaxC= 1.00D-01 BMatC= 2.03D-01 BMatP= 4.91D-01
 IDIUse=3 WtCom= 8.84D-01 WtEn= 1.16D-01
 Coeff-Com: -0.266D+00 0.412D+00 0.138D+00 0.313D-01 0.685D+00
 Coeff-En:   0.000D+00 0.000D+00 0.000D+00 0.157D-01 0.984D+00
 Coeff:     -0.235D+00 0.364D+00 0.122D+00 0.295D-01 0.720D+00
 Gap=     0.101 Goal=   None    Shift=    0.000
 Gap=     0.140 Goal=   None    Shift=    0.000
 RMSDP=2.45D-02 MaxDP=1.14D+00 DE=-4.42D-01 OVMax= 1.01D-01

 Cycle   6  Pass 1  IDiag  1:
 RMSU=  1.19D-02    CP:  1.47D+00  1.67D-01  9.82D-01  3.26D-01  1.07D+00
 E= -1049.01434768933     Delta-E=       -0.018594159515 Rises=F Damp=F
 DIIS: error= 1.07D-02 at cycle   6 NSaved=   6.
 NSaved= 6 IEnMin= 6 EnMin= -1049.01434768933     IErMin= 6 ErrMin= 1.07D-02
 ErrMax= 1.07D-02  0.00D+00 EMaxC= 1.00D-01 BMatC= 6.80D-02 BMatP= 2.03D-01
 IDIUse=3 WtCom= 8.93D-01 WtEn= 1.07D-01
 Coeff-Com: -0.187D+00 0.226D+00 0.651D-02 0.102D-01 0.513D+00 0.432D+00
 Coeff-En:   0.000D+00 0.000D+00 0.000D+00 0.000D+00 0.283D+00 0.717D+00
 Coeff:     -0.167D+00 0.202D+00 0.582D-02 0.914D-02 0.488D+00 0.463D+00
 Gap=     0.088 Goal=   None    Shift=    0.000
 Gap=     0.152 Goal=   None    Shift=    0.000
 RMSDP=1.15D-02 MaxDP=3.91D-01 DE=-1.86D-02 OVMax= 6.70D-02

 Cycle   7  Pass 1  IDiag  1:
 RMSU=  4.41D-03    CP:  1.50D+00  1.65D-01  9.13D-01  3.91D-01  1.22D+00
                    CP:  3.18D-01
 E= -1049.03446564206     Delta-E=       -0.020117952731 Rises=F Damp=F
 DIIS: error= 5.07D-03 at cycle   7 NSaved=   7.
 NSaved= 7 IEnMin= 7 EnMin= -1049.03446564206     IErMin= 7 ErrMin= 5.07D-03
 ErrMax= 5.07D-03  0.00D+00 EMaxC= 1.00D-01 BMatC= 9.36D-03 BMatP= 6.80D-02
 IDIUse=3 WtCom= 9.49D-01 WtEn= 5.07D-02
 Coeff-Com: -0.118D+00 0.150D+00-0.127D-01 0.502D-02 0.270D+00 0.267D+00
 Coeff-Com:  0.438D+00
 Coeff-En:   0.000D+00 0.000D+00 0.000D+00 0.000D+00 0.000D+00 0.000D+00
 Coeff-En:   0.100D+01
 Coeff:     -0.112D+00 0.142D+00-0.121D-01 0.477D-02 0.257D+00 0.254D+00
 Coeff:      0.466D+00
 Gap=     0.089 Goal=   None    Shift=    0.000
 Gap=     0.149 Goal=   None    Shift=    0.000
 RMSDP=2.61D-03 MaxDP=1.06D-01 DE=-2.01D-02 OVMax= 8.80D-03

 Cycle   8  Pass 1  IDiag  1:
 RMSU=  8.19D-04    CP:  1.50D+00  1.69D-01  9.31D-01  3.99D-01  1.23D+00
                    CP:  4.50D-01  7.04D-01
 E= -1049.03545600114     Delta-E=       -0.000990359081 Rises=F Damp=F
 DIIS: error= 3.35D-03 at cycle   8 NSaved=   8.
 NSaved= 8 IEnMin= 8 EnMin= -1049.03545600114     IErMin= 8 ErrMin= 3.35D-03
 ErrMax= 3.35D-03  0.00D+00 EMaxC= 1.00D-01 BMatC= 5.28D-03 BMatP= 9.36D-03
 IDIUse=3 WtCom= 9.66D-01 WtEn= 3.35D-02
 Coeff-Com: -0.300D-01 0.448D-01-0.154D-01 0.104D-01 0.347D-02-0.465D-01
 Coeff-Com:  0.219D+00 0.814D+00
 Coeff-En:   0.000D+00 0.000D+00 0.000D+00 0.000D+00 0.000D+00 0.000D+00
 Coeff-En:   0.352D-02 0.996D+00
 Coeff:     -0.290D-01 0.433D-01-0.149D-01 0.101D-01 0.335D-02-0.449D-01
 Coeff:      0.212D+00 0.820D+00
 Gap=     0.087 Goal=   None    Shift=    0.000
 Gap=     0.152 Goal=   None    Shift=    0.000
 RMSDP=3.53D-03 MaxDP=1.30D-01 DE=-9.90D-04 OVMax= 2.60D-02

 Cycle   9  Pass 1  IDiag  1:
 RMSU=  4.24D-04    CP:  1.52D+00  1.75D-01  9.43D-01  4.26D-01  1.29D+00
                    CP:  3.59D-01  8.78D-01  1.64D+00
 E= -1049.03709336442     Delta-E=       -0.001637363278 Rises=F Damp=F
 DIIS: error= 9.11D-04 at cycle   9 NSaved=   9.
 NSaved= 9 IEnMin= 9 EnMin= -1049.03709336442     IErMin= 9 ErrMin= 9.11D-04
 ErrMax= 9.11D-04  0.00D+00 EMaxC= 1.00D-01 BMatC= 3.26D-04 BMatP= 5.28D-03
 IDIUse=3 WtCom= 9.91D-01 WtEn= 9.11D-03
 Coeff-Com: -0.388D-02 0.917D-02-0.211D-02 0.223D-02-0.291D-01-0.830D-01
 Coeff-Com: -0.421D-01 0.367D+00 0.781D+00
 Coeff-En:   0.000D+00 0.000D+00 0.000D+00 0.000D+00 0.000D+00 0.000D+00
 Coeff-En:   0.000D+00 0.000D+00 0.100D+01
 Coeff:     -0.384D-02 0.908D-02-0.209D-02 0.221D-02-0.289D-01-0.822D-01
 Coeff:     -0.417D-01 0.364D+00 0.783D+00
 Gap=     0.087 Goal=   None    Shift=    0.000
 Gap=     0.150 Goal=   None    Shift=    0.000
 RMSDP=8.78D-04 MaxDP=3.91D-02 DE=-1.64D-03 OVMax= 8.09D-03

 Cycle  10  Pass 1  IDiag  1:
 RMSU=  1.82D-04    CP:  1.52D+00  1.76D-01  9.52D-01  4.31D-01  1.30D+00
                    CP:  3.52D-01  9.25D-01  1.71D+00  1.01D+00
 E= -1049.03720286590     Delta-E=       -0.000109501477 Rises=F Damp=F
 DIIS: error= 2.18D-04 at cycle  10 NSaved=  10.
 NSaved=10 IEnMin=10 EnMin= -1049.03720286590     IErMin=10 ErrMin= 2.18D-04
 ErrMax= 2.18D-04  0.00D+00 EMaxC= 1.00D-01 BMatC= 3.92D-05 BMatP= 3.26D-04
 IDIUse=3 WtCom= 9.98D-01 WtEn= 2.18D-03
 Coeff-Com: -0.276D-02 0.448D-02 0.172D-02-0.727D-03-0.162D-02-0.245D-01
 Coeff-Com: -0.415D-01 0.246D-01 0.379D+00 0.661D+00
 Coeff-En:   0.000D+00 0.000D+00 0.000D+00 0.000D+00 0.000D+00 0.000D+00
 Coeff-En:   0.000D+00 0.000D+00 0.000D+00 0.100D+01
 Coeff:     -0.276D-02 0.447D-02 0.172D-02-0.726D-03-0.162D-02-0.245D-01
 Coeff:     -0.414D-01 0.246D-01 0.378D+00 0.662D+00
 Gap=     0.087 Goal=   None    Shift=    0.000
 Gap=     0.151 Goal=   None    Shift=    0.000
 RMSDP=2.14D-04 MaxDP=9.27D-03 DE=-1.10D-04 OVMax= 2.07D-03

 Cycle  11  Pass 1  IDiag  1:
 RMSU=  9.34D-05    CP:  1.52D+00  1.77D-01  9.53D-01  4.32D-01  1.30D+00
                    CP:  3.44D-01  9.22D-01  1.75D+00  8.90D-01  1.27D+00
 E= -1049.03721912920     Delta-E=       -0.000016263301 Rises=F Damp=F
 DIIS: error= 1.71D-04 at cycle  11 NSaved=  11.
 NSaved=11 IEnMin=11 EnMin= -1049.03721912920     IErMin=11 ErrMin= 1.71D-04
 ErrMax= 1.71D-04  0.00D+00 EMaxC= 1.00D-01 BMatC= 8.09D-06 BMatP= 3.92D-05
 IDIUse=3 WtCom= 9.98D-01 WtEn= 1.71D-03
 Coeff-Com: -0.331D-03-0.256D-04 0.126D-02-0.110D-02 0.570D-02 0.878D-02
 Coeff-Com: -0.693D-02-0.889D-01-0.502D-01 0.238D+00 0.894D+00
 Coeff-En:   0.000D+00 0.000D+00 0.000D+00 0.000D+00 0.000D+00 0.000D+00
 Coeff-En:   0.000D+00 0.000D+00 0.000D+00 0.000D+00 0.100D+01
 Coeff:     -0.331D-03-0.255D-04 0.126D-02-0.109D-02 0.569D-02 0.877D-02
 Coeff:     -0.692D-02-0.887D-01-0.501D-01 0.238D+00 0.894D+00
 Gap=     0.087 Goal=   None    Shift=    0.000
 Gap=     0.151 Goal=   None    Shift=    0.000
 RMSDP=1.55D-04 MaxDP=7.26D-03 DE=-1.63D-05 OVMax= 2.88D-03

 Cycle  12  Pass 1  IDiag  1:
 RMSU=  4.84D-05    CP:  1.52D+00  1.76D-01  9.51D-01  4.32D-01  1.30D+00
                    CP:  3.39D-01  9.37D-01  1.74D+00  9.11D-01  1.53D+00
                    CP:  1.14D+00
 E= -1049.03722431902     Delta-E=       -0.000005189825 Rises=F Damp=F
 DIIS: error= 8.46D-05 at cycle  12 NSaved=  12.
 NSaved=12 IEnMin=12 EnMin= -1049.03722431902     IErMin=12 ErrMin= 8.46D-05
 ErrMax= 8.46D-05  0.00D+00 EMaxC= 1.00D-01 BMatC= 5.74D-06 BMatP= 8.09D-06
 IDIUse=1 WtCom= 1.00D+00 WtEn= 0.00D+00
 Coeff-Com: -0.156D-02 0.170D-02 0.685D-03-0.759D-03 0.834D-02 0.144D-01
 Coeff-Com:  0.928D-02-0.617D-01-0.135D+00-0.263D-01 0.632D+00 0.559D+00
 Coeff:     -0.156D-02 0.170D-02 0.685D-03-0.759D-03 0.834D-02 0.144D-01
 Coeff:      0.928D-02-0.617D-01-0.135D+00-0.263D-01 0.632D+00 0.559D+00
 Gap=     0.087 Goal=   None    Shift=    0.000
 Gap=     0.151 Goal=   None    Shift=    0.000
 RMSDP=1.90D-04 MaxDP=1.07D-02 DE=-5.19D-06 OVMax= 5.76D-04

 Cycle  13  Pass 1  IDiag  1:
 RMSU=  3.72D-05    CP:  1.52D+00  1.77D-01  9.54D-01  4.32D-01  1.30D+00
                    CP:  3.43D-01  9.27D-01  1.75D+00  8.45D-01  1.65D+00
                    CP:  1.50D+00  6.16D-01
 E= -1049.03722564208     Delta-E=       -0.000001323056 Rises=F Damp=F
 DIIS: error= 5.04D-05 at cycle  13 NSaved=  13.
 NSaved=13 IEnMin=13 EnMin= -1049.03722564208     IErMin=13 ErrMin= 5.04D-05
 ErrMax= 5.04D-05  0.00D+00 EMaxC= 1.00D-01 BMatC= 1.27D-06 BMatP= 5.74D-06
 IDIUse=1 WtCom= 1.00D+00 WtEn= 0.00D+00
 Coeff-Com: -0.291D-04-0.632D-04-0.587D-05-0.792D-04 0.106D-02 0.356D-02
 Coeff-Com:  0.453D-02-0.105D-01-0.669D-01-0.932D-01 0.119D+00 0.335D+00
 Coeff-Com:  0.707D+00
 Coeff:     -0.291D-04-0.632D-04-0.587D-05-0.792D-04 0.106D-02 0.356D-02
 Coeff:      0.453D-02-0.105D-01-0.669D-01-0.932D-01 0.119D+00 0.335D+00
 Coeff:      0.707D+00
 Gap=     0.087 Goal=   None    Shift=    0.000
 Gap=     0.151 Goal=   None    Shift=    0.000
 RMSDP=4.56D-05 MaxDP=1.77D-03 DE=-1.32D-06 OVMax= 8.14D-04

 Cycle  14  Pass 1  IDiag  1:
 RMSU=  8.28D-06    CP:  1.52D+00  1.77D-01  9.54D-01  4.33D-01  1.30D+00
                    CP:  3.41D-01  9.32D-01  1.75D+00  8.44D-01  1.70D+00
                    CP:  1.55D+00  7.93D-01  8.95D-01
 E= -1049.03722614104     Delta-E=       -0.000000498957 Rises=F Damp=F
 DIIS: error= 8.97D-06 at cycle  14 NSaved=  14.
 NSaved=14 IEnMin=14 EnMin= -1049.03722614104     IErMin=14 ErrMin= 8.97D-06
 ErrMax= 8.97D-06  0.00D+00 EMaxC= 1.00D-01 BMatC= 8.98D-08 BMatP= 1.27D-06
 IDIUse=1 WtCom= 1.00D+00 WtEn= 0.00D+00
 Coeff-Com:  0.114D-04-0.204D-05-0.605D-04 0.287D-04-0.122D-03 0.217D-03
 Coeff-Com:  0.142D-02 0.249D-02-0.168D-01-0.408D-01-0.130D-01 0.972D-01
 Coeff-Com:  0.328D+00 0.642D+00
 Coeff:      0.114D-04-0.204D-05-0.605D-04 0.287D-04-0.122D-03 0.217D-03
 Coeff:      0.142D-02 0.249D-02-0.168D-01-0.408D-01-0.130D-01 0.972D-01
 Coeff:      0.328D+00 0.642D+00
 Gap=     0.087 Goal=   None    Shift=    0.000
 Gap=     0.151 Goal=   None    Shift=    0.000
 RMSDP=7.49D-06 MaxDP=4.72D-04 DE=-4.99D-07 OVMax= 1.20D-04

 Cycle  15  Pass 1  IDiag  1:
 RMSU=  3.16D-06    CP:  1.52D+00  1.77D-01  9.54D-01  4.32D-01  1.30D+00
                    CP:  3.41D-01  9.31D-01  1.75D+00  8.36D-01  1.71D+00
                    CP:  1.58D+00  7.94D-01  9.12D-01  1.23D+00
 E= -1049.03722618078     Delta-E=       -0.000000039741 Rises=F Damp=F
 DIIS: error= 4.97D-06 at cycle  15 NSaved=  15.
 NSaved=15 IEnMin=15 EnMin= -1049.03722618078     IErMin=15 ErrMin= 4.97D-06
 ErrMax= 4.97D-06  0.00D+00 EMaxC= 1.00D-01 BMatC= 2.18D-08 BMatP= 8.98D-08
 IDIUse=1 WtCom= 1.00D+00 WtEn= 0.00D+00
 Coeff-Com: -0.232D-04 0.689D-04-0.197D-04 0.245D-04-0.223D-03-0.750D-03
 Coeff-Com: -0.592D-03 0.341D-02 0.114D-01 0.113D-01-0.353D-01-0.509D-01
 Coeff-Com: -0.816D-01 0.285D+00 0.859D+00
 Coeff:     -0.232D-04 0.689D-04-0.197D-04 0.245D-04-0.223D-03-0.750D-03
 Coeff:     -0.592D-03 0.341D-02 0.114D-01 0.113D-01-0.353D-01-0.509D-01
 Coeff:     -0.816D-01 0.285D+00 0.859D+00
 Gap=     0.087 Goal=   None    Shift=    0.000
 Gap=     0.151 Goal=   None    Shift=    0.000
 RMSDP=3.70D-06 MaxDP=1.79D-04 DE=-3.97D-08 OVMax= 7.45D-05

 Cycle  16  Pass 1  IDiag  1:
 RMSU=  2.18D-06    CP:  1.52D+00  1.77D-01  9.54D-01  4.32D-01  1.30D+00
                    CP:  3.41D-01  9.31D-01  1.75D+00  8.36D-01  1.71D+00
                    CP:  1.58D+00  7.99D-01  9.41D-01  1.42D+00  1.11D+00
 E= -1049.03722619884     Delta-E=       -0.000000018060 Rises=F Damp=F
 DIIS: error= 3.70D-06 at cycle  16 NSaved=  16.
 NSaved=16 IEnMin=16 EnMin= -1049.03722619884     IErMin=16 ErrMin= 3.70D-06
 ErrMax= 3.70D-06  0.00D+00 EMaxC= 1.00D-01 BMatC= 7.40D-09 BMatP= 2.18D-08
 IDIUse=1 WtCom= 1.00D+00 WtEn= 0.00D+00
 Coeff-Com: -0.436D-04 0.549D-04 0.130D-04 0.700D-05 0.920D-04-0.156D-03
 Coeff-Com: -0.614D-03-0.356D-03 0.822D-02 0.153D-01-0.479D-02-0.417D-01
 Coeff-Com: -0.129D+00-0.747D-01 0.280D+00 0.948D+00
 Coeff:     -0.436D-04 0.549D-04 0.130D-04 0.700D-05 0.920D-04-0.156D-03
 Coeff:     -0.614D-03-0.356D-03 0.822D-02 0.153D-01-0.479D-02-0.417D-01
 Coeff:     -0.129D+00-0.747D-01 0.280D+00 0.948D+00
 Gap=     0.087 Goal=   None    Shift=    0.000
 Gap=     0.151 Goal=   None    Shift=    0.000
 RMSDP=2.59D-06 MaxDP=1.23D-04 DE=-1.81D-08 OVMax= 7.04D-05

 Cycle  17  Pass 1  IDiag  1:
 RMSU=  1.44D-06    CP:  1.52D+00  1.77D-01  9.54D-01  4.32D-01  1.30D+00
                    CP:  3.41D-01  9.31D-01  1.75D+00  8.37D-01  1.71D+00
                    CP:  1.58D+00  8.13D-01  9.56D-01  1.51D+00  1.34D+00
                    CP:  1.18D+00
 E= -1049.03722620629     Delta-E=       -0.000000007452 Rises=F Damp=F
 DIIS: error= 1.93D-06 at cycle  17 NSaved=  17.
 NSaved=17 IEnMin=17 EnMin= -1049.03722620629     IErMin=17 ErrMin= 1.93D-06
 ErrMax= 1.93D-06  0.00D+00 EMaxC= 1.00D-01 BMatC= 3.45D-09 BMatP= 7.40D-09
 IDIUse=1 WtCom= 1.00D+00 WtEn= 0.00D+00
 Coeff-Com: -0.211D-04 0.213D-04 0.121D-04-0.472D-05 0.951D-04 0.131D-03
 Coeff-Com: -0.165D-03-0.128D-02 0.250D-03 0.259D-02 0.978D-02-0.161D-02
 Coeff-Com: -0.333D-01-0.153D+00-0.210D+00 0.607D+00 0.779D+00
 Coeff:     -0.211D-04 0.213D-04 0.121D-04-0.472D-05 0.951D-04 0.131D-03
 Coeff:     -0.165D-03-0.128D-02 0.250D-03 0.259D-02 0.978D-02-0.161D-02
 Coeff:     -0.333D-01-0.153D+00-0.210D+00 0.607D+00 0.779D+00
 Gap=     0.087 Goal=   None    Shift=    0.000
 Gap=     0.151 Goal=   None    Shift=    0.000
 RMSDP=2.94D-06 MaxDP=1.78D-04 DE=-7.45D-09 OVMax= 3.93D-05

 Cycle  18  Pass 1  IDiag  1:
 RMSU=  8.32D-07    CP:  1.52D+00  1.77D-01  9.54D-01  4.32D-01  1.30D+00
                    CP:  3.41D-01  9.31D-01  1.75D+00  8.37D-01  1.71D+00
                    CP:  1.58D+00  8.08D-01  9.49D-01  1.59D+00  1.51D+00
                    CP:  1.55D+00  1.08D+00
 E= -1049.03722620858     Delta-E=       -0.000000002292 Rises=F Damp=F
 DIIS: error= 7.54D-07 at cycle  18 NSaved=  18.
 NSaved=18 IEnMin=18 EnMin= -1049.03722620858     IErMin=18 ErrMin= 7.54D-07
 ErrMax= 7.54D-07  0.00D+00 EMaxC= 1.00D-01 BMatC= 4.34D-10 BMatP= 3.45D-09
 IDIUse=1 WtCom= 1.00D+00 WtEn= 0.00D+00
 Coeff-Com: -0.136D-04 0.132D-04 0.760D-05-0.398D-05 0.659D-04 0.128D-03
 Coeff-Com:  0.847D-05-0.754D-03-0.112D-02-0.386D-03 0.616D-02 0.468D-02
 Coeff-Com: -0.339D-02-0.722D-01-0.147D+00 0.207D+00 0.390D+00 0.617D+00
 Coeff:     -0.136D-04 0.132D-04 0.760D-05-0.398D-05 0.659D-04 0.128D-03
 Coeff:      0.847D-05-0.754D-03-0.112D-02-0.386D-03 0.616D-02 0.468D-02
 Coeff:     -0.339D-02-0.722D-01-0.147D+00 0.207D+00 0.390D+00 0.617D+00
 Gap=     0.087 Goal=   None    Shift=    0.000
 Gap=     0.151 Goal=   None    Shift=    0.000
 RMSDP=1.02D-06 MaxDP=4.11D-05 DE=-2.29D-09 OVMax= 1.43D-05

 Cycle  19  Pass 1  IDiag  1:
 RMSU=  3.29D-07    CP:  1.52D+00  1.77D-01  9.54D-01  4.32D-01  1.30D+00
                    CP:  3.41D-01  9.31D-01  1.75D+00  8.36D-01  1.71D+00
                    CP:  1.58D+00  8.14D-01  9.53D-01  1.59D+00  1.53D+00
                    CP:  1.66D+00  1.19D+00  8.48D-01
 E= -1049.03722620881     Delta-E=       -0.000000000226 Rises=F Damp=F
 DIIS: error= 4.60D-07 at cycle  19 NSaved=  19.
 NSaved=19 IEnMin=19 EnMin= -1049.03722620881     IErMin=19 ErrMin= 4.60D-07
 ErrMax= 4.60D-07  0.00D+00 EMaxC= 1.00D-01 BMatC= 1.63D-10 BMatP= 4.34D-10
 IDIUse=1 WtCom= 1.00D+00 WtEn= 0.00D+00
 Coeff-Com: -0.220D-07 0.335D-07 0.148D-05-0.165D-05-0.158D-06 0.251D-04
 Coeff-Com:  0.547D-04-0.199D-04-0.772D-03-0.119D-02-0.611D-04 0.383D-02
 Coeff-Com:  0.102D-01 0.775D-02-0.268D-01-0.779D-01-0.345D-01 0.407D+00
 Coeff-Com:  0.712D+00
 Coeff:     -0.220D-07 0.335D-07 0.148D-05-0.165D-05-0.158D-06 0.251D-04
 Coeff:      0.547D-04-0.199D-04-0.772D-03-0.119D-02-0.611D-04 0.383D-02
 Coeff:      0.102D-01 0.775D-02-0.268D-01-0.779D-01-0.345D-01 0.407D+00
 Coeff:      0.712D+00
 Gap=     0.087 Goal=   None    Shift=    0.000
 Gap=     0.151 Goal=   None    Shift=    0.000
 RMSDP=5.39D-07 MaxDP=2.66D-05 DE=-2.26D-10 OVMax= 6.87D-06

 Cycle  20  Pass 1  IDiag  1:
 RMSU=  1.77D-07    CP:  1.52D+00  1.77D-01  9.54D-01  4.32D-01  1.30D+00
                    CP:  3.41D-01  9.31D-01  1.75D+00  8.36D-01  1.71D+00
                    CP:  1.58D+00  8.14D-01  9.55D-01  1.59D+00  1.54D+00
                    CP:  1.74D+00  1.22D+00  1.01D+00  1.19D+00
 E= -1049.03722620888     Delta-E=       -0.000000000075 Rises=F Damp=F
 DIIS: error= 7.64D-08 at cycle  20 NSaved=  20.
 NSaved=20 IEnMin=20 EnMin= -1049.03722620888     IErMin=20 ErrMin= 7.64D-08
 ErrMax= 7.64D-08  0.00D+00 EMaxC= 1.00D-01 BMatC= 8.60D-12 BMatP= 1.63D-10
 IDIUse=1 WtCom= 1.00D+00 WtEn= 0.00D+00
 Coeff-Com:  0.133D-05-0.115D-05-0.468D-06-0.733D-07-0.542D-05-0.298D-05
 Coeff-Com:  0.220D-04 0.694D-04-0.847D-04-0.303D-03-0.730D-03 0.512D-03
 Coeff-Com:  0.330D-02 0.102D-01 0.107D-01-0.424D-01-0.639D-01 0.284D-01
 Coeff-Com:  0.210D+00 0.845D+00
 Coeff:      0.133D-05-0.115D-05-0.468D-06-0.733D-07-0.542D-05-0.298D-05
 Coeff:      0.220D-04 0.694D-04-0.847D-04-0.303D-03-0.730D-03 0.512D-03
 Coeff:      0.330D-02 0.102D-01 0.107D-01-0.424D-01-0.639D-01 0.284D-01
 Coeff:      0.210D+00 0.845D+00
 Gap=     0.087 Goal=   None    Shift=    0.000
 Gap=     0.151 Goal=   None    Shift=    0.000
 RMSDP=2.79D-07 MaxDP=1.61D-05 DE=-7.55D-11 OVMax= 1.96D-06

 Cycle  21  Pass 1  IDiag  1:
 Restarting incremental Fock formation.
 E= -1049.03722620889     Delta-E=       -0.000000000004 Rises=F Damp=F
 DIIS: error= 4.10D-08 at cycle  21 NSaved=  20.
 NSaved=20 IEnMin=20 EnMin= -1049.03722620889     IErMin=20 ErrMin= 4.10D-08
 ErrMax= 4.10D-08  0.00D+00 EMaxC= 1.00D-01 BMatC= 1.11D-12 BMatP= 8.60D-12
 IDIUse=1 WtCom= 1.00D+00 WtEn= 0.00D+00
 Coeff-Com:  0.155D-06-0.289D-06 0.890D-07-0.272D-06-0.108D-05 0.348D-05
 Coeff-Com:  0.209D-04 0.464D-04 0.912D-05-0.209D-03-0.166D-03 0.164D-03
 Coeff-Com:  0.213D-02 0.527D-02-0.450D-02-0.188D-01-0.246D-01 0.139D-01
 Coeff-Com:  0.253D+00 0.774D+00
 Coeff:      0.155D-06-0.289D-06 0.890D-07-0.272D-06-0.108D-05 0.348D-05
 Coeff:      0.209D-04 0.464D-04 0.912D-05-0.209D-03-0.166D-03 0.164D-03
 Coeff:      0.213D-02 0.527D-02-0.450D-02-0.188D-01-0.246D-01 0.139D-01
 Coeff:      0.253D+00 0.774D+00
 Gap=     0.087 Goal=   None    Shift=    0.000
 Gap=     0.151 Goal=   None    Shift=    0.000
 RMSDP=3.84D-08 MaxDP=4.19D-06 DE=-3.64D-12 OVMax= 5.41D-07

 Cycle  22  Pass 1  IDiag  1:
 RMSU=  3.36D-08    CP:  1.00D+00
 E= -1049.03722620890     Delta-E=       -0.000000000009 Rises=F Damp=F
 DIIS: error= 1.52D-08 at cycle  22 NSaved=  20.
 NSaved=20 IEnMin=20 EnMin= -1049.03722620890     IErMin=20 ErrMin= 1.52D-08
 ErrMax= 1.52D-08  0.00D+00 EMaxC= 1.00D-01 BMatC= 2.98D-13 BMatP= 1.11D-12
 IDIUse=1 WtCom= 1.00D+00 WtEn= 0.00D+00
 Coeff-Com: -0.114D-06 0.780D-07 0.478D-07-0.519D-06-0.211D-05 0.533D-06
 Coeff-Com:  0.371D-04 0.450D-04-0.123D-04-0.137D-03-0.361D-03-0.374D-03
 Coeff-Com:  0.980D-03 0.416D-02-0.120D-02-0.166D-01-0.230D-01-0.356D-02
 Coeff-Com:  0.388D+00 0.652D+00
 Coeff:     -0.114D-06 0.780D-07 0.478D-07-0.519D-06-0.211D-05 0.533D-06
 Coeff:      0.371D-04 0.450D-04-0.123D-04-0.137D-03-0.361D-03-0.374D-03
 Coeff:      0.980D-03 0.416D-02-0.120D-02-0.166D-01-0.230D-01-0.356D-02
 Coeff:      0.388D+00 0.652D+00
 Gap=     0.087 Goal=   None    Shift=    0.000
 Gap=     0.151 Goal=   None    Shift=    0.000
 RMSDP=3.00D-08 MaxDP=1.34D-06 DE=-8.64D-12 OVMax= 2.05D-07

 Cycle  23  Pass 1  IDiag  1:
 RMSU=  2.26D-08    CP:  1.00D+00  1.18D+00
 E= -1049.03722620889     Delta-E=        0.000000000008 Rises=F Damp=F
 DIIS: error= 5.19D-09 at cycle  23 NSaved=  20.
 NSaved=20 IEnMin=19 EnMin= -1049.03722620890     IErMin=20 ErrMin= 5.19D-09
 ErrMax= 5.19D-09  0.00D+00 EMaxC= 1.00D-01 BMatC= 3.12D-14 BMatP= 2.98D-13
 IDIUse=1 WtCom= 1.00D+00 WtEn= 0.00D+00
 Coeff-Com:  0.295D-07-0.107D-06-0.159D-06-0.137D-05-0.304D-05 0.642D-05
 Coeff-Com:  0.156D-04 0.248D-04-0.772D-05-0.159D-03-0.485D-03-0.704D-03
 Coeff-Com:  0.237D-02 0.287D-02-0.639D-03-0.100D-01-0.487D-01-0.412D-01
 Coeff-Com:  0.203D+00 0.894D+00
 Coeff:      0.295D-07-0.107D-06-0.159D-06-0.137D-05-0.304D-05 0.642D-05
 Coeff:      0.156D-04 0.248D-04-0.772D-05-0.159D-03-0.485D-03-0.704D-03
 Coeff:      0.237D-02 0.287D-02-0.639D-03-0.100D-01-0.487D-01-0.412D-01
 Coeff:      0.203D+00 0.894D+00
 Gap=     0.087 Goal=   None    Shift=    0.000
 Gap=     0.151 Goal=   None    Shift=    0.000
 RMSDP=1.13D-08 MaxDP=5.20D-07 DE= 7.73D-12 OVMax= 8.56D-08

 Cycle  24  Pass 1  IDiag  1:
 RMSU=  7.77D-09    CP:  1.00D+00  1.13D+00  7.61D-01
 E= -1049.03722620890     Delta-E=       -0.000000000008 Rises=F Damp=F
 DIIS: error= 1.60D-09 at cycle  24 NSaved=  20.
 NSaved=20 IEnMin=18 EnMin= -1049.03722620890     IErMin=20 ErrMin= 1.60D-09
 ErrMax= 1.60D-09  0.00D+00 EMaxC= 1.00D-01 BMatC= 4.32D-15 BMatP= 3.12D-14
 IDIUse=1 WtCom= 1.00D+00 WtEn= 0.00D+00
 Coeff-Com: -0.768D-07 0.540D-08-0.259D-06-0.109D-05-0.124D-05 0.163D-05
 Coeff-Com:  0.864D-05 0.112D-04-0.241D-04-0.137D-03-0.363D-03 0.500D-03
 Coeff-Com:  0.118D-02 0.138D-02-0.172D-02-0.185D-01-0.569D-01 0.171D-01
 Coeff-Com:  0.382D+00 0.676D+00
 Coeff:     -0.768D-07 0.540D-08-0.259D-06-0.109D-05-0.124D-05 0.163D-05
 Coeff:      0.864D-05 0.112D-04-0.241D-04-0.137D-03-0.363D-03 0.500D-03
 Coeff:      0.118D-02 0.138D-02-0.172D-02-0.185D-01-0.569D-01 0.171D-01
 Coeff:      0.382D+00 0.676D+00
 Gap=     0.087 Goal=   None    Shift=    0.000
 Gap=     0.151 Goal=   None    Shift=    0.000
 RMSDP=4.38D-09 MaxDP=2.22D-07 DE=-7.73D-12 OVMax= 2.24D-08

 SCF Done:  E(UB3LYP) =  -1049.03722621     A.U. after   24 cycles
            NFock= 24  Conv=0.44D-08     -V/T= 2.0031
 <Sx>= 0.0000 <Sy>= 0.0000 <Sz>= 0.5000 <S**2>= 0.7582 S= 0.5041
 <L.S>=  0.00000000000    
 KE= 1.045817738742D+03 PE=-4.750112313767D+03 EE= 1.520363977347D+03
 Annihilation of the first spin contaminant:
 S**2 before annihilation     0.7582,   after     0.7501
 Leave Link  502 at Tue Jan  9 20:32:15 2024, MaxMem=  4026531840 cpu:            2401.9 elap:             301.9
 (Enter /sysapps/ubuntu-applications/gaussian/Gaussian/AVX2/g16/l601.exe)
 Copying SCF densities to generalized density rwf, IOpCl= 1 IROHF=0.

 **********************************************************************

            Population analysis using the SCF density.

 **********************************************************************

 Alpha  occ. eigenvalues --  -88.81870 -18.94679 -18.93679 -10.08677 -10.07484
 Alpha  occ. eigenvalues --  -10.07484 -10.06758 -10.06758 -10.06268 -10.06268
 Alpha  occ. eigenvalues --  -10.06061 -10.06061 -10.05798 -10.05797 -10.05203
 Alpha  occ. eigenvalues --  -10.05203  -7.89451  -5.85704  -5.85620  -5.85063
 Alpha  occ. eigenvalues --   -0.87159  -0.86063  -0.74774  -0.73962  -0.67083
 Alpha  occ. eigenvalues --   -0.64487  -0.63753  -0.62790  -0.57310  -0.52869
 Alpha  occ. eigenvalues --   -0.50215  -0.47816  -0.46427  -0.42900  -0.41354
 Alpha  occ. eigenvalues --   -0.36997  -0.35098  -0.34954  -0.34337  -0.31889
 Alpha  occ. eigenvalues --   -0.31322  -0.29985  -0.29881  -0.29102  -0.27755
 Alpha  occ. eigenvalues --   -0.26341  -0.25584  -0.25023  -0.23869  -0.23229
 Alpha  occ. eigenvalues --   -0.22736  -0.22123  -0.15320  -0.15231  -0.13991
 Alpha  occ. eigenvalues --   -0.13848  -0.12926  -0.10673  -0.10299  -0.00744
 Alpha virt. eigenvalues --    0.07927   0.08100   0.08170   0.08853   0.09696
 Alpha virt. eigenvalues --    0.10044   0.10531   0.11035   0.12142   0.12812
 Alpha virt. eigenvalues --    0.14078   0.14577   0.15488   0.15738   0.15808
 Alpha virt. eigenvalues --    0.16206   0.16587   0.17347   0.18018   0.18916
 Alpha virt. eigenvalues --    0.18957   0.19028   0.19456   0.19900   0.20345
 Alpha virt. eigenvalues --    0.20371   0.21135   0.21215   0.21602   0.21882
 Alpha virt. eigenvalues --    0.22404   0.22589   0.23033   0.23261   0.23398
 Alpha virt. eigenvalues --    0.23858   0.24453   0.24917   0.24924   0.25677
 Alpha virt. eigenvalues --    0.25929   0.26434   0.26993   0.27343   0.28072
 Alpha virt. eigenvalues --    0.28404   0.28593   0.28915   0.29942   0.30345
 Alpha virt. eigenvalues --    0.30895   0.31224   0.31604   0.32226   0.33048
 Alpha virt. eigenvalues --    0.33464   0.33539   0.33585   0.34087   0.34762
 Alpha virt. eigenvalues --    0.35148   0.35868   0.36293   0.36556   0.37514
 Alpha virt. eigenvalues --    0.37897   0.38102   0.38633   0.38676   0.39724
 Alpha virt. eigenvalues --    0.40110   0.40247   0.40582   0.40996   0.41656
 Alpha virt. eigenvalues --    0.41895   0.43422   0.43611   0.43704   0.43948
 Alpha virt. eigenvalues --    0.44106   0.45273   0.45276   0.45909   0.46540
 Alpha virt. eigenvalues --    0.46605   0.48285   0.48663   0.49154   0.50533
 Alpha virt. eigenvalues --    0.51558   0.51582   0.52868   0.53214   0.54995
 Alpha virt. eigenvalues --    0.55943   0.58702   0.59484   0.60640   0.61496
 Alpha virt. eigenvalues --    0.63128   0.63695   0.65334   0.65374   0.66354
 Alpha virt. eigenvalues --    0.66878   0.66932   0.67642   0.68034   0.68638
 Alpha virt. eigenvalues --    0.70250   0.70549   0.71585   0.71896   0.72622
 Alpha virt. eigenvalues --    0.74081   0.75087   0.75630   0.76193   0.76831
 Alpha virt. eigenvalues --    0.77818   0.78217   0.78608   0.80310   0.81511
 Alpha virt. eigenvalues --    0.82406   0.82745   0.82954   0.83050   0.85012
 Alpha virt. eigenvalues --    0.85525   0.86785   0.87933   0.88181   0.88720
 Alpha virt. eigenvalues --    0.90883   0.91200   0.94467   0.95108   0.95848
 Alpha virt. eigenvalues --    0.96299   0.96509   0.96790   0.97935   0.98683
 Alpha virt. eigenvalues --    0.98754   1.01156   1.01794   1.02825   1.03235
 Alpha virt. eigenvalues --    1.03995   1.04822   1.04936   1.05274   1.07783
 Alpha virt. eigenvalues --    1.09089   1.09245   1.11267   1.11310   1.12858
 Alpha virt. eigenvalues --    1.13821   1.14579   1.14872   1.16145   1.16672
 Alpha virt. eigenvalues --    1.17354   1.19591   1.20915   1.21987   1.23455
 Alpha virt. eigenvalues --    1.24356   1.26566   1.27424   1.28701   1.31497
 Alpha virt. eigenvalues --    1.32706   1.36386   1.36604   1.38126   1.39664
 Alpha virt. eigenvalues --    1.39814   1.41968   1.43610   1.45240   1.46240
 Alpha virt. eigenvalues --    1.48226   1.53264   1.53294   1.59187   1.61895
 Alpha virt. eigenvalues --    1.62652   1.64022   1.64519   1.65117   1.65651
 Alpha virt. eigenvalues --    1.66393   1.67980   1.68055   1.69413   1.72116
 Alpha virt. eigenvalues --    1.72744   1.73582   1.73897   1.76734   1.77452
 Alpha virt. eigenvalues --    1.77727   1.78219   1.81483   1.84732   1.85432
 Alpha virt. eigenvalues --    1.85604   1.87413   1.87713   1.89925   1.91138
 Alpha virt. eigenvalues --    1.93069   1.94514   1.96651   1.98288   1.98946
 Alpha virt. eigenvalues --    2.00405   2.01601   2.03350   2.04656   2.05355
 Alpha virt. eigenvalues --    2.05661   2.06624   2.08105   2.08146   2.09510
 Alpha virt. eigenvalues --    2.09824   2.11886   2.13024   2.13911   2.14674
 Alpha virt. eigenvalues --    2.16674   2.17352   2.18792   2.19767   2.23401
 Alpha virt. eigenvalues --    2.23507   2.25429   2.28094   2.36175   2.39226
 Alpha virt. eigenvalues --    2.39835   2.43314   2.46379   2.46902   2.48861
 Alpha virt. eigenvalues --    2.50541   2.50940   2.55997   2.57745   2.57877
 Alpha virt. eigenvalues --    2.61984   2.69145   2.69391   2.72150   2.73051
 Alpha virt. eigenvalues --    2.78429   2.78598   2.81369   2.81823   2.83396
 Alpha virt. eigenvalues --    2.84023   2.84361   2.85746   2.86624   2.86681
 Alpha virt. eigenvalues --    2.87822   2.89867   2.90324   2.91077   2.92391
 Alpha virt. eigenvalues --    2.93846   2.94279   2.95564   2.98021   2.98503
 Alpha virt. eigenvalues --    2.99595   3.00032   3.00943   3.02514   3.03628
 Alpha virt. eigenvalues --    3.03897   3.04322   3.10215   3.11060   3.13018
 Alpha virt. eigenvalues --    3.13602   3.14594   3.22481   3.22772   3.30848
 Alpha virt. eigenvalues --    3.31660   3.32988   3.36147   3.40770   3.42980
 Alpha virt. eigenvalues --    3.45798   3.47088   3.47990   3.51477   3.53723
 Alpha virt. eigenvalues --    3.62859   3.64178   3.65365   3.67258   3.67470
 Alpha virt. eigenvalues --    3.67614   3.71139   3.78582   3.90069   3.98653
 Alpha virt. eigenvalues --    4.00266   4.15374   4.15525   4.20150   4.20912
 Alpha virt. eigenvalues --    4.27967   4.28769   4.41760   4.69224   4.94596
 Alpha virt. eigenvalues --    4.96001   5.22466   5.22682   5.29196   5.31706
 Alpha virt. eigenvalues --    5.41637   5.92258   8.21565  17.51951  17.63775
 Alpha virt. eigenvalues --   17.64168  23.64470  23.75093  24.03344  24.04181
 Alpha virt. eigenvalues --   24.04998  24.07565  24.08252  24.13447  24.14124
 Alpha virt. eigenvalues --   24.22038  24.22231  24.29560  24.29847  50.06627
 Alpha virt. eigenvalues --   50.19819 189.36372
  Beta  occ. eigenvalues --  -88.81873 -18.94579 -18.92948 -10.08433 -10.07345
  Beta  occ. eigenvalues --  -10.07345 -10.06825 -10.06825 -10.06286 -10.06286
  Beta  occ. eigenvalues --  -10.05891 -10.05891 -10.05739 -10.05738 -10.05124
  Beta  occ. eigenvalues --  -10.05123  -7.89450  -5.85707  -5.85623  -5.85069
  Beta  occ. eigenvalues --   -0.86876  -0.84792  -0.74509  -0.73794  -0.66766
  Beta  occ. eigenvalues --   -0.64118  -0.63603  -0.62523  -0.56984  -0.52468
  Beta  occ. eigenvalues --   -0.49913  -0.47725  -0.46194  -0.42633  -0.41219
  Beta  occ. eigenvalues --   -0.36761  -0.34981  -0.34752  -0.34244  -0.31772
  Beta  occ. eigenvalues --   -0.31276  -0.29712  -0.29700  -0.28265  -0.27391
  Beta  occ. eigenvalues --   -0.26053  -0.25170  -0.24229  -0.23784  -0.23044
  Beta  occ. eigenvalues --   -0.22126  -0.20724  -0.15021  -0.14540  -0.13424
  Beta  occ. eigenvalues --   -0.12465  -0.11739  -0.10190  -0.10001
  Beta virt. eigenvalues --    0.05104   0.07974   0.08094   0.08393   0.09684
  Beta virt. eigenvalues --    0.10006   0.10109   0.10867   0.11038   0.12138
  Beta virt. eigenvalues --    0.12804   0.14229   0.14569   0.15521   0.15839
  Beta virt. eigenvalues --    0.15858   0.16426   0.17274   0.17773   0.18038
  Beta virt. eigenvalues --    0.18971   0.19072   0.19222   0.19482   0.19910
  Beta virt. eigenvalues --    0.20351   0.20367   0.21138   0.21263   0.21658
  Beta virt. eigenvalues --    0.22307   0.22668   0.22767   0.23286   0.23389
  Beta virt. eigenvalues --    0.23469   0.23913   0.24567   0.24966   0.24990
  Beta virt. eigenvalues --    0.25698   0.25962   0.26450   0.27018   0.27379
  Beta virt. eigenvalues --    0.28163   0.28551   0.28844   0.29032   0.30043
  Beta virt. eigenvalues --    0.30332   0.31057   0.31256   0.31681   0.32500
  Beta virt. eigenvalues --    0.33106   0.33543   0.33597   0.33683   0.34104
  Beta virt. eigenvalues --    0.34972   0.35147   0.35959   0.36297   0.36550
  Beta virt. eigenvalues --    0.37820   0.37932   0.38162   0.38661   0.38805
  Beta virt. eigenvalues --    0.39807   0.40202   0.40308   0.40633   0.41215
  Beta virt. eigenvalues --    0.41839   0.41956   0.43480   0.43760   0.43786
  Beta virt. eigenvalues --    0.44116   0.44505   0.45337   0.45426   0.45993
  Beta virt. eigenvalues --    0.46569   0.46708   0.48379   0.48763   0.49296
  Beta virt. eigenvalues --    0.50618   0.51622   0.51702   0.52948   0.53472
  Beta virt. eigenvalues --    0.55088   0.56073   0.58817   0.59601   0.60871
  Beta virt. eigenvalues --    0.61628   0.63255   0.63823   0.65511   0.65514
  Beta virt. eigenvalues --    0.66364   0.67065   0.67097   0.67768   0.68159
  Beta virt. eigenvalues --    0.68826   0.70422   0.70843   0.71911   0.72257
  Beta virt. eigenvalues --    0.72867   0.74184   0.75246   0.75707   0.76405
  Beta virt. eigenvalues --    0.77221   0.78141   0.78430   0.78653   0.80495
  Beta virt. eigenvalues --    0.81805   0.82469   0.82831   0.83129   0.83216
  Beta virt. eigenvalues --    0.85139   0.85605   0.86874   0.88071   0.88388
  Beta virt. eigenvalues --    0.88790   0.91003   0.91362   0.94558   0.95278
  Beta virt. eigenvalues --    0.95995   0.96358   0.96635   0.96840   0.98046
  Beta virt. eigenvalues --    0.98769   0.98900   1.01257   1.01925   1.03009
  Beta virt. eigenvalues --    1.03309   1.04108   1.04948   1.05329   1.05502
  Beta virt. eigenvalues --    1.08112   1.09254   1.09348   1.11536   1.11723
  Beta virt. eigenvalues --    1.13075   1.13965   1.14744   1.15062   1.16370
  Beta virt. eigenvalues --    1.16860   1.17596   1.19792   1.21076   1.22392
  Beta virt. eigenvalues --    1.23599   1.24611   1.26876   1.27946   1.29212
  Beta virt. eigenvalues --    1.31635   1.33111   1.36820   1.37251   1.38505
  Beta virt. eigenvalues --    1.40125   1.40135   1.42310   1.43823   1.45358
  Beta virt. eigenvalues --    1.46502   1.48553   1.53484   1.53562   1.59253
  Beta virt. eigenvalues --    1.61956   1.62856   1.64154   1.64731   1.65366
  Beta virt. eigenvalues --    1.65887   1.66508   1.68138   1.68195   1.69633
  Beta virt. eigenvalues --    1.72391   1.72950   1.73878   1.74241   1.76880
  Beta virt. eigenvalues --    1.77630   1.77926   1.78245   1.81670   1.84963
  Beta virt. eigenvalues --    1.85537   1.85714   1.87714   1.87885   1.90074
  Beta virt. eigenvalues --    1.91278   1.93287   1.94761   1.96807   1.98459
  Beta virt. eigenvalues --    1.99148   2.00604   2.01936   2.03694   2.04906
  Beta virt. eigenvalues --    2.05560   2.05903   2.06702   2.08167   2.08322
  Beta virt. eigenvalues --    2.09722   2.10222   2.12301   2.13301   2.13952
  Beta virt. eigenvalues --    2.14803   2.16869   2.17595   2.18966   2.19960
  Beta virt. eigenvalues --    2.23665   2.23670   2.25695   2.28274   2.36472
  Beta virt. eigenvalues --    2.39522   2.40156   2.43780   2.46751   2.47006
  Beta virt. eigenvalues --    2.49244   2.50630   2.51071   2.56057   2.57773
  Beta virt. eigenvalues --    2.57924   2.62060   2.69202   2.69463   2.72273
  Beta virt. eigenvalues --    2.73200   2.78758   2.79029   2.81424   2.81860
  Beta virt. eigenvalues --    2.83481   2.84174   2.84379   2.86160   2.86652
  Beta virt. eigenvalues --    2.86958   2.87890   2.89915   2.90429   2.91194
  Beta virt. eigenvalues --    2.92956   2.94038   2.94361   2.95666   2.98739
  Beta virt. eigenvalues --    2.98757   2.99675   3.00278   3.01240   3.03174
  Beta virt. eigenvalues --    3.03762   3.04109   3.05233   3.11433   3.11765
  Beta virt. eigenvalues --    3.14087   3.14098   3.14952   3.22855   3.23283
  Beta virt. eigenvalues --    3.31065   3.31821   3.33052   3.36460   3.40975
  Beta virt. eigenvalues --    3.43102   3.45862   3.47508   3.49630   3.51579
  Beta virt. eigenvalues --    3.53815   3.63037   3.64435   3.65476   3.67421
  Beta virt. eigenvalues --    3.67545   3.67838   3.71390   3.78739   3.90295
  Beta virt. eigenvalues --    3.98723   4.00602   4.15517   4.15682   4.20283
  Beta virt. eigenvalues --    4.21076   4.28106   4.28936   4.42153   4.69725
  Beta virt. eigenvalues --    4.94768   4.96175   5.22593   5.25682   5.29260
  Beta virt. eigenvalues --    5.32069   5.42242   5.92894   8.21594  17.51946
  Beta virt. eigenvalues --   17.63782  17.64171  23.64556  23.75173  24.03426
  Beta virt. eigenvalues --   24.04255  24.05195  24.07714  24.08335  24.13559
  Beta virt. eigenvalues --   24.14238  24.22075  24.22267  24.29611  24.29898
  Beta virt. eigenvalues --   50.06730  50.20552 189.36372
          Condensed to atoms (all electrons):
               1          2          3          4          5          6
     1  O    8.344212   0.776577  -0.459058   0.279013   0.162597  -0.016461
     2  C    0.776577  23.245337   6.094583   0.177793  -5.641010   2.435305
     3  C   -0.459058   6.094583  39.767493  -1.143507  -5.225719   4.623177
     4  C    0.279013   0.177793  -1.143507  13.926193  -2.992768   0.401436
     5  C    0.162597  -5.641010  -5.225719  -2.992768  19.003781  -6.523953
     6  C   -0.016461   2.435305   4.623177   0.401436  -6.523953  14.195832
     7  C   -0.033083  -2.093137  -7.945846   3.063576   0.948586  -2.059744
     8  C   -0.292653  -8.012476  -4.516131  -4.737199  11.064686  -8.426436
     9  S   -0.024684  -3.555707  -6.322433   0.100727   0.631187  -0.638373
    10  O    0.000981  -0.195612  -0.338749   0.024468   0.050097  -0.129212
    11  C   -0.292760  -8.018223  -9.727795  -1.472140   0.199856  -0.877634
    12  C   -0.033092  -2.093783  -2.207974  -0.617491  -0.065761   0.197119
    13  C   -0.016449   2.435761   2.098755   0.332122   0.246117  -0.230203
    14  C    0.162479  -5.642289  -4.501869  -0.667611  -0.471008   0.246112
    15  C    0.279034   0.177197  -0.006793  -1.190166  -0.667532   0.332012
    16  C   -0.458940   6.091982  -5.857025  -0.007080  -4.501957   2.098423
    17  H   -0.000629  -0.020965  -0.120446   0.454553  -0.069856  -0.034612
    18  H    0.002649  -0.074305  -0.129299  -0.198368   0.773086  -0.291264
    19  H   -0.000502   0.029840   0.094062   0.096648  -0.287786   0.826914
    20  H    0.000704   0.080174   0.269135   0.041176  -0.092787  -0.034920
    21  H    0.000704   0.080262   0.097412   0.007800   0.013208  -0.019637
    22  H   -0.000503   0.029809   0.024582   0.003885   0.002093  -0.001835
    23  H    0.002648  -0.074292  -0.055086  -0.007637  -0.004396   0.002240
    24  H   -0.000631  -0.021024  -0.048678  -0.027772  -0.005775   0.003562
               7          8          9         10         11         12
     1  O   -0.033083  -0.292653  -0.024684   0.000981  -0.292760  -0.033092
     2  C   -2.093137  -8.012476  -3.555707  -0.195612  -8.018223  -2.093783
     3  C   -7.945846  -4.516131  -6.322433  -0.338749  -9.727795  -2.207974
     4  C    3.063576  -4.737199   0.100727   0.024468  -1.472140  -0.617491
     5  C    0.948586  11.064686   0.631187   0.050097   0.199856  -0.065761
     6  C   -2.059744  -8.426436  -0.638373  -0.129212  -0.877634   0.197119
     7  C   14.048871  -1.746818   3.796109   0.017422   0.561742   0.242776
     8  C   -1.746818  31.111457   0.352956   0.187533   3.627819   0.562192
     9  S    3.796109   0.352956  23.944748   0.490006   0.354433   3.796813
    10  O    0.017422   0.187533   0.490006   8.476190   0.187686   0.017403
    11  C    0.561742   3.627819   0.354433   0.187686  31.124814  -1.745978
    12  C    0.242776   0.562192   3.796813   0.017403  -1.745978  14.050562
    13  C    0.196932  -0.878081  -0.639714  -0.129199  -8.428225  -2.061293
    14  C   -0.065442   0.200730   0.633510   0.050152  11.065682   0.949950
    15  C   -0.617329  -1.471200   0.100416   0.024390  -4.736387   3.063481
    16  C   -2.207050  -9.722704  -6.321962  -0.338710  -4.519129  -7.947276
    17  H    0.067695   0.099621   0.020804   0.000960   0.009037  -0.001873
    18  H    0.067665   0.210440  -0.001750   0.000117  -0.000120  -0.001654
    19  H   -0.202976  -0.300483   0.017944  -0.002170  -0.018674   0.007092
    20  H    0.267660  -0.109786  -0.173527  -0.002050  -0.033886  -0.039871
    21  H   -0.039889  -0.033932  -0.173682  -0.002050  -0.109942   0.267627
    22  H    0.007082  -0.018659   0.017886  -0.002172  -0.300328  -0.203203
    23  H   -0.001650  -0.000112  -0.001717   0.000118   0.210415   0.067744
    24  H   -0.001878   0.009020   0.020776   0.000958   0.099736   0.067666
              13         14         15         16         17         18
     1  O   -0.016449   0.162479   0.279034  -0.458940  -0.000629   0.002649
     2  C    2.435761  -5.642289   0.177197   6.091982  -0.020965  -0.074305
     3  C    2.098755  -4.501869  -0.006793  -5.857025  -0.120446  -0.129299
     4  C    0.332122  -0.667611  -1.190166  -0.007080   0.454553  -0.198368
     5  C    0.246117  -0.471008  -0.667532  -4.501957  -0.069856   0.773086
     6  C   -0.230203   0.246112   0.332012   2.098423  -0.034612  -0.291264
     7  C    0.196932  -0.065442  -0.617329  -2.207050   0.067695   0.067665
     8  C   -0.878081   0.200730  -1.471200  -9.722704   0.099621   0.210440
     9  S   -0.639714   0.633510   0.100416  -6.321962   0.020804  -0.001750
    10  O   -0.129199   0.050152   0.024390  -0.338710   0.000960   0.000117
    11  C   -8.428225  11.065682  -4.736387  -4.519129   0.009037  -0.000120
    12  C   -2.061293   0.949950   3.063481  -7.947276  -0.001873  -0.001654
    13  C   14.196678  -6.522212   0.400087   4.626366   0.003562   0.002240
    14  C   -6.522212  18.997501  -2.989847  -5.228914  -0.005768  -0.004396
    15  C    0.400087  -2.989847  13.923996  -1.143911  -0.027759  -0.007635
    16  C    4.626366  -5.228914  -1.143911  39.768522  -0.048602  -0.055098
    17  H    0.003562  -0.005768  -0.027759  -0.048602   0.508120  -0.012948
    18  H    0.002240  -0.004396  -0.007635  -0.055098  -0.012948   0.634051
    19  H   -0.001835   0.002093   0.003884   0.024595  -0.001119  -0.034254
    20  H   -0.019630   0.013194   0.007802   0.097325   0.000815  -0.000149
    21  H   -0.034893  -0.092882   0.041235   0.269347  -0.000165   0.000146
    22  H    0.826910  -0.287511   0.096532   0.094099   0.000050   0.000009
    23  H   -0.291263   0.772889  -0.198204  -0.129395  -0.000241  -0.000029
    24  H   -0.034675  -0.069725   0.454482  -0.120329  -0.001325  -0.000241
              19         20         21         22         23         24
     1  O   -0.000502   0.000704   0.000704  -0.000503   0.002648  -0.000631
     2  C    0.029840   0.080174   0.080262   0.029809  -0.074292  -0.021024
     3  C    0.094062   0.269135   0.097412   0.024582  -0.055086  -0.048678
     4  C    0.096648   0.041176   0.007800   0.003885  -0.007637  -0.027772
     5  C   -0.287786  -0.092787   0.013208   0.002093  -0.004396  -0.005775
     6  C    0.826914  -0.034920  -0.019637  -0.001835   0.002240   0.003562
     7  C   -0.202976   0.267660  -0.039889   0.007082  -0.001650  -0.001878
     8  C   -0.300483  -0.109786  -0.033932  -0.018659  -0.000112   0.009020
     9  S    0.017944  -0.173527  -0.173682   0.017886  -0.001717   0.020776
    10  O   -0.002170  -0.002050  -0.002050  -0.002172   0.000118   0.000958
    11  C   -0.018674  -0.033886  -0.109942  -0.300328   0.210415   0.099736
    12  C    0.007092  -0.039871   0.267627  -0.203203   0.067744   0.067666
    13  C   -0.001835  -0.019630  -0.034893   0.826910  -0.291263  -0.034675
    14  C    0.002093   0.013194  -0.092882  -0.287511   0.772889  -0.069725
    15  C    0.003884   0.007802   0.041235   0.096532  -0.198204   0.454482
    16  C    0.024595   0.097325   0.269347   0.094099  -0.129395  -0.120329
    17  H   -0.001119   0.000815  -0.000165   0.000050  -0.000241  -0.001325
    18  H   -0.034254  -0.000149   0.000146   0.000009  -0.000029  -0.000241
    19  H    0.651082  -0.027890  -0.000496   0.000016   0.000009   0.000049
    20  H   -0.027890   0.614091   0.001175  -0.000496   0.000146  -0.000165
    21  H   -0.000496   0.001175   0.614113  -0.027889  -0.000150   0.000816
    22  H    0.000016  -0.000496  -0.027889   0.651056  -0.034248  -0.001123
    23  H    0.000009   0.000146  -0.000150  -0.034248   0.634046  -0.012942
    24  H    0.000049  -0.000165   0.000816  -0.001123  -0.012942   0.508138
          Atomic-Atomic Spin Densities.
               1          2          3          4          5          6
     1  O    0.389129  -0.097311  -0.035944   0.023565  -0.001325  -0.004418
     2  C   -0.097311   0.063158   0.096833   0.008376  -0.016767   0.012658
     3  C   -0.035944   0.096833  -0.207657   0.078043   0.024731   0.044114
     4  C    0.023565   0.008376   0.078043  -0.100517   0.023067  -0.008027
     5  C   -0.001325  -0.016767   0.024731   0.023067  -0.010706  -0.040361
     6  C   -0.004418   0.012658   0.044114  -0.008027  -0.040361   0.206286
     7  C    0.001647   0.018669   0.110608  -0.067648  -0.058163  -0.033855
     8  C    0.006370  -0.002026  -0.236915   0.065563   0.045336   0.015525
     9  S    0.014822  -0.037549  -0.052132   0.079400   0.010331  -0.072778
    10  O    0.000063  -0.016868   0.022153   0.014135  -0.000689  -0.009131
    11  C    0.006386  -0.002013  -0.008274  -0.024493   0.007946   0.018649
    12  C    0.001639   0.018658   0.016339   0.026679   0.002971  -0.003458
    13  C   -0.004425   0.012731   0.010432  -0.009438  -0.001091   0.003241
    14  C   -0.001312  -0.016818  -0.005234   0.010996   0.000295  -0.001096
    15  C    0.023526   0.008344  -0.061523   0.055489   0.010964  -0.009414
    16  C   -0.035875   0.096826   0.205008  -0.061379  -0.005232   0.010403
    17  H   -0.004041  -0.003150   0.011088  -0.006318  -0.003339  -0.000531
    18  H   -0.000050   0.000243   0.003259  -0.002496  -0.000189   0.001691
    19  H    0.000015  -0.000013  -0.004008   0.001464   0.001989  -0.004804
    20  H   -0.000246   0.003108   0.008394  -0.008078  -0.002708   0.009466
    21  H   -0.000246   0.003117  -0.000446  -0.001433   0.000060   0.000828
    22  H    0.000015  -0.000013   0.000012   0.000000   0.000006  -0.000020
    23  H   -0.000050   0.000243   0.000010  -0.000002   0.000043   0.000019
    24  H   -0.004045  -0.003145  -0.006636   0.000406  -0.000011  -0.000179
               7          8          9         10         11         12
     1  O    0.001647   0.006370   0.014822   0.000063   0.006386   0.001639
     2  C    0.018669  -0.002026  -0.037549  -0.016868  -0.002013   0.018658
     3  C    0.110608  -0.236915  -0.052132   0.022153  -0.008274   0.016339
     4  C   -0.067648   0.065563   0.079400   0.014135  -0.024493   0.026679
     5  C   -0.058163   0.045336   0.010331  -0.000689   0.007946   0.002971
     6  C   -0.033855   0.015525  -0.072778  -0.009131   0.018649  -0.003458
     7  C   -0.151262   0.057021   0.060420   0.021351  -0.069428   0.031390
     8  C    0.057021   0.274799  -0.212756  -0.160537   0.277497  -0.069294
     9  S    0.060420  -0.212756   0.390134   0.082362  -0.212698   0.060189
    10  O    0.021351  -0.160537   0.082362   0.170694  -0.160622   0.021320
    11  C   -0.069428   0.277497  -0.212698  -0.160622   0.274656   0.057357
    12  C    0.031390  -0.069294   0.060189   0.021320   0.057357  -0.151720
[...]
 00854084,-0.01242189,-0.00488504,0.00255489,0.01160727,0.00347168,-0.0
 0054148,-0.00028165,0.00035941,-0.00426665,0.02087420,0.00717360,0.011
 04633,-0.02628921,-0.01005259,-0.00349794,0.00152230,0.00348902,-0.110
 10939,0.01197138,0.01131336,0.01386969,0.02999187,0.00594433,-0.002811
 16,-0.02563416,-0.00702798,-0.05864150,0.01532792,0.01450050,-0.209869
 04,-0.09010988,0.00369240,0.58730044,0.04530750,-0.04543992,-0.0187316
 7,0.01857463,-0.11677910,-0.01232592,0.00832962,0.02230840,0.00457336,
 -0.01131956,-0.00094077,-0.00277425,0.00325662,0.00624542,0.00199806,-
 0.00258739,-0.00425582,-0.00161527,0.00253015,-0.00041143,0.00042621,0
 .00058775,-0.00904095,-0.00280601,-0.02301157,-0.01624756,-0.00494568,
 0.00523987,0.00125458,0.00056257,0.00624100,-0.25113829,-0.04048192,0.
 05466458,-0.01724264,-0.01489451,-0.02176654,-0.03289019,-0.00182618,-
 0.01616950,0.04239607,0.01095420,-0.06099329,-0.16261117,-0.01672778,0
 .01486392,0.59868413,0.01371624,-0.01710746,0.00699137,0.01521809,-0.0
 1747705,-0.07131545,0.00247339,0.00456778,0.00670475,-0.00468864,-0.00
 110268,0.00331319,0.00125144,0.00209351,0.00070856,-0.00128576,-0.0016
 3764,-0.00023388,0.00152387,0.00004465,-0.00030627,-0.00039584,-0.0036
 8519,-0.00250893,-0.00761187,0.00172338,0.00345409,0.00264416,-0.00000
 916,-0.00054946,0.01043496,-0.04577913,-0.06737338,0.01155148,-0.01055
 044,0.00165462,-0.00537898,-0.00150441,-0.00696437,0.00663456,0.005946
 46,0.00679674,0.01105914,-0.00873928,-0.06984952,-0.05489952,0.1017476
 4,0.17286643,0.00071312,-0.00281557,-0.00042342,-0.00158889,0.00304955
 ,0.00121348,0.00692544,0.02606054,0.00656098,-0.05656687,-0.01645040,-
 0.00672454,0.00210998,-0.02633005,-0.00660074,-0.00399974,-0.00131313,
 -0.00236224,-0.00098897,0.00023826,0.00008178,-0.00361032,0.00178760,-
 0.00147663,-0.00037591,0.00143028,0.00104583,0.00017237,-0.00011493,-0
 .00055010,0.00002131,0.00015933,0.00002026,0.00031979,-0.00013480,-0.0
 0007465,-0.00018197,-0.00012723,0.00000252,-0.00000852,-0.00000664,-0.
 00001832,-0.00010055,-0.00019681,-0.00010771,0.00094955,-0.00068224,-0
 .00014464,0.05523705,-0.00285546,0.00143367,0.00025446,-0.00158385,-0.
 00292800,-0.00028401,0.00081571,-0.01480041,-0.00471510,-0.01581694,-0
 .31717392,-0.06992722,0.00190093,-0.00608778,-0.00197083,-0.00186642,0
 .00201297,-0.00175355,0.00064109,0.00047970,0.00051275,0.00264679,-0.0
 0037869,-0.00071726,-0.00016922,-0.00032768,-0.00070401,-0.00003061,-0
 .00005899,0.00043082,0.00008978,-0.00003788,0.00007866,-0.00011451,0.0
 0000393,0.00002509,0.00007845,0.00011887,0.00001017,0.00005568,-0.0000
 7551,-0.00002474,-0.00008494,0.00001280,-0.00004202,0.00022238,-0.0000
 1392,0.00000647,0.01651272,0.33766015,-0.00048203,0.00035191,-0.000923
 06,-0.00044956,-0.00005133,-0.00259489,-0.00007493,0.00050193,0.005164
 08,-0.00563241,-0.06991911,-0.05506803,-0.00033382,-0.00742445,0.00138
 364,-0.00277965,-0.00132062,0.00699498,0.00059327,0.00054891,-0.000730
 57,-0.00085679,-0.00134385,0.00474281,0.00023588,-0.00014447,-0.000308
 43,-0.00020877,0.00025092,0.00001381,-0.00005416,-0.00007822,-0.000141
 77,0.00000927,-0.00002005,-0.00003316,0.00001711,-0.00006759,-0.000039
 25,-0.00003351,0.00006240,0.00004639,0.00012853,-0.00007269,0.00013211
 ,0.00015451,-0.00000366,-0.00011718,0.00880712,0.07757774,0.04627678,-
 0.00001462,-0.00036504,-0.00016007,-0.00034842,0.00173004,0.00029364,-
 0.00270539,-0.00366789,-0.00278153,-0.01972768,0.01839811,0.00041516,-
 0.23900748,0.12567461,-0.00531903,0.00373758,-0.00271196,-0.00042153,0
 .00215094,-0.00026983,-0.00080216,-0.00009173,-0.00084338,-0.00013210,
 0.00004532,-0.00018900,0.00036416,0.00002008,0.00009871,-0.00022620,0.
 00007154,0.00010506,-0.00002002,-0.00002208,-0.00002407,0.00000325,-0.
 00001324,0.00006988,0.00002992,-0.00003310,-0.00013377,-0.00003347,-0.
 00012674,0.00017412,0.00007804,-0.00038473,-0.00053574,-0.00001618,0.0
 0100771,-0.00060812,0.00086883,0.25484159,0.00003818,0.00012511,-0.000
 02028,0.00026378,0.00036278,-0.00000515,-0.00261025,0.00004938,-0.0024
 8795,-0.01152517,0.01023149,-0.00034462,0.12595109,-0.14297955,-0.0048
 4150,0.02694340,-0.01136299,0.00152872,-0.00143428,-0.00502088,-0.0031
 2782,-0.00096221,-0.00015031,-0.00000917,0.00009519,0.00008245,0.00008
 773,0.00002567,-0.00006718,0.00016901,-0.00000002,-0.00026940,-0.00007
 652,-0.00005775,0.00003895,-0.00000010,0.00008659,-0.00013198,-0.00004
 242,-0.00010685,0.00014165,0.00003543,0.00017864,0.00007346,0.00001289
 ,-0.00052215,0.00011112,0.00021162,0.00024877,0.00052234,0.00139526,-0
 .13718904,0.14824133,-0.00003488,0.00000852,0.00024076,-0.00022895,0.0
 0019876,0.00019095,-0.00256079,-0.00215051,0.00709424,-0.00662994,0.00
 529449,0.00336655,-0.00527944,-0.00487777,-0.03662417,0.00733315,-0.00
 414927,0.00227524,-0.00148698,-0.00287523,0.00496493,-0.00018113,-0.00
 024898,-0.00053559,0.00032783,-0.00006338,-0.00070811,-0.00020065,0.00
 024973,-0.00021160,0.00007365,-0.00005378,0.00001280,0.00002081,0.0000
 0862,0.00006062,0.00000744,0.00001783,-0.00001946,0.00001134,-0.000032
 43,0.00004258,-0.00001779,0.00001623,0.00001328,-0.00018091,0.00008512
 ,-0.00055731,0.00108258,0.00120434,-0.00442240,0.00713209,0.00665298,0
 .02716804,-0.00013692,-0.00013687,-0.00005268,0.00024581,-0.00001197,0
 .00017042,0.00007475,0.00058304,0.00026356,0.00188117,0.00001722,-0.00
 062943,0.00146224,0.00182256,0.00069681,-0.26439506,-0.09589494,-0.068
 33524,-0.01873964,-0.01372823,-0.00699342,-0.00203465,0.00442100,-0.00
 072751,0.00006025,-0.00128255,0.00019374,-0.00013260,0.00041147,-0.000
 55551,-0.00036593,0.00037165,0.00005450,-0.00002500,-0.00020939,-0.000
 09940,-0.00010270,-0.00004425,0.00002989,-0.00004977,0.00005097,0.0000
 2335,0.00005524,-0.00000862,-0.00000279,-0.00013626,0.00007495,-0.0000
 0127,-0.00006424,0.00019634,-0.00007457,0.00063643,-0.00076269,0.00044
 085,0.28104526,-0.00024161,0.00013468,0.00000427,-0.00031414,-0.000081
 10,0.00012818,0.00082011,-0.00057306,0.00013594,0.00141495,-0.00531319
 ,-0.00254963,-0.02818740,-0.00634309,-0.00682592,-0.09629787,-0.101905
 06,-0.03696366,0.01658796,0.01016143,0.00531380,0.00300667,-0.00127396
 ,-0.00097001,0.00047012,0.00048273,-0.00022254,-0.00005970,-0.00001598
 ,0.00017535,0.00014881,-0.00009038,0.00008064,0.00013233,0.00011496,-0
 .00005419,-0.00006289,0.00008222,0.00003944,0.00008358,-0.00010186,-0.
 00005763,-0.00018038,0.00000665,0.00003652,0.00025465,-0.00018503,-0.0
 0007056,-0.00120310,-0.00027742,-0.00039422,0.00045984,0.00076389,0.00
 101303,0.10398587,0.10368127,-0.00009801,0.00009035,-0.00000598,0.0000
 1609,0.00013350,-0.00077409,0.00038186,0.00021618,-0.00047212,-0.00003
 565,-0.00282473,0.00481917,-0.00703983,-0.00144724,-0.00127573,-0.0679
 3933,-0.03667787,-0.04908738,-0.00015335,-0.00019547,0.00115212,-0.000
 53577,-0.00082993,0.00548846,-0.00059907,-0.00010218,0.00098292,0.0003
 8479,-0.00036917,-0.00008904,-0.00010361,0.00024087,-0.00023822,0.0000
 2783,-0.00006392,0.00018432,-0.00001646,0.00000842,-0.00000066,0.00000
 020,-0.00001070,0.00001631,-0.00001362,0.00000376,0.00001499,0.0000150
 6,-0.00001979,0.00007928,-0.00046047,-0.00014145,0.00041409,0.00078341
 ,0.00080618,-0.00257393,0.07462137,0.04022675,0.04502125,-0.00056380,-
 0.00024979,-0.00002589,0.00096997,-0.00111102,-0.00027072,-0.00460757,
 -0.00060569,-0.00210502,-0.00092768,-0.00003169,-0.00003526,-0.0039201
 5,0.00264961,-0.00150512,0.00573844,0.02608416,0.00616814,-0.05736176,
 -0.00940961,-0.00675933,0.00185219,-0.02732195,-0.00595138,0.00038221,
 -0.00209820,-0.00065071,-0.00014846,0.00025793,0.00043656,-0.00004132,
 0.00050484,0.00039228,-0.00008702,0.00007608,-0.00000768,0.00001327,0.
 00016851,0.00002352,0.00007201,-0.00015662,-0.00002990,-0.00016059,0.0
 0017668,0.00002312,0.00034353,-0.00006343,-0.00009089,0.00007644,-0.00
 007384,0.00016572,0.00000922,0.00131877,0.00038046,0.00076750,-0.00083
 010,0.00078343,0.05756556,-0.00032175,-0.00041144,-0.00000238,0.000563
 76,-0.00003963,-0.00019263,-0.00203885,0.00151973,-0.00149843,-0.00005
 960,0.00070000,0.00042200,0.00387512,0.00053351,-0.00056090,-0.0039774
 0,-0.01297862,-0.00417175,-0.00931731,-0.31148044,-0.06329893,-0.00017
 705,-0.01062142,-0.00298736,0.00006987,-0.00079301,0.00155276,0.000531
 93,0.00043444,-0.00079613,0.00000356,0.00061712,0.00050383,-0.00007241
 ,-0.00001538,0.00004658,-0.00005739,0.00019187,0.00004185,0.00009930,-
 0.00021546,-0.00005548,-0.00027670,0.00006406,0.00000642,0.00051221,-0
 .00023885,-0.00012240,-0.00005256,-0.00012352,0.00014995,-0.00017302,-
 0.00075931,-0.00030190,0.00017011,0.00071187,0.00095050,0.01070164,0.3
 3289963,-0.00018837,-0.00003678,-0.00033204,0.00040675,-0.00045234,0.0
 0051659,-0.00266803,-0.00168692,0.00546740,-0.00056060,0.00041997,-0.0
 0093916,-0.00093645,-0.00058263,0.00671255,0.00038911,0.00045002,0.003
 36546,-0.00847264,-0.06254972,-0.05023841,0.00099206,-0.00753928,0.000
 96141,0.00059205,-0.00067879,-0.00224093,-0.00019489,0.00116279,-0.000
 97657,0.00031565,-0.00008642,0.00032942,0.00003287,0.00011522,0.000012
 67,0.00002668,0.00009185,-0.00000562,0.00005824,-0.00008155,-0.0000400
 6,-0.00008602,0.00004160,-0.00001653,0.00015130,-0.00008064,-0.0000345
 6,0.00012913,0.00017276,-0.00078788,-0.00005358,0.00005635,0.00021913,
 0.00098038,0.00093679,-0.00361030,0.00905551,0.07032422,0.04160822,-0.
 00055608,0.00025123,0.00002639,0.00097573,0.00109726,0.00026710,0.0003
 3776,0.00005612,0.00008822,-0.00015910,-0.00017382,-0.00002261,0.00007
 257,0.00015282,0.00002881,0.00001177,-0.00016601,-0.00002300,-0.000087
 10,-0.00007481,0.00000853,-0.00004962,-0.00049701,-0.00038488,0.000406
 99,0.00208157,0.00066137,-0.00015851,-0.00024714,-0.00044917,0.0022011
 6,0.02713928,0.00591400,-0.05712927,0.00611419,0.00600946,0.00544432,-
 0.02630777,-0.00622940,-0.00399188,-0.00259622,0.00153075,-0.00092418,
 0.00005294,0.00004046,-0.00455927,0.00067387,0.00211753,0.00006452,-0.
 00000204,0.00000122,0.00000253,-0.00000437,-0.00000289,0.00001886,-0.0
 0000702,-0.00000107,-0.00005812,-0.00000056,-0.00000052,0.05729579,0.0
 0032342,-0.00041845,-0.00000351,-0.00057637,-0.00004593,-0.00019451,-0
 .00051978,-0.00023331,-0.00012195,0.00027946,0.00006277,0.00000583,-0.
 00010300,-0.00021609,-0.00005548,0.00005975,0.00019318,0.00004194,0.00
 007344,-0.00001538,0.00004627,0.00000618,0.00062339,0.00050871,-0.0000
 7960,-0.00081774,0.00154554,-0.00052729,0.00044377,-0.00078888,0.00001
 152,-0.01095246,-0.00306077,0.00601640,-0.31165261,-0.06344097,0.00373
 946,-0.01270567,-0.00411061,-0.00382160,0.00061287,-0.00056833,0.00008
 034,0.00069850,0.00042150,0.00210768,0.00148704,-0.00153139,-0.0000225
 2,0.00001115,-0.00000307,0.00001461,-0.00001014,-0.00000039,0.00000991
 ,0.00001217,-0.00000077,0.00000115,-0.00000821,-0.00000558,-0.00711888
 ,0.33309792,0.00018885,-0.00003991,-0.00033259,-0.00041412,-0.00045091
 ,0.00051688,-0.00015348,-0.00007894,-0.00003429,0.00008703,0.00004109,
 -0.00001672,-0.00005960,-0.00008131,-0.00003997,-0.00002555,0.00009269
 ,-0.00000548,-0.00003122,0.00011584,0.00001276,-0.00031533,-0.00008088
 ,0.00033167,-0.00060859,-0.00067789,-0.00224206,0.00020613,0.00116115,
 -0.00097535,-0.00109024,-0.00761090,0.00094368,0.00773379,-0.06271200,
 -0.05030318,-0.00039118,0.00053155,0.00338568,0.00096145,-0.00058576,0
 .00670445,0.00056667,0.00041322,-0.00094098,0.00267844,-0.00172313,0.0
 0545163,-0.00001869,0.00000248,-0.00000569,-0.00000046,-0.00000360,0.0
 0000929,-0.00001242,0.00001063,-0.00001123,0.00000077,-0.00000557,0.00
 003691,-0.00824492,0.07050129,0.04168540,-0.00013177,0.00014034,0.0000
 5308,0.00024931,0.00000839,-0.00017197,-0.00014044,-0.00007561,0.00000
 101,0.00005765,0.00000800,0.00000311,-0.00005152,-0.00005165,-0.000023
 86,-0.00010139,0.00004654,-0.00002908,-0.00002382,0.00021091,0.0000993
 3,-0.00037208,-0.00036752,-0.00005297,0.00007124,0.00128729,-0.0001936
 5,-0.00013631,-0.00041111,0.00055775,-0.00212145,-0.00441354,0.0007388
 5,-0.01874838,0.01408091,0.00712265,-0.26158147,0.09772326,0.06855802,
 0.00180335,-0.00192681,-0.00079049,0.00186453,-0.00011406,0.00060759,0
 .00005529,-0.00058980,-0.00026348,-0.00000258,0.00001468,0.00000374,-0
 .00002080,0.00001218,-0.00000023,-0.00004112,0.00000963,-0.00001270,0.
 00001887,-0.00000999,0.00001247,0.00077003,-0.00016768,-0.00098265,0.2
 7799672,0.00024473,0.00012990,0.00000293,0.00031037,-0.00008491,0.0001
 2953,-0.00025535,-0.00018095,-0.00006975,0.00017981,0.00000434,0.00003
 594,-0.00008434,-0.00010016,-0.00005705,0.00006527,0.00008083,0.000039
 57,-0.00013084,0.00011398,-0.00005504,-0.00014505,-0.00008413,0.000081
 74,-0.00046592,0.00047274,-0.00021881,0.00006182,-0.00001162,0.0001683
 5,-0.00299950,-0.00118297,-0.00097055,-0.01621747,0.01019097,0.0052800
 2,0.09812655,-0.10427007,-0.03811697,0.02806464,-0.00666265,-0.0069051
 1,-0.00151070,-0.00529321,-0.00255470,-0.00082696,-0.00055587,0.000141
 56,-0.00001867,0.00000348,-0.00000433,0.00000923,-0.00000551,0.0000043
 5,-0.00000898,0.00001011,0.00000719,0.00000697,0.00001220,0.00001045,0
 .00083215,0.00070350,0.00094691,-0.10598174,0.10623987,0.00009938,0.00
 008852,-0.00000644,-0.00001690,0.00013390,-0.00077340,-0.00001507,-0.0
 0001967,0.00007912,0.00001376,0.00000359,0.00001492,-0.00000025,-0.000
 01073,0.00001634,0.00001692,0.00000828,-0.00000060,-0.00002791,-0.0000
 6417,0.00018408,0.00010679,0.00024081,-0.00023804,0.00060050,-0.000113
 57,0.00098159,-0.00038924,-0.00036317,-0.00008953,0.00054865,-0.000823
 65,0.00548335,0.00020969,-0.00023909,0.00113073,0.06816692,-0.03782694
 ,-0.04952755,0.00701657,-0.00152638,-0.00129713,0.00001005,-0.00282655
 ,0.00481605,-0.00038154,0.00022239,-0.00046995,-0.00000130,0.00000006,
 -0.00000230,0.00000642,-0.00000070,-0.00001019,0.00001285,0.00000700,-
 0.00002177,0.00000097,-0.00000075,-0.00001126,-0.00078503,0.00096117,-
 0.00360408,-0.07486949,0.04148205,0.04550345,-0.00001008,0.00036685,0.
 00016057,-0.00037276,-0.00172049,-0.00029197,-0.00037113,0.00054186,0.
 00001813,-0.00013120,-0.00017157,-0.00007741,-0.00003005,0.00013576,0.
 00003411,-0.00001529,-0.00007125,-0.00003044,-0.00002115,0.00002483,-0
 .00000298,0.00007005,-0.00010936,0.00001889,0.00004434,0.00018931,-0.0
 0036533,0.00001986,-0.00009901,0.00022755,-0.00006837,0.00084170,0.000
 13068,0.00217768,0.00017296,0.00077205,0.00341749,0.00251803,0.0004370
 9,-0.24204174,-0.12447871,0.00585824,-0.01978865,-0.01801409,-0.000352
 07,-0.00261206,0.00369363,0.00278075,0.00001561,0.00001809,0.00001080,
 -0.00004238,0.00000575,-0.00000206,-0.00002107,-0.00000903,-0.00000639
 ,0.00000241,-0.00001477,0.00000044,-0.00000598,0.00016286,0.00005493,0
 .00063639,-0.00045508,-0.00078323,0.25814190,-0.00003653,0.00012115,-0
 .00002218,-0.00025481,0.00038699,-0.00000080,0.00052865,0.00009812,0.0
 0020991,-0.00017606,0.00007776,0.00001437,0.00010904,0.00013865,0.0000
 3466,-0.00008814,-0.00013003,-0.00004176,0.00005849,0.00003795,-0.0000
 0028,-0.00000436,-0.00026806,-0.00007668,-0.00009434,0.00008129,0.0000
 9258,-0.00002623,-0.00006570,0.00016640,0.00096118,-0.00017229,-0.0000
 1376,0.00133627,-0.00503912,-0.00314395,-0.02711867,-0.01106380,0.0016
 0375,-0.12475455,-0.13991322,-0.00454858,0.01189057,0.01031015,-0.0003
 7431,0.00263463,-0.00002720,-0.00253117,-0.00000695,0.00000036,0.00000
 417,-0.00000508,0.00001280,-0.00000058,-0.00001199,-0.00000526,-0.0000
 0057,0.00000420,-0.00001001,-0.00000362,-0.00132770,-0.00074518,0.0000
 5976,0.00076693,0.00075980,0.00081413,0.13586573,0.14489741,0.00003560
 ,0.00000730,0.00024013,0.00023299,0.00020093,0.00019118,0.00018171,0.0
 0008130,-0.00055783,0.00001828,0.00001655,0.00001345,-0.00001143,-0.00
 003260,0.00004255,-0.00000731,0.00001805,-0.00001937,-0.00002039,0.000
 00879,0.00006073,-0.00007453,-0.00005269,0.00001284,-0.00033119,-0.000
 05993,-0.00070586,0.00020298,0.00024754,-0.00021292,0.00017737,-0.0002
 5369,-0.00053660,0.00146065,-0.00289580,0.00495697,-0.00739265,-0.0040
 6886,0.00229622,0.00581796,-0.00458652,-0.03666108,0.00676701,0.005269
 76,0.00334859,0.00256472,-0.00219361,0.00707697,0.00000351,0.00000014,
 -0.00000403,0.00000220,-0.00000062,0.00000834,0.00000032,0.00000437,-0
 .00001018,0.00000290,-0.00000038,0.00000927,-0.00038379,-0.00029794,0.
 00022016,-0.00043820,0.00102055,-0.00256987,-0.00772445,0.00635102,0.0
 2721626,0.00078241,0.00281822,0.00042082,-0.00160806,-0.00306459,-0.00
 122105,0.00095499,0.00067027,0.00014142,-0.00009713,0.00019790,0.00010
 785,-0.00000892,0.00000614,0.00001822,-0.00018137,0.00013059,-0.000001
 98,0.00032294,0.00013083,0.00007379,0.00001848,-0.00016044,-0.00001993
 ,-0.00039571,-0.00142996,-0.00105426,0.00017670,0.00011288,0.00055484,
 -0.00365709,-0.00175231,0.00149319,-0.00100179,-0.00021846,-0.00007470
 ,-0.00394445,0.00138168,0.00237408,0.00242960,0.02620149,0.00657639,-0
 .05617848,0.01305216,0.00587639,0.00657274,-0.02631904,-0.00662855,-0.
 00012435,0.00001329,-0.00001582,0.00001542,0.00000678,-0.00000357,-0.0
 0000253,0.00001873,0.00000130,0.00006486,0.00002186,0.00001848,0.00007
 706,0.00005056,-0.00012960,-0.00005027,0.00119909,0.00046049,0.0010061
 8,-0.00025029,-0.00108428,0.05482877,0.00285980,0.00136345,0.00024160,
 0.00156758,-0.00290858,-0.00027382,-0.00023406,-0.00001953,0.00000523,
 0.00008621,0.00000935,-0.00004360,-0.00005658,-0.00007495,-0.00002478,
 -0.00007475,0.00011826,0.00001040,0.00011069,0.00000095,0.00002386,-0.
 00009027,-0.00003474,0.00007918,0.00016775,-0.00031224,-0.00069181,0.0
 0002913,-0.00006073,0.00042400,-0.00260879,-0.00032418,-0.00072804,-0.
 00062140,0.00048999,0.00051568,0.00193374,0.00197338,-0.00178894,-0.00
 201223,-0.00638322,-0.00204570,0.01241764,-0.31752318,-0.07009178,-0.0
 0109255,-0.01446808,-0.00463513,-0.00001145,0.00002430,0.00000450,-0.0
 0001828,0.00000050,0.00000024,-0.00001461,0.00000343,0.00000009,0.0000
 0140,0.00001085,0.00000224,0.00007193,-0.00012509,0.00017422,-0.000199
 55,-0.00028966,-0.00014656,0.00060600,0.00051745,0.00121631,-0.0128173
 8,0.33801225,0.00047633,0.00033451,-0.00092549,0.00044633,-0.00004691,
 -0.00259264,-0.00015693,-0.00000336,-0.00011701,-0.00012894,-0.0000716
 3,0.00013218,0.00003455,0.00006212,0.00004625,-0.00001759,-0.00006788,
 -0.00003920,-0.00001050,-0.00002030,-0.00003336,0.00005280,-0.00007870
 ,-0.00014194,-0.00023763,-0.00013745,-0.00030488,0.00021147,0.00024808
 ,0.00001159,0.00086553,-0.00134978,0.00473548,-0.00058666,0.00055714,-
 0.00072808,0.00279719,-0.00135935,0.00697834,0.00024021,-0.00751100,0.
 00135890,0.00478101,-0.07007021,-0.05511979,0.00007943,0.00058047,0.00
 518262,0.00001627,0.00000425,0.00000997,-0.00001081,0.00000429,-0.0000
 0399,-0.00000380,-0.00000435,-0.00000229,-0.00000147,-0.00000312,-0.00
 000573,-0.00016658,0.00015191,-0.00078688,0.00007119,-0.00039883,0.000
 41249,-0.00086790,0.00140750,-0.00441592,-0.00788351,0.07777261,0.0463
 4941\\0.00001889,-0.00002197,-0.00000123,-0.00000030,0.00003100,-0.000
 00578,-0.00001910,0.00000993,0.00000619,0.00001802,-0.00001576,-0.0000
 0026,-0.00001653,-0.00001658,-0.00000879,0.00000371,0.00002073,0.00000
 713,-0.00000740,0.00001076,-0.00000176,-0.00000221,-0.00003866,-0.0000
 0410,-0.00000663,0.00005165,-0.00001883,0.00000138,-0.00000967,0.00001
 987,-0.00000012,-0.00004389,0.00000032,0.00001774,0.00002058,-0.000002
 40,-0.00000732,0.00000659,0.00000209,0.00000804,-0.00000014,-0.0000019
 9,-0.00002369,-0.00002425,-0.00000318,0.00001567,0.00002137,0.00000989
 ,0.00000190,-0.00000162,0.00000091,0.00000110,0.00000099,0.00000254,0.
 00000022,-0.00000452,-0.00000369,0.,-0.00000097,-0.00000030,-0.0000044
 2,-0.00000125,0.00000150,-0.00000041,-0.00000112,-0.00000112,-0.000000
 51,0.00000006,0.00000079,0.00000195,0.00000673,0.00000219\\\@


 FIREWORKS ENDED
 AND SPECTATORS GONE AWAY....
 AH, HOW VAST AND DARK
                     SHIKI
 Job cpu time:       0 days  4 hours 44 minutes 53.3 seconds.
 Elapsed time:       0 days  0 hours 35 minutes 59.8 seconds.
 File lengths (MBytes):  RWF=    804 Int=      0 D2E=      0 Chk=     19 Scr=      1
 Normal termination of Gaussian 16 at Tue Jan  9 21:09:27 2024.
