
Running Job 1 of 1 182-rad-CPCM.in
qchem 182-rad-CPCM.in_3404497.0 /expanse/lustre/scratch/selhajj/temp_project/qcscratch/31259006/qchem3404497/ 0
/cm/shared/apps/spack/cpu/opt/spack/linux-centos8-zen2/gcc-10.2.0/qchem-5.4-akfmr7b3t57bfs6qan3padb2wnb2i7cl/exe/qcprog.exe_s 182-rad-CPCM.in_3404497.0 /expanse/lustre/scratch/selhajj/temp_project/qcscratch/31259006/qchem3404497/
                  Welcome to Q-Chem
     A Quantum Leap Into The Future Of Chemistry


 Q-Chem 5.4, Q-Chem, Inc., Pleasanton, CA (2021)

 License issued to: University of California, San Diego (site)

 E. Epifanovsky,  A. T. B. Gilbert,  Xintian Feng,  Joonho Lee,  Yuezhi Mao,  
 N. Mardirossian,  P. Pokhilko,  A. White,  M. Wormit,  M. P. Coons,  
 A. L. Dempwolff,  Zhengting Gan,  D. Hait,  P. R. Horn,  L. D. Jacobson,  
 I. Kaliman,  J. Kussmann,  A. W. Lange,  Ka Un Lao,  D. S. Levine,  Jie Liu,  
 S. C. McKenzie,  A. F. Morrison,  K. Nanda,  F. Plasser,  D. R. Rehn,  
 M. L. Vidal,  Zhi-Qiang You,  Ying Zhu,  B. Alam,  B. Albrecht,  
 A. Aldossary,  E. Alguire,  J. H. Andersen,  D. Barton,  K. Begam,  A. Behn,  
 Y. A. Bernard,  E. J. Berquist,  H. Burton,  A. Carreras,  K. Carter-Fenk,  
 R. Chakraborty,  A. D. Chien,  K. D. Closser,  V. Cofer-Shabica,  
 S. Dasgupta,  Jia Deng,  M. de Wergifosse,  M. Diedenhofen,  Hainam Do,  
 S. Ehlert,  Po-Tung Fang,  S. Fatehi,  Qingguo Feng,  J. Gayvert,  
 Qinghui Ge,  G. Gidofalvi,  M. Goldey,  J. Gomes,  C. Gonzalez-Espinoza,  
 S. Gulania,  A. Gunina,  M. W. D. Hanson-Heine,  P. H. P. Harbach,  
 A. W. Hauser,  M. F. Herbst,  M. Hernandez Vera,  M. Hodecker,  
 Z. C. Holden,  S. Houck,  Xunkun Huang,  Kerwin Hui,  B. C. Huynh,  
 M. Ivanov,  Hyunjun Ji,  Hanjie Jiang,  B. Kaduk,  S. Kaehler,  
 K. Khistyaev,  Jaehoon Kim,  P. Klunzinger,  Z. Koczor-Benda,  
 Joong Hoon Koh,  D. Kosenkov,  L. Koulias,  T. Kowalczyk,  C. M. Krauter,  
 K. Kue,  A. Kunitsa,  T. Kus,  A. Landau,  K. V. Lawler,  D. Lefrancois,  
 S. Lehtola,  Rain Li,  Yi-Pei Li,  Jiashu Liang,  M. Liebenthal,  
 Hung-Hsuan Lin,  You-Sheng Lin,  Fenglai Liu,  Kuan-Yu Liu,  
 M. Loipersberger,  A. Luenser,  A. Manjanath,  P. Manohar,  E. Mansoor,  
 S. F. Manzer,  Shan-Ping Mao,  A. V. Marenich,  T. Markovich,  S. Mason,  
 S. A. Maurer,  P. F. McLaughlin,  M. F. S. J. Menger,  J.-M. Mewes,  
 S. A. Mewes,  P. Morgante,  J. W. Mullinax,  T. S. Nguyen-Beck,  
 K. J. Oosterbaan,  G. Paran,  Alexander C. Paul,  Suranjan K. Paul,  
 F. Pavosevic,  Zheng Pei,  S. Prager,  E. I. Proynov,  E. Ramos,  B. Rana,  
 A. E. Rask,  A. Rettig,  R. M. Richard,  F. Rob,  E. Rossomme,  T. Scheele,  
 M. Scheurer,  M. Schneider,  N. Sergueev,  S. M. Sharada,  W. Skomorowski,  
 D. W. Small,  C. J. Stein,  Yu-Chuan Su,  E. J. Sundstrom,  Zhen Tao,  
 J. Thirman,  T. Tsuchimochi,  N. M. Tubman,  S. P. Veccham,  O. Vydrov,  
 J. Wenzel,  J. Witte,  A. Yamada,  Kun Yao,  S. Yeganeh,  S. R. Yost,  
 A. Zech,  Igor Ying Zhang,  Xing Zhang,  Yu Zhang,  D. Zuev,  
 A. Aspuru-Guzik,  A. T. Bell,  N. A. Besley,  K. B. Bravaya,  B. R. Brooks,  
 D. Casanova,  Jeng-Da Chai,  S. Coriani,  C. J. Cramer,  
 A. E. DePrince, III,  R. A. DiStasio Jr.,  A. Dreuw,  B. D. Dunietz,  
 T. R. Furlani,  W. A. Goddard III,  S. Grimme,  S. Hammes-Schiffer,  
 T. Head-Gordon,  W. J. Hehre,  Chao-Ping Hsu,  T.-C. Jagau,  Yousung Jung,  
 A. Klamt,  Jing Kong,  D. S. Lambrecht,  WanZhen Liang,  N. J. Mayhall,  
 C. W. McCurdy,  J. B. Neaton,  C. Ochsenfeld,  J. A. Parkhill,  R. Peverati,  
 V. A. Rassolov,  Yihan Shao,  L. V. Slipchenko,  T. Stauch,  R. P. Steele,  
 J. E. Subotnik,  A. J. W. Thom,  A. Tkatchenko,  D. G. Truhlar,  
 T. Van Voorhis,  T. A. Wesolowski,  K. B. Whaley,  H. L. Woodcock III,  
 P. M. Zimmerman,  S. Faraji,  P. M. W. Gill,  M. Head-Gordon,  
 J. M. Herbert,  A. I. Krylov

 Contributors to earlier versions of Q-Chem not listed above: 
 R. D. Adamson,  B. Austin,  R. Baer,  J. Baker,  G. J. O. Beran,  
 K. Brandhorst,  S. T. Brown,  E. F. C. Byrd,  A. K. Chakraborty,  
 G. K. L. Chan,  Chun-Min Chang,  Yunqing Chen,  C.-L. Cheng,  
 Siu Hung Chien,  D. M. Chipman,  D. L. Crittenden,  H. Dachsel,  
 R. J. Doerksen,  A. D. Dutoi,  R. G. Edgar,  J. Fosso-Tande,  
 L. Fusti-Molnar,  D. Ghosh,  A. Ghysels,  A. Golubeva-Zadorozhnaya,  
 J. Gonthier,  M. S. Gordon,  S. R. Gwaltney,  G. Hawkins,  J. E. Herr,  
 A. Heyden,  S. Hirata,  E. G. Hohenstein,  G. Kedziora,  F. J. Keil,  
 C. Kelley,  Jihan Kim,  R. A. King,  R. Z. Khaliullin,  P. P. Korambath,  
 W. Kurlancheek,  A. Laurent,  A. M. Lee,  M. S. Lee,  S. V. Levchenko,  
 Ching Yeh Lin,  D. Liotard,  E. Livshits,  R. C. Lochan,  I. Lotan,  
 L. A. Martinez-Martinez,  P. E. Maslen,  N. Nair,  D. P. O'Neill,  
 D. Neuhauser,  E. Neuscamman,  C. M. Oana,  R. Olivares-Amaya,  R. Olson,  
 T. M. Perrine,  B. Peters,  P. A. Pieniazek,  A. Prociuk,  Y. M. Rhee,  
 J. Ritchie,  M. A. Rohrdanz,  E. Rosta,  N. J. Russ,  H. F. Schaefer III,  
 M. W. Schmidt,  N. E. Schultz,  S. Sharma,  N. Shenvi,  C. D. Sherrill,  
 A. C. Simmonett,  A. Sodt,  T. Stein,  D. Stuck,  K. S. Thanthiriwatte,  
 V. Vanovschi,  L. Vogt,  Tao Wang,  A. Warshel,  M. A. Watson,  
 C. F. Williams,  Q. Wu,  X. Xu,  Jun Yang,  W. Zhang,  Yan Zhao

 Please cite Q-Chem as follows:
 Y. Shao et al., Mol. Phys. 113, 184-215 (2015)
 DOI: 10.1080/00268976.2014.952696

 Q-Chem 5.4.0 for Intel X86 EM64T Linux

 Parts of Q-Chem use Armadillo 9.800.1 (Horizon Scraper).
 http://arma.sourceforge.net/

 Q-Chem begins on Wed Jun 12 03:59:06 2024  

 Host: 
0

     Scratch files written to /expanse/lustre/scratch/selhajj/temp_project/qcscratch/31259006/qchem3404497//
 May1621 |scratch|qcdevops|jenkins|workspace|build_RNUM    
 Processing $rem in /cm/shared/apps/spack/cpu/opt/spack/linux-centos8-zen2/gcc-10.2.0/qchem-5.4-akfmr7b3t57bfs6qan3padb2wnb2i7cl/config/preferences:
 Processing $rem in /home/selhajj/.qchemrc:
 Symmetry turned off for PCM/SM12/SMD calculation

 Checking the input file for inconsistencies... 	...done.

--------------------------------------------------------------
User input:
--------------------------------------------------------------
$molecule
-1 2
C                  6.6523390000      0.5036190000      0.8131260000
C                  5.1776190000      0.4178430000      0.4985610000
C                  4.5223110000      1.4303710000     -0.2169030000
C                  3.1793770000      1.3380560000     -0.5472480000
C                  2.4003170000      0.2195840000     -0.1691760000
N                  1.0603050000      0.2328950000     -0.5068990000
C                  0.1058470000     -0.7840310000     -0.4266320000
C                  0.4505330000     -2.1219180000     -0.5659130000
C                 -0.5210200000     -3.1240500000     -0.4876040000
C                 -1.8550040000     -2.8201000000     -0.2709750000
O                 -2.7638940000     -3.8465380000     -0.1748360000
C                 -2.2800650000     -1.4677520000     -0.1645960000
C                 -3.7007480000     -1.1476240000      0.0489020000
O                 -4.5921130000     -2.0118140000      0.1659140000
C                 -4.0507960000      0.2796590000      0.1246980000
C                 -5.3962880000      0.6416690000      0.3395540000
C                 -5.7750710000      1.9683810000      0.4086900000
C                 -4.8051930000      2.9826150000      0.2599150000
C                 -3.4834320000      2.6483420000      0.0464100000
C                 -3.0779180000      1.2950390000     -0.0218910000
C                 -1.6744760000      0.9797440000     -0.2455380000
O                 -0.8482940000      1.9382120000     -0.4235190000
C                 -1.2829930000     -0.4237710000     -0.2695240000
C                  3.0527360000     -0.7890470000      0.5676780000
C                  4.4054610000     -0.6795180000      0.8847880000
H                  6.9218370000     -0.1702880000      1.6313920000
H                  7.2722770000      0.2303660000     -0.0503560000
H                  6.9423440000      1.5171640000      1.1087300000
H                  5.0781830000      2.3117360000     -0.5267330000
H                  2.7001460000      2.1376790000     -1.1023740000
H                  0.5947340000      1.1544880000     -0.5810490000
H                  1.4759980000     -2.3965650000     -0.7704940000
H                 -0.2246630000     -4.1650510000     -0.5997100000
H                 -2.2700930000     -4.6669430000     -0.2806540000
H                 -6.1161120000     -0.1612750000      0.4459880000
H                 -6.8152580000      2.2314760000      0.5757660000
H                 -5.0999790000      4.0265510000      0.3133870000
H                 -2.7192890000      3.4065510000     -0.0732100000
H                  2.4935860000     -1.6404750000      0.9290800000
H                  4.8667510000     -1.4752810000      1.4645250000
$end
$rem
MAX_SCF_CYCLES=200
BASIS  =  6-311++G(d,p)
GUI  =  2
JOB_TYPE  =  SP
METHOD  =  B3LYP
SCF_ALGORITHM = RCA_DIIS
SOLVENT_METHOD = PCM
$end
$pcm
theory = CPCM
$end
$solvent
dielectric 37.219
opticaldielectric 1.43
$end





--------------------------------------------------------------
 ----------------------------------------------------------------
             Standard Nuclear Orientation (Angstroms)
    I     Atom           X                Y                Z
 ----------------------------------------------------------------
    1      C       6.6523390000     0.5036190000     0.8131260000
    2      C       5.1776190000     0.4178430000     0.4985610000
    3      C       4.5223110000     1.4303710000    -0.2169030000
    4      C       3.1793770000     1.3380560000    -0.5472480000
    5      C       2.4003170000     0.2195840000    -0.1691760000
    6      N       1.0603050000     0.2328950000    -0.5068990000
    7      C       0.1058470000    -0.7840310000    -0.4266320000
    8      C       0.4505330000    -2.1219180000    -0.5659130000
    9      C      -0.5210200000    -3.1240500000    -0.4876040000
   10      C      -1.8550040000    -2.8201000000    -0.2709750000
   11      O      -2.7638940000    -3.8465380000    -0.1748360000
   12      C      -2.2800650000    -1.4677520000    -0.1645960000
   13      C      -3.7007480000    -1.1476240000     0.0489020000
   14      O      -4.5921130000    -2.0118140000     0.1659140000
   15      C      -4.0507960000     0.2796590000     0.1246980000
   16      C      -5.3962880000     0.6416690000     0.3395540000
   17      C      -5.7750710000     1.9683810000     0.4086900000
   18      C      -4.8051930000     2.9826150000     0.2599150000
   19      C      -3.4834320000     2.6483420000     0.0464100000
   20      C      -3.0779180000     1.2950390000    -0.0218910000
   21      C      -1.6744760000     0.9797440000    -0.2455380000
   22      O      -0.8482940000     1.9382120000    -0.4235190000
   23      C      -1.2829930000    -0.4237710000    -0.2695240000
   24      C       3.0527360000    -0.7890470000     0.5676780000
   25      C       4.4054610000    -0.6795180000     0.8847880000
   26      H       6.9218370000    -0.1702880000     1.6313920000
   27      H       7.2722770000     0.2303660000    -0.0503560000
   28      H       6.9423440000     1.5171640000     1.1087300000
   29      H       5.0781830000     2.3117360000    -0.5267330000
   30      H       2.7001460000     2.1376790000    -1.1023740000
   31      H       0.5947340000     1.1544880000    -0.5810490000
   32      H       1.4759980000    -2.3965650000    -0.7704940000
   33      H      -0.2246630000    -4.1650510000    -0.5997100000
   34      H      -2.2700930000    -4.6669430000    -0.2806540000
   35      H      -6.1161120000    -0.1612750000     0.4459880000
   36      H      -6.8152580000     2.2314760000     0.5757660000
   37      H      -5.0999790000     4.0265510000     0.3133870000
   38      H      -2.7192890000     3.4065510000    -0.0732100000
   39      H       2.4935860000    -1.6404750000     0.9290800000
   40      H       4.8667510000    -1.4752810000     1.4645250000
 ----------------------------------------------------------------
 Nuclear Repulsion Energy =        1982.78494320 hartrees
 There are       87 alpha and       86 beta electrons
 Requested basis set is 6-311++G(d,p)
 There are 225 shells and 655 basis functions

 Total QAlloc Memory Limit   8000 MB
 Mega-Array Size       188 MB
 MEM_STATIC part       192 MB
 Discretize the solute cavity surface with Lebedev spheres
	Using 110 Lebedev grid points for each H atom
	Using 194 Lebedev grid points for other atoms
	Atomic van der Waals radii will be scaled by 1.20
 Remove points where switching function is < 1.0e-08
 Keep 2607 surface tesserae and discard 3893 interior tesserae
 Molecular Surface Area = 352.577 Angst**2
 A cutoff of  1.0D-09 yielded  15656 shell pairs
 There are    138215 function pairs (    147458 Cartesian)
 Smallest overlap matrix eigenvalue = 3.38E-08

 Q-Chem warning in module stvman/mkSTV.C, line 323:

 Overlap eigenvalue is smaller than square root of threshold
 Use THRESH >= 12 to get rid of this warning

 Linear dependence detected in AO basis
 Tighter screening thresholds may be required for diffuse basis sets
 Use S2THRESH > 14 and THRESH = 14 in case of SCF convergence issues
 Number of orthogonalized atomic orbitals = 646
 Maximum deviation from orthogonality = 1.953E-10

 Scale SEOQF with 1.000000e-02/1.000000e-01/1.000000e-01

 Standard Electronic Orientation quadrupole field applied
 Nucleus-field energy     =     0.0000000476 hartrees
 Guess from superposition of atomic densities
 Warning:  Energy on first SCF cycle will be non-variational
 SAD guess density has 172.000000 electrons
 An unrestricted hybrid HF-DFT SCF calculation will be
 performed using Relaxed Constraint Minimization + Pulay DIIS
 Polarizable Continuum solvation model will be applied
 Exchange:     0.2000 Hartree-Fock + 0.0800 Slater + 0.7200 B88
 Correlation:  0.1900 VWN1RPA + 0.8100 LYP
 Using SG-1 standard quadrature grid
 SCF converges when DIIS error is below 1.0E-05
 using 8 threads for integral computing
 -------------------------------------------------------
 OpenMP Integral computing Module                
 Release: version 1.0, May 2013, Q-Chem Inc. Pittsburgh 
 -------------------------------------------------------
 ---------------------------------------
  Cycle       Energy         DIIS Error
 ---------------------------------------
    1   -1096.1607338909      2.63E-02
    2   -1110.7624062144      2.99E-03
Recomputing EXC -1109.132786 -1110.762406 -1110.762406 
Recomputing EXC -1109.132786 -1110.762406 -1110.762406 
Recomputing EXC -1109.132786 -1110.762406 -1110.762406 
    3   -1109.1327859242      3.05E-03
    4   -1109.5272326079      2.99E-03
Recomputing EXC -1105.847921 -1109.527233 -1109.527233 
Recomputing EXC -1105.847921 -1109.527233 -1109.527233 
Recomputing EXC -1105.847921 -1109.527233 -1109.527233 
    5   -1105.8479205433      3.14E-03
Recomputing EXC -1093.730969 -1105.847921 -1105.847921 
Recomputing EXC -1093.730969 -1105.847921 -1105.847921 
Recomputing EXC -1093.730969 -1105.847921 -1105.847921 
    6   -1093.7309694145      4.41E-03
Recomputing EXC -1064.664662 -1105.473024 -1093.730969 
Recomputing EXC -1034.751756 -1093.730969 -1093.730969 
Recomputing EXC -1034.751756 -1093.730969 -1093.730969 
    7   -1034.7517561537      1.39E-02
    8   -1102.1702623801      1.33E-02
    9   -1107.7860994341      1.19E-02
Recomputing EXC -1044.431369 -1133.661564 -1107.786099 
Recomputing EXC -990.059205 -1107.885327 -1107.786099 
Recomputing EXC -990.059205 -1107.885327 -1107.786099 
   10    -990.0592050018      1.84E-02
Recomputing EXC -986.678495 -1089.747812 -990.059205 
Recomputing EXC -894.558274 -1002.244524 -990.059205 
Recomputing EXC -786.220059 -990.059205 -990.059205 
   11    -786.2200592466      2.92E-02
   12    -926.5088732487      2.05E-02
Recomputing EXC -913.088767 -966.273551 -926.508873 
Recomputing EXC -835.707333 -926.509148 -926.508873 
Recomputing EXC -835.296714 -926.508873 -926.508873 
   13    -835.2967140134      2.00E-02
   14    -888.4062761377      1.47E-02
Recomputing EXC -864.883949 -903.898483 -888.406276 
Recomputing EXC -831.484945 -888.406276 -888.406276 
Recomputing EXC -831.484945 -888.406276 -888.406276 
   15    -831.4849454311      1.61E-02
   16    -902.6698973589      1.26E-02
   17   -1021.1023681512      1.37E-02
Recomputing EXC -976.181363 -1200.435991 -1021.102368 
Recomputing EXC -839.676744 -1028.231665 -1021.102368 
Recomputing EXC -735.236017 -1022.317723 -1021.102368 
   18    -735.2360170167      1.98E-02
   19   -1004.7621319288      1.46E-02
Recomputing EXC -993.151649 -1059.473793 -1004.762132 
Recomputing EXC -903.446230 -1005.913456 -1004.762132 
Recomputing EXC -868.704887 -1004.762132 -1004.762132 
   20    -868.7048870812      1.50E-02
   21    -946.1506773442      1.03E-02
Recomputing EXC -911.935382 -970.495726 -946.150677 
Recomputing EXC -851.269161 -946.150677 -946.150677 
Recomputing EXC -851.269161 -946.150677 -946.150677 
   22    -851.2691608841      1.26E-02
   23    -925.7931440323      1.20E-02
   24    -950.8278591052      1.18E-02
   25   -1009.1552206538      1.32E-02
Recomputing EXC -968.350755 -1192.902327 -1009.155221 
Recomputing EXC -707.069360 -1012.909744 -1009.155221 
Recomputing EXC -707.069360 -1012.909744 -1009.155221 
   26    -707.0693601095      1.80E-02
   27    -938.4860249992      1.42E-02
Recomputing EXC -891.854262 -1026.248019 -938.486025 
Recomputing EXC -712.017967 -938.486025 -938.486025 
Recomputing EXC -712.017967 -938.486025 -938.486025 
   28    -712.0179669684      1.69E-02
   29    -846.7047719718      1.18E-02
Recomputing EXC -794.975958 -901.294724 -846.704772 
Recomputing EXC -721.676917 -846.704772 -846.704772 
Recomputing EXC -721.676917 -846.704772 -846.704772 
   30    -721.6769169255      1.21E-02
   31    -804.3274874377      8.32E-03
Recomputing EXC -743.923463 -910.716965 -804.327487 
Recomputing EXC -627.582149 -811.824590 -804.327487 
Recomputing EXC -557.491151 -804.327487 -804.327487 
   32    -557.4911509595      1.24E-02
   33    -995.2994006972      1.65E-02
   34   -1022.8805097918      1.20E-02
Recomputing EXC -984.466708 -1143.543719 -1022.880510 
Recomputing EXC -807.443500 -1024.477186 -1022.880510 
Recomputing EXC -807.443500 -1024.477186 -1022.880510 
   35    -807.4435001363      1.92E-02
   36    -968.1564980425      1.33E-02
Recomputing EXC -904.496631 -1033.787242 -968.156498 
Recomputing EXC -801.631516 -968.156498 -968.156498 
Recomputing EXC -801.631516 -968.156498 -968.156498 
   37    -801.6315155077      1.41E-02
   38    -911.1938357196      1.05E-02
Recomputing EXC -892.194095 -942.328070 -911.193836 
Recomputing EXC -820.836529 -911.193836 -911.193836 
Recomputing EXC -820.836529 -911.193836 -911.193836 
   39    -820.8365288699      1.33E-02
   40   -1038.9855743542      1.39E-02
Recomputing EXC -1044.019669 -1142.805530 -1038.985574 
Recomputing EXC -956.148050 -1055.318853 -1038.985574 
Recomputing EXC -812.960017 -1038.985574 -1038.985574 
   41    -812.9600166708      1.96E-02
   42    -958.8839002717      1.44E-02
Recomputing EXC -872.510869 -1079.507583 -958.883900 
Recomputing EXC -710.688384 -958.908781 -958.883900 
Recomputing EXC -710.688384 -958.908781 -958.883900 
   43    -710.6883837106      1.80E-02
   44    -852.6113345003      1.28E-02
Recomputing EXC -800.687424 -927.442864 -852.611335 
Recomputing EXC -704.239712 -852.611335 -852.611335 
Recomputing EXC -704.239712 -852.611335 -852.611335 
   45    -704.2397122570      1.28E-02
   46    -797.0967405004      8.11E-03
Recomputing EXC -721.644451 -872.711565 -797.096741 
Recomputing EXC -588.312677 -798.037086 -797.096741 
Recomputing EXC -563.696376 -797.096741 -797.096741 
   47    -563.6963763873      1.11E-02
   48    -978.1936084887      1.68E-02
   49   -1021.1977929972      1.22E-02
Recomputing EXC -995.895599 -1103.436510 -1021.197793 
Recomputing EXC -861.639937 -1023.063576 -1021.197793 
Recomputing EXC -813.308926 -1022.330161 -1021.197793 
   50    -813.3089261282      1.79E-02 Done RCA. Switching to DIIS
   51    -236.2392056768      9.55E-02
   52    -979.6014598533      2.59E-02
   53    -950.6259475700      2.34E-02
   54    -862.1541147463      2.79E-02
   55    -856.1622054338      2.72E-02
   56    -808.3366317326      2.55E-02
   57    -803.3474361277      2.61E-02
   58    -901.7656567059      1.97E-02
   59    -880.5351158370      2.08E-02
   60    -858.8124564588      2.16E-02
   61    -983.6547668060      2.27E-02
   62    -786.7802719253      5.54E-02
   63    -959.7189662958      2.60E-02
   64    -939.2110910605      2.79E-02
   65    -616.2180486033      7.42E-02
   66   -1003.0371536637      2.91E-02
   67   -1026.4040183283      2.13E-02
   68   -1039.3190495874      1.91E-02
   69   -1050.1401141980      1.76E-02
   70   -1042.0979430021      1.85E-02
   71   -1054.7568372086      1.59E-02
   72   -1070.8044905342      1.24E-02
   73   -1077.6561958001      1.12E-02
   74   -1077.0580299234      9.60E-03
   75   -1086.4372648195      6.43E-03
   76   -1088.1889404500      5.58E-03
   77   -1089.7319456708      2.79E-03
   78   -1090.0772662339      1.16E-03
   79   -1090.1335400345      5.79E-04
   80   -1090.1454295682      2.54E-04
   81   -1090.1486113866      8.64E-05
   82   -1090.1489814877      3.84E-05
   83   -1090.1490592761      1.07E-05
   84   -1090.1490667943      5.30E-06 Convergence criterion met
 ---------------------------------------

************** Final PCM Free Energy Summary **************
 G_electrostatic  =      -0.09654567 hartree =     -60.58332053 kcal/mol
 G_cavitation     =       0.00000000 hartree =       0.00000000 kcal/mol
 G_dispersion     =       0.00000000 hartree =       0.00000000 kcal/mol
 G_repulsion      =       0.00000000 hartree =       0.00000000 kcal/mol
 --------------------------------------------------
 Non-electrostatic Free Energy =       0.00000000 hartree =       0.00000000 kcal/mol
 Total                         =      -0.09654567 hartree =     -60.58332053 kcal/mol
 --------------------------------------------------
 SCF Energy (H0 + V/2)                       =   -1090.14906679 
 Solute Internal Energy (H0)                 =   -1090.05252113 
 Total Free Energy (H0 + V/2 + non-elec)     =   -1090.14906679 hartree
                                             = -684078.86421524 kcal/mol
***********************************************************

 <S^2> = 0.7588
 SCF time:  CPU 13009.12 s  wall 2083.05 s
 SCF   energy in the final basis set = -1090.14906679
 Total energy in the final basis set = -1090.14906679
 
 --------------------------------------------------------------
 
                    Orbital Energies (a.u.)
 --------------------------------------------------------------
 
 Alpha MOs
 -- Occupied --
-19.1465 -19.0801 -19.0738 -14.3179 -10.2321 -10.2292 -10.2275 -10.2152
-10.2132 -10.1810 -10.1790 -10.1724 -10.1720 -10.1717 -10.1713 -10.1709
-10.1698 -10.1689 -10.1689 -10.1680 -10.1680 -10.1679 -10.1661 -10.1651
-10.1592  -1.0591  -1.0078  -1.0053  -0.9412  -0.8609  -0.8538  -0.8373
 -0.7855  -0.7685  -0.7503  -0.7454  -0.7410  -0.7291  -0.6781  -0.6675
 -0.6403  -0.6290  -0.6102  -0.5963  -0.5788  -0.5662  -0.5526  -0.5417
 -0.5141  -0.5077  -0.4806  -0.4742  -0.4661  -0.4593  -0.4580  -0.4432
 -0.4338  -0.4329  -0.4259  -0.4225  -0.4161  -0.4144  -0.4114  -0.4077
 -0.4008  -0.3948  -0.3866  -0.3823  -0.3778  -0.3720  -0.3654  -0.3531
 -0.3526  -0.3487  -0.3412  -0.3372  -0.3334  -0.3015  -0.2691  -0.2563
 -0.2546  -0.2516  -0.2499  -0.2389  -0.2339  -0.1889  -0.1382
 -- Virtual --
 -0.0496  -0.0237  -0.0136  -0.0079  -0.0035   0.0024   0.0052   0.0130
  0.0149   0.0183   0.0237   0.0262   0.0342   0.0383   0.0411   0.0441
  0.0466   0.0488   0.0528   0.0547   0.0576   0.0634   0.0674   0.0697
  0.0726   0.0765   0.0770   0.0808   0.0897   0.0917   0.0968   0.1005
  0.1030   0.1059   0.1107   0.1115   0.1146   0.1169   0.1184   0.1228
  0.1235   0.1262   0.1297   0.1309   0.1320   0.1328   0.1353   0.1385
  0.1400   0.1413   0.1443   0.1470   0.1480   0.1529   0.1551   0.1573
  0.1611   0.1654   0.1683   0.1708   0.1724   0.1741   0.1755   0.1784
  0.1827   0.1836   0.1861   0.1894   0.1919   0.1950   0.1972   0.2023
  0.2057   0.2086   0.2141   0.2149   0.2182   0.2212   0.2235   0.2268
  0.2277   0.2334   0.2359   0.2376   0.2417   0.2434   0.2460   0.2480
  0.2518   0.2549   0.2579   0.2621   0.2625   0.2678   0.2689   0.2703
  0.2719   0.2747   0.2764   0.2793   0.2827   0.2859   0.2871   0.2911
  0.2920   0.2962   0.3006   0.3025   0.3041   0.3091   0.3122   0.3164
  0.3189   0.3215   0.3233   0.3251   0.3298   0.3311   0.3362   0.3374
  0.3396   0.3439   0.3484   0.3501   0.3514   0.3559   0.3589   0.3615
  0.3639   0.3706   0.3715   0.3770   0.3803   0.3882   0.3911   0.3916
  0.3924   0.4033   0.4062   0.4143   0.4213   0.4249   0.4276   0.4349
  0.4399   0.4515   0.4607   0.4819   0.4878   0.4913   0.5005   0.5056
  0.5089   0.5217   0.5295   0.5402   0.5429   0.5522   0.5576   0.5638
  0.5647   0.5680   0.5712   0.5730   0.5823   0.5840   0.5890   0.5965
  0.5979   0.6021   0.6085   0.6099   0.6135   0.6204   0.6264   0.6297
  0.6387   0.6405   0.6448   0.6470   0.6530   0.6595   0.6633   0.6657
  0.6701   0.6709   0.6713   0.6750   0.6842   0.6867   0.6918   0.6927
  0.6960   0.7017   0.7148   0.7167   0.7213   0.7297   0.7357   0.7420
  0.7472   0.7529   0.7599   0.7628   0.7718   0.7720   0.7805   0.7870
  0.7943   0.7962   0.8007   0.8082   0.8177   0.8186   0.8304   0.8386
  0.8544   0.8575   0.8654   0.8692   0.8766   0.8830   0.8969   0.8981
  0.9036   0.9060   0.9147   0.9210   0.9219   0.9326   0.9386   0.9420
  0.9492   0.9506   0.9576   0.9626   0.9674   0.9720   0.9752   0.9851
  0.9888   0.9975   1.0020   1.0063   1.0132   1.0165   1.0215   1.0326
  1.0369   1.0421   1.0490   1.0597   1.0683   1.0713   1.0791   1.0867
  1.0938   1.1015   1.1041   1.1063   1.1194   1.1241   1.1333   1.1386
  1.1436   1.1481   1.1579   1.1627   1.1718   1.1920   1.2003   1.2044
  1.2131   1.2307   1.2421   1.2480   1.2676   1.2752   1.2955   1.3134
  1.3299   1.3365   1.3466   1.3548   1.3721   1.3765   1.4006   1.4120
  1.4188   1.4273   1.4297   1.4628   1.4687   1.4797   1.4885   1.4953
  1.5061   1.5136   1.5166   1.5248   1.5277   1.5340   1.5423   1.5441
  1.5529   1.5564   1.5676   1.5731   1.5745   1.5789   1.5846   1.5987
  1.6049   1.6147   1.6167   1.6240   1.6298   1.6364   1.6407   1.6549
  1.6714   1.6805   1.6834   1.6920   1.7064   1.7101   1.7200   1.7297
  1.7521   1.7533   1.7689   1.7712   1.7738   1.7815   1.7882   1.7994
  1.8051   1.8144   1.8293   1.8343   1.8459   1.8577   1.8732   1.8807
  1.8990   1.9017   1.9089   1.9098   1.9155   1.9224   1.9255   1.9345
  1.9461   1.9585   1.9607   1.9621   1.9775   1.9822   1.9851   1.9913
  1.9958   2.0126   2.0141   2.0182   2.0337   2.0381   2.0513   2.0570
  2.0674   2.0803   2.0827   2.0993   2.1077   2.1158   2.1362   2.1371
  2.1409   2.1523   2.1708   2.1817   2.1889   2.1943   2.2132   2.2270
  2.2738   2.2780   2.3049   2.3121   2.3184   2.3375   2.3455   2.3770
  2.3858   2.3908   2.3963   2.4335   2.4369   2.4601   2.4696   2.4753
  2.4819   2.4861   2.4889   2.4985   2.5381   2.5423   2.5655   2.5828
  2.6049   2.6214   2.6302   2.6363   2.6390   2.6517   2.6614   2.6633
  2.6716   2.6974   2.7018   2.7145   2.7210   2.7267   2.7343   2.7408
  2.7495   2.7571   2.7654   2.7723   2.7739   2.7828   2.7889   2.7918
  2.7976   2.7997   2.8110   2.8156   2.8261   2.8298   2.8403   2.8516
  2.8560   2.8615   2.8864   2.8894   2.8946   2.9051   2.9138   2.9197
  2.9320   2.9413   2.9578   2.9588   2.9680   2.9747   2.9807   3.0004
  3.0282   3.0376   3.0466   3.0690   3.1034   3.1091   3.1134   3.1282
  3.1337   3.1469   3.1717   3.1760   3.2059   3.2162   3.2216   3.2328
  3.2405   3.2716   3.2864   3.3172   3.3469   3.3596   3.3618   3.3823
  3.3919   3.4080   3.4331   3.4554   3.4623   3.5060   3.5101   3.5316
  3.5372   3.5597   3.5742   3.5875   3.5925   3.6135   3.6239   3.6704
  3.6847   3.6919   3.8063   3.8139   3.8373   3.8561   3.8841   3.9231
  3.9289   4.0037   4.0245   4.0508   4.0660   4.0887   4.1136   4.1636
  4.1802   4.1996   4.2154   4.2925   4.3219   4.3476   4.5022   4.8080
  4.8366   4.8542   4.8666   4.9345   5.0185   5.0872   5.1010   5.2335
  5.2936   5.3540   5.5371   5.7439   5.8036   5.8606  23.5395  23.6427
 23.7037  23.8960  23.9214  23.9259  23.9470  23.9559  23.9605  23.9629
 23.9679  23.9821  23.9861  24.0574  24.0634  24.0670  24.1199  24.1233
 24.1802  24.1942  24.1968  35.7171  49.9665  50.0720  50.1229
 
 Beta MOs
 -- Occupied --
-19.1463 -19.0751 -19.0690 -14.3175 -10.2319 -10.2279 -10.2251 -10.2148
-10.2134 -10.1809 -10.1783 -10.1719 -10.1717 -10.1716 -10.1708 -10.1701
-10.1690 -10.1687 -10.1687 -10.1681 -10.1680 -10.1671 -10.1659 -10.1649
-10.1592  -1.0585  -0.9994  -0.9968  -0.9399  -0.8587  -0.8530  -0.8362
 -0.7816  -0.7677  -0.7483  -0.7448  -0.7397  -0.7275  -0.6769  -0.6616
 -0.6386  -0.6268  -0.6096  -0.5960  -0.5779  -0.5642  -0.5509  -0.5409
 -0.5132  -0.5065  -0.4775  -0.4731  -0.4657  -0.4580  -0.4573  -0.4421
 -0.4329  -0.4275  -0.4230  -0.4220  -0.4155  -0.4139  -0.4086  -0.4049
 -0.3942  -0.3899  -0.3853  -0.3806  -0.3744  -0.3650  -0.3597  -0.3524
 -0.3481  -0.3462  -0.3362  -0.3332  -0.3318  -0.2974  -0.2544  -0.2512
 -0.2501  -0.2474  -0.2452  -0.2341  -0.2292  -0.1818
 -- Virtual --
 -0.0844  -0.0399  -0.0135  -0.0132  -0.0065  -0.0034   0.0024   0.0053
  0.0134   0.0172   0.0184   0.0238   0.0266   0.0358   0.0387   0.0415
  0.0443   0.0469   0.0492   0.0548   0.0573   0.0615   0.0647   0.0676
  0.0725   0.0765   0.0770   0.0804   0.0823   0.0902   0.0920   0.0973
  0.1012   0.1035   0.1061   0.1111   0.1117   0.1147   0.1171   0.1185
  0.1229   0.1238   0.1264   0.1299   0.1311   0.1329   0.1343   0.1355
  0.1391   0.1405   0.1418   0.1452   0.1472   0.1483   0.1542   0.1557
  0.1574   0.1614   0.1657   0.1684   0.1716   0.1729   0.1743   0.1760
  0.1789   0.1833   0.1841   0.1863   0.1901   0.1929   0.1955   0.1976
  0.2034   0.2064   0.2096   0.2143   0.2155   0.2188   0.2216   0.2240
  0.2270   0.2284   0.2347   0.2373   0.2383   0.2428   0.2443   0.2466
  0.2499   0.2528   0.2556   0.2587   0.2625   0.2631   0.2685   0.2695
  0.2709   0.2728   0.2753   0.2768   0.2797   0.2832   0.2865   0.2881
  0.2923   0.2928   0.2970   0.3011   0.3031   0.3048   0.3098   0.3126
  0.3170   0.3195   0.3221   0.3239   0.3257   0.3307   0.3326   0.3371
  0.3381   0.3403   0.3447   0.3490   0.3506   0.3519   0.3566   0.3595
  0.3627   0.3649   0.3716   0.3722   0.3776   0.3810   0.3887   0.3915
  0.3921   0.3934   0.4037   0.4068   0.4148   0.4224   0.4255   0.4296
  0.4353   0.4412   0.4521   0.4613   0.4832   0.4882   0.4917   0.5013
  0.5067   0.5101   0.5224   0.5303   0.5412   0.5436   0.5536   0.5583
  0.5641   0.5652   0.5692   0.5720   0.5754   0.5833   0.5854   0.5896
  0.5974   0.5985   0.6039   0.6092   0.6105   0.6141   0.6220   0.6272
  0.6309   0.6397   0.6423   0.6458   0.6487   0.6547   0.6614   0.6643
  0.6668   0.6712   0.6720   0.6723   0.6759   0.6853   0.6872   0.6929
  0.6936   0.6974   0.7045   0.7154   0.7176   0.7228   0.7311   0.7367
  0.7427   0.7478   0.7537   0.7604   0.7635   0.7722   0.7732   0.7813
  0.7876   0.7949   0.7969   0.8012   0.8093   0.8183   0.8190   0.8309
  0.8398   0.8551   0.8585   0.8660   0.8699   0.8773   0.8834   0.8978
  0.8987   0.9048   0.9068   0.9156   0.9223   0.9226   0.9335   0.9397
  0.9429   0.9501   0.9518   0.9589   0.9643   0.9689   0.9728   0.9758
  0.9869   0.9893   0.9994   1.0034   1.0078   1.0153   1.0179   1.0229
  1.0335   1.0375   1.0427   1.0519   1.0600   1.0692   1.0725   1.0812
  1.0884   1.0970   1.1022   1.1070   1.1100   1.1206   1.1254   1.1359
  1.1405   1.1472   1.1494   1.1591   1.1655   1.1750   1.1937   1.2022
  1.2069   1.2162   1.2326   1.2478   1.2510   1.2721   1.2772   1.2978
  1.3152   1.3307   1.3385   1.3481   1.3564   1.3731   1.3770   1.4018
  1.4134   1.4203   1.4281   1.4305   1.4637   1.4697   1.4804   1.4904
  1.4973   1.5068   1.5148   1.5175   1.5275   1.5291   1.5369   1.5431
  1.5450   1.5537   1.5567   1.5682   1.5737   1.5754   1.5794   1.5851
  1.6004   1.6056   1.6154   1.6173   1.6245   1.6305   1.6375   1.6425
  1.6567   1.6720   1.6812   1.6841   1.6927   1.7078   1.7115   1.7221
  1.7315   1.7531   1.7546   1.7703   1.7725   1.7747   1.7819   1.7898
  1.8003   1.8080   1.8161   1.8301   1.8348   1.8469   1.8586   1.8746
  1.8821   1.9014   1.9029   1.9107   1.9121   1.9167   1.9245   1.9268
  1.9356   1.9472   1.9594   1.9622   1.9634   1.9791   1.9837   1.9861
  1.9943   1.9980   2.0136   2.0158   2.0187   2.0350   2.0389   2.0530
  2.0580   2.0683   2.0813   2.0839   2.1004   2.1087   2.1172   2.1378
  2.1393   2.1417   2.1533   2.1718   2.1826   2.1897   2.1953   2.2139
  2.2278   2.2758   2.2789   2.3062   2.3153   2.3204   2.3393   2.3476
  2.3787   2.3875   2.3920   2.3978   2.4344   2.4380   2.4613   2.4704
  2.4760   2.4823   2.4870   2.4899   2.4988   2.5388   2.5432   2.5655
  2.5834   2.6051   2.6224   2.6307   2.6368   2.6427   2.6540   2.6618
  2.6641   2.6740   2.6983   2.7028   2.7168   2.7231   2.7270   2.7351
  2.7419   2.7496   2.7573   2.7677   2.7726   2.7771   2.7834   2.7893
  2.7928   2.7989   2.8000   2.8141   2.8181   2.8274   2.8320   2.8415
  2.8527   2.8590   2.8624   2.8909   2.8939   2.8991   2.9094   2.9145
  2.9232   2.9353   2.9466   2.9582   2.9620   2.9724   2.9800   2.9829
  3.0048   3.0316   3.0399   3.0503   3.0700   3.1057   3.1113   3.1149
  3.1309   3.1364   3.1482   3.1766   3.1775   3.2064   3.2166   3.2236
  3.2331   3.2415   3.2731   3.2880   3.3307   3.3473   3.3617   3.3727
  3.3826   3.3927   3.4091   3.4341   3.4567   3.4632   3.5066   3.5118
  3.5325   3.5384   3.5609   3.5753   3.5889   3.5934   3.6142   3.6248
  3.6720   3.6861   3.6920   3.8063   3.8151   3.8374   3.8600   3.8861
  3.9238   3.9299   4.0049   4.0250   4.0516   4.0670   4.0900   4.1152
  4.1637   4.1807   4.2004   4.2164   4.2948   4.3249   4.3477   4.5051
  4.8118   4.8379   4.8547   4.8674   4.9354   5.0198   5.1071   5.1211
  5.2342   5.2971   5.3579   5.5379   5.7452   5.8068   5.8649  23.5402
 23.6428  23.7043  23.8971  23.9222  23.9273  23.9470  23.9571  23.9612
 23.9631  23.9684  23.9829  23.9861  24.0581  24.0635  24.0679  24.1199
 24.1235  24.1812  24.1943  24.1971  35.7175  49.9667  50.0769  50.1278
 --------------------------------------------------------------
 
          Ground-State Mulliken Net Atomic Charges

     Atom                 Charge (a.u.)    Spin (a.u.)
  --------------------------------------------------------
      1 C                    -0.600537      -0.001183
      2 C                     0.452426       0.011257
      3 C                    -0.241656      -0.007871
      4 C                    -0.557524       0.010735
      5 C                    -0.252946      -0.014367
      6 N                     0.008094       0.020392
      7 C                     0.081424       0.041009
      8 C                    -0.171307       0.061340
      9 C                    -0.393183       0.080186
     10 C                    -0.398573       0.021445
     11 O                    -0.263676       0.005722
     12 C                     0.477601       0.044468
     13 C                    -0.272664       0.064698
     14 O                    -0.461433       0.182325
     15 C                     0.023181       0.038944
     16 C                     0.078329       0.013237
     17 C                    -0.555783       0.045942
     18 C                    -0.543438       0.018405
     19 C                    -0.021787       0.041280
     20 C                     0.061418      -0.008962
     21 C                    -0.160809       0.129127
     22 O                    -0.443207       0.185363
     23 C                     0.367233       0.019206
     24 C                     0.198242       0.017370
     25 C                    -0.594179      -0.002458
     26 H                     0.158698       0.000125
     27 H                     0.173459       0.000707
     28 H                     0.151943       0.000223
     29 H                     0.200302       0.000568
     30 H                     0.171860      -0.001254
     31 H                     0.482448       0.001166
     32 H                     0.216866      -0.005712
     33 H                     0.199911      -0.006773
     34 H                     0.311493      -0.000727
     35 H                     0.169572      -0.000472
     36 H                     0.196460      -0.003520
     37 H                     0.199349      -0.001764
     38 H                     0.162014      -0.002212
     39 H                     0.199214       0.001515
     40 H                     0.191164       0.000520
  --------------------------------------------------------
  Sum of atomic charges =    -1.000000
  Sum of spin   charges =     1.000000

 -----------------------------------------------------------------
                    Cartesian Multipole Moments
 -----------------------------------------------------------------
    Charge (ESU x 10^10)
                -4.8032
    Dipole Moment (Debye)
         X      13.1487      Y      -0.2654      Z       0.3884
       Tot      13.1571
    Quadrupole Moments (Debye-Ang)
        XX    -200.8149     XY     -23.4266     YY    -148.1508
        XZ       1.7165     YZ       1.4968     ZZ    -154.8592
    Octopole Moments (Debye-Ang^2)
       XXX     495.9259    XXY     156.6347    XYY     135.2422
       YYY     -24.9822    XXZ      13.4550    XYZ     -19.6844
       YYZ      -8.4634    XZZ      87.5653    YZZ       7.0047
       ZZZ       2.3146
    Hexadecapole Moments (Debye-Ang^3)
      XXXX  -12401.5616   XXXY    -627.3622   XXYY   -2676.8597
      XYYY     -71.6055   YYYY   -2581.9355   XXXZ     -80.5737
      XXYZ     -16.9866   XYYZ     -36.9803   YYYZ      -2.1674
      XXZZ   -2138.5746   XYZZ      22.5500   YYZZ    -605.7075
      XZZZ    -101.8919   YZZZ     -72.7640   ZZZZ    -376.1769
 -----------------------------------------------------------------
 Total job time:  2086.21s(wall), 13019.14s(cpu) 
 Wed Jun 12 04:33:53 2024

        *************************************************************
        *                                                           *
        *  Thank you very much for using Q-Chem.  Have a nice day.  *
        *                                                           *
        *************************************************************


