 Entering Gaussian System, Link 0=g16
 Input=271-rad.com
 Output=271-rad.log
 Initial command:
 /sysapps/ubuntu-applications/gaussian/Gaussian/AVX2/g16/l1.exe "/scratch/selhajj1/4233050/Gau-4149952.inp" -scrdir="/scratch/selhajj1/4233050/"
 Entering Link 1 = /sysapps/ubuntu-applications/gaussian/Gaussian/AVX2/g16/l1.exe PID=   4149969.
  
 Copyright (c) 1988,1990,1992,1993,1995,1998,2003,2009,2016,
            Gaussian, Inc.  All Rights Reserved.
  
 This is part of the Gaussian(R) 16 program.  It is based on
 the Gaussian(R) 09 system (copyright 2009, Gaussian, Inc.),
 the Gaussian(R) 03 system (copyright 2003, Gaussian, Inc.),
 the Gaussian(R) 98 system (copyright 1998, Gaussian, Inc.),
 the Gaussian(R) 94 system (copyright 1995, Gaussian, Inc.),
 the Gaussian 92(TM) system (copyright 1992, Gaussian, Inc.),
 the Gaussian 90(TM) system (copyright 1990, Gaussian, Inc.),
 the Gaussian 88(TM) system (copyright 1988, Gaussian, Inc.),
 the Gaussian 86(TM) system (copyright 1986, Carnegie Mellon
 University), and the Gaussian 82(TM) system (copyright 1983,
 Carnegie Mellon University). Gaussian is a federally registered
 trademark of Gaussian, Inc.
  
 This software contains proprietary and confidential information,
 including trade secrets, belonging to Gaussian, Inc.
  
 This software is provided under written license and may be
 used, copied, transmitted, or stored only in accord with that
 written license.
  
 The following legend is applicable only to US Government
 contracts under FAR:
  
                    RESTRICTED RIGHTS LEGEND
  
 Use, reproduction and disclosure by the US Government is
 subject to restrictions as set forth in subparagraphs (a)
 and (c) of the Commercial Computer Software - Restricted
 Rights clause in FAR 52.227-19.
  
 Gaussian, Inc.
 340 Quinnipiac St., Bldg. 40, Wallingford CT 06492
  
  
 ---------------------------------------------------------------
 Warning -- This program may not be used in any manner that
 competes with the business of Gaussian, Inc. or will provide
 assistance to any competitor of Gaussian, Inc.  The licensee
 of this program is prohibited from giving any competitor of
 Gaussian, Inc. access to this program.  By using this program,
 the user acknowledges that Gaussian, Inc. is engaged in the
 business of creating and licensing software in the field of
 computational chemistry and represents and warrants to the
 licensee that it is not a competitor of Gaussian, Inc. and that
 it will not use this program in any manner prohibited above.
 ---------------------------------------------------------------
  

 Cite this work as:
 Gaussian 16, Revision A.03,
 M. J. Frisch, G. W. Trucks, H. B. Schlegel, G. E. Scuseria, 
 M. A. Robb, J. R. Cheeseman, G. Scalmani, V. Barone, 
 G. A. Petersson, H. Nakatsuji, X. Li, M. Caricato, A. V. Marenich, 
 J. Bloino, B. G. Janesko, R. Gomperts, B. Mennucci, H. P. Hratchian, 
 J. V. Ortiz, A. F. Izmaylov, J. L. Sonnenberg, D. Williams-Young, 
 F. Ding, F. Lipparini, F. Egidi, J. Goings, B. Peng, A. Petrone, 
 T. Henderson, D. Ranasinghe, V. G. Zakrzewski, J. Gao, N. Rega, 
 G. Zheng, W. Liang, M. Hada, M. Ehara, K. Toyota, R. Fukuda, 
 J. Hasegawa, M. Ishida, T. Nakajima, Y. Honda, O. Kitao, H. Nakai, 
 T. Vreven, K. Throssell, J. A. Montgomery, Jr., J. E. Peralta, 
 F. Ogliaro, M. J. Bearpark, J. J. Heyd, E. N. Brothers, K. N. Kudin, 
 V. N. Staroverov, T. A. Keith, R. Kobayashi, J. Normand, 
 K. Raghavachari, A. P. Rendell, J. C. Burant, S. S. Iyengar, 
 J. Tomasi, M. Cossi, J. M. Millam, M. Klene, C. Adamo, R. Cammi, 
 J. W. Ochterski, R. L. Martin, K. Morokuma, O. Farkas, 
 J. B. Foresman, and D. J. Fox, Gaussian, Inc., Wallingford CT, 2016.
 
 ******************************************
 Gaussian 16:  ES64L-G16RevA.03 25-Dec-2016
                26-Dec-2023 
 ******************************************
 %chk=271-rad.chk
 %nproc=8
 Will use up to    8 processors via shared memory.
 %mem=30GB
 --------------------------------------
 #P UB3LYP/6-311++G(d,p) nosym opt freq
 --------------------------------------
 1/18=20,19=15,26=3,38=1/1,3;
 2/9=110,12=2,15=1,17=6,18=5,40=1/2;
 3/5=4,6=6,7=1111,11=2,25=1,30=1,71=1,74=-5,116=2/1,2,3;
 4//1;
 5/5=2,38=5/2;
 6/7=2,8=2,9=2,10=2,28=1/1;
 7/30=1/1,2,3,16;
 1/18=20,19=15,26=3/3(2);
 2/9=110,15=1/2;
 99//99;
 2/9=110,15=1/2;
 3/5=4,6=6,7=1111,11=2,25=1,30=1,71=1,74=-5,116=2/1,2,3;
 4/5=5,16=3,69=1/1;
 5/5=2,38=5/2;
 7/30=1/1,2,3,16;
 1/18=20,19=15,26=3/3(-5);
 2/9=110,15=1/2;
 6/7=2,8=2,9=2,10=2,19=2,28=1/1;
 99/9=1/99;
 Leave Link    1 at Tue Dec 26 20:02:23 2023, MaxMem=  4026531840 cpu:               0.5 elap:               0.2
 (Enter /sysapps/ubuntu-applications/gaussian/Gaussian/AVX2/g16/l101.exe)
 -------
 Radical
 -------
 Symbolic Z-matrix:
 Charge = -1 Multiplicity = 2
 C                    -1.00353   3.95548   0.13625 
 C                    -2.22121   3.28072   0.24951 
 C                    -2.26291   1.89037   0.13974 
 C                     0.18739   3.23958  -0.08769 
 C                     0.14551   1.8401   -0.19865 
 C                    -1.08702   1.17029  -0.08335 
 C                     1.4866    3.93816  -0.21747 
 C                     2.74681   3.17176  -0.45691 
 C                     2.71451   1.80247  -0.52853 
 C                     1.40321   1.09238  -0.43076 
 O                     1.5257    5.15813  -0.14451 
 O                     1.37238  -0.12692  -0.51926 
 N                     3.94081   3.92191  -0.68192 
 H                    -0.9936    5.03476   0.22308 
 H                    -3.1337    3.83676   0.42201 
 H                    -3.20766   1.36953   0.22775 
 H                    -1.14167   0.09193  -0.16468 
 H                     3.93535   4.94942  -0.61186 
 H                     4.79503   3.49645  -1.06244 
 N                     3.87949   0.97865  -0.71673 
 C                     5.0828    1.1475   -0.09335 
 C                     6.19782   0.17905  -0.35618 
 H                     3.7626    0.11308  -1.26578 
 H                     5.87274  -0.84766  -0.08658 
 H                     7.09583   0.43879   0.24447 
 H                     6.46769   0.20668  -1.43258 
 O                     5.25651   2.03988   0.72396 
 
 ITRead=  0  0  0  0  0  0  0  0  0  0  0  0  0  0  0  0  0  0  0  0
 ITRead=  0  0  0  0  0  0  0
 MicOpt= -1 -1 -1 -1 -1 -1 -1 -1 -1 -1 -1 -1 -1 -1 -1 -1 -1 -1 -1 -1
 MicOpt= -1 -1 -1 -1 -1 -1 -1
 NAtoms=     27 NQM=       27 NQMF=       0 NMMI=      0 NMMIF=      0
                NMic=       0 NMicF=      0.
                    Isotopes and Nuclear Properties:
 (Nuclear quadrupole moments (NQMom) in fm**2, nuclear magnetic moments (NMagM)
  in nuclear magnetons)

  Atom         1           2           3           4           5           6           7           8           9          10
 IAtWgt=          12          12          12          12          12          12          12          12          12          12
 AtmWgt=  12.0000000  12.0000000  12.0000000  12.0000000  12.0000000  12.0000000  12.0000000  12.0000000  12.0000000  12.0000000
 NucSpn=           0           0           0           0           0           0           0           0           0           0
 AtZEff=  -0.0000000  -0.0000000  -0.0000000  -0.0000000  -0.0000000  -0.0000000  -0.0000000  -0.0000000  -0.0000000  -0.0000000
 NQMom=    0.0000000   0.0000000   0.0000000   0.0000000   0.0000000   0.0000000   0.0000000   0.0000000   0.0000000   0.0000000
 NMagM=    0.0000000   0.0000000   0.0000000   0.0000000   0.0000000   0.0000000   0.0000000   0.0000000   0.0000000   0.0000000
 AtZNuc=   6.0000000   6.0000000   6.0000000   6.0000000   6.0000000   6.0000000   6.0000000   6.0000000   6.0000000   6.0000000

  Atom        11          12          13          14          15          16          17          18          19          20
 IAtWgt=          16          16          14           1           1           1           1           1           1          14
 AtmWgt=  15.9949146  15.9949146  14.0030740   1.0078250   1.0078250   1.0078250   1.0078250   1.0078250   1.0078250  14.0030740
 NucSpn=           0           0           2           1           1           1           1           1           1           2
 AtZEff=  -0.0000000  -0.0000000  -0.0000000  -0.0000000  -0.0000000  -0.0000000  -0.0000000  -0.0000000  -0.0000000  -0.0000000
 NQMom=    0.0000000   0.0000000   2.0440000   0.0000000   0.0000000   0.0000000   0.0000000   0.0000000   0.0000000   2.0440000
 NMagM=    0.0000000   0.0000000   0.4037610   2.7928460   2.7928460   2.7928460   2.7928460   2.7928460   2.7928460   0.4037610
 AtZNuc=   8.0000000   8.0000000   7.0000000   1.0000000   1.0000000   1.0000000   1.0000000   1.0000000   1.0000000   7.0000000

  Atom        21          22          23          24          25          26          27
 IAtWgt=          12          12           1           1           1           1          16
 AtmWgt=  12.0000000  12.0000000   1.0078250   1.0078250   1.0078250   1.0078250  15.9949146
 NucSpn=           0           0           1           1           1           1           0
 AtZEff=  -0.0000000  -0.0000000  -0.0000000  -0.0000000  -0.0000000  -0.0000000  -0.0000000
 NQMom=    0.0000000   0.0000000   0.0000000   0.0000000   0.0000000   0.0000000   0.0000000
 NMagM=    0.0000000   0.0000000   2.7928460   2.7928460   2.7928460   2.7928460   0.0000000
 AtZNuc=   6.0000000   6.0000000   1.0000000   1.0000000   1.0000000   1.0000000   8.0000000
 Leave Link  101 at Tue Dec 26 20:02:24 2023, MaxMem=  4026531840 cpu:               3.7 elap:               1.0
 (Enter /sysapps/ubuntu-applications/gaussian/Gaussian/AVX2/g16/l103.exe)

 GradGradGradGradGradGradGradGradGradGradGradGradGradGradGradGradGradGrad
 Berny optimization.
 Initialization pass.
                           ----------------------------
                           !    Initial Parameters    !
                           ! (Angstroms and Degrees)  !
 --------------------------                            --------------------------
 ! Name  Definition              Value          Derivative Info.                !
 --------------------------------------------------------------------------------
 ! R1    R(1,2)                  1.3967         estimate D2E/DX2                !
 ! R2    R(1,4)                  1.4075         estimate D2E/DX2                !
 ! R3    R(1,14)                 1.0828         estimate D2E/DX2                !
 ! R4    R(2,3)                  1.3953         estimate D2E/DX2                !
 ! R5    R(2,15)                 1.0824         estimate D2E/DX2                !
 ! R6    R(3,6)                  1.3968         estimate D2E/DX2                !
 ! R7    R(3,16)                 1.0824         estimate D2E/DX2                !
 ! R8    R(4,5)                  1.4045         estimate D2E/DX2                !
 ! R9    R(4,7)                  1.4808         estimate D2E/DX2                !
 ! R10   R(5,6)                  1.4075         estimate D2E/DX2                !
 ! R11   R(5,10)                 1.4815         estimate D2E/DX2                !
 ! R12   R(6,17)                 1.0828         estimate D2E/DX2                !
 ! R13   R(7,8)                  1.4943         estimate D2E/DX2                !
 ! R14   R(7,11)                 1.2228         estimate D2E/DX2                !
 ! R15   R(8,9)                  1.3715         estimate D2E/DX2                !
 ! R16   R(8,13)                 1.4279         estimate D2E/DX2                !
 ! R17   R(9,10)                 1.4944         estimate D2E/DX2                !
 ! R18   R(9,20)                 1.4392         estimate D2E/DX2                !
 ! R19   R(10,12)                1.2229         estimate D2E/DX2                !
 ! R20   R(13,18)                1.0299         estimate D2E/DX2                !
 ! R21   R(13,19)                1.0274         estimate D2E/DX2                !
 ! R22   R(20,21)                1.3657         estimate D2E/DX2                !
 ! R23   R(20,23)                1.0317         estimate D2E/DX2                !
 ! R24   R(21,22)                1.5001         estimate D2E/DX2                !
 ! R25   R(21,27)                1.2225         estimate D2E/DX2                !
 ! R26   R(22,24)                1.1102         estimate D2E/DX2                !
 ! R27   R(22,25)                1.1112         estimate D2E/DX2                !
 ! R28   R(22,26)                1.1101         estimate D2E/DX2                !
 ! A1    A(2,1,4)              120.3216         estimate D2E/DX2                !
 ! A2    A(2,1,14)             118.8821         estimate D2E/DX2                !
 ! A3    A(4,1,14)             120.7964         estimate D2E/DX2                !
 ! A4    A(1,2,3)              120.0702         estimate D2E/DX2                !
 ! A5    A(1,2,15)             119.9804         estimate D2E/DX2                !
 ! A6    A(3,2,15)             119.9494         estimate D2E/DX2                !
 ! A7    A(2,3,6)              120.0727         estimate D2E/DX2                !
 ! A8    A(2,3,16)             119.9457         estimate D2E/DX2                !
 ! A9    A(6,3,16)             119.9816         estimate D2E/DX2                !
 ! A10   A(1,4,5)              119.6149         estimate D2E/DX2                !
 ! A11   A(1,4,7)              121.089          estimate D2E/DX2                !
 ! A12   A(5,4,7)              119.2949         estimate D2E/DX2                !
 ! A13   A(4,5,6)              119.5921         estimate D2E/DX2                !
 ! A14   A(4,5,10)             119.3393         estimate D2E/DX2                !
 ! A15   A(6,5,10)             121.0683         estimate D2E/DX2                !
 ! A16   A(3,6,5)              120.3285         estimate D2E/DX2                !
 ! A17   A(3,6,17)             118.8759         estimate D2E/DX2                !
 ! A18   A(5,6,17)             120.7956         estimate D2E/DX2                !
 ! A19   A(4,7,8)              120.7985         estimate D2E/DX2                !
 ! A20   A(4,7,11)             119.5709         estimate D2E/DX2                !
 ! A21   A(8,7,11)             119.6241         estimate D2E/DX2                !
 ! A22   A(7,8,9)              120.0369         estimate D2E/DX2                !
 ! A23   A(7,8,13)             117.4521         estimate D2E/DX2                !
 ! A24   A(9,8,13)             122.4076         estimate D2E/DX2                !
 ! A25   A(8,9,10)             119.4477         estimate D2E/DX2                !
 ! A26   A(8,9,20)             124.0037         estimate D2E/DX2                !
 ! A27   A(10,9,20)            116.541          estimate D2E/DX2                !
 ! A28   A(5,10,9)             121.0207         estimate D2E/DX2                !
 ! A29   A(5,10,12)            119.5489         estimate D2E/DX2                !
 ! A30   A(9,10,12)            119.4165         estimate D2E/DX2                !
 ! A31   A(8,13,18)            120.5945         estimate D2E/DX2                !
 ! A32   A(8,13,19)            122.4151         estimate D2E/DX2                !
 ! A33   A(18,13,19)           116.2807         estimate D2E/DX2                !
 ! A34   A(9,20,21)            125.6452         estimate D2E/DX2                !
 ! A35   A(9,20,23)            117.2672         estimate D2E/DX2                !
 ! A36   A(21,20,23)           116.5192         estimate D2E/DX2                !
 ! A37   A(20,21,22)           119.6788         estimate D2E/DX2                !
 ! A38   A(20,21,27)           121.374          estimate D2E/DX2                !
 ! A39   A(22,21,27)           118.8672         estimate D2E/DX2                !
 ! A40   A(21,22,24)           109.6853         estimate D2E/DX2                !
 ! A41   A(21,22,25)           110.7994         estimate D2E/DX2                !
 ! A42   A(21,22,26)           109.5444         estimate D2E/DX2                !
 ! A43   A(24,22,25)           108.7573         estimate D2E/DX2                !
 ! A44   A(24,22,26)           109.2493         estimate D2E/DX2                !
 ! A45   A(25,22,26)           108.7769         estimate D2E/DX2                !
 ! D1    D(4,1,2,3)             -0.0562         estimate D2E/DX2                !
 ! D2    D(4,1,2,15)           179.9822         estimate D2E/DX2                !
 ! D3    D(14,1,2,3)           179.9106         estimate D2E/DX2                !
 ! D4    D(14,1,2,15)           -0.0511         estimate D2E/DX2                !
 ! D5    D(2,1,4,5)              0.077          estimate D2E/DX2                !
 ! D6    D(2,1,4,7)            179.6799         estimate D2E/DX2                !
 ! D7    D(14,1,4,5)          -179.8891         estimate D2E/DX2                !
 ! D8    D(14,1,4,7)            -0.2862         estimate D2E/DX2                !
 ! D9    D(1,2,3,6)              0.0142         estimate D2E/DX2                !
 ! D10   D(1,2,3,16)          -179.9943         estimate D2E/DX2                !
 ! D11   D(15,2,3,6)           179.9759         estimate D2E/DX2                !
 ! D12   D(15,2,3,16)           -0.0326         estimate D2E/DX2                !
 ! D13   D(2,3,6,5)              0.0065         estimate D2E/DX2                !
 ! D14   D(2,3,6,17)           179.9574         estimate D2E/DX2                !
 ! D15   D(16,3,6,5)          -179.985          estimate D2E/DX2                !
 ! D16   D(16,3,6,17)           -0.0341         estimate D2E/DX2                !
 ! D17   D(1,4,5,6)             -0.0559         estimate D2E/DX2                !
 ! D18   D(1,4,5,10)          -179.8386         estimate D2E/DX2                !
 ! D19   D(7,4,5,6)           -179.666          estimate D2E/DX2                !
 ! D20   D(7,4,5,10)             0.5514         estimate D2E/DX2                !
 ! D21   D(1,4,7,8)           -179.9212         estimate D2E/DX2                !
 ! D22   D(1,4,7,11)            -0.8473         estimate D2E/DX2                !
 ! D23   D(5,4,7,8)             -0.317          estimate D2E/DX2                !
 ! D24   D(5,4,7,11)           178.7568         estimate D2E/DX2                !
 ! D25   D(4,5,6,3)              0.0146         estimate D2E/DX2                !
 ! D26   D(4,5,6,17)          -179.9353         estimate D2E/DX2                !
 ! D27   D(10,5,6,3)           179.7934         estimate D2E/DX2                !
 ! D28   D(10,5,6,17)           -0.1565         estimate D2E/DX2                !
 ! D29   D(4,5,10,9)             0.8883         estimate D2E/DX2                !
 ! D30   D(4,5,10,12)          179.5243         estimate D2E/DX2                !
 ! D31   D(6,5,10,9)          -178.891          estimate D2E/DX2                !
 ! D32   D(6,5,10,12)           -0.255          estimate D2E/DX2                !
 ! D33   D(4,7,8,9)             -1.4987         estimate D2E/DX2                !
 ! D34   D(4,7,8,13)           174.8942         estimate D2E/DX2                !
 ! D35   D(11,7,8,9)           179.4279         estimate D2E/DX2                !
 ! D36   D(11,7,8,13)           -4.1792         estimate D2E/DX2                !
 ! D37   D(7,8,9,10)             2.9104         estimate D2E/DX2                !
 ! D38   D(7,8,9,20)          -178.1234         estimate D2E/DX2                !
 ! D39   D(13,8,9,10)         -173.2979         estimate D2E/DX2                !
 ! D40   D(13,8,9,20)            5.6683         estimate D2E/DX2                !
 ! D41   D(7,8,13,18)            4.3062         estimate D2E/DX2                !
 ! D42   D(7,8,13,19)         -165.679          estimate D2E/DX2                !
 ! D43   D(9,8,13,18)         -179.3926         estimate D2E/DX2                !
 ! D44   D(9,8,13,19)           10.6221         estimate D2E/DX2                !
 ! D45   D(8,9,10,5)            -2.6944         estimate D2E/DX2                !
 ! D46   D(8,9,10,12)          178.6679         estimate D2E/DX2                !
 ! D47   D(20,9,10,5)          178.2636         estimate D2E/DX2                !
 ! D48   D(20,9,10,12)          -0.3742         estimate D2E/DX2                !
 ! D49   D(8,9,20,21)           42.8459         estimate D2E/DX2                !
 ! D50   D(8,9,20,23)         -146.1343         estimate D2E/DX2                !
 ! D51   D(10,9,20,21)        -138.1604         estimate D2E/DX2                !
 ! D52   D(10,9,20,23)          32.8595         estimate D2E/DX2                !
 ! D53   D(9,20,21,22)         177.9854         estimate D2E/DX2                !
 ! D54   D(9,20,21,27)           1.2762         estimate D2E/DX2                !
 ! D55   D(23,20,21,22)          6.9058         estimate D2E/DX2                !
 ! D56   D(23,20,21,27)       -169.8034         estimate D2E/DX2                !
 ! D57   D(20,21,22,24)        -58.4288         estimate D2E/DX2                !
 ! D58   D(20,21,22,25)       -178.5099         estimate D2E/DX2                !
 ! D59   D(20,21,22,26)         61.4755         estimate D2E/DX2                !
 ! D60   D(27,21,22,24)        118.363          estimate D2E/DX2                !
 ! D61   D(27,21,22,25)         -1.7181         estimate D2E/DX2                !
 ! D62   D(27,21,22,26)       -121.7327         estimate D2E/DX2                !
 --------------------------------------------------------------------------------
 Trust Radius=3.00D-01 FncErr=1.00D-07 GrdErr=1.00D-06 EigMax=2.50D+02 EigMin=1.00D-04
 Number of steps in this run=    145 maximum allowed number of steps=    162.
 GradGradGradGradGradGradGradGradGradGradGradGradGradGradGradGradGradGrad

 Leave Link  103 at Tue Dec 26 20:02:25 2023, MaxMem=  4026531840 cpu:               0.4 elap:               0.2
 (Enter /sysapps/ubuntu-applications/gaussian/Gaussian/AVX2/g16/l202.exe)
                          Input orientation:                          
 ---------------------------------------------------------------------
 Center     Atomic      Atomic             Coordinates (Angstroms)
 Number     Number       Type             X           Y           Z
 ---------------------------------------------------------------------
      1          6           0       -1.003528    3.955478    0.136246
      2          6           0       -2.221210    3.280716    0.249512
      3          6           0       -2.262913    1.890370    0.139741
      4          6           0        0.187391    3.239583   -0.087688
      5          6           0        0.145514    1.840104   -0.198650
      6          6           0       -1.087018    1.170294   -0.083354
      7          6           0        1.486598    3.938163   -0.217470
      8          6           0        2.746811    3.171763   -0.456908
      9          6           0        2.714511    1.802468   -0.528530
     10          6           0        1.403213    1.092376   -0.430762
     11          8           0        1.525702    5.158130   -0.144512
     12          8           0        1.372380   -0.126923   -0.519258
     13          7           0        3.940810    3.921911   -0.681924
     14          1           0       -0.993605    5.034761    0.223081
     15          1           0       -3.133701    3.836760    0.422005
     16          1           0       -3.207663    1.369528    0.227747
     17          1           0       -1.141669    0.091926   -0.164682
     18          1           0        3.935347    4.949422   -0.611861
     19          1           0        4.795027    3.496446   -1.062443
     20          7           0        3.879487    0.978645   -0.716727
     21          6           0        5.082802    1.147498   -0.093345
     22          6           0        6.197824    0.179052   -0.356178
     23          1           0        3.762599    0.113083   -1.265784
     24          1           0        5.872741   -0.847661   -0.086578
     25          1           0        7.095831    0.438792    0.244471
     26          1           0        6.467685    0.206675   -1.432578
     27          8           0        5.256514    2.039881    0.723960
 ---------------------------------------------------------------------
                    Distance matrix (angstroms):
                    1          2          3          4          5
     1  C    0.000000
     2  C    1.396740   0.000000
     3  C    2.418829   1.395296   0.000000
     4  C    1.407458   2.432438   2.806437   0.000000
     5  C    2.430486   2.806705   2.432602   1.404496   0.000000
     6  C    2.795075   2.418899   1.396786   2.430245   1.407505
     7  C    2.515183   3.794490   4.287178   1.480810   2.490124
     8  C    3.876994   5.019176   5.205313   2.586804   2.933728
     9  C    4.347550   5.210750   5.022854   2.940405   2.590364
    10  C    3.783022   4.288129   3.795095   2.491270   1.481479
    11  O    2.814640   4.209428   5.011253   2.339899   3.594043
    12  O    4.768713   5.011676   4.209407   3.594971   2.340338
    13  N    5.011687   6.264918   6.579397   3.860938   4.355657
    14  H    1.082816   2.141119   3.391945   2.171173   3.417790
    15  H    2.152531   1.082395   2.150902   3.412632   3.889100
    16  H    3.399076   2.150861   1.082393   3.888830   3.412778
    17  H    3.877715   3.391953   2.141089   3.417612   2.171202
    18  H    5.093141   6.436594   6.952779   4.152769   4.919496
    19  H    5.938923   7.141102   7.337523   4.716613   5.010746
    20  N    5.782122   6.591787   6.268482   4.374827   3.866921
    21  C    6.706779   7.616874   7.386862   5.323712   4.986744
    22  C    8.146370   8.992625   8.646306   6.750129   6.278086
    23  H    6.280578   6.938010   6.437472   4.893366   4.147852
    24  H    8.390642   9.092222   8.587019   7.002055   6.327540
    25  H    8.830539   9.740832   9.471227   7.461991   7.104009
    26  H    8.504926   9.368888   9.029416   7.102771   6.645338
    27  O    6.572902   7.594809   7.543570   5.272008   5.197445
                    6          7          8          9         10
     6  C    0.000000
     7  C    3.781876   0.000000
     8  C    4.340928   1.494267   0.000000
     9  C    3.879362   2.483087   1.371547   0.000000
    10  C    2.515554   2.854987   2.475841   1.494420   0.000000
    11  O    4.767900   1.222772   2.352520   3.580671   4.077658
    12  O    2.814502   4.077872   3.574112   2.350309   1.222895
    13  N    5.762702   2.497826   1.427932   2.453442   3.809035
    14  H    3.877723   2.747366   4.233657   4.976219   4.659898
    15  H    3.399168   4.665445   5.982903   6.264459   5.370517
    16  H    2.152584   5.369562   6.258799   5.985945   4.665901
    17  H    1.082810   4.658767   4.969010   4.234201   2.747385
    18  H    6.307557   2.678537   2.143992   3.376493   4.617500
    19  H    6.400628   3.443079   2.160389   2.735538   4.205113
    20  N    5.010395   3.838479   2.481981   1.439192   2.495325
    21  C    6.169870   4.553669   3.112344   2.495431   3.695438
    22  C    7.357031   6.028748   4.569021   3.846901   4.881394
    23  H    5.102413   4.572786   3.322895   2.120390   2.687560
    24  H    7.246405   6.493034   5.105326   4.146434   4.884555
    25  H    8.222018   6.627404   5.184114   4.653290   5.769663
    26  H    7.734501   6.341271   4.856808   4.177341   5.238032
    27  O    6.453551   4.324584   2.995699   2.843743   4.132683
                   11         12         13         14         15
    11  O    0.000000
    12  O    5.300540   0.000000
    13  N    2.765827   4.797535   0.000000
    14  H    2.548970   5.726424   5.138669   0.000000
    15  H    4.876166   6.074663   7.160630   2.460649   0.000000
    16  H    6.074275   4.875877   7.644791   4.282057   2.475972
    17  H    5.725530   2.548345   6.384975   4.960232   4.282076
    18  H    2.463405   5.687412   1.029912   4.999898   7.230376
    19  H    3.780513   5.013817   1.027376   6.125948   8.073669
    20  N    4.830717   2.747155   2.944110   6.409551   7.658351
    21  C    5.361040   3.946237   3.057440   7.220365   8.660753
    22  C    6.831160   4.837884   4.382832   8.696556  10.052947
    23  H    5.631470   2.515561   3.857437   7.004363   8.017067
    24  H    7.414150   4.578201   5.180310   9.046849  10.164568
    25  H    7.310937   5.801828   4.790040   9.303890  10.780586
    26  H    7.113313   5.187251   4.555388   9.040048  10.430897
    27  O    4.939299   4.618130   2.692512   6.948681   8.585782
                   16         17         18         19         20
    16  H    0.000000
    17  H    2.460610   0.000000
    18  H    8.033877   7.040691   0.000000
    19  H    8.380418   6.902252   1.747345   0.000000
    20  N    7.160484   5.128648   3.972554   2.701306   0.000000
    21  C    8.299652   6.313744   4.005014   2.557249   1.365680
    22  C    9.498494   7.342507   5.285887   3.670389   2.478715
    23  H    7.238359   5.026401   4.883404   3.543219   1.031661
    24  H    9.352458   7.077490   6.134785   4.580943   2.775885
    25  H   10.345460   8.254946   5.573845   4.043634   3.400031
    26  H    9.885407   7.715115   5.438746   3.709094   2.794127
    27  O    8.505169   6.746922   3.463427   2.350699   2.257875
                   21         22         23         24         25
    21  C    0.000000
    22  C    1.500080   0.000000
    23  H    2.046354   2.600395   0.000000
    24  H    2.145858   1.110181   2.601202   0.000000
    25  H    2.160710   1.111153   3.673880   1.805687   0.000000
    26  H    2.143967   1.110057   2.711839   1.810331   1.805807
    27  O    1.222502   2.348499   3.146969   3.061798   2.485254
                   26         27
    26  H    0.000000
    27  O    3.078674   0.000000
 Symmetry turned off by external request.
 Stoichiometry    C12H10N2O3(1-,2)
 Framework group  C1[X(C12H10N2O3)]
 Deg. of freedom    75
 Full point group                 C1      NOp   1
 Rotational constants (GHZ):           0.9754307           0.3165221           0.2465786
 Leave Link  202 at Tue Dec 26 20:02:25 2023, MaxMem=  4026531840 cpu:               1.3 elap:               0.5
 (Enter /sysapps/ubuntu-applications/gaussian/Gaussian/AVX2/g16/l301.exe)
 Standard basis: 6-311++G(d,p) (5D, 7F)
 Ernie: Thresh=  0.10000D-02 Tol=  0.10000D-05 Strict=F.
   444 basis functions,   702 primitive gaussians,   461 cartesian basis functions
    61 alpha electrons       60 beta electrons
       nuclear repulsion energy      1145.1865590962 Hartrees.
 IExCor=  402 DFT=T Ex+Corr=B3LYP ExCW=0 ScaHFX=  0.200000
 ScaDFX=  0.800000  0.720000  1.000000  0.810000 ScalE2=  1.000000  1.000000
 IRadAn=      5 IRanWt=     -1 IRanGd=            0 ICorTp=0 IEmpDi=  4
 NAtoms=   27 NActive=   27 NUniq=   27 SFac= 1.00D+00 NAtFMM=   60 NAOKFM=F Big=F
 Integral buffers will be    131072 words long.
 Raffenetti 2 integral format.
 Two-electron integral symmetry is turned off.
 Leave Link  301 at Tue Dec 26 20:02:26 2023, MaxMem=  4026531840 cpu:               1.1 elap:               0.3
 (Enter /sysapps/ubuntu-applications/gaussian/Gaussian/AVX2/g16/l302.exe)
 NPDir=0 NMtPBC=     1 NCelOv=     1 NCel=       1 NClECP=     1 NCelD=      1
         NCelK=      1 NCelE2=     1 NClLst=     1 CellRange=     0.0.
 One-electron integrals computed using PRISM.
 NBasis=   444 RedAO= T EigKep=  1.26D-06  NBF=   444
 NBsUse=   440 1.00D-06 EigRej=  9.38D-07 NBFU=   440
 Precomputing XC quadrature grid using
 IXCGrd= 4 IRadAn=           5 IRanWt=          -1 IRanGd=           0 AccXCQ= 0.00D+00.
 Generated NRdTot=       0 NPtTot=           0 NUsed=           0 NTot=          32
 NSgBfM=   460   460   460   460   460 MxSgAt=    27 MxSgA2=    27.
 Leave Link  302 at Tue Dec 26 20:02:29 2023, MaxMem=  4026531840 cpu:              21.6 elap:               3.7
 (Enter /sysapps/ubuntu-applications/gaussian/Gaussian/AVX2/g16/l303.exe)
 DipDrv:  MaxL=1.
 Leave Link  303 at Tue Dec 26 20:02:30 2023, MaxMem=  4026531840 cpu:               2.0 elap:               0.5
 (Enter /sysapps/ubuntu-applications/gaussian/Gaussian/AVX2/g16/l401.exe)
 ExpMin= 3.60D-02 ExpMax= 8.59D+03 ExpMxC= 1.30D+03 IAcc=3 IRadAn=         5 AccDes= 0.00D+00
 Harris functional with IExCor=  402 and IRadAn=       5 diagonalized for initial guess.
 HarFok:  IExCor=  402 AccDes= 0.00D+00 IRadAn=         5 IDoV= 1 UseB2=F ITyADJ=14
 ICtDFT=  3500011 ScaDFX=  1.000000  1.000000  1.000000  1.000000
 FoFCou: FMM=F IPFlag=           0 FMFlag=      100000 FMFlg1=           0
         NFxFlg=           0 DoJE=T BraDBF=F KetDBF=T FulRan=T
         wScrn=  0.000000 ICntrl=       500 IOpCl=  0 I1Cent=   200000004 NGrid=           0
         NMat0=    1 NMatS0=      1 NMatT0=    0 NMatD0=    1 NMtDS0=    0 NMtDT0=    0
 Symmetry not used in FoFCou.
 Harris En= -798.950575464047    
 JPrj=0 DoOrth=F DoCkMO=F.
 Initial guess <Sx>= 0.0000 <Sy>= 0.0000 <Sz>= 0.5000 <S**2>= 0.7500 S= 0.5000
 Leave Link  401 at Tue Dec 26 20:02:37 2023, MaxMem=  4026531840 cpu:              36.8 elap:               7.1
 (Enter /sysapps/ubuntu-applications/gaussian/Gaussian/AVX2/g16/l502.exe)
 Two-electron integral symmetry not used.
 UHF open shell SCF:
 Using DIIS extrapolation, IDIIS=  1040.
 NGot=  4026531840 LenX=  4026099796 LenY=  4025886814
 Requested convergence on RMS density matrix=1.00D-08 within 128 cycles.
 Requested convergence on MAX density matrix=1.00D-06.
 Requested convergence on             energy=1.00D-06.
 No special actions if energy rises.
 Fock matrices will be formed incrementally for  20 cycles.

 Cycle   1  Pass 1  IDiag  1:
 FoFJK:  IHMeth= 1 ICntrl=       0 DoSepK=F KAlg= 0 I1Cent=           0 FoldK=F
 IRaf= 850000000 NMat=       1 IRICut=       1 DoRegI=T DoRafI=F ISym2E= 0 IDoP0=0 IntGTp=1.
 FoFCou: FMM=F IPFlag=           0 FMFlag=      100000 FMFlg1=           0
         NFxFlg=           0 DoJE=F BraDBF=F KetDBF=F FulRan=T
         wScrn=  0.000000 ICntrl=         0 IOpCl=  1 I1Cent=           0 NGrid=           0
         NMat0=    1 NMatS0=      1 NMatT0=    0 NMatD0=    1 NMtDS0=    0 NMtDT0=    0
 Symmetry not used in FoFCou.
 E= -798.236595990087    
 DIIS: error= 3.36D-02 at cycle   1 NSaved=   1.
 NSaved= 1 IEnMin= 1 EnMin= -798.236595990087     IErMin= 1 ErrMin= 3.36D-02
 ErrMax= 3.36D-02  0.00D+00 EMaxC= 1.00D-01 BMatC= 2.65D+00 BMatP= 2.65D+00
 IDIUse=3 WtCom= 6.64D-01 WtEn= 3.36D-01
 Coeff-Com:  0.100D+01
 Coeff-En:   0.100D+01
 Coeff:      0.100D+01
 Gap=     0.095 Goal=   None    Shift=    0.000
 Gap=     0.180 Goal=   None    Shift=    0.000
 GapD=    0.095 DampG=0.500 DampE=0.500 DampFc=0.2500 IDamp=-1.
 Damping current iteration by 2.50D-01
 RMSDP=7.59D-01 MaxDP=1.12D+02              OVMax= 7.84D-01

 Cycle   2  Pass 1  IDiag  1:
 RMSU=  1.80D-01    CP:  2.01D+00
 E= -798.359230686429     Delta-E=       -0.122634696341 Rises=F Damp=T
 DIIS: error= 1.41D-02 at cycle   2 NSaved=   2.
 NSaved= 2 IEnMin= 2 EnMin= -798.359230686429     IErMin= 2 ErrMin= 1.41D-02
 ErrMax= 1.41D-02  0.00D+00 EMaxC= 1.00D-01 BMatC= 4.52D-01 BMatP= 2.65D+00
 IDIUse=3 WtCom= 8.59D-01 WtEn= 1.41D-01
 Coeff-Com: -0.339D+00 0.134D+01
 Coeff-En:   0.215D+00 0.785D+00
 Coeff:     -0.261D+00 0.126D+01
 Gap=     0.321 Goal=   None    Shift=    0.000
 Gap=    -0.169 Goal=   None    Shift=    0.000
 RMSDP=1.84D-01 MaxDP=2.80D+01 DE=-1.23D-01 OVMax= 8.47D-01

 Cycle   3  Pass 1  IDiag  1:
 RMSU=  1.10D-02    CP:  1.17D+00  1.47D-02
 E= -798.527347150184     Delta-E=       -0.168116463755 Rises=F Damp=F
 DIIS: error= 3.06D-02 at cycle   3 NSaved=   3.
 NSaved= 3 IEnMin= 3 EnMin= -798.527347150184     IErMin= 2 ErrMin= 1.41D-02
 ErrMax= 3.06D-02  0.00D+00 EMaxC= 1.00D-01 BMatC= 9.62D-01 BMatP= 4.52D-01
 IDIUse=2 WtCom= 0.00D+00 WtEn= 1.00D+00
 Coeff-En:   0.000D+00 0.236D+00 0.764D+00
 Coeff:      0.000D+00 0.236D+00 0.764D+00
 Gap=     0.077 Goal=   None    Shift=    0.000
 Gap=     0.196 Goal=   None    Shift=    0.000
 RMSDP=4.32D-01 MaxDP=6.13D+01 DE=-1.68D-01 OVMax= 9.98D-01

 Cycle   4  Pass 1  IDiag  1:
 RMSU=  7.04D-02    CP:  3.00D+00  2.30D+00  4.71D-01
 E= -795.391505412915     Delta-E=        3.135841737270 Rises=F Damp=F
 DIIS: error= 1.48D-01 at cycle   4 NSaved=   4.
 NSaved= 4 IEnMin= 3 EnMin= -798.527347150184     IErMin= 2 ErrMin= 1.41D-02
 ErrMax= 1.48D-01  0.00D+00 EMaxC= 1.00D-01 BMatC= 8.21D+00 BMatP= 4.52D-01
 IDIUse=2 WtCom= 0.00D+00 WtEn= 1.00D+00
 Coeff-En:   0.000D+00 0.000D+00 0.871D+00 0.129D+00
 Coeff:      0.000D+00 0.000D+00 0.871D+00 0.129D+00
 Gap=     0.041 Goal=   None    Shift=    0.000
 Gap=     0.001 Goal=   None    Shift=    0.000
 RMSDP=4.30D-01 MaxDP=6.12D+01 DE= 3.14D+00 OVMax= 9.93D-01

 Cycle   5  Pass 1  IDiag  1:
 RMSU=  1.73D-02    CP:  1.17D+00  2.59D-02  4.49D-01  4.79D-03
 E= -798.583316390243     Delta-E=       -3.191810977328 Rises=F Damp=F
 DIIS: error= 2.95D-02 at cycle   5 NSaved=   5.
 NSaved= 5 IEnMin= 5 EnMin= -798.583316390243     IErMin= 2 ErrMin= 1.41D-02
 ErrMax= 2.95D-02  0.00D+00 EMaxC= 1.00D-01 BMatC= 8.26D-01 BMatP= 4.52D-01
 IDIUse=2 WtCom= 0.00D+00 WtEn= 1.00D+00
 Coeff-En:   0.000D+00 0.000D+00 0.450D+00 0.000D+00 0.550D+00
 Coeff:      0.000D+00 0.000D+00 0.450D+00 0.000D+00 0.550D+00
 Gap=     0.082 Goal=   None    Shift=    0.000
 Gap=     0.164 Goal=   None    Shift=    0.000
 RMSDP=9.93D-03 MaxDP=1.95D+00 DE=-3.19D+00 OVMax= 2.16D-01

 Cycle   6  Pass 1  IDiag  1:
 RMSU=  7.74D-03    CP:  1.10D+00  3.66D-02  6.83D-01  1.61D-02  8.52D-01
 E= -798.754581730635     Delta-E=       -0.171265340393 Rises=F Damp=F
 DIIS: error= 6.63D-03 at cycle   6 NSaved=   6.
 NSaved= 6 IEnMin= 6 EnMin= -798.754581730635     IErMin= 6 ErrMin= 6.63D-03
 ErrMax= 6.63D-03  0.00D+00 EMaxC= 1.00D-01 BMatC= 7.91D-02 BMatP= 4.52D-01
 IDIUse=3 WtCom= 9.34D-01 WtEn= 6.63D-02
 Coeff-Com: -0.634D-01 0.146D+00 0.241D+00-0.164D-01 0.293D+00 0.400D+00
 Coeff-En:   0.000D+00 0.000D+00 0.000D+00 0.000D+00 0.688D-02 0.993D+00
 Coeff:     -0.592D-01 0.136D+00 0.225D+00-0.153D-01 0.274D+00 0.440D+00
 Gap=     0.063 Goal=   None    Shift=    0.000
 Gap=     0.144 Goal=   None    Shift=    0.000
 RMSDP=2.90D-03 MaxDP=2.90D-01 DE=-1.71D-01 OVMax= 4.72D-02

 Cycle   7  Pass 1  IDiag  1:
 RMSU=  2.06D-03    CP:  1.11D+00  3.64D-02  7.15D-01  1.66D-02  7.67D-01
                    CP:  8.46D-01
 E= -798.769074863339     Delta-E=       -0.014493132703 Rises=F Damp=F
 DIIS: error= 2.41D-03 at cycle   7 NSaved=   7.
 NSaved= 7 IEnMin= 7 EnMin= -798.769074863339     IErMin= 7 ErrMin= 2.41D-03
 ErrMax= 2.41D-03  0.00D+00 EMaxC= 1.00D-01 BMatC= 8.72D-03 BMatP= 7.91D-02
 IDIUse=3 WtCom= 9.76D-01 WtEn= 2.41D-02
 Coeff-Com: -0.224D-01 0.476D-01 0.320D-01-0.598D-02 0.303D-01 0.246D+00
 Coeff-Com:  0.672D+00
 Coeff-En:   0.000D+00 0.000D+00 0.000D+00 0.000D+00 0.000D+00 0.106D+00
 Coeff-En:   0.894D+00
 Coeff:     -0.218D-01 0.465D-01 0.313D-01-0.584D-02 0.296D-01 0.243D+00
 Coeff:      0.677D+00
 Gap=     0.067 Goal=   None    Shift=    0.000
 Gap=     0.138 Goal=   None    Shift=    0.000
 RMSDP=1.19D-03 MaxDP=1.75D-01 DE=-1.45D-02 OVMax= 2.75D-02

 Cycle   8  Pass 1  IDiag  1:
 RMSU=  8.27D-04    CP:  1.11D+00  3.80D-02  7.43D-01  1.59D-02  7.79D-01
                    CP:  9.28D-01  9.76D-01
 E= -798.770453170925     Delta-E=       -0.001378307587 Rises=F Damp=F
 DIIS: error= 1.47D-03 at cycle   8 NSaved=   8.
 NSaved= 8 IEnMin= 8 EnMin= -798.770453170925     IErMin= 8 ErrMin= 1.47D-03
 ErrMax= 1.47D-03  0.00D+00 EMaxC= 1.00D-01 BMatC= 2.58D-03 BMatP= 8.72D-03
 IDIUse=3 WtCom= 9.85D-01 WtEn= 1.47D-02
 Coeff-Com: -0.374D-02 0.609D-02-0.146D-02-0.109D-03-0.101D-01 0.130D+00
 Coeff-Com:  0.487D+00 0.393D+00
 Coeff-En:   0.000D+00 0.000D+00 0.000D+00 0.000D+00 0.000D+00 0.000D+00
 Coeff-En:   0.202D+00 0.798D+00
 Coeff:     -0.368D-02 0.600D-02-0.144D-02-0.107D-03-0.995D-02 0.128D+00
 Coeff:      0.482D+00 0.399D+00
 Gap=     0.067 Goal=   None    Shift=    0.000
 Gap=     0.138 Goal=   None    Shift=    0.000
 RMSDP=6.57D-04 MaxDP=1.08D-01 DE=-1.38D-03 OVMax= 1.08D-02

 Cycle   9  Pass 1  IDiag  1:
 RMSU=  2.34D-04    CP:  1.10D+00  3.71D-02  7.39D-01  1.64D-02  7.68D-01
                    CP:  9.17D-01  9.21D-01  5.84D-01
 E= -798.771049876789     Delta-E=       -0.000596705863 Rises=F Damp=F
 DIIS: error= 4.12D-04 at cycle   9 NSaved=   9.
 NSaved= 9 IEnMin= 9 EnMin= -798.771049876789     IErMin= 9 ErrMin= 4.12D-04
 ErrMax= 4.12D-04  0.00D+00 EMaxC= 1.00D-01 BMatC= 9.16D-05 BMatP= 2.58D-03
 IDIUse=3 WtCom= 9.96D-01 WtEn= 4.12D-03
 Coeff-Com:  0.551D-03-0.193D-02-0.568D-02 0.549D-03-0.748D-02 0.387D-01
 Coeff-Com:  0.161D+00 0.179D+00 0.635D+00
 Coeff-En:   0.000D+00 0.000D+00 0.000D+00 0.000D+00 0.000D+00 0.000D+00
 Coeff-En:   0.000D+00 0.000D+00 0.100D+01
 Coeff:      0.548D-03-0.193D-02-0.566D-02 0.547D-03-0.745D-02 0.386D-01
 Coeff:      0.160D+00 0.179D+00 0.636D+00
 Gap=     0.067 Goal=   None    Shift=    0.000
 Gap=     0.138 Goal=   None    Shift=    0.000
 RMSDP=1.22D-04 MaxDP=1.20D-02 DE=-5.97D-04 OVMax= 2.71D-03

 Cycle  10  Pass 1  IDiag  1:
 RMSU=  7.67D-05    CP:  1.10D+00  3.73D-02  7.37D-01  1.65D-02  7.71D-01
                    CP:  9.24D-01  9.28D-01  6.06D-01  9.79D-01
 E= -798.771079631823     Delta-E=       -0.000029755035 Rises=F Damp=F
 DIIS: error= 1.34D-04 at cycle  10 NSaved=  10.
 NSaved=10 IEnMin=10 EnMin= -798.771079631823     IErMin=10 ErrMin= 1.34D-04
 ErrMax= 1.34D-04  0.00D+00 EMaxC= 1.00D-01 BMatC= 2.34D-05 BMatP= 9.16D-05
 IDIUse=3 WtCom= 9.99D-01 WtEn= 1.34D-03
 Coeff-Com:  0.509D-03-0.566D-03-0.255D-02 0.306D-03-0.121D-02-0.154D-01
 Coeff-Com: -0.533D-01-0.231D-01 0.311D+00 0.784D+00
 Coeff-En:   0.000D+00 0.000D+00 0.000D+00 0.000D+00 0.000D+00 0.000D+00
 Coeff-En:   0.000D+00 0.000D+00 0.000D+00 0.100D+01
 Coeff:      0.508D-03-0.566D-03-0.255D-02 0.305D-03-0.121D-02-0.154D-01
 Coeff:     -0.533D-01-0.230D-01 0.311D+00 0.784D+00
 Gap=     0.067 Goal=   None    Shift=    0.000
 Gap=     0.138 Goal=   None    Shift=    0.000
 RMSDP=6.80D-05 MaxDP=6.49D-03 DE=-2.98D-05 OVMax= 3.11D-03

 Cycle  11  Pass 1  IDiag  1:
 RMSU=  4.83D-05    CP:  1.10D+00  3.73D-02  7.37D-01  1.66D-02  7.70D-01
                    CP:  9.25D-01  9.25D-01  5.90D-01  1.09D+00  1.32D+00
 E= -798.771091507607     Delta-E=       -0.000011875784 Rises=F Damp=F
 DIIS: error= 6.01D-05 at cycle  11 NSaved=  11.
 NSaved=11 IEnMin=11 EnMin= -798.771091507607     IErMin=11 ErrMin= 6.01D-05
 ErrMax= 6.01D-05  0.00D+00 EMaxC= 1.00D-01 BMatC= 6.19D-06 BMatP= 2.34D-05
 IDIUse=1 WtCom= 1.00D+00 WtEn= 0.00D+00
 Coeff-Com:  0.183D-04 0.167D-03 0.315D-03 0.303D-04 0.156D-02-0.173D-01
 Coeff-Com: -0.684D-01-0.565D-01-0.276D-01 0.407D+00 0.761D+00
 Coeff:      0.183D-04 0.167D-03 0.315D-03 0.303D-04 0.156D-02-0.173D-01
 Coeff:     -0.684D-01-0.565D-01-0.276D-01 0.407D+00 0.761D+00
 Gap=     0.067 Goal=   None    Shift=    0.000
 Gap=     0.139 Goal=   None    Shift=    0.000
 RMSDP=4.01D-05 MaxDP=4.90D-03 DE=-1.19D-05 OVMax= 1.55D-03

 Cycle  12  Pass 1  IDiag  1:
 RMSU=  2.66D-05    CP:  1.10D+00  3.73D-02  7.37D-01  1.65D-02  7.69D-01
                    CP:  9.25D-01  9.29D-01  6.06D-01  1.15D+00  1.43D+00
                    CP:  9.67D-01
 E= -798.771094331211     Delta-E=       -0.000002823604 Rises=F Damp=F
 DIIS: error= 2.93D-05 at cycle  12 NSaved=  12.
 NSaved=12 IEnMin=12 EnMin= -798.771094331211     IErMin=12 ErrMin= 2.93D-05
 ErrMax= 2.93D-05  0.00D+00 EMaxC= 1.00D-01 BMatC= 1.80D-06 BMatP= 6.19D-06
 IDIUse=1 WtCom= 1.00D+00 WtEn= 0.00D+00
 Coeff-Com: -0.250D-04 0.293D-05 0.614D-03-0.282D-04 0.103D-02-0.785D-02
 Coeff-Com: -0.310D-01-0.291D-01-0.776D-01 0.108D+00 0.458D+00 0.578D+00
 Coeff:     -0.250D-04 0.293D-05 0.614D-03-0.282D-04 0.103D-02-0.785D-02
 Coeff:     -0.310D-01-0.291D-01-0.776D-01 0.108D+00 0.458D+00 0.578D+00
 Gap=     0.067 Goal=   None    Shift=    0.000
 Gap=     0.139 Goal=   None    Shift=    0.000
 RMSDP=2.12D-05 MaxDP=2.42D-03 DE=-2.82D-06 OVMax= 6.01D-04

 Cycle  13  Pass 1  IDiag  1:
 RMSU=  1.28D-05    CP:  1.10D+00  3.73D-02  7.38D-01  1.65D-02  7.69D-01
                    CP:  9.26D-01  9.29D-01  6.16D-01  1.17D+00  1.45D+00
                    CP:  1.05D+00  1.08D+00
 E= -798.771094939674     Delta-E=       -0.000000608463 Rises=F Damp=F
 DIIS: error= 1.43D-05 at cycle  13 NSaved=  13.
 NSaved=13 IEnMin=13 EnMin= -798.771094939674     IErMin=13 ErrMin= 1.43D-05
 ErrMax= 1.43D-05  0.00D+00 EMaxC= 1.00D-01 BMatC= 2.73D-07 BMatP= 1.80D-06
 IDIUse=1 WtCom= 1.00D+00 WtEn= 0.00D+00
 Coeff-Com: -0.249D-04 0.114D-04 0.325D-03-0.608D-05 0.645D-04-0.279D-04
 Coeff-Com:  0.126D-02-0.113D-02-0.246D-01-0.387D-01 0.202D-01 0.282D+00
 Coeff-Com:  0.760D+00
 Coeff:     -0.249D-04 0.114D-04 0.325D-03-0.608D-05 0.645D-04-0.279D-04
 Coeff:      0.126D-02-0.113D-02-0.246D-01-0.387D-01 0.202D-01 0.282D+00
 Coeff:      0.760D+00
 Gap=     0.067 Goal=   None    Shift=    0.000
 Gap=     0.139 Goal=   None    Shift=    0.000
 RMSDP=9.30D-06 MaxDP=1.11D-03 DE=-6.08D-07 OVMax= 2.78D-04

 Cycle  14  Pass 1  IDiag  1:
 RMSU=  5.83D-06    CP:  1.10D+00  3.73D-02  7.38D-01  1.65D-02  7.69D-01
                    CP:  9.26D-01  9.30D-01  6.13D-01  1.17D+00  1.49D+00
                    CP:  1.11D+00  1.13D+00  9.66D-01
 E= -798.771095034502     Delta-E=       -0.000000094828 Rises=F Damp=F
 DIIS: error= 7.87D-06 at cycle  14 NSaved=  14.
 NSaved=14 IEnMin=14 EnMin= -798.771095034502     IErMin=14 ErrMin= 7.87D-06
 ErrMax= 7.87D-06  0.00D+00 EMaxC= 1.00D-01 BMatC= 7.68D-08 BMatP= 2.73D-07
 IDIUse=1 WtCom= 1.00D+00 WtEn= 0.00D+00
 Coeff-Com:  0.321D-04-0.581D-04 0.745D-04 0.393D-05-0.171D-03 0.111D-02
 Coeff-Com:  0.563D-02 0.413D-02-0.144D-02-0.398D-01-0.577D-01 0.835D-01
 Coeff-Com:  0.442D+00 0.562D+00
 Coeff:      0.321D-04-0.581D-04 0.745D-04 0.393D-05-0.171D-03 0.111D-02
 Coeff:      0.563D-02 0.413D-02-0.144D-02-0.398D-01-0.577D-01 0.835D-01
 Coeff:      0.442D+00 0.562D+00
 Gap=     0.067 Goal=   None    Shift=    0.000
 Gap=     0.139 Goal=   None    Shift=    0.000
 RMSDP=4.49D-06 MaxDP=6.23D-04 DE=-9.48D-08 OVMax= 7.27D-05

 Cycle  15  Pass 1  IDiag  1:
 RMSU=  1.86D-06    CP:  1.10D+00  3.73D-02  7.38D-01  1.65D-02  7.69D-01
                    CP:  9.27D-01  9.30D-01  6.15D-01  1.17D+00  1.48D+00
                    CP:  1.09D+00  1.17D+00  1.08D+00  1.00D+00
 E= -798.771095056089     Delta-E=       -0.000000021587 Rises=F Damp=F
 DIIS: error= 2.92D-06 at cycle  15 NSaved=  15.
 NSaved=15 IEnMin=15 EnMin= -798.771095056089     IErMin=15 ErrMin= 2.92D-06
 ErrMax= 2.92D-06  0.00D+00 EMaxC= 1.00D-01 BMatC= 9.88D-09 BMatP= 7.68D-08
 IDIUse=1 WtCom= 1.00D+00 WtEn= 0.00D+00
 Coeff-Com:  0.248D-04-0.293D-04-0.230D-04 0.215D-05-0.824D-04 0.557D-03
 Coeff-Com:  0.233D-02 0.231D-02 0.411D-02-0.118D-01-0.323D-01-0.149D-01
 Coeff-Com:  0.540D-01 0.272D+00 0.723D+00
 Coeff:      0.248D-04-0.293D-04-0.230D-04 0.215D-05-0.824D-04 0.557D-03
 Coeff:      0.233D-02 0.231D-02 0.411D-02-0.118D-01-0.323D-01-0.149D-01
 Coeff:      0.540D-01 0.272D+00 0.723D+00
 Gap=     0.067 Goal=   None    Shift=    0.000
 Gap=     0.139 Goal=   None    Shift=    0.000
 RMSDP=1.85D-06 MaxDP=2.70D-04 DE=-2.16D-08 OVMax= 3.54D-05

 Cycle  16  Pass 1  IDiag  1:
 RMSU=  1.32D-06    CP:  1.10D+00  3.73D-02  7.38D-01  1.65D-02  7.69D-01
                    CP:  9.27D-01  9.30D-01  6.15D-01  1.17D+00  1.48D+00
                    CP:  1.09D+00  1.19D+00  1.11D+00  1.08D+00  1.02D+00
 E= -798.771095059860     Delta-E=       -0.000000003771 Rises=F Damp=F
 DIIS: error= 1.42D-06 at cycle  16 NSaved=  16.
 NSaved=16 IEnMin=16 EnMin= -798.771095059860     IErMin=16 ErrMin= 1.42D-06
 ErrMax= 1.42D-06  0.00D+00 EMaxC= 1.00D-01 BMatC= 3.44D-09 BMatP= 9.88D-09
 IDIUse=1 WtCom= 1.00D+00 WtEn= 0.00D+00
 Coeff-Com:  0.148D-04-0.213D-04-0.275D-04 0.131D-05-0.182D-04 0.148D-03
 Coeff-Com:  0.459D-03 0.883D-03 0.305D-02 0.158D-03-0.929D-02-0.256D-01
 Coeff-Com: -0.548D-01 0.520D-01 0.434D+00 0.599D+00
 Coeff:      0.148D-04-0.213D-04-0.275D-04 0.131D-05-0.182D-04 0.148D-03
 Coeff:      0.459D-03 0.883D-03 0.305D-02 0.158D-03-0.929D-02-0.256D-01
 Coeff:     -0.548D-01 0.520D-01 0.434D+00 0.599D+00
 Gap=     0.067 Goal=   None    Shift=    0.000
 Gap=     0.139 Goal=   None    Shift=    0.000
 RMSDP=8.92D-07 MaxDP=1.68D-04 DE=-3.77D-09 OVMax= 2.21D-05

 Cycle  17  Pass 1  IDiag  1:
 RMSU=  4.04D-07    CP:  1.10D+00  3.73D-02  7.38D-01  1.65D-02  7.69D-01
                    CP:  9.27D-01  9.30D-01  6.15D-01  1.17D+00  1.48D+00
                    CP:  1.09D+00  1.18D+00  1.12D+00  1.14D+00  1.21D+00
                    CP:  9.49D-01
 E= -798.771095061108     Delta-E=       -0.000000001247 Rises=F Damp=F
 DIIS: error= 8.08D-07 at cycle  17 NSaved=  17.
 NSaved=17 IEnMin=17 EnMin= -798.771095061108     IErMin=17 ErrMin= 8.08D-07
 ErrMax= 8.08D-07  0.00D+00 EMaxC= 1.00D-01 BMatC= 5.57D-10 BMatP= 3.44D-09
 IDIUse=1 WtCom= 1.00D+00 WtEn= 0.00D+00
 Coeff-Com: -0.592D-05 0.990D-05-0.431D-05-0.450D-06 0.894D-05-0.114D-03
 Coeff-Com: -0.470D-03-0.180D-03 0.171D-03 0.344D-02 0.520D-02-0.669D-02
 Coeff-Com: -0.367D-01-0.568D-01-0.405D-01 0.269D+00 0.864D+00
 Coeff:     -0.592D-05 0.990D-05-0.431D-05-0.450D-06 0.894D-05-0.114D-03
 Coeff:     -0.470D-03-0.180D-03 0.171D-03 0.344D-02 0.520D-02-0.669D-02
 Coeff:     -0.367D-01-0.568D-01-0.405D-01 0.269D+00 0.864D+00
 Gap=     0.067 Goal=   None    Shift=    0.000
 Gap=     0.139 Goal=   None    Shift=    0.000
 RMSDP=5.42D-07 MaxDP=5.57D-05 DE=-1.25D-09 OVMax= 1.25D-05

 Cycle  18  Pass 1  IDiag  1:
 RMSU=  2.85D-07    CP:  1.10D+00  3.73D-02  7.38D-01  1.65D-02  7.69D-01
                    CP:  9.27D-01  9.30D-01  6.15D-01  1.17D+00  1.48D+00
                    CP:  1.09D+00  1.18D+00  1.13D+00  1.18D+00  1.26D+00
                    CP:  1.04D+00  1.48D+00
 E= -798.771095061397     Delta-E=       -0.000000000289 Rises=F Damp=F
 DIIS: error= 3.19D-07 at cycle  18 NSaved=  18.
 NSaved=18 IEnMin=18 EnMin= -798.771095061397     IErMin=18 ErrMin= 3.19D-07
 ErrMax= 3.19D-07  0.00D+00 EMaxC= 1.00D-01 BMatC= 1.15D-10 BMatP= 5.57D-10
 IDIUse=1 WtCom= 1.00D+00 WtEn= 0.00D+00
 Coeff-Com: -0.620D-05 0.845D-05 0.992D-06-0.248D-06 0.608D-05-0.763D-04
 Coeff-Com: -0.283D-03-0.197D-03-0.417D-03 0.156D-02 0.355D-02 0.421D-03
 Coeff-Com: -0.735D-02-0.341D-01-0.928D-01 0.405D-01 0.408D+00 0.681D+00
 Coeff:     -0.620D-05 0.845D-05 0.992D-06-0.248D-06 0.608D-05-0.763D-04
 Coeff:     -0.283D-03-0.197D-03-0.417D-03 0.156D-02 0.355D-02 0.421D-03
 Coeff:     -0.735D-02-0.341D-01-0.928D-01 0.405D-01 0.408D+00 0.681D+00
 Gap=     0.067 Goal=   None    Shift=    0.000
 Gap=     0.139 Goal=   None    Shift=    0.000
 RMSDP=3.63D-07 MaxDP=7.22D-05 DE=-2.89D-10 OVMax= 5.52D-06

 Cycle  19  Pass 1  IDiag  1:
 RMSU=  1.30D-07    CP:  1.10D+00  3.73D-02  7.38D-01  1.65D-02  7.69D-01
                    CP:  9.27D-01  9.30D-01  6.15D-01  1.17D+00  1.48D+00
                    CP:  1.09D+00  1.18D+00  1.13D+00  1.16D+00  1.29D+00
                    CP:  1.13D+00  1.53D+00  9.72D-01
 E= -798.771095061450     Delta-E=       -0.000000000053 Rises=F Damp=F
 DIIS: error= 1.74D-07 at cycle  19 NSaved=  19.
 NSaved=19 IEnMin=19 EnMin= -798.771095061450     IErMin=19 ErrMin= 1.74D-07
 ErrMax= 1.74D-07  0.00D+00 EMaxC= 1.00D-01 BMatC= 3.73D-11 BMatP= 1.15D-10
 IDIUse=1 WtCom= 1.00D+00 WtEn= 0.00D+00
 Coeff-Com: -0.336D-05 0.445D-05 0.135D-05-0.149D-06 0.268D-05-0.121D-04
 Coeff-Com: -0.481D-04-0.818D-04-0.329D-03 0.136D-03 0.803D-03 0.181D-02
 Coeff-Com:  0.531D-02-0.477D-02-0.444D-01-0.444D-01 0.345D-02 0.371D+00
 Coeff-Com:  0.712D+00
 Coeff:     -0.336D-05 0.445D-05 0.135D-05-0.149D-06 0.268D-05-0.121D-04
 Coeff:     -0.481D-04-0.818D-04-0.329D-03 0.136D-03 0.803D-03 0.181D-02
 Coeff:      0.531D-02-0.477D-02-0.444D-01-0.444D-01 0.345D-02 0.371D+00
 Coeff:      0.712D+00
 Gap=     0.067 Goal=   None    Shift=    0.000
 Gap=     0.139 Goal=   None    Shift=    0.000
 RMSDP=1.12D-07 MaxDP=1.43D-05 DE=-5.32D-11 OVMax= 3.44D-06

 Cycle  20  Pass 1  IDiag  1:
 RMSU=  4.78D-08    CP:  1.10D+00  3.73D-02  7.38D-01  1.65D-02  7.69D-01
                    CP:  9.27D-01  9.30D-01  6.15D-01  1.17D+00  1.48D+00
                    CP:  1.09D+00  1.18D+00  1.13D+00  1.16D+00  1.29D+00
                    CP:  1.14D+00  1.62D+00  1.10D+00  1.03D+00
 E= -798.771095061461     Delta-E=       -0.000000000011 Rises=F Damp=F
 DIIS: error= 1.32D-07 at cycle  20 NSaved=  20.
 NSaved=20 IEnMin=20 EnMin= -798.771095061461     IErMin=20 ErrMin= 1.32D-07
 ErrMax= 1.32D-07  0.00D+00 EMaxC= 1.00D-01 BMatC= 9.96D-12 BMatP= 3.73D-11
 IDIUse=1 WtCom= 1.00D+00 WtEn= 0.00D+00
 Coeff-Com: -0.531D-06 0.607D-06 0.300D-06 0.328D-07 0.761D-06 0.821D-05
 Coeff-Com:  0.241D-04-0.204D-04-0.124D-03-0.217D-03-0.234D-03 0.951D-03
 Coeff-Com:  0.458D-02 0.430D-02-0.663D-02-0.334D-01-0.809D-01 0.505D-01
 Coeff-Com:  0.405D+00 0.656D+00
 Coeff:     -0.531D-06 0.607D-06 0.300D-06 0.328D-07 0.761D-06 0.821D-05
 Coeff:      0.241D-04-0.204D-04-0.124D-03-0.217D-03-0.234D-03 0.951D-03
 Coeff:      0.458D-02 0.430D-02-0.663D-02-0.334D-01-0.809D-01 0.505D-01
 Coeff:      0.405D+00 0.656D+00
 Gap=     0.067 Goal=   None    Shift=    0.000
 Gap=     0.139 Goal=   None    Shift=    0.000
 RMSDP=7.01D-08 MaxDP=7.25D-06 DE=-1.11D-11 OVMax= 1.96D-06

 Cycle  21  Pass 1  IDiag  1:
 Restarting incremental Fock formation.
 E= -798.771095061468     Delta-E=       -0.000000000007 Rises=F Damp=F
 DIIS: error= 3.88D-08 at cycle  21 NSaved=  20.
 NSaved=20 IEnMin=20 EnMin= -798.771095061468     IErMin=20 ErrMin= 3.88D-08
 ErrMax= 3.88D-08  0.00D+00 EMaxC= 1.00D-01 BMatC= 1.68D-12 BMatP= 9.96D-12
 IDIUse=1 WtCom= 1.00D+00 WtEn= 0.00D+00
 Coeff-Com:  0.503D-06-0.559D-06-0.226D-06 0.616D-07 0.718D-05 0.216D-04
 Coeff-Com:  0.467D-05 0.143D-04-0.108D-03-0.255D-03-0.234D-04 0.628D-03
 Coeff-Com:  0.285D-02 0.685D-02-0.352D-02-0.328D-01-0.703D-01 0.183D-01
 Coeff-Com:  0.300D+00 0.778D+00
 Coeff:      0.503D-06-0.559D-06-0.226D-06 0.616D-07 0.718D-05 0.216D-04
 Coeff:      0.467D-05 0.143D-04-0.108D-03-0.255D-03-0.234D-04 0.628D-03
 Coeff:      0.285D-02 0.685D-02-0.352D-02-0.328D-01-0.703D-01 0.183D-01
 Coeff:      0.300D+00 0.778D+00
 Gap=     0.067 Goal=   None    Shift=    0.000
 Gap=     0.139 Goal=   None    Shift=    0.000
 RMSDP=2.74D-08 MaxDP=3.61D-06 DE=-6.82D-12 OVMax= 9.30D-07

 Cycle  22  Pass 1  IDiag  1:
 RMSU=  2.32D-08    CP:  1.00D+00
 E= -798.771095061465     Delta-E=        0.000000000003 Rises=F Damp=F
 DIIS: error= 2.85D-08 at cycle  22 NSaved=  20.
 NSaved=20 IEnMin=19 EnMin= -798.771095061468     IErMin=20 ErrMin= 2.85D-08
 ErrMax= 2.85D-08  0.00D+00 EMaxC= 1.00D-01 BMatC= 5.54D-13 BMatP= 1.68D-12
 IDIUse=1 WtCom= 1.00D+00 WtEn= 0.00D+00
 Coeff-Com:  0.261D-06 0.184D-06-0.134D-07 0.744D-07-0.497D-06-0.119D-05
 Coeff-Com:  0.618D-05 0.204D-04 0.414D-04-0.793D-04-0.582D-03-0.576D-03
 Coeff-Com:  0.219D-03 0.393D-02 0.110D-01-0.226D-01-0.618D-01-0.368D-01
 Coeff-Com:  0.333D+00 0.774D+00
 Coeff:      0.261D-06 0.184D-06-0.134D-07 0.744D-07-0.497D-06-0.119D-05
 Coeff:      0.618D-05 0.204D-04 0.414D-04-0.793D-04-0.582D-03-0.576D-03
 Coeff:      0.219D-03 0.393D-02 0.110D-01-0.226D-01-0.618D-01-0.368D-01
 Coeff:      0.333D+00 0.774D+00
 Gap=     0.067 Goal=   None    Shift=    0.000
 Gap=     0.139 Goal=   None    Shift=    0.000
 RMSDP=1.71D-08 MaxDP=1.79D-06 DE= 3.41D-12 OVMax= 4.85D-07

 Cycle  23  Pass 1  IDiag  1:
 RMSU=  1.59D-08    CP:  1.00D+00  7.83D-01
 E= -798.771095061482     Delta-E=       -0.000000000018 Rises=F Damp=F
 DIIS: error= 1.64D-08 at cycle  23 NSaved=  20.
 NSaved=20 IEnMin=20 EnMin= -798.771095061482     IErMin=20 ErrMin= 1.64D-08
 ErrMax= 1.64D-08  0.00D+00 EMaxC= 1.00D-01 BMatC= 3.68D-13 BMatP= 5.54D-13
 IDIUse=1 WtCom= 1.00D+00 WtEn= 0.00D+00
 Coeff-Com: -0.536D-07-0.102D-06-0.793D-06-0.302D-05 0.227D-05 0.221D-04
 Coeff-Com:  0.320D-04 0.296D-04-0.145D-03-0.724D-03-0.502D-03 0.101D-02
 Coeff-Com:  0.557D-02 0.134D-01-0.875D-02-0.685D-01-0.137D+00-0.354D-01
 Coeff-Com:  0.505D+00 0.726D+00
 Coeff:     -0.536D-07-0.102D-06-0.793D-06-0.302D-05 0.227D-05 0.221D-04
 Coeff:      0.320D-04 0.296D-04-0.145D-03-0.724D-03-0.502D-03 0.101D-02
 Coeff:      0.557D-02 0.134D-01-0.875D-02-0.685D-01-0.137D+00-0.354D-01
 Coeff:      0.505D+00 0.726D+00
 Gap=     0.067 Goal=   None    Shift=    0.000
 Gap=     0.139 Goal=   None    Shift=    0.000
 RMSDP=1.53D-08 MaxDP=1.98D-06 DE=-1.75D-11 OVMax= 4.74D-07

 Cycle  24  Pass 1  IDiag  1:
 RMSU=  1.18D-08    CP:  1.00D+00  1.16D+00  8.15D-01
 E= -798.771095061468     Delta-E=        0.000000000015 Rises=F Damp=F
 DIIS: error= 4.35D-09 at cycle  24 NSaved=  20.
 NSaved=20 IEnMin=19 EnMin= -798.771095061482     IErMin=20 ErrMin= 4.35D-09
 ErrMax= 4.35D-09  0.00D+00 EMaxC= 1.00D-01 BMatC= 3.08D-14 BMatP= 3.68D-13
 IDIUse=1 WtCom= 1.00D+00 WtEn= 0.00D+00
 Coeff-Com:  0.444D-08 0.420D-07 0.150D-06 0.167D-05 0.587D-05-0.182D-05
 Coeff-Com: -0.844D-05-0.282D-04-0.116D-03 0.414D-04 0.503D-03 0.122D-02
 Coeff-Com:  0.203D-02 0.368D-03-0.146D-01-0.389D-01-0.740D-01 0.168D-01
 Coeff-Com:  0.174D+00 0.933D+00
 Coeff:      0.444D-08 0.420D-07 0.150D-06 0.167D-05 0.587D-05-0.182D-05
 Coeff:     -0.844D-05-0.282D-04-0.116D-03 0.414D-04 0.503D-03 0.122D-02
 Coeff:      0.203D-02 0.368D-03-0.146D-01-0.389D-01-0.740D-01 0.168D-01
 Coeff:      0.174D+00 0.933D+00
 Gap=     0.067 Goal=   None    Shift=    0.000
 Gap=     0.139 Goal=   None    Shift=    0.000
 RMSDP=3.76D-09 MaxDP=2.44D-07 DE= 1.48D-11 OVMax= 2.06D-07

 SCF Done:  E(UB3LYP) =  -798.771095061     A.U. after   24 cycles
            NFock= 24  Conv=0.38D-08     -V/T= 2.0041
 <Sx>= 0.0000 <Sy>= 0.0000 <Sz>= 0.5000 <S**2>= 0.7585 S= 0.5042
 <L.S>=  0.00000000000    
 KE= 7.954881672896D+02 PE=-4.173681649505D+03 EE= 1.434235828057D+03
 Annihilation of the first spin contaminant:
 S**2 before annihilation     0.7585,   after     0.7500
 Leave Link  502 at Tue Dec 26 20:12:26 2023, MaxMem=  4026531840 cpu:            3549.1 elap:             589.2
 (Enter /sysapps/ubuntu-applications/gaussian/Gaussian/AVX2/g16/l601.exe)
 Copying SCF densities to generalized density rwf, IOpCl= 1 IROHF=0.

 **********************************************************************

            Population analysis using the SCF density.

 **********************************************************************

 Alpha  occ. eigenvalues --  -18.97118 -18.93905 -18.93779 -14.23524 -14.19175
 Alpha  occ. eigenvalues --  -10.16168 -10.09500 -10.08969 -10.08843 -10.08512
 Alpha  occ. eigenvalues --  -10.07136 -10.05046 -10.04899 -10.04770 -10.04618
 Alpha  occ. eigenvalues --  -10.04170 -10.04118  -0.92995  -0.88656  -0.88320
 Alpha  occ. eigenvalues --   -0.80866  -0.75981  -0.72946  -0.66294  -0.64496
 Alpha  occ. eigenvalues --   -0.62026  -0.60519  -0.53194  -0.50353  -0.49201
 Alpha  occ. eigenvalues --   -0.45780  -0.43875  -0.40989  -0.39620  -0.38392
 Alpha  occ. eigenvalues --   -0.37198  -0.35541  -0.34515  -0.33024  -0.32912
 Alpha  occ. eigenvalues --   -0.30929  -0.30216  -0.29843  -0.29669  -0.28988
 Alpha  occ. eigenvalues --   -0.27586  -0.26892  -0.26323  -0.25020  -0.23495
 Alpha  occ. eigenvalues --   -0.23236  -0.21544  -0.19924  -0.16211  -0.14032
 Alpha  occ. eigenvalues --   -0.13435  -0.12750  -0.11185  -0.10455  -0.08254
 Alpha  occ. eigenvalues --    0.00135
 Alpha virt. eigenvalues --    0.06858   0.08560   0.08914   0.09578   0.10303
 Alpha virt. eigenvalues --    0.10513   0.10675   0.11699   0.12253   0.12576
 Alpha virt. eigenvalues --    0.13417   0.14062   0.14330   0.15510   0.16201
 Alpha virt. eigenvalues --    0.16418   0.17508   0.17966   0.18207   0.18458
 Alpha virt. eigenvalues --    0.18629   0.19038   0.19633   0.19943   0.20317
 Alpha virt. eigenvalues --    0.20619   0.20833   0.21170   0.21383   0.21658
 Alpha virt. eigenvalues --    0.22033   0.22826   0.22983   0.23606   0.24272
 Alpha virt. eigenvalues --    0.24291   0.24974   0.25072   0.25341   0.25725
 Alpha virt. eigenvalues --    0.25998   0.26326   0.26681   0.27108   0.27813
 Alpha virt. eigenvalues --    0.28962   0.29164   0.29462   0.29624   0.30668
 Alpha virt. eigenvalues --    0.30850   0.31041   0.31455   0.32011   0.32485
 Alpha virt. eigenvalues --    0.33258   0.33452   0.34475   0.34867   0.35385
 Alpha virt. eigenvalues --    0.35653   0.35992   0.36722   0.37239   0.37359
 Alpha virt. eigenvalues --    0.37538   0.37879   0.38546   0.38929   0.39089
 Alpha virt. eigenvalues --    0.39564   0.39769   0.40171   0.40545   0.41267
 Alpha virt. eigenvalues --    0.41475   0.42632   0.42732   0.43805   0.44154
 Alpha virt. eigenvalues --    0.44186   0.44716   0.45090   0.45317   0.46001
 Alpha virt. eigenvalues --    0.46500   0.46708   0.47237   0.47744   0.48247
 Alpha virt. eigenvalues --    0.49213   0.49526   0.49932   0.50318   0.52252
 Alpha virt. eigenvalues --    0.52792   0.54022   0.54639   0.55140   0.55772
 Alpha virt. eigenvalues --    0.56263   0.57892   0.58243   0.59985   0.61087
 Alpha virt. eigenvalues --    0.64128   0.64665   0.65328   0.66415   0.67015
 Alpha virt. eigenvalues --    0.68078   0.69129   0.70000   0.70314   0.71651
 Alpha virt. eigenvalues --    0.71995   0.72342   0.73694   0.73921   0.74740
 Alpha virt. eigenvalues --    0.76596   0.76855   0.77667   0.77995   0.78593
 Alpha virt. eigenvalues --    0.79921   0.80105   0.80224   0.81137   0.81770
 Alpha virt. eigenvalues --    0.82093   0.82808   0.83327   0.84639   0.85264
 Alpha virt. eigenvalues --    0.86390   0.87087   0.88045   0.88969   0.90001
 Alpha virt. eigenvalues --    0.91400   0.92984   0.94151   0.94908   0.96225
 Alpha virt. eigenvalues --    0.97141   0.97882   0.99045   0.99681   1.00429
 Alpha virt. eigenvalues --    1.00985   1.02970   1.03867   1.04386   1.06018
 Alpha virt. eigenvalues --    1.06558   1.07672   1.08036   1.08521   1.09238
 Alpha virt. eigenvalues --    1.09801   1.11289   1.13523   1.14585   1.15073
 Alpha virt. eigenvalues --    1.16593   1.17965   1.19358   1.20871   1.21247
 Alpha virt. eigenvalues --    1.21548   1.23334   1.23711   1.24426   1.27372
 Alpha virt. eigenvalues --    1.28988   1.30178   1.31209   1.31318   1.32612
 Alpha virt. eigenvalues --    1.35579   1.36667   1.38547   1.39238   1.39946
 Alpha virt. eigenvalues --    1.41166   1.43113   1.43446   1.44390   1.45427
 Alpha virt. eigenvalues --    1.46020   1.47751   1.50435   1.52072   1.52167
 Alpha virt. eigenvalues --    1.54378   1.55035   1.57263   1.59255   1.61766
 Alpha virt. eigenvalues --    1.63815   1.64077   1.64237   1.65353   1.65655
 Alpha virt. eigenvalues --    1.66135   1.66953   1.69376   1.69654   1.70609
 Alpha virt. eigenvalues --    1.71469   1.73942   1.74195   1.76694   1.78887
 Alpha virt. eigenvalues --    1.79630   1.81183   1.82340   1.85071   1.85402
 Alpha virt. eigenvalues --    1.86624   1.87450   1.88678   1.89081   1.91126
 Alpha virt. eigenvalues --    1.92472   1.93337   1.95084   1.95727   1.96300
 Alpha virt. eigenvalues --    1.98382   1.99403   1.99676   2.02212   2.02464
 Alpha virt. eigenvalues --    2.04890   2.06462   2.07159   2.07665   2.09240
 Alpha virt. eigenvalues --    2.10383   2.10752   2.11227   2.15680   2.16694
 Alpha virt. eigenvalues --    2.18272   2.20358   2.21357   2.25692   2.26247
 Alpha virt. eigenvalues --    2.28305   2.29366   2.30927   2.33557   2.37372
 Alpha virt. eigenvalues --    2.39044   2.40709   2.43068   2.44611   2.45979
 Alpha virt. eigenvalues --    2.47891   2.48765   2.49087   2.52573   2.55292
 Alpha virt. eigenvalues --    2.56581   2.58241   2.59591   2.60108   2.61570
 Alpha virt. eigenvalues --    2.62277   2.64807   2.65965   2.68809   2.73134
 Alpha virt. eigenvalues --    2.76809   2.77557   2.78469   2.80804   2.81673
 Alpha virt. eigenvalues --    2.83202   2.84172   2.85361   2.88337   2.88936
 Alpha virt. eigenvalues --    2.89758   2.90891   2.93059   2.94144   2.95704
 Alpha virt. eigenvalues --    2.96773   2.98104   2.98677   2.99311   3.01074
 Alpha virt. eigenvalues --    3.01507   3.02112   3.02825   3.04306   3.05253
 Alpha virt. eigenvalues --    3.07380   3.07837   3.11290   3.12496   3.14069
 Alpha virt. eigenvalues --    3.14177   3.18349   3.18954   3.22445   3.24345
 Alpha virt. eigenvalues --    3.26048   3.30827   3.32252   3.35388   3.36278
 Alpha virt. eigenvalues --    3.40373   3.44798   3.48264   3.48737   3.49894
 Alpha virt. eigenvalues --    3.50623   3.51881   3.52914   3.54477   3.58854
 Alpha virt. eigenvalues --    3.65455   3.68557   3.70113   3.71349   3.72180
 Alpha virt. eigenvalues --    3.76710   3.82927   3.86381   3.89870   3.92147
 Alpha virt. eigenvalues --    3.96335   3.98179   4.01010   4.04744   4.08474
 Alpha virt. eigenvalues --    4.17020   4.17264   4.24228   4.29609   4.33640
 Alpha virt. eigenvalues --    4.39595   4.47669   4.84127   4.90027   4.93181
 Alpha virt. eigenvalues --    4.98230   5.04695   5.20089   5.22109   5.23957
 Alpha virt. eigenvalues --    5.24124   5.37447   5.42062   5.44321   5.90271
 Alpha virt. eigenvalues --    5.91774   5.98041  23.70065  23.84686  23.98345
 Alpha virt. eigenvalues --   24.02345  24.04946  24.07753  24.10163  24.10899
 Alpha virt. eigenvalues --   24.18956  24.20946  24.24290  24.30556  35.72038
 Alpha virt. eigenvalues --   35.77107  50.14220  50.20676  50.24905
  Beta  occ. eigenvalues --  -18.97107 -18.93428 -18.93125 -14.23525 -14.19099
  Beta  occ. eigenvalues --  -10.16167 -10.09362 -10.08969 -10.08636 -10.08374
  Beta  occ. eigenvalues --  -10.07116 -10.05013 -10.04837 -10.04784 -10.04610
  Beta  occ. eigenvalues --  -10.04065 -10.04010  -0.92976  -0.87841  -0.87229
  Beta  occ. eigenvalues --   -0.80802  -0.75754  -0.72748  -0.66048  -0.64300
  Beta  occ. eigenvalues --   -0.61855  -0.60342  -0.52500  -0.50096  -0.48985
  Beta  occ. eigenvalues --   -0.45617  -0.43679  -0.40791  -0.39506  -0.38207
  Beta  occ. eigenvalues --   -0.37154  -0.35504  -0.34193  -0.32919  -0.32802
  Beta  occ. eigenvalues --   -0.30823  -0.30087  -0.29741  -0.29465  -0.28109
  Beta  occ. eigenvalues --   -0.26956  -0.26361  -0.26077  -0.23348  -0.22952
  Beta  occ. eigenvalues --   -0.22535  -0.21373  -0.18686  -0.15889  -0.13814
  Beta  occ. eigenvalues --   -0.12158  -0.11757  -0.10691  -0.09883  -0.07434
  Beta virt. eigenvalues --    0.06417   0.06855   0.08546   0.09421   0.09726
  Beta virt. eigenvalues --    0.10303   0.10509   0.10758   0.12127   0.12451
  Beta virt. eigenvalues --    0.12787   0.13529   0.14196   0.14451   0.15588
  Beta virt. eigenvalues --    0.16220   0.16452   0.17510   0.17988   0.18340
  Beta virt. eigenvalues --    0.18469   0.18915   0.19618   0.19919   0.20105
  Beta virt. eigenvalues --    0.20411   0.20746   0.21196   0.21258   0.21640
  Beta virt. eigenvalues --    0.21768   0.22260   0.22859   0.23030   0.23660
  Beta virt. eigenvalues --    0.24291   0.24323   0.25001   0.25261   0.25388
  Beta virt. eigenvalues --    0.25760   0.26218   0.26373   0.26735   0.27135
  Beta virt. eigenvalues --    0.27833   0.29039   0.29316   0.29498   0.29697
  Beta virt. eigenvalues --    0.30708   0.30896   0.31079   0.31501   0.32042
  Beta virt. eigenvalues --    0.32536   0.33309   0.33568   0.34571   0.35357
  Beta virt. eigenvalues --    0.35485   0.35702   0.36313   0.36963   0.37315
  Beta virt. eigenvalues --    0.37440   0.37597   0.37974   0.38617   0.38971
  Beta virt. eigenvalues --    0.39189   0.39642   0.39860   0.40220   0.40604
  Beta virt. eigenvalues --    0.41343   0.41535   0.42762   0.42890   0.43890
  Beta virt. eigenvalues --    0.44240   0.44305   0.44796   0.45226   0.45438
  Beta virt. eigenvalues --    0.46108   0.46682   0.46865   0.47307   0.47957
  Beta virt. eigenvalues --    0.48323   0.49248   0.49620   0.49981   0.50383
  Beta virt. eigenvalues --    0.52347   0.52978   0.54169   0.54718   0.55243
  Beta virt. eigenvalues --    0.55855   0.56312   0.58000   0.58395   0.60292
  Beta virt. eigenvalues --    0.61159   0.64283   0.64835   0.65461   0.66535
  Beta virt. eigenvalues --    0.67187   0.68186   0.69173   0.70121   0.70710
  Beta virt. eigenvalues --    0.71717   0.72196   0.72498   0.73758   0.73958
  Beta virt. eigenvalues --    0.74823   0.76649   0.76940   0.78053   0.78306
  Beta virt. eigenvalues --    0.78773   0.80102   0.80144   0.80406   0.81339
  Beta virt. eigenvalues --    0.81972   0.82261   0.82920   0.83618   0.84850
  Beta virt. eigenvalues --    0.85443   0.86489   0.87130   0.88120   0.89089
  Beta virt. eigenvalues --    0.90175   0.91458   0.93117   0.94183   0.95069
  Beta virt. eigenvalues --    0.96357   0.97205   0.97982   0.99140   0.99769
  Beta virt. eigenvalues --    1.00517   1.01066   1.03121   1.04007   1.04613
  Beta virt. eigenvalues --    1.06102   1.06705   1.07877   1.08224   1.08631
  Beta virt. eigenvalues --    1.09452   1.10176   1.11503   1.13740   1.14719
  Beta virt. eigenvalues --    1.15213   1.16712   1.18165   1.19495   1.21092
  Beta virt. eigenvalues --    1.21457   1.21784   1.23630   1.23908   1.24744
  Beta virt. eigenvalues --    1.28102   1.29329   1.30934   1.31240   1.31987
  Beta virt. eigenvalues --    1.32933   1.35881   1.36886   1.38671   1.39957
  Beta virt. eigenvalues --    1.40352   1.41654   1.43216   1.43591   1.44549
  Beta virt. eigenvalues --    1.45720   1.46158   1.47921   1.50704   1.52128
  Beta virt. eigenvalues --    1.52419   1.54575   1.55141   1.57383   1.59417
  Beta virt. eigenvalues --    1.61855   1.64105   1.64168   1.64500   1.65403
  Beta virt. eigenvalues --    1.65764   1.66246   1.67212   1.69442   1.69737
  Beta virt. eigenvalues --    1.70729   1.71550   1.74177   1.74361   1.76792
  Beta virt. eigenvalues --    1.78998   1.79700   1.81503   1.82520   1.85209
  Beta virt. eigenvalues --    1.85529   1.86766   1.87679   1.88915   1.89283
  Beta virt. eigenvalues --    1.91297   1.92758   1.93674   1.95283   1.95903
  Beta virt. eigenvalues --    1.96519   1.98467   1.99662   1.99805   2.02371
  Beta virt. eigenvalues --    2.02884   2.05097   2.06709   2.07389   2.07944
  Beta virt. eigenvalues --    2.09394   2.10716   2.10918   2.11351   2.15798
  Beta virt. eigenvalues --    2.16875   2.18335   2.20489   2.21534   2.25808
  Beta virt. eigenvalues --    2.26548   2.28429   2.29526   2.30989   2.33694
  Beta virt. eigenvalues --    2.37555   2.39195   2.40926   2.43410   2.44860
  Beta virt. eigenvalues --    2.46081   2.48199   2.49000   2.49289   2.52621
  Beta virt. eigenvalues --    2.55504   2.56918   2.58340   2.59655   2.60134
  Beta virt. eigenvalues --    2.61643   2.62328   2.64941   2.66080   2.68843
  Beta virt. eigenvalues --    2.73145   2.76928   2.78009   2.78634   2.80941
  Beta virt. eigenvalues --    2.82006   2.83289   2.84429   2.85391   2.88450
  Beta virt. eigenvalues --    2.88969   2.90268   2.91071   2.93309   2.94746
  Beta virt. eigenvalues --    2.95845   2.96886   2.98170   2.98998   2.99611
  Beta virt. eigenvalues --    3.01598   3.01790   3.02636   3.02964   3.04793
  Beta virt. eigenvalues --    3.05879   3.07537   3.08783   3.12513   3.13277
  Beta virt. eigenvalues --    3.14540   3.14940   3.18589   3.19293   3.22634
  Beta virt. eigenvalues --    3.24837   3.26235   3.31094   3.32295   3.35692
  Beta virt. eigenvalues --    3.36395   3.40553   3.44958   3.48322   3.48850
  Beta virt. eigenvalues --    3.50111   3.51313   3.52532   3.54401   3.54608
  Beta virt. eigenvalues --    3.58929   3.65550   3.68692   3.70246   3.71449
  Beta virt. eigenvalues --    3.72406   3.77083   3.83150   3.86389   3.90114
  Beta virt. eigenvalues --    3.92166   3.96515   3.98228   4.01436   4.05046
  Beta virt. eigenvalues --    4.08511   4.17151   4.17416   4.24511   4.29620
  Beta virt. eigenvalues --    4.33791   4.39895   4.47946   4.84241   4.90279
  Beta virt. eigenvalues --    4.93436   4.98387   5.04829   5.20198   5.23679
  Beta virt. eigenvalues --    5.24902   5.26269   5.37463   5.42538   5.44769
  Beta virt. eigenvalues --    5.90466   5.92087   5.98537  23.70149  23.84779
  Beta virt. eigenvalues --   23.98347  24.02360  24.05124  24.07856  24.10219
  Beta virt. eigenvalues --   24.11087  24.19050  24.20964  24.24383  24.30600
  Beta virt. eigenvalues --   35.72066  35.77156  50.14240  50.21237  50.25469
          Condensed to atoms (all electrons):
               1          2          3          4          5          6
     1  C   10.214069  -0.165616  -0.837493  -2.067288  -3.629208   2.559060
     2  C   -0.165616   7.647696  -0.606387   0.593360   0.056975  -1.136464
     3  C   -0.837493  -0.606387   8.350933  -0.086469   0.582956   0.157372
     4  C   -2.067288   0.593360  -0.086469  32.950939  -6.388526  -5.616066
     5  C   -3.629208   0.056975   0.582956  -6.388526  31.058852  -0.470541
     6  C    2.559060  -1.136464   0.157372  -5.616066  -0.470541  11.081995
     7  C   -1.153472  -1.092425   0.853783  -6.970836   2.851573   0.410791
     8  C    1.088449  -0.280021   0.038489  -3.329567  -4.447977  -0.725226
     9  C   -0.236484   0.406850  -1.059613  -0.441777 -10.989652  -0.611471
    10  C   -0.457817   0.527121  -1.363427  -3.251246  -1.824357  -0.199808
    11  O    0.256363   0.081152  -0.010838   0.109776  -0.439510  -0.048911
    12  O   -0.017190  -0.007346   0.078018  -0.366422  -0.265242   0.292263
    13  N   -0.003616   0.005772  -0.006102   0.099772  -0.037011   0.024098
    14  H    0.443807  -0.207260   0.002756  -0.100452   0.041130   0.051759
    15  H   -0.103625   0.502439  -0.076901   0.020536  -0.009627  -0.032604
    16  H   -0.027375  -0.069584   0.520368  -0.000828   0.017738  -0.110395
    17  H    0.041791   0.013669  -0.229900   0.035416  -0.056150   0.411229
    18  H   -0.004224  -0.002964   0.002256  -0.051594   0.033399  -0.001602
    19  H   -0.008530  -0.000614   0.000368   0.070420  -0.010305   0.006058
    20  N    0.004347  -0.005980   0.007542   0.049504   0.350400  -0.033748
    21  C   -0.025183   0.007901  -0.014384   0.145965  -0.387406  -0.079443
    22  C   -0.001649  -0.001020   0.000672  -0.022766   0.049377  -0.006100
    23  H   -0.004287   0.003337  -0.004345   0.023375  -0.094389  -0.003256
    24  H    0.000053  -0.000177  -0.000071   0.000880   0.005265  -0.002334
    25  H    0.000091  -0.000059   0.000131  -0.001885   0.007886   0.000368
    26  H    0.000286   0.000150  -0.000191   0.004191  -0.005151  -0.000010
    27  O   -0.006828  -0.000056  -0.000257  -0.003160  -0.033633   0.003476
               7          8          9         10         11         12
     1  C   -1.153472   1.088449  -0.236484  -0.457817   0.256363  -0.017190
     2  C   -1.092425  -0.280021   0.406850   0.527121   0.081152  -0.007346
     3  C    0.853783   0.038489  -1.059613  -1.363427  -0.010838   0.078018
     4  C   -6.970836  -3.329567  -0.441777  -3.251246   0.109776  -0.366422
     5  C    2.851573  -4.447977 -10.989652  -1.824357  -0.439510  -0.265242
     6  C    0.410791  -0.725226  -0.611471  -0.199808  -0.048911   0.292263
     7  C   12.621230   0.305612  -1.497813  -0.169291   0.671004   0.016338
     8  C    0.305612  16.406373  -0.294547  -2.685403  -0.377544  -0.215156
     9  C   -1.497813  -0.294547  21.310008   0.841761  -0.166641  -0.687974
    10  C   -0.169291  -2.685403   0.841761  14.509096  -0.087138   1.155020
    11  O    0.671004  -0.377544  -0.166641  -0.087138   8.358682  -0.000135
    12  O    0.016338  -0.215156  -0.687974   1.155020  -0.000135   8.332926
    13  N   -0.069087  -0.063691   0.053275   0.005978   0.015250   0.000061
    14  H    0.091519   0.008757   0.000682   0.011110  -0.009470   0.000197
    15  H    0.005138   0.004599  -0.000301  -0.010877   0.002843  -0.000276
    16  H   -0.007676  -0.002031  -0.007680  -0.007160  -0.000189   0.001838
    17  H   -0.006673   0.012227   0.029756   0.086689   0.000498  -0.007334
    18  H    0.036546  -0.058886   0.016560   0.019211   0.008917  -0.000200
    19  H    0.067108  -0.060786  -0.062048  -0.022898   0.006568   0.000120
    20  N    0.056974   0.116199  -0.515430  -0.065697  -0.000932   0.012965
    21  C   -0.072766   0.218912  -0.171774  -0.228665   0.007083   0.012597
    22  C   -0.006560  -0.134722  -0.327600   0.071127   0.000581   0.016399
    23  H   -0.000428   0.003840  -0.002200  -0.013201  -0.000042   0.023882
    24  H   -0.002143   0.010641   0.009051   0.000890   0.000021  -0.002758
    25  H    0.000372  -0.008430  -0.007963   0.012249   0.000013   0.000201
    26  H    0.001062   0.011145  -0.006946   0.000886   0.000002   0.001413
    27  O   -0.020501  -0.006523   0.020841  -0.012639  -0.001203  -0.000355
              13         14         15         16         17         18
     1  C   -0.003616   0.443807  -0.103625  -0.027375   0.041791  -0.004224
     2  C    0.005772  -0.207260   0.502439  -0.069584   0.013669  -0.002964
     3  C   -0.006102   0.002756  -0.076901   0.520368  -0.229900   0.002256
     4  C    0.099772  -0.100452   0.020536  -0.000828   0.035416  -0.051594
     5  C   -0.037011   0.041130  -0.009627   0.017738  -0.056150   0.033399
     6  C    0.024098   0.051759  -0.032604  -0.110395   0.411229  -0.001602
     7  C   -0.069087   0.091519   0.005138  -0.007676  -0.006673   0.036546
     8  C   -0.063691   0.008757   0.004599  -0.002031   0.012227  -0.058886
     9  C    0.053275   0.000682  -0.000301  -0.007680   0.029756   0.016560
    10  C    0.005978   0.011110  -0.010877  -0.007160   0.086689   0.019211
    11  O    0.015250  -0.009470   0.002843  -0.000189   0.000498   0.008917
    12  O    0.000061   0.000197  -0.000276   0.001838  -0.007334  -0.000200
    13  N    6.837223  -0.001160   0.000119  -0.000070   0.000021   0.345736
    14  H   -0.001160   0.539771  -0.019617  -0.000248   0.001623  -0.000032
    15  H    0.000119  -0.019617   0.621649  -0.021927   0.000186  -0.000085
    16  H   -0.000070  -0.000248  -0.021927   0.623271  -0.022018   0.000025
    17  H    0.000021   0.001623   0.000186  -0.022018   0.541439  -0.000037
    18  H    0.345736  -0.000032  -0.000085   0.000025  -0.000037   0.402650
    19  H    0.349387   0.000254   0.000005  -0.000003  -0.000051  -0.037954
    20  N   -0.028140   0.000193   0.000023   0.000270  -0.001634  -0.008088
    21  C    0.006978  -0.001422   0.000014  -0.000370  -0.001318  -0.000784
    22  C    0.025276  -0.000045  -0.000026  -0.000022   0.000483   0.003453
    23  H    0.002081  -0.000073   0.000028  -0.000141  -0.000268  -0.000908
    24  H   -0.001798   0.000000  -0.000002   0.000008   0.000051   0.000258
    25  H    0.001029   0.000000  -0.000000   0.000002  -0.000004   0.000237
    26  H    0.002256  -0.000000   0.000001  -0.000005   0.000025  -0.000672
    27  O   -0.085645  -0.000004   0.000005  -0.000011  -0.000015   0.005791
              19         20         21         22         23         24
     1  C   -0.008530   0.004347  -0.025183  -0.001649  -0.004287   0.000053
     2  C   -0.000614  -0.005980   0.007901  -0.001020   0.003337  -0.000177
     3  C    0.000368   0.007542  -0.014384   0.000672  -0.004345  -0.000071
     4  C    0.070420   0.049504   0.145965  -0.022766   0.023375   0.000880
     5  C   -0.010305   0.350400  -0.387406   0.049377  -0.094389   0.005265
     6  C    0.006058  -0.033748  -0.079443  -0.006100  -0.003256  -0.002334
     7  C    0.067108   0.056974  -0.072766  -0.006560  -0.000428  -0.002143
     8  C   -0.060786   0.116199   0.218912  -0.134722   0.003840   0.010641
     9  C   -0.062048  -0.515430  -0.171774  -0.327600  -0.002200   0.009051
    10  C   -0.022898  -0.065697  -0.228665   0.071127  -0.013201   0.000890
    11  O    0.006568  -0.000932   0.007083   0.000581  -0.000042   0.000021
    12  O    0.000120   0.012965   0.012597   0.016399   0.023882  -0.002758
    13  N    0.349387  -0.028140   0.006978   0.025276   0.002081  -0.001798
    14  H    0.000254   0.000193  -0.001422  -0.000045  -0.000073   0.000000
    15  H    0.000005   0.000023   0.000014  -0.000026   0.000028  -0.000002
    16  H   -0.000003   0.000270  -0.000370  -0.000022  -0.000141   0.000008
    17  H   -0.000051  -0.001634  -0.001318   0.000483  -0.000268   0.000051
    18  H   -0.037954  -0.008088  -0.000784   0.003453  -0.000908   0.000258
    19  H    0.473271   0.017410  -0.010394  -0.017358   0.000693  -0.001055
[...]
 .00301094,-0.00105838,-0.00028164,-0.01403263,0.00177185,0.00143740,0.
 00158465,0.00616221,0.00067364,-0.00018394,0.00003660,0.00005117,0.000
 00680,0.00005791,-0.00001574,-0.00013414,0.00006236,0.00001337,0.00042
 412,-0.00004023,-0.00005468,0.00048521,0.00025147,0.00025594,-0.002963
 80,0.00100250,-0.00055091,0.05417718,0.67288622,-0.00027515,0.00007355
 ,-0.00019074,0.00015507,-0.00000052,0.00011168,-0.00024899,0.00000933,
 -0.00045288,0.00038213,-0.00029550,-0.00110887,-0.00066902,0.00010010,
 0.00456146,0.00025390,0.00022897,0.00013721,0.00089511,0.00013850,0.00
 563976,-0.00073200,-0.00372819,0.00225053,0.01102945,-0.02048832,-0.04
 749068,0.00688628,0.00155984,0.00589119,-0.00010712,0.00096456,-0.0004
 8519,0.00050244,-0.00123624,-0.00035748,0.00159909,-0.00010749,-0.0019
 1597,-0.00000563,0.00002670,0.00003972,-0.00002041,0.00001610,0.000081
 87,-0.00005815,0.00000120,-0.00007178,0.00005613,-0.00002746,0.0001092
 2,0.00019002,-0.00006323,-0.00039354,-0.00393425,0.00216341,-0.0016026
 0,0.08989869,0.12945152,0.11909693,-0.00152148,0.00048009,0.00011846,0
 .00140113,-0.00031016,-0.00020399,0.00004339,0.00024113,-0.00014639,0.
 00188003,-0.00203319,-0.00023494,-0.00210981,0.00233152,0.00115762,0.0
 0078545,-0.00040107,-0.00009526,-0.00552613,0.00395990,-0.00000843,0.0
 1897344,0.00971492,-0.00488334,-0.04215465,0.00883827,-0.00144512,0.00
 748285,0.00058911,-0.00240982,0.00019519,-0.00431648,0.00013737,0.0052
 3181,0.00075717,-0.00068990,-0.01746847,-0.00056541,0.00191306,-0.0000
 1397,-0.00018921,0.00003098,0.00027760,-0.00012379,-0.00000555,0.00033
 828,0.00013145,-0.00003529,-0.00015894,0.00010825,0.00010099,-0.001126
 44,0.00009270,-0.00107974,0.01170933,-0.01014354,0.00391040,-0.3183536
 9,-0.01305797,-0.05009834,0.66280661,-0.00096384,0.00022458,0.00006000
 ,0.00080417,-0.00024550,-0.00012545,-0.00034394,0.00025366,0.00001356,
 0.00092954,-0.00069724,0.00004919,-0.00135542,0.00238642,-0.00002372,0
 .00113359,-0.00040027,-0.00013259,-0.00239812,0.00171211,-0.00085200,0
 .01768714,0.01514481,-0.00323663,0.01927150,0.00251571,0.00792152,0.00
 621565,-0.01169075,-0.00279720,-0.00106380,-0.00193906,0.00022458,-0.0
 0490342,0.00340685,0.00214496,-0.01681460,-0.00020850,0.00315188,0.000
 06805,-0.00009652,0.00001210,0.00008147,-0.00004462,0.00000664,0.00016
 268,0.00002983,-0.00000928,0.00000573,0.00006855,0.00003943,-0.0014507
 9,-0.00031250,-0.00073318,0.01000501,-0.01747582,0.00173899,0.01700936
 ,-0.13140037,-0.01353838,0.09586670,0.71757953,-0.00045773,0.00003810,
 -0.00007568,0.00040975,0.00010730,-0.00000646,0.00020841,-0.00009018,-
 0.00026289,0.00047159,-0.00009990,0.00009989,0.00101340,0.00121606,0.0
 0047724,0.00019794,-0.00050376,0.00007923,-0.00196718,0.00149278,0.000
 04870,0.00775552,0.00728102,-0.00015656,0.00641203,0.00565798,-0.00028
 324,0.00292597,-0.00382077,-0.00088883,-0.00016020,-0.00200482,0.00006
 059,0.00179375,0.00028043,-0.00016440,-0.00885914,-0.00104984,-0.00053
 886,0.00002752,-0.00007140,0.00001204,0.00009113,-0.00004157,0.0000215
 6,0.00014827,0.00001540,-0.00001975,-0.00007265,0.00003652,0.00010813,
 -0.00094882,0.00001794,-0.00079172,0.00678145,-0.00661064,0.00375118,-
 0.05970623,-0.02725980,-0.06368048,0.12635983,0.19470080,0.30481937,0.
 00011036,-0.00002703,-0.00000825,-0.00007830,-0.00003926,0.00000983,-0
 .00009323,-0.00001008,-0.00000300,-0.00010878,0.00006122,-0.00004516,-
 0.00021735,-0.00050230,0.00021652,-0.00001891,0.00013523,0.00000029,0.
 00060040,-0.00008115,0.00004026,-0.00120545,-0.00002944,0.00032136,0.0
 0111159,-0.00277780,-0.00308573,-0.00053543,0.00161131,-0.00011612,-0.
 00019503,0.00029154,0.00000107,-0.00007028,-0.00082754,-0.00013428,0.0
 0052284,0.00021974,0.00021974,0.00000922,0.00001076,0.00000073,-0.0000
 2049,0.00000740,0.00000546,-0.00003758,-0.00000259,0.00000183,0.000005
 38,-0.00001756,0.00000969,0.00004807,-0.00003806,-0.00002287,-0.000324
 46,0.00010528,-0.00046485,-0.03435009,0.03070770,0.00305243,-0.1168999
 9,0.04003383,0.00578220,0.52993374,0.00005813,-0.00002178,-0.00001667,
 -0.00004706,0.00002571,0.00002647,0.00007049,-0.00000426,-0.00002925,-
 0.00005585,0.00001788,-0.00001726,0.00026028,-0.00002676,0.00006812,-0
 .00009343,-0.00002798,0.00002442,0.00003583,0.00003879,0.00016255,-0.0
 0119468,-0.00163126,0.00011688,-0.00338259,0.00301916,-0.00196643,0.00
 014502,0.00095122,0.00024143,0.00011893,0.00000557,-0.00001800,0.00021
 359,-0.00086880,-0.00029230,0.00162061,-0.00013682,0.00031561,-0.00000
 834,0.00000118,-0.00000072,0.00000551,-0.00000254,-0.00000358,0.000001
 40,-0.00000065,0.00000018,-0.00000994,0.00000121,0.00000486,0.00013792
 ,0.00000380,0.00007102,-0.00115417,0.00154541,-0.00108606,0.00967088,0
 .00059549,-0.00192221,0.05054405,-0.13229191,-0.00686077,0.06195085,0.
 50732014,-0.00003250,0.00002298,0.00001571,0.00004067,0.00002300,-0.00
 000863,0.00001501,-0.00006210,0.00004011,0.00008786,-0.00005914,0.0000
 1889,-0.00025784,-0.00034341,-0.00043862,-0.00012373,0.00009578,-0.000
 01885,-0.00003181,-0.00003054,-0.00031983,0.00007983,-0.00015453,-0.00
 014160,-0.00100229,-0.00426346,0.00615031,-0.00085968,0.00093327,0.000
 26124,0.00012529,0.00004386,0.00001446,0.00022307,-0.00000974,0.000372
 77,0.00058008,-0.00074392,0.00022642,-0.00000809,-0.00000103,-0.000001
 30,0.00000688,-0.00000184,-0.00000605,-0.00000462,0.00000869,0.0000096
 3,-0.00000655,-0.00000011,-0.00001086,0.00010223,0.00007289,0.00019353
 ,-0.00049231,0.00081199,-0.00007563,-0.00997458,0.00621532,0.01025878,
 0.01223754,-0.00902445,-0.08018469,0.02517259,0.00277224,0.53721021,0.
 00077473,-0.00041571,-0.00007620,-0.00043632,-0.00018380,0.00005307,0.
 00013570,-0.00002378,-0.00002606,-0.00086032,0.00054568,0.00021451,0.0
 0251574,-0.00231062,-0.00039083,-0.00044500,-0.00034478,0.00007098,0.0
 0148914,0.00223288,-0.00071951,-0.00521518,0.00249339,0.00114399,0.011
 78763,0.02475811,0.00474397,-0.00617766,0.01854177,0.00206664,-0.00090
 399,-0.00114412,0.00019379,0.00858989,-0.00861990,-0.00423253,-0.00120
 166,-0.00086740,0.00067245,0.00006226,-0.00004858,-0.00002162,0.000046
 05,-0.00006074,-0.00000420,0.00007023,0.00001195,-0.00000735,-0.000408
 27,-0.00001067,0.00004707,0.00009254,-0.00003269,-0.00010129,0.0003211
 1,-0.00049847,-0.00012487,-0.09411848,-0.09173743,-0.02285306,-0.01039
 110,-0.03240359,-0.00753379,-0.00072613,-0.00077516,-0.00028755,0.0983
 9027,0.00035151,-0.00020748,0.00001316,-0.00021941,-0.00004540,0.00002
 836,0.00005238,-0.00005368,-0.00002985,-0.00014949,0.00037112,0.000035
 27,0.00109814,-0.00208373,-0.00051723,-0.00048878,-0.00007700,0.000060
 30,-0.00016599,0.00017271,0.00006587,0.00195031,0.00081285,-0.00147924
 ,0.00611690,-0.02828388,-0.00387767,0.00007317,0.00350763,0.00015299,-
 0.00004146,-0.00094059,0.00007946,0.00040012,-0.00584402,-0.00057300,-
 0.00079687,0.00010101,0.00016407,0.00002616,-0.00003940,-0.00001227,0.
 00002313,-0.00002156,0.00000432,0.00002067,0.00000617,-0.00000279,-0.0
 0017838,0.00004410,0.00003073,0.00000911,-0.00009607,-0.00000479,0.000
 60186,-0.00077935,0.00009398,-0.09739808,-0.35755662,-0.06472275,-0.00
 620049,0.00214570,-0.00105161,0.00264682,0.00051746,0.00051214,0.08530
 651,0.38402607,-0.00023094,0.00009635,0.00002281,0.00013297,-0.0000052
 7,-0.00002859,-0.00009513,0.00004346,0.00002560,0.00029801,-0.00022178
 ,-0.00006905,-0.00095172,0.00027084,0.00023688,0.00010928,0.00014551,0
 .00000782,-0.00033985,-0.00001753,0.00080504,0.00108938,0.00078630,-0.
 00016532,-0.00141481,-0.00536894,0.00066956,0.00182325,-0.00220660,0.0
 0123488,-0.00000479,0.00031774,-0.00019932,-0.00238161,0.00121987,-0.0
 0522443,-0.00062371,-0.00019321,0.00032591,-0.00001742,0.00000464,0.00
 000338,-0.00000364,0.00000706,0.00000540,-0.00001509,0.00000594,0.0000
 1539,0.00006788,-0.00000025,-0.00002209,-0.00003808,0.00001087,0.00002
 604,0.00020876,-0.00052592,-0.00009395,-0.01639190,-0.05355004,-0.0289
 1282,-0.00734088,-0.00960085,-0.01021012,0.00126520,0.00111750,-0.0036
 3511,0.02732322,0.06852737,0.03644717,0.00000767,-0.00000167,0.0000033
 1,0.00000463,-0.00002009,0.00000139,0.00000703,0.00001910,-0.00000408,
 -0.00001068,-0.00003376,0.00001026,-0.00000301,0.00003373,-0.00003261,
 0.00000964,-0.00002570,0.00000653,-0.00001685,0.00005961,-0.00001859,0
 .00011036,0.00017097,-0.00003716,0.00042496,-0.00007769,0.00010197,0.0
 0012556,0.00005558,0.00005348,0.00000673,-0.00008315,0.00000563,0.0001
 7375,-0.00014310,-0.00004041,-0.00016753,-0.00000149,-0.00002889,0.000
 00026,-0.00000444,0.00000019,0.00000614,-0.00000405,-0.00000206,0.0000
 0974,0.00000261,-0.00000092,-0.00001103,0.00000407,-0.00000196,-0.0000
 1711,0.00001064,-0.00002360,0.00013316,-0.00015083,0.00013683,-0.00052
 937,0.00013209,-0.00000604,0.01186666,0.01079727,0.00467213,-0.1252695
 6,-0.11213012,-0.04383970,-0.00121463,0.00170907,0.00022512,0.13401829
 ,-0.00000125,0.00002463,0.00000078,0.00001902,-0.00002356,0.00000187,0
 .00000481,0.00002134,-0.00000468,-0.00000616,-0.00009449,-0.00000528,-
 0.00009171,0.00011019,0.00004683,0.00001277,-0.00000195,0.00000413,0.0
 0017228,-0.00001778,-0.00004130,-0.00066907,-0.00017935,0.00019606,0.0
 0074899,0.00053834,-0.00010730,-0.00004600,-0.00075350,-0.00015306,0.0
 0004551,0.00010468,0.00000048,-0.00018409,0.00063026,0.00012256,0.0005
 9176,-0.00015070,0.00012061,-0.00000314,-0.00000105,-0.00000117,0.0000
 0431,-0.00000073,-0.00000136,0.00000533,0.00000286,-0.00000238,0.00000
 934,0.00000441,-0.00000122,0.00005656,0.00003053,0.00003697,-0.0004390
 3,0.00062917,-0.00037065,-0.00034046,0.00164220,0.00131665,-0.02273069
 ,-0.01422794,-0.00657430,-0.10755280,-0.21136461,-0.06173076,0.0021365
 2,-0.00001882,-0.00030266,0.12085293,0.22779935,-0.00000882,0.00001716
 ,0.00000462,0.00001467,-0.00001461,-0.00000712,-0.00000385,0.00001399,
 -0.00000157,0.00000441,-0.00005271,0.00000495,-0.00008145,0.00007913,-
 0.00000673,0.00001785,-0.00000100,-0.00000400,0.00006503,-0.00001962,-
 0.00001285,-0.00020183,-0.00003624,0.00004924,0.00032980,0.00013475,-0
 .00000558,-0.00000659,-0.00045028,0.00000614,0.00001795,0.00005583,-0.
 00000860,-0.00010593,0.00043465,-0.00013555,0.00022271,-0.00009580,0.0
 0003789,-0.00000126,-0.00000022,0.00000052,0.00000184,0.00000027,0.000
 00144,0.00000382,0.00000116,0.00000153,0.00000733,0.00000132,0.0000056
 1,0.00003041,0.00000929,0.00001493,-0.00018177,0.00025672,-0.00009998,
 -0.00036310,0.00057460,-0.00007433,-0.00434171,-0.00213999,-0.00495302
 ,-0.04250493,-0.06249401,-0.07109069,0.00037888,-0.00003066,0.00090741
 ,0.04733158,0.06964189,0.07155607,0.00000409,-0.00001657,0.00000706,-0
 .00002590,0.00003876,0.00000876,-0.00000799,-0.00004119,0.00000333,0.0
 0002452,0.00008548,-0.00000787,-0.00000150,-0.00019366,-0.00005356,-0.
 00004908,0.00004832,0.00001451,0.00002411,-0.00008151,-0.00005926,-0.0
 0035870,-0.00041343,0.00009290,-0.00041952,-0.00035604,0.00089659,-0.0
 0016715,0.00065494,0.00005781,-0.00000763,0.00013647,0.00001092,-0.000
 02460,-0.00032478,0.00017241,0.00035260,-0.00001053,-0.00002642,-0.000
 00134,0.00000758,-0.00000231,-0.00001008,0.00000466,-0.00000207,-0.000
 01627,-0.00000306,0.00000181,0.00000277,-0.00000777,-0.00001072,0.0000
 3279,0.00000227,0.00003746,-0.00016302,0.00022001,-0.00003668,-0.00270
 254,0.00335640,0.00104879,-0.01247649,0.00475970,-0.01774793,-0.105274
 97,0.02839218,-0.11140320,0.00065177,0.00050589,-0.00084485,-0.0081151
 9,0.00486424,-0.01311607,0.11555211,-0.00000838,0.00000972,-0.00000950
 ,0.00001934,-0.00001555,-0.00000644,0.00001359,0.00002017,-0.00001497,
 -0.00001010,-0.00004567,-0.00000700,0.00006936,0.00017077,0.00015221,0
 .00002749,-0.00004731,0.00000550,-0.00002796,0.00008390,0.00002176,0.0
 0013589,0.00024485,0.00010564,0.00051208,0.00094412,-0.00069094,0.0001
 3637,-0.00064205,-0.00024824,0.00001007,-0.00010901,-0.00000723,-0.000
 04193,0.00024839,-0.00001231,-0.00024978,0.00000645,-0.00009493,0.0000
 0102,-0.00000550,0.00000131,0.00000847,-0.00000345,0.00000242,0.000012
 70,0.00000146,-0.00000335,-0.00000224,0.00000600,0.00000327,-0.0000096
 2,0.00000846,-0.00001367,0.00012637,-0.00011442,0.00006274,0.00201971,
 -0.00288608,-0.00085554,0.01219911,-0.00584874,0.02409416,0.02731318,-
 0.06063967,0.04960106,0.00016261,-0.00025436,0.00012299,-0.01148009,0.
 00746405,-0.02198699,-0.03385170,0.06200646,0.00000537,-0.00001563,-0.
 00000064,-0.00002295,0.00002757,0.00000213,-0.00000039,-0.00001800,0.0
 0000595,0.00000866,0.00007138,0.00000041,0.00006785,-0.00005305,0.0000
 0090,-0.00001010,0.00001255,-0.00000117,-0.00000023,-0.00008251,0.0000
 1883,-0.00019525,-0.00028722,0.00006899,0.00013178,0.00033540,-0.00028
 508,0.00004462,0.00013298,0.00005171,-0.00000985,0.00009047,-0.0000023
 1,-0.00004114,-0.00011602,0.00002533,0.00012255,0.00007798,-0.00007032
 ,0.00000079,0.00000552,-0.00000102,-0.00000940,0.00000472,0.00000030,-
 0.00001020,-0.00000516,-0.00000001,0.00000405,-0.00000367,-0.00000335,
 0.00001383,-0.00001166,0.00002377,-0.00003455,0.00005263,0.00000410,0.
 00078674,-0.00007058,-0.00020418,0.00265163,-0.00347679,0.00561357,-0.
 11092331,0.05010938,-0.23264223,0.00030990,0.00007783,0.00000837,-0.00
 260403,0.00167199,-0.00647607,0.12019321,-0.05407820,0.25252749,0.0000
 1199,-0.00002356,-0.00000018,-0.00004242,0.00004945,0.00000398,0.00000
 013,-0.00003461,-0.00000791,0.00000921,0.00011498,-0.00002203,0.000100
 11,-0.00011241,0.00005957,-0.00004035,0.00002310,0.00000242,0.00006921
 ,-0.00012041,0.00008649,-0.00076053,-0.00081377,0.00008719,-0.00058024
 ,0.00130594,-0.00109786,0.00003683,0.00041480,0.00005692,-0.00001971,0
 .00020558,-0.00000817,-0.00010733,-0.00028790,-0.00011010,0.00056550,0
 .00023743,-0.00028338,-0.00000021,0.00001055,0.00000201,-0.00001452,0.
 00000735,0.00000368,-0.00001734,-0.00000714,0.00000260,0.00000879,-0.0
 0000834,0.00000190,0.00001567,-0.00001212,0.00001647,-0.00023027,0.000
 17007,0.00005324,-0.00070632,0.00240167,-0.00003945,-0.01654365,-0.004
 38981,0.01328724,-0.16337772,-0.04259766,0.12702602,0.00059433,0.00023
 874,0.00101102,-0.01102273,-0.00266289,0.01130826,0.01180079,0.0036481
 6,-0.01132997,0.17844962,-0.00004233,0.00002581,0.00000771,0.00004630,
 -0.00001386,-0.00000940,-0.00000759,0.00000544,0.00000899,0.00004867,-
 0.00007417,0.00001163,-0.00012993,0.00008785,-0.00010688,0.00002668,-0
 .00000076,-0.00001200,-0.00004339,0.00004153,-0.00005599,0.00042728,0.
 00058948,-0.00012754,0.00085361,-0.00085323,0.00113057,-0.00006234,-0.
 00064133,0.00002168,0.00000851,-0.00003400,0.00000827,-0.00005958,0.00
 057113,0.00007514,-0.00035082,-0.00021761,0.00014625,0.00000003,-0.000
 00385,-0.00000111,0.00000571,-0.00000158,-0.00000016,0.00000835,0.0000
 0325,0.00000164,0.00000288,0.00000339,0.00000013,-0.00000574,0.0000173
 3,0.00000074,0.00008225,-0.00002562,-0.00004456,0.00023081,-0.00187973
 ,0.00027046,0.01932578,0.00621342,-0.02112061,-0.04166043,-0.05834780,
 0.03942479,0.00024653,-0.00031909,-0.00030593,-0.01596991,-0.00505543,
 0.01859968,-0.00509342,-0.00233798,0.00488706,0.04331030,0.06196276,0.
 00000307,0.00001522,-0.00000364,0.00001771,-0.00003375,-0.00000146,-0.
 00000454,0.00002467,0.00000084,-0.00002470,-0.00007260,0.00000730,-0.0
 0006316,0.00007178,0.00001154,0.00002024,-0.00001278,-0.00000335,0.000
 04264,0.00008834,0.00000833,0.00011736,0.00036462,0.00002310,0.0003159
 5,-0.00015175,-0.00025636,0.00001654,-0.00026711,-0.00002422,0.0000001
 6,-0.00009089,-0.00000739,-0.00000209,0.00018102,0.00005084,-0.0001678
 2,-0.00012018,0.00004607,0.00000010,-0.00000546,-0.00000012,0.00000891
 ,-0.00000448,-0.00000119,0.00000981,0.00000472,-0.00000123,-0.00000387
 ,0.00000363,-0.00000087,0.00000985,0.00001238,0.00000168,0.00006297,0.
 00001398,-0.00002322,-0.00079094,-0.00050164,-0.00030898,0.00253943,0.
 00169938,-0.00283027,0.12539833,0.04091928,-0.17216882,-0.00004010,0.0
 0001962,0.00019292,-0.00806202,-0.00157106,0.00816287,0.01928788,0.006
 27890,-0.01940687,-0.13790608,-0.04577772,0.18542428,0.00006957,-0.000
 20859,-0.00005000,-0.00034284,0.00049939,0.00006607,-0.00001306,-0.000
 41388,0.00003774,0.00012001,0.00122659,-0.00006239,0.00094885,-0.00121
 246,-0.00042577,-0.00037432,0.00024887,0.00005250,0.00047897,-0.001196
 89,0.00051007,-0.00204140,-0.00317562,0.00142566,0.00991261,-0.0010560
 5,0.00202177,-0.00175101,0.00015268,0.00067429,-0.00045141,0.00174401,
 0.00011501,-0.00280545,-0.00076152,0.00074257,0.00172283,0.00858903,-0
 .00483419,0.00000878,0.00009409,-0.00001449,-0.00014371,0.00007179,0.0
 0001860,-0.00016357,-0.00007108,0.00001810,0.00008776,-0.00005917,-0.0
 0003230,-0.00111161,-0.00003924,-0.00055506,-0.00918486,0.00199869,-0.
 00134294,-0.04055017,-0.06226008,-0.03690192,-0.17824693,-0.15874409,-
 0.08088447,0.01646214,0.00822333,0.00262739,-0.00342266,0.00450846,-0.
 00285969,-0.00052689,0.00520294,0.00118276,0.00137643,-0.00073375,0.00
 085040,0.00180117,-0.00119820,-0.00078564,0.20814076,0.00106181,-0.000
 13782,0.00001473,-0.00080645,0.00008410,0.00011897,0.00035571,0.000015
 62,0.00003267,-0.00116292,0.00033865,0.00004105,0.00147033,-0.00090666
 ,-0.00063748,-0.00083636,0.00020025,0.00008337,0.00334152,-0.00239187,
 -0.00039696,-0.01784124,-0.01704048,0.00388534,0.00283457,0.00489153,0
 .00203750,-0.00426079,0.00259985,0.00212613,0.00135443,0.00263153,-0.0
 0022451,-0.00070131,0.00011821,0.00000623,0.02445709,-0.00543676,0.001
 69342,-0.00007467,0.00009314,-0.00001577,-0.00007583,0.00004669,-0.000
 02262,-0.00012535,-0.00003685,0.00001509,0.00007016,-0.00001317,-0.000
 05751,0.00280702,0.00031113,0.00189365,-0.00891869,0.01077536,-0.00172
 777,-0.05045195,-0.01120459,-0.02933504,-0.14510816,-0.43480143,-0.157
 77854,-0.01152882,-0.04867820,-0.02411296,0.00304149,0.00491623,-0.000
 37747,0.00627842,-0.00711210,-0.00249833,-0.00268325,0.00173497,0.0006
 6101,-0.00106750,0.00028466,-0.00108813,0.19857076,0.49871802,0.000297
 22,-0.00010140,0.00000937,-0.00035304,-0.00007258,0.00006412,-0.000196
 50,0.00014351,0.00009582,-0.00044697,0.00036346,-0.00005804,-0.0001581
 1,-0.00033375,0.00012018,0.00010519,0.00017442,-0.00003486,0.00068561,
 -0.00104836,0.00019043,-0.00363749,-0.00280162,-0.00006267,-0.00088173
 ,0.00202200,-0.00179897,0.00013710,0.00062872,0.00081488,-0.00034683,0
 .00108541,0.00015259,-0.00210038,-0.00030343,0.00000384,0.00090120,0.0
 0721704,0.00120230,-0.00000071,0.00005468,-0.00002016,-0.00008551,0.00
 003299,-0.00001245,-0.00009616,-0.00002838,0.00000455,0.00006880,-0.00
 002587,-0.00006496,-0.00092805,-0.00011807,-0.00019764,-0.00278589,0.0
 0069948,-0.00603840,-0.02688374,-0.02662424,-0.00092782,-0.07813862,-0
 .16607252,-0.15004455,-0.00418904,-0.02124267,0.00597084,-0.00079952,0
 .00243639,0.00762622,0.00215365,-0.00229364,0.00212287,0.00147749,-0.0
 0242266,0.00074142,-0.00220386,0.00296716,0.00110823,0.11840593,0.2056
 6394,0.13903286\\0.00000294,0.00000074,0.00000038,-0.00000130,-0.00000
 200,-0.00000071,-0.00000011,0.00000220,0.00000024,-0.00000239,0.000003
 51,-0.00000287,0.00000167,-0.00000507,-0.00000532,0.00000071,-0.000000
 73,-0.00000075,-0.00000254,0.00000718,0.00000752,0.00000632,-0.0000017
 3,0.00000056,0.00000079,-0.00000156,0.00000740,-0.00000295,0.00001089,
 0.00000562,0.00000027,-0.00000540,-0.00000215,-0.00000011,-0.00000995,
 -0.00000135,-0.00000375,0.00000153,-0.00000456,-0.00000050,-0.00000030
 ,-0.00000022,0.,0.00000029,-0.00000002,-0.00000014,-0.00000044,-0.0000
 0044,-0.00000065,0.00000035,-0.00000087,0.00000159,-0.00000152,0.00000
 116,0.00000085,-0.00000102,0.00000289,-0.00000021,0.00000099,-0.000005
 64,0.00000101,0.00000486,-0.00000135,0.00000706,-0.00000115,-0.0000028
 6,0.00000074,0.00000041,-0.00000223,-0.00000149,0.00000059,0.00000268,
 -0.00000227,-0.00000248,0.00000189,-0.00000319,-0.00000032,0.00000169,
 -0.00000232,0.00000017,-0.00000068\\\@


 SIGN SEEN IN A RESTAURANT-
 WE RESERVE THE RIGHT TO SERVE REFUSE TO ANYONE.
 Job cpu time:       0 days  5 hours  2 minutes 54.2 seconds.
 Elapsed time:       0 days  1 hours  1 minutes 28.2 seconds.
 File lengths (MBytes):  RWF=    982 Int=      0 D2E=      0 Chk=     23 Scr=      1
 Normal termination of Gaussian 16 at Wed Dec 27 00:20:23 2023.
