 Entering Gaussian System, Link 0=g16
 Input=344-PCM.com
 Output=344-PCM.log
 Initial command:
 /sysapps/ubuntu-applications/gaussian/Gaussian/AVX2/g16/l1.exe "/scratch/selhajj1/4283332/Gau-3498598.inp" -scrdir="/scratch/selhajj1/4283332/"
 Entering Link 1 = /sysapps/ubuntu-applications/gaussian/Gaussian/AVX2/g16/l1.exe PID=   3498600.
  
 Copyright (c) 1988,1990,1992,1993,1995,1998,2003,2009,2016,
            Gaussian, Inc.  All Rights Reserved.
  
 This is part of the Gaussian(R) 16 program.  It is based on
 the Gaussian(R) 09 system (copyright 2009, Gaussian, Inc.),
 the Gaussian(R) 03 system (copyright 2003, Gaussian, Inc.),
 the Gaussian(R) 98 system (copyright 1998, Gaussian, Inc.),
 the Gaussian(R) 94 system (copyright 1995, Gaussian, Inc.),
 the Gaussian 92(TM) system (copyright 1992, Gaussian, Inc.),
 the Gaussian 90(TM) system (copyright 1990, Gaussian, Inc.),
 the Gaussian 88(TM) system (copyright 1988, Gaussian, Inc.),
 the Gaussian 86(TM) system (copyright 1986, Carnegie Mellon
 University), and the Gaussian 82(TM) system (copyright 1983,
 Carnegie Mellon University). Gaussian is a federally registered
 trademark of Gaussian, Inc.
  
 This software contains proprietary and confidential information,
 including trade secrets, belonging to Gaussian, Inc.
  
 This software is provided under written license and may be
 used, copied, transmitted, or stored only in accord with that
 written license.
  
 The following legend is applicable only to US Government
 contracts under FAR:
  
                    RESTRICTED RIGHTS LEGEND
  
 Use, reproduction and disclosure by the US Government is
 subject to restrictions as set forth in subparagraphs (a)
 and (c) of the Commercial Computer Software - Restricted
 Rights clause in FAR 52.227-19.
  
 Gaussian, Inc.
 340 Quinnipiac St., Bldg. 40, Wallingford CT 06492
  
  
 ---------------------------------------------------------------
 Warning -- This program may not be used in any manner that
 competes with the business of Gaussian, Inc. or will provide
 assistance to any competitor of Gaussian, Inc.  The licensee
 of this program is prohibited from giving any competitor of
 Gaussian, Inc. access to this program.  By using this program,
 the user acknowledges that Gaussian, Inc. is engaged in the
 business of creating and licensing software in the field of
 computational chemistry and represents and warrants to the
 licensee that it is not a competitor of Gaussian, Inc. and that
 it will not use this program in any manner prohibited above.
 ---------------------------------------------------------------
  

 Cite this work as:
 Gaussian 16, Revision A.03,
 M. J. Frisch, G. W. Trucks, H. B. Schlegel, G. E. Scuseria, 
 M. A. Robb, J. R. Cheeseman, G. Scalmani, V. Barone, 
 G. A. Petersson, H. Nakatsuji, X. Li, M. Caricato, A. V. Marenich, 
 J. Bloino, B. G. Janesko, R. Gomperts, B. Mennucci, H. P. Hratchian, 
 J. V. Ortiz, A. F. Izmaylov, J. L. Sonnenberg, D. Williams-Young, 
 F. Ding, F. Lipparini, F. Egidi, J. Goings, B. Peng, A. Petrone, 
 T. Henderson, D. Ranasinghe, V. G. Zakrzewski, J. Gao, N. Rega, 
 G. Zheng, W. Liang, M. Hada, M. Ehara, K. Toyota, R. Fukuda, 
 J. Hasegawa, M. Ishida, T. Nakajima, Y. Honda, O. Kitao, H. Nakai, 
 T. Vreven, K. Throssell, J. A. Montgomery, Jr., J. E. Peralta, 
 F. Ogliaro, M. J. Bearpark, J. J. Heyd, E. N. Brothers, K. N. Kudin, 
 V. N. Staroverov, T. A. Keith, R. Kobayashi, J. Normand, 
 K. Raghavachari, A. P. Rendell, J. C. Burant, S. S. Iyengar, 
 J. Tomasi, M. Cossi, J. M. Millam, M. Klene, C. Adamo, R. Cammi, 
 J. W. Ochterski, R. L. Martin, K. Morokuma, O. Farkas, 
 J. B. Foresman, and D. J. Fox, Gaussian, Inc., Wallingford CT, 2016.
 
 ******************************************
 Gaussian 16:  ES64L-G16RevA.03 25-Dec-2016
                13-Jan-2024 
 ******************************************
 %chk=344-PCM.chk
 %nproc=8
 Will use up to    8 processors via shared memory.
 %mem=30GB
 ----------------------------------------------------------------
 #P UB3LYP/6-311++G(d,p) SCRF=(PCM,Solvent=n,n-DiMethylFormamide)
 ----------------------------------------------------------------
 1/38=1,172=1/1;
 2/12=2,17=6,18=5,40=1/2;
 3/5=4,6=6,7=1111,11=2,25=1,30=1,70=2201,72=148,74=-5,116=2/1,2,3;
 4//1;
 5/5=2,38=5,53=148/2;
 6/7=2,8=2,9=2,10=2,28=1/1;
 99/5=1,9=1/99;
 Leave Link    1 at Sat Jan 13 19:14:42 2024, MaxMem=  4026531840 cpu:               0.6 elap:               0.1
 (Enter /sysapps/ubuntu-applications/gaussian/Gaussian/AVX2/g16/l101.exe)
 ------------------
 Quinone PCM in DMF
 ------------------
 Symbolic Z-matrix:
 Charge =  0 Multiplicity = 1
 O                     0.05118  -2.1164   -1.47417 
 C                     0.02679  -1.11346  -0.77286 
 C                     1.32827  -0.56816  -0.26838 
 C                     2.35743  -1.52141  -0.16561 
 C                     3.6345   -1.17587   0.24331 
 C                     3.92729   0.16103   0.52714 
 C                     2.93387   1.11662   0.41212 
 C                     1.61211   0.78423   0.0393 
 C                     0.67162   1.88822  -0.02217 
 C                    -0.67615   1.88558  -0.06517 
 C                    -1.61433   0.77791  -0.0636 
 C                    -2.9584    1.10509   0.22443 
 C                    -3.95344   0.14566   0.27598 
 C                    -3.63807  -1.19001   0.01116 
 C                    -2.33625  -1.53051  -0.31568 
 C                    -1.30629  -0.5733   -0.35262 
 H                     2.12242  -2.54491  -0.42683 
 H                     4.40217  -1.93631   0.32777 
 H                     4.92637   0.45162   0.83183 
 H                     3.16342   2.15568   0.6218 
 H                     1.13959   2.86704   0.0323 
 H                    -1.1505    2.86254  -0.04081 
 H                    -3.20482   2.1432    0.41918 
 H                    -4.97097   0.43233   0.51658 
 H                    -4.40664  -1.9534    0.04649 
 H                    -2.08116  -2.55301  -0.5615 
 
 ITRead=  0  0  0  0  0  0  0  0  0  0  0  0  0  0  0  0  0  0  0  0
 ITRead=  0  0  0  0  0  0
 MicOpt= -1 -1 -1 -1 -1 -1 -1 -1 -1 -1 -1 -1 -1 -1 -1 -1 -1 -1 -1 -1
 MicOpt= -1 -1 -1 -1 -1 -1
 NAtoms=     26 NQM=       26 NQMF=       0 NMMI=      0 NMMIF=      0
                NMic=       0 NMicF=      0.
                    Isotopes and Nuclear Properties:
 (Nuclear quadrupole moments (NQMom) in fm**2, nuclear magnetic moments (NMagM)
  in nuclear magnetons)

  Atom         1           2           3           4           5           6           7           8           9          10
 IAtWgt=          16          12          12          12          12          12          12          12          12          12
 AtmWgt=  15.9949146  12.0000000  12.0000000  12.0000000  12.0000000  12.0000000  12.0000000  12.0000000  12.0000000  12.0000000
 NucSpn=           0           0           0           0           0           0           0           0           0           0
 AtZEff=  -0.0000000  -0.0000000  -0.0000000  -0.0000000  -0.0000000  -0.0000000  -0.0000000  -0.0000000  -0.0000000  -0.0000000
 NQMom=    0.0000000   0.0000000   0.0000000   0.0000000   0.0000000   0.0000000   0.0000000   0.0000000   0.0000000   0.0000000
 NMagM=    0.0000000   0.0000000   0.0000000   0.0000000   0.0000000   0.0000000   0.0000000   0.0000000   0.0000000   0.0000000
 AtZNuc=   8.0000000   6.0000000   6.0000000   6.0000000   6.0000000   6.0000000   6.0000000   6.0000000   6.0000000   6.0000000

  Atom        11          12          13          14          15          16          17          18          19          20
 IAtWgt=          12          12          12          12          12          12           1           1           1           1
 AtmWgt=  12.0000000  12.0000000  12.0000000  12.0000000  12.0000000  12.0000000   1.0078250   1.0078250   1.0078250   1.0078250
 NucSpn=           0           0           0           0           0           0           1           1           1           1
 AtZEff=  -0.0000000  -0.0000000  -0.0000000  -0.0000000  -0.0000000  -0.0000000  -0.0000000  -0.0000000  -0.0000000  -0.0000000
 NQMom=    0.0000000   0.0000000   0.0000000   0.0000000   0.0000000   0.0000000   0.0000000   0.0000000   0.0000000   0.0000000
 NMagM=    0.0000000   0.0000000   0.0000000   0.0000000   0.0000000   0.0000000   2.7928460   2.7928460   2.7928460   2.7928460
 AtZNuc=   6.0000000   6.0000000   6.0000000   6.0000000   6.0000000   6.0000000   1.0000000   1.0000000   1.0000000   1.0000000

  Atom        21          22          23          24          25          26
 IAtWgt=           1           1           1           1           1           1
 AtmWgt=   1.0078250   1.0078250   1.0078250   1.0078250   1.0078250   1.0078250
 NucSpn=           1           1           1           1           1           1
 AtZEff=  -0.0000000  -0.0000000  -0.0000000  -0.0000000  -0.0000000  -0.0000000
 NQMom=    0.0000000   0.0000000   0.0000000   0.0000000   0.0000000   0.0000000
 NMagM=    2.7928460   2.7928460   2.7928460   2.7928460   2.7928460   2.7928460
 AtZNuc=   1.0000000   1.0000000   1.0000000   1.0000000   1.0000000   1.0000000
 Leave Link  101 at Sat Jan 13 19:14:42 2024, MaxMem=  4026531840 cpu:               1.4 elap:               0.4
 (Enter /sysapps/ubuntu-applications/gaussian/Gaussian/AVX2/g16/l202.exe)
                          Input orientation:                          
 ---------------------------------------------------------------------
 Center     Atomic      Atomic             Coordinates (Angstroms)
 Number     Number       Type             X           Y           Z
 ---------------------------------------------------------------------
      1          8           0        0.051176   -2.116401   -1.474168
      2          6           0        0.026790   -1.113456   -0.772864
      3          6           0        1.328265   -0.568161   -0.268382
      4          6           0        2.357434   -1.521409   -0.165614
      5          6           0        3.634495   -1.175874    0.243310
      6          6           0        3.927288    0.161032    0.527141
      7          6           0        2.933866    1.116624    0.412123
      8          6           0        1.612108    0.784225    0.039297
      9          6           0        0.671616    1.888220   -0.022168
     10          6           0       -0.676146    1.885580   -0.065172
     11          6           0       -1.614334    0.777906   -0.063599
     12          6           0       -2.958400    1.105093    0.224434
     13          6           0       -3.953439    0.145664    0.275980
     14          6           0       -3.638067   -1.190007    0.011157
     15          6           0       -2.336254   -1.530507   -0.315682
     16          6           0       -1.306291   -0.573300   -0.352615
     17          1           0        2.122418   -2.544906   -0.426827
     18          1           0        4.402172   -1.936310    0.327769
     19          1           0        4.926365    0.451620    0.831827
     20          1           0        3.163423    2.155683    0.621802
     21          1           0        1.139592    2.867035    0.032296
     22          1           0       -1.150495    2.862537   -0.040805
     23          1           0       -3.204816    2.143198    0.419184
     24          1           0       -4.970967    0.432330    0.516581
     25          1           0       -4.406641   -1.953403    0.046493
     26          1           0       -2.081157   -2.553012   -0.561497
 ---------------------------------------------------------------------
                    Distance matrix (angstroms):
                    1          2          3          4          5
     1  O    0.000000
     2  C    1.224059   0.000000
     3  C    2.341351   1.498561   0.000000
     4  C    2.717564   2.442761   1.406567   0.000000
     5  C    4.083442   3.748605   2.439230   1.384738   0.000000
     6  C    4.920994   4.304442   2.814161   2.403114   1.397714
     7  C    4.724452   3.850785   2.424777   2.761390   2.403108
     8  C    3.625013   2.602697   1.415691   2.431758   2.823767
     9  C    4.304676   3.160602   2.554529   3.806327   4.270574
    10  C    4.304662   3.160564   3.174870   4.562923   5.296158
    11  C    3.625002   2.602613   3.242333   4.590446   5.609069
    12  C    4.724492   3.850704   4.627974   5.942116   6.976348
    13  C    4.921067   4.304379   5.357450   6.542267   7.702225
    14  C    4.083492   3.748563   5.012912   6.007255   7.276280
    15  C    2.717569   2.442729   3.789069   4.696095   6.007336
    16  C    2.341316   1.498493   2.635907   3.789032   5.012942
    17  H    2.360208   2.561337   2.136189   1.082133   2.147023
    18  H    4.712810   4.586115   3.417036   2.143950   1.083847
    19  H    5.973258   5.387980   3.898299   3.389268   2.159634
    20  H    5.685936   4.740341   3.402875   3.845861   3.385917
    21  H    5.318714   4.210810   3.453488   4.558591   4.755437
    22  H    5.318681   4.210752   4.238600   5.616060   6.267824
    23  H    5.685987   4.740259   5.326635   6.686551   7.604166
    24  H    5.973360   5.387921   6.426311   7.614982   8.758708
    25  H    4.712866   4.586084   5.908231   6.781174   8.081037
    26  H    2.360178   2.561335   3.955971   4.574059   5.934046
                    6          7          8          9         10
     6  C    0.000000
     7  C    1.383211   0.000000
     8  C    2.446716   1.412987   0.000000
     9  C    3.726167   2.429351   1.451588   0.000000
    10  C    4.951414   3.721732   2.541654   1.348450   0.000000
    11  C    5.607056   4.585539   3.228089   2.541669   1.451599
    12  C    6.956693   5.895266   4.585496   3.721709   2.429345
    13  C    7.884743   6.956743   5.607057   4.951417   3.726170
    14  C    7.702347   6.976505   5.609164   5.296221   4.270602
    15  C    6.542447   5.942320   4.590594   4.563017   3.806358
    16  C    5.357571   4.628131   3.242456   3.174963   2.554564
    17  H    3.389648   3.843057   3.400118   4.682006   5.252805
    18  H    2.159654   3.388723   3.907555   5.354114   6.367932
    19  H    1.084172   2.142063   3.423891   4.571216   5.852263
    20  H    2.138009   1.084576   2.150997   2.587535   3.909882
    21  H    3.916449   2.535276   2.135748   1.086300   2.066315
    22  H    5.779669   4.464903   3.458001   2.066332   1.086299
    23  H    7.403212   6.223931   5.019350   3.909799   2.587497
    24  H    8.902396   7.935084   6.609728   5.852231   4.571199
    25  H    8.611401   7.965036   6.612110   6.368004   5.354143
    26  H    6.682259   6.290041   5.013812   5.252921   4.682039
                   11         12         13         14         15
    11  C    0.000000
    12  C    1.412985   0.000000
    13  C    2.446724   1.383208   0.000000
    14  C    2.823786   2.403106   1.397715   0.000000
    15  C    2.431766   2.761373   2.403102   1.384731   0.000000
    16  C    1.415690   2.424758   2.814149   2.439229   1.406568
    17  H    5.013614   6.289781   6.682001   5.933866   4.573960
    18  H    6.611995   7.964850   8.611245   8.081006   6.781231
    19  H    6.609765   7.935079   8.902443   8.758877   7.615198
    20  H    5.019463   6.224015   7.403343   7.604393   6.686802
    21  H    3.458000   4.464851   5.779637   6.267859   5.616135
    22  H    2.135732   2.535248   3.916407   4.755400   4.558554
    23  H    2.150985   1.084578   2.138010   3.385919   3.845847
    24  H    3.423889   2.142052   1.084172   2.159642   3.389263
    25  H    3.907576   3.388726   2.159662   1.083849   2.143948
    26  H    3.400124   3.843042   3.389640   2.147017   1.082135
                   16         17         18         19         20
    16  C    0.000000
    17  H    3.955854   0.000000
    18  H    5.908237   2.477314   0.000000
    19  H    6.426458   4.292493   2.496210   0.000000
    20  H    5.326836   4.927357   4.285483   2.460875   0.000000
    21  H    4.238680   5.519588   5.814108   4.562141   2.224732
    22  H    3.453473   6.332568   7.348258   6.595622   4.421378
    23  H    3.402856   7.146571   8.632323   8.315517   6.371474
    24  H    3.898287   7.750488   9.669635   9.902370   8.315607
    25  H    3.417037   6.572862   8.813319   9.669844   8.632580
    26  H    2.136190   4.205739   6.573026   7.750776   7.146861
                   21         22         23         24         25
    21  H    0.000000
    22  H    2.291258   0.000000
    23  H    4.421256   2.224696   0.000000
    24  H    6.595548   4.562082   2.460863   0.000000
    25  H    7.348301   5.814068   4.285490   2.496231   0.000000
    26  H    6.332671   5.519549   4.927345   4.292496   2.477309
                   26
    26  H    0.000000
 Stoichiometry    C15H10O
 Framework group  C1[X(C15H10O)]
 Deg. of freedom    72
 Full point group                 C1      NOp   1
 Largest Abelian subgroup         C1      NOp   1
 Largest concise Abelian subgroup C1      NOp   1
                         Standard orientation:                         
 ---------------------------------------------------------------------
 Center     Atomic      Atomic             Coordinates (Angstroms)
 Number     Number       Type             X           Y           Z
 ---------------------------------------------------------------------
      1          8           0       -0.000013   -2.241079    0.892061
      2          6           0        0.000041   -1.107708    0.429685
      3          6           0       -1.317920   -0.476044    0.098528
      4          6           0       -2.347977   -1.392153   -0.181041
      5          6           0       -3.638099   -0.976207   -0.464010
      6          6           0       -3.942406    0.387688   -0.435836
      7          6           0       -2.947692    1.303054   -0.142712
      8          6           0       -1.614072    0.908301    0.106608
      9          6           0       -0.674259    1.979758    0.381997
     10          6           0        0.674191    1.979752    0.382009
     11          6           0        1.614016    0.908299    0.106586
     12          6           0        2.947574    1.303109   -0.142968
     13          6           0        3.942338    0.387785   -0.436037
     14          6           0        3.638181   -0.976153   -0.463820
     15          6           0        2.348119   -1.392148   -0.180682
     16          6           0        1.317987   -0.476072    0.098723
     17          1           0       -2.102751   -2.445927   -0.160133
     18          1           0       -4.406590   -1.705991   -0.691081
     19          1           0       -4.951255    0.729491   -0.637884
     20          1           0       -3.185849    2.360657   -0.110112
     21          1           0       -1.145647    2.942153    0.559866
     22          1           0        1.145611    2.942124    0.559913
     23          1           0        3.185625    2.360746   -0.110620
     24          1           0        4.951115    0.729664   -0.638314
     25          1           0        4.406729   -1.705919   -0.690764
     26          1           0        2.102988   -2.445941   -0.159537
 ---------------------------------------------------------------------
 Rotational constants (GHZ):           1.2382394           0.3888820           0.3075943
 Leave Link  202 at Sat Jan 13 19:14:42 2024, MaxMem=  4026531840 cpu:               0.8 elap:               0.2
 (Enter /sysapps/ubuntu-applications/gaussian/Gaussian/AVX2/g16/l301.exe)
 Standard basis: 6-311++G(d,p) (5D, 7F)
 Ernie: Thresh=  0.10000D-02 Tol=  0.10000D-05 Strict=F.
 There are   438 symmetry adapted cartesian basis functions of A   symmetry.
 There are   422 symmetry adapted basis functions of A   symmetry.
   422 basis functions,   666 primitive gaussians,   438 cartesian basis functions
    54 alpha electrons       54 beta electrons
       nuclear repulsion energy       966.0790683036 Hartrees.
 IExCor=  402 DFT=T Ex+Corr=B3LYP ExCW=0 ScaHFX=  0.200000
 ScaDFX=  0.800000  0.720000  1.000000  0.810000 ScalE2=  1.000000  1.000000
 IRadAn=      5 IRanWt=     -1 IRanGd=            0 ICorTp=0 IEmpDi=  4
 NAtoms=   26 NActive=   26 NUniq=   26 SFac= 1.00D+00 NAtFMM=   60 NAOKFM=F Big=F
 Integral buffers will be    131072 words long.
 Raffenetti 2 integral format.
 Two-electron integral symmetry is turned on.
 ------------------------------------------------------------------------------
 Polarizable Continuum Model (PCM)
 =================================
 Model                : PCM.
 Atomic radii         : UFF (Universal Force Field).
 Polarization charges : Total charges.
 Charge compensation  : None.
 Solution method      : On-the-fly selection.
 Cavity type          : Scaled VdW (van der Waals Surface) (Alpha=1.100).
 Cavity algorithm     : GePol (No added spheres)
                        Default sphere list used, NSphG=   26.
                        Lebedev-Laikov grids with approx.  5.0 points / Ang**2.
                        Smoothing algorithm: York/Karplus (Gamma=1.0000).
                        Polarization charges: spherical gaussians, with
                                              point-specific exponents (IZeta= 3).
                        Self-potential: point-specific (ISelfS= 7).
                        Self-field    : sphere-specific E.n sum rule (ISelfD= 2).
 Solvent              : n,n-DiMethylFormamide, Eps=  37.219000 Eps(inf)=   2.046330
 ------------------------------------------------------------------------------
 GePol: Number of generator spheres                  =      26
 GePol: Total number of spheres                      =      26
 GePol: Number of exposed spheres                    =      26 (100.00%)
 GePol: Number of points                             =    2073
 GePol: Average weight of points                     =       0.13
 GePol: Minimum weight of points                     =   0.12D-08
 GePol: Maximum weight of points                     =    0.20577
 GePol: Number of points with low weight             =     132
 GePol: Fraction of low-weight points (<1% of avg)   =       6.37%
 GePol: Cavity surface area                          =    263.616 Ang**2
 GePol: Cavity volume                                =    287.011 Ang**3
 Leave Link  301 at Sat Jan 13 19:14:43 2024, MaxMem=  4026531840 cpu:               0.8 elap:               0.2
 (Enter /sysapps/ubuntu-applications/gaussian/Gaussian/AVX2/g16/l302.exe)
 NPDir=0 NMtPBC=     1 NCelOv=     1 NCel=       1 NClECP=     1 NCelD=      1
         NCelK=      1 NCelE2=     1 NClLst=     1 CellRange=     0.0.
 One-electron integrals computed using PRISM.
 One-electron integral symmetry used in STVInt
 NBasis=   422 RedAO= T EigKep=  1.10D-06  NBF=   422
 NBsUse=   417 1.00D-06 EigRej=  6.96D-07 NBFU=   417
 Precomputing XC quadrature grid using
 IXCGrd= 4 IRadAn=           5 IRanWt=          -1 IRanGd=           0 AccXCQ= 0.00D+00.
 Generated NRdTot=       0 NPtTot=           0 NUsed=           0 NTot=          32
 NSgBfM=   438   438   438   438   438 MxSgAt=    26 MxSgA2=    26.
 Leave Link  302 at Sat Jan 13 19:14:45 2024, MaxMem=  4026531840 cpu:              17.9 elap:               2.7
 (Enter /sysapps/ubuntu-applications/gaussian/Gaussian/AVX2/g16/l303.exe)
 DipDrv:  MaxL=1.
 Leave Link  303 at Sat Jan 13 19:14:46 2024, MaxMem=  4026531840 cpu:               1.6 elap:               0.4
 (Enter /sysapps/ubuntu-applications/gaussian/Gaussian/AVX2/g16/l401.exe)
 ExpMin= 3.60D-02 ExpMax= 8.59D+03 ExpMxC= 1.30D+03 IAcc=3 IRadAn=         5 AccDes= 0.00D+00
 Harris functional with IExCor=  402 and IRadAn=       5 diagonalized for initial guess.
 HarFok:  IExCor=  402 AccDes= 0.00D+00 IRadAn=         5 IDoV= 1 UseB2=F ITyADJ=14
 ICtDFT=  3500011 ScaDFX=  1.000000  1.000000  1.000000  1.000000
 FoFCou: FMM=F IPFlag=           0 FMFlag=      100000 FMFlg1=           0
         NFxFlg=           0 DoJE=T BraDBF=F KetDBF=T FulRan=T
         wScrn=  0.000000 ICntrl=       500 IOpCl=  0 I1Cent=   200000004 NGrid=           0
         NMat0=    1 NMatS0=      1 NMatT0=    0 NMatD0=    1 NMtDS0=    0 NMtDT0=    0
 Petite list used in FoFCou.
 Harris En= -653.039622222810    
 JPrj=0 DoOrth=F DoCkMO=F.
 Initial guess <Sx>= 0.0000 <Sy>= 0.0000 <Sz>= 0.0000 <S**2>=-0.0000 S=-0.0000
 Leave Link  401 at Sat Jan 13 19:14:49 2024, MaxMem=  4026531840 cpu:              24.1 elap:               3.5
 (Enter /sysapps/ubuntu-applications/gaussian/Gaussian/AVX2/g16/l502.exe)
 Integral symmetry usage will be decided dynamically.
 UHF open shell SCF:
 Using DIIS extrapolation, IDIIS=  1040.
 NGot=  4026531840 LenX=  4026140526 LenY=  4025948241
 Requested convergence on RMS density matrix=1.00D-08 within 128 cycles.
 Requested convergence on MAX density matrix=1.00D-06.
 Requested convergence on             energy=1.00D-06.
 No special actions if energy rises.
 Fock matrices will be formed incrementally for  20 cycles.

 Cycle   1  Pass 1  IDiag  1:
 FoFJK:  IHMeth= 1 ICntrl=       0 DoSepK=F KAlg= 0 I1Cent=           0 FoldK=F
 IRaf= 880000000 NMat=       1 IRICut=       1 DoRegI=T DoRafI=F ISym2E= 0 IDoP0=0 IntGTp=1.
 FoFCou: FMM=F IPFlag=           0 FMFlag=      100000 FMFlg1=           0
         NFxFlg=           0 DoJE=F BraDBF=F KetDBF=F FulRan=T
         wScrn=  0.000000 ICntrl=         0 IOpCl=  1 I1Cent=           0 NGrid=           0
         NMat0=    1 NMatS0=      1 NMatT0=    0 NMatD0=    1 NMtDS0=    0 NMtDT0=    0
 Symmetry not used in FoFCou.
 Inv3:  Mode=1 IEnd=    12891987.
 Iteration    1 A*A^-1 deviation from unit magnitude is 3.77D-15 for   1007.
 Iteration    1 A*A^-1 deviation from orthogonality  is 1.83D-15 for   1633    147.
 Iteration    1 A^-1*A deviation from unit magnitude is 3.55D-15 for    734.
 Iteration    1 A^-1*A deviation from orthogonality  is 2.78D-15 for   1716    159.
 E= -652.665717630485    
 DIIS: error= 2.40D-02 at cycle   1 NSaved=   1.
 NSaved= 1 IEnMin= 1 EnMin= -652.665717630485     IErMin= 1 ErrMin= 2.40D-02
 ErrMax= 2.40D-02  0.00D+00 EMaxC= 1.00D-01 BMatC= 1.55D+00 BMatP= 1.55D+00
 IDIUse=3 WtCom= 7.60D-01 WtEn= 2.40D-01
 Coeff-Com:  0.100D+01
 Coeff-En:   0.100D+01
 Coeff:      0.100D+01
 Gap=     0.156 Goal=   None    Shift=    0.000
 Gap=     0.156 Goal=   None    Shift=    0.000
 GapD=    0.156 DampG=1.000 DampE=0.500 DampFc=0.5000 IDamp=-1.
 Damping current iteration by 5.00D-01
 RMSDP=2.11D-02 MaxDP=1.95D+00              OVMax= 1.93D-01

 Cycle   2  Pass 1  IDiag  1:
 RMSU=  1.05D-02    CP:  9.85D-01
 E= -652.805111491595     Delta-E=       -0.139393861109 Rises=F Damp=T
 DIIS: error= 1.03D-02 at cycle   2 NSaved=   2.
 NSaved= 2 IEnMin= 2 EnMin= -652.805111491595     IErMin= 2 ErrMin= 1.03D-02
 ErrMax= 1.03D-02  0.00D+00 EMaxC= 1.00D-01 BMatC= 1.64D-01 BMatP= 1.55D+00
 IDIUse=3 WtCom= 8.97D-01 WtEn= 1.03D-01
 Coeff-Com:  0.964D-01 0.904D+00
 Coeff-En:   0.164D+00 0.836D+00
 Coeff:      0.103D+00 0.897D+00
 Gap=     0.146 Goal=   None    Shift=    0.000
 Gap=     0.146 Goal=   None    Shift=    0.000
 RMSDP=1.14D-02 MaxDP=1.51D+00 DE=-1.39D-01 OVMax= 1.52D-01

 Cycle   3  Pass 1  IDiag  1:
 RMSU=  6.83D-03    CP:  9.01D-01  2.62D-01
 E= -652.963724450464     Delta-E=       -0.158612958869 Rises=F Damp=F
 DIIS: error= 1.68D-02 at cycle   3 NSaved=   3.
 NSaved= 3 IEnMin= 3 EnMin= -652.963724450464     IErMin= 2 ErrMin= 1.03D-02
 ErrMax= 1.68D-02  0.00D+00 EMaxC= 1.00D-01 BMatC= 2.42D-01 BMatP= 1.64D-01
 IDIUse=2 WtCom= 0.00D+00 WtEn= 1.00D+00
 Coeff-En:   0.000D+00 0.000D+00 0.100D+01
 Coeff:      0.000D+00 0.000D+00 0.100D+01
 Gap=     0.154 Goal=   None    Shift=    0.000
 Gap=     0.154 Goal=   None    Shift=    0.000
 RMSDP=1.60D-02 MaxDP=1.45D+00 DE=-1.59D-01 OVMax= 1.78D-01

 Cycle   4  Pass 1  IDiag  1:
 RMSU=  7.87D-03    CP:  1.00D+00  1.27D+00 -2.25D-02
 E= -652.735514161964     Delta-E=        0.228210288499 Rises=F Damp=F
 DIIS: error= 3.71D-02 at cycle   4 NSaved=   4.
 NSaved= 4 IEnMin= 3 EnMin= -652.963724450464     IErMin= 2 ErrMin= 1.03D-02
 ErrMax= 3.71D-02  0.00D+00 EMaxC= 1.00D-01 BMatC= 1.38D+00 BMatP= 1.64D-01
 IDIUse=2 WtCom= 0.00D+00 WtEn= 1.00D+00
 Coeff-En:   0.000D+00 0.000D+00 0.794D+00 0.206D+00
 Coeff:      0.000D+00 0.000D+00 0.794D+00 0.206D+00
 Gap=     0.179 Goal=   None    Shift=    0.000
 Gap=     0.179 Goal=   None    Shift=    0.000
 RMSDP=9.65D-03 MaxDP=8.49D-01 DE= 2.28D-01 OVMax= 9.09D-02

 Cycle   5  Pass 1  IDiag  1:
 RMSU=  2.41D-03    CP:  9.21D-01  7.58D-01  4.70D-01  3.49D-01
 E= -652.992430404835     Delta-E=       -0.256916242871 Rises=F Damp=F
 DIIS: error= 1.03D-02 at cycle   5 NSaved=   5.
 NSaved= 5 IEnMin= 5 EnMin= -652.992430404835     IErMin= 2 ErrMin= 1.03D-02
 ErrMax= 1.03D-02  0.00D+00 EMaxC= 1.00D-01 BMatC= 1.02D-01 BMatP= 1.64D-01
 IDIUse=3 WtCom= 8.97D-01 WtEn= 1.03D-01
 Coeff-Com:  0.342D-02 0.815D-02 0.313D+00-0.759D-01 0.752D+00
 Coeff-En:   0.000D+00 0.000D+00 0.342D+00 0.000D+00 0.658D+00
 Coeff:      0.307D-02 0.731D-02 0.316D+00-0.680D-01 0.742D+00
 Gap=     0.151 Goal=   None    Shift=    0.000
 Gap=     0.151 Goal=   None    Shift=    0.000
 RMSDP=3.69D-03 MaxDP=3.59D-01 DE=-2.57D-01 OVMax= 3.64D-02

 Cycle   6  Pass 1  IDiag  1:
 RMSU=  5.23D-04    CP:  8.93D-01  5.30D-01  6.70D-01  1.47D-01  6.27D-01
 E= -653.012974397048     Delta-E=       -0.020543992213 Rises=F Damp=F
 DIIS: error= 8.58D-04 at cycle   6 NSaved=   6.
 NSaved= 6 IEnMin= 6 EnMin= -653.012974397048     IErMin= 6 ErrMin= 8.58D-04
 ErrMax= 8.58D-04  0.00D+00 EMaxC= 1.00D-01 BMatC= 6.64D-04 BMatP= 1.02D-01
 IDIUse=3 WtCom= 9.91D-01 WtEn= 8.58D-03
 Coeff-Com:  0.539D-03 0.552D-02 0.163D+00-0.605D-01 0.472D+00 0.419D+00
 Coeff-En:   0.000D+00 0.000D+00 0.000D+00 0.000D+00 0.000D+00 0.100D+01
 Coeff:      0.534D-03 0.547D-02 0.162D+00-0.599D-01 0.468D+00 0.424D+00
 Gap=     0.151 Goal=   None    Shift=    0.000
 Gap=     0.151 Goal=   None    Shift=    0.000
 RMSDP=3.47D-04 MaxDP=2.87D-02 DE=-2.05D-02 OVMax= 4.65D-03

 Cycle   7  Pass 1  IDiag  1:
 RMSU=  9.88D-05    CP:  8.95D-01  5.45D-01  6.63D-01  1.56D-01  7.11D-01
                    CP:  7.22D-01
 E= -653.013155644805     Delta-E=       -0.000181247757 Rises=F Damp=F
 DIIS: error= 1.41D-04 at cycle   7 NSaved=   7.
 NSaved= 7 IEnMin= 7 EnMin= -653.013155644805     IErMin= 7 ErrMin= 1.41D-04
 ErrMax= 1.41D-04  0.00D+00 EMaxC= 1.00D-01 BMatC= 3.14D-05 BMatP= 6.64D-04
 IDIUse=3 WtCom= 9.99D-01 WtEn= 1.41D-03
 Coeff-Com:  0.573D-03-0.788D-04 0.424D-01-0.182D-01 0.124D+00 0.141D+00
 Coeff-Com:  0.710D+00
 Coeff-En:   0.000D+00 0.000D+00 0.000D+00 0.000D+00 0.000D+00 0.000D+00
 Coeff-En:   0.100D+01
 Coeff:      0.572D-03-0.787D-04 0.423D-01-0.181D-01 0.124D+00 0.141D+00
 Coeff:      0.710D+00
 Gap=     0.151 Goal=   None    Shift=    0.000
 Gap=     0.151 Goal=   None    Shift=    0.000
 RMSDP=3.95D-05 MaxDP=3.62D-03 DE=-1.81D-04 OVMax= 8.18D-04

 Cycle   8  Pass 1  IDiag  1:
 RMSU=  3.25D-05    CP:  8.95D-01  5.46D-01  6.63D-01  1.55D-01  7.11D-01
                    CP:  6.99D-01  8.98D-01
 E= -653.013161947768     Delta-E=       -0.000006302963 Rises=F Damp=F
 DIIS: error= 5.99D-05 at cycle   8 NSaved=   8.
 NSaved= 8 IEnMin= 8 EnMin= -653.013161947768     IErMin= 8 ErrMin= 5.99D-05
 ErrMax= 5.99D-05  0.00D+00 EMaxC= 1.00D-01 BMatC= 5.11D-06 BMatP= 3.14D-05
 IDIUse=1 WtCom= 1.00D+00 WtEn= 0.00D+00
 Coeff-Com:  0.497D-03-0.142D-02 0.756D-02-0.297D-02 0.176D-01 0.272D-01
 Coeff-Com:  0.404D+00 0.548D+00
 Coeff:      0.497D-03-0.142D-02 0.756D-02-0.297D-02 0.176D-01 0.272D-01
 Coeff:      0.404D+00 0.548D+00
 Gap=     0.151 Goal=   None    Shift=    0.000
 Gap=     0.151 Goal=   None    Shift=    0.000
 RMSDP=2.38D-05 MaxDP=2.04D-03 DE=-6.30D-06 OVMax= 2.13D-04

 Cycle   9  Pass 1  IDiag  1:
 RMSU=  1.24D-05    CP:  8.95D-01  5.45D-01  6.64D-01  1.55D-01  7.07D-01
                    CP:  6.96D-01  8.88D-01  8.16D-01
 E= -653.013163083198     Delta-E=       -0.000001135430 Rises=F Damp=F
 DIIS: error= 6.00D-06 at cycle   9 NSaved=   9.
 NSaved= 9 IEnMin= 9 EnMin= -653.013163083198     IErMin= 9 ErrMin= 6.00D-06
 ErrMax= 6.00D-06  0.00D+00 EMaxC= 1.00D-01 BMatC= 5.41D-08 BMatP= 5.11D-06
 IDIUse=1 WtCom= 1.00D+00 WtEn= 0.00D+00
 Coeff-Com:  0.155D-03-0.450D-03 0.699D-03-0.226D-03 0.586D-03 0.290D-02
 Coeff-Com:  0.967D-01 0.175D+00 0.724D+00
 Coeff:      0.155D-03-0.450D-03 0.699D-03-0.226D-03 0.586D-03 0.290D-02
 Coeff:      0.967D-01 0.175D+00 0.724D+00
 Gap=     0.151 Goal=   None    Shift=    0.000
 Gap=     0.151 Goal=   None    Shift=    0.000
 RMSDP=4.80D-06 MaxDP=7.24D-04 DE=-1.14D-06 OVMax= 4.13D-05

 Cycle  10  Pass 1  IDiag  1:
 RMSU=  1.87D-06    CP:  8.95D-01  5.45D-01  6.64D-01  1.55D-01  7.08D-01
                    CP:  6.98D-01  9.08D-01  8.09D-01  8.75D-01
 E= -653.013163093133     Delta-E=       -0.000000009935 Rises=F Damp=F
 DIIS: error= 3.80D-06 at cycle  10 NSaved=  10.
 NSaved=10 IEnMin=10 EnMin= -653.013163093133     IErMin=10 ErrMin= 3.80D-06
 ErrMax= 3.80D-06  0.00D+00 EMaxC= 1.00D-01 BMatC= 1.46D-08 BMatP= 5.41D-08
 IDIUse=1 WtCom= 1.00D+00 WtEn= 0.00D+00
 Coeff-Com:  0.432D-04-0.118D-03-0.307D-03 0.117D-03-0.122D-02-0.246D-03
 Coeff-Com:  0.216D-01 0.523D-01 0.398D+00 0.530D+00
 Coeff:      0.432D-04-0.118D-03-0.307D-03 0.117D-03-0.122D-02-0.246D-03
 Coeff:      0.216D-01 0.523D-01 0.398D+00 0.530D+00
 Gap=     0.151 Goal=   None    Shift=    0.000
 Gap=     0.151 Goal=   None    Shift=    0.000
 RMSDP=9.10D-07 MaxDP=7.34D-05 DE=-9.94D-09 OVMax= 1.73D-05

 Cycle  11  Pass 1  IDiag  1:
 RMSU=  6.34D-07    CP:  8.95D-01  5.45D-01  6.64D-01  1.55D-01  7.08D-01
                    CP:  6.98D-01  9.12D-01  8.12D-01  8.75D-01  9.19D-01
 E= -653.013163096388     Delta-E=       -0.000000003255 Rises=F Damp=F
 DIIS: error= 9.68D-07 at cycle  11 NSaved=  11.
 NSaved=11 IEnMin=11 EnMin= -653.013163096388     IErMin=11 ErrMin= 9.68D-07
 ErrMax= 9.68D-07  0.00D+00 EMaxC= 1.00D-01 BMatC= 1.24D-09 BMatP= 1.46D-08
 IDIUse=1 WtCom= 1.00D+00 WtEn= 0.00D+00
 Coeff-Com:  0.539D-05-0.164D-04-0.238D-03 0.910D-04-0.688D-03-0.135D-03
 Coeff-Com:  0.153D-02 0.887D-02 0.131D+00 0.245D+00 0.615D+00
 Coeff:      0.539D-05-0.164D-04-0.238D-03 0.910D-04-0.688D-03-0.135D-03
 Coeff:      0.153D-02 0.887D-02 0.131D+00 0.245D+00 0.615D+00
 Gap=     0.151 Goal=   None    Shift=    0.000
 Gap=     0.151 Goal=   None    Shift=    0.000
 RMSDP=5.87D-07 MaxDP=7.10D-05 DE=-3.26D-09 OVMax= 8.62D-06

 Cycle  12  Pass 1  IDiag  1:
 RMSU=  2.16D-07    CP:  8.95D-01  5.45D-01  6.64D-01  1.55D-01  7.08D-01
                    CP:  6.98D-01  9.10D-01  8.14D-01  8.90D-01  9.41D-01
                    CP:  8.65D-01
 E= -653.013163096615     Delta-E=       -0.000000000227 Rises=F Damp=F
 DIIS: error= 3.75D-07 at cycle  12 NSaved=  12.
 NSaved=12 IEnMin=12 EnMin= -653.013163096615     IErMin=12 ErrMin= 3.75D-07
 ErrMax= 3.75D-07  0.00D+00 EMaxC= 1.00D-01 BMatC= 2.51D-10 BMatP= 1.24D-09
 IDIUse=1 WtCom= 1.00D+00 WtEn= 0.00D+00
 Coeff-Com: -0.434D-05 0.837D-05-0.947D-04 0.363D-04-0.205D-03 0.688D-04
 Coeff-Com: -0.255D-02-0.327D-02 0.169D-01 0.583D-01 0.343D+00 0.588D+00
 Coeff:     -0.434D-05 0.837D-05-0.947D-04 0.363D-04-0.205D-03 0.688D-04
 Coeff:     -0.255D-02-0.327D-02 0.169D-01 0.583D-01 0.343D+00 0.588D+00
 Gap=     0.151 Goal=   None    Shift=    0.000
 Gap=     0.151 Goal=   None    Shift=    0.000
 RMSDP=1.73D-07 MaxDP=1.03D-05 DE=-2.27D-10 OVMax= 2.93D-06

 Cycle  13  Pass 1  IDiag  1:
 RMSU=  8.41D-08    CP:  8.95D-01  5.45D-01  6.64D-01  1.55D-01  7.08D-01
                    CP:  6.98D-01  9.10D-01  8.15D-01  8.94D-01  9.52D-01
                    CP:  9.64D-01  1.07D+00
 E= -653.013163096696     Delta-E=       -0.000000000081 Rises=F Damp=F
 DIIS: error= 1.03D-07 at cycle  13 NSaved=  13.
 NSaved=13 IEnMin=13 EnMin= -653.013163096696     IErMin=13 ErrMin= 1.03D-07
 ErrMax= 1.03D-07  0.00D+00 EMaxC= 1.00D-01 BMatC= 1.34D-11 BMatP= 2.51D-10
 IDIUse=1 WtCom= 1.00D+00 WtEn= 0.00D+00
 Coeff-Com: -0.224D-05 0.452D-05-0.112D-04 0.426D-05-0.529D-05 0.521D-04
 Coeff-Com: -0.932D-03-0.190D-02-0.701D-02-0.779D-02 0.457D-01 0.210D+00
 Coeff-Com:  0.762D+00
 Coeff:     -0.224D-05 0.452D-05-0.112D-04 0.426D-05-0.529D-05 0.521D-04
 Coeff:     -0.932D-03-0.190D-02-0.701D-02-0.779D-02 0.457D-01 0.210D+00
 Coeff:      0.762D+00
 Gap=     0.151 Goal=   None    Shift=    0.000
 Gap=     0.151 Goal=   None    Shift=    0.000
 RMSDP=6.27D-08 MaxDP=9.59D-06 DE=-8.14D-11 OVMax= 7.65D-07

 Cycle  14  Pass 1  IDiag  1:
 RMSU=  2.59D-08    CP:  8.95D-01  5.45D-01  6.64D-01  1.55D-01  7.08D-01
                    CP:  6.98D-01  9.10D-01  8.15D-01  8.93D-01  9.59D-01
                    CP:  9.79D-01  1.10D+00  8.92D-01
 E= -653.013163096692     Delta-E=        0.000000000004 Rises=F Damp=F
 DIIS: error= 3.52D-08 at cycle  14 NSaved=  14.
 NSaved=14 IEnMin=13 EnMin= -653.013163096696     IErMin=14 ErrMin= 3.52D-08
 ErrMax= 3.52D-08  0.00D+00 EMaxC= 1.00D-01 BMatC= 2.28D-12 BMatP= 1.34D-11
 IDIUse=1 WtCom= 1.00D+00 WtEn= 0.00D+00
 Coeff-Com: -0.666D-06 0.148D-05-0.346D-06 0.314D-06 0.453D-05 0.107D-04
 Coeff-Com: -0.182D-03-0.509D-03-0.403D-02-0.872D-02-0.103D-01 0.519D-01
 Coeff-Com:  0.434D+00 0.538D+00
 Coeff:     -0.666D-06 0.148D-05-0.346D-06 0.314D-06 0.453D-05 0.107D-04
 Coeff:     -0.182D-03-0.509D-03-0.403D-02-0.872D-02-0.103D-01 0.519D-01
 Coeff:      0.434D+00 0.538D+00
 Gap=     0.151 Goal=   None    Shift=    0.000
 Gap=     0.151 Goal=   None    Shift=    0.000
 RMSDP=1.72D-08 MaxDP=2.72D-06 DE= 4.09D-12 OVMax= 2.58D-07

 Cycle  15  Pass 1  IDiag  1:
 RMSU=  6.24D-09    CP:  8.95D-01  5.45D-01  6.64D-01  1.55D-01  7.08D-01
                    CP:  6.98D-01  9.10D-01  8.15D-01  8.93D-01  9.60D-01
                    CP:  9.84D-01  1.12D+00  9.16D-01  7.77D-01
 E= -653.013163096703     Delta-E=       -0.000000000010 Rises=F Damp=F
 DIIS: error= 3.57D-09 at cycle  15 NSaved=  15.
 NSaved=15 IEnMin=15 EnMin= -653.013163096703     IErMin=15 ErrMin= 3.57D-09
 ErrMax= 3.57D-09  0.00D+00 EMaxC= 1.00D-01 BMatC= 4.22D-14 BMatP= 2.28D-12
 IDIUse=1 WtCom= 1.00D+00 WtEn= 0.00D+00
 Coeff-Com: -0.772D-07 0.226D-06 0.108D-05-0.365D-06 0.326D-05 0.479D-06
 Coeff-Com: -0.798D-05-0.764D-04-0.113D-02-0.290D-02-0.753D-02 0.385D-03
 Coeff-Com:  0.941D-01 0.174D+00 0.743D+00
 Coeff:     -0.772D-07 0.226D-06 0.108D-05-0.365D-06 0.326D-05 0.479D-06
 Coeff:     -0.798D-05-0.764D-04-0.113D-02-0.290D-02-0.753D-02 0.385D-03
 Coeff:      0.941D-01 0.174D+00 0.743D+00
 Gap=     0.151 Goal=   None    Shift=    0.000
 Gap=     0.151 Goal=   None    Shift=    0.000
 RMSDP=6.03D-09 MaxDP=4.03D-07 DE=-1.02D-11 OVMax= 4.24D-08

 Error on total polarization charges =  0.01771
 SCF Done:  E(UB3LYP) =  -653.013163097     A.U. after   15 cycles
            NFock= 15  Conv=0.60D-08     -V/T= 2.0043
 <Sx>= 0.0000 <Sy>= 0.0000 <Sz>= 0.0000 <S**2>=-0.0000 S=-0.0000
 <L.S>=  0.00000000000    
 KE= 6.501870897396D+02 PE=-3.450435334266D+03 EE= 1.181156013126D+03
 Annihilation of the first spin contaminant:
 S**2 before annihilation    -0.0000,   after    -0.0000
 Leave Link  502 at Sat Jan 13 19:20:29 2024, MaxMem=  4026531840 cpu:            2286.6 elap:             339.3
 (Enter /sysapps/ubuntu-applications/gaussian/Gaussian/AVX2/g16/l601.exe)
 Copying SCF densities to generalized density rwf, IOpCl= 1 IROHF=0.

 **********************************************************************

            Population analysis using the SCF density.

 **********************************************************************

 Orbital symmetries:
 Alpha Orbitals:
       Occupied  (A) (A) (A) (A) (A) (A) (A) (A) (A) (A) (A) (A)
                 (A) (A) (A) (A) (A) (A) (A) (A) (A) (A) (A) (A)
                 (A) (A) (A) (A) (A) (A) (A) (A) (A) (A) (A) (A)
                 (A) (A) (A) (A) (A) (A) (A) (A) (A) (A) (A) (A)
                 (A) (A) (A) (A) (A) (A)
       Virtual   (A) (A) (A) (A) (A) (A) (A) (A) (A) (A) (A) (A)
                 (A) (A) (A) (A) (A) (A) (A) (A) (A) (A) (A) (A)
                 (A) (A) (A) (A) (A) (A) (A) (A) (A) (A) (A) (A)
                 (A) (A) (A) (A) (A) (A) (A) (A) (A) (A) (A) (A)
                 (A) (A) (A) (A) (A) (A) (A) (A) (A) (A) (A) (A)
                 (A) (A) (A) (A) (A) (A) (A) (A) (A) (A) (A) (A)
                 (A) (A) (A) (A) (A) (A) (A) (A) (A) (A) (A) (A)
                 (A) (A) (A) (A) (A) (A) (A) (A) (A) (A) (A) (A)
                 (A) (A) (A) (A) (A) (A) (A) (A) (A) (A) (A) (A)
                 (A) (A) (A) (A) (A) (A) (A) (A) (A) (A) (A) (A)
                 (A) (A) (A) (A) (A) (A) (A) (A) (A) (A) (A) (A)
                 (A) (A) (A) (A) (A) (A) (A) (A) (A) (A) (A) (A)
                 (A) (A) (A) (A) (A) (A) (A) (A) (A) (A) (A) (A)
                 (A) (A) (A) (A) (A) (A) (A) (A) (A) (A) (A) (A)
                 (A) (A) (A) (A) (A) (A) (A) (A) (A) (A) (A) (A)
                 (A) (A) (A) (A) (A) (A) (A) (A) (A) (A) (A) (A)
                 (A) (A) (A) (A) (A) (A) (A) (A) (A) (A) (A) (A)
                 (A) (A) (A) (A) (A) (A) (A) (A) (A) (A) (A) (A)
                 (A) (A) (A) (A) (A) (A) (A) (A) (A) (A) (A) (A)
                 (A) (A) (A) (A) (A) (A) (A) (A) (A) (A) (A) (A)
                 (A) (A) (A) (A) (A) (A) (A) (A) (A) (A) (A) (A)
                 (A) (A) (A) (A) (A) (A) (A) (A) (A) (A) (A) (A)
                 (A) (A) (A) (A) (A) (A) (A) (A) (A) (A) (A) (A)
                 (A) (A) (A) (A) (A) (A) (A) (A) (A) (A) (A) (A)
                 (A) (A) (A) (A) (A) (A) (A) (A) (A) (A) (A) (A)
                 (A) (A) (A) (A) (A) (A) (A) (A) (A) (A) (A) (A)
                 (A) (A) (A) (A) (A) (A) (A) (A) (A) (A) (A) (A)
                 (A) (A) (A) (A) (A) (A) (A) (A) (A) (A) (A) (A)
                 (A) (A) (A) (A) (A) (A) (A) (A) (A) (A) (A) (A)
                 (A) (A) (A) (A) (A) (A) (A) (A) (A) (A) (A) (A)
                 (A) (A) (A)
 Beta  Orbitals:
       Occupied  (A) (A) (A) (A) (A) (A) (A) (A) (A) (A) (A) (A)
                 (A) (A) (A) (A) (A) (A) (A) (A) (A) (A) (A) (A)
                 (A) (A) (A) (A) (A) (A) (A) (A) (A) (A) (A) (A)
                 (A) (A) (A) (A) (A) (A) (A) (A) (A) (A) (A) (A)
                 (A) (A) (A) (A) (A) (A)
       Virtual   (A) (A) (A) (A) (A) (A) (A) (A) (A) (A) (A) (A)
                 (A) (A) (A) (A) (A) (A) (A) (A) (A) (A) (A) (A)
                 (A) (A) (A) (A) (A) (A) (A) (A) (A) (A) (A) (A)
                 (A) (A) (A) (A) (A) (A) (A) (A) (A) (A) (A) (A)
                 (A) (A) (A) (A) (A) (A) (A) (A) (A) (A) (A) (A)
                 (A) (A) (A) (A) (A) (A) (A) (A) (A) (A) (A) (A)
                 (A) (A) (A) (A) (A) (A) (A) (A) (A) (A) (A) (A)
                 (A) (A) (A) (A) (A) (A) (A) (A) (A) (A) (A) (A)
                 (A) (A) (A) (A) (A) (A) (A) (A) (A) (A) (A) (A)
                 (A) (A) (A) (A) (A) (A) (A) (A) (A) (A) (A) (A)
                 (A) (A) (A) (A) (A) (A) (A) (A) (A) (A) (A) (A)
                 (A) (A) (A) (A) (A) (A) (A) (A) (A) (A) (A) (A)
                 (A) (A) (A) (A) (A) (A) (A) (A) (A) (A) (A) (A)
                 (A) (A) (A) (A) (A) (A) (A) (A) (A) (A) (A) (A)
                 (A) (A) (A) (A) (A) (A) (A) (A) (A) (A) (A) (A)
                 (A) (A) (A) (A) (A) (A) (A) (A) (A) (A) (A) (A)
                 (A) (A) (A) (A) (A) (A) (A) (A) (A) (A) (A) (A)
                 (A) (A) (A) (A) (A) (A) (A) (A) (A) (A) (A) (A)
                 (A) (A) (A) (A) (A) (A) (A) (A) (A) (A) (A) (A)
                 (A) (A) (A) (A) (A) (A) (A) (A) (A) (A) (A) (A)
                 (A) (A) (A) (A) (A) (A) (A) (A) (A) (A) (A) (A)
                 (A) (A) (A) (A) (A) (A) (A) (A) (A) (A) (A) (A)
                 (A) (A) (A) (A) (A) (A) (A) (A) (A) (A) (A) (A)
                 (A) (A) (A) (A) (A) (A) (A) (A) (A) (A) (A) (A)
                 (A) (A) (A) (A) (A) (A) (A) (A) (A) (A) (A) (A)
                 (A) (A) (A) (A) (A) (A) (A) (A) (A) (A) (A) (A)
                 (A) (A) (A) (A) (A) (A) (A) (A) (A) (A) (A) (A)
                 (A) (A) (A) (A) (A) (A) (A) (A) (A) (A) (A) (A)
                 (A) (A) (A) (A) (A) (A) (A) (A) (A) (A) (A) (A)
                 (A) (A) (A) (A) (A) (A) (A) (A) (A) (A) (A) (A)
                 (A) (A) (A)
 The electronic state is 1-A.
 Alpha  occ. eigenvalues --  -19.11937 -10.27720 -10.21040 -10.21039 -10.20392
 Alpha  occ. eigenvalues --  -10.20391 -10.19388 -10.19312 -10.19172 -10.19172
 Alpha  occ. eigenvalues --  -10.19012 -10.19012 -10.19004 -10.19004 -10.18874
 Alpha  occ. eigenvalues --  -10.18873  -1.05775  -0.88838  -0.87789  -0.82170
 Alpha  occ. eigenvalues --   -0.78294  -0.78038  -0.76962  -0.73836  -0.66720
 Alpha  occ. eigenvalues --   -0.66116  -0.62000  -0.61541  -0.58377  -0.57400
 Alpha  occ. eigenvalues --   -0.52110  -0.50898  -0.49932  -0.48549  -0.47361
 Alpha  occ. eigenvalues --   -0.45321  -0.44851  -0.44617  -0.44057  -0.43720
 Alpha  occ. eigenvalues --   -0.41507  -0.39873  -0.39061  -0.38509  -0.37120
 Alpha  occ. eigenvalues --   -0.36981  -0.36214  -0.35250  -0.33127  -0.28656
 Alpha  occ. eigenvalues --   -0.27976  -0.27662  -0.26455  -0.23347
 Alpha virt. eigenvalues --   -0.08255  -0.07557  -0.02452  -0.02344  -0.00749
 Alpha virt. eigenvalues --    0.00176   0.00567   0.01818   0.02024   0.02551
 Alpha virt. eigenvalues --    0.03530   0.03786   0.03976   0.04162   0.04261
 Alpha virt. eigenvalues --    0.05841   0.06053   0.06202   0.06571   0.06604
 Alpha virt. eigenvalues --    0.08420   0.08641   0.09036   0.09414   0.09606
 Alpha virt. eigenvalues --    0.10568   0.10960   0.11103   0.11233   0.11715
 Alpha virt. eigenvalues --    0.12066   0.12532   0.12589   0.13004   0.13154
 Alpha virt. eigenvalues --    0.13354   0.13492   0.13971   0.14174   0.14623
 Alpha virt. eigenvalues --    0.15018   0.15239   0.15753   0.15779   0.16572
 Alpha virt. eigenvalues --    0.17310   0.17567   0.18280   0.18407   0.18903
 Alpha virt. eigenvalues --    0.18939   0.19616   0.19654   0.20071   0.20421
 Alpha virt. eigenvalues --    0.20923   0.21712   0.21949   0.22816   0.22905
 Alpha virt. eigenvalues --    0.23375   0.23420   0.24140   0.24689   0.25111
 Alpha virt. eigenvalues --    0.25661   0.25670   0.26123   0.26546   0.26657
 Alpha virt. eigenvalues --    0.27266   0.27835   0.28074   0.28183   0.28675
 Alpha virt. eigenvalues --    0.29008   0.29760   0.29866   0.29961   0.30466
 Alpha virt. eigenvalues --    0.31098   0.31697   0.32001   0.32368   0.32484
 Alpha virt. eigenvalues --    0.32921   0.33958   0.34515   0.35508   0.35855
 Alpha virt. eigenvalues --    0.36207   0.36413   0.37012   0.37404   0.38737
 Alpha virt. eigenvalues --    0.39752   0.41109   0.42488   0.44598   0.47721
 Alpha virt. eigenvalues --    0.48758   0.49040   0.51646   0.51939   0.52950
 Alpha virt. eigenvalues --    0.53738   0.53958   0.54155   0.54712   0.55572
 Alpha virt. eigenvalues --    0.55595   0.55968   0.56861   0.57779   0.58392
 Alpha virt. eigenvalues --    0.58614   0.58665   0.59850   0.60592   0.60754
 Alpha virt. eigenvalues --    0.61483   0.62290   0.62695   0.63381   0.63935
 Alpha virt. eigenvalues --    0.65203   0.67084   0.67319   0.68160   0.68678
 Alpha virt. eigenvalues --    0.69764   0.70210   0.72145   0.72275   0.72655
 Alpha virt. eigenvalues --    0.73882   0.74308   0.75362   0.75569   0.76802
 Alpha virt. eigenvalues --    0.77023   0.77851   0.79268   0.80844   0.81880
 Alpha virt. eigenvalues --    0.81955   0.84412   0.84825   0.85092   0.85569
 Alpha virt. eigenvalues --    0.85990   0.86334   0.86984   0.87690   0.88967
 Alpha virt. eigenvalues --    0.89162   0.90088   0.90454   0.91192   0.91907
 Alpha virt. eigenvalues --    0.93205   0.93347   0.94707   0.95425   0.95736
 Alpha virt. eigenvalues --    0.98391   0.98865   0.99815   1.01237   1.02387
 Alpha virt. eigenvalues --    1.03038   1.04504   1.05656   1.07242   1.08214
 Alpha virt. eigenvalues --    1.09380   1.10710   1.12673   1.12695   1.14727
 Alpha virt. eigenvalues --    1.16358   1.17282   1.18414   1.20281   1.22722
 Alpha virt. eigenvalues --    1.26715   1.27104   1.27827   1.32656   1.33866
 Alpha virt. eigenvalues --    1.36798   1.36818   1.45330   1.46795   1.47176
 Alpha virt. eigenvalues --    1.48781   1.48883   1.49171   1.50273   1.50767
 Alpha virt. eigenvalues --    1.52695   1.53437   1.53754   1.55150   1.56291
 Alpha virt. eigenvalues --    1.56467   1.57274   1.57887   1.60654   1.61198
 Alpha virt. eigenvalues --    1.62517   1.63900   1.65968   1.66103   1.69191
 Alpha virt. eigenvalues --    1.70501   1.72210   1.73712   1.73996   1.74892
 Alpha virt. eigenvalues --    1.75900   1.76144   1.79239   1.80165   1.81092
 Alpha virt. eigenvalues --    1.81096   1.84590   1.85492   1.86831   1.88089
 Alpha virt. eigenvalues --    1.88735   1.88799   1.89590   1.91407   1.92759
 Alpha virt. eigenvalues --    1.93155   1.94572   1.96045   1.96660   1.97211
 Alpha virt. eigenvalues --    1.97798   2.00269   2.00845   2.02020   2.03391
 Alpha virt. eigenvalues --    2.05793   2.06560   2.08331   2.08822   2.09845
 Alpha virt. eigenvalues --    2.10397   2.12768   2.17517   2.21111   2.23305
 Alpha virt. eigenvalues --    2.24049   2.26473   2.27726   2.33048   2.35210
 Alpha virt. eigenvalues --    2.38823   2.41488   2.43353   2.45511   2.46633
 Alpha virt. eigenvalues --    2.46825   2.47927   2.50954   2.54101   2.56682
 Alpha virt. eigenvalues --    2.60994   2.62669   2.65004   2.66107   2.66308
 Alpha virt. eigenvalues --    2.66852   2.68353   2.69514   2.70708   2.71469
 Alpha virt. eigenvalues --    2.71963   2.72245   2.73954   2.74247   2.74390
 Alpha virt. eigenvalues --    2.76255   2.77133   2.78599   2.79598   2.80653
 Alpha virt. eigenvalues --    2.80753   2.81453   2.81818   2.82183   2.85490
 Alpha virt. eigenvalues --    2.85790   2.87926   2.90259   2.90806   2.91175
 Alpha virt. eigenvalues --    2.92991   2.95296   2.96524   2.98401   3.01461
 Alpha virt. eigenvalues --    3.03589   3.08176   3.08734   3.11319   3.17083
 Alpha virt. eigenvalues --    3.18251   3.21832   3.22787   3.25651   3.32071
 Alpha virt. eigenvalues --    3.32419   3.35244   3.35923   3.40625   3.41916
 Alpha virt. eigenvalues --    3.49954   3.52464   3.53641   3.54452   3.54875
 Alpha virt. eigenvalues --    3.57740   3.59811   3.64153   3.66949   3.78744
 Alpha virt. eigenvalues --    3.83403   4.03158   4.03478   4.04428   4.05432
 Alpha virt. eigenvalues --    4.07315   4.17459   4.17914   4.23047   4.26618
 Alpha virt. eigenvalues --    4.40423   4.69489   4.83032   4.83102   5.08013
 Alpha virt. eigenvalues --    5.23487   5.74125  23.51213  23.64811  23.81190
 Alpha virt. eigenvalues --   23.84265  23.92476  23.93200  23.94524  23.95052
 Alpha virt. eigenvalues --   24.02496  24.02750  24.09229  24.09292  24.17960
 Alpha virt. eigenvalues --   24.17977  24.23187  50.00930
  Beta  occ. eigenvalues --  -19.11937 -10.27720 -10.21040 -10.21039 -10.20392
  Beta  occ. eigenvalues --  -10.20391 -10.19388 -10.19312 -10.19172 -10.19172
  Beta  occ. eigenvalues --  -10.19012 -10.19012 -10.19004 -10.19004 -10.18874
  Beta  occ. eigenvalues --  -10.18873  -1.05775  -0.88838  -0.87789  -0.82170
  Beta  occ. eigenvalues --   -0.78294  -0.78038  -0.76962  -0.73836  -0.66720
  Beta  occ. eigenvalues --   -0.66116  -0.62000  -0.61541  -0.58377  -0.57400
  Beta  occ. eigenvalues --   -0.52110  -0.50898  -0.49932  -0.48549  -0.47361
  Beta  occ. eigenvalues --   -0.45321  -0.44851  -0.44617  -0.44057  -0.43720
  Beta  occ. eigenvalues --   -0.41507  -0.39873  -0.39061  -0.38509  -0.37120
  Beta  occ. eigenvalues --   -0.36981  -0.36214  -0.35250  -0.33127  -0.28656
  Beta  occ. eigenvalues --   -0.27976  -0.27662  -0.26455  -0.23347
  Beta virt. eigenvalues --   -0.08255  -0.07557  -0.02452  -0.02344  -0.00749
  Beta virt. eigenvalues --    0.00176   0.00567   0.01818   0.02024   0.02551
  Beta virt. eigenvalues --    0.03530   0.03786   0.03976   0.04162   0.04261
  Beta virt. eigenvalues --    0.05841   0.06053   0.06202   0.06571   0.06604
  Beta virt. eigenvalues --    0.08420   0.08641   0.09036   0.09414   0.09606
  Beta virt. eigenvalues --    0.10568   0.10960   0.11103   0.11233   0.11715
  Beta virt. eigenvalues --    0.12066   0.12532   0.12589   0.13004   0.13154
  Beta virt. eigenvalues --    0.13354   0.13492   0.13971   0.14174   0.14623
  Beta virt. eigenvalues --    0.15018   0.15239   0.15753   0.15779   0.16572
  Beta virt. eigenvalues --    0.17310   0.17567   0.18280   0.18407   0.18903
  Beta virt. eigenvalues --    0.18939   0.19616   0.19654   0.20071   0.20421
  Beta virt. eigenvalues --    0.20923   0.21712   0.21949   0.22816   0.22905
  Beta virt. eigenvalues --    0.23375   0.23420   0.24140   0.24689   0.25111
  Beta virt. eigenvalues --    0.25661   0.25670   0.26123   0.26546   0.26657
  Beta virt. eigenvalues --    0.27266   0.27835   0.28074   0.28183   0.28675
  Beta virt. eigenvalues --    0.29008   0.29760   0.29866   0.29961   0.30466
  Beta virt. eigenvalues --    0.31098   0.31697   0.32001   0.32368   0.32484
  Beta virt. eigenvalues --    0.32921   0.33958   0.34515   0.35508   0.35855
  Beta virt. eigenvalues --    0.36207   0.36413   0.37012   0.37404   0.38737
  Beta virt. eigenvalues --    0.39752   0.41109   0.42488   0.44598   0.47721
  Beta virt. eigenvalues --    0.48758   0.49040   0.51646   0.51939   0.52950
  Beta virt. eigenvalues --    0.53738   0.53958   0.54155   0.54712   0.55572
  Beta virt. eigenvalues --    0.55595   0.55968   0.56861   0.57779   0.58392
  Beta virt. eigenvalues --    0.58614   0.58665   0.59850   0.60592   0.60754
  Beta virt. eigenvalues --    0.61483   0.62290   0.62695   0.63381   0.63935
  Beta virt. eigenvalues --    0.65203   0.67084   0.67319   0.68160   0.68678
  Beta virt. eigenvalues --    0.69764   0.70210   0.72145   0.72275   0.72655
  Beta virt. eigenvalues --    0.73882   0.74308   0.75362   0.75569   0.76802
  Beta virt. eigenvalues --    0.77023   0.77851   0.79268   0.80844   0.81880
  Beta virt. eigenvalues --    0.81955   0.84412   0.84825   0.85092   0.85569
  Beta virt. eigenvalues --    0.85990   0.86334   0.86984   0.87690   0.88967
  Beta virt. eigenvalues --    0.89162   0.90088   0.90454   0.91192   0.91907
  Beta virt. eigenvalues --    0.93205   0.93347   0.94707   0.95425   0.95736
  Beta virt. eigenvalues --    0.98391   0.98865   0.99815   1.01237   1.02387
  Beta virt. eigenvalues --    1.03038   1.04504   1.05656   1.07242   1.08214
  Beta virt. eigenvalues --    1.09380   1.10710   1.12673   1.12695   1.14727
  Beta virt. eigenvalues --    1.16358   1.17282   1.18414   1.20281   1.22722
  Beta virt. eigenvalues --    1.26715   1.27104   1.27827   1.32656   1.33866
  Beta virt. eigenvalues --    1.36798   1.36818   1.45330   1.46795   1.47176
  Beta virt. eigenvalues --    1.48781   1.48883   1.49171   1.50273   1.50767
  Beta virt. eigenvalues --    1.52695   1.53437   1.53754   1.55150   1.56291
  Beta virt. eigenvalues --    1.56467   1.57274   1.57887   1.60654   1.61198
  Beta virt. eigenvalues --    1.62517   1.63900   1.65968   1.66103   1.69191
  Beta virt. eigenvalues --    1.70501   1.72210   1.73712   1.73996   1.74892
  Beta virt. eigenvalues --    1.75900   1.76144   1.79239   1.80165   1.81092
  Beta virt. eigenvalues --    1.81096   1.84590   1.85492   1.86831   1.88089
  Beta virt. eigenvalues --    1.88735   1.88799   1.89590   1.91407   1.92759
  Beta virt. eigenvalues --    1.93155   1.94572   1.96045   1.96660   1.97211
  Beta virt. eigenvalues --    1.97798   2.00269   2.00845   2.02020   2.03391
  Beta virt. eigenvalues --    2.05793   2.06560   2.08331   2.08822   2.09845
  Beta virt. eigenvalues --    2.10397   2.12768   2.17517   2.21111   2.23305
  Beta virt. eigenvalues --    2.24049   2.26473   2.27726   2.33048   2.35210
  Beta virt. eigenvalues --    2.38823   2.41488   2.43353   2.45511   2.46633
  Beta virt. eigenvalues --    2.46825   2.47927   2.50954   2.54101   2.56682
  Beta virt. eigenvalues --    2.60994   2.62669   2.65004   2.66107   2.66308
  Beta virt. eigenvalues --    2.66852   2.68353   2.69514   2.70708   2.71469
  Beta virt. eigenvalues --    2.71963   2.72245   2.73954   2.74247   2.74390
  Beta virt. eigenvalues --    2.76255   2.77133   2.78599   2.79598   2.80653
  Beta virt. eigenvalues --    2.80753   2.81453   2.81818   2.82183   2.85490
  Beta virt. eigenvalues --    2.85790   2.87926   2.90259   2.90806   2.91175
  Beta virt. eigenvalues --    2.92991   2.95296   2.96524   2.98401   3.01461
  Beta virt. eigenvalues --    3.03589   3.08176   3.08734   3.11319   3.17083
  Beta virt. eigenvalues --    3.18251   3.21832   3.22787   3.25651   3.32071
  Beta virt. eigenvalues --    3.32419   3.35244   3.35923   3.40625   3.41916
  Beta virt. eigenvalues --    3.49954   3.52464   3.53641   3.54452   3.54875
  Beta virt. eigenvalues --    3.57740   3.59811   3.64153   3.66949   3.78744
  Beta virt. eigenvalues --    3.83403   4.03158   4.03478   4.04428   4.05432
  Beta virt. eigenvalues --    4.07315   4.17459   4.17914   4.23047   4.26618
  Beta virt. eigenvalues --    4.40423   4.69489   4.83032   4.83102   5.08013
  Beta virt. eigenvalues --    5.23487   5.74125  23.51213  23.64811  23.81190
  Beta virt. eigenvalues --   23.84265  23.92476  23.93200  23.94524  23.95052
  Beta virt. eigenvalues --   24.02496  24.02750  24.09229  24.09292  24.17960
  Beta virt. eigenvalues --   24.17977  24.23187  50.00930
          Condensed to atoms (all electrons):
               1          2          3          4          5          6
     1  O    8.171622   0.472828  -0.070324   0.058004   0.037997   0.004969
     2  C    0.472828  25.541885  -8.018833   1.197686  -0.327408   0.894002
     3  C   -0.070324  -8.018833  18.167890  -2.560864  -0.875850   0.422730
     4  C    0.058004   1.197686  -2.560864   9.105305  -0.240190  -0.416361
     5  C    0.037997  -0.327408  -0.875850  -0.240190   7.139950  -0.007286
     6  C    0.004969   0.894002   0.422730  -0.416361  -0.007286   6.870375
     7  C   -0.019143  -1.195041  -2.270883   1.914531  -0.422527  -0.086386
     8  C   -0.140714  -1.225276   1.215524  -1.945586   0.401196  -0.524485
     9  C   -0.035989  -1.072284  -0.763279  -0.652771   0.341768  -0.914591
    10  C   -0.036017  -1.069469  -0.579058  -0.030156   0.096983  -0.162671
    11  C   -0.140585  -1.228483  -0.620361  -0.943350  -0.080521   0.084286
    12  C   -0.019124  -1.196173  -0.022015  -0.342513   0.015719  -0.040496
    13  C    0.004957   0.894091  -0.123076  -0.049149  -0.008337   0.020201
    14  C    0.038092  -0.327591   0.046319   0.132084   0.032441  -0.008347
    15  C    0.057889   1.199752   0.266800   0.085721   0.132199  -0.049176
    16  C   -0.070246  -8.022299   1.184414   0.267657   0.046227  -0.123004
    17  H   -0.011307   0.067647  -0.074176   0.451575  -0.113941   0.010707
    18  H    0.001321  -0.002305   0.018126  -0.016933   0.406855  -0.042014
    19  H   -0.000104  -0.007822   0.009622  -0.021689  -0.050232   0.433682
    20  H    0.000427  -0.029807  -0.002562   0.056943   0.008088  -0.067222
    21  H    0.000033   0.037009   0.011706  -0.045028  -0.005490   0.018347
    22  H    0.000032   0.036998  -0.031384   0.018935  -0.000545   0.008628
    23  H    0.000427  -0.029836   0.011676  -0.001557   0.000785  -0.001707
    24  H   -0.000104  -0.007831  -0.002833  -0.000435  -0.000046   0.000148
    25  H    0.001323  -0.002280   0.009426   0.001311   0.000269  -0.000171
    26  H   -0.011298   0.067669  -0.079913  -0.007262   0.002390   0.000135
               7          8          9         10         11         12
     1  O   -0.019143  -0.140714  -0.035989  -0.036017  -0.140585  -0.019124
     2  C   -1.195041  -1.225276  -1.072284  -1.069469  -1.228483  -1.196173
     3  C   -2.270883   1.215524  -0.763279  -0.579058  -0.620361  -0.022015
     4  C    1.914531  -1.945586  -0.652771  -0.030156  -0.943350  -0.342513
     5  C   -0.422527   0.401196   0.341768   0.096983  -0.080521   0.015719
     6  C   -0.086386  -0.524485  -0.914591  -0.162671   0.084286  -0.040496
     7  C    9.296642  -0.837224   0.350892  -0.138080  -0.322430  -0.108113
     8  C   -0.837224  10.362407  -0.832161  -1.048491   2.434721  -0.322086
     9  C    0.350892  -0.832161   8.979077   2.415179  -1.049154  -0.137847
    10  C   -0.138080  -1.048491   2.415179   8.978427  -0.832544   0.350508
    11  C   -0.322430   2.434721  -1.049154  -0.832544  10.363131  -0.836374
    12  C   -0.108113  -0.322086  -0.137847   0.350508  -0.836374   9.296388
    13  C   -0.040510   0.084414  -0.163013  -0.914811  -0.524404  -0.086802
    14  C    0.015744  -0.080513   0.097194   0.341970   0.402076  -0.422567
    15  C   -0.342622  -0.943118  -0.030231  -0.652476  -1.945974   1.914339
    16  C   -0.022538  -0.622644  -0.578739  -0.765341   1.216348  -2.270045
    17  H    0.035779   0.039812  -0.002880  -0.001119   0.002348  -0.003468
    18  H   -0.011358  -0.024578  -0.005750  -0.000985  -0.002150   0.000066
    19  H   -0.066205   0.023863   0.007471   0.000607   0.003727   0.000200
    20  H    0.496734  -0.128583   0.030453  -0.015772  -0.016004  -0.006212
    21  H   -0.056590  -0.077051   0.356557  -0.003190   0.029567   0.044602
    22  H    0.044651   0.029552  -0.003167   0.356642  -0.077148  -0.056601
    23  H   -0.006220  -0.016008  -0.015748   0.030437  -0.128593   0.496751
    24  H    0.000199   0.003725   0.000603   0.007455   0.023845  -0.066200
    25  H    0.000067  -0.002149  -0.000982  -0.005746  -0.024567  -0.011388
    26  H   -0.003468   0.002342  -0.001131  -0.002885   0.039749   0.035774
              13         14         15         16         17         18
     1  O    0.004957   0.038092   0.057889  -0.070246  -0.011307   0.001321
     2  C    0.894091  -0.327591   1.199752  -8.022299   0.067647  -0.002305
     3  C   -0.123076   0.046319   0.266800   1.184414  -0.074176   0.018126
     4  C   -0.049149   0.132084   0.085721   0.267657   0.451575  -0.016933
     5  C   -0.008337   0.032441   0.132199   0.046227  -0.113941   0.406855
     6  C    0.020201  -0.008347  -0.049176  -0.123004   0.010707  -0.042014
     7  C   -0.040510   0.015744  -0.342622  -0.022538   0.035779  -0.011358
     8  C    0.084414  -0.080513  -0.943118  -0.622644   0.039812  -0.024578
     9  C   -0.163013   0.097194  -0.030231  -0.578739  -0.002880  -0.005750
    10  C   -0.914811   0.341970  -0.652476  -0.765341  -0.001119  -0.000985
    11  C   -0.524404   0.402076  -1.945974   1.216348   0.002348  -0.002150
    12  C   -0.086802  -0.422567   1.914339  -2.270045  -0.003468   0.000066
    13  C    6.870449  -0.007646  -0.415869   0.423202   0.000134  -0.000171
    14  C   -0.007646   7.141220  -0.241034  -0.876922   0.002396   0.000269
    15  C   -0.415869  -0.241034   9.106608  -2.562523  -0.007260   0.001311
    16  C    0.423202  -0.876922  -2.562523  18.175217  -0.079967   0.009429
    17  H    0.000134   0.002396  -0.007260  -0.079967   0.497850  -0.013058
    18  H   -0.000171   0.000269   0.001311   0.009429  -0.013058   0.492655
    19  H    0.000148  -0.000046  -0.000435  -0.002836   0.000545  -0.011746
    20  H   -0.001706   0.000785  -0.001555   0.011664   0.000513   0.000981
    21  H    0.008628  -0.000549   0.018931  -0.031350   0.000189  -0.000492
    22  H    0.018325  -0.005468  -0.045041   0.011661   0.000041  -0.000025
    23  H   -0.067191   0.008074   0.056939  -0.002542  -0.000100   0.000015
    24  H    0.433686  -0.050254  -0.021657   0.009643  -0.000009  -0.000000
    25  H   -0.041975   0.406856  -0.016985   0.018131  -0.000027   0.000011
    26  H    0.010722  -0.113999   0.451690  -0.074221  -0.001821  -0.000027
              19         20         21         22         23         24
     1  O   -0.000104   0.000427   0.000033   0.000032   0.000427  -0.000104
     2  C   -0.007822  -0.029807   0.037009   0.036998  -0.029836  -0.007831
     3  C    0.009622  -0.002562   0.011706  -0.031384   0.011676  -0.002833
     4  C   -0.021689   0.056943  -0.045028   0.018935  -0.001557  -0.000435
     5  C   -0.050232   0.008088  -0.005490  -0.000545   0.000785  -0.000046
     6  C    0.433682  -0.067222   0.018347   0.008628  -0.001707   0.000148
     7  C   -0.066205   0.496734  -0.056590   0.044651  -0.006220   0.000199
     8  C    0.023863  -0.128583  -0.077051   0.029552  -0.016008   0.003725
     9  C    0.007471   0.030453   0.356557  -0.003167  -0.015748   0.000603
    10  C    0.000607  -0.015772  -0.003190   0.356642   0.030437   0.007455
    11  C    0.003727  -0.016004   0.029567  -0.077148  -0.128593   0.023845
    12  C    0.000200  -0.006212   0.044602  -0.056601   0.496751  -0.066200
    13  C    0.000148  -0.001706   0.008628   0.018325  -0.067191   0.433686
    14  C   -0.000046   0.000785  -0.000549  -0.005468   0.008074  -0.050254
    15  C   -0.000435  -0.001555   0.018931  -0.045041   0.056939  -0.021657
    16  C   -0.002836   0.011664  -0.031350   0.011661  -0.002542   0.009643
    17  H    0.000545   0.000513   0.000189   0.000041  -0.000100  -0.000009
    18  H   -0.011746   0.000981  -0.000492  -0.000025   0.000015  -0.000000
    19  H    0.496789  -0.013908   0.001199  -0.000126  -0.000001   0.000001
    20  H   -0.013908   0.500995   0.000696   0.001069  -0.000075  -0.000001
    21  H    0.001199   0.000696   0.534352  -0.034376   0.001068  -0.000126
    22  H   -0.000126   0.001069  -0.034376   0.534369   0.000693   0.001198
    23  H   -0.000001  -0.000075   0.001068   0.000693   0.500997  -0.013908
    24  H    0.000001  -0.000001  -0.000126   0.001198  -0.013908   0.496792
    25  H   -0.000000   0.000015  -0.000025  -0.000491   0.000979  -0.011744
    26  H   -0.000009  -0.000100   0.000041   0.000189   0.000514   0.000545
              25         26
     1  O    0.001323  -0.011298
     2  C   -0.002280   0.067669
     3  C    0.009426  -0.079913
     4  C    0.001311  -0.007262
     5  C    0.000269   0.002390
     6  C   -0.000171   0.000135
     7  C    0.000067  -0.003468
     8  C   -0.002149   0.002342
     9  C   -0.000982  -0.001131
    10  C   -0.005746  -0.002885
    11  C   -0.024567   0.039749
    12  C   -0.011388   0.035774
    13  C   -0.041975   0.010722
    14  C    0.406856  -0.113999
    15  C   -0.016985   0.451690
    16  C    0.018131  -0.074221
    17  H   -0.000027  -0.001821
    18  H    0.000011  -0.000027
    19  H   -0.000000  -0.000009
    20  H    0.000015  -0.000100
    21  H   -0.000025   0.000041
    22  H   -0.000491   0.000189
    23  H    0.000979   0.000514
    24  H   -0.011744   0.000545
    25  H    0.492646  -0.013061
    26  H   -0.013061   0.497844
          Atomic-Atomic Spin Densities.
               1          2          3          4          5          6
     1  O    0.000000  -0.000000   0.000000  -0.000000   0.000000  -0.000000
     2  C   -0.000000   0.000000  -0.000000   0.000000  -0.000000   0.000000
     3  C    0.000000  -0.000000   0.000000  -0.000000   0.000000  -0.000000
     4  C   -0.000000   0.000000  -0.000000   0.000000  -0.000000   0.000000
     5  C    0.000000  -0.000000   0.000000  -0.000000   0.000000  -0.000000
     6  C   -0.000000   0.000000  -0.000000   0.000000  -0.000000   0.000000
     7  C    0.000000   0.000000   0.000000   0.000000  -0.000000   0.000000
     8  C   -0.000000   0.000000   0.000000  -0.000000   0.000000  -0.000000
     9  C    0.000000  -0.000000   0.000000  -0.000000   0.000000   0.000000
    10  C    0.000000  -0.000000   0.000000  -0.000000   0.000000   0.000000
    11  C    0.000000   0.000000   0.000000  -0.000000  -0.000000   0.000000
    12  C    0.000000   0.000000   0.000000  -0.000000  -0.000000   0.000000
    13  C   -0.000000   0.000000  -0.000000  -0.000000   0.000000  -0.000000
    14  C    0.000000  -0.000000   0.000000  -0.000000   0.000000  -0.000000
    15  C   -0.000000   0.000000  -0.000000  -0.000000  -0.000000   0.000000
    16  C    0.000000  -0.000000   0.000000  -0.000000   0.000000  -0.000000
    17  H   -0.000000   0.000000  -0.000000   0.000000  -0.000000   0.000000
    18  H    0.000000  -0.000000   0.000000  -0.000000  -0.000000  -0.000000
    19  H   -0.000000  -0.000000  -0.000000   0.000000   0.000000  -0.000000
    20  H    0.000000   0.000000   0.000000   0.000000  -0.000000   0.000000
    21  H    0.000000  -0.000000   0.000000  -0.000000   0.000000  -0.000000
    22  H   -0.000000   0.000000  -0.000000   0.000000  -0.000000   0.000000
    23  H    0.000000  -0.000000   0.000000  -0.000000   0.000000   0.000000
    24  H   -0.000000   0.000000  -0.000000   0.000000   0.000000  -0.000000
    25  H    0.000000  -0.000000   0.000000  -0.000000   0.000000  -0.000000
    26  H    0.000000   0.000000  -0.000000   0.000000  -0.000000   0.000000
               7          8          9         10         11         12
     1  O    0.000000  -0.000000   0.000000   0.000000   0.000000   0.000000
     2  C    0.000000   0.000000  -0.000000  -0.000000   0.000000   0.000000
     3  C    0.000000   0.000000   0.000000   0.000000   0.000000   0.000000
     4  C    0.000000  -0.000000  -0.000000  -0.000000  -0.000000  -0.000000
     5  C   -0.000000   0.000000   0.000000   0.000000  -0.000000  -0.000000
     6  C    0.000000  -0.000000   0.000000   0.000000   0.000000   0.000000
     7  C   -0.000000  -0.000000  -0.000000  -0.000000  -0.000000  -0.000000
     8  C   -0.000000   0.000000   0.000000  -0.000000  -0.000000   0.000000
     9  C   -0.000000   0.000000  -0.000000  -0.000000  -0.000000  -0.000000
    10  C   -0.000000  -0.000000  -0.000000  -0.000000   0.000000  -0.000000
    11  C   -0.000000  -0.000000  -0.000000   0.000000  -0.000000  -0.000000
    12  C   -0.000000   0.000000  -0.000000  -0.000000  -0.000000  -0.000000
    13  C    0.000000   0.000000   0.000000   0.000000   0.000000   0.000000
    14  C   -0.000000  -0.000000   0.000000  -0.000000  -0.000000  -0.000000
    15  C   -0.000000   0.000000  -0.000000  -0.000000   0.000000  -0.000000
    16  C    0.000000  -0.000000   0.000000   0.000000  -0.000000   0.000000
    17  H   -0.000000  -0.000000  -0.000000  -0.000000  -0.000000  -0.000000
    18  H   -0.000000   0.000000   0.000000   0.000000   0.000000   0.000000
    19  H    0.000000  -0.000000   0.000000   0.000000  -0.000000   0.000000
    20  H   -0.000000  -0.000000  -0.000000  -0.000000  -0.000000  -0.000000
    21  H    0.000000   0.000000   0.000000   0.000000   0.000000   0.000000
    22  H    0.000000  -0.000000   0.000000   0.000000   0.000000  -0.000000
    23  H   -0.000000   0.000000  -0.000000  -0.000000   0.000000  -0.000000
    24  H    0.000000   0.000000   0.000000   0.000000  -0.000000   0.000000
    25  H   -0.000000  -0.000000   0.000000   0.000000   0.000000   0.000000
    26  H   -0.000000  -0.000000  -0.000000  -0.000000  -0.000000  -0.000000
              13         14         15         16         17         18
     1  O   -0.000000   0.000000  -0.000000   0.000000  -0.000000   0.000000
     2  C    0.000000  -0.000000   0.000000  -0.000000   0.000000  -0.000000
     3  C   -0.000000   0.000000  -0.000000   0.000000  -0.000000   0.000000
     4  C   -0.000000  -0.000000  -0.000000  -0.000000   0.000000  -0.000000
     5  C    0.000000   0.000000  -0.000000   0.000000  -0.000000  -0.000000
     6  C   -0.000000  -0.000000   0.000000  -0.000000   0.000000  -0.000000
     7  C    0.000000  -0.000000  -0.000000   0.000000  -0.000000  -0.000000
     8  C    0.000000  -0.000000   0.000000  -0.000000  -0.000000   0.000000
     9  C    0.000000   0.000000  -0.000000   0.000000  -0.000000   0.000000
    10  C    0.000000  -0.000000  -0.000000   0.000000  -0.000000   0.000000
    11  C    0.000000  -0.000000   0.000000  -0.000000  -0.000000   0.000000
    12  C    0.000000  -0.000000  -0.000000   0.000000  -0.000000   0.000000
    13  C   -0.000000  -0.000000   0.000000  -0.000000   0.000000  -0.000000
    14  C   -0.000000   0.000000  -0.000000   0.000000  -0.000000   0.000000
    15  C    0.000000  -0.000000   0.000000  -0.000000   0.000000  -0.000000
    16  C   -0.000000   0.000000  -0.000000   0.000000  -0.000000   0.000000
    17  H    0.000000  -0.000000   0.000000  -0.000000   0.000000  -0.000000
    18  H   -0.000000   0.000000  -0.000000   0.000000  -0.000000  -0.000000
    19  H   -0.000000   0.000000   0.000000  -0.000000   0.000000   0.000000
    20  H   -0.000000   0.000000  -0.000000   0.000000   0.000000  -0.000000
    21  H   -0.000000   0.000000   0.000000  -0.000000  -0.000000   0.000000
    22  H   -0.000000  -0.000000  -0.000000  -0.000000   0.000000  -0.000000
    23  H    0.000000  -0.000000  -0.000000   0.000000  -0.000000   0.000000
    24  H   -0.000000   0.000000   0.000000  -0.000000   0.000000  -0.000000
    25  H   -0.000000  -0.000000  -0.000000   0.000000  -0.000000   0.000000
    26  H    0.000000  -0.000000   0.000000  -0.000000   0.000000  -0.000000
              19         20         21         22         23         24
     1  O   -0.000000   0.000000   0.000000  -0.000000   0.000000  -0.000000
     2  C   -0.000000   0.000000  -0.000000   0.000000  -0.000000   0.000000
     3  C   -0.000000   0.000000   0.000000  -0.000000   0.000000  -0.000000
     4  C    0.000000   0.000000  -0.000000   0.000000  -0.000000   0.000000
     5  C    0.000000  -0.000000   0.000000  -0.000000   0.000000   0.000000
     6  C   -0.000000   0.000000  -0.000000   0.000000   0.000000  -0.000000
     7  C    0.000000  -0.000000   0.000000   0.000000  -0.000000   0.000000
     8  C   -0.000000  -0.000000   0.000000  -0.000000   0.000000   0.000000
     9  C    0.000000  -0.000000   0.000000   0.000000  -0.000000   0.000000
    10  C    0.000000  -0.000000   0.000000   0.000000  -0.000000   0.000000
    11  C   -0.000000  -0.000000   0.000000   0.000000   0.000000  -0.000000
    12  C    0.000000  -0.000000   0.000000  -0.000000  -0.000000   0.000000
    13  C   -0.000000  -0.000000  -0.000000  -0.000000   0.000000  -0.000000
    14  C    0.000000   0.000000   0.000000  -0.000000  -0.000000   0.000000
    15  C    0.000000  -0.000000   0.000000  -0.000000  -0.000000   0.000000
    16  C   -0.000000   0.000000  -0.000000  -0.000000   0.000000  -0.000000
    17  H    0.000000   0.000000  -0.000000   0.000000  -0.000000   0.000000
    18  H    0.000000  -0.000000   0.000000  -0.000000   0.000000  -0.000000
    19  H   -0.000000   0.000000  -0.000000  -0.000000   0.000000  -0.000000
    20  H    0.000000   0.000000   0.000000   0.000000  -0.000000  -0.000000
    21  H   -0.000000   0.000000  -0.000000  -0.000000   0.000000  -0.000000
    22  H   -0.000000   0.000000  -0.000000   0.000000  -0.000000   0.000000
    23  H    0.000000  -0.000000   0.000000  -0.000000  -0.000000   0.000000
    24  H   -0.000000  -0.000000  -0.000000   0.000000   0.000000  -0.000000
    25  H    0.000000   0.000000   0.000000  -0.000000   0.000000  -0.000000
    26  H    0.000000  -0.000000  -0.000000   0.000000  -0.000000   0.000000
              25         26
     1  O    0.000000   0.000000
     2  C   -0.000000   0.000000
     3  C    0.000000  -0.000000
     4  C   -0.000000   0.000000
     5  C    0.000000  -0.000000
     6  C   -0.000000   0.000000
     7  C   -0.000000  -0.000000
     8  C   -0.000000  -0.000000
     9  C    0.000000  -0.000000
    10  C    0.000000  -0.000000
    11  C    0.000000  -0.000000
    12  C    0.000000  -0.000000
    13  C   -0.000000   0.000000
    14  C   -0.000000  -0.000000
    15  C   -0.000000   0.000000
    16  C    0.000000  -0.000000
    17  H   -0.000000   0.000000
    18  H    0.000000  -0.000000
    19  H    0.000000   0.000000
    20  H    0.000000  -0.000000
    21  H    0.000000  -0.000000
    22  H   -0.000000   0.000000
    23  H    0.000000  -0.000000
    24  H   -0.000000   0.000000
    25  H   -0.000000  -0.000000
    26  H   -0.000000   0.000000
 Mulliken charges and spin densities:
               1          2
     1  O   -0.294964  -0.000000
     2  C   -0.646829   0.000000
     3  C    0.731180  -0.000000
     4  C   -0.015908   0.000000
     5  C   -0.530493  -0.000000
     6  C   -0.324293   0.000000
     7  C   -0.205900  -0.000000
     8  C    0.173112  -0.000000
     9  C   -0.319475   0.000000
    10  C   -0.319397   0.000000
    11  C    0.172844  -0.000000
    12  C   -0.206324   0.000000
    13  C   -0.324297  -0.000000
    14  C   -0.530584   0.000000
    15  C   -0.016222   0.000000
    16  C    0.731621  -0.000000
    17  H    0.199599   0.000000
    18  H    0.200554  -0.000000
    19  H    0.197308   0.000000
    20  H    0.174144   0.000000
    21  H    0.191342  -0.000000
    22  H    0.191390   0.000000
    23  H    0.174131   0.000000
    24  H    0.197309  -0.000000
    25  H    0.200558  -0.000000
    26  H    0.199594   0.000000
 Sum of Mulliken charges =  -0.00000   0.00000
 Mulliken charges and spin densities with hydrogens summed into heavy atoms:
               1          2
     1  O   -0.294964  -0.000000
     2  C   -0.646829   0.000000
     3  C    0.731180  -0.000000
     4  C    0.183692   0.000000
     5  C   -0.329939  -0.000000
     6  C   -0.126985   0.000000
     7  C   -0.031756   0.000000
     8  C    0.173112  -0.000000
     9  C   -0.128133   0.000000
    10  C   -0.128008   0.000000
    11  C    0.172844  -0.000000
    12  C   -0.032193   0.000000
    13  C   -0.126987  -0.000000
    14  C   -0.330026   0.000000
    15  C    0.183372   0.000000
    16  C    0.731621  -0.000000
 Electronic spatial extent (au):  <R**2>=           3482.7005
 Charge=              0.0000 electrons
 Dipole moment (field-independent basis, Debye):
    X=              0.0003    Y=              4.0334    Z=             -1.8649  Tot=              4.4437
 Quadrupole moment (field-independent basis, Debye-Ang):
   XX=            -68.9196   YY=            -88.3447   ZZ=            -99.5821
   XY=             -0.0006   XZ=             -0.0009   YZ=              6.2618
 Traceless Quadrupole moment (field-independent basis, Debye-Ang):
   XX=             16.6958   YY=             -2.7292   ZZ=            -13.9666
   XY=             -0.0006   XZ=             -0.0009   YZ=              6.2618
 Octapole moment (field-independent basis, Debye-Ang**2):
  XXX=             -0.0004  YYY=             29.0045  ZZZ=              3.6846  XYY=              0.0019
  XXY=              1.6580  XXZ=            -23.6861  XZZ=              0.0013  YZZ=             -0.0255
  YYZ=             -9.6377  XYZ=             -0.0061
 Hexadecapole moment (field-independent basis, Debye-Ang**3):
 XXXX=          -3007.5005 YYYY=          -1073.0992 ZZZZ=           -205.4308 XXXY=             -0.0132
 XXXZ=             -0.0282 YYYX=             -0.0036 YYYZ=             43.2707 ZZZX=             -0.0019
 ZZZY=             -4.8488 XXYY=           -677.1214 XXZZ=           -677.6038 YYZZ=           -243.6630
 XXYZ=             12.0296 YYXZ=              0.0002 ZZXY=              0.0050
 N-N= 9.660790683036D+02 E-N=-3.450435333779D+03  KE= 6.501870897396D+02
                          Isotropic Fermi Contact Couplings
        Atom                 a.u.       MegaHertz       Gauss      10(-4) cm-1
     1  O(17)              0.00000      -0.00000      -0.00000      -0.00000
     2  C(13)             -0.00000      -0.00000      -0.00000      -0.00000
     3  C(13)              0.00000       0.00000       0.00000       0.00000
     4  C(13)              0.00000       0.00000       0.00000       0.00000
     5  C(13)              0.00000       0.00000       0.00000       0.00000
     6  C(13)             -0.00000      -0.00000      -0.00000      -0.00000
     7  C(13)              0.00000       0.00000       0.00000       0.00000
     8  C(13)             -0.00000      -0.00000      -0.00000      -0.00000
     9  C(13)              0.00000       0.00000       0.00000       0.00000
    10  C(13)             -0.00000      -0.00000      -0.00000      -0.00000
    11  C(13)              0.00000       0.00000       0.00000       0.00000
    12  C(13)              0.00000       0.00000       0.00000       0.00000
    13  C(13)             -0.00000      -0.00000      -0.00000      -0.00000
    14  C(13)             -0.00000      -0.00000      -0.00000      -0.00000
    15  C(13)             -0.00000      -0.00000      -0.00000      -0.00000
    16  C(13)              0.00000       0.00000       0.00000       0.00000
    17  H(1)              -0.00000      -0.00000      -0.00000      -0.00000
    18  H(1)               0.00000       0.00000       0.00000       0.00000
    19  H(1)              -0.00000      -0.00000      -0.00000      -0.00000
    20  H(1)              -0.00000      -0.00000      -0.00000      -0.00000
    21  H(1)              -0.00000      -0.00000      -0.00000      -0.00000
    22  H(1)              -0.00000      -0.00000      -0.00000      -0.00000
    23  H(1)              -0.00000      -0.00000      -0.00000      -0.00000
    24  H(1)              -0.00000      -0.00000      -0.00000      -0.00000
    25  H(1)              -0.00000      -0.00000      -0.00000      -0.00000
    26  H(1)              -0.00000      -0.00000      -0.00000      -0.00000
 --------------------------------------------------------
       Center         ----  Spin Dipole Couplings  ----
                      3XX-RR        3YY-RR        3ZZ-RR
 --------------------------------------------------------
     1   Atom        0.000000      0.000000     -0.000000
     2   Atom       -0.000000     -0.000000      0.000000
     3   Atom        0.000000     -0.000000     -0.000000
     4   Atom        0.000000     -0.000000      0.000000
     5   Atom        0.000000     -0.000000     -0.000000
     6   Atom       -0.000000      0.000000      0.000000
     7   Atom       -0.000000     -0.000000      0.000000
     8   Atom        0.000000     -0.000000     -0.000000
     9   Atom       -0.000000      0.000000     -0.000000
    10   Atom       -0.000000      0.000000     -0.000000
    11   Atom        0.000000     -0.000000      0.000000
    12   Atom        0.000000      0.000000     -0.000000
    13   Atom        0.000000     -0.000000     -0.000000
    14   Atom        0.000000     -0.000000     -0.000000
    15   Atom       -0.000000      0.000000     -0.000000
    16   Atom        0.000000     -0.000000     -0.000000
    17   Atom        0.000000     -0.000000      0.000000
    18   Atom       -0.000000     -0.000000      0.000000
    19   Atom       -0.000000      0.000000     -0.000000
    20   Atom        0.000000      0.000000     -0.000000
    21   Atom        0.000000     -0.000000      0.000000
    22   Atom       -0.000000      0.000000     -0.000000
    23   Atom       -0.000000      0.000000     -0.000000
    24   Atom        0.000000      0.000000     -0.000000
    25   Atom       -0.000000      0.000000     -0.000000
    26   Atom        0.000000      0.000000     -0.000000
 --------------------------------------------------------
                        XY            XZ            YZ
 --------------------------------------------------------
     1   Atom       -0.000000      0.000000     -0.000000
     2   Atom        0.000000      0.000000      0.000000
     3   Atom       -0.000000      0.000000     -0.000000
     4   Atom       -0.000000      0.000000     -0.000000
     5   Atom       -0.000000      0.000000      0.000000
     6   Atom       -0.000000      0.000000      0.000000
     7   Atom       -0.000000      0.000000     -0.000000
     8   Atom        0.000000     -0.000000      0.000000
     9   Atom        0.000000     -0.000000      0.000000
    10   Atom       -0.000000      0.000000      0.000000
    11   Atom       -0.000000     -0.000000      0.000000
    12   Atom        0.000000     -0.000000     -0.000000
    13   Atom        0.000000     -0.000000     -0.000000
    14   Atom        0.000000     -0.000000      0.000000
    15   Atom       -0.000000      0.000000      0.000000
    16   Atom       -0.000000     -0.000000      0.000000
    17   Atom        0.000000     -0.000000     -0.000000
    18   Atom       -0.000000     -0.000000     -0.000000
    19   Atom       -0.000000      0.000000      0.000000
    20   Atom       -0.000000     -0.000000      0.000000
    21   Atom        0.000000      0.000000     -0.000000
    22   Atom        0.000000     -0.000000      0.000000
    23   Atom        0.000000      0.000000      0.000000
    24   Atom        0.000000     -0.000000      0.000000
    25   Atom       -0.000000     -0.000000     -0.000000
    26   Atom        0.000000      0.000000     -0.000000
 --------------------------------------------------------


 ---------------------------------------------------------------------------------
              Anisotropic Spin Dipole Couplings in Principal Axis System
 ---------------------------------------------------------------------------------

       Atom             a.u.   MegaHertz   Gauss  10(-4) cm-1        Axes

              Baa    -0.0000     0.000     0.000     0.000  0.2053  0.6513  0.7305
     1 O(17)  Bbb    -0.0000     0.000     0.000     0.000  0.8755  0.2114 -0.4345
              Bcc     0.0000    -0.000    -0.000    -0.000 -0.4374  0.7288 -0.5269
 
              Baa    -0.0000    -0.000    -0.000    -0.000  0.3330  0.8252 -0.4562
     2 C(13)  Bbb    -0.0000    -0.000    -0.000    -0.000  0.8377 -0.4810 -0.2586
              Bcc     0.0000     0.000     0.000     0.000  0.4329  0.2960  0.8515
 
              Baa    -0.0000    -0.000    -0.000    -0.000 -0.3611  0.0659  0.9302
     3 C(13)  Bbb    -0.0000    -0.000    -0.000    -0.000  0.1690  0.9856 -0.0042
              Bcc     0.0000     0.000     0.000     0.000  0.9171 -0.1557  0.3670
 
              Baa    -0.0000    -0.000    -0.000    -0.000 -0.0932  0.9118  0.4000
     4 C(13)  Bbb    -0.0000    -0.000    -0.000    -0.000 -0.6172 -0.3681  0.6954
              Bcc     0.0000     0.000     0.000     0.000  0.7813 -0.1820  0.5971
 
              Baa    -0.0000    -0.000    -0.000    -0.000  0.2589  0.8125 -0.5223
     5 C(13)  Bbb    -0.0000    -0.000    -0.000    -0.000 -0.2462  0.5784  0.7777
              Bcc     0.0000     0.000     0.000     0.000  0.9340 -0.0728  0.3497
 
              Baa    -0.0000    -0.000    -0.000    -0.000  0.7315  0.5886 -0.3442
     6 C(13)  Bbb     0.0000     0.000     0.000     0.000  0.2491  0.2393  0.9385
              Bcc     0.0000     0.000     0.000     0.000 -0.6347  0.7722 -0.0285
 
              Baa    -0.0000    -0.000    -0.000    -0.000  0.4912  0.7659  0.4148
     7 C(13)  Bbb    -0.0000    -0.000    -0.000    -0.000  0.7395 -0.1151 -0.6632
              Bcc     0.0000     0.000     0.000     0.000 -0.4602  0.6326 -0.6229
 
              Baa    -0.0000    -0.000    -0.000    -0.000  0.1866 -0.6740  0.7148
     8 C(13)  Bbb     0.0000     0.000     0.000     0.000  0.9370 -0.0967 -0.3358
              Bcc     0.0000     0.000     0.000     0.000  0.2955  0.7324  0.6134
 
              Baa    -0.0000    -0.000    -0.000    -0.000  0.6506 -0.2894  0.7022
     9 C(13)  Bbb     0.0000     0.000     0.000     0.000  0.7560  0.1590 -0.6349
              Bcc     0.0000     0.000     0.000     0.000  0.0721  0.9439  0.3222
 
              Baa    -0.0000    -0.000    -0.000    -0.000 -0.4926 -0.3013  0.8164
    10 C(13)  Bbb    -0.0000    -0.000    -0.000    -0.000  0.8696 -0.1353  0.4748
              Bcc     0.0000     0.000     0.000     0.000 -0.0326  0.9439  0.3287
 
              Baa    -0.0000    -0.000    -0.000    -0.000  0.0773  0.8768 -0.4746
    11 C(13)  Bbb     0.0000     0.000     0.000     0.000  0.3553  0.4206  0.8348
              Bcc     0.0000     0.000     0.000     0.000  0.9316 -0.2331 -0.2790
 
              Baa    -0.0000    -0.000    -0.000    -0.000  0.0897  0.2979  0.9504
    12 C(13)  Bbb     0.0000     0.000     0.000     0.000  0.9183 -0.3942  0.0370
              Bcc     0.0000     0.000     0.000     0.000  0.3857  0.8694 -0.3089
 
              Baa    -0.0000    -0.000    -0.000    -0.000 -0.3525  0.8841  0.3069
    13 C(13)  Bbb    -0.0000    -0.000    -0.000    -0.000  0.4369 -0.1345  0.8894
              Bcc     0.0000     0.000     0.000     0.000  0.8275  0.4476 -0.3389
 
              Baa    -0.0000    -0.000    -0.000    -0.000  0.5253 -0.4375  0.7298
    14 C(13)  Bbb    -0.0000    -0.000    -0.000    -0.000  0.3803  0.8880  0.2586
              Bcc     0.0000     0.000     0.000     0.000  0.7612 -0.1418 -0.6328
 
              Baa    -0.0000    -0.000    -0.000    -0.000  0.6852  0.3389 -0.6447
    15 C(13)  Bbb    -0.0000    -0.000    -0.000    -0.000  0.5840  0.2733  0.7643
              Bcc     0.0000     0.000     0.000     0.000 -0.4352  0.9003  0.0107
 
              Baa    -0.0000    -0.000    -0.000    -0.000  0.2389 -0.2190  0.9460
    16 C(13)  Bbb    -0.0000    -0.000    -0.000    -0.000  0.0968  0.9748  0.2012
              Bcc     0.0000     0.000     0.000     0.000  0.9662 -0.0435 -0.2541
 
              Baa    -0.0000    -0.000    -0.000    -0.000 -0.2390  0.9504  0.1992
    17 H(1)   Bbb    -0.0000    -0.000    -0.000    -0.000  0.6636  0.0101  0.7481
              Bcc     0.0000     0.000     0.000     0.000  0.7089  0.3110 -0.6330
 
              Baa    -0.0000    -0.000    -0.000    -0.000  0.7777  0.5896  0.2182
    18 H(1)   Bbb     0.0000     0.000     0.000     0.000 -0.6127  0.6331  0.4730
              Bcc     0.0000     0.000     0.000     0.000  0.1407 -0.5016  0.8536
 
              Baa    -0.0000    -0.000    -0.000    -0.000  0.7445  0.2967 -0.5980
    19 H(1)   Bbb    -0.0000    -0.000    -0.000    -0.000  0.6358 -0.0419  0.7708
              Bcc     0.0000     0.000     0.000     0.000 -0.2036  0.9541  0.2198
 
              Baa    -0.0000    -0.000    -0.000    -0.000  0.2724 -0.0780  0.9590
    20 H(1)   Bbb     0.0000     0.000     0.000     0.000  0.9402  0.2334 -0.2481
              Bcc     0.0000     0.000     0.000     0.000 -0.2045  0.9692  0.1369
 
              Baa    -0.0000    -0.000    -0.000    -0.000 -0.4965  0.8483  0.1841
    21 H(1)   Bbb     0.0000     0.000     0.000     0.000 -0.5196 -0.4604  0.7198
              Bcc     0.0000     0.000     0.000     0.000  0.6953  0.2617  0.6693
 
              Baa    -0.0000    -0.000    -0.000    -0.000  0.6481 -0.2766  0.7096
    22 H(1)   Bbb     0.0000     0.000     0.000     0.000  0.7192  0.5289 -0.4507
              Bcc     0.0000     0.000     0.000     0.000 -0.2506  0.8024  0.5417
 
              Baa    -0.0000    -0.000    -0.000    -0.000 -0.2708 -0.2984  0.9152
    23 H(1)   Bbb    -0.0000    -0.000    -0.000    -0.000  0.9587 -0.1693  0.2285
              Bcc     0.0000     0.000     0.000     0.000  0.0868  0.9393  0.3320
 
              Baa    -0.0000    -0.000    -0.000    -0.000  0.2364 -0.3834  0.8928
    24 H(1)   Bbb    -0.0000    -0.000    -0.000    -0.000 -0.6156  0.6518  0.4429
              Bcc     0.0000     0.000     0.000     0.000  0.7517  0.6543  0.0820
 
              Baa    -0.0000    -0.000    -0.000    -0.000  0.8259  0.1634  0.5396
    25 H(1)   Bbb     0.0000     0.000     0.000     0.000 -0.5552  0.4019  0.7281
              Bcc     0.0000     0.000     0.000     0.000  0.0979  0.9010 -0.4227
 
              Baa    -0.0000    -0.000    -0.000    -0.000 -0.2290  0.1494  0.9619
    26 H(1)   Bbb     0.0000     0.000     0.000     0.000  0.8618 -0.4283  0.2717
              Bcc     0.0000     0.000     0.000     0.000  0.4526  0.8912 -0.0307
 

 ---------------------------------------------------------------------------------

 No NMR shielding tensors so no spin-rotation constants.
 Leave Link  601 at Sat Jan 13 19:20:32 2024, MaxMem=  4026531840 cpu:              19.3 elap:               3.4
 (Enter /sysapps/ubuntu-applications/gaussian/Gaussian/AVX2/g16/l9999.exe)
 1\1\GINC-ACIDSGN001\SP\UB3LYP\6-311++G(d,p)\C15H10O1\SELHAJJ1\13-Jan-2
 024\0\\#P UB3LYP/6-311++G(d,p) SCRF=(PCM,Solvent=n,n-DiMethylFormamide
 )\\Quinone PCM in DMF\\0,1\O,0,0.051176,-2.116401,-1.474168\C,0,0.0267
 9,-1.113456,-0.772864\C,0,1.328265,-0.568161,-0.268382\C,0,2.357434,-1
 .521409,-0.165614\C,0,3.634495,-1.175874,0.24331\C,0,3.927288,0.161032
 ,0.527141\C,0,2.933866,1.116624,0.412123\C,0,1.612108,0.784225,0.03929
 7\C,0,0.671616,1.88822,-0.022168\C,0,-0.676146,1.88558,-0.065172\C,0,-
 1.614334,0.777906,-0.063599\C,0,-2.9584,1.105093,0.224434\C,0,-3.95343
 9,0.145664,0.27598\C,0,-3.638067,-1.190007,0.011157\C,0,-2.336254,-1.5
 30507,-0.315682\C,0,-1.306291,-0.5733,-0.352615\H,0,2.122418,-2.544906
 ,-0.426827\H,0,4.402172,-1.93631,0.327769\H,0,4.926365,0.45162,0.83182
 7\H,0,3.163423,2.155683,0.621802\H,0,1.139592,2.867035,0.032296\H,0,-1
 .150495,2.862537,-0.040805\H,0,-3.204816,2.143198,0.419184\H,0,-4.9709
 67,0.43233,0.516581\H,0,-4.406641,-1.953403,0.046493\H,0,-2.081157,-2.
 553012,-0.561497\\Version=ES64L-G16RevA.03\State=1-A\HF=-653.0131631\S
 2=0.\S2-1=0.\S2A=0.\RMSD=6.029e-09\Dipole=-0.036843,1.3851418,1.066066
 8\Quadrupole=12.3878401,-0.4288195,-11.9590205,0.102068,0.7815575,-2.3
 944014\PG=C01 [X(C15H10O1)]\\@


 WHEN A MATHEMATICIAN ENGAGED IN INVESTIGATING
 PHYSICAL ACTIONS AND RESULTS HAS ARRIVED AT HIS
 CONCLUSIONS, MAY THEY NOT BE EXPRESSED IN COMMON
 LANGUAGE AS FULLY, CLEARLY, AND DEFINITELY AS IN
 MATHEMATICAL FORMULAE?
           - LETTER FROM M. FARADAY TO J.C. MAXWELL, 1857.
 Job cpu time:       0 days  0 hours 39 minutes 14.2 seconds.
 Elapsed time:       0 days  0 hours  5 minutes 50.4 seconds.
 File lengths (MBytes):  RWF=    250 Int=      0 D2E=      0 Chk=     14 Scr=      1
 Normal termination of Gaussian 16 at Sat Jan 13 19:20:32 2024.
