 Entering Gaussian System, Link 0=g16
 Input=059-rad.com
 Output=059-rad.log
 Initial command:
 /sysapps/ubuntu-applications/gaussian/Gaussian/AVX2/g16/l1.exe "/scratch/selhajj1/4256494/Gau-3892734.inp" -scrdir="/scratch/selhajj1/4256494/"
 Entering Link 1 = /sysapps/ubuntu-applications/gaussian/Gaussian/AVX2/g16/l1.exe PID=   3892736.
  
 Copyright (c) 1988,1990,1992,1993,1995,1998,2003,2009,2016,
            Gaussian, Inc.  All Rights Reserved.
  
 This is part of the Gaussian(R) 16 program.  It is based on
 the Gaussian(R) 09 system (copyright 2009, Gaussian, Inc.),
 the Gaussian(R) 03 system (copyright 2003, Gaussian, Inc.),
 the Gaussian(R) 98 system (copyright 1998, Gaussian, Inc.),
 the Gaussian(R) 94 system (copyright 1995, Gaussian, Inc.),
 the Gaussian 92(TM) system (copyright 1992, Gaussian, Inc.),
 the Gaussian 90(TM) system (copyright 1990, Gaussian, Inc.),
 the Gaussian 88(TM) system (copyright 1988, Gaussian, Inc.),
 the Gaussian 86(TM) system (copyright 1986, Carnegie Mellon
 University), and the Gaussian 82(TM) system (copyright 1983,
 Carnegie Mellon University). Gaussian is a federally registered
 trademark of Gaussian, Inc.
  
 This software contains proprietary and confidential information,
 including trade secrets, belonging to Gaussian, Inc.
  
 This software is provided under written license and may be
 used, copied, transmitted, or stored only in accord with that
 written license.
  
 The following legend is applicable only to US Government
 contracts under FAR:
  
                    RESTRICTED RIGHTS LEGEND
  
 Use, reproduction and disclosure by the US Government is
 subject to restrictions as set forth in subparagraphs (a)
 and (c) of the Commercial Computer Software - Restricted
 Rights clause in FAR 52.227-19.
  
 Gaussian, Inc.
 340 Quinnipiac St., Bldg. 40, Wallingford CT 06492
  
  
 ---------------------------------------------------------------
 Warning -- This program may not be used in any manner that
 competes with the business of Gaussian, Inc. or will provide
 assistance to any competitor of Gaussian, Inc.  The licensee
 of this program is prohibited from giving any competitor of
 Gaussian, Inc. access to this program.  By using this program,
 the user acknowledges that Gaussian, Inc. is engaged in the
 business of creating and licensing software in the field of
 computational chemistry and represents and warrants to the
 licensee that it is not a competitor of Gaussian, Inc. and that
 it will not use this program in any manner prohibited above.
 ---------------------------------------------------------------
  

 Cite this work as:
 Gaussian 16, Revision A.03,
 M. J. Frisch, G. W. Trucks, H. B. Schlegel, G. E. Scuseria, 
 M. A. Robb, J. R. Cheeseman, G. Scalmani, V. Barone, 
 G. A. Petersson, H. Nakatsuji, X. Li, M. Caricato, A. V. Marenich, 
 J. Bloino, B. G. Janesko, R. Gomperts, B. Mennucci, H. P. Hratchian, 
 J. V. Ortiz, A. F. Izmaylov, J. L. Sonnenberg, D. Williams-Young, 
 F. Ding, F. Lipparini, F. Egidi, J. Goings, B. Peng, A. Petrone, 
 T. Henderson, D. Ranasinghe, V. G. Zakrzewski, J. Gao, N. Rega, 
 G. Zheng, W. Liang, M. Hada, M. Ehara, K. Toyota, R. Fukuda, 
 J. Hasegawa, M. Ishida, T. Nakajima, Y. Honda, O. Kitao, H. Nakai, 
 T. Vreven, K. Throssell, J. A. Montgomery, Jr., J. E. Peralta, 
 F. Ogliaro, M. J. Bearpark, J. J. Heyd, E. N. Brothers, K. N. Kudin, 
 V. N. Staroverov, T. A. Keith, R. Kobayashi, J. Normand, 
 K. Raghavachari, A. P. Rendell, J. C. Burant, S. S. Iyengar, 
 J. Tomasi, M. Cossi, J. M. Millam, M. Klene, C. Adamo, R. Cammi, 
 J. W. Ochterski, R. L. Martin, K. Morokuma, O. Farkas, 
 J. B. Foresman, and D. J. Fox, Gaussian, Inc., Wallingford CT, 2016.
 
 ******************************************
 Gaussian 16:  ES64L-G16RevA.03 25-Dec-2016
                 6-Jan-2024 
 ******************************************
 %chk=059-rad.chk
 %nproc=8
 Will use up to    8 processors via shared memory.
 %mem=30GB
 --------------------------------------
 #P UB3LYP/6-311++G(d,p) nosym opt freq
 --------------------------------------
 1/18=20,19=15,26=3,38=1/1,3;
 2/9=110,12=2,15=1,17=6,18=5,40=1/2;
 3/5=4,6=6,7=1111,11=2,25=1,30=1,71=1,74=-5,116=2/1,2,3;
 4//1;
 5/5=2,38=5/2;
 6/7=2,8=2,9=2,10=2,28=1/1;
 7/30=1/1,2,3,16;
 1/18=20,19=15,26=3/3(2);
 2/9=110,15=1/2;
 99//99;
 2/9=110,15=1/2;
 3/5=4,6=6,7=1111,11=2,25=1,30=1,71=1,74=-5,116=2/1,2,3;
 4/5=5,16=3,69=1/1;
 5/5=2,38=5/2;
 7/30=1/1,2,3,16;
 1/18=20,19=15,26=3/3(-5);
 2/9=110,15=1/2;
 6/7=2,8=2,9=2,10=2,19=2,28=1/1;
 99/9=1/99;
 Leave Link    1 at Sat Jan  6 05:40:04 2024, MaxMem=  4026531840 cpu:               0.8 elap:               0.1
 (Enter /sysapps/ubuntu-applications/gaussian/Gaussian/AVX2/g16/l101.exe)
 -------
 Radical
 -------
 Symbolic Z-matrix:
 Charge = -1 Multiplicity = 2
 C                    -0.50236   1.16783  -0.36315 
 C                    -1.46819   0.1397   -0.79987 
 C                    -1.29251  -1.17787  -0.50068 
 C                    -0.15891  -1.67429   0.25957 
 C                     0.77368  -0.67253   0.69564 
 C                     0.63029   0.68729   0.44159 
 O                    -0.6653    2.35363  -0.71749 
 O                    -0.01114  -2.9037    0.52071 
 C                     1.62036   1.63568   1.00327 
 C                     3.00683   1.08446   1.37139 
 O                     1.40042   2.82055   1.21048 
 H                     3.41764   0.43995   0.59043 
 H                     2.95414   0.49366   2.2919 
 H                     3.66827   1.934     1.54415 
 H                     1.60872  -1.0435    1.27958 
 C                    -2.64283   0.62553  -1.60567 
 H                    -2.01077  -1.9239   -0.83437 
 H                    -3.21523   1.37456  -1.04893 
 H                    -3.30391  -0.20357  -1.873 
 H                    -2.30805   1.12518  -2.52056 
 
 ITRead=  0  0  0  0  0  0  0  0  0  0  0  0  0  0  0  0  0  0  0  0
 MicOpt= -1 -1 -1 -1 -1 -1 -1 -1 -1 -1 -1 -1 -1 -1 -1 -1 -1 -1 -1 -1
 NAtoms=     20 NQM=       20 NQMF=       0 NMMI=      0 NMMIF=      0
                NMic=       0 NMicF=      0.
                    Isotopes and Nuclear Properties:
 (Nuclear quadrupole moments (NQMom) in fm**2, nuclear magnetic moments (NMagM)
  in nuclear magnetons)

  Atom         1           2           3           4           5           6           7           8           9          10
 IAtWgt=          12          12          12          12          12          12          16          16          12          12
 AtmWgt=  12.0000000  12.0000000  12.0000000  12.0000000  12.0000000  12.0000000  15.9949146  15.9949146  12.0000000  12.0000000
 NucSpn=           0           0           0           0           0           0           0           0           0           0
 AtZEff=  -0.0000000  -0.0000000  -0.0000000  -0.0000000  -0.0000000  -0.0000000  -0.0000000  -0.0000000  -0.0000000  -0.0000000
 NQMom=    0.0000000   0.0000000   0.0000000   0.0000000   0.0000000   0.0000000   0.0000000   0.0000000   0.0000000   0.0000000
 NMagM=    0.0000000   0.0000000   0.0000000   0.0000000   0.0000000   0.0000000   0.0000000   0.0000000   0.0000000   0.0000000
 AtZNuc=   6.0000000   6.0000000   6.0000000   6.0000000   6.0000000   6.0000000   8.0000000   8.0000000   6.0000000   6.0000000

  Atom        11          12          13          14          15          16          17          18          19          20
 IAtWgt=          16           1           1           1           1          12           1           1           1           1
 AtmWgt=  15.9949146   1.0078250   1.0078250   1.0078250   1.0078250  12.0000000   1.0078250   1.0078250   1.0078250   1.0078250
 NucSpn=           0           1           1           1           1           0           1           1           1           1
 AtZEff=  -0.0000000  -0.0000000  -0.0000000  -0.0000000  -0.0000000  -0.0000000  -0.0000000  -0.0000000  -0.0000000  -0.0000000
 NQMom=    0.0000000   0.0000000   0.0000000   0.0000000   0.0000000   0.0000000   0.0000000   0.0000000   0.0000000   0.0000000
 NMagM=    0.0000000   2.7928460   2.7928460   2.7928460   2.7928460   0.0000000   2.7928460   2.7928460   2.7928460   2.7928460
 AtZNuc=   8.0000000   1.0000000   1.0000000   1.0000000   1.0000000   6.0000000   1.0000000   1.0000000   1.0000000   1.0000000
 Leave Link  101 at Sat Jan  6 05:40:05 2024, MaxMem=  4026531840 cpu:               6.3 elap:               0.9
 (Enter /sysapps/ubuntu-applications/gaussian/Gaussian/AVX2/g16/l103.exe)

 GradGradGradGradGradGradGradGradGradGradGradGradGradGradGradGradGradGrad
 Berny optimization.
 Initialization pass.
                           ----------------------------
                           !    Initial Parameters    !
                           ! (Angstroms and Degrees)  !
 --------------------------                            --------------------------
 ! Name  Definition              Value          Derivative Info.                !
 --------------------------------------------------------------------------------
 ! R1    R(1,2)                  1.4767         estimate D2E/DX2                !
 ! R2    R(1,6)                  1.4702         estimate D2E/DX2                !
 ! R3    R(1,7)                  1.2483         estimate D2E/DX2                !
 ! R4    R(2,3)                  1.3625         estimate D2E/DX2                !
 ! R5    R(2,16)                 1.505          estimate D2E/DX2                !
 ! R6    R(3,4)                  1.4524         estimate D2E/DX2                !
 ! R7    R(3,17)                 1.088          estimate D2E/DX2                !
 ! R8    R(4,5)                  1.4365         estimate D2E/DX2                !
 ! R9    R(4,8)                  1.2655         estimate D2E/DX2                !
 ! R10   R(5,6)                  1.3908         estimate D2E/DX2                !
 ! R11   R(5,15)                 1.0844         estimate D2E/DX2                !
 ! R12   R(6,9)                  1.4816         estimate D2E/DX2                !
 ! R13   R(9,10)                 1.5368         estimate D2E/DX2                !
 ! R14   R(9,11)                 1.2228         estimate D2E/DX2                !
 ! R15   R(10,12)                1.0927         estimate D2E/DX2                !
 ! R16   R(10,13)                1.0951         estimate D2E/DX2                !
 ! R17   R(10,14)                1.0904         estimate D2E/DX2                !
 ! R18   R(16,18)                1.0948         estimate D2E/DX2                !
 ! R19   R(16,19)                1.0936         estimate D2E/DX2                !
 ! R20   R(16,20)                1.0949         estimate D2E/DX2                !
 ! A1    A(2,1,6)              115.9896         estimate D2E/DX2                !
 ! A2    A(2,1,7)              119.4761         estimate D2E/DX2                !
 ! A3    A(6,1,7)              124.5022         estimate D2E/DX2                !
 ! A4    A(1,2,3)              121.6014         estimate D2E/DX2                !
 ! A5    A(1,2,16)             116.3636         estimate D2E/DX2                !
 ! A6    A(3,2,16)             122.0304         estimate D2E/DX2                !
 ! A7    A(2,3,4)              123.1006         estimate D2E/DX2                !
 ! A8    A(2,3,17)             120.7037         estimate D2E/DX2                !
 ! A9    A(4,3,17)             116.1948         estimate D2E/DX2                !
 ! A10   A(3,4,5)              115.2943         estimate D2E/DX2                !
 ! A11   A(3,4,8)              122.0865         estimate D2E/DX2                !
 ! A12   A(5,4,8)              122.6187         estimate D2E/DX2                !
 ! A13   A(4,5,6)              124.0199         estimate D2E/DX2                !
 ! A14   A(4,5,15)             115.1404         estimate D2E/DX2                !
 ! A15   A(6,5,15)             120.814          estimate D2E/DX2                !
 ! A16   A(1,6,5)              119.9342         estimate D2E/DX2                !
 ! A17   A(1,6,9)              120.8713         estimate D2E/DX2                !
 ! A18   A(5,6,9)              119.1909         estimate D2E/DX2                !
 ! A19   A(6,9,10)             117.6516         estimate D2E/DX2                !
 ! A20   A(6,9,11)             124.3543         estimate D2E/DX2                !
 ! A21   A(10,9,11)            117.9852         estimate D2E/DX2                !
 ! A22   A(9,10,12)            112.3057         estimate D2E/DX2                !
 ! A23   A(9,10,13)            110.5765         estimate D2E/DX2                !
 ! A24   A(9,10,14)            107.8037         estimate D2E/DX2                !
 ! A25   A(12,10,13)           107.4966         estimate D2E/DX2                !
 ! A26   A(12,10,14)           110.1633         estimate D2E/DX2                !
 ! A27   A(13,10,14)           108.4413         estimate D2E/DX2                !
 ! A28   A(2,16,18)            110.8932         estimate D2E/DX2                !
 ! A29   A(2,16,19)            110.9744         estimate D2E/DX2                !
 ! A30   A(2,16,20)            110.858          estimate D2E/DX2                !
 ! A31   A(18,16,19)           109.0845         estimate D2E/DX2                !
 ! A32   A(18,16,20)           105.8175         estimate D2E/DX2                !
 ! A33   A(19,16,20)           109.0605         estimate D2E/DX2                !
 ! D1    D(6,1,2,3)             -1.7029         estimate D2E/DX2                !
 ! D2    D(6,1,2,16)           179.0569         estimate D2E/DX2                !
 ! D3    D(7,1,2,3)            176.3253         estimate D2E/DX2                !
 ! D4    D(7,1,2,16)            -2.915          estimate D2E/DX2                !
 ! D5    D(2,1,6,5)              2.9066         estimate D2E/DX2                !
 ! D6    D(2,1,6,9)           -176.3994         estimate D2E/DX2                !
 ! D7    D(7,1,6,5)           -175.0103         estimate D2E/DX2                !
 ! D8    D(7,1,6,9)              5.6837         estimate D2E/DX2                !
 ! D9    D(1,2,3,4)             -0.0434         estimate D2E/DX2                !
 ! D10   D(1,2,3,17)          -179.6775         estimate D2E/DX2                !
 ! D11   D(16,2,3,4)           179.1537         estimate D2E/DX2                !
 ! D12   D(16,2,3,17)           -0.4804         estimate D2E/DX2                !
 ! D13   D(1,2,16,18)          -58.0356         estimate D2E/DX2                !
 ! D14   D(1,2,16,19)         -179.4445         estimate D2E/DX2                !
 ! D15   D(1,2,16,20)           59.201          estimate D2E/DX2                !
 ! D16   D(3,2,16,18)          122.7277         estimate D2E/DX2                !
 ! D17   D(3,2,16,19)            1.3188         estimate D2E/DX2                !
 ! D18   D(3,2,16,20)         -120.0358         estimate D2E/DX2                !
 ! D19   D(2,3,4,5)              0.6282         estimate D2E/DX2                !
 ! D20   D(2,3,4,8)           -179.6266         estimate D2E/DX2                !
 ! D21   D(17,3,4,5)          -179.7224         estimate D2E/DX2                !
 ! D22   D(17,3,4,8)             0.0228         estimate D2E/DX2                !
 ! D23   D(3,4,5,6)              0.6864         estimate D2E/DX2                !
 ! D24   D(3,4,5,15)           178.8517         estimate D2E/DX2                !
 ! D25   D(8,4,5,6)           -179.0573         estimate D2E/DX2                !
 ! D26   D(8,4,5,15)            -0.892          estimate D2E/DX2                !
 ! D27   D(4,5,6,1)             -2.5115         estimate D2E/DX2                !
 ! D28   D(4,5,6,9)            176.8062         estimate D2E/DX2                !
 ! D29   D(15,5,6,1)           179.4224         estimate D2E/DX2                !
 ! D30   D(15,5,6,9)            -1.2599         estimate D2E/DX2                !
 ! D31   D(1,6,9,10)          -158.0739         estimate D2E/DX2                !
 ! D32   D(1,6,9,11)            23.0384         estimate D2E/DX2                !
 ! D33   D(5,6,9,10)            22.615          estimate D2E/DX2                !
 ! D34   D(5,6,9,11)          -156.2727         estimate D2E/DX2                !
 ! D35   D(6,9,10,12)           45.5971         estimate D2E/DX2                !
 ! D36   D(6,9,10,13)          -74.4771         estimate D2E/DX2                !
 ! D37   D(6,9,10,14)          167.1349         estimate D2E/DX2                !
 ! D38   D(11,9,10,12)        -135.4428         estimate D2E/DX2                !
 ! D39   D(11,9,10,13)         104.4831         estimate D2E/DX2                !
 ! D40   D(11,9,10,14)         -13.905          estimate D2E/DX2                !
 --------------------------------------------------------------------------------
 Trust Radius=3.00D-01 FncErr=1.00D-07 GrdErr=1.00D-06 EigMax=2.50D+02 EigMin=1.00D-04
 Number of steps in this run=    103 maximum allowed number of steps=    120.
 GradGradGradGradGradGradGradGradGradGradGradGradGradGradGradGradGradGrad

 Leave Link  103 at Sat Jan  6 05:40:05 2024, MaxMem=  4026531840 cpu:               0.3 elap:               0.1
 (Enter /sysapps/ubuntu-applications/gaussian/Gaussian/AVX2/g16/l202.exe)
                          Input orientation:                          
 ---------------------------------------------------------------------
 Center     Atomic      Atomic             Coordinates (Angstroms)
 Number     Number       Type             X           Y           Z
 ---------------------------------------------------------------------
      1          6           0       -0.502359    1.167827   -0.363149
      2          6           0       -1.468194    0.139699   -0.799868
      3          6           0       -1.292510   -1.177868   -0.500676
      4          6           0       -0.158908   -1.674287    0.259569
      5          6           0        0.773678   -0.672529    0.695636
      6          6           0        0.630288    0.687291    0.441590
      7          8           0       -0.665303    2.353626   -0.717486
      8          8           0       -0.011135   -2.903703    0.520706
      9          6           0        1.620355    1.635680    1.003273
     10          6           0        3.006830    1.084458    1.371385
     11          8           0        1.400424    2.820550    1.210481
     12          1           0        3.417642    0.439953    0.590425
     13          1           0        2.954137    0.493660    2.291898
     14          1           0        3.668270    1.934003    1.544145
     15          1           0        1.608716   -1.043502    1.279576
     16          6           0       -2.642834    0.625529   -1.605674
     17          1           0       -2.010765   -1.923898   -0.834367
     18          1           0       -3.215227    1.374564   -1.048932
     19          1           0       -3.303908   -0.203570   -1.872998
     20          1           0       -2.308047    1.125176   -2.520564
 ---------------------------------------------------------------------
                    Distance matrix (angstroms):
                    1          2          3          4          5
     1  C    0.000000
     2  C    1.476688   0.000000
     3  C    2.479019   1.362484   0.000000
     4  C    2.929735   2.475314   1.452397   0.000000
     5  C    2.477137   2.814647   2.440423   1.436451   0.000000
     6  C    1.470173   2.498940   2.839689   2.496600   1.390759
     7  O    1.248289   2.356458   3.593306   4.175543   3.636646
     8  O    4.195218   3.623428   2.379842   1.265501   2.371639
     9  C    2.567472   3.876650   4.320034   3.830764   2.477767
    10  C    3.915350   5.062880   5.206444   4.343812   2.920720
    11  O    2.971260   4.411058   5.115398   4.851733   3.586011
    12  H    4.099453   5.088660   5.098370   4.167876   2.870406
    13  H    4.410345   5.407524   5.350373   4.303650   2.943204
    14  H    4.649617   5.924288   6.202771   5.414534   3.986557
    15  H    3.470614   3.897618   3.406533   2.136071   1.084387
    16  C    2.533691   1.505036   2.509310   3.864993   4.318974
    17  H    3.472189   2.134012   1.088026   2.165266   3.414668
    18  H    2.805832   2.153845   3.242273   4.510959   4.810974
    19  H    3.465408   2.153901   2.622641   4.074540   4.841953
    20  H    2.813675   2.153442   3.227270   4.492764   4.803407
                    6          7          8          9         10
     6  C    0.000000
     7  O    2.408046   0.000000
     8  O    3.648688   5.440640   0.000000
     9  C    1.481608   2.949693   4.847745   0.000000
    10  C    2.582675   4.411205   5.073184   1.536771   0.000000
    11  O    2.394806   2.863966   5.935938   1.222793   2.370748
    12  H    2.802262   4.695020   4.789719   2.197828   1.092727
    13  H    2.976812   5.061246   4.844795   2.178013   1.095063
    14  H    3.463994   4.906212   6.163509   2.139041   1.090447
    15  H    2.157588   4.549714   2.580726   2.693417   2.547816
    16  C    3.861144   2.772332   4.889050   5.099195   6.402515
    17  H    3.927026   4.485659   2.606676   5.406713   6.252344
    18  H    4.181146   2.751460   5.570775   5.259523   6.682521
    19  H    4.650683   3.851843   4.884966   5.992006   7.211827
    20  H    4.195225   2.731078   5.545899   5.301923   6.587628
                   11         12         13         14         15
    11  O    0.000000
    12  H    3.181333   0.000000
    13  H    2.999651   1.764294   0.000000
    14  H    2.457727   1.790135   1.773051   0.000000
    15  H    3.870279   2.438807   2.279873   3.630054   0.000000
    16  C    5.394143   6.448772   6.821623   7.173806   5.402408
    17  H    6.190913   6.089780   6.345736   7.265821   4.283047
    18  H    5.338544   6.896082   7.070940   7.376961   5.877025
    19  H    6.386226   7.187615   7.549544   8.053406   5.897295
    20  H    5.527002   6.552198   7.158853   7.272718   5.872415
                   16         17         18         19         20
    16  C    0.000000
    17  H    2.737518   0.000000
    18  H    1.094828   3.518042   0.000000
    19  H    1.093566   2.389666   1.782542   0.000000
    20  H    1.094876   3.496926   1.746674   1.782315   0.000000
 Symmetry turned off by external request.
 Stoichiometry    C9H8O3(1-,2)
 Framework group  C1[X(C9H8O3)]
 Deg. of freedom    54
 Full point group                 C1      NOp   1
 Rotational constants (GHZ):           1.2412569           0.8371305           0.5096090
 Leave Link  202 at Sat Jan  6 05:40:06 2024, MaxMem=  4026531840 cpu:               0.4 elap:               0.1
 (Enter /sysapps/ubuntu-applications/gaussian/Gaussian/AVX2/g16/l301.exe)
 Standard basis: 6-311++G(d,p) (5D, 7F)
 Ernie: Thresh=  0.10000D-02 Tol=  0.10000D-05 Strict=F.
   320 basis functions,   504 primitive gaussians,   332 cartesian basis functions
    44 alpha electrons       43 beta electrons
       nuclear repulsion energy       653.5109958432 Hartrees.
 IExCor=  402 DFT=T Ex+Corr=B3LYP ExCW=0 ScaHFX=  0.200000
 ScaDFX=  0.800000  0.720000  1.000000  0.810000 ScalE2=  1.000000  1.000000
 IRadAn=      5 IRanWt=     -1 IRanGd=            0 ICorTp=0 IEmpDi=  4
 NAtoms=   20 NActive=   20 NUniq=   20 SFac= 1.00D+00 NAtFMM=   60 NAOKFM=F Big=F
 Integral buffers will be    131072 words long.
 Raffenetti 2 integral format.
 Two-electron integral symmetry is turned off.
 Leave Link  301 at Sat Jan  6 05:40:06 2024, MaxMem=  4026531840 cpu:               0.7 elap:               0.1
 (Enter /sysapps/ubuntu-applications/gaussian/Gaussian/AVX2/g16/l302.exe)
 NPDir=0 NMtPBC=     1 NCelOv=     1 NCel=       1 NClECP=     1 NCelD=      1
         NCelK=      1 NCelE2=     1 NClLst=     1 CellRange=     0.0.
 One-electron integrals computed using PRISM.
 NBasis=   320 RedAO= T EigKep=  1.48D-06  NBF=   320
 NBsUse=   320 1.00D-06 EigRej= -1.00D+00 NBFU=   320
 Precomputing XC quadrature grid using
 IXCGrd= 4 IRadAn=           5 IRanWt=          -1 IRanGd=           0 AccXCQ= 0.00D+00.
 Generated NRdTot=       0 NPtTot=           0 NUsed=           0 NTot=          32
 NSgBfM=   332   332   332   332   332 MxSgAt=    20 MxSgA2=    20.
 Leave Link  302 at Sat Jan  6 05:40:06 2024, MaxMem=  4026531840 cpu:               2.4 elap:               0.4
 (Enter /sysapps/ubuntu-applications/gaussian/Gaussian/AVX2/g16/l303.exe)
 DipDrv:  MaxL=1.
 Leave Link  303 at Sat Jan  6 05:40:06 2024, MaxMem=  4026531840 cpu:               0.7 elap:               0.1
 (Enter /sysapps/ubuntu-applications/gaussian/Gaussian/AVX2/g16/l401.exe)
 ExpMin= 3.60D-02 ExpMax= 8.59D+03 ExpMxC= 1.30D+03 IAcc=3 IRadAn=         5 AccDes= 0.00D+00
 Harris functional with IExCor=  402 and IRadAn=       5 diagonalized for initial guess.
 HarFok:  IExCor=  402 AccDes= 0.00D+00 IRadAn=         5 IDoV= 1 UseB2=F ITyADJ=14
 ICtDFT=  3500011 ScaDFX=  1.000000  1.000000  1.000000  1.000000
 FoFCou: FMM=F IPFlag=           0 FMFlag=      100000 FMFlg1=           0
         NFxFlg=           0 DoJE=T BraDBF=F KetDBF=T FulRan=T
         wScrn=  0.000000 ICntrl=       500 IOpCl=  0 I1Cent=   200000004 NGrid=           0
         NMat0=    1 NMatS0=      1 NMatT0=    0 NMatD0=    1 NMtDS0=    0 NMtDT0=    0
 Symmetry not used in FoFCou.
 Harris En= -573.859827672084    
 JPrj=0 DoOrth=F DoCkMO=F.
 Initial guess <Sx>= 0.0000 <Sy>= 0.0000 <Sz>= 0.5000 <S**2>= 0.7500 S= 0.5000
 Leave Link  401 at Sat Jan  6 05:40:07 2024, MaxMem=  4026531840 cpu:               9.0 elap:               1.2
 (Enter /sysapps/ubuntu-applications/gaussian/Gaussian/AVX2/g16/l502.exe)
 Two-electron integral symmetry not used.
 UHF open shell SCF:
 Using DIIS extrapolation, IDIIS=  1040.
 NGot=  4026531840 LenX=  4026306284 LenY=  4026195619
 Requested convergence on RMS density matrix=1.00D-08 within 128 cycles.
 Requested convergence on MAX density matrix=1.00D-06.
 Requested convergence on             energy=1.00D-06.
 No special actions if energy rises.
 Fock matrices will be formed incrementally for  20 cycles.

 Cycle   1  Pass 1  IDiag  1:
 FoFJK:  IHMeth= 1 ICntrl=       0 DoSepK=F KAlg= 0 I1Cent=           0 FoldK=F
 IRaf= 910000000 NMat=       1 IRICut=       1 DoRegI=T DoRafI=F ISym2E= 0 IDoP0=0 IntGTp=1.
 FoFCou: FMM=F IPFlag=           0 FMFlag=      100000 FMFlg1=           0
         NFxFlg=           0 DoJE=F BraDBF=F KetDBF=F FulRan=T
         wScrn=  0.000000 ICntrl=         0 IOpCl=  1 I1Cent=           0 NGrid=           0
         NMat0=    1 NMatS0=      1 NMatT0=    0 NMatD0=    1 NMtDS0=    0 NMtDT0=    0
 Symmetry not used in FoFCou.
 E= -573.249024511279    
 DIIS: error= 3.41D-02 at cycle   1 NSaved=   1.
 NSaved= 1 IEnMin= 1 EnMin= -573.249024511279     IErMin= 1 ErrMin= 3.41D-02
 ErrMax= 3.41D-02  0.00D+00 EMaxC= 1.00D-01 BMatC= 2.01D+00 BMatP= 2.01D+00
 IDIUse=3 WtCom= 6.59D-01 WtEn= 3.41D-01
 Coeff-Com:  0.100D+01
 Coeff-En:   0.100D+01
 Coeff:      0.100D+01
 Gap=     0.077 Goal=   None    Shift=    0.000
 Gap=     0.073 Goal=   None    Shift=    0.000
 GapD=    0.073 DampG=0.500 DampE=0.500 DampFc=0.2500 IDamp=-1.
 Damping current iteration by 2.50D-01
 RMSDP=7.82D-01 MaxDP=7.41D+01              OVMax= 7.95D-01

 Cycle   2  Pass 1  IDiag  1:
 RMSU=  1.89D-01    CP:  1.89D+00
 E= -573.374765379481     Delta-E=       -0.125740868203 Rises=F Damp=T
 DIIS: error= 1.42D-02 at cycle   2 NSaved=   2.
 NSaved= 2 IEnMin= 2 EnMin= -573.374765379481     IErMin= 2 ErrMin= 1.42D-02
 ErrMax= 1.42D-02  0.00D+00 EMaxC= 1.00D-01 BMatC= 3.50D-01 BMatP= 2.01D+00
 IDIUse=3 WtCom= 8.58D-01 WtEn= 1.42D-01
 Coeff-Com: -0.446D+00 0.145D+01
 Coeff-En:   0.000D+00 0.100D+01
 Coeff:     -0.383D+00 0.138D+01
 Gap=    -0.022 Goal=   None    Shift=    0.000
 Gap=     0.179 Goal=   None    Shift=    0.000
 RMSDP=1.95D-01 MaxDP=1.85D+01 DE=-1.26D-01 OVMax= 7.32D-01

 Cycle   3  Pass 1  IDiag  1:
 RMSU=  1.61D-02    CP:  1.01D+00  7.23D-03
 E= -573.575658988828     Delta-E=       -0.200893609347 Rises=F Damp=F
 DIIS: error= 2.44D-02 at cycle   3 NSaved=   3.
 NSaved= 3 IEnMin= 3 EnMin= -573.575658988828     IErMin= 2 ErrMin= 1.42D-02
 ErrMax= 2.44D-02  0.00D+00 EMaxC= 1.00D-01 BMatC= 3.83D-01 BMatP= 3.50D-01
 IDIUse=3 WtCom= 7.56D-01 WtEn= 2.44D-01
 Coeff-Com: -0.386D+00 0.962D+00 0.424D+00
 Coeff-En:   0.000D+00 0.000D+00 0.100D+01
 Coeff:     -0.292D+00 0.727D+00 0.564D+00
 Gap=     0.114 Goal=   None    Shift=    0.000
 Gap=     0.129 Goal=   None    Shift=    0.000
 RMSDP=1.49D-02 MaxDP=2.28D+00 DE=-2.01D-01 OVMax= 1.43D-01

 Cycle   4  Pass 1  IDiag  1:
 RMSU=  9.50D-03    CP:  1.20D+00  5.52D-03  1.18D+00
 E= -573.630307754036     Delta-E=       -0.054648765208 Rises=F Damp=F
 DIIS: error= 1.58D-02 at cycle   4 NSaved=   4.
 NSaved= 4 IEnMin= 4 EnMin= -573.630307754036     IErMin= 2 ErrMin= 1.42D-02
 ErrMax= 1.58D-02  0.00D+00 EMaxC= 1.00D-01 BMatC= 1.41D-01 BMatP= 3.50D-01
 IDIUse=3 WtCom= 8.42D-01 WtEn= 1.58D-01
 Coeff-Com: -0.539D-01 0.138D+00 0.375D+00 0.541D+00
 Coeff-En:   0.000D+00 0.000D+00 0.308D+00 0.692D+00
 Coeff:     -0.454D-01 0.116D+00 0.365D+00 0.565D+00
 Gap=     0.107 Goal=   None    Shift=    0.000
 Gap=     0.126 Goal=   None    Shift=    0.000
 RMSDP=7.29D-03 MaxDP=7.49D-01 DE=-5.46D-02 OVMax= 5.46D-02

 Cycle   5  Pass 1  IDiag  1:
 RMSU=  5.04D-03    CP:  1.12D+00  5.43D-03  1.12D+00  8.83D-01
 E= -573.659650696543     Delta-E=       -0.029342942507 Rises=F Damp=F
 DIIS: error= 3.09D-03 at cycle   5 NSaved=   5.
 NSaved= 5 IEnMin= 5 EnMin= -573.659650696543     IErMin= 5 ErrMin= 3.09D-03
 ErrMax= 3.09D-03  0.00D+00 EMaxC= 1.00D-01 BMatC= 3.42D-03 BMatP= 1.41D-01
 IDIUse=3 WtCom= 9.69D-01 WtEn= 3.09D-02
 Coeff-Com: -0.190D-01 0.412D-01 0.156D+00 0.277D+00 0.545D+00
 Coeff-En:   0.000D+00 0.000D+00 0.000D+00 0.000D+00 0.100D+01
 Coeff:     -0.184D-01 0.400D-01 0.151D+00 0.269D+00 0.559D+00
 Gap=     0.109 Goal=   None    Shift=    0.000
 Gap=     0.123 Goal=   None    Shift=    0.000
 RMSDP=1.05D-03 MaxDP=8.50D-02 DE=-2.93D-02 OVMax= 1.25D-02

 Cycle   6  Pass 1  IDiag  1:
 RMSU=  8.42D-04    CP:  1.12D+00  5.20D-03  1.11D+00  8.63D-01  8.85D-01
 E= -573.660446922066     Delta-E=       -0.000796225523 Rises=F Damp=F
 DIIS: error= 7.47D-04 at cycle   6 NSaved=   6.
 NSaved= 6 IEnMin= 6 EnMin= -573.660446922066     IErMin= 6 ErrMin= 7.47D-04
 ErrMax= 7.47D-04  0.00D+00 EMaxC= 1.00D-01 BMatC= 5.74D-04 BMatP= 3.42D-03
 IDIUse=3 WtCom= 9.93D-01 WtEn= 7.47D-03
 Coeff-Com:  0.117D-02-0.315D-02 0.762D-02 0.257D-01 0.303D+00 0.666D+00
 Coeff-En:   0.000D+00 0.000D+00 0.000D+00 0.000D+00 0.841D-01 0.916D+00
 Coeff:      0.116D-02-0.313D-02 0.756D-02 0.255D-01 0.301D+00 0.668D+00
 Gap=     0.109 Goal=   None    Shift=    0.000
 Gap=     0.124 Goal=   None    Shift=    0.000
 RMSDP=5.85D-04 MaxDP=6.59D-02 DE=-7.96D-04 OVMax= 4.80D-03

 Cycle   7  Pass 1  IDiag  1:
 RMSU=  4.27D-04    CP:  1.11D+00  5.33D-03  1.10D+00  8.59D-01  9.48D-01
                    CP:  9.03D-01
 E= -573.660597106221     Delta-E=       -0.000150184155 Rises=F Damp=F
 DIIS: error= 2.67D-04 at cycle   7 NSaved=   7.
 NSaved= 7 IEnMin= 7 EnMin= -573.660597106221     IErMin= 7 ErrMin= 2.67D-04
 ErrMax= 2.67D-04  0.00D+00 EMaxC= 1.00D-01 BMatC= 9.64D-05 BMatP= 5.74D-04
 IDIUse=3 WtCom= 9.97D-01 WtEn= 2.67D-03
 Coeff-Com:  0.524D-02-0.109D-01-0.138D-01-0.187D-01 0.103D+00 0.350D+00
 Coeff-Com:  0.586D+00
 Coeff-En:   0.000D+00 0.000D+00 0.000D+00 0.000D+00 0.000D+00 0.000D+00
 Coeff-En:   0.100D+01
 Coeff:      0.523D-02-0.109D-01-0.138D-01-0.186D-01 0.103D+00 0.349D+00
 Coeff:      0.587D+00
 Gap=     0.109 Goal=   None    Shift=    0.000
 Gap=     0.124 Goal=   None    Shift=    0.000
 RMSDP=1.57D-04 MaxDP=1.23D-02 DE=-1.50D-04 OVMax= 2.74D-03

 Cycle   8  Pass 1  IDiag  1:
 RMSU=  1.17D-04    CP:  1.11D+00  5.34D-03  1.10D+00  8.55D-01  9.53D-01
                    CP:  9.54D-01  9.55D-01
 E= -573.660624259750     Delta-E=       -0.000027153529 Rises=F Damp=F
 DIIS: error= 1.87D-04 at cycle   8 NSaved=   8.
 NSaved= 8 IEnMin= 8 EnMin= -573.660624259750     IErMin= 8 ErrMin= 1.87D-04
 ErrMax= 1.87D-04  0.00D+00 EMaxC= 1.00D-01 BMatC= 3.22D-05 BMatP= 9.64D-05
 IDIUse=3 WtCom= 9.98D-01 WtEn= 1.87D-03
 Coeff-Com:  0.104D-02-0.847D-03-0.764D-02-0.209D-01-0.685D-01-0.105D+00
 Coeff-Com:  0.374D+00 0.828D+00
 Coeff-En:   0.000D+00 0.000D+00 0.000D+00 0.000D+00 0.000D+00 0.000D+00
 Coeff-En:   0.000D+00 0.100D+01
 Coeff:      0.104D-02-0.845D-03-0.762D-02-0.208D-01-0.684D-01-0.105D+00
 Coeff:      0.373D+00 0.828D+00
 Gap=     0.110 Goal=   None    Shift=    0.000
 Gap=     0.124 Goal=   None    Shift=    0.000
 RMSDP=2.14D-04 MaxDP=2.69D-02 DE=-2.72D-05 OVMax= 2.05D-03

 Cycle   9  Pass 1  IDiag  1:
 RMSU=  1.42D-04    CP:  1.11D+00  5.32D-03  1.10D+00  8.56D-01  9.70D-01
                    CP:  9.79D-01  1.09D+00  5.43D-01
 E= -573.660635275545     Delta-E=       -0.000011015795 Rises=F Damp=F
 DIIS: error= 1.89D-04 at cycle   9 NSaved=   9.
 NSaved= 9 IEnMin= 9 EnMin= -573.660635275545     IErMin= 8 ErrMin= 1.87D-04
 ErrMax= 1.89D-04  0.00D+00 EMaxC= 1.00D-01 BMatC= 8.67D-06 BMatP= 3.22D-05
 IDIUse=3 WtCom= 9.98D-01 WtEn= 1.87D-03
 Coeff-Com: -0.473D-03 0.163D-02-0.213D-02-0.946D-02-0.581D-01-0.128D+00
 Coeff-Com:  0.122D+00 0.527D+00 0.548D+00
 Coeff-En:   0.000D+00 0.000D+00 0.000D+00 0.000D+00 0.000D+00 0.000D+00
 Coeff-En:   0.000D+00 0.000D+00 0.100D+01
 Coeff:     -0.473D-03 0.163D-02-0.213D-02-0.944D-02-0.580D-01-0.127D+00
 Coeff:      0.121D+00 0.526D+00 0.549D+00
 Gap=     0.110 Goal=   None    Shift=    0.000
 Gap=     0.125 Goal=   None    Shift=    0.000
 RMSDP=7.57D-05 MaxDP=1.00D-02 DE=-1.10D-05 OVMax= 1.53D-03

 Cycle  10  Pass 1  IDiag  1:
 RMSU=  4.04D-05    CP:  1.11D+00  5.32D-03  1.10D+00  8.52D-01  9.63D-01
                    CP:  9.58D-01  1.08D+00  6.83D-01  8.20D-01
 E= -573.660637659566     Delta-E=       -0.000002384020 Rises=F Damp=F
 DIIS: error= 8.23D-05 at cycle  10 NSaved=  10.
 NSaved=10 IEnMin=10 EnMin= -573.660637659566     IErMin=10 ErrMin= 8.23D-05
 ErrMax= 8.23D-05  0.00D+00 EMaxC= 1.00D-01 BMatC= 1.95D-06 BMatP= 8.67D-06
 IDIUse=1 WtCom= 1.00D+00 WtEn= 0.00D+00
 Coeff-Com: -0.632D-03 0.119D-02 0.193D-04-0.172D-02-0.222D-01-0.624D-01
 Coeff-Com: -0.133D-01 0.148D+00 0.355D+00 0.596D+00
 Coeff:     -0.632D-03 0.119D-02 0.193D-04-0.172D-02-0.222D-01-0.624D-01
 Coeff:     -0.133D-01 0.148D+00 0.355D+00 0.596D+00
 Gap=     0.110 Goal=   None    Shift=    0.000
 Gap=     0.124 Goal=   None    Shift=    0.000
 RMSDP=3.11D-05 MaxDP=2.58D-03 DE=-2.38D-06 OVMax= 4.56D-04

 Cycle  11  Pass 1  IDiag  1:
 RMSU=  1.78D-05    CP:  1.11D+00  5.30D-03  1.10D+00  8.53D-01  9.65D-01
                    CP:  9.52D-01  1.09D+00  6.52D-01  9.61D-01  9.13D-01
 E= -573.660638140991     Delta-E=       -0.000000481425 Rises=F Damp=F
 DIIS: error= 4.67D-05 at cycle  11 NSaved=  11.
 NSaved=11 IEnMin=11 EnMin= -573.660638140991     IErMin=11 ErrMin= 4.67D-05
 ErrMax= 4.67D-05  0.00D+00 EMaxC= 1.00D-01 BMatC= 4.84D-07 BMatP= 1.95D-06
 IDIUse=1 WtCom= 1.00D+00 WtEn= 0.00D+00
 Coeff-Com: -0.395D-03 0.592D-03 0.233D-03 0.129D-03-0.602D-02-0.225D-01
 Coeff-Com: -0.276D-01 0.232D-01 0.161D+00 0.408D+00 0.463D+00
 Coeff:     -0.395D-03 0.592D-03 0.233D-03 0.129D-03-0.602D-02-0.225D-01
 Coeff:     -0.276D-01 0.232D-01 0.161D+00 0.408D+00 0.463D+00
 Gap=     0.110 Goal=   None    Shift=    0.000
 Gap=     0.125 Goal=   None    Shift=    0.000
 RMSDP=9.80D-06 MaxDP=1.16D-03 DE=-4.81D-07 OVMax= 2.75D-04

 Cycle  12  Pass 1  IDiag  1:
 RMSU=  6.49D-06    CP:  1.11D+00  5.30D-03  1.10D+00  8.53D-01  9.64D-01
                    CP:  9.53D-01  1.09D+00  6.70D-01  9.63D-01  9.84D-01
                    CP:  7.27D-01
 E= -573.660638277282     Delta-E=       -0.000000136291 Rises=F Damp=F
 DIIS: error= 7.54D-06 at cycle  12 NSaved=  12.
 NSaved=12 IEnMin=12 EnMin= -573.660638277282     IErMin=12 ErrMin= 7.54D-06
 ErrMax= 7.54D-06  0.00D+00 EMaxC= 1.00D-01 BMatC= 3.24D-08 BMatP= 4.84D-07
 IDIUse=1 WtCom= 1.00D+00 WtEn= 0.00D+00
 Coeff-Com: -0.106D-03 0.125D-03 0.502D-04 0.240D-03 0.327D-03-0.160D-02
 Coeff-Com: -0.104D-01-0.114D-01 0.250D-01 0.952D-01 0.226D+00 0.676D+00
 Coeff:     -0.106D-03 0.125D-03 0.502D-04 0.240D-03 0.327D-03-0.160D-02
 Coeff:     -0.104D-01-0.114D-01 0.250D-01 0.952D-01 0.226D+00 0.676D+00
 Gap=     0.110 Goal=   None    Shift=    0.000
 Gap=     0.125 Goal=   None    Shift=    0.000
 RMSDP=5.60D-06 MaxDP=6.03D-04 DE=-1.36D-07 OVMax= 5.17D-05

 Cycle  13  Pass 1  IDiag  1:
 RMSU=  3.37D-06    CP:  1.11D+00  5.30D-03  1.10D+00  8.53D-01  9.64D-01
                    CP:  9.53D-01  1.08D+00  6.58D-01  9.77D-01  1.02D+00
                    CP:  8.23D-01  9.23D-01
 E= -573.660638284714     Delta-E=       -0.000000007432 Rises=F Damp=F
 DIIS: error= 3.47D-06 at cycle  13 NSaved=  13.
 NSaved=13 IEnMin=13 EnMin= -573.660638284714     IErMin=13 ErrMin= 3.47D-06
 ErrMax= 3.47D-06  0.00D+00 EMaxC= 1.00D-01 BMatC= 1.49D-08 BMatP= 3.24D-08
 IDIUse=1 WtCom= 1.00D+00 WtEn= 0.00D+00
 Coeff-Com:  0.103D-04-0.286D-04-0.313D-04 0.955D-04 0.135D-02 0.346D-02
 Coeff-Com: -0.942D-03-0.127D-01-0.171D-01-0.255D-01 0.612D-01 0.467D+00
 Coeff-Com:  0.523D+00
 Coeff:      0.103D-04-0.286D-04-0.313D-04 0.955D-04 0.135D-02 0.346D-02
 Coeff:     -0.942D-03-0.127D-01-0.171D-01-0.255D-01 0.612D-01 0.467D+00
 Coeff:      0.523D+00
 Gap=     0.110 Goal=   None    Shift=    0.000
 Gap=     0.125 Goal=   None    Shift=    0.000
 RMSDP=2.27D-06 MaxDP=2.77D-04 DE=-7.43D-09 OVMax= 3.89D-05

 Cycle  14  Pass 1  IDiag  1:
 RMSU=  1.21D-06    CP:  1.11D+00  5.30D-03  1.10D+00  8.53D-01  9.64D-01
                    CP:  9.53D-01  1.08D+00  6.56D-01  9.82D-01  1.03D+00
                    CP:  8.02D-01  1.01D+00  8.24D-01
 E= -573.660638288249     Delta-E=       -0.000000003536 Rises=F Damp=F
 DIIS: error= 1.26D-06 at cycle  14 NSaved=  14.
 NSaved=14 IEnMin=14 EnMin= -573.660638288249     IErMin=14 ErrMin= 1.26D-06
 ErrMax= 1.26D-06  0.00D+00 EMaxC= 1.00D-01 BMatC= 1.32D-09 BMatP= 1.49D-08
 IDIUse=1 WtCom= 1.00D+00 WtEn= 0.00D+00
 Coeff-Com:  0.253D-04-0.368D-04-0.133D-04 0.250D-04 0.581D-03 0.185D-02
 Coeff-Com:  0.111D-02-0.445D-02-0.118D-01-0.255D-01-0.205D-02 0.108D+00
 Coeff-Com:  0.249D+00 0.683D+00
 Coeff:      0.253D-04-0.368D-04-0.133D-04 0.250D-04 0.581D-03 0.185D-02
 Coeff:      0.111D-02-0.445D-02-0.118D-01-0.255D-01-0.205D-02 0.108D+00
 Coeff:      0.249D+00 0.683D+00
 Gap=     0.110 Goal=   None    Shift=    0.000
 Gap=     0.125 Goal=   None    Shift=    0.000
 RMSDP=8.47D-07 MaxDP=8.46D-05 DE=-3.54D-09 OVMax= 1.60D-05

 Cycle  15  Pass 1  IDiag  1:
 RMSU=  4.90D-07    CP:  1.11D+00  5.30D-03  1.10D+00  8.53D-01  9.64D-01
                    CP:  9.53D-01  1.08D+00  6.55D-01  9.83D-01  1.03D+00
                    CP:  8.21D-01  1.00D+00  9.41D-01  1.10D+00
 E= -573.660638288688     Delta-E=       -0.000000000439 Rises=F Damp=F
 DIIS: error= 9.37D-07 at cycle  15 NSaved=  15.
 NSaved=15 IEnMin=15 EnMin= -573.660638288688     IErMin=15 ErrMin= 9.37D-07
 ErrMax= 9.37D-07  0.00D+00 EMaxC= 1.00D-01 BMatC= 4.91D-10 BMatP= 1.32D-09
 IDIUse=1 WtCom= 1.00D+00 WtEn= 0.00D+00
 Coeff-Com:  0.145D-04-0.177D-04 0.366D-05-0.180D-05 0.210D-04 0.289D-03
 Coeff-Com:  0.922D-03 0.502D-03-0.284D-02-0.846D-02-0.156D-01-0.670D-01
 Coeff-Com:  0.910D-02 0.428D+00 0.655D+00
 Coeff:      0.145D-04-0.177D-04 0.366D-05-0.180D-05 0.210D-04 0.289D-03
 Coeff:      0.922D-03 0.502D-03-0.284D-02-0.846D-02-0.156D-01-0.670D-01
 Coeff:      0.910D-02 0.428D+00 0.655D+00
 Gap=     0.110 Goal=   None    Shift=    0.000
 Gap=     0.125 Goal=   None    Shift=    0.000
 RMSDP=4.87D-07 MaxDP=8.84D-05 DE=-4.39D-10 OVMax= 1.08D-05

 Cycle  16  Pass 1  IDiag  1:
 RMSU=  3.10D-07    CP:  1.11D+00  5.30D-03  1.10D+00  8.53D-01  9.64D-01
                    CP:  9.53D-01  1.08D+00  6.54D-01  9.84D-01  1.03D+00
                    CP:  8.21D-01  1.01D+00  9.63D-01  1.18D+00  9.98D-01
 E= -573.660638288922     Delta-E=       -0.000000000234 Rises=F Damp=F
 DIIS: error= 3.21D-07 at cycle  16 NSaved=  16.
 NSaved=16 IEnMin=16 EnMin= -573.660638288922     IErMin=16 ErrMin= 3.21D-07
 ErrMax= 3.21D-07  0.00D+00 EMaxC= 1.00D-01 BMatC= 6.11D-11 BMatP= 4.91D-10
 IDIUse=1 WtCom= 1.00D+00 WtEn= 0.00D+00
 Coeff-Com:  0.859D-06-0.215D-05 0.461D-05 0.234D-06-0.831D-04-0.184D-03
 Coeff-Com:  0.606D-04 0.909D-03 0.113D-02 0.226D-02-0.379D-02-0.479D-01
 Coeff-Com: -0.499D-01-0.502D-02 0.232D+00 0.870D+00
 Coeff:      0.859D-06-0.215D-05 0.461D-05 0.234D-06-0.831D-04-0.184D-03
 Coeff:      0.606D-04 0.909D-03 0.113D-02 0.226D-02-0.379D-02-0.479D-01
 Coeff:     -0.499D-01-0.502D-02 0.232D+00 0.870D+00
 Gap=     0.110 Goal=   None    Shift=    0.000
 Gap=     0.125 Goal=   None    Shift=    0.000
 RMSDP=2.59D-07 MaxDP=3.17D-05 DE=-2.34D-10 OVMax= 6.32D-06

 Cycle  17  Pass 1  IDiag  1:
 RMSU=  1.59D-07    CP:  1.11D+00  5.30D-03  1.10D+00  8.53D-01  9.64D-01
                    CP:  9.53D-01  1.08D+00  6.54D-01  9.85D-01  1.03D+00
                    CP:  8.22D-01  1.01D+00  9.97D-01  1.19D+00  1.10D+00
                    CP:  1.12D+00
 E= -573.660638288966     Delta-E=       -0.000000000044 Rises=F Damp=F
 DIIS: error= 1.89D-07 at cycle  17 NSaved=  17.
 NSaved=17 IEnMin=17 EnMin= -573.660638288966     IErMin=17 ErrMin= 1.89D-07
 ErrMax= 1.89D-07  0.00D+00 EMaxC= 1.00D-01 BMatC= 1.84D-11 BMatP= 6.11D-11
 IDIUse=1 WtCom= 1.00D+00 WtEn= 0.00D+00
 Coeff-Com: -0.407D-05 0.545D-05 0.161D-05-0.172D-05-0.608D-04-0.186D-03
 Coeff-Com: -0.148D-03 0.447D-03 0.133D-02 0.301D-02 0.179D-02-0.109D-01
 Coeff-Com: -0.292D-01-0.101D+00-0.414D-01 0.413D+00 0.763D+00
 Coeff:     -0.407D-05 0.545D-05 0.161D-05-0.172D-05-0.608D-04-0.186D-03
 Coeff:     -0.148D-03 0.447D-03 0.133D-02 0.301D-02 0.179D-02-0.109D-01
 Coeff:     -0.292D-01-0.101D+00-0.414D-01 0.413D+00 0.763D+00
 Gap=     0.110 Goal=   None    Shift=    0.000
 Gap=     0.125 Goal=   None    Shift=    0.000
 RMSDP=1.62D-07 MaxDP=1.36D-05 DE=-4.41D-11 OVMax= 3.42D-06

 Cycle  18  Pass 1  IDiag  1:
 RMSU=  8.49D-08    CP:  1.11D+00  5.30D-03  1.10D+00  8.53D-01  9.64D-01
                    CP:  9.53D-01  1.08D+00  6.53D-01  9.85D-01  1.03D+00
                    CP:  8.21D-01  1.00D+00  1.00D+00  1.23D+00  1.20D+00
                    CP:  1.20D+00  9.49D-01
 E= -573.660638288985     Delta-E=       -0.000000000019 Rises=F Damp=F
 DIIS: error= 7.96D-08 at cycle  18 NSaved=  18.
 NSaved=18 IEnMin=18 EnMin= -573.660638288985     IErMin=18 ErrMin= 7.96D-08
 ErrMax= 7.96D-08  0.00D+00 EMaxC= 1.00D-01 BMatC= 4.89D-12 BMatP= 1.84D-11
 IDIUse=1 WtCom= 1.00D+00 WtEn= 0.00D+00
 Coeff-Com: -0.197D-05 0.288D-05-0.155D-05-0.264D-05-0.525D-05-0.355D-04
 Coeff-Com: -0.700D-04-0.465D-04 0.278D-03 0.459D-03 0.214D-02 0.848D-02
 Coeff-Com:  0.236D-02-0.340D-01-0.733D-01-0.660D-01 0.355D+00 0.805D+00
 Coeff:     -0.197D-05 0.288D-05-0.155D-05-0.264D-05-0.525D-05-0.355D-04
 Coeff:     -0.700D-04-0.465D-04 0.278D-03 0.459D-03 0.214D-02 0.848D-02
 Coeff:      0.236D-02-0.340D-01-0.733D-01-0.660D-01 0.355D+00 0.805D+00
 Gap=     0.110 Goal=   None    Shift=    0.000
 Gap=     0.125 Goal=   None    Shift=    0.000
 RMSDP=8.02D-08 MaxDP=6.01D-06 DE=-1.86D-11 OVMax= 1.55D-06

 Cycle  19  Pass 1  IDiag  1:
 RMSU=  4.44D-08    CP:  1.11D+00  5.30D-03  1.10D+00  8.53D-01  9.64D-01
                    CP:  9.53D-01  1.08D+00  6.53D-01  9.85D-01  1.03D+00
                    CP:  8.23D-01  1.01D+00  1.00D+00  1.21D+00  1.20D+00
                    CP:  1.30D+00  1.05D+00  1.05D+00
 E= -573.660638288985     Delta-E=        0.000000000000 Rises=F Damp=F
 DIIS: error= 5.43D-08 at cycle  19 NSaved=  19.
 NSaved=19 IEnMin=18 EnMin= -573.660638288985     IErMin=19 ErrMin= 5.43D-08
 ErrMax= 5.43D-08  0.00D+00 EMaxC= 1.00D-01 BMatC= 1.15D-12 BMatP= 4.89D-12
 IDIUse=1 WtCom= 1.00D+00 WtEn= 0.00D+00
 Coeff-Com: -0.267D-06 0.455D-06-0.898D-06-0.846D-06 0.843D-05 0.973D-05
 Coeff-Com: -0.107D-04-0.961D-04-0.815D-04-0.370D-03 0.733D-03 0.588D-02
 Coeff-Com:  0.536D-02-0.335D-02-0.339D-01-0.112D+00 0.630D-01 0.416D+00
 Coeff-Com:  0.658D+00
 Coeff:     -0.267D-06 0.455D-06-0.898D-06-0.846D-06 0.843D-05 0.973D-05
 Coeff:     -0.107D-04-0.961D-04-0.815D-04-0.370D-03 0.733D-03 0.588D-02
 Coeff:      0.536D-02-0.335D-02-0.339D-01-0.112D+00 0.630D-01 0.416D+00
 Coeff:      0.658D+00
 Gap=     0.110 Goal=   None    Shift=    0.000
 Gap=     0.125 Goal=   None    Shift=    0.000
 RMSDP=3.11D-08 MaxDP=3.47D-06 DE= 4.55D-13 OVMax= 8.07D-07

 Cycle  20  Pass 1  IDiag  1:
 RMSU=  1.58D-08    CP:  1.11D+00  5.30D-03  1.10D+00  8.53D-01  9.64D-01
                    CP:  9.53D-01  1.08D+00  6.53D-01  9.85D-01  1.03D+00
                    CP:  8.23D-01  1.01D+00  1.00D+00  1.21D+00  1.20D+00
                    CP:  1.31D+00  1.13D+00  1.10D+00  9.64D-01
 E= -573.660638288984     Delta-E=        0.000000000001 Rises=F Damp=F
 DIIS: error= 1.35D-08 at cycle  20 NSaved=  20.
 NSaved=20 IEnMin=18 EnMin= -573.660638288985     IErMin=20 ErrMin= 1.35D-08
 ErrMax= 1.35D-08  0.00D+00 EMaxC= 1.00D-01 BMatC= 3.10D-13 BMatP= 1.15D-12
 IDIUse=1 WtCom= 1.00D+00 WtEn= 0.00D+00
 Coeff-Com:  0.262D-06-0.248D-06 0.501D-07 0.579D-07 0.416D-05 0.744D-05
 Coeff-Com:  0.816D-05-0.282D-04-0.688D-04-0.251D-03-0.753D-04 0.915D-03
 Coeff-Com:  0.212D-02 0.708D-02 0.359D-02-0.359D-01-0.571D-01-0.239D-01
 Coeff-Com:  0.349D+00 0.755D+00
 Coeff:      0.262D-06-0.248D-06 0.501D-07 0.579D-07 0.416D-05 0.744D-05
 Coeff:      0.816D-05-0.282D-04-0.688D-04-0.251D-03-0.753D-04 0.915D-03
 Coeff:      0.212D-02 0.708D-02 0.359D-02-0.359D-01-0.571D-01-0.239D-01
 Coeff:      0.349D+00 0.755D+00
 Gap=     0.110 Goal=   None    Shift=    0.000
 Gap=     0.125 Goal=   None    Shift=    0.000
 RMSDP=1.65D-08 MaxDP=2.11D-06 DE= 9.09D-13 OVMax= 3.13D-07

 Cycle  21  Pass 1  IDiag  1:
 Restarting incremental Fock formation.
 E= -573.660638288979     Delta-E=        0.000000000005 Rises=F Damp=F
 DIIS: error= 5.88D-09 at cycle  21 NSaved=  20.
 NSaved=20 IEnMin=17 EnMin= -573.660638288985     IErMin=20 ErrMin= 5.88D-09
 ErrMax= 5.88D-09  0.00D+00 EMaxC= 1.00D-01 BMatC= 3.09D-14 BMatP= 3.10D-13
 IDIUse=1 WtCom= 1.00D+00 WtEn= 0.00D+00
 Coeff-Com:  0.132D-07 0.375D-06 0.493D-06-0.428D-06-0.226D-05-0.263D-05
 Coeff-Com:  0.380D-05 0.330D-04 0.533D-04-0.350D-04-0.782D-03-0.684D-03
 Coeff-Com: -0.213D-03 0.503D-02 0.147D-01-0.167D-01-0.785D-01-0.178D-01
 Coeff-Com:  0.119D+00 0.976D+00
 Coeff:      0.132D-07 0.375D-06 0.493D-06-0.428D-06-0.226D-05-0.263D-05
 Coeff:      0.380D-05 0.330D-04 0.533D-04-0.350D-04-0.782D-03-0.684D-03
 Coeff:     -0.213D-03 0.503D-02 0.147D-01-0.167D-01-0.785D-01-0.178D-01
 Coeff:      0.119D+00 0.976D+00
 Gap=     0.110 Goal=   None    Shift=    0.000
 Gap=     0.125 Goal=   None    Shift=    0.000
 RMSDP=8.21D-09 MaxDP=9.93D-07 DE= 4.77D-12 OVMax= 1.48D-07

 SCF Done:  E(UB3LYP) =  -573.660638289     A.U. after   21 cycles
            NFock= 21  Conv=0.82D-08     -V/T= 2.0040
 <Sx>= 0.0000 <Sy>= 0.0000 <Sz>= 0.5000 <S**2>= 0.7606 S= 0.5053
 <L.S>=  0.00000000000    
 KE= 5.714012537958D+02 PE=-2.661878822807D+03 EE= 8.633059348792D+02
 Annihilation of the first spin contaminant:
 S**2 before annihilation     0.7606,   after     0.7501
 Leave Link  502 at Sat Jan  6 05:41:33 2024, MaxMem=  4026531840 cpu:             684.8 elap:              85.9
 (Enter /sysapps/ubuntu-applications/gaussian/Gaussian/AVX2/g16/l601.exe)
 Copying SCF densities to generalized density rwf, IOpCl= 1 IROHF=0.

 **********************************************************************

            Population analysis using the SCF density.

 **********************************************************************

 Alpha  occ. eigenvalues --  -18.97190 -18.94379 -18.94356 -10.12696 -10.09600
 Alpha  occ. eigenvalues --  -10.08769 -10.05467 -10.05077 -10.04631 -10.04400
 Alpha  occ. eigenvalues --  -10.04114 -10.03801  -0.90488  -0.87049  -0.86280
 Alpha  occ. eigenvalues --   -0.70233  -0.65798  -0.61424  -0.57766  -0.54242
 Alpha  occ. eigenvalues --   -0.49168  -0.43542  -0.39774  -0.35774  -0.34582
 Alpha  occ. eigenvalues --   -0.32963  -0.32258  -0.30380  -0.29757  -0.29355
 Alpha  occ. eigenvalues --   -0.27422  -0.26913  -0.26563  -0.26226  -0.24412
 Alpha  occ. eigenvalues --   -0.23964  -0.23377  -0.22370  -0.14993  -0.13241
 Alpha  occ. eigenvalues --   -0.12934  -0.10765  -0.09134  -0.03220
 Alpha virt. eigenvalues --    0.07755   0.08873   0.09167   0.11514   0.11958
 Alpha virt. eigenvalues --    0.12308   0.13253   0.13458   0.14619   0.15119
 Alpha virt. eigenvalues --    0.15238   0.16760   0.17209   0.17630   0.18762
 Alpha virt. eigenvalues --    0.19095   0.19453   0.19682   0.20507   0.21001
 Alpha virt. eigenvalues --    0.21148   0.21453   0.22702   0.22927   0.23530
 Alpha virt. eigenvalues --    0.23930   0.24403   0.24786   0.25509   0.25636
 Alpha virt. eigenvalues --    0.26412   0.26724   0.26947   0.27408   0.27735
 Alpha virt. eigenvalues --    0.27851   0.28920   0.29606   0.30400   0.30814
 Alpha virt. eigenvalues --    0.31595   0.32409   0.32627   0.33335   0.34097
 Alpha virt. eigenvalues --    0.34490   0.35260   0.36765   0.37278   0.37408
 Alpha virt. eigenvalues --    0.37930   0.38941   0.39717   0.40366   0.40495
 Alpha virt. eigenvalues --    0.41822   0.42275   0.42431   0.42731   0.43218
 Alpha virt. eigenvalues --    0.44189   0.44242   0.44903   0.45757   0.46335
 Alpha virt. eigenvalues --    0.47636   0.48292   0.48850   0.49862   0.50158
 Alpha virt. eigenvalues --    0.51782   0.52684   0.53293   0.54821   0.55999
 Alpha virt. eigenvalues --    0.56913   0.57545   0.59700   0.59891   0.61695
 Alpha virt. eigenvalues --    0.63246   0.66754   0.66986   0.68699   0.68873
 Alpha virt. eigenvalues --    0.70245   0.71139   0.72521   0.73656   0.74392
 Alpha virt. eigenvalues --    0.74687   0.75925   0.77420   0.77787   0.78298
 Alpha virt. eigenvalues --    0.78708   0.79847   0.81249   0.81293   0.83834
 Alpha virt. eigenvalues --    0.84423   0.85497   0.85971   0.87314   0.88971
 Alpha virt. eigenvalues --    0.91593   0.92934   0.93672   0.94364   0.96724
 Alpha virt. eigenvalues --    0.99994   1.01957   1.03724   1.04765   1.06115
 Alpha virt. eigenvalues --    1.06434   1.06616   1.08710   1.11477   1.12737
 Alpha virt. eigenvalues --    1.13635   1.15419   1.17862   1.19528   1.22333
 Alpha virt. eigenvalues --    1.25395   1.26643   1.27816   1.29209   1.31660
 Alpha virt. eigenvalues --    1.32760   1.35393   1.36333   1.37478   1.38047
 Alpha virt. eigenvalues --    1.38426   1.40789   1.43026   1.45660   1.46999
 Alpha virt. eigenvalues --    1.48363   1.50317   1.52994   1.56869   1.57849
 Alpha virt. eigenvalues --    1.58150   1.60876   1.62304   1.64567   1.65744
 Alpha virt. eigenvalues --    1.66282   1.68887   1.69050   1.70166   1.72158
 Alpha virt. eigenvalues --    1.73243   1.73753   1.76295   1.78212   1.81144
 Alpha virt. eigenvalues --    1.82117   1.82888   1.86818   1.88641   1.90334
 Alpha virt. eigenvalues --    1.91589   1.93044   1.95381   1.95992   1.97878
 Alpha virt. eigenvalues --    1.99640   2.02639   2.03811   2.05327   2.06847
 Alpha virt. eigenvalues --    2.07961   2.09902   2.14442   2.15824   2.19400
 Alpha virt. eigenvalues --    2.20946   2.22140   2.24939   2.28837   2.30872
 Alpha virt. eigenvalues --    2.32665   2.34110   2.37959   2.39727   2.41225
 Alpha virt. eigenvalues --    2.47248   2.47715   2.53277   2.58819   2.59736
 Alpha virt. eigenvalues --    2.63613   2.65520   2.66264   2.66441   2.67849
 Alpha virt. eigenvalues --    2.68832   2.70183   2.75541   2.77725   2.79500
 Alpha virt. eigenvalues --    2.80638   2.82434   2.84989   2.87115   2.90649
 Alpha virt. eigenvalues --    2.91443   2.93048   2.97863   2.99002   3.00074
 Alpha virt. eigenvalues --    3.01986   3.03743   3.04875   3.06506   3.08337
 Alpha virt. eigenvalues --    3.09235   3.13436   3.14406   3.18154   3.20204
 Alpha virt. eigenvalues --    3.24322   3.26911   3.32346   3.34374   3.36269
 Alpha virt. eigenvalues --    3.40375   3.43755   3.46382   3.49029   3.50216
 Alpha virt. eigenvalues --    3.55163   3.61794   3.65206   3.66898   3.74338
 Alpha virt. eigenvalues --    3.79752   3.83670   3.86747   3.89677   3.90175
 Alpha virt. eigenvalues --    3.95408   3.99411   4.01543   4.24962   4.26382
 Alpha virt. eigenvalues --    4.30285   4.38206   4.45946   4.49897   4.90451
 Alpha virt. eigenvalues --    5.20752   5.20991   5.23359   5.34722   5.38180
 Alpha virt. eigenvalues --    5.43853   5.83854   5.88959   5.95184  23.78068
 Alpha virt. eigenvalues --   23.95467  23.98477  24.04211  24.07963  24.09637
 Alpha virt. eigenvalues --   24.09993  24.22348  24.30889  50.13180  50.16767
 Alpha virt. eigenvalues --   50.21199
  Beta  occ. eigenvalues --  -18.97083 -18.93764 -18.93586 -10.12690 -10.09550
  Beta  occ. eigenvalues --  -10.08691 -10.05469 -10.04962 -10.04640 -10.04279
  Beta  occ. eigenvalues --  -10.03848 -10.03785  -0.90287  -0.86055  -0.84905
  Beta  occ. eigenvalues --   -0.69681  -0.65556  -0.61257  -0.57484  -0.53411
  Beta  occ. eigenvalues --   -0.48837  -0.43197  -0.39528  -0.35572  -0.34369
  Beta  occ. eigenvalues --   -0.32707  -0.32061  -0.30009  -0.29637  -0.29102
  Beta  occ. eigenvalues --   -0.27330  -0.26457  -0.26114  -0.25063  -0.23650
  Beta  occ. eigenvalues --   -0.23403  -0.22321  -0.20838  -0.12908  -0.12186
  Beta  occ. eigenvalues --   -0.11576  -0.10042  -0.08659
  Beta virt. eigenvalues --    0.03792   0.08818   0.09041   0.09167   0.11530
  Beta virt. eigenvalues --    0.11987   0.12383   0.13386   0.13519   0.15147
  Beta virt. eigenvalues --    0.15235   0.15829   0.17215   0.17421   0.17700
  Beta virt. eigenvalues --    0.19042   0.19273   0.19512   0.20169   0.20603
  Beta virt. eigenvalues --    0.21060   0.21171   0.21477   0.22757   0.22976
  Beta virt. eigenvalues --    0.23572   0.23968   0.24462   0.24841   0.25532
  Beta virt. eigenvalues --    0.25707   0.26487   0.26766   0.27077   0.27474
  Beta virt. eigenvalues --    0.27811   0.28141   0.29082   0.29840   0.30433
  Beta virt. eigenvalues --    0.31077   0.31684   0.32412   0.32781   0.33641
  Beta virt. eigenvalues --    0.34221   0.34565   0.35374   0.36850   0.37361
  Beta virt. eigenvalues --    0.37447   0.37989   0.39039   0.39957   0.40470
  Beta virt. eigenvalues --    0.40586   0.41991   0.42455   0.42541   0.42924
  Beta virt. eigenvalues --    0.43365   0.44397   0.44560   0.45060   0.45946
  Beta virt. eigenvalues --    0.46504   0.47842   0.48424   0.48930   0.50014
  Beta virt. eigenvalues --    0.50262   0.51868   0.52804   0.53425   0.55027
  Beta virt. eigenvalues --    0.56151   0.56999   0.57750   0.59888   0.60047
  Beta virt. eigenvalues --    0.61854   0.63330   0.66869   0.67067   0.69050
  Beta virt. eigenvalues --    0.69105   0.70388   0.71305   0.72781   0.73784
  Beta virt. eigenvalues --    0.74547   0.75222   0.76195   0.77459   0.77953
  Beta virt. eigenvalues --    0.78533   0.78902   0.80022   0.81417   0.81571
  Beta virt. eigenvalues --    0.83909   0.84488   0.85785   0.86196   0.87392
  Beta virt. eigenvalues --    0.89073   0.91676   0.93082   0.93841   0.94477
  Beta virt. eigenvalues --    0.96839   1.00424   1.02129   1.03907   1.04900
  Beta virt. eigenvalues --    1.06302   1.06672   1.06777   1.08849   1.11683
  Beta virt. eigenvalues --    1.12940   1.14075   1.15626   1.18203   1.19755
  Beta virt. eigenvalues --    1.22913   1.26141   1.27353   1.28022   1.30470
  Beta virt. eigenvalues --    1.31789   1.33219   1.35798   1.36618   1.37830
  Beta virt. eigenvalues --    1.38456   1.39304   1.41303   1.43329   1.45943
  Beta virt. eigenvalues --    1.47234   1.48572   1.50557   1.53111   1.56891
  Beta virt. eigenvalues --    1.57931   1.58241   1.60978   1.62562   1.64804
  Beta virt. eigenvalues --    1.65988   1.66380   1.69012   1.69188   1.70227
  Beta virt. eigenvalues --    1.72288   1.73359   1.74021   1.76492   1.78620
  Beta virt. eigenvalues --    1.81274   1.82327   1.83048   1.87072   1.88846
  Beta virt. eigenvalues --    1.90567   1.91780   1.93317   1.95796   1.96433
  Beta virt. eigenvalues --    1.98182   1.99867   2.02936   2.04149   2.05580
  Beta virt. eigenvalues --    2.07298   2.08100   2.10184   2.14734   2.15962
  Beta virt. eigenvalues --    2.19686   2.21086   2.22316   2.25305   2.29065
  Beta virt. eigenvalues --    2.31055   2.32951   2.34403   2.38325   2.39979
  Beta virt. eigenvalues --    2.41476   2.47336   2.47995   2.53394   2.58829
  Beta virt. eigenvalues --    2.59765   2.63649   2.65606   2.66394   2.66619
  Beta virt. eigenvalues --    2.68000   2.69015   2.70273   2.75634   2.78246
  Beta virt. eigenvalues --    2.79633   2.80880   2.82566   2.85304   2.87295
  Beta virt. eigenvalues --    2.90797   2.92540   2.93332   2.98240   2.99596
  Beta virt. eigenvalues --    3.00455   3.02966   3.04751   3.05638   3.06780
  Beta virt. eigenvalues --    3.09604   3.10792   3.14355   3.15136   3.18957
  Beta virt. eigenvalues --    3.20976   3.24445   3.27025   3.32517   3.34759
  Beta virt. eigenvalues --    3.36552   3.40514   3.43962   3.48271   3.50059
  Beta virt. eigenvalues --    3.50999   3.55372   3.62100   3.65588   3.67054
  Beta virt. eigenvalues --    3.74594   3.80005   3.84123   3.86948   3.89741
  Beta virt. eigenvalues --    3.90215   3.95675   3.99437   4.01756   4.25199
  Beta virt. eigenvalues --    4.26616   4.30632   4.38541   4.46134   4.50170
  Beta virt. eigenvalues --    4.90924   5.21251   5.24214   5.25786   5.34918
  Beta virt. eigenvalues --    5.38807   5.44304   5.84129   5.89382   5.95690
  Beta virt. eigenvalues --   23.78193  23.95542  23.98555  24.04306  24.08043
  Beta virt. eigenvalues --   24.09640  24.10014  24.22580  24.30962  50.13304
  Beta virt. eigenvalues --   50.17530  50.21812
          Condensed to atoms (all electrons):
               1          2          3          4          5          6
     1  C   27.795506  -7.230317  -1.231750  -1.764720  -1.314728  -9.524961
     2  C   -7.230317  18.677303  -6.392386   2.794924   0.795108  -1.697631
     3  C   -1.231750  -6.392386  19.074508  -3.104395  -3.969468   1.775076
     4  C   -1.764720   2.794924  -3.104395   9.936397  -2.190802   0.236004
     5  C   -1.314728   0.795108  -3.969468  -2.190802  17.114663  -3.692722
     6  C   -9.524961  -1.697631   1.775076   0.236004  -3.692722  23.724858
     7  O    0.265948   0.011793  -0.099745   0.045222  -0.089765   0.136418
     8  O   -0.042817  -0.016466  -0.147888   0.385250  -0.088439  -0.029582
     9  C    0.775972  -1.431281   0.693687   0.417238  -0.562210  -4.969470
    10  C    0.162866  -0.540690   0.129570  -0.418022  -0.239683  -0.518706
    11  O    0.182873  -0.096836  -0.004444  -0.012740  -0.111029  -0.197956
    12  H   -0.012791  -0.009411   0.013915  -0.009483  -0.071408   0.093948
    13  H    0.022209  -0.009855   0.012406   0.021965  -0.038997   0.071211
    14  H   -0.022763   0.007525   0.004103  -0.013441   0.002549   0.000854
    15  H   -0.004687   0.096654  -0.159300  -0.031599   0.719896  -0.310010
    16  C   -0.457312  -0.121101  -0.590908   0.316981   0.429006  -0.870425
    17  H    0.055194  -0.166993   0.515987  -0.054363  -0.085320   0.065889
    18  H    0.067320   0.008259  -0.099271   0.001801   0.010945  -0.012456
    19  H   -0.115347  -0.157344   0.101271   0.041664   0.005285  -0.013042
    20  H    0.104622  -0.006338  -0.093617   0.011234  -0.004593  -0.030615
               7          8          9         10         11         12
     1  C    0.265948  -0.042817   0.775972   0.162866   0.182873  -0.012791
     2  C    0.011793  -0.016466  -1.431281  -0.540690  -0.096836  -0.009411
     3  C   -0.099745  -0.147888   0.693687   0.129570  -0.004444   0.013915
     4  C    0.045222   0.385250   0.417238  -0.418022  -0.012740  -0.009483
     5  C   -0.089765  -0.088439  -0.562210  -0.239683  -0.111029  -0.071408
     6  C    0.136418  -0.029582  -4.969470  -0.518706  -0.197956   0.093948
     7  O    8.232346   0.000091  -0.086849  -0.058631  -0.022991   0.000099
     8  O    0.000091   8.335441   0.015935   0.001833  -0.000021  -0.000849
     9  C   -0.086849   0.015935  11.387702  -0.559424   0.548957   0.021609
    10  C   -0.058631   0.001833  -0.559424   7.668307  -0.074051   0.335763
    11  O   -0.022991  -0.000021   0.548957  -0.074051   8.061565   0.012005
    12  H    0.000099  -0.000849   0.021609   0.335763   0.012005   0.568892
    13  H    0.000574   0.001293  -0.101168   0.370135   0.001332  -0.050244
    14  H    0.000916   0.000271  -0.008587   0.375035  -0.007384  -0.013378
    15  H   -0.001514  -0.017694  -0.002709  -0.029205  -0.003554  -0.008173
    16  C   -0.000455   0.017669  -0.097999  -0.031798   0.001611  -0.001946
    17  H   -0.001480  -0.013613  -0.005191   0.000531  -0.000036   0.000270
    18  H   -0.009027   0.000074  -0.011370   0.000343  -0.000016  -0.000040
    19  H    0.004426   0.000361   0.002854  -0.000369   0.000076   0.000006
    20  H   -0.007339   0.000053   0.006331  -0.001032  -0.000023  -0.000069
              13         14         15         16         17         18
     1  C    0.022209  -0.022763  -0.004687  -0.457312   0.055194   0.067320
     2  C   -0.009855   0.007525   0.096654  -0.121101  -0.166993   0.008259
     3  C    0.012406   0.004103  -0.159300  -0.590908   0.515987  -0.099271
     4  C    0.021965  -0.013441  -0.031599   0.316981  -0.054363   0.001801
     5  C   -0.038997   0.002549   0.719896   0.429006  -0.085320   0.010945
     6  C    0.071211   0.000854  -0.310010  -0.870425   0.065889  -0.012456
     7  O    0.000574   0.000916  -0.001514  -0.000455  -0.001480  -0.009027
     8  O    0.001293   0.000271  -0.017694   0.017669  -0.013613   0.000074
     9  C   -0.101168  -0.008587  -0.002709  -0.097999  -0.005191  -0.011370
    10  C    0.370135   0.375035  -0.029205  -0.031798   0.000531   0.000343
    11  O    0.001332  -0.007384  -0.003554   0.001611  -0.000036  -0.000016
    12  H   -0.050244  -0.013378  -0.008173  -0.001946   0.000270  -0.000040
    13  H    0.591081  -0.029428  -0.009184   0.000457   0.000348   0.000038
    14  H   -0.029428   0.535147   0.003345  -0.000161  -0.000037  -0.000045
    15  H   -0.009184   0.003345   0.617970   0.006270  -0.008937   0.000093
    16  C    0.000457  -0.000161   0.006270   6.618707  -0.024020   0.383887
    17  H    0.000348  -0.000037  -0.008937  -0.024020   0.601027   0.001617
    18  H    0.000038  -0.000045   0.000093   0.383887   0.001617   0.591068
    19  H    0.000009  -0.000029   0.000441   0.473416  -0.005267  -0.029652
    20  H   -0.000041   0.000047   0.000106   0.362779   0.001042  -0.058311
              19         20
     1  C   -0.115347   0.104622
     2  C   -0.157344  -0.006338
     3  C    0.101271  -0.093617
     4  C    0.041664   0.011234
     5  C    0.005285  -0.004593
     6  C   -0.013042  -0.030615
     7  O    0.004426  -0.007339
     8  O    0.000361   0.000053
     9  C    0.002854   0.006331
    10  C   -0.000369  -0.001032
    11  O    0.000076  -0.000023
    12  H    0.000006  -0.000069
    13  H    0.000009  -0.000041
    14  H   -0.000029   0.000047
    15  H    0.000441   0.000106
    16  C    0.473416   0.362779
    17  H   -0.005267   0.001042
    18  H   -0.029652  -0.058311
    19  H    0.606755  -0.032623
    20  H   -0.032623   0.591570
          Atomic-Atomic Spin Densities.
               1          2          3          4          5          6
     1  C   -0.494920   0.371328  -0.111108   0.163831  -0.095984   0.033902
     2  C    0.371328  -0.150813   0.093174  -0.136246  -0.042945   0.019758
     3  C   -0.111108   0.093174  -0.327472   0.202204   0.156081   0.006648
     4  C    0.163831  -0.136246   0.202204  -0.081217   0.210452  -0.282860
     5  C   -0.095984  -0.042945   0.156081   0.210452   0.130388  -0.210119
     6  C    0.033902   0.019758   0.006648  -0.282860  -0.210119   0.815547
     7  O    0.005161  -0.046639  -0.001390  -0.001368   0.008326  -0.042002
     8  O   -0.005853   0.002208  -0.014953  -0.027467  -0.052140  -0.000312
     9  C    0.097974  -0.015070  -0.044364   0.091697   0.155679  -0.408066
    10  C   -0.051738   0.018870   0.003618  -0.028856  -0.042864   0.165417
    11  O    0.005202  -0.001054   0.001643  -0.003377  -0.001748  -0.001550
    12  H    0.003036   0.000749  -0.000157   0.003408   0.008560  -0.021909
    13  H   -0.003012   0.000337  -0.000126  -0.005592  -0.004979   0.022694
    14  H   -0.000871  -0.000637  -0.000208   0.000832  -0.000489  -0.000332
    15  H   -0.002561   0.000024  -0.002514   0.000952  -0.001821   0.008098
    16  C    0.068140  -0.018663   0.032611  -0.005536  -0.019829  -0.013650
    17  H   -0.008639   0.002957   0.002542   0.000126  -0.001439   0.003645
    18  H   -0.017019  -0.011670   0.018056  -0.003575   0.002228   0.011983
    19  H   -0.000660   0.002541  -0.001367   0.001275  -0.000316  -0.002181
    20  H    0.018508  -0.003092  -0.010334   0.002511  -0.000210  -0.017308
               7          8          9         10         11         12
     1  C    0.005161  -0.005853   0.097974  -0.051738   0.005202   0.003036
     2  C   -0.046639   0.002208  -0.015070   0.018870  -0.001054   0.000749
     3  C   -0.001390  -0.014953  -0.044364   0.003618   0.001643  -0.000157
     4  C   -0.001368  -0.027467   0.091697  -0.028856  -0.003377   0.003408
     5  C    0.008326  -0.052140   0.155679  -0.042864  -0.001748   0.008560
     6  C   -0.042002  -0.000312  -0.408066   0.165417  -0.001550  -0.021909
     7  O    0.290228  -0.000130   0.006071   0.000110   0.000711   0.000075
     8  O   -0.000130   0.382891  -0.000317   0.000073  -0.000033  -0.000007
     9  C    0.006071  -0.000317   0.242988  -0.095660  -0.021198   0.013516
    10  C    0.000110   0.000073  -0.095660   0.025499   0.004681  -0.007666
    11  O    0.000711  -0.000033  -0.021198   0.004681   0.055002   0.000015
    12  H    0.000075  -0.000007   0.013516  -0.007666   0.000015  -0.000243
    13  H   -0.000046  -0.000092  -0.020750   0.010295   0.000761  -0.000807
    14  H   -0.000027  -0.000016   0.002143   0.000237  -0.000239   0.000156
    15  H    0.000381  -0.000014   0.002457   0.001302   0.000029   0.000406
    16  C   -0.002752  -0.000197   0.006907   0.000037  -0.000054   0.000327
    17  H    0.000382  -0.000630  -0.000285   0.000195   0.000008  -0.000028
    18  H    0.001731  -0.000174  -0.006081   0.001180   0.000085  -0.000034
    19  H   -0.000248  -0.000111   0.000549  -0.000105  -0.000003   0.000010
    20  H    0.003461  -0.000124   0.006269  -0.001430   0.000044   0.000047
              13         14         15         16         17         18
     1  C   -0.003012  -0.000871  -0.002561   0.068140  -0.008639  -0.017019
     2  C    0.000337  -0.000637   0.000024  -0.018663   0.002957  -0.011670
     3  C   -0.000126  -0.000208  -0.002514   0.032611   0.002542   0.018056
     4  C   -0.005592   0.000832   0.000952  -0.005536   0.000126  -0.003575
     5  C   -0.004979  -0.000489  -0.001821  -0.019829  -0.001439   0.002228
     6  C    0.022694  -0.000332   0.008098  -0.013650   0.003645   0.011983
     7  O   -0.000046  -0.000027   0.000381  -0.002752   0.000382   0.001731
     8  O   -0.000092  -0.000016  -0.000014  -0.000197  -0.000630  -0.000174
     9  C   -0.020750   0.002143   0.002457   0.006907  -0.000285  -0.006081
    10  C    0.010295   0.000237   0.001302   0.000037   0.000195   0.001180
    11  O    0.000761  -0.000239   0.000029  -0.000054   0.000008   0.000085
    12  H   -0.000807   0.000156   0.000406   0.000327  -0.000028  -0.000034
    13  H    0.002616  -0.000058   0.000035  -0.000058   0.000013   0.000043
    14  H   -0.000058  -0.000790   0.000001  -0.000093   0.000005   0.000019
    15  H    0.000035   0.000001  -0.020713  -0.000335   0.000323  -0.000079
    16  C   -0.000058  -0.000093  -0.000335  -0.054794   0.004313   0.003518
    17  H    0.000013   0.000005   0.000323   0.004313  -0.006299   0.000295
    18  H    0.000043   0.000019  -0.000079   0.003518   0.000295   0.012336
    19  H   -0.000008  -0.000001   0.000018   0.001030  -0.000294  -0.000832
    20  H   -0.000040  -0.000025   0.000093  -0.001889  -0.000218  -0.008121
              19         20
     1  C   -0.000660   0.018508
     2  C    0.002541  -0.003092
     3  C   -0.001367  -0.010334
     4  C    0.001275   0.002511
     5  C   -0.000316  -0.000210
     6  C   -0.002181  -0.017308
     7  O   -0.000248   0.003461
     8  O   -0.000111  -0.000124
     9  C    0.000549   0.006269
    10  C   -0.000105  -0.001430
    11  O   -0.000003   0.000044
    12  H    0.000010   0.000047
    13  H   -0.000008  -0.000040
    14  H   -0.000001  -0.000025
    15  H    0.000018   0.000093
    16  C    0.001030  -0.001889
    17  H   -0.000294  -0.000218
    18  H   -0.000832  -0.008121
    19  H   -0.000565   0.000942
    20  H    0.000942   0.015925
 Mulliken charges and spin densities:
               1          2
     1  C   -1.710318  -0.025285
     2  C    1.485083   0.085117
     3  C   -0.427350   0.002583
     4  C   -0.609118   0.101195
     5  C   -0.618289   0.196830
     6  C    1.763317   0.087402
     7  O   -0.320037   0.222033
     8  O   -0.400902   0.282601
     9  C   -0.034027   0.014460
    10  C   -0.572774   0.003196
    11  O   -0.277339   0.038924
    12  H    0.131286  -0.000547
    13  H    0.145859   0.001226
    14  H    0.165461  -0.000393
    15  H    0.141791  -0.013918
    16  C   -0.414659  -0.000966
    17  H    0.123351  -0.003029
    18  H    0.154741   0.003891
    19  H    0.117105  -0.000330
    20  H    0.156817   0.005008
 Sum of Mulliken charges =  -1.00000   1.00000
 Mulliken charges and spin densities with hydrogens summed into heavy atoms:
               1          2
     1  C   -1.710318  -0.025285
     2  C    1.485083   0.085117
     3  C   -0.303999  -0.000446
     4  C   -0.609118   0.101195
     5  C   -0.476498   0.182912
     6  C    1.763317   0.087402
     7  O   -0.320037   0.222033
     8  O   -0.400902   0.282601
     9  C   -0.034027   0.014460
    10  C   -0.130169   0.003482
    11  O   -0.277339   0.038924
    16  C    0.014005   0.007604
 Electronic spatial extent (au):  <R**2>=           2215.6660
 Charge=             -1.0000 electrons
 Dipole moment (field-independent basis, Debye):
    X=              0.1775    Y=             -2.0171    Z=             -1.1567  Tot=              2.3320
 Quadrupole moment (field-independent basis, Debye-Ang):
   XX=            -75.3445   YY=           -121.0129   ZZ=            -77.0314
   XY=             -2.0432   XZ=             -2.5605   YZ=              1.6533
 Traceless Quadrupole moment (field-independent basis, Debye-Ang):
   XX=             15.7851   YY=            -29.8833   ZZ=             14.0982
   XY=             -2.0432   XZ=             -2.5605   YZ=              1.6533
 Octapole moment (field-independent basis, Debye-Ang**2):
  XXX=            -12.2083  YYY=            -82.5057  ZZZ=            -24.5257  XYY=            -16.9859
  XXY=            -32.8016  XXZ=             -8.9676  XZZ=             -3.7692  YZZ=            -31.1180
  YYZ=            -30.4110  XYZ=            -11.9082
 Hexadecapole moment (field-independent basis, Debye-Ang**3):
 XXXX=          -1293.7693 YYYY=          -1732.4265 ZZZZ=           -503.2419 XXXY=           -140.6155
 XXXZ=           -342.6238 YYYX=           -178.0804 YYYZ=            -24.0834 ZZZX=           -332.1271
 ZZZY=            -37.5679 XXYY=           -449.4215 XXZZ=           -303.6309 YYZZ=           -337.5384
 XXYZ=            -13.9144 YYXZ=           -142.2367 ZZXY=            -55.1900
 N-N= 6.535109958432D+02 E-N=-2.661878822620D+03  KE= 5.714012537958D+02
                          Isotropic Fermi Contact Couplings
        Atom                 a.u.       MegaHertz       Gauss      10(-4) cm-1
     1  C(13)             -0.00888      -9.98530      -3.56300      -3.33074
     2  C(13)              0.00167       1.88005       0.67085       0.62712
     3  C(13)             -0.00553      -6.21787      -2.21869      -2.07406
     4  C(13)             -0.01143     -12.85082      -4.58549      -4.28657
     5  C(13)              0.00419       4.70504       1.67887       1.56943
     6  C(13)             -0.00233      -2.62190      -0.93556      -0.87457
     7  O(17)              0.01996     -12.09923      -4.31730      -4.03587
     8  O(17)              0.02872     -17.41283      -6.21333      -5.80829
     9  C(13)             -0.00384      -4.31241      -1.53878      -1.43847
    10  C(13)             -0.00093      -1.04124      -0.37154      -0.34732
    11  O(17)              0.00346      -2.09806      -0.74864      -0.69984
    12  H(1)              -0.00007      -0.31692      -0.11309      -0.10571
    13  H(1)               0.00017       0.76127       0.27164       0.25393
    14  H(1)              -0.00007      -0.30821      -0.10998      -0.10281
    15  H(1)              -0.00284     -12.67470      -4.52265      -4.22782
    16  C(13)             -0.00303      -3.41041      -1.21692      -1.13759
    17  H(1)              -0.00040      -1.79258      -0.63964      -0.59794
    18  H(1)               0.00129       5.78787       2.06526       1.93063
    19  H(1)              -0.00001      -0.05482      -0.01956      -0.01829
    20  H(1)               0.00147       6.55007       2.33723       2.18487
 --------------------------------------------------------
       Center         ----  Spin Dipole Couplings  ----
                      3XX-RR        3YY-RR        3ZZ-RR
 --------------------------------------------------------
     1   Atom       -0.021726     -0.016199      0.037925
     2   Atom       -0.001405     -0.048886      0.050290
     3   Atom       -0.001132     -0.010594      0.011726
     4   Atom       -0.020292     -0.026467      0.046759
     5   Atom       -0.020565     -0.107058      0.127623
     6   Atom       -0.009539     -0.049883      0.059422
     7   Atom       -0.105401     -0.403293      0.508695
     8   Atom       -0.108302     -0.588968      0.697269
     9   Atom       -0.005493     -0.002676      0.008169
    10   Atom        0.003205     -0.000506     -0.002699
    11   Atom       -0.050404     -0.058433      0.108837
    12   Atom        0.003567     -0.001070     -0.002496
    13   Atom        0.001448     -0.000968     -0.000480
    14   Atom        0.001728     -0.000590     -0.001138
    15   Atom        0.010238     -0.011983      0.001745
    16   Atom        0.002766     -0.001428     -0.001338
    17   Atom        0.003408     -0.001802     -0.001605
    18   Atom        0.003915     -0.001430     -0.002484
    19   Atom        0.001803     -0.001109     -0.000694
    20   Atom        0.000342     -0.001392      0.001050
 --------------------------------------------------------
                        XY            XZ            YZ
 --------------------------------------------------------
     1   Atom       -0.011818     -0.037839      0.007043
     2   Atom       -0.006349     -0.066582      0.008807
     3   Atom       -0.001851     -0.011650      0.000931
     4   Atom       -0.007770     -0.064671      0.008230
     5   Atom       -0.021333     -0.151995      0.038007
     6   Atom       -0.011053     -0.076833      0.015362
     7   Atom       -0.136855     -0.575194      0.229406
     8   Atom       -0.105058     -0.799632      0.176484
     9   Atom        0.003940     -0.003181     -0.003441
    10   Atom        0.001000      0.002362      0.000580
    11   Atom        0.029748     -0.076910     -0.067906
    12   Atom        0.000962      0.000698     -0.000135
    13   Atom        0.000737      0.002506      0.000510
    14   Atom        0.000772      0.001133      0.000257
    15   Atom       -0.005256      0.009576     -0.002234
    16   Atom        0.000716      0.003401      0.000233
    17   Atom        0.001704      0.004649      0.000649
    18   Atom       -0.000379      0.001929     -0.000493
    19   Atom        0.000597      0.002216      0.000242
    20   Atom        0.000061      0.003858     -0.000064
 --------------------------------------------------------


 ---------------------------------------------------------------------------------
              Anisotropic Spin Dipole Couplings in Principal Axis System
 ---------------------------------------------------------------------------------

       Atom             a.u.   MegaHertz   Gauss  10(-4) cm-1        Axes

              Baa    -0.0424    -5.687    -2.029    -1.897  0.8751  0.2909  0.3868
     1 C(13)  Bbb    -0.0157    -2.106    -0.751    -0.702 -0.1975  0.9443 -0.2634
              Bcc     0.0581     7.793     2.781     2.599 -0.4419  0.1541  0.8837
 
              Baa    -0.0497    -6.672    -2.381    -2.226  0.1210  0.9926 -0.0068
     2 C(13)  Bbb    -0.0470    -6.301    -2.248    -2.102  0.8173 -0.0958  0.5682
              Bcc     0.0967    12.973     4.629     4.327 -0.5634  0.0744  0.8228
 
              Baa    -0.0111    -1.490    -0.532    -0.497  0.3208  0.9388  0.1254
     3 C(13)  Bbb    -0.0076    -1.021    -0.364    -0.340  0.7984 -0.3392  0.4975
              Bcc     0.0187     2.510     0.896     0.837 -0.5096  0.0595  0.8584
 
              Baa    -0.0598    -8.022    -2.863    -2.676  0.8551  0.0726  0.5134
     4 C(13)  Bbb    -0.0274    -3.673    -1.311    -1.225 -0.0119  0.9926 -0.1206
              Bcc     0.0872    11.696     4.173     3.901 -0.5184  0.0970  0.8496
 
              Baa    -0.1166   -15.650    -5.584    -5.220  0.7211 -0.4579  0.5200
     5 C(13)  Bbb    -0.1117   -14.982    -5.346    -4.998  0.4522  0.8796  0.1475
              Bcc     0.2283    30.632    10.930    10.218 -0.5249  0.1288  0.8413
 
              Baa    -0.0594    -7.970    -2.844    -2.658  0.8404  0.1250  0.5273
     6 C(13)  Bbb    -0.0520    -6.975    -2.489    -2.327 -0.0428  0.9853 -0.1654
              Bcc     0.1114    14.945     5.333     4.985 -0.5402  0.1164  0.8334
 
              Baa    -0.4578    33.123    11.819    11.049  0.0313  0.9765 -0.2132
     7 O(17)  Bbb    -0.4503    32.585    11.627    10.869  0.8632  0.0811  0.4983
              Bcc     0.9081   -65.708   -23.446   -21.918 -0.5039  0.1996  0.8404
 
              Baa    -0.6131    44.367    15.831    14.799 -0.1502  0.9635 -0.2214
     8 O(17)  Bbb    -0.6001    43.422    15.494    14.484  0.8403  0.2424  0.4849
              Bcc     1.2132   -87.789   -31.325   -29.283 -0.5209  0.1132  0.8461
 
              Baa    -0.0083    -1.113    -0.397    -0.371  0.8306 -0.5551  0.0444
     9 C(13)  Bbb    -0.0020    -0.269    -0.096    -0.090  0.4907  0.7673  0.4128
              Bcc     0.0103     1.383     0.493     0.461 -0.2633 -0.3211  0.9097
 
              Baa    -0.0035    -0.476    -0.170    -0.159 -0.3194 -0.0753  0.9446
    10 C(13)  Bbb    -0.0008    -0.102    -0.036    -0.034 -0.2422  0.9702 -0.0046
              Bcc     0.0043     0.577     0.206     0.193  0.9161  0.2302  0.3282
 
              Baa    -0.0845     6.111     2.180     2.038 -0.6207  0.7836  0.0283
    11 O(17)  Bbb    -0.0801     5.796     2.068     1.933  0.6975  0.5353  0.4763
              Bcc     0.1645   -11.906    -4.249    -3.972 -0.3581 -0.3154  0.8788
 
              Baa    -0.0026    -1.397    -0.498    -0.466 -0.1365  0.1699  0.9760
    12 H(1)   Bbb    -0.0012    -0.645    -0.230    -0.215 -0.1669  0.9672 -0.1917
              Bcc     0.0038     2.042     0.729     0.681  0.9765  0.1890  0.1037
 
              Baa    -0.0022    -1.174    -0.419    -0.392 -0.5657 -0.0030  0.8246
    13 H(1)   Bbb    -0.0012    -0.616    -0.220    -0.205 -0.1691  0.9792 -0.1124
              Bcc     0.0034     1.790     0.639     0.597  0.8071  0.2031  0.5544
 
              Baa    -0.0015    -0.817    -0.292    -0.273 -0.3314  0.0146  0.9434
    14 H(1)   Bbb    -0.0008    -0.435    -0.155    -0.145 -0.2471  0.9636 -0.1017
              Bcc     0.0023     1.252     0.447     0.418  0.9105  0.2668  0.3158
 
              Baa    -0.0132    -7.024    -2.506    -2.343  0.2162  0.9763  0.0074
    15 H(1)   Bbb    -0.0044    -2.335    -0.833    -0.779 -0.5174  0.1081  0.8489
[...]
 131769,0.00050426,0.07134679,-0.00692409,0.00559498,-0.00706984,0.0020
 7932,0.00575214,0.00150983,0.02926976,-0.04139859,0.02569143,0.0422397
 8,-0.44629434,0.08031576,-0.01975409,-0.06966878,0.00048839,-0.0033473
 4,-0.00376851,-0.00080080,0.00313265,-0.00999162,0.00439635,-0.0521999
 3,0.55893470,0.00260976,0.00012609,0.00126434,-0.00542818,-0.00498803,
 0.00072612,-0.01457335,0.03761846,0.00144483,-0.02298272,0.07884693,-0
 .07999759,0.00256332,-0.01021773,0.01853164,-0.00349778,0.00378883,0.0
 0123472,-0.00026905,0.00098868,-0.00018853,0.03574258,-0.10594998,0.06
 148908,-0.01779489,-0.00584174,-0.01070165,-0.00488066,-0.00344572,-0.
 00561930,-0.00288205,0.00532520,-0.00195763,0.00752697,0.00280098,-0.0
 0173423,0.01006981,-0.01635753,0.00473757,-0.15431034,-0.03281649,-0.0
 4545396,0.00206383,-0.01073143,0.00533353,-0.00071272,0.00423430,-0.00
 033505,0.44643116,-0.00462535,0.04663868,-0.00601356,-0.00086017,-0.00
 923875,-0.00050545,-0.00448046,0.00654900,-0.00359494,0.01269594,-0.00
 196962,0.00875452,-0.02280129,-0.04530390,-0.01377245,-0.01342518,-0.1
 0026836,-0.00376939,-0.00096053,-0.02932219,0.00345352,-0.00276107,0.0
 0286628,-0.00206335,-0.06923679,0.82366052,-0.01221090,-0.00091522,-0.
 00539898,-0.00567206,-0.00302551,-0.00014041,-0.00260710,0.00419285,-0
 .00296430,-0.00020363,0.00159392,0.00902007,0.00926935,-0.00652780,0.0
 0428274,-0.04158449,-0.01225330,-0.09621173,0.00155838,-0.01024688,0.0
 0032998,-0.00038426,0.00446033,-0.00150403,0.07461571,0.10862013,0.272
 19370,0.00041687,-0.00366235,0.00102340,-0.00127596,-0.00004501,-0.000
 59195,-0.00053836,0.00037272,-0.00045831,0.00050279,0.00059276,0.00033
 270,-0.00300147,-0.00058397,-0.00050382,-0.01786378,0.00676368,-0.0106
 5591,0.00009807,-0.00002085,-0.00036684,-0.00016244,-0.00025861,-0.000
 01664,-0.14883630,0.00216863,-0.02435466,0.45158946,-0.00187344,-0.003
 42790,-0.00071367,-0.00127307,0.00032622,-0.00101963,-0.00029832,0.000
 33561,-0.00023735,0.00019379,0.00090544,0.00048845,-0.00131673,-0.0025
 2584,-0.00021914,-0.01191116,0.01313828,-0.00788628,0.00040004,0.00011
 187,0.00067777,-0.00002180,-0.00017103,-0.00000605,0.00126871,-0.07610
 376,0.00295550,0.04528771,0.56954403,-0.00213590,-0.00160534,0.0020284
 7,0.00106184,0.00053566,-0.00112614,0.00019991,-0.00058455,0.00037579,
 0.00028022,-0.00001929,-0.00200086,-0.00082290,-0.00045237,-0.00160748
 ,-0.01445678,-0.00167615,0.01010005,0.00025819,0.00134014,-0.00014127,
 -0.00000351,-0.00035877,0.00016790,-0.01767341,0.00412473,-0.08716626,
 -0.02101366,0.03204008,0.51432803,-0.00111147,0.00564345,-0.00105053,0
 .00069506,0.00001468,0.00067204,-0.00006843,-0.00034599,-0.00007346,0.
 00054536,-0.00052844,0.00167878,-0.00396997,-0.00076046,-0.00437359,0.
 02292576,-0.02408901,-0.00169914,-0.00293130,-0.00436223,-0.00402471,-
 0.00033263,-0.00114546,-0.00013591,-0.11747297,0.10017607,0.00596199,-
 0.00948006,0.04802592,0.00032963,0.11428271,0.00523947,-0.02482530,0.0
 0597776,0.00421874,0.00845141,0.00242602,0.00485099,-0.00656635,0.0038
 0989,-0.00875653,0.00107191,-0.00361800,-0.00505850,0.01374262,-0.0021
 5086,-0.02561159,-0.06961836,-0.02802556,0.00045826,0.02251836,-0.0039
 1584,0.00159515,-0.00565554,0.00144144,0.11334555,-0.60904824,-0.09070
 307,0.03424878,-0.03766380,-0.00403311,-0.13084040,0.70703502,0.002250
 54,0.00103016,-0.00100629,0.00074763,0.00037412,0.00014734,0.00052150,
 -0.00083125,0.00055319,0.00078337,0.00017967,-0.00103199,-0.00629663,-
 0.00002787,-0.00054159,-0.00019169,-0.02532734,0.01415149,-0.00426035,
 -0.00037953,-0.00202137,-0.00006780,-0.00221124,0.00026444,0.00575988,
 -0.09664153,-0.08713750,-0.00189617,0.00374594,0.02227525,0.00226182,0
 .11898726,0.05466810,0.00049237,-0.00017533,-0.00028358,-0.00012841,0.
 00005495,0.00030979,0.00004456,-0.00001937,0.00005555,-0.00024585,-0.0
 0048229,0.00006021,-0.00020939,0.00012783,-0.00016443,-0.00046858,-0.0
 0038156,-0.00250200,-0.00010633,-0.00006272,-0.00018554,0.00006300,0.0
 0012832,-0.00003573,-0.00246761,0.01429276,0.02510737,-0.08467489,0.05
 425350,0.07123067,-0.00504613,0.00465962,-0.00370014,0.08585019,0.0004
 6649,0.00022121,0.00036877,-0.00015389,-0.00045524,-0.00008010,-0.0003
 0711,0.00032538,-0.00019272,0.00041443,-0.00013574,0.00034040,-0.00096
 003,0.00026851,-0.00012489,-0.00098090,-0.00022684,0.00070961,-0.00000
 727,-0.00010400,0.00017367,-0.00008720,0.00025839,-0.00009962,0.001265
 84,-0.00850041,-0.00791838,0.05564891,-0.13484403,-0.11502150,0.004457
 59,-0.00117271,0.00198267,-0.06224543,0.14587660,0.00045991,0.00008497
 ,0.00010697,-0.00011233,-0.00019829,0.00007292,-0.00015545,0.00003585,
 -0.00015118,-0.00015917,0.00017567,0.00015571,-0.00018241,-0.00066829,
 0.00081426,-0.00012638,-0.00013662,-0.00019110,-0.00000892,0.00007460,
 -0.00003968,-0.00010565,0.00016487,-0.00004008,-0.00340457,0.00432313,
 0.00690563,0.07052810,-0.11223650,-0.17919552,-0.00100837,0.00233312,-
 0.00078785,-0.07626335,0.12340262,0.19546601,-0.00027207,-0.00022741,0
 .00034209,0.00044954,0.00022138,-0.00006301,0.00024126,-0.00028303,0.0
 0011066,-0.00017150,-0.00027685,-0.00055337,-0.00051610,-0.00028786,-0
 .00011753,-0.00202607,-0.00157707,0.00247941,-0.00004948,0.00048327,-0
 .00016842,0.00002996,-0.00004527,0.00011039,0.00765736,0.01608797,-0.0
 2535834,-0.04328067,-0.00610061,0.00642973,-0.00399182,0.00043880,0.00
 314139,-0.00098413,-0.00741791,0.01037128,0.04517976,0.00019059,0.0001
 0368,0.00016472,-0.00011461,-0.00031694,-0.00000600,-0.00019611,0.0001
 7629,-0.00021240,0.00035404,-0.00006600,-0.00008135,-0.00048143,-0.000
 31002,-0.00056214,0.00008709,-0.00028395,-0.00011325,0.00009470,-0.000
 14306,0.00002855,-0.00006692,0.00026986,-0.00003161,-0.00141167,-0.008
 16444,0.00822635,-0.01004563,-0.11757149,0.12014852,0.00355054,0.00007
 732,-0.00163753,0.00046614,0.01091181,-0.01671847,0.00917624,0.1280578
 1,-0.00009738,-0.00062208,0.00003456,0.00017461,0.00030476,0.00002941,
 0.00028881,-0.00007361,0.00018021,-0.00000889,-0.00036775,0.00013774,-
 0.00067199,0.00153642,-0.00024254,-0.00155807,-0.00021671,0.00041518,-
 0.00002508,0.00034121,-0.00005837,0.00013149,-0.00022831,0.00010236,0.
 00230857,0.00366939,-0.00512357,0.01198183,0.11797951,-0.22686142,-0.0
 0094534,-0.00086612,0.00009083,0.00116131,0.01319606,-0.01973021,-0.01
 351565,-0.13035582,0.24535455,-0.00019236,-0.00197037,0.00014615,-0.00
 037960,0.00030206,-0.00028760,-0.00000403,0.00003514,-0.00000264,0.000
 08922,0.00014609,0.00011209,0.00017785,0.00110489,-0.00045694,-0.00389
 964,0.00359212,-0.00180055,0.00005755,0.00056670,-0.00004135,-0.000004
 00,-0.00024051,0.00001604,-0.02124292,-0.02687371,-0.00555673,-0.14161
 632,-0.12450202,-0.02212596,0.00538905,0.00043042,0.00095501,0.0083385
 9,0.01050420,0.00040277,-0.00128018,-0.00039213,0.00043473,0.15436427,
 0.00017513,-0.00007079,0.00026236,0.00012644,0.00011647,0.00009253,0.0
 0005983,-0.00024564,0.00003074,-0.00028623,0.00058764,-0.00022265,0.00
 016085,-0.00044195,0.00042012,0.00111646,-0.00103968,0.00047850,-0.000
 09014,0.00036517,-0.00016481,0.00002282,-0.00028954,0.00006333,0.00910
 021,0.00651325,0.00155654,-0.12901100,-0.21135017,-0.03460300,0.000921
 00,0.00178758,0.00084290,-0.00993456,-0.01214958,-0.00083670,-0.009249
 42,-0.01237706,-0.00328734,0.13734763,0.22818241,-0.00024980,-0.000579
 87,0.00037451,-0.00008231,0.00002383,-0.00016256,-0.00001552,0.0000843
 2,-0.00005100,0.00014099,0.00004619,0.00036442,-0.00037038,0.00059411,
 -0.00002798,-0.00167210,0.00100033,0.00025692,0.00005469,0.00021319,-0
 .00003918,-0.00003439,-0.00007831,0.00000199,-0.00750131,-0.00692450,-
 0.00321469,-0.02290812,-0.03429882,-0.05274462,0.00222634,-0.00044295,
 -0.00025668,-0.01522519,-0.01685657,-0.00265420,0.01719397,0.02162553,
 0.00541732,0.02809168,0.03584259,0.05302515,0.00400369,-0.00075519,-0.
 00190625,0.00006634,-0.00088443,0.00067851,-0.00142367,-0.00395560,-0.
 00247500,-0.01349121,0.01085172,-0.01389955,-0.21274681,0.06946578,-0.
 12492736,0.00152536,0.00080075,-0.00133351,-0.00053409,0.00040028,-0.0
 0000644,0.00181403,0.00087489,0.00320925,-0.00251361,-0.00078080,0.001
 42149,-0.00153397,-0.00179974,-0.00124969,0.00048128,0.00133454,0.0001
 2112,-0.00053539,-0.00064796,-0.00021528,-0.00095506,-0.00120133,0.000
 26435,0.00033526,-0.00040156,0.00035988,0.22674814,-0.00328424,-0.0041
 6272,-0.00071824,0.00012315,-0.00047555,0.00007875,-0.00270414,-0.0027
 3375,-0.00078870,-0.01722694,0.00880060,-0.01131656,0.07046117,-0.0859
 6643,0.05158311,0.02337251,-0.00533477,0.01611564,0.00192937,-0.001367
 75,0.00152190,0.00192687,0.00240068,0.00043163,0.00324744,0.00082644,0
 .00063807,-0.00111062,-0.00041309,0.00014254,-0.00071177,-0.00017336,-
 0.00004207,-0.00061996,-0.00027327,0.00017148,-0.00095692,-0.00038797,
 -0.00094991,0.00009198,0.00036311,-0.00020541,-0.07371243,0.08836258,-
 0.00170085,0.00091738,0.00635872,0.00048294,-0.00056728,-0.00053458,-0
 .00260318,-0.00160082,0.00222970,-0.00958689,0.00699198,-0.00150760,-0
 .12505640,0.05169582,-0.11882545,-0.00545244,0.00220065,-0.00065797,-0
 .00009742,0.00017563,-0.00083316,0.00318015,-0.00077958,-0.00134103,0.
 00139133,-0.00081573,-0.00366454,-0.00089885,-0.00105165,0.00137427,0.
 00014772,-0.00042328,0.00066405,0.00045752,0.00014044,-0.00066846,-0.0
 0051231,-0.00054421,0.00021430,0.00019421,-0.00042566,-0.00024312,0.14
 048730,-0.05602239,0.11811636,-0.02001924,0.00076774,-0.01486079,-0.15
 576980,0.02939953,-0.05908286,-0.00447771,0.00821531,-0.00851102,0.006
 27257,-0.00257895,-0.00312873,-0.00052159,-0.00168109,0.00047206,-0.00
 049552,-0.00175287,-0.00146213,-0.00182656,0.00486255,-0.00014736,-0.0
 0061408,0.00048694,0.00053998,-0.00076813,0.00015418,-0.00062170,-0.00
 014358,-0.00019777,-0.00000205,0.00013305,0.00038006,0.00013825,-0.000
 00625,0.00000067,-0.00000334,0.00000529,-0.00000911,-0.00000079,-0.000
 06267,0.00003270,-0.00001096,-0.00021055,0.00003749,0.00014023,0.50154
 019,-0.01443248,0.01190750,-0.01018051,0.02287978,-0.09656411,0.018978
 89,0.02885638,-0.01119792,0.02080719,-0.00514334,-0.00307387,-0.000782
 61,0.00114690,-0.00086007,0.00056964,-0.00336338,-0.00292172,-0.001801
 39,-0.00154341,-0.00042416,-0.00142147,0.00186614,-0.00090710,0.000984
 76,-0.00102375,0.00085644,-0.00069021,-0.00033606,-0.00036011,-0.00001
 771,0.00009396,0.00008094,0.00000378,-0.00002904,-0.00000101,0.0000211
 0,0.00002763,0.00000277,-0.00002222,-0.00015295,0.00003594,-0.00004375
 ,0.00008093,0.00012583,-0.00003523,0.03395457,0.55764567,-0.01330576,-
 0.00147733,-0.00331505,-0.05783221,0.02361473,-0.10711383,-0.01122532,
 0.00744243,-0.00090435,-0.00278689,0.00035192,0.01014608,0.00018337,-0
 .00076280,-0.00088460,-0.00125896,-0.00041590,0.00128488,0.00128929,0.
 00267748,-0.00350425,0.00035774,0.00020278,-0.00143990,-0.00028623,0.0
 0022084,0.00005992,-0.00002409,-0.00008800,-0.00003528,0.00003299,-0.0
 0005932,-0.00003555,-0.00000289,-0.00002334,0.00001237,0.00001559,0.00
 000671,0.00000322,-0.00002634,0.00000511,-0.00001695,0.00012420,-0.000
 04551,-0.00035119,-0.01767153,0.01574269,0.50680649,0.00359306,0.00197
 853,-0.00444334,0.00467201,0.00214221,-0.00124358,-0.16837845,-0.12109
 706,-0.06419445,-0.01203009,-0.02183588,-0.00684574,-0.00290451,0.0026
 6854,-0.00406365,0.00021074,0.00085679,0.00088103,-0.00005950,-0.00032
 203,0.00110012,0.00238726,0.00147056,0.00284295,-0.00018314,-0.0000367
 9,0.00024442,-0.00007121,-0.00001614,-0.00022707,-0.00004179,-0.000031
 67,-0.00011541,0.00005636,0.00002408,-0.00001304,-0.00004118,-0.000025
 79,0.00007549,0.00000154,-0.00005449,0.00002402,-0.00111516,-0.0009132
 5,-0.00049989,-0.00101708,0.00150876,0.00313927,0.17411231,0.00358242,
 -0.00064846,0.00370058,-0.02218132,-0.01776221,-0.01026775,-0.12191625
 ,-0.17745536,-0.05449242,0.00671020,0.00593388,0.00388208,0.00137469,0
 .00043581,0.00125893,-0.00010770,-0.00059244,-0.00021023,-0.00108654,-
 0.00299499,-0.00026213,-0.00059006,0.00215730,-0.00103218,0.00031703,0
 .00041898,0.00010956,-0.00007007,0.00000768,0.00002498,-0.00008124,-0.
 00033927,-0.00011453,-0.00002675,0.00001206,0.00000279,-0.00000454,0.0
 0002636,-0.00002929,-0.00002211,-0.00000182,-0.00000896,0.00028549,0.0
 0039050,0.00010033,-0.00135467,0.00046015,-0.00182674,0.13355017,0.189
 25278,-0.00468573,0.00256361,0.00705430,0.00212422,0.00538142,0.006767
 59,-0.06410764,-0.05399825,-0.06673486,-0.01077287,-0.01363220,-0.0005
 8361,-0.00366780,0.00204337,0.00055070,0.00055427,0.00036657,-0.000977
 02,0.00117549,-0.00031388,-0.00096241,0.00315096,0.00020979,-0.0006749
 5,0.00023832,0.00009040,-0.00045611,-0.00007945,-0.00006183,0.00026810
 ,0.00000927,-0.00013666,0.00006333,-0.00003033,-0.00001939,-0.00006855
 ,0.00009039,0.00004653,0.00003338,-0.00000614,-0.00002679,-0.00001169,
 -0.00062346,-0.00063101,-0.00040896,0.00354259,-0.00017895,-0.00426013
 ,0.07321279,0.05821213,0.05988664,-0.00078924,0.00317469,-0.00212039,-
 0.01342114,0.01812147,0.01181230,-0.00227154,-0.00126621,-0.00128642,0
 .00104655,0.00050656,-0.00114386,-0.00042178,0.00079432,-0.00009710,0.
 00062278,-0.00082729,0.00022016,0.00174686,-0.00224188,0.00099707,-0.0
 0039970,-0.00009833,0.00000012,0.00024021,0.00047951,0.00027091,-0.000
 01556,-0.00000832,-0.00002638,0.00001414,-0.00044970,-0.00007327,0.000
 02159,0.00000615,-0.00000865,0.00000390,0.00000655,0.00000743,-0.00001
 086,-0.00002011,-0.00000266,-0.00000387,-0.00001863,-0.00000619,-0.113
 65401,0.08942821,0.06852502,-0.00016860,0.00023877,0.00048962,0.122143
 69,-0.00120954,-0.00148319,0.00021053,0.00840627,-0.00952276,-0.001560
 49,0.00142474,0.00095135,0.00059456,-0.00012615,-0.00004997,0.00107044
 ,-0.00000996,-0.00035495,-0.00005184,0.00027658,0.00024577,0.00002138,
 -0.00050328,0.00118080,-0.00047118,0.00013656,-0.00019019,0.00002254,-
 0.00018630,-0.00031937,-0.00014213,0.00003291,0.00001068,0.00001345,0.
 00003948,0.00027976,0.00009330,-0.00000505,-0.00001120,0.00000056,0.00
 000434,-0.00001140,0.00000233,0.00001541,0.00001659,0.00000432,0.00003
 619,-0.00000701,0.00001573,0.08845826,-0.16246426,-0.09413000,0.000414
 97,0.00013575,-0.00056160,-0.10202671,0.17731979,-0.00026366,-0.000538
 63,0.00024025,-0.01014890,0.01411856,0.01091029,-0.00162807,0.00018273
 ,-0.00130661,0.00093616,0.00030453,-0.00122477,-0.00021922,0.00008543,
 -0.00000454,0.00038777,0.00016674,-0.00021905,-0.00060795,0.00011134,-
 0.00029191,-0.00028333,0.00007834,0.00009335,0.00003013,-0.00001062,0.
 00005191,0.00000034,0.00000895,0.00000537,0.00001167,-0.00000577,-0.00
 001900,-0.00000024,0.00000125,-0.00000582,0.00000141,-0.00000037,0.000
 00367,0.00000612,-0.00000258,0.00000245,-0.00003941,0.00001078,0.00004
 407,0.06799387,-0.09199020,-0.11166995,-0.00029076,0.00021215,0.000495
 60,-0.07348444,0.09936232,0.12330079,-0.00238479,0.00268065,-0.0027311
 8,-0.01630643,-0.02063405,-0.00560957,0.00101999,-0.00215839,0.0011545
 9,-0.00018326,0.00033505,-0.00000383,0.00026031,0.00000392,0.00016045,
 -0.00072590,-0.00151413,-0.00042294,0.00057628,0.00065500,-0.00015040,
 0.00009052,0.00018267,0.00002961,-0.00010454,0.00061983,-0.00000766,-0
 .00011793,-0.00011733,-0.00004335,-0.00000462,-0.00024949,-0.00005244,
 -0.00000255,0.00001176,0.00000955,0.00000195,0.00001342,-0.00001315,-0
 .00006122,-0.00000184,-0.00001569,0.00006178,0.00008130,-0.00000299,-0
 .13843227,-0.11565274,-0.03580464,0.00054237,0.00123429,-0.00002649,0.
 01141857,0.01239325,0.00271495,0.15095636,0.00168839,-0.00243347,0.001
 75785,0.00770511,0.00763607,0.00312064,0.00142222,0.00038758,0.0007291
 2,-0.00008526,0.00023892,-0.00010604,0.00013677,0.00025122,0.00008748,
 0.00005183,0.00015467,0.00005002,-0.00166378,0.00095893,-0.00111727,-0
 .00008125,0.00028914,-0.00009288,0.00032359,0.00014700,0.00018357,-0.0
 0000786,0.00004623,-0.00001941,-0.00009693,-0.00017668,-0.00008873,-0.
 00000552,0.00001006,0.00000220,-0.00001463,0.00001201,-0.00000966,0.00
 000326,-0.00001423,0.00000137,-0.00000958,0.00003064,-0.00001390,-0.11
 863926,-0.19764377,-0.04788545,0.00002760,0.00030419,0.00002359,-0.012
 96938,-0.01529751,-0.00323738,0.12891326,0.21551909,-0.00256254,0.0023
 6938,-0.00055993,-0.01067915,-0.01420506,-0.00555535,0.00069171,-0.001
 44878,0.00023318,0.00004124,0.00012472,-0.00022625,0.00014344,-0.00004
 181,0.00009391,-0.00057827,-0.00092812,-0.00021210,0.00033522,0.000315
 16,0.00071529,0.00006956,0.00006023,0.00003108,-0.00006102,0.00035455,
 -0.00010025,-0.00007288,-0.00007345,-0.00000282,0.00000759,-0.00013415
 ,-0.00000453,-0.00000318,0.00000639,0.00000302,0.00000459,0.00000660,-
 0.00000647,-0.00003746,-0.00000101,-0.00001157,0.00001852,0.00004523,0
 .00003398,-0.03527756,-0.04614978,-0.06228268,0.00014871,0.00074655,0.
 00031129,-0.01094682,-0.01175800,-0.00439652,0.04332342,0.05059623,0.0
 6325561,-0.00089179,0.00052867,-0.00055785,0.00949410,0.01318601,-0.02
 284790,-0.00230128,-0.00033815,-0.00109680,-0.00064823,0.00084752,0.00
 166837,-0.00020360,0.00040787,-0.00036217,0.00007839,-0.00010508,0.000
 64641,-0.00002087,-0.00073482,0.00030434,-0.00011089,-0.00008555,-0.00
 038958,0.00018051,0.00016724,0.00011190,0.00000531,0.00000679,-0.00000
 955,-0.00001520,-0.00020248,-0.00002661,0.00000889,0.00000760,-0.00000
 469,-0.00000075,0.00000541,0.00000771,0.00000047,-0.00001370,-0.000003
 16,0.00002752,-0.00001237,-0.00006401,-0.06993207,-0.03816612,0.066557
 38,0.00043505,0.00014818,-0.00058799,-0.00610199,-0.00757196,0.0148835
 4,-0.00660462,-0.00669858,0.01543488,0.07660103,-0.00081111,-0.0010323
 2,-0.00052827,0.00048600,-0.00761083,0.01087738,0.00133650,0.00075948,
 0.00070442,0.00093244,-0.00030053,-0.00066967,-0.00008023,-0.00026124,
 0.00002907,0.00017744,0.00012530,0.00018235,-0.00015898,0.00073527,-0.
 00042999,0.00002992,-0.00018824,0.00016874,-0.00017743,-0.00023757,-0.
 00011434,0.00003593,0.00000516,0.00002109,0.00003921,0.00019468,0.0000
 6183,0.00000445,-0.00001000,0.00000192,0.00000191,-0.00000557,-0.00000
 084,0.00001389,0.00001230,0.00000337,0.00001804,-0.00000473,0.00004177
 ,-0.04053627,-0.09469715,0.09644970,-0.00030911,0.00025910,0.00062315,
 0.00717033,0.00957130,-0.01885758,-0.00679644,-0.01042009,0.02011512,0
 .03862352,0.10310567,-0.00138093,0.00359228,-0.00059307,0.00254077,0.0
 0912128,-0.01377938,-0.00132212,-0.00160903,-0.00070539,-0.00052334,0.
 00047878,0.00063281,-0.00010171,0.00087985,-0.00027592,0.00025304,-0.0
 0098059,0.00039371,0.00150723,-0.00220105,0.00194304,-0.00014164,-0.00
 010126,-0.00016573,0.00031334,0.00050032,0.00023842,-0.00002501,-0.000
 00386,-0.00004157,-0.00002881,-0.00046082,-0.00003569,0.00001416,0.000
 01462,-0.00000422,-0.00000228,0.00000965,0.00000587,-0.00001708,-0.000
 02417,-0.00000850,-0.00000868,-0.00001932,0.00000062,0.06795384,0.0962
 0596,-0.22249924,0.00026813,-0.00000584,-0.00029265,0.00687354,0.00726
 378,-0.01600959,-0.00250823,-0.00398135,0.00868111,-0.07366423,-0.1086
 7922,0.24251536\\0.,0.00001619,-0.00002108,-0.00000205,0.00000103,0.00
 000219,0.00000330,-0.00000013,0.00000862,-0.00000240,0.00000946,-0.000
 00326,0.00000154,0.00000282,0.00000219,-0.00000067,-0.00001240,0.00000
 343,-0.00000428,-0.00001169,0.00000381,-0.00000038,-0.00000706,0.00000
 203,0.00000378,-0.00000064,0.00000242,-0.00000058,-0.00000730,-0.00002
 647,0.00000174,0.00000035,0.00000833,0.00000139,0.00000235,0.00000547,
 -0.00000483,0.00000486,0.00000802,0.00000068,0.00000066,0.00000354,0.0
 0000412,0.00000243,0.00000181,0.00000047,-0.00000007,-0.00000322,-0.00
 000001,0.,-0.00000128,-0.00000247,-0.00000177,0.00000168,0.00000028,-0
 .00000043,-0.00000055,0.00000034,0.00000133,0.00000230\\\@


 Human beings, who are almost unique in having the
 ability to learn from the experience of others, are
 also remarkable for their apparent disinclination to do so.
                               -- Douglas Adams,
                                Last Chance to See
 Job cpu time:       0 days  1 hours  6 minutes 13.7 seconds.
 Elapsed time:       0 days  0 hours  8 minutes 22.2 seconds.
 File lengths (MBytes):  RWF=    415 Int=      0 D2E=      0 Chk=     13 Scr=      1
 Normal termination of Gaussian 16 at Sat Jan  6 05:51:06 2024.
