 Entering Gaussian System, Link 0=g16
 Input=227-rad-PCM.com
 Output=227-rad-PCM.log
 Initial command:
 /sysapps/ubuntu-applications/gaussian/Gaussian/AVX2/g16/l1.exe "/scratch/selhajj1/4304467/Gau-2980083.inp" -scrdir="/scratch/selhajj1/4304467/"
 Entering Link 1 = /sysapps/ubuntu-applications/gaussian/Gaussian/AVX2/g16/l1.exe PID=   2980098.
  
 Copyright (c) 1988,1990,1992,1993,1995,1998,2003,2009,2016,
            Gaussian, Inc.  All Rights Reserved.
  
 This is part of the Gaussian(R) 16 program.  It is based on
 the Gaussian(R) 09 system (copyright 2009, Gaussian, Inc.),
 the Gaussian(R) 03 system (copyright 2003, Gaussian, Inc.),
 the Gaussian(R) 98 system (copyright 1998, Gaussian, Inc.),
 the Gaussian(R) 94 system (copyright 1995, Gaussian, Inc.),
 the Gaussian 92(TM) system (copyright 1992, Gaussian, Inc.),
 the Gaussian 90(TM) system (copyright 1990, Gaussian, Inc.),
 the Gaussian 88(TM) system (copyright 1988, Gaussian, Inc.),
 the Gaussian 86(TM) system (copyright 1986, Carnegie Mellon
 University), and the Gaussian 82(TM) system (copyright 1983,
 Carnegie Mellon University). Gaussian is a federally registered
 trademark of Gaussian, Inc.
  
 This software contains proprietary and confidential information,
 including trade secrets, belonging to Gaussian, Inc.
  
 This software is provided under written license and may be
 used, copied, transmitted, or stored only in accord with that
 written license.
  
 The following legend is applicable only to US Government
 contracts under FAR:
  
                    RESTRICTED RIGHTS LEGEND
  
 Use, reproduction and disclosure by the US Government is
 subject to restrictions as set forth in subparagraphs (a)
 and (c) of the Commercial Computer Software - Restricted
 Rights clause in FAR 52.227-19.
  
 Gaussian, Inc.
 340 Quinnipiac St., Bldg. 40, Wallingford CT 06492
  
  
 ---------------------------------------------------------------
 Warning -- This program may not be used in any manner that
 competes with the business of Gaussian, Inc. or will provide
 assistance to any competitor of Gaussian, Inc.  The licensee
 of this program is prohibited from giving any competitor of
 Gaussian, Inc. access to this program.  By using this program,
 the user acknowledges that Gaussian, Inc. is engaged in the
 business of creating and licensing software in the field of
 computational chemistry and represents and warrants to the
 licensee that it is not a competitor of Gaussian, Inc. and that
 it will not use this program in any manner prohibited above.
 ---------------------------------------------------------------
  

 Cite this work as:
 Gaussian 16, Revision A.03,
 M. J. Frisch, G. W. Trucks, H. B. Schlegel, G. E. Scuseria, 
 M. A. Robb, J. R. Cheeseman, G. Scalmani, V. Barone, 
 G. A. Petersson, H. Nakatsuji, X. Li, M. Caricato, A. V. Marenich, 
 J. Bloino, B. G. Janesko, R. Gomperts, B. Mennucci, H. P. Hratchian, 
 J. V. Ortiz, A. F. Izmaylov, J. L. Sonnenberg, D. Williams-Young, 
 F. Ding, F. Lipparini, F. Egidi, J. Goings, B. Peng, A. Petrone, 
 T. Henderson, D. Ranasinghe, V. G. Zakrzewski, J. Gao, N. Rega, 
 G. Zheng, W. Liang, M. Hada, M. Ehara, K. Toyota, R. Fukuda, 
 J. Hasegawa, M. Ishida, T. Nakajima, Y. Honda, O. Kitao, H. Nakai, 
 T. Vreven, K. Throssell, J. A. Montgomery, Jr., J. E. Peralta, 
 F. Ogliaro, M. J. Bearpark, J. J. Heyd, E. N. Brothers, K. N. Kudin, 
 V. N. Staroverov, T. A. Keith, R. Kobayashi, J. Normand, 
 K. Raghavachari, A. P. Rendell, J. C. Burant, S. S. Iyengar, 
 J. Tomasi, M. Cossi, J. M. Millam, M. Klene, C. Adamo, R. Cammi, 
 J. W. Ochterski, R. L. Martin, K. Morokuma, O. Farkas, 
 J. B. Foresman, and D. J. Fox, Gaussian, Inc., Wallingford CT, 2016.
 
 ******************************************
 Gaussian 16:  ES64L-G16RevA.03 25-Dec-2016
                21-Jan-2024 
 ******************************************
 %chk=227-rad-PCM.chk
 %nproc=8
 Will use up to    8 processors via shared memory.
 %mem=30GB
 ----------------------------------------------------------------
 #P UB3LYP/6-311++G(d,p) SCRF=(PCM,Solvent=n,n-DiMethylFormamide)
 ----------------------------------------------------------------
 1/38=1,172=1/1;
 2/12=2,17=6,18=5,40=1/2;
 3/5=4,6=6,7=1111,11=2,25=1,30=1,70=2201,72=148,74=-5,116=2/1,2,3;
 4//1;
 5/5=2,38=5,53=148/2;
 6/7=2,8=2,9=2,10=2,28=1/1;
 99/5=1,9=1/99;
 Leave Link    1 at Sun Jan 21 08:10:55 2024, MaxMem=  4026531840 cpu:               0.3 elap:               0.1
 (Enter /sysapps/ubuntu-applications/gaussian/Gaussian/AVX2/g16/l101.exe)
 ------------------
 Radical PCM in DMF
 ------------------
 Symbolic Z-matrix:
 Charge = -1 Multiplicity = 2
 C                     5.67307  -5.10305   1.28226 
 C                     6.68163  -5.01959   0.34829 
 C                     6.59144  -4.06305  -0.69856 
 C                     4.54547  -4.25706   1.22505 
 C                     4.45532  -3.29778   0.17506 
 C                     5.48541  -3.2188   -0.77153 
 C                     3.49048  -4.37828   2.24158 
 C                     2.38255  -3.46841   2.09207 
 C                     2.2919   -2.54227   1.08146 
 C                     3.29918  -2.3845    0.06271 
 O                     3.55761  -5.22218   3.17444 
 O                     3.21037  -1.53644  -0.85882 
 C                     7.63533  -3.97432  -1.66814 
 N                     8.49254  -3.91685  -2.44631 
 H                     5.7151   -5.82294   2.09151 
 H                     7.54464  -5.6736    0.39972 
 H                     5.39417  -2.48151  -1.56036 
 H                     1.59671  -3.54969   2.83792 
 H                     1.4348   -1.87855   1.01295 
 
 ITRead=  0  0  0  0  0  0  0  0  0  0  0  0  0  0  0  0  0  0  0
 MicOpt= -1 -1 -1 -1 -1 -1 -1 -1 -1 -1 -1 -1 -1 -1 -1 -1 -1 -1 -1
 NAtoms=     19 NQM=       19 NQMF=       0 NMMI=      0 NMMIF=      0
                NMic=       0 NMicF=      0.
                    Isotopes and Nuclear Properties:
 (Nuclear quadrupole moments (NQMom) in fm**2, nuclear magnetic moments (NMagM)
  in nuclear magnetons)

  Atom         1           2           3           4           5           6           7           8           9          10
 IAtWgt=          12          12          12          12          12          12          12          12          12          12
 AtmWgt=  12.0000000  12.0000000  12.0000000  12.0000000  12.0000000  12.0000000  12.0000000  12.0000000  12.0000000  12.0000000
 NucSpn=           0           0           0           0           0           0           0           0           0           0
 AtZEff=  -0.0000000  -0.0000000  -0.0000000  -0.0000000  -0.0000000  -0.0000000  -0.0000000  -0.0000000  -0.0000000  -0.0000000
 NQMom=    0.0000000   0.0000000   0.0000000   0.0000000   0.0000000   0.0000000   0.0000000   0.0000000   0.0000000   0.0000000
 NMagM=    0.0000000   0.0000000   0.0000000   0.0000000   0.0000000   0.0000000   0.0000000   0.0000000   0.0000000   0.0000000
 AtZNuc=   6.0000000   6.0000000   6.0000000   6.0000000   6.0000000   6.0000000   6.0000000   6.0000000   6.0000000   6.0000000

  Atom        11          12          13          14          15          16          17          18          19
 IAtWgt=          16          16          12          14           1           1           1           1           1
 AtmWgt=  15.9949146  15.9949146  12.0000000  14.0030740   1.0078250   1.0078250   1.0078250   1.0078250   1.0078250
 NucSpn=           0           0           0           2           1           1           1           1           1
 AtZEff=  -0.0000000  -0.0000000  -0.0000000  -0.0000000  -0.0000000  -0.0000000  -0.0000000  -0.0000000  -0.0000000
 NQMom=    0.0000000   0.0000000   0.0000000   2.0440000   0.0000000   0.0000000   0.0000000   0.0000000   0.0000000
 NMagM=    0.0000000   0.0000000   0.0000000   0.4037610   2.7928460   2.7928460   2.7928460   2.7928460   2.7928460
 AtZNuc=   8.0000000   8.0000000   6.0000000   7.0000000   1.0000000   1.0000000   1.0000000   1.0000000   1.0000000
 Leave Link  101 at Sun Jan 21 08:10:55 2024, MaxMem=  4026531840 cpu:               0.7 elap:               0.2
 (Enter /sysapps/ubuntu-applications/gaussian/Gaussian/AVX2/g16/l202.exe)
                          Input orientation:                          
 ---------------------------------------------------------------------
 Center     Atomic      Atomic             Coordinates (Angstroms)
 Number     Number       Type             X           Y           Z
 ---------------------------------------------------------------------
      1          6           0        5.673068   -5.103047    1.282258
      2          6           0        6.681635   -5.019595    0.348289
      3          6           0        6.591437   -4.063049   -0.698563
      4          6           0        4.545471   -4.257065    1.225045
      5          6           0        4.455318   -3.297782    0.175056
      6          6           0        5.485413   -3.218803   -0.771526
      7          6           0        3.490484   -4.378280    2.241579
      8          6           0        2.382552   -3.468410    2.092066
      9          6           0        2.291897   -2.542272    1.081463
     10          6           0        3.299184   -2.384504    0.062713
     11          8           0        3.557608   -5.222184    3.174441
     12          8           0        3.210374   -1.536441   -0.858822
     13          6           0        7.635326   -3.974320   -1.668140
     14          7           0        8.492541   -3.916847   -2.446310
     15          1           0        5.715103   -5.822943    2.091508
     16          1           0        7.544642   -5.673602    0.399720
     17          1           0        5.394167   -2.481506   -1.560356
     18          1           0        1.596713   -3.549687    2.837917
     19          1           0        1.434796   -1.878554    1.012952
 ---------------------------------------------------------------------
                    Distance matrix (angstroms):
                    1          2          3          4          5
     1  C    0.000000
     2  C    1.377124   0.000000
     3  C    2.418398   1.420920   0.000000
     4  C    1.410827   2.431738   2.814940   0.000000
     5  C    2.442907   2.819776   2.431429   1.425071   0.000000
     6  C    2.793496   2.434704   1.393328   2.438806   1.401196
     7  C    2.491838   3.765538   4.284824   1.470045   2.523668
     8  C    3.762356   4.891733   5.084872   2.460065   2.828498
     9  C    4.246199   5.093572   4.895641   2.835441   2.464297
    10  C    3.809605   4.297236   3.773060   2.531942   1.477614
    11  O    2.840725   4.217549   5.054490   2.389032   3.674985
    12  O    4.834228   5.063510   4.223863   3.677877   2.391884
    13  C    3.718781   2.463354   1.427465   4.242366   3.737315
    14  N    4.822729   3.507879   2.586540   5.401292   4.853243
    15  H    1.083929   2.149038   3.413163   2.137936   3.411200
    16  H    2.146438   1.084044   2.169955   3.418006   3.903706
    17  H    3.876947   3.426718   2.162735   3.410477   2.135275
    18  H    4.631379   5.849385   6.141457   3.434664   3.914832
    19  H    5.332244   6.151198   5.855958   3.921555   3.440906
                    6          7          8          9         10
     6  C    0.000000
     7  C    3.795119   0.000000
     8  C    4.229682   1.441434   0.000000
     9  C    3.753639   2.480606   1.373779   0.000000
    10  C    2.484272   2.959594   2.476558   1.441308   0.000000
    11  O    4.827072   1.259727   2.372344   3.628293   4.219249
    12  O    2.830859   4.215092   3.622918   2.370654   1.255518
    13  C    2.448846   5.712163   6.479717   6.177646   4.932088
    14  N    3.512120   6.870939   7.624298   7.265165   5.967766
    15  H    3.877018   2.656784   4.080407   4.847817   4.666427
    16  H    3.411492   4.637510   5.862941   6.153156   5.381046
    17  H    1.083598   4.655800   4.835700   4.075166   2.651927
    18  H    5.315971   2.151407   1.086482   2.140863   3.458008
    19  H    4.624730   3.461793   2.142515   1.086203   2.152878
                   11         12         13         14         15
    11  O    0.000000
    12  O    5.474713   0.000000
    13  C    6.452561   5.116488   0.000000
    14  N    7.592780   6.007307   1.159167   0.000000
    15  H    2.487658   5.775138   4.608646   5.651474   0.000000
    16  H    4.878452   6.122574   2.678027   3.476289   2.496330
    17  H    5.770838   2.480776   2.694978   3.527753   4.960273
    18  H    2.599154   4.508097   7.546503   8.695419   4.762978
    19  H    4.512009   2.602548   7.072981   8.119907   5.919672
                   16         17         18         19
    16  H    0.000000
    17  H    4.319250   0.000000
    18  H    6.770058   5.908170   0.000000
    19  H    7.218633   4.760471   2.479798   0.000000
 Stoichiometry    C11H5NO2(1-,2)
 Framework group  C1[X(C11H5NO2)]
 Deg. of freedom    51
 Full point group                 C1      NOp   1
 Largest Abelian subgroup         C1      NOp   1
 Largest concise Abelian subgroup C1      NOp   1
                         Standard orientation:                         
 ---------------------------------------------------------------------
 Center     Atomic      Atomic             Coordinates (Angstroms)
 Number     Number       Type             X           Y           Z
 ---------------------------------------------------------------------
      1          6           0       -0.337932   -1.815293   -0.000195
      2          6           0       -1.687478   -1.541072   -0.000078
      3          6           0       -2.129294   -0.190586   -0.000033
      4          6           0        0.622791   -0.782120   -0.000259
      5          6           0        0.179382    0.572212   -0.000277
      6          6           0       -1.195326    0.843371   -0.000151
      7          6           0        2.054131   -1.117230   -0.000270
      8          6           0        2.951590    0.010731    0.000292
      9          6           0        2.528229    1.317649    0.000212
     10          6           0        1.137715    1.696909   -0.000410
     11          8           0        2.459387   -2.309991    0.000282
     12          8           0        0.756986    2.893308    0.000051
     13          6           0       -3.527556    0.096677    0.000166
     14          7           0       -4.666807    0.310633    0.000343
     15          1           0        0.027896   -2.835622   -0.000209
     16          1           0       -2.418966   -2.341120   -0.000019
     17          1           0       -1.507820    1.880933   -0.000157
     18          1           0        4.012063   -0.225572    0.000727
     19          1           0        3.245977    2.132925    0.000610
 ---------------------------------------------------------------------
 Rotational constants (GHZ):           1.2601551           0.5292698           0.3727242
 Leave Link  202 at Sun Jan 21 08:10:55 2024, MaxMem=  4026531840 cpu:               0.2 elap:               0.1
 (Enter /sysapps/ubuntu-applications/gaussian/Gaussian/AVX2/g16/l301.exe)
 Standard basis: 6-311++G(d,p) (5D, 7F)
 Ernie: Thresh=  0.10000D-02 Tol=  0.10000D-05 Strict=F.
 There are   357 symmetry adapted cartesian basis functions of A   symmetry.
 There are   343 symmetry adapted basis functions of A   symmetry.
   343 basis functions,   549 primitive gaussians,   357 cartesian basis functions
    48 alpha electrons       47 beta electrons
       nuclear repulsion energy       756.9506088441 Hartrees.
 IExCor=  402 DFT=T Ex+Corr=B3LYP ExCW=0 ScaHFX=  0.200000
 ScaDFX=  0.800000  0.720000  1.000000  0.810000 ScalE2=  1.000000  1.000000
 IRadAn=      5 IRanWt=     -1 IRanGd=            0 ICorTp=0 IEmpDi=  4
 NAtoms=   19 NActive=   19 NUniq=   19 SFac= 1.00D+00 NAtFMM=   60 NAOKFM=F Big=F
 Integral buffers will be    131072 words long.
 Raffenetti 2 integral format.
 Two-electron integral symmetry is turned on.
 ------------------------------------------------------------------------------
 Polarizable Continuum Model (PCM)
 =================================
 Model                : PCM.
 Atomic radii         : UFF (Universal Force Field).
 Polarization charges : Total charges.
 Charge compensation  : None.
 Solution method      : On-the-fly selection.
 Cavity type          : Scaled VdW (van der Waals Surface) (Alpha=1.100).
 Cavity algorithm     : GePol (No added spheres)
                        Default sphere list used, NSphG=   19.
                        Lebedev-Laikov grids with approx.  5.0 points / Ang**2.
                        Smoothing algorithm: York/Karplus (Gamma=1.0000).
                        Polarization charges: spherical gaussians, with
                                              point-specific exponents (IZeta= 3).
                        Self-potential: point-specific (ISelfS= 7).
                        Self-field    : sphere-specific E.n sum rule (ISelfD= 2).
 Solvent              : n,n-DiMethylFormamide, Eps=  37.219000 Eps(inf)=   2.046330
 ------------------------------------------------------------------------------
 Spheres list:
 ISph  on   Nord     Re0    Alpha      Xe            Ye            Ze
    1   C      1    1.9255  1.100     -0.337932     -1.815293     -0.000195
    2   C      2    1.9255  1.100     -1.687478     -1.541072     -0.000078
    3   C      3    1.9255  1.100     -2.129294     -0.190586     -0.000033
    4   C      4    1.9255  1.100      0.622791     -0.782120     -0.000259
    5   C      5    1.9255  1.100      0.179382      0.572212     -0.000277
    6   C      6    1.9255  1.100     -1.195326      0.843371     -0.000151
    7   C      7    1.9255  1.100      2.054131     -1.117230     -0.000270
    8   C      8    1.9255  1.100      2.951590      0.010731      0.000292
    9   C      9    1.9255  1.100      2.528229      1.317649      0.000212
   10   C     10    1.9255  1.100      1.137715      1.696909     -0.000410
   11   O     11    1.7500  1.100      2.459387     -2.309991      0.000282
   12   O     12    1.7500  1.100      0.756986      2.893308      0.000051
   13   C     13    1.9255  1.100     -3.527556      0.096677      0.000166
   14   N     14    1.8300  1.100     -4.666807      0.310633      0.000343
   15   H     15    1.4430  1.100      0.027896     -2.835622     -0.000209
   16   H     16    1.4430  1.100     -2.418966     -2.341120     -0.000019
   17   H     17    1.4430  1.100     -1.507820      1.880933     -0.000157
   18   H     18    1.4430  1.100      4.012063     -0.225572      0.000727
   19   H     19    1.4430  1.100      3.245977      2.132925      0.000610
 ------------------------------------------------------------------------------
 GePol: Number of generator spheres                  =      19
 GePol: Total number of spheres                      =      19
 GePol: Number of exposed spheres                    =      19 (100.00%)
 GePol: Number of points                             =    1786
 GePol: Average weight of points                     =       0.13
 GePol: Minimum weight of points                     =   0.91D-10
 GePol: Maximum weight of points                     =    0.20577
 GePol: Number of points with low weight             =     103
 GePol: Fraction of low-weight points (<1% of avg)   =       5.77%
 GePol: Cavity surface area                          =    232.493 Ang**2
 GePol: Cavity volume                                =    242.337 Ang**3
 Leave Link  301 at Sun Jan 21 08:10:55 2024, MaxMem=  4026531840 cpu:               0.6 elap:               0.2
 (Enter /sysapps/ubuntu-applications/gaussian/Gaussian/AVX2/g16/l302.exe)
 NPDir=0 NMtPBC=     1 NCelOv=     1 NCel=       1 NClECP=     1 NCelD=      1
         NCelK=      1 NCelE2=     1 NClLst=     1 CellRange=     0.0.
 One-electron integrals computed using PRISM.
 One-electron integral symmetry used in STVInt
 NBasis=   343 RedAO= T EigKep=  1.18D-06  NBF=   343
 NBsUse=   341 1.00D-06 EigRej=  5.83D-07 NBFU=   341
 Precomputing XC quadrature grid using
 IXCGrd= 4 IRadAn=           5 IRanWt=          -1 IRanGd=           0 AccXCQ= 0.00D+00.
 Generated NRdTot=       0 NPtTot=           0 NUsed=           0 NTot=          32
 NSgBfM=   356   356   356   356   356 MxSgAt=    19 MxSgA2=    19.
 Leave Link  302 at Sun Jan 21 08:10:57 2024, MaxMem=  4026531840 cpu:               4.9 elap:               1.1
 (Enter /sysapps/ubuntu-applications/gaussian/Gaussian/AVX2/g16/l303.exe)
 DipDrv:  MaxL=1.
 Leave Link  303 at Sun Jan 21 08:10:57 2024, MaxMem=  4026531840 cpu:               0.7 elap:               0.2
 (Enter /sysapps/ubuntu-applications/gaussian/Gaussian/AVX2/g16/l401.exe)
 ExpMin= 3.60D-02 ExpMax= 8.59D+03 ExpMxC= 1.30D+03 IAcc=3 IRadAn=         5 AccDes= 0.00D+00
 Harris functional with IExCor=  402 and IRadAn=       5 diagonalized for initial guess.
 HarFok:  IExCor=  402 AccDes= 0.00D+00 IRadAn=         5 IDoV= 1 UseB2=F ITyADJ=14
 ICtDFT=  3500011 ScaDFX=  1.000000  1.000000  1.000000  1.000000
 FoFCou: FMM=F IPFlag=           0 FMFlag=      100000 FMFlg1=           0
         NFxFlg=           0 DoJE=T BraDBF=F KetDBF=T FulRan=T
         wScrn=  0.000000 ICntrl=       500 IOpCl=  0 I1Cent=   200000004 NGrid=           0
         NMat0=    1 NMatS0=      1 NMatT0=    0 NMatD0=    1 NMtDS0=    0 NMtDT0=    0
 Petite list used in FoFCou.
 Harris En= -627.754458166033    
 JPrj=0 DoOrth=F DoCkMO=F.
 Initial guess <Sx>= 0.0000 <Sy>= 0.0000 <Sz>= 0.5000 <S**2>= 0.7500 S= 0.5000
 Leave Link  401 at Sun Jan 21 08:10:58 2024, MaxMem=  4026531840 cpu:               7.4 elap:               1.1
 (Enter /sysapps/ubuntu-applications/gaussian/Gaussian/AVX2/g16/l502.exe)
 Integral symmetry usage will be decided dynamically.
 UHF open shell SCF:
 Using DIIS extrapolation, IDIIS=  1040.
 NGot=  4026531840 LenX=  4026270769 LenY=  4026142879
 Requested convergence on RMS density matrix=1.00D-08 within 128 cycles.
 Requested convergence on MAX density matrix=1.00D-06.
 Requested convergence on             energy=1.00D-06.
 No special actions if energy rises.
 Fock matrices will be formed incrementally for  20 cycles.

 Cycle   1  Pass 1  IDiag  1:
 FoFJK:  IHMeth= 1 ICntrl=       0 DoSepK=F KAlg= 0 I1Cent=           0 FoldK=F
 IRaf= 900000000 NMat=       1 IRICut=       1 DoRegI=T DoRafI=F ISym2E= 0 IDoP0=0 IntGTp=1.
 FoFCou: FMM=F IPFlag=           0 FMFlag=      100000 FMFlg1=           0
         NFxFlg=           0 DoJE=F BraDBF=F KetDBF=F FulRan=T
         wScrn=  0.000000 ICntrl=         0 IOpCl=  1 I1Cent=           0 NGrid=           0
         NMat0=    1 NMatS0=      1 NMatT0=    0 NMatD0=    1 NMtDS0=    0 NMtDT0=    0
 Symmetry not used in FoFCou.
 Inv3:  Mode=1 IEnd=     9569388.
 Iteration    1 A*A^-1 deviation from unit magnitude is 3.33D-15 for   1478.
 Iteration    1 A*A^-1 deviation from orthogonality  is 1.69D-15 for   1771   1648.
 Iteration    1 A^-1*A deviation from unit magnitude is 3.55D-15 for   1663.
 Iteration    1 A^-1*A deviation from orthogonality  is 1.46D-15 for    541     81.
 E= -627.351405605014    
 DIIS: error= 4.04D-02 at cycle   1 NSaved=   1.
 NSaved= 1 IEnMin= 1 EnMin= -627.351405605014     IErMin= 1 ErrMin= 4.04D-02
 ErrMax= 4.04D-02  0.00D+00 EMaxC= 1.00D-01 BMatC= 1.66D+00 BMatP= 1.66D+00
 IDIUse=3 WtCom= 5.96D-01 WtEn= 4.04D-01
 Coeff-Com:  0.100D+01
 Coeff-En:   0.100D+01
 Coeff:      0.100D+01
 Gap=     0.073 Goal=   None    Shift=    0.000
 Gap=     0.183 Goal=   None    Shift=    0.000
 GapD=    0.073 DampG=0.500 DampE=0.500 DampFc=0.2500 IDamp=-1.
 Damping current iteration by 2.50D-01
 RMSDP=5.66D-02 MaxDP=8.04D+00              OVMax= 2.55D-01

 Cycle   2  Pass 1  IDiag  1:
 RMSU=  1.37D-02    CP:  1.04D+00
 E= -627.467224751969     Delta-E=       -0.115819146955 Rises=F Damp=T
 DIIS: error= 2.16D-02 at cycle   2 NSaved=   2.
 NSaved= 2 IEnMin= 2 EnMin= -627.467224751969     IErMin= 2 ErrMin= 2.16D-02
 ErrMax= 2.16D-02  0.00D+00 EMaxC= 1.00D-01 BMatC= 3.74D-01 BMatP= 1.66D+00
 IDIUse=3 WtCom= 7.84D-01 WtEn= 2.16D-01
 Coeff-Com: -0.619D+00 0.162D+01
 Coeff-En:   0.000D+00 0.100D+01
 Coeff:     -0.485D+00 0.148D+01
 Gap=     0.118 Goal=   None    Shift=    0.000
 Gap=     0.169 Goal=   None    Shift=    0.000
 RMSDP=2.14D-02 MaxDP=2.89D+00 DE=-1.16D-01 OVMax= 2.33D-01

 Cycle   3  Pass 1  IDiag  1:
 RMSU=  1.18D-02    CP:  8.72D-01  1.87D-01
 E= -627.648668841418     Delta-E=       -0.181444089449 Rises=F Damp=F
 DIIS: error= 1.48D-02 at cycle   3 NSaved=   3.
 NSaved= 3 IEnMin= 3 EnMin= -627.648668841418     IErMin= 3 ErrMin= 1.48D-02
 ErrMax= 1.48D-02  0.00D+00 EMaxC= 1.00D-01 BMatC= 1.56D-01 BMatP= 3.74D-01
 IDIUse=3 WtCom= 8.52D-01 WtEn= 1.48D-01
 Coeff-Com: -0.384D+00 0.870D+00 0.513D+00
 Coeff-En:   0.000D+00 0.000D+00 0.100D+01
 Coeff:     -0.327D+00 0.741D+00 0.586D+00
 Gap=     0.097 Goal=   None    Shift=    0.000
 Gap=     0.165 Goal=   None    Shift=    0.000
 RMSDP=6.22D-03 MaxDP=4.27D-01 DE=-1.81D-01 OVMax= 7.53D-02

 Cycle   4  Pass 1  IDiag  1:
 RMSU=  4.87D-03    CP:  9.13D-01  2.39D-01  8.49D-01
 E= -627.676316499456     Delta-E=       -0.027647658038 Rises=F Damp=F
 DIIS: error= 8.16D-03 at cycle   4 NSaved=   4.
 NSaved= 4 IEnMin= 4 EnMin= -627.676316499456     IErMin= 4 ErrMin= 8.16D-03
 ErrMax= 8.16D-03  0.00D+00 EMaxC= 1.00D-01 BMatC= 4.25D-02 BMatP= 1.56D-01
 IDIUse=3 WtCom= 9.18D-01 WtEn= 8.16D-02
 Coeff-Com: -0.638D-01 0.161D+00 0.351D+00 0.552D+00
 Coeff-En:   0.000D+00 0.000D+00 0.239D+00 0.761D+00
 Coeff:     -0.586D-01 0.148D+00 0.342D+00 0.569D+00
 Gap=     0.098 Goal=   None    Shift=    0.000
 Gap=     0.142 Goal=   None    Shift=    0.000
 RMSDP=4.02D-03 MaxDP=4.56D-01 DE=-2.76D-02 OVMax= 2.75D-02

 Cycle   5  Pass 1  IDiag  1:
 RMSU=  1.76D-03    CP:  8.75D-01  1.98D-01  8.18D-01  6.38D-01
 E= -627.685710919463     Delta-E=       -0.009394420007 Rises=F Damp=F
 DIIS: error= 1.61D-03 at cycle   5 NSaved=   5.
 NSaved= 5 IEnMin= 5 EnMin= -627.685710919463     IErMin= 5 ErrMin= 1.61D-03
 ErrMax= 1.61D-03  0.00D+00 EMaxC= 1.00D-01 BMatC= 2.27D-03 BMatP= 4.25D-02
 IDIUse=3 WtCom= 9.84D-01 WtEn= 1.61D-02
 Coeff-Com: -0.684D-02 0.224D-01 0.158D+00 0.328D+00 0.499D+00
 Coeff-En:   0.000D+00 0.000D+00 0.000D+00 0.000D+00 0.100D+01
 Coeff:     -0.673D-02 0.220D-01 0.156D+00 0.322D+00 0.507D+00
 Gap=     0.099 Goal=   None    Shift=    0.000
 Gap=     0.142 Goal=   None    Shift=    0.000
 RMSDP=7.09D-04 MaxDP=5.96D-02 DE=-9.39D-03 OVMax= 7.40D-03

 Cycle   6  Pass 1  IDiag  1:
 RMSU=  3.77D-04    CP:  8.69D-01  1.84D-01  8.26D-01  6.13D-01  9.22D-01
 E= -627.686133623332     Delta-E=       -0.000422703868 Rises=F Damp=F
 DIIS: error= 7.34D-04 at cycle   6 NSaved=   6.
 NSaved= 6 IEnMin= 6 EnMin= -627.686133623332     IErMin= 6 ErrMin= 7.34D-04
 ErrMax= 7.34D-04  0.00D+00 EMaxC= 1.00D-01 BMatC= 4.24D-04 BMatP= 2.27D-03
 IDIUse=3 WtCom= 9.93D-01 WtEn= 7.34D-03
 Coeff-Com:  0.592D-02-0.101D-01 0.554D-01 0.135D+00 0.330D+00 0.484D+00
 Coeff-En:   0.000D+00 0.000D+00 0.000D+00 0.000D+00 0.112D+00 0.888D+00
 Coeff:      0.587D-02-0.999D-02 0.550D-01 0.134D+00 0.328D+00 0.487D+00
 Gap=     0.100 Goal=   None    Shift=    0.000
 Gap=     0.142 Goal=   None    Shift=    0.000
 RMSDP=2.75D-04 MaxDP=2.41D-02 DE=-4.23D-04 OVMax= 3.21D-03

 Cycle   7  Pass 1  IDiag  1:
 RMSU=  2.13D-04    CP:  8.68D-01  1.83D-01  8.36D-01  5.98D-01  9.07D-01
                    CP:  1.03D+00
 E= -627.686220393582     Delta-E=       -0.000086770250 Rises=F Damp=F
 DIIS: error= 3.82D-04 at cycle   7 NSaved=   7.
 NSaved= 7 IEnMin= 7 EnMin= -627.686220393582     IErMin= 7 ErrMin= 3.82D-04
 ErrMax= 3.82D-04  0.00D+00 EMaxC= 1.00D-01 BMatC= 6.51D-05 BMatP= 4.24D-04
 IDIUse=3 WtCom= 9.96D-01 WtEn= 3.82D-03
 Coeff-Com:  0.451D-02-0.861D-02-0.138D-02 0.184D-02 0.603D-01 0.299D+00
 Coeff-Com:  0.645D+00
 Coeff-En:   0.000D+00 0.000D+00 0.000D+00 0.000D+00 0.000D+00 0.774D-01
 Coeff-En:   0.923D+00
 Coeff:      0.450D-02-0.858D-02-0.138D-02 0.183D-02 0.601D-01 0.298D+00
 Coeff:      0.646D+00
 Gap=     0.100 Goal=   None    Shift=    0.000
 Gap=     0.143 Goal=   None    Shift=    0.000
 RMSDP=1.23D-04 MaxDP=8.94D-03 DE=-8.68D-05 OVMax= 1.97D-03

 Cycle   8  Pass 1  IDiag  1:
 RMSU=  7.60D-05    CP:  8.68D-01  1.77D-01  8.35D-01  5.98D-01  9.14D-01
                    CP:  1.09D+00  8.54D-01
 E= -627.686240117315     Delta-E=       -0.000019723733 Rises=F Damp=F
 DIIS: error= 1.17D-04 at cycle   8 NSaved=   8.
 NSaved= 8 IEnMin= 8 EnMin= -627.686240117315     IErMin= 8 ErrMin= 1.17D-04
 ErrMax= 1.17D-04  0.00D+00 EMaxC= 1.00D-01 BMatC= 7.74D-06 BMatP= 6.51D-05
 IDIUse=3 WtCom= 9.99D-01 WtEn= 1.17D-03
 Coeff-Com:  0.121D-02-0.224D-02-0.138D-01-0.333D-01-0.640D-01 0.589D-03
 Coeff-Com:  0.236D+00 0.876D+00
 Coeff-En:   0.000D+00 0.000D+00 0.000D+00 0.000D+00 0.000D+00 0.000D+00
 Coeff-En:   0.000D+00 0.100D+01
 Coeff:      0.121D-02-0.223D-02-0.138D-01-0.333D-01-0.640D-01 0.589D-03
 Coeff:      0.235D+00 0.876D+00
 Gap=     0.100 Goal=   None    Shift=    0.000
 Gap=     0.143 Goal=   None    Shift=    0.000
 RMSDP=5.48D-05 MaxDP=4.47D-03 DE=-1.97D-05 OVMax= 1.40D-03

 Cycle   9  Pass 1  IDiag  1:
 RMSU=  4.24D-05    CP:  8.68D-01  1.76D-01  8.34D-01  5.94D-01  9.11D-01
                    CP:  1.13D+00  8.81D-01  1.24D+00
 E= -627.686243988639     Delta-E=       -0.000003871324 Rises=F Damp=F
 DIIS: error= 6.83D-05 at cycle   9 NSaved=   9.
 NSaved= 9 IEnMin= 9 EnMin= -627.686243988639     IErMin= 9 ErrMin= 6.83D-05
 ErrMax= 6.83D-05  0.00D+00 EMaxC= 1.00D-01 BMatC= 3.25D-06 BMatP= 7.74D-06
 IDIUse=1 WtCom= 1.00D+00 WtEn= 0.00D+00
 Coeff-Com: -0.172D-03 0.461D-03-0.746D-02-0.200D-01-0.553D-01-0.725D-01
 Coeff-Com: -0.160D-01 0.536D+00 0.635D+00
 Coeff:     -0.172D-03 0.461D-03-0.746D-02-0.200D-01-0.553D-01-0.725D-01
 Coeff:     -0.160D-01 0.536D+00 0.635D+00
 Gap=     0.100 Goal=   None    Shift=    0.000
 Gap=     0.143 Goal=   None    Shift=    0.000
 RMSDP=4.00D-05 MaxDP=4.55D-03 DE=-3.87D-06 OVMax= 6.69D-04

 Cycle  10  Pass 1  IDiag  1:
 RMSU=  2.24D-05    CP:  8.68D-01  1.76D-01  8.34D-01  5.91D-01  9.16D-01
                    CP:  1.15D+00  8.90D-01  1.33D+00  9.86D-01
 E= -627.686245133029     Delta-E=       -0.000001144390 Rises=F Damp=F
 DIIS: error= 2.19D-05 at cycle  10 NSaved=  10.
 NSaved=10 IEnMin=10 EnMin= -627.686245133029     IErMin=10 ErrMin= 2.19D-05
 ErrMax= 2.19D-05  0.00D+00 EMaxC= 1.00D-01 BMatC= 3.09D-07 BMatP= 3.25D-06
 IDIUse=1 WtCom= 1.00D+00 WtEn= 0.00D+00
 Coeff-Com: -0.308D-03 0.630D-03-0.162D-02-0.531D-02-0.181D-01-0.352D-01
 Coeff-Com: -0.369D-01 0.130D+00 0.292D+00 0.675D+00
 Coeff:     -0.308D-03 0.630D-03-0.162D-02-0.531D-02-0.181D-01-0.352D-01
 Coeff:     -0.369D-01 0.130D+00 0.292D+00 0.675D+00
 Gap=     0.100 Goal=   None    Shift=    0.000
 Gap=     0.143 Goal=   None    Shift=    0.000
 RMSDP=1.02D-05 MaxDP=8.10D-04 DE=-1.14D-06 OVMax= 2.17D-04

 Cycle  11  Pass 1  IDiag  1:
 RMSU=  5.57D-06    CP:  8.68D-01  1.76D-01  8.34D-01  5.91D-01  9.13D-01
                    CP:  1.14D+00  9.09D-01  1.37D+00  1.02D+00  1.08D+00
 E= -627.686245228595     Delta-E=       -0.000000095566 Rises=F Damp=F
 DIIS: error= 7.97D-06 at cycle  11 NSaved=  11.
 NSaved=11 IEnMin=11 EnMin= -627.686245228595     IErMin=11 ErrMin= 7.97D-06
 ErrMax= 7.97D-06  0.00D+00 EMaxC= 1.00D-01 BMatC= 7.13D-08 BMatP= 3.09D-07
 IDIUse=1 WtCom= 1.00D+00 WtEn= 0.00D+00
 Coeff-Com: -0.105D-03 0.201D-03 0.370D-03 0.395D-03-0.728D-03-0.711D-02
 Coeff-Com: -0.175D-01-0.153D-01 0.495D-01 0.369D+00 0.621D+00
 Coeff:     -0.105D-03 0.201D-03 0.370D-03 0.395D-03-0.728D-03-0.711D-02
 Coeff:     -0.175D-01-0.153D-01 0.495D-01 0.369D+00 0.621D+00
 Gap=     0.100 Goal=   None    Shift=    0.000
 Gap=     0.143 Goal=   None    Shift=    0.000
 RMSDP=4.81D-06 MaxDP=4.76D-04 DE=-9.56D-08 OVMax= 6.84D-05

 Cycle  12  Pass 1  IDiag  1:
 RMSU=  2.34D-06    CP:  8.68D-01  1.76D-01  8.34D-01  5.91D-01  9.13D-01
                    CP:  1.14D+00  9.01D-01  1.38D+00  1.04D+00  1.18D+00
                    CP:  9.88D-01
 E= -627.686245248408     Delta-E=       -0.000000019813 Rises=F Damp=F
 DIIS: error= 3.68D-06 at cycle  12 NSaved=  12.
 NSaved=12 IEnMin=12 EnMin= -627.686245248408     IErMin=12 ErrMin= 3.68D-06
 ErrMax= 3.68D-06  0.00D+00 EMaxC= 1.00D-01 BMatC= 7.78D-09 BMatP= 7.13D-08
 IDIUse=1 WtCom= 1.00D+00 WtEn= 0.00D+00
 Coeff-Com: -0.599D-05 0.127D-04 0.355D-03 0.753D-03 0.157D-02 0.539D-03
 Coeff-Com: -0.487D-02-0.205D-01-0.103D-01 0.943D-01 0.299D+00 0.639D+00
 Coeff:     -0.599D-05 0.127D-04 0.355D-03 0.753D-03 0.157D-02 0.539D-03
 Coeff:     -0.487D-02-0.205D-01-0.103D-01 0.943D-01 0.299D+00 0.639D+00
 Gap=     0.100 Goal=   None    Shift=    0.000
 Gap=     0.143 Goal=   None    Shift=    0.000
 RMSDP=1.24D-06 MaxDP=1.15D-04 DE=-1.98D-08 OVMax= 4.21D-05

 Cycle  13  Pass 1  IDiag  1:
 RMSU=  8.83D-07    CP:  8.68D-01  1.76D-01  8.34D-01  5.91D-01  9.13D-01
                    CP:  1.14D+00  9.00D-01  1.38D+00  1.05D+00  1.19D+00
                    CP:  1.02D+00  7.78D-01
 E= -627.686245249936     Delta-E=       -0.000000001528 Rises=F Damp=F
 DIIS: error= 2.11D-06 at cycle  13 NSaved=  13.
 NSaved=13 IEnMin=13 EnMin= -627.686245249936     IErMin=13 ErrMin= 2.11D-06
 ErrMax= 2.11D-06  0.00D+00 EMaxC= 1.00D-01 BMatC= 3.91D-09 BMatP= 7.78D-09
 IDIUse=1 WtCom= 1.00D+00 WtEn= 0.00D+00
 Coeff-Com:  0.228D-04-0.388D-04 0.156D-03 0.414D-03 0.123D-02 0.211D-02
 Coeff-Com:  0.706D-03-0.953D-02-0.186D-01-0.281D-01 0.574D-01 0.465D+00
 Coeff-Com:  0.529D+00
 Coeff:      0.228D-04-0.388D-04 0.156D-03 0.414D-03 0.123D-02 0.211D-02
 Coeff:      0.706D-03-0.953D-02-0.186D-01-0.281D-01 0.574D-01 0.465D+00
 Coeff:      0.529D+00
 Gap=     0.100 Goal=   None    Shift=    0.000
 Gap=     0.143 Goal=   None    Shift=    0.000
 RMSDP=6.88D-07 MaxDP=9.11D-05 DE=-1.53D-09 OVMax= 1.37D-05

 Cycle  14  Pass 1  IDiag  1:
 RMSU=  4.34D-07    CP:  8.68D-01  1.76D-01  8.34D-01  5.91D-01  9.13D-01
                    CP:  1.14D+00  9.00D-01  1.38D+00  1.05D+00  1.19D+00
                    CP:  1.03D+00  8.64D-01  6.58D-01
 E= -627.686245250823     Delta-E=       -0.000000000887 Rises=F Damp=F
 DIIS: error= 4.50D-07 at cycle  14 NSaved=  14.
 NSaved=14 IEnMin=14 EnMin= -627.686245250823     IErMin=14 ErrMin= 4.50D-07
 ErrMax= 4.50D-07  0.00D+00 EMaxC= 1.00D-01 BMatC= 2.47D-10 BMatP= 3.91D-09
 IDIUse=1 WtCom= 1.00D+00 WtEn= 0.00D+00
 Coeff-Com:  0.129D-04-0.216D-04 0.237D-04 0.915D-04 0.389D-03 0.995D-03
 Coeff-Com:  0.108D-02-0.122D-02-0.719D-02-0.310D-01-0.217D-01 0.130D+00
 Coeff-Com:  0.233D+00 0.695D+00
 Coeff:      0.129D-04-0.216D-04 0.237D-04 0.915D-04 0.389D-03 0.995D-03
 Coeff:      0.108D-02-0.122D-02-0.719D-02-0.310D-01-0.217D-01 0.130D+00
 Coeff:      0.233D+00 0.695D+00
 Gap=     0.100 Goal=   None    Shift=    0.000
 Gap=     0.143 Goal=   None    Shift=    0.000
 RMSDP=2.69D-07 MaxDP=2.92D-05 DE=-8.87D-10 OVMax= 5.69D-06

 Cycle  15  Pass 1  IDiag  1:
 RMSU=  1.76D-07    CP:  8.68D-01  1.76D-01  8.34D-01  5.91D-01  9.13D-01
                    CP:  1.14D+00  9.00D-01  1.38D+00  1.05D+00  1.19D+00
                    CP:  1.04D+00  8.87D-01  6.70D-01  8.19D-01
 E= -627.686245250903     Delta-E=       -0.000000000079 Rises=F Damp=F
 DIIS: error= 2.50D-07 at cycle  15 NSaved=  15.
 NSaved=15 IEnMin=15 EnMin= -627.686245250903     IErMin=15 ErrMin= 2.50D-07
 ErrMax= 2.50D-07  0.00D+00 EMaxC= 1.00D-01 BMatC= 8.61D-11 BMatP= 2.47D-10
 IDIUse=1 WtCom= 1.00D+00 WtEn= 0.00D+00
 Coeff-Com:  0.151D-05-0.246D-05-0.247D-04-0.486D-04-0.700D-04 0.617D-04
 Coeff-Com:  0.436D-03 0.158D-02 0.425D-03-0.112D-01-0.264D-01-0.346D-01
 Coeff-Com: -0.182D-02 0.412D+00 0.659D+00
 Coeff:      0.151D-05-0.246D-05-0.247D-04-0.486D-04-0.700D-04 0.617D-04
 Coeff:      0.436D-03 0.158D-02 0.425D-03-0.112D-01-0.264D-01-0.346D-01
 Coeff:     -0.182D-02 0.412D+00 0.659D+00
 Gap=     0.100 Goal=   None    Shift=    0.000
 Gap=     0.143 Goal=   None    Shift=    0.000
 RMSDP=1.38D-07 MaxDP=1.32D-05 DE=-7.94D-11 OVMax= 4.25D-06

 Cycle  16  Pass 1  IDiag  1:
 RMSU=  6.98D-08    CP:  8.68D-01  1.76D-01  8.34D-01  5.91D-01  9.13D-01
                    CP:  1.14D+00  9.00D-01  1.38D+00  1.05D+00  1.19D+00
                    CP:  1.04D+00  8.95D-01  6.74D-01  9.31D-01  8.82D-01
 E= -627.686245250938     Delta-E=       -0.000000000035 Rises=F Damp=F
 DIIS: error= 1.58D-07 at cycle  16 NSaved=  16.
 NSaved=16 IEnMin=16 EnMin= -627.686245250938     IErMin=16 ErrMin= 1.58D-07
 ErrMax= 1.58D-07  0.00D+00 EMaxC= 1.00D-01 BMatC= 6.61D-12 BMatP= 8.61D-11
 IDIUse=1 WtCom= 1.00D+00 WtEn= 0.00D+00
 Coeff-Com: -0.238D-05 0.354D-05-0.704D-05-0.187D-04-0.551D-04-0.118D-03
 Coeff-Com: -0.338D-04 0.323D-03 0.987D-03 0.236D-02-0.172D-02-0.216D-01
 Coeff-Com: -0.321D-01-0.243D-01 0.801D-01 0.996D+00
 Coeff:     -0.238D-05 0.354D-05-0.704D-05-0.187D-04-0.551D-04-0.118D-03
 Coeff:     -0.338D-04 0.323D-03 0.987D-03 0.236D-02-0.172D-02-0.216D-01
 Coeff:     -0.321D-01-0.243D-01 0.801D-01 0.996D+00
 Gap=     0.100 Goal=   None    Shift=    0.000
 Gap=     0.143 Goal=   None    Shift=    0.000
 RMSDP=5.80D-08 MaxDP=5.78D-06 DE=-3.50D-11 OVMax= 2.31D-06

 Cycle  17  Pass 1  IDiag  1:
 RMSU=  3.55D-08    CP:  8.68D-01  1.76D-01  8.34D-01  5.91D-01  9.13D-01
                    CP:  1.14D+00  9.00D-01  1.38D+00  1.05D+00  1.19D+00
                    CP:  1.04D+00  8.94D-01  6.73D-01  9.45D-01  9.64D-01
                    CP:  1.26D+00
 E= -627.686245250941     Delta-E=       -0.000000000003 Rises=F Damp=F
 DIIS: error= 1.23D-07 at cycle  17 NSaved=  17.
 NSaved=17 IEnMin=17 EnMin= -627.686245250941     IErMin=17 ErrMin= 1.23D-07
 ErrMax= 1.23D-07  0.00D+00 EMaxC= 1.00D-01 BMatC= 3.49D-12 BMatP= 6.61D-12
 IDIUse=1 WtCom= 1.00D+00 WtEn= 0.00D+00
 Coeff-Com: -0.173D-05 0.262D-05 0.166D-05 0.202D-06-0.196D-04-0.914D-04
 Coeff-Com: -0.130D-03-0.186D-03 0.523D-03 0.425D-02 0.576D-02-0.358D-02
 Coeff-Com: -0.171D-01-0.115D+00-0.133D+00 0.521D+00 0.738D+00
 Coeff:     -0.173D-05 0.262D-05 0.166D-05 0.202D-06-0.196D-04-0.914D-04
 Coeff:     -0.130D-03-0.186D-03 0.523D-03 0.425D-02 0.576D-02-0.358D-02
 Coeff:     -0.171D-01-0.115D+00-0.133D+00 0.521D+00 0.738D+00
 Gap=     0.100 Goal=   None    Shift=    0.000
 Gap=     0.143 Goal=   None    Shift=    0.000
 RMSDP=3.78D-08 MaxDP=3.84D-06 DE=-2.84D-12 OVMax= 1.30D-06

 Cycle  18  Pass 1  IDiag  1:
 RMSU=  1.35D-08    CP:  8.68D-01  1.76D-01  8.34D-01  5.91D-01  9.13D-01
                    CP:  1.14D+00  9.00D-01  1.38D+00  1.05D+00  1.19D+00
                    CP:  1.04D+00  8.91D-01  6.67D-01  9.57D-01  9.89D-01
                    CP:  1.51D+00  1.31D+00
 E= -627.686245250941     Delta-E=       -0.000000000001 Rises=F Damp=F
 DIIS: error= 6.32D-08 at cycle  18 NSaved=  18.
 NSaved=18 IEnMin=18 EnMin= -627.686245250941     IErMin=18 ErrMin= 6.32D-08
 ErrMax= 6.32D-08  0.00D+00 EMaxC= 1.00D-01 BMatC= 8.82D-13 BMatP= 3.49D-12
 IDIUse=1 WtCom= 1.00D+00 WtEn= 0.00D+00
 Coeff-Com:  0.480D-06-0.646D-06 0.362D-05 0.799D-05 0.134D-04 0.121D-04
 Coeff-Com: -0.387D-04-0.222D-03-0.219D-03 0.733D-03 0.322D-02 0.717D-02
 Coeff-Com:  0.625D-02-0.371D-01-0.947D-01-0.193D+00 0.340D+00 0.968D+00
 Coeff:      0.480D-06-0.646D-06 0.362D-05 0.799D-05 0.134D-04 0.121D-04
 Coeff:     -0.387D-04-0.222D-03-0.219D-03 0.733D-03 0.322D-02 0.717D-02
 Coeff:      0.625D-02-0.371D-01-0.947D-01-0.193D+00 0.340D+00 0.968D+00
 Gap=     0.100 Goal=   None    Shift=    0.000
 Gap=     0.143 Goal=   None    Shift=    0.000
 RMSDP=2.17D-08 MaxDP=2.70D-06 DE=-7.96D-13 OVMax= 1.04D-06

 Cycle  19  Pass 1  IDiag  1:
 RMSU=  1.11D-08    CP:  8.68D-01  1.76D-01  8.34D-01  5.91D-01  9.13D-01
                    CP:  1.14D+00  9.00D-01  1.38D+00  1.05D+00  1.19D+00
                    CP:  1.04D+00  8.91D-01  6.67D-01  9.51D-01  1.02D+00
                    CP:  1.65D+00  1.61D+00  1.18D+00
 E= -627.686245250946     Delta-E=       -0.000000000004 Rises=F Damp=F
 DIIS: error= 2.16D-08 at cycle  19 NSaved=  19.
 NSaved=19 IEnMin=19 EnMin= -627.686245250946     IErMin=19 ErrMin= 2.16D-08
 ErrMax= 2.16D-08  0.00D+00 EMaxC= 1.00D-01 BMatC= 2.05D-13 BMatP= 8.82D-13
 IDIUse=1 WtCom= 1.00D+00 WtEn= 0.00D+00
 Coeff-Com:  0.546D-06-0.766D-06 0.175D-05 0.431D-05 0.989D-05 0.193D-04
 Coeff-Com: -0.354D-05-0.887D-04-0.188D-03-0.191D-03 0.900D-03 0.380D-02
 Coeff-Com:  0.568D-02-0.405D-02-0.279D-01-0.160D+00 0.723D-01 0.474D+00
 Coeff-Com:  0.636D+00
 Coeff:      0.546D-06-0.766D-06 0.175D-05 0.431D-05 0.989D-05 0.193D-04
 Coeff:     -0.354D-05-0.887D-04-0.188D-03-0.191D-03 0.900D-03 0.380D-02
 Coeff:      0.568D-02-0.405D-02-0.279D-01-0.160D+00 0.723D-01 0.474D+00
 Coeff:      0.636D+00
 Gap=     0.100 Goal=   None    Shift=    0.000
 Gap=     0.143 Goal=   None    Shift=    0.000
 RMSDP=7.41D-09 MaxDP=1.03D-06 DE=-4.43D-12 OVMax= 3.03D-07

 Cycle  20  Pass 1  IDiag  1:
 RMSU=  4.00D-09    CP:  8.68D-01  1.76D-01  8.34D-01  5.91D-01  9.13D-01
                    CP:  1.14D+00  9.00D-01  1.38D+00  1.05D+00  1.19D+00
                    CP:  1.04D+00  8.92D-01  6.67D-01  9.51D-01  1.02D+00
                    CP:  1.68D+00  1.66D+00  1.35D+00  1.00D+00
 E= -627.686245250948     Delta-E=       -0.000000000002 Rises=F Damp=F
 DIIS: error= 1.04D-08 at cycle  20 NSaved=  20.
 NSaved=20 IEnMin=20 EnMin= -627.686245250948     IErMin=20 ErrMin= 1.04D-08
 ErrMax= 1.04D-08  0.00D+00 EMaxC= 1.00D-01 BMatC= 6.05D-14 BMatP= 2.05D-13
 IDIUse=1 WtCom= 1.00D+00 WtEn= 0.00D+00
 Coeff-Com:  0.159D-06-0.223D-06-0.300D-06-0.462D-06 0.611D-06 0.648D-05
 Coeff-Com:  0.105D-04 0.332D-04-0.252D-04-0.361D-03-0.637D-03-0.661D-03
 Coeff-Com:  0.127D-02 0.104D-01 0.195D-01-0.220D-01-0.862D-01-0.811D-01
 Coeff-Com:  0.365D+00 0.795D+00
 Coeff:      0.159D-06-0.223D-06-0.300D-06-0.462D-06 0.611D-06 0.648D-05
 Coeff:      0.105D-04 0.332D-04-0.252D-04-0.361D-03-0.637D-03-0.661D-03
 Coeff:      0.127D-02 0.104D-01 0.195D-01-0.220D-01-0.862D-01-0.811D-01
 Coeff:      0.365D+00 0.795D+00
 Gap=     0.100 Goal=   None    Shift=    0.000
 Gap=     0.143 Goal=   None    Shift=    0.000
 RMSDP=5.18D-09 MaxDP=7.91D-07 DE=-1.82D-12 OVMax= 2.00D-07

 Error on total polarization charges =  0.02073
 SCF Done:  E(UB3LYP) =  -627.686245251     A.U. after   20 cycles
            NFock= 20  Conv=0.52D-08     -V/T= 2.0041
 <Sx>= 0.0000 <Sy>= 0.0000 <Sz>= 0.5000 <S**2>= 0.7596 S= 0.5048
 <L.S>=  0.00000000000    
 KE= 6.251217163905D+02 PE=-2.992021372286D+03 EE= 9.822628018003D+02
 Annihilation of the first spin contaminant:
 S**2 before annihilation     0.7596,   after     0.7500
 Leave Link  502 at Sun Jan 21 08:12:27 2024, MaxMem=  4026531840 cpu:             686.2 elap:              88.9
 (Enter /sysapps/ubuntu-applications/gaussian/Gaussian/AVX2/g16/l601.exe)
 Copying SCF densities to generalized density rwf, IOpCl= 1 IROHF=0.

 **********************************************************************

            Population analysis using the SCF density.

 **********************************************************************

 Orbital symmetries:
 Alpha Orbitals:
       Occupied  (A) (A) (A) (A) (A) (A) (A) (A) (A) (A) (A) (A)
                 (A) (A) (A) (A) (A) (A) (A) (A) (A) (A) (A) (A)
                 (A) (A) (A) (A) (A) (A) (A) (A) (A) (A) (A) (A)
                 (A) (A) (A) (A) (A) (A) (A) (A) (A) (A) (A) (A)
       Virtual   (A) (A) (A) (A) (A) (A) (A) (A) (A) (A) (A) (A)
                 (A) (A) (A) (A) (A) (A) (A) (A) (A) (A) (A) (A)
                 (A) (A) (A) (A) (A) (A) (A) (A) (A) (A) (A) (A)
                 (A) (A) (A) (A) (A) (A) (A) (A) (A) (A) (A) (A)
                 (A) (A) (A) (A) (A) (A) (A) (A) (A) (A) (A) (A)
                 (A) (A) (A) (A) (A) (A) (A) (A) (A) (A) (A) (A)
                 (A) (A) (A) (A) (A) (A) (A) (A) (A) (A) (A) (A)
                 (A) (A) (A) (A) (A) (A) (A) (A) (A) (A) (A) (A)
                 (A) (A) (A) (A) (A) (A) (A) (A) (A) (A) (A) (A)
                 (A) (A) (A) (A) (A) (A) (A) (A) (A) (A) (A) (A)
                 (A) (A) (A) (A) (A) (A) (A) (A) (A) (A) (A) (A)
                 (A) (A) (A) (A) (A) (A) (A) (A) (A) (A) (A) (A)
                 (A) (A) (A) (A) (A) (A) (A) (A) (A) (A) (A) (A)
                 (A) (A) (A) (A) (A) (A) (A) (A) (A) (A) (A) (A)
                 (A) (A) (A) (A) (A) (A) (A) (A) (A) (A) (A) (A)
                 (A) (A) (A) (A) (A) (A) (A) (A) (A) (A) (A) (A)
                 (A) (A) (A) (A) (A) (A) (A) (A) (A) (A) (A) (A)
                 (A) (A) (A) (A) (A) (A) (A) (A) (A) (A) (A) (A)
                 (A) (A) (A) (A) (A) (A) (A) (A) (A) (A) (A) (A)
                 (A) (A) (A) (A) (A) (A) (A) (A) (A) (A) (A) (A)
                 (A) (A) (A) (A) (A) (A) (A) (A) (A) (A) (A) (A)
                 (A) (A) (A) (A) (A) (A) (A) (A) (A) (A) (A) (A)
                 (A) (A) (A) (A) (A) (A) (A) (A) (A) (A) (A) (A)
                 (A) (A) (A) (A) (A) (A) (A) (A) (A) (A) (A) (A)
                 (A) (A) (A) (A) (A)
 Beta  Orbitals:
       Occupied  (A) (A) (A) (A) (A) (A) (A) (A) (A) (A) (A) (A)
                 (A) (A) (A) (A) (A) (A) (A) (A) (A) (A) (A) (A)
                 (A) (A) (A) (A) (A) (A) (A) (A) (A) (A) (A) (A)
                 (A) (A) (A) (A) (A) (A) (A) (A) (A) (A) (A)
       Virtual   (A) (A) (A) (A) (A) (A) (A) (A) (A) (A) (A) (A)
                 (A) (A) (A) (A) (A) (A) (A) (A) (A) (A) (A) (A)
                 (A) (A) (A) (A) (A) (A) (A) (A) (A) (A) (A) (A)
                 (A) (A) (A) (A) (A) (A) (A) (A) (A) (A) (A) (A)
                 (A) (A) (A) (A) (A) (A) (A) (A) (A) (A) (A) (A)
                 (A) (A) (A) (A) (A) (A) (A) (A) (A) (A) (A) (A)
                 (A) (A) (A) (A) (A) (A) (A) (A) (A) (A) (A) (A)
                 (A) (A) (A) (A) (A) (A) (A) (A) (A) (A) (A) (A)
                 (A) (A) (A) (A) (A) (A) (A) (A) (A) (A) (A) (A)
                 (A) (A) (A) (A) (A) (A) (A) (A) (A) (A) (A) (A)
                 (A) (A) (A) (A) (A) (A) (A) (A) (A) (A) (A) (A)
                 (A) (A) (A) (A) (A) (A) (A) (A) (A) (A) (A) (A)
                 (A) (A) (A) (A) (A) (A) (A) (A) (A) (A) (A) (A)
                 (A) (A) (A) (A) (A) (A) (A) (A) (A) (A) (A) (A)
                 (A) (A) (A) (A) (A) (A) (A) (A) (A) (A) (A) (A)
                 (A) (A) (A) (A) (A) (A) (A) (A) (A) (A) (A) (A)
                 (A) (A) (A) (A) (A) (A) (A) (A) (A) (A) (A) (A)
                 (A) (A) (A) (A) (A) (A) (A) (A) (A) (A) (A) (A)
                 (A) (A) (A) (A) (A) (A) (A) (A) (A) (A) (A) (A)
                 (A) (A) (A) (A) (A) (A) (A) (A) (A) (A) (A) (A)
                 (A) (A) (A) (A) (A) (A) (A) (A) (A) (A) (A) (A)
                 (A) (A) (A) (A) (A) (A) (A) (A) (A) (A) (A) (A)
                 (A) (A) (A) (A) (A) (A) (A) (A) (A) (A) (A) (A)
                 (A) (A) (A) (A) (A) (A) (A) (A) (A) (A) (A) (A)
                 (A) (A) (A) (A) (A) (A)
 The electronic state is 2-A.
 Alpha  occ. eigenvalues --  -19.08581 -19.08390 -14.32275 -10.23227 -10.22880
 Alpha  occ. eigenvalues --  -10.22438 -10.21926 -10.19552 -10.19414 -10.18796
 Alpha  occ. eigenvalues --  -10.18701 -10.18353 -10.17193 -10.17059  -1.01110
 Alpha  occ. eigenvalues --   -1.00686  -0.92405  -0.87716  -0.81858  -0.77465
 Alpha  occ. eigenvalues --   -0.76135  -0.69029  -0.65403  -0.63024  -0.57717
 Alpha  occ. eigenvalues --   -0.55397  -0.51751  -0.48730  -0.47430  -0.44199
 Alpha  occ. eigenvalues --   -0.43857  -0.43121  -0.42820  -0.41326  -0.40002
 Alpha  occ. eigenvalues --   -0.39746  -0.38637  -0.38555  -0.36629  -0.36173
 Alpha  occ. eigenvalues --   -0.34676  -0.34471  -0.28526  -0.27221  -0.26400
 Alpha  occ. eigenvalues --   -0.25257  -0.24607  -0.16276
 Alpha virt. eigenvalues --   -0.06255  -0.03766  -0.00295   0.00908   0.01477
 Alpha virt. eigenvalues --    0.01681   0.02839   0.03158   0.03392   0.04137
 Alpha virt. eigenvalues --    0.04755   0.04795   0.05558   0.06434   0.06696
 Alpha virt. eigenvalues --    0.07417   0.07678   0.08883   0.09511   0.09831
 Alpha virt. eigenvalues --    0.10380   0.10654   0.10707   0.11835   0.12251
 Alpha virt. eigenvalues --    0.12981   0.13017   0.13268   0.13849   0.14356
 Alpha virt. eigenvalues --    0.14590   0.14672   0.14879   0.15717   0.15833
 Alpha virt. eigenvalues --    0.17959   0.18046   0.18356   0.18670   0.19678
 Alpha virt. eigenvalues --    0.19982   0.20632   0.21124   0.21722   0.21773
 Alpha virt. eigenvalues --    0.22688   0.23340   0.23688   0.24161   0.24499
 Alpha virt. eigenvalues --    0.24638   0.24870   0.26141   0.26527   0.26779
 Alpha virt. eigenvalues --    0.27289   0.27490   0.28267   0.29029   0.29161
 Alpha virt. eigenvalues --    0.29827   0.30770   0.30851   0.30936   0.31609
 Alpha virt. eigenvalues --    0.31724   0.32222   0.32448   0.33383   0.33660
 Alpha virt. eigenvalues --    0.34148   0.35115   0.37237   0.38004   0.38669
 Alpha virt. eigenvalues --    0.39441   0.40644   0.42282   0.42429   0.43024
 Alpha virt. eigenvalues --    0.47483   0.50624   0.51893   0.52696   0.54697
 Alpha virt. eigenvalues --    0.54925   0.55060   0.55914   0.56279   0.59087
 Alpha virt. eigenvalues --    0.59596   0.60615   0.61355   0.61458   0.62492
 Alpha virt. eigenvalues --    0.62720   0.63676   0.63883   0.64886   0.65949
 Alpha virt. eigenvalues --    0.66814   0.67122   0.70382   0.70600   0.71560
 Alpha virt. eigenvalues --    0.73188   0.73594   0.74168   0.76379   0.77603
 Alpha virt. eigenvalues --    0.78839   0.80268   0.81059   0.83387   0.84933
 Alpha virt. eigenvalues --    0.85614   0.88274   0.89330   0.89407   0.89789
 Alpha virt. eigenvalues --    0.90806   0.91435   0.92753   0.93597   0.94594
 Alpha virt. eigenvalues --    0.95882   0.96440   0.97146   0.98608   0.99103
 Alpha virt. eigenvalues --    1.00047   1.02582   1.04212   1.04771   1.05125
 Alpha virt. eigenvalues --    1.06927   1.07714   1.10288   1.11172   1.12679
 Alpha virt. eigenvalues --    1.12827   1.13476   1.13586   1.14649   1.17184
 Alpha virt. eigenvalues --    1.22930   1.23910   1.24275   1.24759   1.27996
 Alpha virt. eigenvalues --    1.30993   1.31587   1.31971   1.32794   1.38065
 Alpha virt. eigenvalues --    1.41043   1.47504   1.48849   1.49119   1.50803
 Alpha virt. eigenvalues --    1.51821   1.52259   1.54049   1.57121   1.58873
 Alpha virt. eigenvalues --    1.60015   1.61800   1.65718   1.66030   1.66627
 Alpha virt. eigenvalues --    1.69016   1.72205   1.73179   1.73501   1.75464
 Alpha virt. eigenvalues --    1.75881   1.76826   1.79876   1.82395   1.83135
 Alpha virt. eigenvalues --    1.84135   1.88350   1.89368   1.91799   1.93757
 Alpha virt. eigenvalues --    1.94499   1.95399   1.97980   1.98756   2.01467
 Alpha virt. eigenvalues --    2.03411   2.04541   2.04835   2.07925   2.08417
 Alpha virt. eigenvalues --    2.09874   2.11601   2.11660   2.14816   2.16945
 Alpha virt. eigenvalues --    2.22710   2.25496   2.27281   2.35697   2.36445
 Alpha virt. eigenvalues --    2.36830   2.39314   2.47683   2.50074   2.54547
 Alpha virt. eigenvalues --    2.60198   2.60210   2.62585   2.64576   2.64947
 Alpha virt. eigenvalues --    2.69559   2.70829   2.72497   2.73489   2.74883
 Alpha virt. eigenvalues --    2.74963   2.77021   2.78064   2.78704   2.81026
 Alpha virt. eigenvalues --    2.81690   2.81970   2.84760   2.86309   2.87345
 Alpha virt. eigenvalues --    2.88046   2.93444   2.94102   2.95258   2.97860
 Alpha virt. eigenvalues --    2.99000   2.99022   3.04038   3.06425   3.07214
 Alpha virt. eigenvalues --    3.08805   3.13570   3.19754   3.20456   3.21507
 Alpha virt. eigenvalues --    3.23945   3.25027   3.32251   3.34397   3.34750
 Alpha virt. eigenvalues --    3.38699   3.44732   3.45440   3.51592   3.52743
 Alpha virt. eigenvalues --    3.57675   3.61741   3.63220   3.64134   3.78138
 Alpha virt. eigenvalues --    3.81127   3.97549   4.03167   4.05918   4.06838
 Alpha virt. eigenvalues --    4.07998   4.15743   4.19831   4.26752   4.40220
 Alpha virt. eigenvalues --    4.60551   4.76031   4.83378   5.06047   5.07835
 Alpha virt. eigenvalues --    5.23810   5.26223   5.73257   5.81654  23.55272
 Alpha virt. eigenvalues --   23.78318  23.90459  23.92317  23.94657  23.94983
 Alpha virt. eigenvalues --   24.00229  24.08952  24.16301  24.17189  24.45414
 Alpha virt. eigenvalues --   35.88314  50.03519  50.07782
  Beta  occ. eigenvalues --  -19.07967 -19.07717 -14.32244 -10.23104 -10.22739
  Beta  occ. eigenvalues --  -10.22447 -10.21881 -10.19578 -10.19352 -10.18707
  Beta  occ. eigenvalues --  -10.18639 -10.18358 -10.17074 -10.16910  -1.00040
  Beta  occ. eigenvalues --   -0.99508  -0.92357  -0.87540  -0.81339  -0.77281
  Beta  occ. eigenvalues --   -0.75917  -0.68191  -0.65105  -0.62754  -0.57550
  Beta  occ. eigenvalues --   -0.55102  -0.51530  -0.48483  -0.47167  -0.44148
  Beta  occ. eigenvalues --   -0.43657  -0.42821  -0.41794  -0.40814  -0.39744
  Beta  occ. eigenvalues --   -0.38896  -0.38544  -0.36443  -0.36015  -0.35954
  Beta  occ. eigenvalues --   -0.34403  -0.33966  -0.26624  -0.25746  -0.25603
  Beta  occ. eigenvalues --   -0.24660  -0.24014
  Beta virt. eigenvalues --   -0.09738  -0.05471  -0.02763  -0.00278   0.00923
  Beta virt. eigenvalues --    0.01495   0.01699   0.02861   0.03178   0.04230
  Beta virt. eigenvalues --    0.04672   0.04830   0.05573   0.05753   0.06463
  Beta virt. eigenvalues --    0.06989   0.07596   0.07706   0.08935   0.09686
  Beta virt. eigenvalues --    0.09848   0.10397   0.10671   0.10864   0.11864
  Beta virt. eigenvalues --    0.12267   0.13037   0.13278   0.13474   0.13869
  Beta virt. eigenvalues --    0.14402   0.14683   0.14878   0.14910   0.15761
  Beta virt. eigenvalues --    0.15887   0.17958   0.18074   0.18614   0.18710
  Beta virt. eigenvalues --    0.19958   0.20026   0.20623   0.21253   0.21833
  Beta virt. eigenvalues --    0.22354   0.22704   0.23422   0.23789   0.24255
  Beta virt. eigenvalues --    0.24551   0.24715   0.24905   0.26243   0.26673
  Beta virt. eigenvalues --    0.26858   0.27320   0.27538   0.28396   0.29118
  Beta virt. eigenvalues --    0.29591   0.29890   0.30855   0.31026   0.31372
  Beta virt. eigenvalues --    0.31723   0.31821   0.32296   0.32633   0.33480
  Beta virt. eigenvalues --    0.33815   0.34206   0.35166   0.37344   0.38089
  Beta virt. eigenvalues --    0.38771   0.39531   0.40802   0.42528   0.42680
  Beta virt. eigenvalues --    0.43159   0.47665   0.50811   0.52048   0.53018
  Beta virt. eigenvalues --    0.54796   0.55058   0.55364   0.56025   0.56398
  Beta virt. eigenvalues --    0.59252   0.59773   0.60901   0.61538   0.62106
  Beta virt. eigenvalues --    0.62632   0.62964   0.63878   0.64163   0.65010
  Beta virt. eigenvalues --    0.66002   0.66942   0.67385   0.70659   0.70702
  Beta virt. eigenvalues --    0.71628   0.73223   0.73677   0.74500   0.76484
  Beta virt. eigenvalues --    0.77635   0.78977   0.80357   0.81095   0.83528
  Beta virt. eigenvalues --    0.85101   0.85740   0.88356   0.89518   0.89519
  Beta virt. eigenvalues --    0.89934   0.90940   0.91565   0.92904   0.93739
  Beta virt. eigenvalues --    0.94720   0.95971   0.96827   0.97372   0.99051
  Beta virt. eigenvalues --    0.99210   1.00129   1.02683   1.04358   1.05254
  Beta virt. eigenvalues --    1.05391   1.07059   1.07996   1.10774   1.11347
  Beta virt. eigenvalues --    1.12956   1.13547   1.13751   1.14598   1.15609
  Beta virt. eigenvalues --    1.17324   1.23220   1.24595   1.24931   1.25454
  Beta virt. eigenvalues --    1.28060   1.31222   1.31885   1.32207   1.32859
  Beta virt. eigenvalues --    1.38236   1.41332   1.47580   1.49205   1.49256
  Beta virt. eigenvalues --    1.50860   1.51996   1.52367   1.54243   1.57205
  Beta virt. eigenvalues --    1.59296   1.60268   1.61859   1.65956   1.66495
  Beta virt. eigenvalues --    1.66889   1.69134   1.72327   1.73274   1.73700
  Beta virt. eigenvalues --    1.75629   1.76143   1.77006   1.80332   1.82771
  Beta virt. eigenvalues --    1.83300   1.84508   1.88797   1.89726   1.91958
  Beta virt. eigenvalues --    1.93986   1.94843   1.95860   1.98140   1.98954
  Beta virt. eigenvalues --    2.01598   2.03556   2.04721   2.04961   2.08058
  Beta virt. eigenvalues --    2.08585   2.10011   2.11846   2.12190   2.15212
  Beta virt. eigenvalues --    2.17075   2.23028   2.25765   2.27710   2.35790
  Beta virt. eigenvalues --    2.36801   2.36973   2.39601   2.47734   2.50137
  Beta virt. eigenvalues --    2.54626   2.60412   2.60417   2.63310   2.64638
  Beta virt. eigenvalues --    2.65051   2.69928   2.70961   2.72564   2.73602
  Beta virt. eigenvalues --    2.75010   2.75635   2.77061   2.78806   2.78834
  Beta virt. eigenvalues --    2.81136   2.82036   2.82246   2.85228   2.86850
  Beta virt. eigenvalues --    2.88027   2.88234   2.94722   2.95247   2.96635
  Beta virt. eigenvalues --    2.98489   2.99554   3.00119   3.04704   3.06464
  Beta virt. eigenvalues --    3.07271   3.09164   3.13737   3.19830   3.20561
  Beta virt. eigenvalues --    3.21923   3.24159   3.25225   3.33935   3.34484
  Beta virt. eigenvalues --    3.36395   3.38896   3.44872   3.45695   3.51750
  Beta virt. eigenvalues --    3.52996   3.57782   3.61798   3.63441   3.64482
  Beta virt. eigenvalues --    3.78688   3.81372   3.97679   4.03239   4.06049
  Beta virt. eigenvalues --    4.07064   4.08108   4.16158   4.19964   4.27096
  Beta virt. eigenvalues --    4.40491   4.60581   4.76532   4.83484   5.08706
  Beta virt. eigenvalues --    5.10505   5.24346   5.26760   5.73796   5.82189
  Beta virt. eigenvalues --   23.55333  23.78459  23.90504  23.92436  23.94805
  Beta virt. eigenvalues --   23.95117  24.00312  24.08955  24.16360  24.17310
  Beta virt. eigenvalues --   24.45414  35.88346  50.04166  50.08426
          Condensed to atoms (all electrons):
               1          2          3          4          5          6
     1  C   13.972641  -3.286366   0.114771  -5.495491  -4.322598   4.028118
     2  C   -3.286366  10.886943  -0.735527   2.158358   1.050099  -2.877601
     3  C    0.114771  -0.735527  14.722823   0.213623   0.413848   0.391772
     4  C   -5.495491   2.158358   0.213623  24.532670  -4.001816  -3.622239
     5  C   -4.322598   1.050099   0.413848  -4.001816  22.281150  -2.673304
     6  C    4.028118  -2.877601   0.391772  -3.622239  -2.673304  10.813404
     7  C   -0.803567   0.110974   0.037554  -5.021108   1.482065   0.081301
     8  C   -0.338631   0.078498  -0.043493  -0.739808  -0.474076  -0.336242
     9  C    0.097848  -0.050650  -0.023157  -1.386305  -1.836753   0.219096
    10  C    1.037236   0.203335  -0.744744   0.686067  -5.538290  -0.165309
    11  O    0.149318   0.058299  -0.014177  -0.032383  -0.338160  -0.011252
    12  O   -0.013124  -0.001443   0.096566  -0.348196  -0.034978   0.143385
    13  C    0.267631  -1.229759 -11.202877  -1.382765  -0.199379  -0.417166
    14  N   -0.018545   0.063513   0.899908   0.063036  -0.002840   0.029845
    15  H    0.229894   0.006002  -0.026040   0.092575   0.093255  -0.036519
    16  H    0.100923   0.259226   0.010759  -0.045884  -0.057454   0.070809
    17  H   -0.112225   0.163381  -0.048139   0.151948   0.235260   0.125756
    18  H   -0.030761   0.009598  -0.001262  -0.036167   0.062898  -0.018732
    19  H   -0.003771  -0.001019   0.001400   0.040779  -0.051551   0.003223
               7          8          9         10         11         12
     1  C   -0.803567  -0.338631   0.097848   1.037236   0.149318  -0.013124
     2  C    0.110974   0.078498  -0.050650   0.203335   0.058299  -0.001443
     3  C    0.037554  -0.043493  -0.023157  -0.744744  -0.014177   0.096566
     4  C   -5.021108  -0.739808  -1.386305   0.686067  -0.032383  -0.348196
     5  C    1.482065  -0.474076  -1.836753  -5.538290  -0.338160  -0.034978
     6  C    0.081301  -0.336242   0.219096  -0.165309  -0.011252   0.143385
     7  C   10.583656  -0.088195   0.072288   0.458617   0.376086   0.012481
     8  C   -0.088195   8.154474  -0.186122  -0.250192  -0.139207  -0.033423
     9  C    0.072288  -0.186122   8.573326   0.076752  -0.036059  -0.141113
    10  C    0.458617  -0.250192   0.076752  10.469161   0.021486   0.358478
    11  O    0.376086  -0.139207  -0.036059   0.021486   8.456770  -0.000026
    12  O    0.012481  -0.033423  -0.141113   0.358478  -0.000026   8.435846
    13  C   -0.655289  -0.146188   0.166050   0.026085  -0.001336   0.001866
    14  N    0.008632   0.002040  -0.003577  -0.009950   0.000012  -0.000000
    15  H   -0.011775  -0.010668   0.007479  -0.020570  -0.006638   0.000548
    16  H    0.024542   0.011506  -0.000502   0.002140   0.002617  -0.000077
    17  H   -0.003691   0.017649  -0.017614  -0.048312   0.000395   0.000214
    18  H   -0.072736   0.449905  -0.048219   0.015101  -0.010988   0.001082
    19  H    0.002738  -0.024422   0.449311  -0.092106   0.001043  -0.011221
              13         14         15         16         17         18
     1  C    0.267631  -0.018545   0.229894   0.100923  -0.112225  -0.030761
     2  C   -1.229759   0.063513   0.006002   0.259226   0.163381   0.009598
     3  C  -11.202877   0.899908  -0.026040   0.010759  -0.048139  -0.001262
     4  C   -1.382765   0.063036   0.092575  -0.045884   0.151948  -0.036167
     5  C   -0.199379  -0.002840   0.093255  -0.057454   0.235260   0.062898
     6  C   -0.417166   0.029845  -0.036519   0.070809   0.125756  -0.018732
     7  C   -0.655289   0.008632  -0.011775   0.024542  -0.003691  -0.072736
     8  C   -0.146188   0.002040  -0.010668   0.011506   0.017649   0.449905
     9  C    0.166050  -0.003577   0.007479  -0.000502  -0.017614  -0.048219
    10  C    0.026085  -0.009950  -0.020570   0.002140  -0.048312   0.015101
    11  O   -0.001336   0.000012  -0.006638   0.002617   0.000395  -0.010988
    12  O    0.001866  -0.000000   0.000548  -0.000077   0.000214   0.001082
    13  C   23.410694  -0.778522   0.027244  -0.072713  -0.167807  -0.003689
    14  N   -0.778522   7.014486  -0.000482   0.002371   0.006253   0.000034
    15  H    0.027244  -0.000482   0.494432  -0.015410   0.002375  -0.000282
    16  H   -0.072713   0.002371  -0.015410   0.501066  -0.002298  -0.000038
    17  H   -0.167807   0.006253   0.002375  -0.002298   0.515068   0.000665
    18  H   -0.003689   0.000034  -0.000282  -0.000038   0.000665   0.516904
    19  H    0.003808  -0.000059   0.000200  -0.000022  -0.001056  -0.022085
              19
     1  C   -0.003771
     2  C   -0.001019
     3  C    0.001400
     4  C    0.040779
     5  C   -0.051551
     6  C    0.003223
     7  C    0.002738
     8  C   -0.024422
     9  C    0.449311
    10  C   -0.092106
    11  O    0.001043
    12  O   -0.011221
    13  C    0.003808
    14  N   -0.000059
    15  H    0.000200
    16  H   -0.000022
    17  H   -0.001056
    18  H   -0.022085
    19  H    0.513443
          Atomic-Atomic Spin Densities.
               1          2          3          4          5          6
     1  C   -0.127092   0.042477   0.001261  -0.058472   0.132766  -0.023186
     2  C    0.042477   0.009543  -0.028019  -0.042505   0.064615   0.021174
     3  C    0.001261  -0.028019  -0.031373   0.069841  -0.075380   0.016914
     4  C   -0.058472  -0.042505   0.069841  -0.184885   0.055105   0.069721
     5  C    0.132766   0.064615  -0.075380   0.055105  -0.197424  -0.075734
     6  C   -0.023186   0.021174   0.016914   0.069721  -0.075734  -0.099092
     7  C    0.114493  -0.006139   0.008828   0.207168  -0.143112   0.024492
     8  C   -0.033769  -0.015032   0.014310   0.092839  -0.006425   0.003617
     9  C    0.006462   0.007684  -0.013190  -0.025309   0.093623  -0.015286
    10  C    0.001201  -0.020149   0.042915  -0.119147   0.184248   0.082212
    11  O   -0.006040  -0.009736  -0.000189  -0.036588   0.007799  -0.000747
    12  O    0.000273  -0.000385  -0.013094   0.009661  -0.035180  -0.005486
    13  C   -0.020942   0.020250   0.042993   0.008052   0.021922   0.003215
    14  N    0.000773   0.000553  -0.001645  -0.000713  -0.000534  -0.002525
    15  H   -0.001111  -0.000227   0.001548  -0.002054   0.006090   0.000366
    16  H    0.000919  -0.000321  -0.002526   0.003336  -0.000074  -0.001634
    17  H    0.000919  -0.000481  -0.001622   0.005041  -0.000281   0.001368
    18  H    0.001394  -0.000562   0.000189  -0.001658   0.000368   0.000984
    19  H    0.001062   0.000160  -0.000464   0.002060  -0.002982  -0.000135
               7          8          9         10         11         12
     1  C    0.114493  -0.033769   0.006462   0.001201  -0.006040   0.000273
     2  C   -0.006139  -0.015032   0.007684  -0.020149  -0.009736  -0.000385
     3  C    0.008828   0.014310  -0.013190   0.042915  -0.000189  -0.013094
     4  C    0.207168   0.092839  -0.025309  -0.119147  -0.036588   0.009661
     5  C   -0.143112  -0.006425   0.093623   0.184248   0.007799  -0.035180
     6  C    0.024492   0.003617  -0.015286   0.082212  -0.000747  -0.005486
     7  C   -0.021103  -0.011510  -0.054871   0.017605  -0.061922  -0.001537
     8  C   -0.011510   0.176025  -0.076377  -0.062170   0.006916   0.007490
     9  C   -0.054871  -0.076377   0.191131  -0.006812   0.008834   0.003446
    10  C    0.017605  -0.062170  -0.006812  -0.007210  -0.001482  -0.050307
    11  O   -0.061922   0.006916   0.008834  -0.001482   0.340056  -0.000144
    12  O   -0.001537   0.007490   0.003446  -0.050307  -0.000144   0.308718
    13  C    0.008338   0.003067   0.001312   0.011708   0.000046   0.000274
    14  N   -0.000003  -0.000049  -0.000016  -0.000140   0.000001  -0.000036
    15  H    0.001205  -0.003130  -0.000291   0.000516  -0.003522   0.000001
    16  H   -0.000907  -0.000050   0.000235  -0.000471   0.000045   0.000013
    17  H   -0.000364  -0.000139  -0.002787  -0.001058   0.000021  -0.002870
    18  H   -0.002330  -0.000225   0.004080  -0.001189  -0.000415   0.000243
    19  H   -0.001569   0.003940  -0.001143   0.000017   0.000258  -0.000289
              13         14         15         16         17         18
     1  C   -0.020942   0.000773  -0.001111   0.000919   0.000919   0.001394
     2  C    0.020250   0.000553  -0.000227  -0.000321  -0.000481  -0.000562
     3  C    0.042993  -0.001645   0.001548  -0.002526  -0.001622   0.000189
     4  C    0.008052  -0.000713  -0.002054   0.003336   0.005041  -0.001658
     5  C    0.021922  -0.000534   0.006090  -0.000074  -0.000281   0.000368
     6  C    0.003215  -0.002525   0.000366  -0.001634   0.001368   0.000984
     7  C    0.008338  -0.000003   0.001205  -0.000907  -0.000364  -0.002330
     8  C    0.003067  -0.000049  -0.003130  -0.000050  -0.000139  -0.000225
     9  C    0.001312  -0.000016  -0.000291   0.000235  -0.002787   0.004080
    10  C    0.011708  -0.000140   0.000516  -0.000471  -0.001058  -0.001189
    11  O    0.000046   0.000001  -0.003522   0.000045   0.000021  -0.000415
    12  O    0.000274  -0.000036   0.000001   0.000013  -0.002870   0.000243
    13  C   -0.116528   0.001270   0.000125   0.001963   0.001522   0.000057
    14  N    0.001270   0.018844  -0.000014   0.000010   0.000005  -0.000001
    15  H    0.000125  -0.000014  -0.001147  -0.000213  -0.000102   0.000102
    16  H    0.001963   0.000010  -0.000213  -0.003696   0.000041  -0.000007
    17  H    0.001522   0.000005  -0.000102   0.000041  -0.000237  -0.000047
    18  H    0.000057  -0.000001   0.000102  -0.000007  -0.000047  -0.010460
    19  H   -0.000103   0.000001  -0.000042   0.000007   0.000077   0.001227
              19
     1  C    0.001062
     2  C    0.000160
     3  C   -0.000464
     4  C    0.002060
     5  C   -0.002982
     6  C   -0.000135
     7  C   -0.001569
     8  C    0.003940
     9  C   -0.001143
    10  C    0.000017
    11  O    0.000258
    12  O   -0.000289
    13  C   -0.000103
    14  N    0.000001
    15  H   -0.000042
    16  H    0.000007
    17  H    0.000077
    18  H    0.001227
    19  H   -0.011750
 Mulliken charges and spin densities:
               1          2
     1  C    0.426702   0.033389
     2  C   -0.865862   0.042901
     3  C    1.936391   0.031298
     4  C    0.173106   0.051492
     5  C   -0.087376   0.029410
     6  C    0.251654   0.000240
     7  C   -0.594571   0.076764
     8  C    0.096595   0.099329
     9  C    0.067920   0.120724
    10  C   -0.484987   0.070288
    11  O   -0.475800   0.243193
    12  O   -0.466863   0.220790
    13  C   -1.645888  -0.011459
    14  N   -0.276155   0.015780
    15  H    0.174379  -0.001899
    16  H    0.208441  -0.003332
    17  H    0.182177  -0.000995
    18  H    0.188771  -0.008248
    19  H    0.191367  -0.009665
 Sum of Mulliken charges =  -1.00000   1.00000
 Mulliken charges and spin densities with hydrogens summed into heavy atoms:
               1          2
     1  C    0.601081   0.031490
     2  C   -0.657421   0.039569
     3  C    1.936391   0.031298
     4  C    0.173106   0.051492
     5  C   -0.087376   0.029410
     6  C    0.433832  -0.000755
     7  C   -0.594571   0.076764
     8  C    0.285366   0.091081
     9  C    0.259287   0.111059
    10  C   -0.484987   0.070288
    11  O   -0.475800   0.243193
    12  O   -0.466863   0.220790
    13  C   -1.645888  -0.011459
    14  N   -0.276155   0.015780
 Electronic spatial extent (au):  <R**2>=           2762.9106
 Charge=             -1.0000 electrons
 Dipole moment (field-independent basis, Debye):
    X=             -0.4375    Y=             -2.0694    Z=             -0.0013  Tot=              2.1152
 Quadrupole moment (field-independent basis, Debye-Ang):
   XX=           -128.4339   YY=           -112.4392   ZZ=            -84.2950
   XY=             14.6146   XZ=              0.0025   YZ=              0.0015
 Traceless Quadrupole moment (field-independent basis, Debye-Ang):
   XX=            -20.0445   YY=             -4.0499   ZZ=             24.0944
   XY=             14.6146   XZ=              0.0025   YZ=              0.0015
 Octapole moment (field-independent basis, Debye-Ang**2):
  XXX=            178.8947  YYY=            -40.4451  ZZZ=              0.0021  XYY=            -55.8601
  XXY=             19.0407  XXZ=             -0.0117  XZZ=              1.2070  YZZ=              1.0948
  YYZ=             -0.0051  XYZ=              0.0082
 Hexadecapole moment (field-independent basis, Debye-Ang**3):
 XXXX=          -3721.1890 YYYY=          -1402.4730 ZZZZ=            -96.7103 XXXY=            206.3360
 XXXZ=              0.1172 YYYX=             56.8578 YYYZ=              0.0113 ZZZX=              0.0021
 ZZZY=             -0.0019 XXYY=           -721.3975 XXZZ=           -478.6953 YYZZ=           -210.7808
 XXYZ=              0.0137 YYXZ=             -0.0064 ZZXY=             -5.9077
 N-N= 7.569506088441D+02 E-N=-2.992021372961D+03  KE= 6.251217163905D+02
                          Isotropic Fermi Contact Couplings
        Atom                 a.u.       MegaHertz       Gauss      10(-4) cm-1
     1  C(13)             -0.00340      -3.81969      -1.36296      -1.27411
     2  C(13)              0.00133       1.49518       0.53352       0.49874
     3  C(13)              0.00079       0.89032       0.31769       0.29698
     4  C(13)             -0.00178      -2.00347      -0.71489      -0.66828
     5  C(13)             -0.00293      -3.29216      -1.17473      -1.09815
     6  C(13)             -0.00341      -3.83783      -1.36943      -1.28016
     7  C(13)             -0.00653      -7.34648      -2.62141      -2.45052
     8  C(13)             -0.00266      -2.98868      -1.06643      -0.99692
     9  C(13)             -0.00032      -0.35537      -0.12680      -0.11854
    10  C(13)             -0.00654      -7.34915      -2.62236      -2.45141
    11  O(17)              0.02493     -15.11115      -5.39203      -5.04054
    12  O(17)              0.02280     -13.82122      -4.93175      -4.61026
    13  C(13)             -0.00231      -2.59224      -0.92497      -0.86468
    14  N(14)              0.00086       0.27695       0.09882       0.09238
    15  H(1)              -0.00009      -0.40805      -0.14560      -0.13611
    16  H(1)              -0.00070      -3.12949      -1.11668      -1.04389
    17  H(1)               0.00012       0.55800       0.19911       0.18613
    18  H(1)              -0.00146      -6.51799      -2.32578      -2.17417
    19  H(1)              -0.00177      -7.92308      -2.82715      -2.64285
 --------------------------------------------------------
       Center         ----  Spin Dipole Couplings  ----
                      3XX-RR        3YY-RR        3ZZ-RR
 --------------------------------------------------------
     1   Atom        0.004983     -0.003607     -0.001376
     2   Atom       -0.024497     -0.026693      0.051191
     3   Atom       -0.017515     -0.019427      0.036942
     4   Atom       -0.039468     -0.044327      0.083795
     5   Atom       -0.028180     -0.027567      0.055748
     6   Atom        0.012780      0.006736     -0.019517
     7   Atom       -0.079001     -0.056171      0.135172
     8   Atom       -0.055142     -0.051559      0.106701
     9   Atom       -0.066187     -0.066485      0.132673
    10   Atom       -0.068237     -0.049456      0.117693
    11   Atom       -0.513257     -0.523035      1.036292
    12   Atom       -0.468236     -0.476595      0.944831
    13   Atom        0.005832     -0.001950     -0.003882
    14   Atom       -0.017026     -0.015236      0.032262
    15   Atom        0.004070     -0.000204     -0.003866
    16   Atom        0.001726     -0.000510     -0.001216
    17   Atom        0.005305     -0.001728     -0.003577
    18   Atom        0.011345     -0.006808     -0.004537
    19   Atom        0.005186     -0.001020     -0.004166
 --------------------------------------------------------
                        XY            XZ            YZ
 --------------------------------------------------------
     1   Atom        0.002378      0.000001      0.000004
     2   Atom        0.000812      0.000006      0.000000
     3   Atom       -0.000542      0.000007     -0.000002
     4   Atom       -0.000283      0.000055      0.000000
     5   Atom        0.001394      0.000040      0.000026
     6   Atom        0.002521     -0.000001     -0.000002
     7   Atom       -0.007377     -0.000058      0.000006
     8   Atom        0.001117     -0.000120     -0.000057
     9   Atom       -0.001105     -0.000162     -0.000007
    10   Atom       -0.008798     -0.000029     -0.000013
    11   Atom        0.003405     -0.000550      0.000511
    12   Atom        0.003006     -0.000062     -0.000527
    13   Atom       -0.000978     -0.000001      0.000000
    14   Atom        0.000566      0.000008     -0.000001
    15   Atom        0.002129      0.000001      0.000000
    16   Atom        0.004338     -0.000000     -0.000000
    17   Atom        0.001653      0.000000      0.000000
    18   Atom        0.000807      0.000005     -0.000000
    19   Atom        0.010086      0.000002      0.000004
 --------------------------------------------------------


 ---------------------------------------------------------------------------------
              Anisotropic Spin Dipole Couplings in Principal Axis System
 ---------------------------------------------------------------------------------

       Atom             a.u.   MegaHertz   Gauss  10(-4) cm-1        Axes

              Baa    -0.0042    -0.566    -0.202    -0.189 -0.2501  0.9682 -0.0014
     1 C(13)  Bbb    -0.0014    -0.185    -0.066    -0.062 -0.0007  0.0012  1.0000
              Bcc     0.0056     0.751     0.268     0.251  0.9682  0.2501  0.0004
 
              Baa    -0.0270    -3.618    -1.291    -1.207 -0.3130  0.9497  0.0000
     2 C(13)  Bbb    -0.0242    -3.251    -1.160    -1.085  0.9497  0.3130 -0.0001
              Bcc     0.0512     6.869     2.451     2.291  0.0001  0.0000  1.0000
 
              Baa    -0.0196    -2.626    -0.937    -0.876  0.2553  0.9669  0.0000
     3 C(13)  Bbb    -0.0174    -2.331    -0.832    -0.778  0.9669 -0.2553 -0.0001
              Bcc     0.0369     4.957     1.769     1.654  0.0001 -0.0000  1.0000
 
              Baa    -0.0443    -5.950    -2.123    -1.985  0.0579  0.9983 -0.0000
     4 C(13)  Bbb    -0.0395    -5.294    -1.889    -1.766  0.9983 -0.0579 -0.0004
              Bcc     0.0838    11.244     4.012     3.751  0.0004 -0.0000  1.0000
 
              Baa    -0.0293    -3.932    -1.403    -1.312  0.7793 -0.6266 -0.0002
     5 C(13)  Bbb    -0.0264    -3.549    -1.266    -1.184  0.6266  0.7793 -0.0006
              Bcc     0.0557     7.481     2.669     2.495  0.0005  0.0003  1.0000
 
              Baa    -0.0195    -2.619    -0.935    -0.874  0.0000  0.0001  1.0000
     6 C(13)  Bbb     0.0058     0.781     0.279     0.261 -0.3407  0.9402 -0.0001
              Bcc     0.0137     1.838     0.656     0.613  0.9402  0.3407 -0.0001
 
              Baa    -0.0812   -10.893    -3.887    -3.634  0.9591  0.2830  0.0003
     7 C(13)  Bbb    -0.0540    -7.246    -2.585    -2.417 -0.2830  0.9591 -0.0001
              Bcc     0.1352    18.139     6.472     6.050 -0.0003  0.0000  1.0000
 
              Baa    -0.0555    -7.442    -2.656    -2.483  0.9614 -0.2751  0.0006
     8 C(13)  Bbb    -0.0512    -6.876    -2.453    -2.294  0.2751  0.9614  0.0006
              Bcc     0.1067    14.318     5.109     4.776 -0.0007 -0.0004  1.0000
 
              Baa    -0.0675    -9.051    -3.230    -3.019  0.6582  0.7528  0.0006
     9 C(13)  Bbb    -0.0652    -8.752    -3.123    -2.919  0.7528 -0.6582  0.0006
              Bcc     0.1327    17.803     6.353     5.939 -0.0008 -0.0000  1.0000
 
              Baa    -0.0717    -9.623    -3.434    -3.210  0.9300  0.3676  0.0002
    10 C(13)  Bbb    -0.0460    -6.170    -2.202    -2.058 -0.3676  0.9300  0.0000
              Bcc     0.1177    15.793     5.635     5.268 -0.0002 -0.0001  1.0000
 
              Baa    -0.5241    37.924    13.532    12.650 -0.2995  0.9541 -0.0004
    11 O(17)  Bbb    -0.5122    37.062    13.224    12.362  0.9541  0.2995  0.0002
              Bcc     1.0363   -74.985   -26.757   -25.012 -0.0004  0.0003  1.0000
 
              Baa    -0.4776    34.556    12.331    11.527 -0.3067  0.9518  0.0003
    12 O(17)  Bbb    -0.4673    33.811    12.065    11.278  0.9518  0.3067  0.0002
              Bcc     0.9448   -68.367   -24.395   -22.805 -0.0000 -0.0004  1.0000
 
              Baa    -0.0039    -0.521    -0.186    -0.174  0.0001  0.0000  1.0000
    13 C(13)  Bbb    -0.0021    -0.278    -0.099    -0.093  0.1228  0.9924 -0.0000
              Bcc     0.0060     0.799     0.285     0.266  0.9924 -0.1228 -0.0001
 
              Baa    -0.0172    -0.663    -0.237    -0.221  0.9605 -0.2781 -0.0002
    14 N(14)  Bbb    -0.0151    -0.581    -0.207    -0.194  0.2781  0.9605 -0.0000
              Bcc     0.0323     1.244     0.444     0.415  0.0002 -0.0000  1.0000
 
              Baa    -0.0039    -2.063    -0.736    -0.688 -0.0002  0.0001  1.0000
    15 H(1)   Bbb    -0.0011    -0.578    -0.206    -0.193 -0.3818  0.9243 -0.0001
              Bcc     0.0049     2.641     0.942     0.881  0.9243  0.3818  0.0002
 
              Baa    -0.0039    -2.066    -0.737    -0.689 -0.6126  0.7904  0.0000
    16 H(1)   Bbb    -0.0012    -0.649    -0.232    -0.216  0.0000 -0.0000  1.0000
              Bcc     0.0051     2.715     0.969     0.906  0.7904  0.6126 -0.0000
 
              Baa    -0.0036    -1.908    -0.681    -0.637 -0.0000 -0.0002  1.0000
    17 H(1)   Bbb    -0.0021    -1.119    -0.399    -0.373 -0.2180  0.9760  0.0002
              Bcc     0.0057     3.027     1.080     1.010  0.9760  0.2180  0.0000
 
              Baa    -0.0068    -3.652    -1.303    -1.218 -0.0443  0.9990  0.0003
    18 H(1)   Bbb    -0.0045    -2.421    -0.864    -0.807 -0.0003 -0.0003  1.0000
              Bcc     0.0114     6.072     2.167     2.025  0.9990  0.0443  0.0003
 
              Baa    -0.0085    -4.519    -1.612    -1.507 -0.5941  0.8044 -0.0004
    19 H(1)   Bbb    -0.0042    -2.223    -0.793    -0.742 -0.0004  0.0002  1.0000
              Bcc     0.0126     6.742     2.406     2.249  0.8044  0.5941  0.0003
 

 ---------------------------------------------------------------------------------

 No NMR shielding tensors so no spin-rotation constants.
 Leave Link  601 at Sun Jan 21 08:12:27 2024, MaxMem=  4026531840 cpu:               2.9 elap:               0.5
 (Enter /sysapps/ubuntu-applications/gaussian/Gaussian/AVX2/g16/l9999.exe)
 1\1\GINC-ACIDSCN027\SP\UB3LYP\6-311++G(d,p)\C11H5N1O2(1-,2)\SELHAJJ1\2
 1-Jan-2024\0\\#P UB3LYP/6-311++G(d,p) SCRF=(PCM,Solvent=n,n-DiMethylFo
 rmamide)\\Radical PCM in DMF\\-1,2\C,0,5.673068,-5.103047,1.282258\C,0
 ,6.681635,-5.019595,0.348289\C,0,6.591437,-4.063049,-0.698563\C,0,4.54
 5471,-4.257065,1.225045\C,0,4.455318,-3.297782,0.175056\C,0,5.485413,-
 3.218803,-0.771526\C,0,3.490484,-4.37828,2.241579\C,0,2.382552,-3.4684
 1,2.092066\C,0,2.291897,-2.542272,1.081463\C,0,3.299184,-2.384504,0.06
 2713\O,0,3.557608,-5.222184,3.174441\O,0,3.210374,-1.536441,-0.858822\
 C,0,7.635326,-3.97432,-1.66814\N,0,8.492541,-3.916847,-2.44631\H,0,5.7
 15103,-5.822943,2.091508\H,0,7.544642,-5.673602,0.39972\H,0,5.394167,-
 2.481506,-1.560356\H,0,1.596713,-3.549687,2.837917\H,0,1.434796,-1.878
 554,1.012952\\Version=ES64L-G16RevA.03\State=2-A\HF=-627.6862453\S2=0.
 759552\S2-1=0.\S2A=0.750039\RMSD=5.182e-09\Dipole=0.4120552,-0.6148734
 ,0.3803345\Quadrupole=-0.3090455,7.6987351,-7.3896896,0.6475221,14.347
 3223,11.438342\PG=C01 [X(C11H5N1O2)]\\@


 OUR LITTLE SYSTEMS HAVE THEIR DAY,    
   THEY HAVE THEIR DAY AND CEASE TO BE.
   THEY ARE BUT BROKEN LIGHTS OF THEE, 
 AND THOU, OH LORD, ART MORE THAN THEY.
          -------------------          
 LET KNOWLEDGE GROW FROM MORE TO MORE, 
   BUT MORE OF REVERENCE IN US DWELL.  
   THAT MIND AND SOUL, ACCORDING WELL, 
 MAY MAKE ONE MUSIC AS BEFORE.....     
          -------------------          
                    LORD TENNYSON      
 Job cpu time:       0 days  0 hours 11 minutes 44.7 seconds.
 Elapsed time:       0 days  0 hours  1 minutes 32.4 seconds.
 File lengths (MBytes):  RWF=    172 Int=      0 D2E=      0 Chk=     10 Scr=      1
 Normal termination of Gaussian 16 at Sun Jan 21 08:12:27 2024.
