 Entering Gaussian System, Link 0=g16
 Input=179.com
 Output=179.log
 Initial command:
 /sysapps/ubuntu-applications/gaussian/Gaussian/AVX2/g16/l1.exe "/scratch/selhajj1/4406785/Gau-1999957.inp" -scrdir="/scratch/selhajj1/4406785/"
 Entering Link 1 = /sysapps/ubuntu-applications/gaussian/Gaussian/AVX2/g16/l1.exe PID=   1999959.
  
 Copyright (c) 1988,1990,1992,1993,1995,1998,2003,2009,2016,
            Gaussian, Inc.  All Rights Reserved.
  
 This is part of the Gaussian(R) 16 program.  It is based on
 the Gaussian(R) 09 system (copyright 2009, Gaussian, Inc.),
 the Gaussian(R) 03 system (copyright 2003, Gaussian, Inc.),
 the Gaussian(R) 98 system (copyright 1998, Gaussian, Inc.),
 the Gaussian(R) 94 system (copyright 1995, Gaussian, Inc.),
 the Gaussian 92(TM) system (copyright 1992, Gaussian, Inc.),
 the Gaussian 90(TM) system (copyright 1990, Gaussian, Inc.),
 the Gaussian 88(TM) system (copyright 1988, Gaussian, Inc.),
 the Gaussian 86(TM) system (copyright 1986, Carnegie Mellon
 University), and the Gaussian 82(TM) system (copyright 1983,
 Carnegie Mellon University). Gaussian is a federally registered
 trademark of Gaussian, Inc.
  
 This software contains proprietary and confidential information,
 including trade secrets, belonging to Gaussian, Inc.
  
 This software is provided under written license and may be
 used, copied, transmitted, or stored only in accord with that
 written license.
  
 The following legend is applicable only to US Government
 contracts under FAR:
  
                    RESTRICTED RIGHTS LEGEND
  
 Use, reproduction and disclosure by the US Government is
 subject to restrictions as set forth in subparagraphs (a)
 and (c) of the Commercial Computer Software - Restricted
 Rights clause in FAR 52.227-19.
  
 Gaussian, Inc.
 340 Quinnipiac St., Bldg. 40, Wallingford CT 06492
  
  
 ---------------------------------------------------------------
 Warning -- This program may not be used in any manner that
 competes with the business of Gaussian, Inc. or will provide
 assistance to any competitor of Gaussian, Inc.  The licensee
 of this program is prohibited from giving any competitor of
 Gaussian, Inc. access to this program.  By using this program,
 the user acknowledges that Gaussian, Inc. is engaged in the
 business of creating and licensing software in the field of
 computational chemistry and represents and warrants to the
 licensee that it is not a competitor of Gaussian, Inc. and that
 it will not use this program in any manner prohibited above.
 ---------------------------------------------------------------
  

 Cite this work as:
 Gaussian 16, Revision A.03,
 M. J. Frisch, G. W. Trucks, H. B. Schlegel, G. E. Scuseria, 
 M. A. Robb, J. R. Cheeseman, G. Scalmani, V. Barone, 
 G. A. Petersson, H. Nakatsuji, X. Li, M. Caricato, A. V. Marenich, 
 J. Bloino, B. G. Janesko, R. Gomperts, B. Mennucci, H. P. Hratchian, 
 J. V. Ortiz, A. F. Izmaylov, J. L. Sonnenberg, D. Williams-Young, 
 F. Ding, F. Lipparini, F. Egidi, J. Goings, B. Peng, A. Petrone, 
 T. Henderson, D. Ranasinghe, V. G. Zakrzewski, J. Gao, N. Rega, 
 G. Zheng, W. Liang, M. Hada, M. Ehara, K. Toyota, R. Fukuda, 
 J. Hasegawa, M. Ishida, T. Nakajima, Y. Honda, O. Kitao, H. Nakai, 
 T. Vreven, K. Throssell, J. A. Montgomery, Jr., J. E. Peralta, 
 F. Ogliaro, M. J. Bearpark, J. J. Heyd, E. N. Brothers, K. N. Kudin, 
 V. N. Staroverov, T. A. Keith, R. Kobayashi, J. Normand, 
 K. Raghavachari, A. P. Rendell, J. C. Burant, S. S. Iyengar, 
 J. Tomasi, M. Cossi, J. M. Millam, M. Klene, C. Adamo, R. Cammi, 
 J. W. Ochterski, R. L. Martin, K. Morokuma, O. Farkas, 
 J. B. Foresman, and D. J. Fox, Gaussian, Inc., Wallingford CT, 2016.
 
 ******************************************
 Gaussian 16:  ES64L-G16RevA.03 25-Dec-2016
                10-Feb-2024 
 ******************************************
 %chk=179.chk
 %nproc=8
 Will use up to    8 processors via shared memory.
 %mem=30GB
 ----------------------------------------------------------------------
 #P UB3LYP/6-311++G(d,p) nosym opt freq SCRF=(PCM,Solvent=n,n-DiMethylF
 ormamide)
 ----------------------------------------------------------------------
 1/18=20,19=15,26=3,38=1/1,3;
 2/9=110,12=2,15=1,17=6,18=5,40=1/2;
 3/5=4,6=6,7=1111,11=2,25=1,30=1,70=2201,71=1,72=148,74=-5,116=2/1,2,3;
 4//1;
 5/5=2,38=5,53=148/2;
 6/7=2,8=2,9=2,10=2,28=1/1;
 7/30=1/1,2,3,16;
 1/18=20,19=15,26=3/3(2);
 2/9=110,15=1/2;
 99//99;
 2/9=110,15=1/2;
 3/5=4,6=6,7=1111,11=2,25=1,30=1,70=2205,71=1,72=148,74=-5,116=2/1,2,3;
 4/5=5,16=3,69=1/1;
 5/5=2,38=5,53=148/2;
 7/30=1/1,2,3,16;
 1/18=20,19=15,26=3/3(-5);
 2/9=110,15=1/2;
 6/7=2,8=2,9=2,10=2,19=2,28=1/1;
 99/9=1/99;
 Leave Link    1 at Sat Feb 10 15:46:30 2024, MaxMem=  4026531840 cpu:               0.7 elap:               0.1
 (Enter /sysapps/ubuntu-applications/gaussian/Gaussian/AVX2/g16/l101.exe)
 --------
 Oxidized
 --------
 Symbolic Z-matrix:
 Charge =  0 Multiplicity = 1
 C                    -3.42802  -2.7445   -0.35606 
 O                    -2.13405  -2.17382  -0.19999 
 C                    -1.98804  -0.83208  -0.20154 
 C                    -3.08863   0.03674  -0.35474 
 C                    -2.9305    1.40459  -0.35522 
 C                    -1.66004   1.97659  -0.2021 
 O                    -1.58163   3.3142   -0.21245 
 C                    -0.53814   1.13111  -0.04638 
 C                     0.78243   1.75749   0.11244 
 O                     0.91195   2.99271   0.10983 
 C                     1.96876   0.89424   0.27733 
 C                     3.23285   1.47786   0.43029 
 C                     4.35314   0.67339   0.58593 
 C                     4.2187   -0.71889   0.58985 
 C                     2.96673  -1.30197   0.43839 
 C                     1.83163  -0.50054   0.28094 
 C                     0.49766  -1.16663   0.12032 
 O                     0.43725  -2.3849    0.13061 
 C                    -0.69618  -0.28882  -0.04513 
 H                    -3.27119  -3.82076  -0.31969 
 H                    -4.09944  -2.44905   0.45704 
 H                    -3.87316  -2.47611  -1.31992 
 H                    -4.08267  -0.37047  -0.47519 
 H                    -3.78056   2.06548  -0.47346 
 H                    -0.626     3.54541  -0.09449 
 H                     3.31013   2.5577    0.42379 
 H                     5.33164   1.1246    0.70438 
 H                     5.09456  -1.34629   0.71155 
 H                     2.84083  -2.37728   0.43859 
 
 ITRead=  0  0  0  0  0  0  0  0  0  0  0  0  0  0  0  0  0  0  0  0
 ITRead=  0  0  0  0  0  0  0  0  0
 MicOpt= -1 -1 -1 -1 -1 -1 -1 -1 -1 -1 -1 -1 -1 -1 -1 -1 -1 -1 -1 -1
 MicOpt= -1 -1 -1 -1 -1 -1 -1 -1 -1
 NAtoms=     29 NQM=       29 NQMF=       0 NMMI=      0 NMMIF=      0
                NMic=       0 NMicF=      0.
                    Isotopes and Nuclear Properties:
 (Nuclear quadrupole moments (NQMom) in fm**2, nuclear magnetic moments (NMagM)
  in nuclear magnetons)

  Atom         1           2           3           4           5           6           7           8           9          10
 IAtWgt=          12          16          12          12          12          12          16          12          12          16
 AtmWgt=  12.0000000  15.9949146  12.0000000  12.0000000  12.0000000  12.0000000  15.9949146  12.0000000  12.0000000  15.9949146
 NucSpn=           0           0           0           0           0           0           0           0           0           0
 AtZEff=  -0.0000000  -0.0000000  -0.0000000  -0.0000000  -0.0000000  -0.0000000  -0.0000000  -0.0000000  -0.0000000  -0.0000000
 NQMom=    0.0000000   0.0000000   0.0000000   0.0000000   0.0000000   0.0000000   0.0000000   0.0000000   0.0000000   0.0000000
 NMagM=    0.0000000   0.0000000   0.0000000   0.0000000   0.0000000   0.0000000   0.0000000   0.0000000   0.0000000   0.0000000
 AtZNuc=   6.0000000   8.0000000   6.0000000   6.0000000   6.0000000   6.0000000   8.0000000   6.0000000   6.0000000   8.0000000

  Atom        11          12          13          14          15          16          17          18          19          20
 IAtWgt=          12          12          12          12          12          12          12          16          12           1
 AtmWgt=  12.0000000  12.0000000  12.0000000  12.0000000  12.0000000  12.0000000  12.0000000  15.9949146  12.0000000   1.0078250
 NucSpn=           0           0           0           0           0           0           0           0           0           1
 AtZEff=  -0.0000000  -0.0000000  -0.0000000  -0.0000000  -0.0000000  -0.0000000  -0.0000000  -0.0000000  -0.0000000  -0.0000000
 NQMom=    0.0000000   0.0000000   0.0000000   0.0000000   0.0000000   0.0000000   0.0000000   0.0000000   0.0000000   0.0000000
 NMagM=    0.0000000   0.0000000   0.0000000   0.0000000   0.0000000   0.0000000   0.0000000   0.0000000   0.0000000   2.7928460
 AtZNuc=   6.0000000   6.0000000   6.0000000   6.0000000   6.0000000   6.0000000   6.0000000   8.0000000   6.0000000   1.0000000

  Atom        21          22          23          24          25          26          27          28          29
 IAtWgt=           1           1           1           1           1           1           1           1           1
 AtmWgt=   1.0078250   1.0078250   1.0078250   1.0078250   1.0078250   1.0078250   1.0078250   1.0078250   1.0078250
 NucSpn=           1           1           1           1           1           1           1           1           1
 AtZEff=  -0.0000000  -0.0000000  -0.0000000  -0.0000000  -0.0000000  -0.0000000  -0.0000000  -0.0000000  -0.0000000
 NQMom=    0.0000000   0.0000000   0.0000000   0.0000000   0.0000000   0.0000000   0.0000000   0.0000000   0.0000000
 NMagM=    2.7928460   2.7928460   2.7928460   2.7928460   2.7928460   2.7928460   2.7928460   2.7928460   2.7928460
 AtZNuc=   1.0000000   1.0000000   1.0000000   1.0000000   1.0000000   1.0000000   1.0000000   1.0000000   1.0000000
 Leave Link  101 at Sat Feb 10 15:46:30 2024, MaxMem=  4026531840 cpu:               3.2 elap:               0.6
 (Enter /sysapps/ubuntu-applications/gaussian/Gaussian/AVX2/g16/l103.exe)

 GradGradGradGradGradGradGradGradGradGradGradGradGradGradGradGradGradGrad
 Berny optimization.
 Initialization pass.
                           ----------------------------
                           !    Initial Parameters    !
                           ! (Angstroms and Degrees)  !
 --------------------------                            --------------------------
 ! Name  Definition              Value          Derivative Info.                !
 --------------------------------------------------------------------------------
 ! R1    R(1,2)                  1.4228         estimate D2E/DX2                !
 ! R2    R(1,20)                 1.0882         estimate D2E/DX2                !
 ! R3    R(1,21)                 1.0951         estimate D2E/DX2                !
 ! R4    R(1,22)                 1.0951         estimate D2E/DX2                !
 ! R5    R(2,3)                  1.3497         estimate D2E/DX2                !
 ! R6    R(3,4)                  1.4105         estimate D2E/DX2                !
 ! R7    R(3,19)                 1.4101         estimate D2E/DX2                !
 ! R8    R(4,5)                  1.377          estimate D2E/DX2                !
 ! R9    R(4,23)                 1.0809         estimate D2E/DX2                !
 ! R10   R(5,6)                  1.4017         estimate D2E/DX2                !
 ! R11   R(5,24)                 1.0832         estimate D2E/DX2                !
 ! R12   R(6,7)                  1.3399         estimate D2E/DX2                !
 ! R13   R(6,8)                  1.4134         estimate D2E/DX2                !
 ! R14   R(7,25)                 0.9903         estimate D2E/DX2                !
 ! R15   R(8,9)                  1.4702         estimate D2E/DX2                !
 ! R16   R(8,19)                 1.4287         estimate D2E/DX2                !
 ! R17   R(9,10)                 1.242          estimate D2E/DX2                !
 ! R18   R(9,11)                 1.4764         estimate D2E/DX2                !
 ! R19   R(11,12)                1.4007         estimate D2E/DX2                !
 ! R20   R(11,16)                1.4015         estimate D2E/DX2                !
 ! R21   R(12,13)                1.388          estimate D2E/DX2                !
 ! R22   R(12,26)                1.0826         estimate D2E/DX2                !
 ! R23   R(13,14)                1.3988         estimate D2E/DX2                !
 ! R24   R(13,27)                1.084          estimate D2E/DX2                !
 ! R25   R(14,15)                1.3894         estimate D2E/DX2                !
 ! R26   R(14,28)                1.0842         estimate D2E/DX2                !
 ! R27   R(15,16)                1.3984         estimate D2E/DX2                !
 ! R28   R(15,29)                1.0826         estimate D2E/DX2                !
 ! R29   R(16,17)                1.4996         estimate D2E/DX2                !
 ! R30   R(17,18)                1.2198         estimate D2E/DX2                !
 ! R31   R(17,19)                1.491          estimate D2E/DX2                !
 ! A1    A(2,1,20)             105.1856         estimate D2E/DX2                !
 ! A2    A(2,1,21)             111.5885         estimate D2E/DX2                !
 ! A3    A(2,1,22)             111.5877         estimate D2E/DX2                !
 ! A4    A(20,1,21)            109.2911         estimate D2E/DX2                !
 ! A5    A(20,1,22)            109.2925         estimate D2E/DX2                !
 ! A6    A(21,1,22)            109.7657         estimate D2E/DX2                !
 ! A7    A(1,2,3)              119.8016         estimate D2E/DX2                !
 ! A8    A(2,3,4)              121.8737         estimate D2E/DX2                !
 ! A9    A(2,3,19)             118.8143         estimate D2E/DX2                !
 ! A10   A(4,3,19)             119.312          estimate D2E/DX2                !
 ! A11   A(3,4,5)              121.4872         estimate D2E/DX2                !
 ! A12   A(3,4,23)             119.8408         estimate D2E/DX2                !
 ! A13   A(5,4,23)             118.6721         estimate D2E/DX2                !
 ! A14   A(4,5,6)              120.626          estimate D2E/DX2                !
 ! A15   A(4,5,24)             121.064          estimate D2E/DX2                !
 ! A16   A(6,5,24)             118.31           estimate D2E/DX2                !
 ! A17   A(5,6,7)              117.3591         estimate D2E/DX2                !
 ! A18   A(5,6,8)              119.1681         estimate D2E/DX2                !
 ! A19   A(7,6,8)              123.4728         estimate D2E/DX2                !
 ! A20   A(6,7,25)             106.7762         estimate D2E/DX2                !
 ! A21   A(6,8,9)              118.0353         estimate D2E/DX2                !
 ! A22   A(6,8,19)             120.4514         estimate D2E/DX2                !
 ! A23   A(9,8,19)             121.5134         estimate D2E/DX2                !
 ! A24   A(8,9,10)             121.1423         estimate D2E/DX2                !
 ! A25   A(8,9,11)             118.9933         estimate D2E/DX2                !
 ! A26   A(10,9,11)            119.8644         estimate D2E/DX2                !
 ! A27   A(9,11,12)            119.5867         estimate D2E/DX2                !
 ! A28   A(9,11,16)            120.2353         estimate D2E/DX2                !
 ! A29   A(12,11,16)           120.178          estimate D2E/DX2                !
 ! A30   A(11,12,13)           119.9451         estimate D2E/DX2                !
 ! A31   A(11,12,26)           118.6435         estimate D2E/DX2                !
 ! A32   A(13,12,26)           121.4114         estimate D2E/DX2                !
 ! A33   A(12,13,14)           119.9777         estimate D2E/DX2                !
 ! A34   A(12,13,27)           119.972          estimate D2E/DX2                !
 ! A35   A(14,13,27)           120.0503         estimate D2E/DX2                !
 ! A36   A(13,14,15)           120.2667         estimate D2E/DX2                !
 ! A37   A(13,14,28)           119.9108         estimate D2E/DX2                !
 ! A38   A(15,14,28)           119.8225         estimate D2E/DX2                !
 ! A39   A(14,15,16)           120.2114         estimate D2E/DX2                !
 ! A40   A(14,15,29)           121.4393         estimate D2E/DX2                !
 ! A41   A(16,15,29)           118.3493         estimate D2E/DX2                !
 ! A42   A(11,16,15)           119.421          estimate D2E/DX2                !
 ! A43   A(11,16,17)           121.9239         estimate D2E/DX2                !
 ! A44   A(15,16,17)           118.6551         estimate D2E/DX2                !
 ! A45   A(16,17,18)           119.1275         estimate D2E/DX2                !
 ! A46   A(16,17,19)           117.5562         estimate D2E/DX2                !
 ! A47   A(18,17,19)           123.3163         estimate D2E/DX2                !
 ! A48   A(3,19,8)             118.9554         estimate D2E/DX2                !
 ! A49   A(3,19,17)            121.2667         estimate D2E/DX2                !
 ! A50   A(8,19,17)            119.7779         estimate D2E/DX2                !
 ! D1    D(20,1,2,3)          -179.9853         estimate D2E/DX2                !
 ! D2    D(21,1,2,3)           -61.5903         estimate D2E/DX2                !
 ! D3    D(22,1,2,3)            61.6184         estimate D2E/DX2                !
 ! D4    D(1,2,3,4)             -0.0063         estimate D2E/DX2                !
 ! D5    D(1,2,3,19)           179.9912         estimate D2E/DX2                !
 ! D6    D(2,3,4,5)           -179.9962         estimate D2E/DX2                !
 ! D7    D(2,3,4,23)             0.0011         estimate D2E/DX2                !
 ! D8    D(19,3,4,5)             0.0063         estimate D2E/DX2                !
 ! D9    D(19,3,4,23)         -179.9964         estimate D2E/DX2                !
 ! D10   D(2,3,19,8)           179.9973         estimate D2E/DX2                !
 ! D11   D(2,3,19,17)           -0.0083         estimate D2E/DX2                !
 ! D12   D(4,3,19,8)            -0.0051         estimate D2E/DX2                !
 ! D13   D(4,3,19,17)          179.9893         estimate D2E/DX2                !
 ! D14   D(3,4,5,6)             -0.0002         estimate D2E/DX2                !
 ! D15   D(3,4,5,24)           179.9961         estimate D2E/DX2                !
 ! D16   D(23,4,5,6)          -179.9975         estimate D2E/DX2                !
 ! D17   D(23,4,5,24)           -0.0012         estimate D2E/DX2                !
 ! D18   D(4,5,6,7)            179.9914         estimate D2E/DX2                !
 ! D19   D(4,5,6,8)             -0.0069         estimate D2E/DX2                !
 ! D20   D(24,5,6,7)            -0.0051         estimate D2E/DX2                !
 ! D21   D(24,5,6,8)           179.9967         estimate D2E/DX2                !
 ! D22   D(5,6,7,25)          -179.9857         estimate D2E/DX2                !
 ! D23   D(8,6,7,25)             0.0124         estimate D2E/DX2                !
 ! D24   D(5,6,8,9)           -179.9935         estimate D2E/DX2                !
 ! D25   D(5,6,8,19)             0.0079         estimate D2E/DX2                !
 ! D26   D(7,6,8,9)              0.0084         estimate D2E/DX2                !
 ! D27   D(7,6,8,19)          -179.9902         estimate D2E/DX2                !
 ! D28   D(6,8,9,10)            -0.0257         estimate D2E/DX2                !
 ! D29   D(6,8,9,11)           179.9693         estimate D2E/DX2                !
 ! D30   D(19,8,9,10)          179.9729         estimate D2E/DX2                !
 ! D31   D(19,8,9,11)           -0.0321         estimate D2E/DX2                !
 ! D32   D(6,8,19,3)            -0.0019         estimate D2E/DX2                !
 ! D33   D(6,8,19,17)         -179.9964         estimate D2E/DX2                !
 ! D34   D(9,8,19,3)           179.9995         estimate D2E/DX2                !
 ! D35   D(9,8,19,17)            0.005          estimate D2E/DX2                !
 ! D36   D(8,9,11,12)         -179.9685         estimate D2E/DX2                !
 ! D37   D(8,9,11,16)            0.0288         estimate D2E/DX2                !
 ! D38   D(10,9,11,12)           0.0266         estimate D2E/DX2                !
 ! D39   D(10,9,11,16)        -179.9761         estimate D2E/DX2                !
 ! D40   D(9,11,12,13)         179.996          estimate D2E/DX2                !
 ! D41   D(9,11,12,26)          -0.0036         estimate D2E/DX2                !
 ! D42   D(16,11,12,13)         -0.0013         estimate D2E/DX2                !
 ! D43   D(16,11,12,26)        179.9991         estimate D2E/DX2                !
 ! D44   D(9,11,16,15)        -179.9976         estimate D2E/DX2                !
 ! D45   D(9,11,16,17)           0.0012         estimate D2E/DX2                !
 ! D46   D(12,11,16,15)         -0.0003         estimate D2E/DX2                !
 ! D47   D(12,11,16,17)        179.9985         estimate D2E/DX2                !
 ! D48   D(11,12,13,14)          0.0009         estimate D2E/DX2                !
 ! D49   D(11,12,13,27)       -179.9974         estimate D2E/DX2                !
 ! D50   D(26,12,13,14)       -179.9996         estimate D2E/DX2                !
 ! D51   D(26,12,13,27)          0.0022         estimate D2E/DX2                !
 ! D52   D(12,13,14,15)          0.0012         estimate D2E/DX2                !
 ! D53   D(12,13,14,28)       -179.9973         estimate D2E/DX2                !
 ! D54   D(27,13,14,15)        179.9995         estimate D2E/DX2                !
 ! D55   D(27,13,14,28)          0.001          estimate D2E/DX2                !
 ! D56   D(13,14,15,16)         -0.0029         estimate D2E/DX2                !
 ! D57   D(13,14,15,29)        179.9997         estimate D2E/DX2                !
 ! D58   D(28,14,15,16)        179.9956         estimate D2E/DX2                !
 ! D59   D(28,14,15,29)         -0.0018         estimate D2E/DX2                !
 ! D60   D(14,15,16,11)          0.0024         estimate D2E/DX2                !
 ! D61   D(14,15,16,17)       -179.9964         estimate D2E/DX2                !
 ! D62   D(29,15,16,11)        179.9999         estimate D2E/DX2                !
 ! D63   D(29,15,16,17)          0.0011         estimate D2E/DX2                !
 ! D64   D(11,16,17,18)        179.9751         estimate D2E/DX2                !
 ! D65   D(11,16,17,19)         -0.0278         estimate D2E/DX2                !
 ! D66   D(15,16,17,18)         -0.0261         estimate D2E/DX2                !
 ! D67   D(15,16,17,19)        179.971          estimate D2E/DX2                !
 ! D68   D(16,17,19,3)        -179.97           estimate D2E/DX2                !
 ! D69   D(16,17,19,8)           0.0244         estimate D2E/DX2                !
 ! D70   D(18,17,19,3)           0.0269         estimate D2E/DX2                !
 ! D71   D(18,17,19,8)        -179.9787         estimate D2E/DX2                !
 --------------------------------------------------------------------------------
 Trust Radius=3.00D-01 FncErr=1.00D-07 GrdErr=1.00D-06 EigMax=2.50D+02 EigMin=1.00D-04
 Number of steps in this run=    162 maximum allowed number of steps=    174.
 GradGradGradGradGradGradGradGradGradGradGradGradGradGradGradGradGradGrad

 Leave Link  103 at Sat Feb 10 15:46:30 2024, MaxMem=  4026531840 cpu:               0.2 elap:               0.0
 (Enter /sysapps/ubuntu-applications/gaussian/Gaussian/AVX2/g16/l202.exe)
                          Input orientation:                          
 ---------------------------------------------------------------------
 Center     Atomic      Atomic             Coordinates (Angstroms)
 Number     Number       Type             X           Y           Z
 ---------------------------------------------------------------------
      1          6           0       -3.428022   -2.744496   -0.356061
      2          8           0       -2.134049   -2.173816   -0.199985
      3          6           0       -1.988040   -0.832083   -0.201538
      4          6           0       -3.088634    0.036742   -0.354739
      5          6           0       -2.930504    1.404591   -0.355219
      6          6           0       -1.660041    1.976590   -0.202099
      7          8           0       -1.581629    3.314196   -0.212453
      8          6           0       -0.538143    1.131111   -0.046384
      9          6           0        0.782432    1.757489    0.112442
     10          8           0        0.911947    2.992705    0.109829
     11          6           0        1.968764    0.894244    0.277334
     12          6           0        3.232850    1.477862    0.430290
     13          6           0        4.353138    0.673386    0.585925
     14          6           0        4.218704   -0.718894    0.589848
     15          6           0        2.966729   -1.301974    0.438390
     16          6           0        1.831631   -0.500535    0.280940
     17          6           0        0.497662   -1.166626    0.120324
     18          8           0        0.437251   -2.384898    0.130605
     19          6           0       -0.696180   -0.288822   -0.045129
     20          1           0       -3.271190   -3.820755   -0.319688
     21          1           0       -4.099440   -2.449048    0.457035
     22          1           0       -3.873158   -2.476105   -1.319919
     23          1           0       -4.082670   -0.370471   -0.475192
     24          1           0       -3.780563    2.065475   -0.473456
     25          1           0       -0.626002    3.545408   -0.094489
     26          1           0        3.310127    2.557695    0.423785
     27          1           0        5.331641    1.124597    0.704376
     28          1           0        5.094561   -1.346293    0.711547
     29          1           0        2.840826   -2.377276    0.438588
 ---------------------------------------------------------------------
                    Distance matrix (angstroms):
                    1          2          3          4          5
     1  C    0.000000
     2  O    1.422815   0.000000
     3  C    2.398906   1.349655   0.000000
     4  C    2.801869   2.412830   1.410544   0.000000
     5  C    4.178809   3.669255   2.431988   1.376959   0.000000
     6  C    5.043621   4.177387   2.827760   2.413957   1.401679
     7  O    6.335419   5.515759   4.166164   3.610127   2.342314
     8  C    4.844340   3.673289   2.445487   2.792442   2.427666
     9  C    6.181851   4.904960   3.805257   4.261969   3.758875
    10  O    7.208874   6.005582   4.809977   4.995817   4.183635
    11  C    6.539642   5.145279   4.343480   5.168375   4.966226
    12  C    7.925520   6.521933   5.743931   6.531023   6.213640
    13  C    8.550772   7.127960   6.564836   7.527957   7.380505
    14  C    7.966820   6.564915   6.258017   7.406782   7.517547
    15  C    6.603398   5.213978   5.017972   6.252090   6.537023
    16  C    5.753701   4.331025   3.864272   4.990167   5.168378
    17  C    4.257653   2.836006   2.528681   3.812519   4.311568
    18  O    3.912351   2.601044   2.898895   4.304854   5.092939
    19  C    3.686458   2.375847   1.410141   2.434273   2.820639
    20  H    1.088234   2.004951   3.254627   3.861973   5.236561
    21  H    1.095088   2.090500   2.739764   2.803544   4.108126
    22  H    1.095081   2.090486   2.739937   2.803828   4.108411
    23  H    2.465512   2.669254   2.162278   1.080944   2.119605
    24  H    4.824302   4.556027   3.418029   2.146769   1.083212
    25  H    6.890764   5.915645   4.585743   4.294534   3.156233
    26  H    8.609532   7.239844   6.320775   6.921376   6.393901
    27  H    9.634630   8.211816   7.630662   8.556061   8.334517
    28  H    8.702251   7.332700   7.159705   8.367463   8.550264
    29  H    6.329674   5.019816   5.110316   6.450996   6.945567
                    6          7          8          9         10
     6  C    0.000000
     7  O    1.339942   0.000000
     8  C    1.413413   2.425346   0.000000
     9  C    2.472370   2.849154   1.470202   0.000000
    10  O    2.782968   2.534787   2.364888   1.241990   0.000000
    11  C    3.817009   4.324506   2.538795   1.476403   2.355517
    12  C    4.958732   5.192730   3.816784   2.486718   2.789988
    13  C    6.203035   6.544673   4.953176   3.761570   4.177045
    14  C    6.515555   7.110089   5.143433   4.262435   4.994099
    15  C    5.706681   6.513078   4.294070   3.773289   4.772248
    16  C    4.308277   5.142563   2.895728   2.495573   3.616327
    17  C    3.826153   4.950955   2.525921   2.937959   4.179925
    18  O    4.850969   6.055843   3.653086   4.156784   5.398554
    19  C    2.466933   3.713995   1.428701   2.529528   3.657664
    20  H    6.018209   7.333051   5.662616   6.909081   8.006645
    21  H    5.096214   6.324758   5.074821   6.453400   7.405891
    22  H    5.096460   6.324964   5.075059   6.453642   7.406031
    23  H    3.384140   4.461055   3.873280   5.342541   6.049744
    24  H    2.139661   2.542191   3.401281   4.610754   4.818675
    25  H    1.882022   0.990251   2.416374   2.285424   1.646971
    26  H    5.043013   4.990628   4.131027   2.669552   2.457452
    27  H    7.101493   7.309461   5.917605   4.631009   4.834978
    28  H    7.582938   8.194233   6.199947   5.346667   6.056668
    29  H    6.294794   7.237045   4.895039   4.630296   5.715361
                   11         12         13         14         15
    11  C    0.000000
    12  C    1.400685   0.000000
    13  C    2.414383   1.387966   0.000000
    14  C    2.786056   2.413111   1.398761   0.000000
    15  C    2.417694   2.792557   2.417839   1.389375   0.000000
    16  C    1.401509   2.428945   2.798054   2.416862   1.398407
    17  C    2.536923   3.817152   4.297339   3.777178   2.493146
    18  O    3.622131   4.777667   4.989448   4.157627   2.768703
    19  C    2.933522   4.334106   5.178773   4.974358   3.831079
    20  H    7.074233   8.422609   8.896506   8.157653   6.769828
    21  H    6.930584   8.317681   9.011786   8.497211   7.158692
    22  H    6.930983   8.318199   9.012407   8.497837   7.159210
    23  H    6.227813   7.599544   8.566123   8.376665   7.169125
    24  H    5.915254   7.095774   8.319693   8.536486   7.595862
    25  H    3.728235   4.409181   5.788204   6.490282   6.057127
    26  H    2.141908   1.082614   2.159811   3.404280   3.874943
    27  H    3.397701   2.145890   1.084016   2.156433   3.398795
    28  H    3.870291   3.394249   2.155132   1.084235   2.145751
    29  H    3.389593   3.875028   3.408128   2.161402   1.082648
                   16         17         18         19         20
    16  C    0.000000
    17  C    1.499649   0.000000
    18  O    2.348983   1.219812   0.000000
    19  C    2.557532   1.491031   2.389369   0.000000
    20  H    6.117467   4.630578   4.002122   4.379567   0.000000
    21  H    6.245424   4.784488   4.548872   4.062133   1.780696
    22  H    6.245818   4.784674   4.548842   4.062325   1.780705
    23  H    5.963859   4.686997   4.985438   3.414665   3.547836
    24  H    6.216932   5.394651   6.161223   3.903793   5.910229
    25  H    4.748743   4.848920   6.029072   3.835190   7.829948
    26  H    3.399871   4.676817   5.724386   4.936905   9.195168
    27  H    3.882064   5.381280   6.049861   6.236516   9.975666
    28  H    3.398153   4.638244   4.806946   5.934938   8.784771
    29  H    2.136699   2.656574   2.423238   4.135944   6.325769
                   21         22         23         24         25
    21  H    0.000000
    22  H    1.791508   0.000000
    23  H    2.278116   2.278410   0.000000
    24  H    4.620434   4.620717   2.454609   0.000000
    25  H    6.949997   6.950131   5.237136   3.505007   0.000000
    26  H    8.942609   8.943111   8.002235   7.164161   4.091124
    27  H   10.088479  10.089160   9.604991   9.236060   6.480125
    28  H    9.263396   9.264087   9.304953   9.581869   7.569893
    29  H    6.940662   6.941159   7.266158   8.025749   6.883404
                   26         27         28         29
    26  H    0.000000
    27  H    2.493796   0.000000
    28  H    4.302108   2.482248   0.000000
    29  H    4.957257   4.305568   2.493342   0.000000
 Symmetry turned off by external request.
 Stoichiometry    C15H10O4
 Framework group  C1[X(C15H10O4)]
 Deg. of freedom    81
 Full point group                 C1      NOp   1
 Rotational constants (GHZ):           0.6070473           0.3294961           0.2138646
 Leave Link  202 at Sat Feb 10 15:46:30 2024, MaxMem=  4026531840 cpu:               0.3 elap:               0.1
 (Enter /sysapps/ubuntu-applications/gaussian/Gaussian/AVX2/g16/l301.exe)
 Standard basis: 6-311++G(d,p) (5D, 7F)
 Ernie: Thresh=  0.10000D-02 Tol=  0.10000D-05 Strict=F.
   488 basis functions,   774 primitive gaussians,   507 cartesian basis functions
    66 alpha electrons       66 beta electrons
       nuclear repulsion energy      1360.6185728523 Hartrees.
 IExCor=  402 DFT=T Ex+Corr=B3LYP ExCW=0 ScaHFX=  0.200000
 ScaDFX=  0.800000  0.720000  1.000000  0.810000 ScalE2=  1.000000  1.000000
 IRadAn=      5 IRanWt=     -1 IRanGd=            0 ICorTp=0 IEmpDi=  4
 NAtoms=   29 NActive=   29 NUniq=   29 SFac= 1.00D+00 NAtFMM=   60 NAOKFM=F Big=F
 Integral buffers will be    131072 words long.
 Raffenetti 2 integral format.
 Two-electron integral symmetry is turned off.
 ------------------------------------------------------------------------------
 Polarizable Continuum Model (PCM)
 =================================
 Model                : PCM.
 Atomic radii         : UFF (Universal Force Field).
 Polarization charges : Total charges.
 Charge compensation  : None.
 Solution method      : On-the-fly selection.
 Cavity type          : Scaled VdW (van der Waals Surface) (Alpha=1.100).
 Cavity algorithm     : GePol (No added spheres)
                        Default sphere list used, NSphG=   29.
                        Lebedev-Laikov grids with approx.  5.0 points / Ang**2.
                        Smoothing algorithm: York/Karplus (Gamma=1.0000).
                        Polarization charges: spherical gaussians, with
                                              point-specific exponents (IZeta= 3).
                        Self-potential: point-specific (ISelfS= 7).
                        Self-field    : sphere-specific E.n sum rule (ISelfD= 2).
 1st derivatives      : Analytical E(r).r(x)/FMM algorithm (CHGder, D1EAlg=3).
                        Cavity 1st derivative terms included.
 Solvent              : n,n-DiMethylFormamide, Eps=  37.219000 Eps(inf)=   2.046330
 ------------------------------------------------------------------------------
 GePol: Number of generator spheres                  =      29
 GePol: Total number of spheres                      =      29
 GePol: Number of exposed spheres                    =      29 (100.00%)
 GePol: Number of points                             =    2355
 GePol: Average weight of points                     =       0.12
 GePol: Minimum weight of points                     =   0.44D-10
 GePol: Maximum weight of points                     =    0.20577
 GePol: Number of points with low weight             =     156
 GePol: Fraction of low-weight points (<1% of avg)   =       6.62%
 GePol: Cavity surface area                          =    290.422 Ang**2
 GePol: Cavity volume                                =    320.530 Ang**3
 Leave Link  301 at Sat Feb 10 15:46:31 2024, MaxMem=  4026531840 cpu:               1.3 elap:               0.3
 (Enter /sysapps/ubuntu-applications/gaussian/Gaussian/AVX2/g16/l302.exe)
 NPDir=0 NMtPBC=     1 NCelOv=     1 NCel=       1 NClECP=     1 NCelD=      1
         NCelK=      1 NCelE2=     1 NClLst=     1 CellRange=     0.0.
 One-electron integrals computed using PRISM.
 NBasis=   488 RedAO= T EigKep=  1.19D-06  NBF=   488
 NBsUse=   481 1.00D-06 EigRej=  6.69D-07 NBFU=   481
 Precomputing XC quadrature grid using
 IXCGrd= 4 IRadAn=           5 IRanWt=          -1 IRanGd=           0 AccXCQ= 0.00D+00.
 Generated NRdTot=       0 NPtTot=           0 NUsed=           0 NTot=          32
 NSgBfM=   505   505   505   505   505 MxSgAt=    29 MxSgA2=    29.
 Leave Link  302 at Sat Feb 10 15:46:31 2024, MaxMem=  4026531840 cpu:               4.5 elap:               0.6
 (Enter /sysapps/ubuntu-applications/gaussian/Gaussian/AVX2/g16/l303.exe)
 DipDrv:  MaxL=1.
 Leave Link  303 at Sat Feb 10 15:46:32 2024, MaxMem=  4026531840 cpu:               1.2 elap:               0.3
 (Enter /sysapps/ubuntu-applications/gaussian/Gaussian/AVX2/g16/l401.exe)
 ExpMin= 3.60D-02 ExpMax= 8.59D+03 ExpMxC= 1.30D+03 IAcc=3 IRadAn=         5 AccDes= 0.00D+00
 Harris functional with IExCor=  402 and IRadAn=       5 diagonalized for initial guess.
 HarFok:  IExCor=  402 AccDes= 0.00D+00 IRadAn=         5 IDoV= 1 UseB2=F ITyADJ=14
 ICtDFT=  3500011 ScaDFX=  1.000000  1.000000  1.000000  1.000000
 FoFCou: FMM=F IPFlag=           0 FMFlag=      100000 FMFlg1=           0
         NFxFlg=           0 DoJE=T BraDBF=F KetDBF=T FulRan=T
         wScrn=  0.000000 ICntrl=       500 IOpCl=  0 I1Cent=   200000004 NGrid=           0
         NMat0=    1 NMatS0=      1 NMatT0=    0 NMatD0=    1 NMtDS0=    0 NMtDT0=    0
 Symmetry not used in FoFCou.
 Harris En= -878.769753925895    
 JPrj=0 DoOrth=F DoCkMO=F.
 Initial guess <Sx>= 0.0000 <Sy>= 0.0000 <Sz>= 0.0000 <S**2>=-0.0000 S=-0.0000
 Leave Link  401 at Sat Feb 10 15:46:36 2024, MaxMem=  4026531840 cpu:              31.0 elap:               4.0
 (Enter /sysapps/ubuntu-applications/gaussian/Gaussian/AVX2/g16/l502.exe)
 Two-electron integral symmetry not used.
 UHF open shell SCF:
 Using DIIS extrapolation, IDIIS=  1040.
 NGot=  4026531840 LenX=  4026010080 LenY=  4025752524
 Requested convergence on RMS density matrix=1.00D-08 within 128 cycles.
 Requested convergence on MAX density matrix=1.00D-06.
 Requested convergence on             energy=1.00D-06.
 No special actions if energy rises.
 Fock matrices will be formed incrementally for  20 cycles.

 Cycle   1  Pass 1  IDiag  1:
 FoFJK:  IHMeth= 1 ICntrl=       0 DoSepK=F KAlg= 0 I1Cent=           0 FoldK=F
 IRaf= 840000000 NMat=       1 IRICut=       1 DoRegI=T DoRafI=F ISym2E= 0 IDoP0=0 IntGTp=1.
 FoFCou: FMM=F IPFlag=           0 FMFlag=      100000 FMFlg1=           0
         NFxFlg=           0 DoJE=F BraDBF=F KetDBF=F FulRan=T
         wScrn=  0.000000 ICntrl=         0 IOpCl=  1 I1Cent=           0 NGrid=           0
         NMat0=    1 NMatS0=      1 NMatT0=    0 NMatD0=    1 NMtDS0=    0 NMtDT0=    0
 Symmetry not used in FoFCou.
 Inv3:  Mode=1 IEnd=    16638075.
 Iteration    1 A*A^-1 deviation from unit magnitude is 3.77D-15 for    365.
 Iteration    1 A*A^-1 deviation from orthogonality  is 2.05D-15 for   1262    253.
 Iteration    1 A^-1*A deviation from unit magnitude is 3.33D-15 for    374.
 Iteration    1 A^-1*A deviation from orthogonality  is 1.53D-15 for   1982    887.
 E= -878.389107033639    
 DIIS: error= 3.05D-02 at cycle   1 NSaved=   1.
 NSaved= 1 IEnMin= 1 EnMin= -878.389107033639     IErMin= 1 ErrMin= 3.05D-02
 ErrMax= 3.05D-02  0.00D+00 EMaxC= 1.00D-01 BMatC= 1.99D+00 BMatP= 1.99D+00
 IDIUse=3 WtCom= 6.95D-01 WtEn= 3.05D-01
 Coeff-Com:  0.100D+01
 Coeff-En:   0.100D+01
 Coeff:      0.100D+01
 Gap=     0.115 Goal=   None    Shift=    0.000
 Gap=     0.115 Goal=   None    Shift=    0.000
 GapD=    0.115 DampG=1.000 DampE=0.500 DampFc=0.5000 IDamp=-1.
 Damping current iteration by 5.00D-01
 RMSDP=1.28D-02 MaxDP=5.60D-01              OVMax= 2.07D-01

 Cycle   2  Pass 1  IDiag  1:
 RMSU=  6.40D-03    CP:  9.93D-01
 E= -878.517574260185     Delta-E=       -0.128467226546 Rises=F Damp=T
 DIIS: error= 1.27D-02 at cycle   2 NSaved=   2.
 NSaved= 2 IEnMin= 2 EnMin= -878.517574260185     IErMin= 2 ErrMin= 1.27D-02
 ErrMax= 1.27D-02  0.00D+00 EMaxC= 1.00D-01 BMatC= 2.57D-01 BMatP= 1.99D+00
 IDIUse=3 WtCom= 8.73D-01 WtEn= 1.27D-01
 Coeff-Com:  0.155D+00 0.845D+00
 Coeff-En:   0.268D+00 0.732D+00
 Coeff:      0.170D+00 0.830D+00
 Gap=     0.167 Goal=   None    Shift=    0.000
 Gap=     0.167 Goal=   None    Shift=    0.000
 RMSDP=6.24D-03 MaxDP=3.85D-01 DE=-1.28D-01 OVMax= 2.16D-01

 Cycle   3  Pass 1  IDiag  1:
 RMSU=  6.17D-03    CP:  1.00D+00  8.99D-01
 E= -878.707329842726     Delta-E=       -0.189755582541 Rises=F Damp=F
 DIIS: error= 1.84D-02 at cycle   3 NSaved=   3.
 NSaved= 3 IEnMin= 3 EnMin= -878.707329842726     IErMin= 2 ErrMin= 1.27D-02
 ErrMax= 1.84D-02  0.00D+00 EMaxC= 1.00D-01 BMatC= 2.94D-01 BMatP= 2.57D-01
 IDIUse=2 WtCom= 0.00D+00 WtEn= 1.00D+00
 Coeff-En:   0.000D+00 0.000D+00 0.100D+01
 Coeff:      0.000D+00 0.000D+00 0.100D+01
 Gap=     0.114 Goal=   None    Shift=    0.000
 Gap=     0.114 Goal=   None    Shift=    0.000
 RMSDP=7.22D-03 MaxDP=3.55D-01 DE=-1.90D-01 OVMax= 1.78D-01

 Cycle   4  Pass 1  IDiag  1:
 RMSU=  4.13D-03    CP:  9.95D-01  1.32D+00  1.51D-01
 E= -878.423642523004     Delta-E=        0.283687319723 Rises=F Damp=F
 DIIS: error= 5.17D-02 at cycle   4 NSaved=   4.
 NSaved= 4 IEnMin= 3 EnMin= -878.707329842726     IErMin= 2 ErrMin= 1.27D-02
 ErrMax= 5.17D-02  0.00D+00 EMaxC= 1.00D-01 BMatC= 1.72D+00 BMatP= 2.57D-01
 IDIUse=2 WtCom= 0.00D+00 WtEn= 1.00D+00
 Coeff-En:   0.000D+00 0.000D+00 0.792D+00 0.208D+00
 Coeff:      0.000D+00 0.000D+00 0.792D+00 0.208D+00
 Gap=     0.134 Goal=   None    Shift=    0.000
 Gap=     0.134 Goal=   None    Shift=    0.000
 RMSDP=3.99D-03 MaxDP=2.53D-01 DE= 2.84D-01 OVMax= 9.35D-02

 Cycle   5  Pass 1  IDiag  1:
 RMSU=  8.13D-04    CP:  9.89D-01  1.01D+00  5.72D-01  4.84D-01
 E= -878.745110834864     Delta-E=       -0.321468311860 Rises=F Damp=F
 DIIS: error= 1.31D-02 at cycle   5 NSaved=   5.
 NSaved= 5 IEnMin= 5 EnMin= -878.745110834864     IErMin= 2 ErrMin= 1.27D-02
 ErrMax= 1.31D-02  0.00D+00 EMaxC= 1.00D-01 BMatC= 1.20D-01 BMatP= 2.57D-01
 IDIUse=3 WtCom= 8.69D-01 WtEn= 1.31D-01
 Coeff-Com:  0.868D-03 0.169D-01 0.298D+00-0.873D-01 0.772D+00
 Coeff-En:   0.000D+00 0.000D+00 0.332D+00 0.000D+00 0.668D+00
 Coeff:      0.755D-03 0.147D-01 0.302D+00-0.759D-01 0.758D+00
 Gap=     0.113 Goal=   None    Shift=    0.000
 Gap=     0.113 Goal=   None    Shift=    0.000
 RMSDP=1.64D-03 MaxDP=1.37D-01 DE=-3.21D-01 OVMax= 3.78D-02

 Cycle   6  Pass 1  IDiag  1:
 RMSU=  4.91D-04    CP:  9.78D-01  9.47D-01  7.07D-01  2.49D-01  6.50D-01
 E= -878.769978680410     Delta-E=       -0.024867845546 Rises=F Damp=F
 DIIS: error= 7.87D-04 at cycle   6 NSaved=   6.
 NSaved= 6 IEnMin= 6 EnMin= -878.769978680410     IErMin= 6 ErrMin= 7.87D-04
 ErrMax= 7.87D-04  0.00D+00 EMaxC= 1.00D-01 BMatC= 8.43D-04 BMatP= 1.20D-01
 IDIUse=3 WtCom= 9.92D-01 WtEn= 7.87D-03
 Coeff-Com: -0.195D-02 0.112D-01 0.162D+00-0.661D-01 0.497D+00 0.397D+00
 Coeff-En:   0.000D+00 0.000D+00 0.000D+00 0.000D+00 0.000D+00 0.100D+01
 Coeff:     -0.193D-02 0.111D-01 0.161D+00-0.656D-01 0.493D+00 0.402D+00
 Gap=     0.112 Goal=   None    Shift=    0.000
 Gap=     0.112 Goal=   None    Shift=    0.000
 RMSDP=2.15D-04 MaxDP=1.86D-02 DE=-2.49D-02 OVMax= 7.33D-03

 Cycle   7  Pass 1  IDiag  1:
 RMSU=  6.26D-05    CP:  9.80D-01  9.49D-01  7.13D-01  2.67D-01  7.26D-01
                    CP:  7.59D-01
 E= -878.770173256802     Delta-E=       -0.000194576392 Rises=F Damp=F
 DIIS: error= 1.56D-04 at cycle   7 NSaved=   7.
 NSaved= 7 IEnMin= 7 EnMin= -878.770173256802     IErMin= 7 ErrMin= 1.56D-04
 ErrMax= 1.56D-04  0.00D+00 EMaxC= 1.00D-01 BMatC= 3.22D-05 BMatP= 8.43D-04
 IDIUse=3 WtCom= 9.98D-01 WtEn= 1.56D-03
 Coeff-Com: -0.709D-03 0.308D-02 0.449D-01-0.236D-01 0.152D+00 0.167D+00
 Coeff-Com:  0.657D+00
 Coeff-En:   0.000D+00 0.000D+00 0.000D+00 0.000D+00 0.000D+00 0.000D+00
 Coeff-En:   0.100D+01
 Coeff:     -0.708D-03 0.307D-02 0.448D-01-0.236D-01 0.152D+00 0.167D+00
 Coeff:      0.657D+00
 Gap=     0.113 Goal=   None    Shift=    0.000
 Gap=     0.113 Goal=   None    Shift=    0.000
 RMSDP=5.46D-05 MaxDP=4.05D-03 DE=-1.95D-04 OVMax= 1.72D-03

 Cycle   8  Pass 1  IDiag  1:
 RMSU=  3.04D-05    CP:  9.80D-01  9.49D-01  7.12D-01  2.66D-01  7.28D-01
                    CP:  7.78D-01  7.28D-01
 E= -878.770179419801     Delta-E=       -0.000006162999 Rises=F Damp=F
 DIIS: error= 5.54D-05 at cycle   8 NSaved=   8.
 NSaved= 8 IEnMin= 8 EnMin= -878.770179419801     IErMin= 8 ErrMin= 5.54D-05
 ErrMax= 5.54D-05  0.00D+00 EMaxC= 1.00D-01 BMatC= 5.92D-06 BMatP= 3.22D-05
 IDIUse=1 WtCom= 1.00D+00 WtEn= 0.00D+00
 Coeff-Com:  0.123D-03-0.273D-03 0.106D-01-0.541D-02 0.333D-01 0.446D-01
 Coeff-Com:  0.370D+00 0.547D+00
 Coeff:      0.123D-03-0.273D-03 0.106D-01-0.541D-02 0.333D-01 0.446D-01
 Coeff:      0.370D+00 0.547D+00
 Gap=     0.113 Goal=   None    Shift=    0.000
 Gap=     0.113 Goal=   None    Shift=    0.000
 RMSDP=2.79D-05 MaxDP=1.79D-03 DE=-6.16D-06 OVMax= 7.33D-04

 Cycle   9  Pass 1  IDiag  1:
 RMSU=  8.39D-06    CP:  9.80D-01  9.48D-01  7.14D-01  2.66D-01  7.37D-01
                    CP:  7.42D-01  7.89D-01  5.59D-01
 E= -878.770180686186     Delta-E=       -0.000001266385 Rises=F Damp=F
 DIIS: error= 1.75D-05 at cycle   9 NSaved=   9.
 NSaved= 9 IEnMin= 9 EnMin= -878.770180686186     IErMin= 9 ErrMin= 1.75D-05
 ErrMax= 1.75D-05  0.00D+00 EMaxC= 1.00D-01 BMatC= 5.94D-07 BMatP= 5.92D-06
 IDIUse=1 WtCom= 1.00D+00 WtEn= 0.00D+00
 Coeff-Com:  0.162D-03-0.567D-03 0.284D-02-0.120D-02 0.747D-02 0.120D-01
 Coeff-Com:  0.157D+00 0.323D+00 0.499D+00
 Coeff:      0.162D-03-0.567D-03 0.284D-02-0.120D-02 0.747D-02 0.120D-01
 Coeff:      0.157D+00 0.323D+00 0.499D+00
 Gap=     0.113 Goal=   None    Shift=    0.000
 Gap=     0.113 Goal=   None    Shift=    0.000
 RMSDP=7.03D-06 MaxDP=6.42D-04 DE=-1.27D-06 OVMax= 1.69D-04

 Cycle  10  Pass 1  IDiag  1:
 RMSU=  3.58D-06    CP:  9.80D-01  9.48D-01  7.14D-01  2.67D-01  7.34D-01
                    CP:  7.47D-01  8.07D-01  5.43D-01  8.17D-01
 E= -878.770180824381     Delta-E=       -0.000000138196 Rises=F Damp=F
 DIIS: error= 3.46D-06 at cycle  10 NSaved=  10.
 NSaved=10 IEnMin=10 EnMin= -878.770180824381     IErMin=10 ErrMin= 3.46D-06
 ErrMax= 3.46D-06  0.00D+00 EMaxC= 1.00D-01 BMatC= 1.96D-08 BMatP= 5.94D-07
 IDIUse=1 WtCom= 1.00D+00 WtEn= 0.00D+00
 Coeff-Com:  0.548D-04-0.182D-03 0.471D-03-0.214D-03 0.111D-02 0.204D-02
 Coeff-Com:  0.395D-01 0.989D-01 0.218D+00 0.640D+00
 Coeff:      0.548D-04-0.182D-03 0.471D-03-0.214D-03 0.111D-02 0.204D-02
 Coeff:      0.395D-01 0.989D-01 0.218D+00 0.640D+00
 Gap=     0.113 Goal=   None    Shift=    0.000
 Gap=     0.113 Goal=   None    Shift=    0.000
 RMSDP=1.37D-06 MaxDP=8.94D-05 DE=-1.38D-07 OVMax= 2.82D-05

 Cycle  11  Pass 1  IDiag  1:
 RMSU=  7.96D-07    CP:  9.80D-01  9.48D-01  7.14D-01  2.67D-01  7.34D-01
                    CP:  7.47D-01  8.08D-01  5.53D-01  8.02D-01  8.84D-01
 E= -878.770180827232     Delta-E=       -0.000000002851 Rises=F Damp=F
 DIIS: error= 2.45D-06 at cycle  11 NSaved=  11.
 NSaved=11 IEnMin=11 EnMin= -878.770180827232     IErMin=11 ErrMin= 2.45D-06
 ErrMax= 2.45D-06  0.00D+00 EMaxC= 1.00D-01 BMatC= 7.27D-09 BMatP= 1.96D-08
 IDIUse=1 WtCom= 1.00D+00 WtEn= 0.00D+00
 Coeff-Com:  0.155D-04-0.445D-04-0.197D-03 0.685D-04-0.662D-03-0.643D-03
 Coeff-Com:  0.493D-02 0.240D-01 0.834D-01 0.424D+00 0.465D+00
 Coeff:      0.155D-04-0.445D-04-0.197D-03 0.685D-04-0.662D-03-0.643D-03
 Coeff:      0.493D-02 0.240D-01 0.834D-01 0.424D+00 0.465D+00
 Gap=     0.113 Goal=   None    Shift=    0.000
 Gap=     0.113 Goal=   None    Shift=    0.000
 RMSDP=5.02D-07 MaxDP=5.16D-05 DE=-2.85D-09 OVMax= 1.10D-05

 Cycle  12  Pass 1  IDiag  1:
 RMSU=  2.53D-07    CP:  9.80D-01  9.48D-01  7.14D-01  2.67D-01  7.34D-01
                    CP:  7.47D-01  8.08D-01  5.54D-01  8.11D-01  9.19D-01
                    CP:  7.30D-01
 E= -878.770180828596     Delta-E=       -0.000000001364 Rises=F Damp=F
 DIIS: error= 4.89D-07 at cycle  12 NSaved=  12.
 NSaved=12 IEnMin=12 EnMin= -878.770180828596     IErMin=12 ErrMin= 4.89D-07
 ErrMax= 4.89D-07  0.00D+00 EMaxC= 1.00D-01 BMatC= 4.17D-10 BMatP= 7.27D-09
 IDIUse=1 WtCom= 1.00D+00 WtEn= 0.00D+00
 Coeff-Com:  0.270D-05-0.688D-05-0.137D-03 0.435D-04-0.391D-03-0.439D-03
 Coeff-Com: -0.233D-03 0.530D-02 0.300D-01 0.193D+00 0.259D+00 0.513D+00
 Coeff:      0.270D-05-0.688D-05-0.137D-03 0.435D-04-0.391D-03-0.439D-03
 Coeff:     -0.233D-03 0.530D-02 0.300D-01 0.193D+00 0.259D+00 0.513D+00
 Gap=     0.113 Goal=   None    Shift=    0.000
 Gap=     0.113 Goal=   None    Shift=    0.000
 RMSDP=1.13D-07 MaxDP=9.42D-06 DE=-1.36D-09 OVMax= 2.47D-06

 Cycle  13  Pass 1  IDiag  1:
 RMSU=  8.20D-08    CP:  9.80D-01  9.48D-01  7.14D-01  2.67D-01  7.34D-01
                    CP:  7.47D-01  8.08D-01  5.53D-01  8.16D-01  9.16D-01
                    CP:  7.41D-01  8.06D-01
 E= -878.770180828683     Delta-E=       -0.000000000087 Rises=F Damp=F
 DIIS: error= 2.04D-07 at cycle  13 NSaved=  13.
 NSaved=13 IEnMin=13 EnMin= -878.770180828683     IErMin=13 ErrMin= 2.04D-07
 ErrMax= 2.04D-07  0.00D+00 EMaxC= 1.00D-01 BMatC= 5.10D-11 BMatP= 4.17D-10
 IDIUse=1 WtCom= 1.00D+00 WtEn= 0.00D+00
 Coeff-Com: -0.172D-05 0.385D-05-0.376D-04 0.131D-04-0.915D-04-0.106D-03
 Coeff-Com: -0.917D-03-0.173D-02 0.807D-03 0.235D-01 0.452D-01 0.261D+00
 Coeff-Com:  0.672D+00
 Coeff:     -0.172D-05 0.385D-05-0.376D-04 0.131D-04-0.915D-04-0.106D-03
 Coeff:     -0.917D-03-0.173D-02 0.807D-03 0.235D-01 0.452D-01 0.261D+00
 Coeff:      0.672D+00
 Gap=     0.113 Goal=   None    Shift=    0.000
 Gap=     0.113 Goal=   None    Shift=    0.000
 RMSDP=5.74D-08 MaxDP=4.86D-06 DE=-8.71D-11 OVMax= 1.54D-06

 Cycle  14  Pass 1  IDiag  1:
 RMSU=  2.91D-08    CP:  9.80D-01  9.48D-01  7.14D-01  2.67D-01  7.34D-01
                    CP:  7.47D-01  8.08D-01  5.53D-01  8.18D-01  9.21D-01
                    CP:  7.44D-01  8.48D-01  1.00D+00
 E= -878.770180828680     Delta-E=        0.000000000003 Rises=F Damp=F
 DIIS: error= 6.21D-08 at cycle  14 NSaved=  14.
 NSaved=14 IEnMin=13 EnMin= -878.770180828683     IErMin=14 ErrMin= 6.21D-08
 ErrMax= 6.21D-08  0.00D+00 EMaxC= 1.00D-01 BMatC= 5.07D-12 BMatP= 5.10D-11
 IDIUse=1 WtCom= 1.00D+00 WtEn= 0.00D+00
 Coeff-Com: -0.114D-05 0.248D-05-0.714D-05 0.246D-05-0.106D-04-0.185D-04
 Coeff-Com: -0.386D-03-0.130D-02-0.165D-02-0.286D-02 0.105D-02 0.899D-01
 Coeff-Com:  0.354D+00 0.561D+00
 Coeff:     -0.114D-05 0.248D-05-0.714D-05 0.246D-05-0.106D-04-0.185D-04
 Coeff:     -0.386D-03-0.130D-02-0.165D-02-0.286D-02 0.105D-02 0.899D-01
 Coeff:      0.354D+00 0.561D+00
 Gap=     0.113 Goal=   None    Shift=    0.000
 Gap=     0.113 Goal=   None    Shift=    0.000
 RMSDP=1.93D-08 MaxDP=1.18D-06 DE= 2.96D-12 OVMax= 5.04D-07

 Cycle  15  Pass 1  IDiag  1:
 RMSU=  8.76D-09    CP:  9.80D-01  9.48D-01  7.14D-01  2.67D-01  7.34D-01
                    CP:  7.47D-01  8.08D-01  5.53D-01  8.17D-01  9.23D-01
                    CP:  7.45D-01  8.51D-01  9.72D-01  6.85D-01
 E= -878.770180828698     Delta-E=       -0.000000000018 Rises=F Damp=F
 DIIS: error= 1.97D-08 at cycle  15 NSaved=  15.
 NSaved=15 IEnMin=15 EnMin= -878.770180828698     IErMin=15 ErrMin= 1.97D-08
 ErrMax= 1.97D-08  0.00D+00 EMaxC= 1.00D-01 BMatC= 6.49D-13 BMatP= 5.07D-12
 IDIUse=1 WtCom= 1.00D+00 WtEn= 0.00D+00
 Coeff-Com: -0.375D-06 0.835D-06 0.342D-06 0.301D-07 0.341D-05-0.373D-05
 Coeff-Com: -0.950D-04-0.525D-03-0.949D-03-0.502D-02-0.690D-02 0.936D-02
 Coeff-Com:  0.947D-01 0.303D+00 0.606D+00
 Coeff:     -0.375D-06 0.835D-06 0.342D-06 0.301D-07 0.341D-05-0.373D-05
 Coeff:     -0.950D-04-0.525D-03-0.949D-03-0.502D-02-0.690D-02 0.936D-02
 Coeff:      0.947D-01 0.303D+00 0.606D+00
 Gap=     0.113 Goal=   None    Shift=    0.000
 Gap=     0.113 Goal=   None    Shift=    0.000
 RMSDP=6.89D-09 MaxDP=4.52D-07 DE=-1.77D-11 OVMax= 1.30D-07

 Error on total polarization charges =  0.01634
 SCF Done:  E(UB3LYP) =  -878.770180829     A.U. after   15 cycles
            NFock= 15  Conv=0.69D-08     -V/T= 2.0040
 <Sx>= 0.0000 <Sy>= 0.0000 <Sz>= 0.0000 <S**2>=-0.0000 S=-0.0000
 <L.S>=  0.00000000000    
 KE= 8.753125165306D+02 PE=-4.773137391445D+03 EE= 1.658436121233D+03
 Annihilation of the first spin contaminant:
 S**2 before annihilation    -0.0000,   after     0.0000
 Leave Link  502 at Sat Feb 10 15:53:22 2024, MaxMem=  4026531840 cpu:            2890.9 elap:             406.4
 (Enter /sysapps/ubuntu-applications/gaussian/Gaussian/AVX2/g16/l601.exe)
 Copying SCF densities to generalized density rwf, IOpCl= 1 IROHF=0.

 **********************************************************************

            Population analysis using the SCF density.

 **********************************************************************

 Alpha  occ. eigenvalues --  -19.17200 -19.16179 -19.14004 -19.12266 -10.28943
 Alpha  occ. eigenvalues --  -10.28055 -10.26630 -10.26517 -10.22920 -10.21328
 Alpha  occ. eigenvalues --  -10.21280 -10.20871 -10.20785 -10.20490 -10.20136
 Alpha  occ. eigenvalues --  -10.19917 -10.19883 -10.19797 -10.19631  -1.09330
 Alpha  occ. eigenvalues --   -1.09202  -1.06141  -1.05857  -0.89442  -0.88020
 Alpha  occ. eigenvalues --   -0.81707  -0.78451  -0.77812  -0.77342  -0.71769
 Alpha  occ. eigenvalues --   -0.69765  -0.66714  -0.65590  -0.61697  -0.60099
 Alpha  occ. eigenvalues --   -0.56863  -0.56393  -0.54845  -0.52678  -0.50510
 Alpha  occ. eigenvalues --   -0.49735  -0.48880  -0.48663  -0.46605  -0.46159
 Alpha  occ. eigenvalues --   -0.46150  -0.45251  -0.44736  -0.44166  -0.43148
 Alpha  occ. eigenvalues --   -0.42829  -0.41690  -0.41297  -0.39078  -0.38429
 Alpha  occ. eigenvalues --   -0.38276  -0.37365  -0.36939  -0.35460  -0.32488
 Alpha  occ. eigenvalues --   -0.29397  -0.29316  -0.27959  -0.27879  -0.26738
 Alpha  occ. eigenvalues --   -0.23305
 Alpha virt. eigenvalues --   -0.12050  -0.06918  -0.04083  -0.01565  -0.00709
 Alpha virt. eigenvalues --   -0.00048   0.00676   0.01438   0.01839   0.02961
 Alpha virt. eigenvalues --    0.03239   0.03287   0.03575   0.03702   0.04039
 Alpha virt. eigenvalues --    0.04806   0.04862   0.05960   0.06056   0.06811
 Alpha virt. eigenvalues --    0.06880   0.07426   0.08592   0.08646   0.09663
 Alpha virt. eigenvalues --    0.10318   0.10465   0.10518   0.10896   0.10902
 Alpha virt. eigenvalues --    0.11279   0.11749   0.12247   0.12332   0.12532
 Alpha virt. eigenvalues --    0.12912   0.13085   0.13760   0.13776   0.14071
 Alpha virt. eigenvalues --    0.14179   0.14764   0.14955   0.15227   0.15847
 Alpha virt. eigenvalues --    0.16265   0.16590   0.16737   0.17487   0.17748
 Alpha virt. eigenvalues --    0.17782   0.18244   0.18807   0.18846   0.19442
 Alpha virt. eigenvalues --    0.20161   0.20470   0.20689   0.20873   0.21139
 Alpha virt. eigenvalues --    0.21739   0.21952   0.22763   0.23047   0.23562
 Alpha virt. eigenvalues --    0.23855   0.24034   0.24957   0.25205   0.25325
 Alpha virt. eigenvalues --    0.25914   0.26229   0.26609   0.27228   0.27334
 Alpha virt. eigenvalues --    0.27784   0.27830   0.28755   0.28905   0.28999
 Alpha virt. eigenvalues --    0.29368   0.30096   0.30211   0.30240   0.31012
 Alpha virt. eigenvalues --    0.31372   0.31434   0.32330   0.32398   0.32896
 Alpha virt. eigenvalues --    0.33174   0.34114   0.34157   0.34400   0.35177
 Alpha virt. eigenvalues --    0.35427   0.35782   0.36978   0.37387   0.37742
 Alpha virt. eigenvalues --    0.38431   0.38577   0.39356   0.40470   0.40778
 Alpha virt. eigenvalues --    0.41482   0.42894   0.43978   0.45365   0.45619
 Alpha virt. eigenvalues --    0.46817   0.48331   0.49355   0.51015   0.52069
 Alpha virt. eigenvalues --    0.52722   0.52765   0.53699   0.53862   0.54070
 Alpha virt. eigenvalues --    0.54966   0.56235   0.56394   0.57039   0.57784
 Alpha virt. eigenvalues --    0.58572   0.59018   0.59943   0.60499   0.60977
 Alpha virt. eigenvalues --    0.61201   0.62088   0.62404   0.63570   0.63688
 Alpha virt. eigenvalues --    0.64335   0.65082   0.65140   0.65313   0.65669
 Alpha virt. eigenvalues --    0.67058   0.67667   0.68390   0.68851   0.70101
 Alpha virt. eigenvalues --    0.70960   0.72551   0.72936   0.73843   0.75286
 Alpha virt. eigenvalues --    0.75634   0.76270   0.77128   0.78389   0.78988
 Alpha virt. eigenvalues --    0.79966   0.81254   0.82608   0.83194   0.85142
 Alpha virt. eigenvalues --    0.86130   0.87240   0.87810   0.88582   0.89445
 Alpha virt. eigenvalues --    0.89826   0.90424   0.91256   0.91348   0.92938
 Alpha virt. eigenvalues --    0.93624   0.94402   0.94667   0.96321   0.96444
 Alpha virt. eigenvalues --    0.98277   0.98671   0.99354   1.00978   1.01132
 Alpha virt. eigenvalues --    1.02229   1.03231   1.03580   1.03629   1.05841
 Alpha virt. eigenvalues --    1.06051   1.07247   1.08031   1.08270   1.09292
 Alpha virt. eigenvalues --    1.09724   1.10256   1.11640   1.11792   1.12989
 Alpha virt. eigenvalues --    1.15326   1.17979   1.18626   1.18895   1.21051
 Alpha virt. eigenvalues --    1.21470   1.21652   1.23167   1.23984   1.25397
 Alpha virt. eigenvalues --    1.26591   1.27830   1.31959   1.32748   1.33286
 Alpha virt. eigenvalues --    1.35269   1.38766   1.41546   1.41584   1.42131
 Alpha virt. eigenvalues --    1.43345   1.44091   1.47068   1.47836   1.49090
 Alpha virt. eigenvalues --    1.49176   1.49911   1.50587   1.50852   1.51246
 Alpha virt. eigenvalues --    1.53286   1.54525   1.55546   1.56667   1.57850
 Alpha virt. eigenvalues --    1.57864   1.58773   1.60238   1.62123   1.64542
 Alpha virt. eigenvalues --    1.65616   1.66623   1.66851   1.68199   1.69862
 Alpha virt. eigenvalues --    1.71097   1.71443   1.73274   1.73538   1.74298
 Alpha virt. eigenvalues --    1.75203   1.75496   1.77864   1.79550   1.82066
 Alpha virt. eigenvalues --    1.82744   1.83886   1.85292   1.87666   1.88005
 Alpha virt. eigenvalues --    1.88872   1.88962   1.89910   1.90630   1.92587
 Alpha virt. eigenvalues --    1.92650   1.93657   1.95328   1.96748   1.97120
 Alpha virt. eigenvalues --    1.97414   1.99610   2.00445   2.01518   2.04123
 Alpha virt. eigenvalues --    2.05649   2.06179   2.07182   2.09715   2.10782
 Alpha virt. eigenvalues --    2.11379   2.11555   2.13909   2.14423   2.16918
 Alpha virt. eigenvalues --    2.19149   2.22935   2.25714   2.27870   2.29330
 Alpha virt. eigenvalues --    2.31347   2.34301   2.35322   2.36149   2.40960
 Alpha virt. eigenvalues --    2.44190   2.44540   2.45948   2.46715   2.47348
 Alpha virt. eigenvalues --    2.48228   2.51682   2.52223   2.57263   2.59551
 Alpha virt. eigenvalues --    2.61441   2.62214   2.62275   2.63579   2.66727
 Alpha virt. eigenvalues --    2.68775   2.69403   2.70186   2.71291   2.71540
 Alpha virt. eigenvalues --    2.73461   2.74732   2.75110   2.75631   2.77061
 Alpha virt. eigenvalues --    2.77266   2.78052   2.78703   2.80635   2.81297
 Alpha virt. eigenvalues --    2.82387   2.83432   2.83869   2.84332   2.86297
 Alpha virt. eigenvalues --    2.88282   2.89057   2.91475   2.92938   2.94763
 Alpha virt. eigenvalues --    2.98943   3.03744   3.04441   3.07161   3.07456
 Alpha virt. eigenvalues --    3.08790   3.09750   3.09867   3.12134   3.13415
 Alpha virt. eigenvalues --    3.15718   3.17856   3.18913   3.20848   3.22002
 Alpha virt. eigenvalues --    3.24076   3.24143   3.24911   3.30641   3.33567
 Alpha virt. eigenvalues --    3.35051   3.35252   3.39601   3.39921   3.41290
 Alpha virt. eigenvalues --    3.48256   3.50399   3.51653   3.52941   3.55347
 Alpha virt. eigenvalues --    3.57498   3.59574   3.62471   3.67466   3.70583
 Alpha virt. eigenvalues --    3.77013   3.81236   3.81344   3.83695   3.88985
 Alpha virt. eigenvalues --    3.91755   4.02833   4.06103   4.07500   4.12305
 Alpha virt. eigenvalues --    4.14475   4.19086   4.23413   4.26767   4.28155
 Alpha virt. eigenvalues --    4.46632   4.75572   4.82418   4.84693   4.99577
 Alpha virt. eigenvalues --    5.02536   5.03782   5.06308   5.24557   5.29028
 Alpha virt. eigenvalues --    5.45772   5.48334   5.72457   5.77775   5.81848
 Alpha virt. eigenvalues --    5.84849  23.51966  23.64719  23.86109  23.87801
 Alpha virt. eigenvalues --   23.90396  23.92486  23.93456  23.94430  23.95205
 Alpha virt. eigenvalues --   23.98672  23.99950  24.05849  24.08317  24.15986
 Alpha virt. eigenvalues --   24.17167  49.95839  49.99985  50.03491  50.08548
  Beta  occ. eigenvalues --  -19.17200 -19.16179 -19.14004 -19.12266 -10.28943
  Beta  occ. eigenvalues --  -10.28055 -10.26630 -10.26517 -10.22920 -10.21328
  Beta  occ. eigenvalues --  -10.21280 -10.20871 -10.20785 -10.20490 -10.20136
  Beta  occ. eigenvalues --  -10.19917 -10.19883 -10.19797 -10.19631  -1.09330
  Beta  occ. eigenvalues --   -1.09202  -1.06141  -1.05857  -0.89442  -0.88020
  Beta  occ. eigenvalues --   -0.81707  -0.78451  -0.77812  -0.77342  -0.71769
  Beta  occ. eigenvalues --   -0.69765  -0.66714  -0.65590  -0.61697  -0.60099
  Beta  occ. eigenvalues --   -0.56863  -0.56393  -0.54845  -0.52678  -0.50510
  Beta  occ. eigenvalues --   -0.49735  -0.48880  -0.48663  -0.46605  -0.46159
  Beta  occ. eigenvalues --   -0.46150  -0.45251  -0.44736  -0.44166  -0.43148
  Beta  occ. eigenvalues --   -0.42829  -0.41690  -0.41297  -0.39078  -0.38429
  Beta  occ. eigenvalues --   -0.38276  -0.37365  -0.36939  -0.35460  -0.32488
  Beta  occ. eigenvalues --   -0.29397  -0.29316  -0.27959  -0.27879  -0.26738
  Beta  occ. eigenvalues --   -0.23305
  Beta virt. eigenvalues --   -0.12050  -0.06918  -0.04083  -0.01565  -0.00709
  Beta virt. eigenvalues --   -0.00048   0.00676   0.01438   0.01839   0.02961
  Beta virt. eigenvalues --    0.03239   0.03287   0.03575   0.03702   0.04039
  Beta virt. eigenvalues --    0.04806   0.04862   0.05960   0.06056   0.06811
  Beta virt. eigenvalues --    0.06880   0.07426   0.08592   0.08646   0.09663
  Beta virt. eigenvalues --    0.10318   0.10465   0.10518   0.10896   0.10902
  Beta virt. eigenvalues --    0.11279   0.11749   0.12247   0.12332   0.12532
  Beta virt. eigenvalues --    0.12912   0.13085   0.13760   0.13776   0.14071
  Beta virt. eigenvalues --    0.14179   0.14764   0.14955   0.15227   0.15847
  Beta virt. eigenvalues --    0.16265   0.16590   0.16737   0.17487   0.17748
  Beta virt. eigenvalues --    0.17782   0.18244   0.18807   0.18846   0.19442
  Beta virt. eigenvalues --    0.20161   0.20470   0.20689   0.20873   0.21139
  Beta virt. eigenvalues --    0.21739   0.21952   0.22763   0.23047   0.23562
  Beta virt. eigenvalues --    0.23855   0.24034   0.24957   0.25205   0.25325
  Beta virt. eigenvalues --    0.25914   0.26229   0.26609   0.27228   0.27334
  Beta virt. eigenvalues --    0.27784   0.27830   0.28755   0.28905   0.28999
  Beta virt. eigenvalues --    0.29368   0.30096   0.30211   0.30240   0.31012
  Beta virt. eigenvalues --    0.31372   0.31434   0.32330   0.32398   0.32896
  Beta virt. eigenvalues --    0.33174   0.34114   0.34157   0.34400   0.35177
  Beta virt. eigenvalues --    0.35427   0.35782   0.36978   0.37387   0.37742
  Beta virt. eigenvalues --    0.38431   0.38577   0.39356   0.40470   0.40778
  Beta virt. eigenvalues --    0.41482   0.42894   0.43978   0.45365   0.45619
  Beta virt. eigenvalues --    0.46817   0.48331   0.49355   0.51015   0.52069
  Beta virt. eigenvalues --    0.52722   0.52765   0.53699   0.53862   0.54070
  Beta virt. eigenvalues --    0.54966   0.56235   0.56394   0.57039   0.57784
  Beta virt. eigenvalues --    0.58572   0.59018   0.59943   0.60499   0.60977
  Beta virt. eigenvalues --    0.61201   0.62088   0.62404   0.63570   0.63688
  Beta virt. eigenvalues --    0.64335   0.65082   0.65140   0.65313   0.65669
  Beta virt. eigenvalues --    0.67058   0.67667   0.68390   0.68851   0.70101
  Beta virt. eigenvalues --    0.70960   0.72551   0.72936   0.73843   0.75286
  Beta virt. eigenvalues --    0.75634   0.76270   0.77128   0.78389   0.78988
  Beta virt. eigenvalues --    0.79966   0.81254   0.82608   0.83194   0.85142
  Beta virt. eigenvalues --    0.86130   0.87240   0.87810   0.88582   0.89445
  Beta virt. eigenvalues --    0.89826   0.90424   0.91256   0.91348   0.92938
  Beta virt. eigenvalues --    0.93624   0.94402   0.94667   0.96321   0.96444
  Beta virt. eigenvalues --    0.98277   0.98671   0.99354   1.00978   1.01132
  Beta virt. eigenvalues --    1.02229   1.03231   1.03580   1.03629   1.05841
  Beta virt. eigenvalues --    1.06051   1.07247   1.08031   1.08270   1.09292
  Beta virt. eigenvalues --    1.09724   1.10256   1.11640   1.11792   1.12989
  Beta virt. eigenvalues --    1.15326   1.17979   1.18626   1.18895   1.21051
  Beta virt. eigenvalues --    1.21470   1.21652   1.23167   1.23984   1.25397
  Beta virt. eigenvalues --    1.26591   1.27830   1.31959   1.32748   1.33286
  Beta virt. eigenvalues --    1.35269   1.38766   1.41546   1.41584   1.42131
  Beta virt. eigenvalues --    1.43345   1.44091   1.47068   1.47836   1.49090
  Beta virt. eigenvalues --    1.49176   1.49911   1.50587   1.50852   1.51246
  Beta virt. eigenvalues --    1.53286   1.54525   1.55546   1.56667   1.57850
  Beta virt. eigenvalues --    1.57864   1.58773   1.60238   1.62123   1.64542
  Beta virt. eigenvalues --    1.65616   1.66623   1.66851   1.68199   1.69862
  Beta virt. eigenvalues --    1.71097   1.71443   1.73274   1.73538   1.74298
  Beta virt. eigenvalues --    1.75203   1.75496   1.77864   1.79550   1.82066
  Beta virt. eigenvalues --    1.82744   1.83886   1.85292   1.87666   1.88005
  Beta virt. eigenvalues --    1.88872   1.88962   1.89910   1.90630   1.92587
  Beta virt. eigenvalues --    1.92650   1.93657   1.95328   1.96748   1.97120
  Beta virt. eigenvalues --    1.97414   1.99610   2.00445   2.01518   2.04123
  Beta virt. eigenvalues --    2.05649   2.06179   2.07182   2.09715   2.10782
  Beta virt. eigenvalues --    2.11379   2.11555   2.13909   2.14423   2.16918
  Beta virt. eigenvalues --    2.19149   2.22935   2.25714   2.27870   2.29330
  Beta virt. eigenvalues --    2.31347   2.34301   2.35322   2.36149   2.40960
  Beta virt. eigenvalues --    2.44190   2.44540   2.45948   2.46715   2.47348
  Beta virt. eigenvalues --    2.48228   2.51682   2.52223   2.57263   2.59551
  Beta virt. eigenvalues --    2.61441   2.62214   2.62275   2.63579   2.66727
  Beta virt. eigenvalues --    2.68775   2.69403   2.70186   2.71291   2.71540
  Beta virt. eigenvalues --    2.73461   2.74732   2.75110   2.75631   2.77061
  Beta virt. eigenvalues --    2.77266   2.78052   2.78703   2.80635   2.81297
  Beta virt. eigenvalues --    2.82387   2.83432   2.83869   2.84332   2.86297
  Beta virt. eigenvalues --    2.88282   2.89057   2.91475   2.92938   2.94763
  Beta virt. eigenvalues --    2.98943   3.03744   3.04441   3.07161   3.07456
  Beta virt. eigenvalues --    3.08790   3.09750   3.09867   3.12134   3.13415
  Beta virt. eigenvalues --    3.15718   3.17856   3.18913   3.20848   3.22002
  Beta virt. eigenvalues --    3.24076   3.24143   3.24911   3.30641   3.33567
  Beta virt. eigenvalues --    3.35051   3.35252   3.39601   3.39921   3.41290
  Beta virt. eigenvalues --    3.48256   3.50399   3.51653   3.52941   3.55347
  Beta virt. eigenvalues --    3.57498   3.59574   3.62471   3.67466   3.70583
  Beta virt. eigenvalues --    3.77013   3.81236   3.81344   3.83695   3.88985
  Beta virt. eigenvalues --    3.91755   4.02833   4.06103   4.07500   4.12305
  Beta virt. eigenvalues --    4.14475   4.19086   4.23413   4.26767   4.28155
  Beta virt. eigenvalues --    4.46632   4.75572   4.82418   4.84693   4.99577
  Beta virt. eigenvalues --    5.02536   5.03782   5.06308   5.24557   5.29028
  Beta virt. eigenvalues --    5.45772   5.48334   5.72457   5.77775   5.81848
  Beta virt. eigenvalues --    5.84849  23.51966  23.64719  23.86109  23.87801
  Beta virt. eigenvalues --   23.90396  23.92486  23.93456  23.94430  23.95205
  Beta virt. eigenvalues --   23.98672  23.99950  24.05849  24.08317  24.15986
  Beta virt. eigenvalues --   24.17167  49.95839  49.99985  50.03491  50.08548
          Condensed to atoms (all electrons):
               1          2          3          4          5          6
     1  C    5.226218   0.143124   0.543896  -0.437986  -0.364292   0.028220
     2  O    0.143124   8.243872  -0.020982   0.271765   0.119617   0.032223
     3  C    0.543896  -0.020982  15.986085  -0.570170  -2.934840   0.607137
     4  C   -0.437986   0.271765  -0.570170  15.824127   0.052937   0.426863
     5  C   -0.364292   0.119617  -2.934840   0.052937  13.829707   0.159614
     6  C    0.028220   0.032223   0.607137   0.426863   0.159614  14.160565
     7  O   -0.000914   0.000403  -0.027571  -0.035710  -0.446235   0.233639
     8  C   -0.002641  -0.088047  -1.073431  -1.502674  -3.677456   0.727598
     9  C   -0.046560   0.009021  -1.941519  -2.913233  -0.134593  -4.764940
    10  O    0.000053   0.000007  -0.033477  -0.005844  -0.076269  -0.058846
    11  C   -0.022097  -0.004715  -3.256633  -1.370287   0.473996  -1.213571
    12  C   -0.002807   0.000499  -0.455305  -0.258115  -0.006096  -0.091239
    13  C   -0.000099   0.000208  -0.169308  -0.045151   0.071289   0.271476
    14  C   -0.001503  -0.002047   0.202602   0.100825  -0.044375  -0.318469
    15  C   -0.009097   0.017074   0.138463   0.100394  -0.170719  -0.528331
    16  C   -0.081007   0.043977   0.148434   0.347751  -0.087456  -2.430756
    17  C   -0.144578  -0.003198  -4.527871  -1.599633  -0.579757  -0.842332
    18  O   -0.003518  -0.003523   0.155084   0.017831   0.005347  -0.025369
    19  C    0.263709  -0.463556   3.651615  -2.771067  -0.609144  -0.015629
    20  H    0.403236  -0.076301   0.053949  -0.032530  -0.022289  -0.002428
    21  H    0.400611  -0.028490  -0.050980   0.040281   0.018800   0.002233
    22  H    0.400666  -0.028533  -0.051027   0.040358   0.018738   0.002241
    23  H    0.000973  -0.029002  -0.040283   0.522930  -0.184446   0.046511
    24  H    0.002215  -0.000490   0.029527  -0.012435   0.626988  -0.178905
    25  H    0.000391   0.000223   0.020732   0.003158   0.041822  -0.015976
    26  H   -0.000078   0.000024  -0.004048  -0.004690   0.004009  -0.024688
    27  H   -0.000003  -0.000010   0.000031   0.000314   0.000408   0.006195
    28  H   -0.000023   0.000019   0.002921   0.000393   0.000190  -0.002137
    29  H   -0.000335  -0.000105  -0.012103  -0.000837   0.000158   0.005533
               7          8          9         10         11         12
     1  C   -0.000914  -0.002641  -0.046560   0.000053  -0.022097  -0.002807
     2  O    0.000403  -0.088047   0.009021   0.000007  -0.004715   0.000499
     3  C   -0.027571  -1.073431  -1.941519  -0.033477  -3.256633  -0.455305
     4  C   -0.035710  -1.502674  -2.913233  -0.005844  -1.370287  -0.258115
     5  C   -0.446235  -3.677456  -0.134593  -0.076269   0.473996  -0.006096
     6  C    0.233639   0.727598  -4.764940  -0.058846  -1.213571  -0.091239
     7  O    8.176485   0.093676   0.025496   0.002743   0.025157   0.025489
     8  C    0.093676  17.077950  -0.136063   0.107082  -2.179932  -1.154394
     9  C    0.025496  -0.136063  15.390879   0.854309   2.168198  -1.849015
    10  O    0.002743   0.107082   0.854309   8.238126  -0.365086   0.153944
    11  C    0.025157  -2.179932   2.168198  -0.365086  24.180269   2.148359
    12  C    0.025489  -1.154394  -1.849015   0.153944   2.148359   9.730905
    13  C    0.008773  -0.175236  -0.114097   0.042626  -1.867122  -0.578526
    14  C    0.000066  -0.271050  -0.004459   0.002264   2.318803   0.123084
    15  C   -0.002457  -1.101034  -0.993780  -0.007569  -1.782792   1.691864
    16  C   -0.001457  -4.806855  -0.742608  -0.420861  -6.582550  -1.618982
    17  C    0.045428   1.932018   2.040926   0.013529   1.324228  -0.766884
    18  O   -0.000128  -0.213953  -0.028289   0.000024  -0.414817  -0.010953
    19  C   -0.007190   1.909181  -0.561005  -0.187690  -7.823098  -1.566797
    20  H   -0.000042   0.015370  -0.000871   0.000017   0.000969  -0.000283
    21  H    0.000042  -0.013780  -0.000201  -0.000010  -0.000211   0.000093
    22  H    0.000042  -0.013784  -0.000220  -0.000010  -0.000215   0.000091
    23  H    0.002294   0.044634  -0.031789   0.000122  -0.017199  -0.002315
    24  H   -0.033635  -0.133128   0.013089   0.000487   0.015656   0.001348
    25  H    0.248409  -0.124007   0.093359   0.070463  -0.013948  -0.010681
    26  H   -0.000871  -0.103971  -0.080942  -0.017171   0.071774   0.416049
    27  H    0.000055   0.013869   0.031124   0.001989   0.002230  -0.106649
    28  H   -0.000012  -0.010932  -0.016860  -0.000222  -0.011109   0.012209
    29  H   -0.000006   0.018141   0.011078   0.000451   0.114684   0.012425
              13         14         15         16         17         18
     1  C   -0.000099  -0.001503  -0.009097  -0.081007  -0.144578  -0.003518
     2  O    0.000208  -0.002047   0.017074   0.043977  -0.003198  -0.003523
     3  C   -0.169308   0.202602   0.138463   0.148434  -4.527871   0.155084
     4  C   -0.045151   0.100825   0.100394   0.347751  -1.599633   0.017831
     5  C    0.071289  -0.044375  -0.170719  -0.087456  -0.579757   0.005347
     6  C    0.271476  -0.318469  -0.528331  -2.430756  -0.842332  -0.025369
     7  O    0.008773   0.000066  -0.002457  -0.001457   0.045428  -0.000128
     8  C   -0.175236  -0.271050  -1.101034  -4.806855   1.932018  -0.213953
     9  C   -0.114097  -0.004459  -0.993780  -0.742608   2.040926  -0.028289
    10  O    0.042626   0.002264  -0.007569  -0.420861   0.013529   0.000024
    11  C   -1.867122   2.318803  -1.782792  -6.582550   1.324228  -0.414817
    12  C   -0.578526   0.123084   1.691864  -1.618982  -0.766884  -0.010953
    13  C    8.618590  -0.544103  -0.652573   1.302606   0.291371  -0.018311
    14  C   -0.544103   9.622201  -0.454117  -3.107041  -0.964700   0.055832
    15  C   -0.652573  -0.454117  10.153683   1.474673  -1.687034   0.109527
    16  C    1.302606  -3.107041   1.474673  20.825717   0.589100  -0.223629
    17  C    0.291371  -0.964700  -1.687034   0.589100  12.010703   0.523698
    18  O   -0.018311   0.055832   0.109527  -0.223629   0.523698   8.230376
    19  C   -0.221408  -0.598432  -0.744885   1.262087  -1.364400   0.148927
    20  H   -0.000009  -0.000243  -0.001928  -0.009439   0.001757  -0.003750
    21  H   -0.000017   0.000164   0.000596   0.004187  -0.005289  -0.000321
    22  H   -0.000017   0.000164   0.000595   0.004197  -0.005268  -0.000321
    23  H   -0.000233   0.000275   0.000881  -0.001967   0.018507   0.001436
    24  H    0.000250  -0.000400  -0.001672  -0.004513  -0.026031  -0.000306
    25  H   -0.001401   0.000152  -0.002103   0.014357  -0.013609   0.000193
    26  H   -0.149529   0.012252   0.047414   0.156016   0.005896   0.000634
    27  H    0.483313  -0.067076  -0.000507  -0.019661  -0.006875  -0.000380
    28  H   -0.050515   0.506727  -0.108410  -0.007511   0.005001   0.003096
    29  H    0.010549  -0.105212   0.336036  -0.008115   0.014107  -0.012041
              19         20         21         22         23         24
     1  C    0.263709   0.403236   0.400611   0.400666   0.000973   0.002215
     2  O   -0.463556  -0.076301  -0.028490  -0.028533  -0.029002  -0.000490
     3  C    3.651615   0.053949  -0.050980  -0.051027  -0.040283   0.029527
     4  C   -2.771067  -0.032530   0.040281   0.040358   0.522930  -0.012435
     5  C   -0.609144  -0.022289   0.018800   0.018738  -0.184446   0.626988
     6  C   -0.015629  -0.002428   0.002233   0.002241   0.046511  -0.178905
     7  O   -0.007190  -0.000042   0.000042   0.000042   0.002294  -0.033635
     8  C    1.909181   0.015370  -0.013780  -0.013784   0.044634  -0.133128
     9  C   -0.561005  -0.000871  -0.000201  -0.000220  -0.031789   0.013089
    10  O   -0.187690   0.000017  -0.000010  -0.000010   0.000122   0.000487
    11  C   -7.823098   0.000969  -0.000211  -0.000215  -0.017199   0.015656
    12  C   -1.566797  -0.000283   0.000093   0.000091  -0.002315   0.001348
    13  C   -0.221408  -0.000009  -0.000017  -0.000017  -0.000233   0.000250
    14  C   -0.598432  -0.000243   0.000164   0.000164   0.000275  -0.000400
    15  C   -0.744885  -0.001928   0.000596   0.000595   0.000881  -0.001672
    16  C    1.262087  -0.009439   0.004187   0.004197  -0.001967  -0.004513
    17  C   -1.364400   0.001757  -0.005289  -0.005268   0.018507  -0.026031
    18  O    0.148927  -0.003750  -0.000321  -0.000321   0.001436  -0.000306
    19  C   15.370212   0.030610  -0.007542  -0.007571  -0.009085  -0.003436
    20  H    0.030610   0.491499  -0.027086  -0.027081   0.003655   0.000093
    21  H   -0.007542  -0.027086   0.563828  -0.054103  -0.010211   0.000773
    22  H   -0.007571  -0.027081  -0.054103   0.563733  -0.010214   0.000770
    23  H   -0.009085   0.003655  -0.010211  -0.010214   0.477854  -0.017418
    24  H   -0.003436   0.000093   0.000773   0.000770  -0.017418   0.491072
    25  H    0.009346  -0.000022   0.000048   0.000048   0.000306   0.001060
    26  H    0.002174  -0.000003   0.000004   0.000004  -0.000091   0.000085
    27  H   -0.004828  -0.000001   0.000000   0.000000   0.000001  -0.000002
    28  H    0.005316   0.000004   0.000001   0.000001  -0.000010   0.000005
    29  H   -0.043454  -0.000068   0.000050   0.000050  -0.000090  -0.000012
              25         26         27         28         29
     1  C    0.000391  -0.000078  -0.000003  -0.000023  -0.000335
     2  O    0.000223   0.000024  -0.000010   0.000019  -0.000105
     3  C    0.020732  -0.004048   0.000031   0.002921  -0.012103
     4  C    0.003158  -0.004690   0.000314   0.000393  -0.000837
     5  C    0.041822   0.004009   0.000408   0.000190   0.000158
     6  C   -0.015976  -0.024688   0.006195  -0.002137   0.005533
     7  O    0.248409  -0.000871   0.000055  -0.000012  -0.000006
     8  C   -0.124007  -0.103971   0.013869  -0.010932   0.018141
     9  C    0.093359  -0.080942   0.031124  -0.016860   0.011078
    10  O    0.070463  -0.017171   0.001989  -0.000222   0.000451
    11  C   -0.013948   0.071774   0.002230  -0.011109   0.114684
    12  C   -0.010681   0.416049  -0.106649   0.012209   0.012425
    13  C   -0.001401  -0.149529   0.483313  -0.050515   0.010549
    14  C    0.000152   0.012252  -0.067076   0.506727  -0.105212
    15  C   -0.002103   0.047414  -0.000507  -0.108410   0.336036
    16  C    0.014357   0.156016  -0.019661  -0.007511  -0.008115
    17  C   -0.013609   0.005896  -0.006875   0.005001   0.014107
    18  O    0.000193   0.000634  -0.000380   0.003096  -0.012041
    19  C    0.009346   0.002174  -0.004828   0.005316  -0.043454
    20  H   -0.000022  -0.000003  -0.000001   0.000004  -0.000068
    21  H    0.000048   0.000004   0.000000   0.000001   0.000050
    22  H    0.000048   0.000004   0.000000   0.000001   0.000050
    23  H    0.000306  -0.000091   0.000001  -0.000010  -0.000090
    24  H    0.001060   0.000085  -0.000002   0.000005  -0.000012
    25  H    0.322147   0.000401  -0.000109  -0.000047  -0.000033
    26  H    0.000401   0.491790  -0.015320   0.001491   0.000799
    27  H   -0.000109  -0.015320   0.489577  -0.013196   0.001140
    28  H   -0.000047   0.001491  -0.013196   0.488503  -0.013960
    29  H   -0.000033   0.000799   0.001140  -0.013960   0.490854
          Atomic-Atomic Spin Densities.
               1          2          3          4          5          6
     1  C    0.000000  -0.000000   0.000000   0.000000  -0.000000  -0.000000
     2  O   -0.000000   0.000000   0.000000  -0.000000   0.000000   0.000000
     3  C    0.000000   0.000000  -0.000000   0.000000  -0.000000  -0.000000
     4  C    0.000000  -0.000000   0.000000  -0.000000  -0.000000  -0.000000
     5  C   -0.000000   0.000000  -0.000000  -0.000000   0.000000  -0.000000
     6  C   -0.000000   0.000000  -0.000000  -0.000000  -0.000000  -0.000000
     7  O   -0.000000  -0.000000  -0.000000   0.000000   0.000000   0.000000
     8  C   -0.000000  -0.000000   0.000000   0.000000   0.000000  -0.000000
     9  C   -0.000000  -0.000000   0.000000   0.000000   0.000000   0.000000
[...]
 00001078,-0.00028588,0.00035014,-0.00004660,-0.00010460,-0.00156547,0.
 00006630,0.00002442,0.00046836,-0.00001979,-0.00234647,0.00365830,-0.0
 0092858,0.00081346,-0.00026471,0.00016052,0.00045173,-0.00064691,-0.00
 060755,0.00017995,-0.00021825,0.00071965,0.31675252,0.00144099,-0.0029
 4153,0.00020393,-0.00212603,0.00030880,-0.00029733,0.01727120,0.012581
 05,0.00216504,-0.09713337,-0.09694663,-0.01200990,-0.02996811,-0.00869
 899,-0.00379621,0.00069361,-0.00455627,0.00027086,-0.00176962,-0.00067
 838,-0.00022038,-0.00002164,-0.00113729,0.00000188,0.00033214,0.000236
 44,0.00003295,-0.00016916,-0.00013784,-0.00002134,-0.00003620,-0.00003
 655,0.00000406,-0.00003492,0.00003643,-0.00000585,0.00001699,-0.000027
 23,0.00000223,0.00004196,0.00001639,0.00000384,0.00001240,0.00009719,-
 0.00000205,0.00029999,-0.00029019,0.00004522,0.00088914,0.00073047,0.0
 0009351,-0.00018100,0.00007948,-0.00002490,0.00283758,-0.00227776,0.00
 047429,0.00023989,0.00002940,0.00003336,-0.00031465,-0.00183153,0.0004
 4324,-0.00012275,-0.00199644,-0.00045651,0.10732248,0.10651775,-0.0001
 0707,-0.00011999,-0.00022858,0.00037301,-0.00021519,-0.00219512,-0.003
 05920,-0.00150318,0.00392850,-0.03401826,-0.01202967,-0.04008513,0.000
 00852,0.00021419,0.00441890,-0.00087201,0.00028740,0.00853772,-0.00000
 882,-0.00003286,0.00003820,0.00021939,0.00010241,-0.00101681,0.0000337
 2,-0.00002146,-0.00046823,0.00001343,0.00000452,-0.00012620,-0.0000563
 2,0.00001115,0.00046565,0.00000220,-0.00000248,-0.00004599,0.00000069,
 -0.00000124,-0.00002251,-0.00000146,0.00000187,-0.00002464,0.00000926,
 -0.00002052,-0.00013672,-0.00004693,0.00004706,0.00001269,0.00002618,-
 0.00021218,-0.00033780,-0.00000829,0.00006106,0.00009043,-0.00089889,0
 .00057190,0.00400771,0.00016285,-0.00004840,-0.00034977,0.00019319,0.0
 0133887,-0.00010534,-0.00007308,-0.00144801,0.00013799,0.03730323,0.01
 308242,0.02865111,-0.00007835,0.00000096,-0.00002069,0.00034960,0.0000
 1285,0.00012221,0.00123161,-0.00221209,-0.00094229,0.00778684,-0.00474
 207,0.00057951,-0.23642608,0.13347219,-0.02823403,-0.01767885,0.019744
 77,-0.00334955,0.00272157,0.00099685,0.00071017,-0.00402677,-0.0034817
 7,-0.00107634,-0.00001703,0.00189805,0.00000824,0.00024004,-0.00062351
 ,0.00003063,-0.00046016,-0.00035721,-0.00004449,-0.00003564,0.00017325
 ,0.00000031,-0.00004970,-0.00000518,-0.00000166,-0.00001696,0.00001027
 ,-0.00000290,-0.00002714,0.00000858,0.00000701,0.00004212,-0.00006729,
 -0.00004687,-0.00013318,0.00005113,0.00005794,-0.00000829,0.00005468,-
 0.00000640,0.00028768,-0.00095890,0.00022608,-0.00001232,0.00000809,-0
 .00000759,0.00001764,-0.00001705,0.00000899,0.00001415,-0.00000474,-0.
 00001038,0.00075944,0.00022064,0.00075709,0.24579286,0.00033445,0.0002
 9067,0.00003521,0.00123434,-0.00140151,0.00018145,-0.00251382,-0.00359
 664,-0.00017031,0.02463384,-0.01411549,0.00351668,0.13442157,-0.158941
 33,0.01942178,-0.01132408,0.00992387,-0.00155033,0.00100641,0.00142768
 ,0.00006345,-0.00203195,-0.00061432,-0.00019530,-0.00088424,0.00025397
 ,-0.00012346,0.00017463,0.00031561,0.00002021,-0.00017816,-0.00016390,
 -0.00002086,-0.00000547,0.00005230,-0.00000251,-0.00002531,0.00002131,
 -0.00000351,-0.00001482,-0.00002896,-0.00000179,0.00005307,0.00002450,
 0.00000559,0.00002243,-0.00004560,0.00000925,-0.00019935,0.00029785,-0
 .00004068,0.00008142,-0.00017924,0.00001579,-0.00025198,-0.00072138,-0
 .00003919,-0.00004925,-0.00002924,-0.00000503,-0.00005877,0.00000080,-
 0.00000405,-0.00005785,-0.00000084,-0.00001159,0.00006528,0.00127760,-
 0.00006965,-0.14426079,0.16583012,-0.00002598,-0.00000096,0.00008037,0
 .00010188,0.00001679,-0.00055254,-0.00094024,-0.00011780,0.00848516,0.
 00017066,-0.00036692,0.00396654,-0.02827156,0.01929065,-0.04044511,-0.
 00288110,0.00256820,0.00519136,0.00071546,0.00005406,-0.00271189,-0.00
 109941,-0.00037030,0.00437048,0.00005161,0.00024203,-0.00032312,0.0000
 2185,-0.00008518,0.00008355,-0.00005294,-0.00004416,-0.00005481,0.0000
 0375,0.00002159,-0.00004761,-0.00000244,-0.00000146,-0.00003547,-0.000
 00299,0.00000091,0.00000483,0.00000622,-0.00000072,-0.00008081,-0.0000
 4842,0.00000037,0.00040224,0.00006011,-0.00000505,-0.00055503,-0.00000
 180,0.00000755,0.00001436,0.00020601,-0.00015063,-0.00129143,-0.000007
 12,0.00000189,0.00004401,-0.00002132,0.00004088,0.00002155,0.00002144,
 -0.00004521,0.00002512,0.00076180,-0.00005737,-0.00491105,0.03120331,-
 0.02099641,0.02883137,0.00011847,0.00004421,0.00001648,0.00029432,0.00
 020489,0.00004165,-0.00623086,0.00096772,-0.00087170,0.00256460,-0.005
 72217,0.00023976,0.00758187,0.00993999,0.00046958,-0.00430400,-0.03466
 535,0.00005805,-0.34797528,-0.06921970,-0.04241823,-0.01259035,-0.0013
 0878,-0.00154332,0.01481148,0.03849801,0.00133109,0.00776197,-0.035229
 48,0.00273936,0.00203590,-0.00641770,0.00010225,-0.00057770,-0.0006569
 5,-0.00006057,-0.00023206,-0.00026714,-0.00002542,-0.00011217,-0.00047
 582,-0.00000072,0.00066525,-0.00071582,0.00011699,0.00122508,0.0009903
 3,0.00008187,0.00280631,-0.00098999,0.00043148,-0.00070499,0.00157477,
 -0.00013771,-0.00122399,0.00497348,-0.00011163,0.00000826,0.00000318,0
 .00000160,0.00001387,0.00007762,0.00002047,0.00001910,0.00008223,-0.00
 002231,0.00016733,0.00024652,0.00005497,-0.00024871,-0.00016606,0.0000
 3885,0.33438530,-0.00034299,-0.00014290,-0.00004193,0.00032814,0.00092
 763,0.00003070,0.00098749,-0.00065617,0.00014301,-0.00195174,0.0010906
 6,-0.00026026,0.00079457,-0.00715912,0.00025242,-0.04826104,-0.0222672
 9,-0.00605656,-0.04690261,-0.06481108,-0.00547748,0.00151789,0.0012674
 2,0.00014738,0.00801828,-0.01218477,0.00120607,-0.01066228,-0.00269353
 ,-0.00146969,-0.00109941,0.00018415,-0.00010540,-0.00018204,0.00032556
 ,-0.00002723,0.00005802,0.00005715,0.00000534,-0.00000545,0.00019736,-
 0.00000339,-0.00032018,0.00002763,-0.00004409,0.00003591,-0.00028776,0
 .00001338,0.00022094,-0.00022303,0.00003578,-0.00017786,0.00048531,-0.
 00003845,-0.00090047,-0.00085161,-0.00012206,0.00003299,0.00003279,0.0
 0000405,0.00005745,-0.00002253,-0.00001644,0.00005114,-0.00002193,0.00
 003284,0.00001187,-0.00036042,0.00000218,0.00006468,0.00011526,-0.0000
 0505,0.09850262,0.10684682,0.00002579,0.00000856,-0.00002239,0.0000428
 1,0.00000564,-0.00007564,-0.00087241,0.00014638,0.00016423,0.00017791,
 -0.00075022,0.00142798,0.00057711,0.00143635,0.00314549,0.00030798,-0.
 00425015,-0.00101556,-0.04278367,-0.00841347,-0.02251184,-0.00161075,-
 0.00018628,-0.00064472,0.00173867,0.00525769,0.00064433,0.00240874,-0.
 00475827,-0.00904882,0.00006095,-0.00083010,0.00177242,-0.00007688,-0.
 00009349,-0.00001119,-0.00003046,-0.00003556,0.00001334,-0.00001026,-0
 .00006383,-0.00003320,0.00010843,-0.00009731,-0.00012938,0.00011917,0.
 00013597,0.00035732,0.00040372,-0.00012578,-0.00024221,-0.00010545,0.0
 0019754,0.00010077,-0.00001745,0.00065276,-0.00098729,0.00000085,-0.00
 000049,-0.00000552,-0.00000163,0.00003312,0.00001230,0.00000211,-0.000
 01174,0.00000666,0.00005886,0.00003294,-0.00027599,0.00003983,-0.00003
 455,-0.00054737,0.03945492,0.01178489,0.02804317,-0.00000845,0.0000115
 5,-0.00000209,-0.00001795,0.00004719,-0.00000056,0.00020958,0.00003737
 ,0.00002249,-0.00002924,0.00012445,-0.00000495,-0.00004557,0.00000174,
 -0.00000918,-0.00007521,0.00008887,-0.00000816,0.00043634,-0.00001238,
 0.00004494,0.00051419,0.00020537,0.00005586,-0.00020222,-0.00166087,0.
 00047245,0.00026227,0.00134474,-0.00001739,0.00295833,-0.02862049,0.00
 038819,-0.05959834,-0.02397947,-0.00213368,0.00619818,0.02628856,-0.00
 025031,-0.00377156,0.00245297,-0.00144005,-0.00089788,0.00016862,0.000
 03094,-0.00534686,-0.00098867,-0.00147540,0.00144480,-0.00090751,0.000
 07768,-0.00074446,-0.00073876,-0.00000874,-0.00020442,-0.00010273,-0.0
 0001892,0.00000034,0.00000127,-0.00000005,-0.00000333,-0.00000478,0.00
 000106,-0.00000295,-0.00000449,-0.00000183,-0.00000871,0.00001088,-0.0
 0000054,0.00001163,0.00000053,0.00000145,-0.00059103,0.00022026,-0.000
 06471,0.05819551,0.00004137,0.00002470,0.00000512,-0.00005576,-0.00009
 547,-0.00000712,0.00004547,0.00012239,0.00000407,-0.00000326,-0.000034
 63,-0.00000004,0.00000652,0.00005774,0.00000085,-0.00008151,-0.0001954
 8,-0.00000898,0.00009556,0.00011438,0.00001278,-0.00026041,0.00002803,
 -0.00003135,0.00121539,-0.00271908,0.00012090,0.00266759,0.00102799,0.
 00035199,-0.00197354,-0.00931594,-0.00004234,-0.02456430,-0.33962368,0
 .00180920,-0.00349006,-0.01109207,-0.00017818,0.00270842,0.00020423,0.
 00045050,0.00029452,0.00050682,0.00000886,-0.00208702,0.00102958,-0.00
 017111,0.00083776,-0.00004925,0.00011660,-0.00028501,-0.00037600,-0.00
 003119,-0.00017719,0.00006989,-0.00002148,-0.00000322,-0.00000505,-0.0
 0000040,-0.00000908,0.00000002,0.00000052,-0.00000870,-0.00000024,-0.0
 0000298,-0.00000643,0.00000158,-0.00000089,-0.00000957,0.00000207,-0.0
 0000125,-0.00006613,0.00005995,-0.00001211,0.02546382,0.36002124,-0.00
 000262,0.00000152,0.00000809,0.00000174,0.00000637,-0.00002505,0.00001
 750,0.00000409,0.00004527,-0.00000233,0.00001416,-0.00001211,-0.000007
 88,-0.00000044,0.00001826,-0.00000458,0.00001111,-0.00001564,0.0000355
 4,-0.00000008,0.00011174,0.00005104,0.00002197,0.00007057,0.00046108,-
 0.00022832,-0.00387601,-0.00006809,0.00014902,0.00032383,-0.00004640,-
 0.00328433,0.00349493,-0.00210194,0.00188991,-0.03959917,0.00022431,0.
 00348270,0.00480421,-0.00144199,0.00042664,0.00745245,0.00002582,-0.00
 000046,-0.00116785,-0.00144882,-0.00003613,0.00651842,0.00005512,-0.00
 009277,0.00093405,-0.00003366,-0.00010226,-0.00049180,-0.00001717,-0.0
 0001181,-0.00004945,-0.00000006,0.00000020,0.00000058,-0.00000053,0.00
 000035,0.00000086,-0.00000014,-0.00000146,0.00000060,-0.00000017,0.000
 00118,-0.00000614,0.00000141,0.00000005,0.00000021,-0.00005134,0.00002
 276,-0.00014054,0.00352848,-0.00224691,0.02690337,0.00006316,0.0000302
 8,0.00000806,-0.00006436,-0.00017385,-0.00000734,-0.00008853,0.0001763
 1,-0.00002071,0.00002573,-0.00013079,0.00001098,0.00003628,0.00011228,
 0.00000146,-0.00008999,-0.00035019,0.00000540,-0.00006738,0.00018953,-
 0.00001118,-0.00051038,0.00032072,-0.00003559,-0.00009122,-0.00152928,
 -0.00000840,-0.00010092,0.00045393,-0.00003827,-0.00206996,0.00384286,
 -0.00124794,-0.01787106,-0.01210209,-0.00251391,-0.28658210,-0.1056889
 2,-0.02857796,0.00187731,0.00149467,-0.00029337,0.00170257,-0.00000903
 ,-0.00067238,0.00021527,0.00053054,0.00012144,0.00021511,0.00010673,0.
 00018543,-0.00010716,-0.00017992,-0.00003047,-0.00003660,0.00013139,-0
 .00003124,-0.00000434,-0.00000760,-0.00000043,-0.00001182,0.00000302,0
 .00000025,-0.00001132,0.00000258,-0.00000365,-0.00000527,-0.00000404,-
 0.00000075,-0.00002288,-0.00000283,-0.00000637,0.00012244,-0.00006098,
 0.00001550,0.00103999,-0.00001818,0.00065844,0.30190631,0.00001343,0.0
 0001283,0.00000136,-0.00001670,-0.00003024,-0.00000199,-0.00000263,0.0
 0005454,0.00000047,0.00001006,-0.00002274,0.00000103,0.00004445,0.0000
 0123,0.00000569,0.00002920,0.00007589,0.00000136,0.00000054,0.00001659
 ,-0.00000023,0.00022002,-0.00026911,0.00002921,0.00087572,0.00074892,0
 .00009991,-0.00015640,-0.00001888,-0.00001690,0.00317498,-0.00158980,0
 .00053558,0.01854095,0.01125712,0.00216161,-0.10587692,-0.10818814,-0.
 01183862,-0.02911225,-0.00803910,-0.00337157,0.00040724,-0.00556731,0.
 00025489,0.00068867,-0.00093703,0.00008830,0.00009638,-0.00007374,-0.0
 0000677,-0.00023981,0.00012236,-0.00002783,-0.00013765,-0.00004141,-0.
 00001598,-0.00000068,-0.00000139,-0.00000006,-0.00000394,-0.00000012,0
 .00000073,-0.00000355,-0.00000012,-0.00000173,-0.00000312,0.00000151,-
 0.00000033,0.00001017,0.00000451,0.00000182,-0.00001275,0.00000753,-0.
 00000171,-0.00063628,0.00086598,-0.00016602,0.11295699,0.11071255,0.00
 000861,0.00000382,-0.00000219,-0.00000855,-0.00002278,0.00000371,-0.00
 001719,0.00002406,0.00004603,0.00000896,-0.00001690,-0.00004153,0.0000
 0185,0.00001493,0.00001704,0.00000157,-0.00004760,-0.00010859,-0.00000
 725,0.00002400,-0.00000775,-0.00003214,0.00004148,-0.00027608,-0.00004
 809,-0.00019915,0.00018270,-0.00002744,0.00005870,0.00014557,-0.001244
 02,0.00062598,0.00745169,-0.00301357,-0.00158718,0.00391370,-0.0285572
 2,-0.01183144,-0.04263512,0.00019155,0.00037661,0.00410975,-0.00067673
 ,0.00020840,0.00709524,0.00012023,0.00005338,-0.00084150,0.00019072,-0
 .00000598,-0.00129261,-0.00003031,-0.00001775,0.00018905,-0.00003263,0
 .00002136,0.00021222,-0.00000047,-0.00000098,-0.00000057,-0.00000156,-
 0.00000020,0.00000006,-0.00000147,0.00000093,-0.00000048,-0.00000088,-
 0.00000047,0.00000188,-0.00000684,0.,0.00002787,0.00001330,-0.00000739
 ,0.00001562,0.00066946,-0.00008519,-0.00427067,0.03194283,0.01245145,0
 .02994771,0.00008132,0.00004917,0.00001103,-0.00008401,-0.00020902,-0.
 00001116,-0.00004031,0.00038171,0.00001012,-0.00001435,-0.00012959,-0.
 00000161,0.00006079,0.00010219,0.00001420,-0.00010973,-0.00013947,-0.0
 0002181,-0.00000062,0.00015266,-0.00000044,-0.00005172,-0.00012089,-0.
 00003124,0.00018115,-0.00015269,0.00019621,-0.00004553,0.00021343,-0.0
 0003428,-0.00006161,-0.00074643,0.00010296,0.00144635,-0.00130080,-0.0
 0068189,0.00656623,-0.00423658,0.00031931,-0.24131535,0.13065932,-0.02
 668846,-0.01804859,0.01755149,-0.00305374,-0.00342469,-0.00350246,-0.0
 0127492,0.00007949,0.00172635,-0.00003258,-0.00006207,-0.00043628,-0.0
 0001619,-0.00059011,-0.00026626,-0.00004941,-0.00000708,-0.00000977,-0
 .00000064,-0.00001824,-0.00000030,0.00000147,-0.00001603,0.00000051,-0
 .00000617,-0.00002049,0.00001030,-0.00000843,-0.00000490,0.00000485,-0
 .00000118,0.00001849,-0.00002230,0.00000166,0.00016238,-0.00026187,0.0
 0005386,0.00056488,0.00041905,0.00051974,0.25357386,-0.00001635,-0.000
 00952,-0.00000235,0.00002457,0.00005165,0.00000336,-0.00000754,0.00001
 301,-0.00000404,-0.00003572,0.00003189,-0.00000526,-0.00002356,-0.0000
 3154,-0.00000374,0.00002732,0.00006656,0.00000384,0.00004372,-0.000041
 92,0.00000637,0.00014010,-0.00004729,0.00002155,-0.00015352,0.00000790
 ,-0.00004097,0.00025784,-0.00000664,0.00003583,-0.00082715,-0.00065362
 ,-0.00010490,-0.00168620,-0.00532118,-0.00000874,0.02635519,-0.0127362
 4,0.00350076,0.13068342,-0.15284451,0.01779542,-0.01292410,0.01134888,
 -0.00169387,-0.00293681,-0.00031261,-0.00022518,-0.00068054,0.00062938
 ,-0.00009713,0.00018831,0.00000281,0.00002618,-0.00017737,-0.00017551,
 -0.00002285,0.00000047,0.00000136,0.00000006,0.00000327,-0.00000083,-0
 .00000037,0.00000271,-0.00000104,0.00000126,-0.00000470,0.00000610,0.0
 0000005,0.00000394,0.00000002,0.00000055,-0.00006580,0.00002761,-0.000
 00904,0.00121544,-0.00054492,0.00015457,-0.00025815,0.00122976,-0.0001
 0334,-0.13970355,0.15856236,0.00001184,0.00000528,-0.00000936,-0.00001
 270,-0.00002583,0.00001414,0.00001687,0.00004426,-0.00016315,-0.000002
 48,-0.00001643,0.00000710,0.00001505,0.00001223,-0.00005214,-0.0000218
 3,-0.00001839,0.00005942,0.00000167,0.00001966,-0.00001638,-0.00003925
 ,-0.00001165,0.00022195,0.00019703,-0.00004354,-0.00136142,-0.00003263
 ,0.00002800,0.00020149,0.00010426,-0.00008803,-0.00081313,-0.00067905,
 0.00004222,0.00712481,-0.00015897,-0.00023142,0.00440197,-0.02670458,0
 .01778156,-0.04340003,-0.00256780,0.00203610,0.00423503,-0.00129121,-0
 .00030210,0.00738426,0.00000728,0.00020271,0.00005614,-0.00002649,-0.0
 0004578,0.00018361,-0.00004606,-0.00003250,-0.00017247,-0.00000071,-0.
 00000115,-0.00000123,0.00000296,0.00000522,0.00000026,-0.00000686,-0.0
 0000481,-0.00000179,-0.00000877,0.00000188,0.00004648,-0.00000124,0.00
 000065,0.00000419,0.00000159,-0.00000294,0.00001041,0.00002959,-0.0000
 2652,-0.00023780,0.00053393,-0.00002848,-0.00369713,0.03001532,-0.0192
 0907,0.03021217,-0.00007993,-0.00007347,-0.00001094,0.00014203,0.00019
 638,0.00001709,-0.00007820,-0.00027679,-0.00000897,-0.00005827,0.00008
 312,-0.00000675,-0.00009152,-0.00015867,-0.00001243,0.00026641,-0.0000
 3540,0.00003684,-0.00014832,-0.00011462,-0.00001627,-0.00011711,0.0001
 1842,-0.00001802,0.00134538,0.00089142,0.00004555,-0.00066344,0.000701
 98,-0.00003951,-0.00459467,0.00195030,-0.00142910,-0.00096949,0.000115
 89,0.00002599,-0.00447228,-0.00154757,-0.00144986,0.00122516,-0.028589
 67,0.00006280,-0.05947493,-0.02728309,-0.00201026,0.00830650,0.0252765
 1,0.00015433,-0.00044656,0.00123158,0.00040711,-0.00070039,-0.00133572
 ,-0.00008200,0.00057127,-0.00036149,0.00007950,0.00000446,0.00001001,0
 .00000042,0.00002489,0.00000177,-0.00000223,0.00002302,0.00000124,0.00
 000896,0.00001674,-0.00000521,0.00000234,-0.00000823,-0.00000814,-0.00
 000153,0.00019110,-0.00001290,0.00002867,0.00011460,-0.00001515,0.0001
 1335,-0.00003375,-0.00128515,0.00003754,0.00118047,0.00055476,0.000663
 26,0.05852508,-0.00002681,0.00000183,-0.00000313,0.00000064,0.00008143
 ,-0.00000087,0.00006791,-0.00016330,0.00001277,0.00002978,0.00005936,0
 .00000095,-0.00000046,-0.00000343,0.00000152,-0.00006122,0.00012709,-0
 .00001015,0.00008461,-0.00006857,0.00001183,0.00022037,0.00000512,0.00
 002760,-0.00100319,-0.00014265,-0.00010693,0.00037370,-0.00051711,0.00
 004634,0.00306791,0.00013457,0.00049481,0.00000874,0.00055895,-0.00002
 857,-0.00177279,0.00107067,-0.00010450,0.00105851,-0.00632050,0.000306
 90,-0.02679571,-0.33854675,0.00161962,-0.00072283,-0.01471622,0.000215
 68,-0.00185238,-0.00309607,-0.00021434,-0.00286776,0.00203781,-0.00036
 389,0.00022185,0.00003051,0.00002598,0.00000251,0.00000309,0.00000036,
 0.00000140,-0.00000267,-0.00000010,0.00000135,-0.00000241,0.00000064,0
 .00000702,-0.00000314,0.00000097,0.00000910,0.00000031,0.00000120,-0.0
 0012595,0.00002930,-0.00001774,-0.00002721,-0.00008480,-0.00001563,0.0
 0016402,-0.00033218,0.00002125,-0.00003276,0.00074807,-0.00009112,0.02
 996965,0.35911170,-0.00001003,-0.00000791,0.00001554,0.00001480,0.0000
 1682,0.00001267,-0.00001360,-0.00002181,0.00003683,-0.00000189,0.00000
 755,-0.00003066,-0.00001372,-0.00001603,0.00002408,0.00002923,-0.00000
 640,-0.00000259,-0.00001677,-0.00001225,-0.00001852,-0.00001725,0.0000
 1015,0.00000615,0.00006099,0.00012588,0.00090542,-0.00003144,0.0000890
 9,-0.00044492,-0.00143373,0.00034973,0.00656226,0.00002726,-0.00001774
 ,-0.00117728,-0.00144967,-0.00008646,0.00741611,-0.00043274,-0.0033357
 5,0.00464747,-0.00196814,0.00154931,-0.04005797,0.00048427,0.00340705,
 0.00379040,0.00049191,0.00017483,-0.00396860,-0.00000305,-0.00016715,0
 .00013795,0.00004625,-0.00003751,0.00005987,0.00000043,0.00000094,0.00
 000037,-0.00000052,-0.00000276,-0.00000165,0.00000568,0.00000316,0.000
 00029,0.00000190,-0.00000051,-0.00000123,-0.00000147,-0.00000087,0.000
 00304,0.00002871,-0.00000244,-0.00002240,0.00011397,-0.00001333,-0.000
 79519,0.00001624,-0.00015518,-0.00018562,0.00066829,-0.00001895,-0.004
 23740,0.00340408,-0.00183144,0.02732558\\-0.00000692,-0.00000386,0.000
 00491,0.00000555,0.00002289,-0.00000896,0.00000990,-0.00002682,0.00000
 974,-0.00000584,0.00001875,-0.00000074,-0.00001479,-0.00002810,0.00000
 157,0.00000242,0.00003275,0.00000343,-0.00000968,-0.00002660,0.0000018
 1,0.00000726,-0.00000913,-0.00000072,-0.00000512,-0.00001069,0.0000097
 0,-0.00000187,0.00000862,-0.00000264,0.00000139,-0.00000031,-0.0000035
 7,-0.00000101,0.00000170,-0.00000179,0.00000281,-0.00000496,-0.0000022
 5,0.00000510,0.00000521,-0.00000289,-0.00000090,-0.00000205,-0.0000021
 0,0.00000424,0.00000909,-0.00000044,-0.00000819,-0.00001708,-0.0000042
 7,-0.00000111,0.00000626,-0.00000136,0.00000233,0.00000859,0.00000076,
 -0.00000089,-0.00000008,0.00000124,0.00000175,-0.00000028,-0.00000066,
 0.00000056,-0.00000070,0.00000309,-0.00000041,-0.00000302,0.00000225,-
 0.00000059,0.00000143,0.00000363,0.00001341,0.00001565,0.00000206,-0.0
 0000025,-0.00000010,-0.00000118,-0.00000027,0.00000035,-0.00000314,0.0
 0000041,0.00000135,-0.00000429,0.00000071,0.00000109,-0.00000319\\\@


 CURIOUSER AND CURIOUSER

                  -- ALICE, IN WONDERLAND
 Job cpu time:       0 days  9 hours 14 minutes 53.8 seconds.
 Elapsed time:       0 days  1 hours  9 minutes 50.0 seconds.
 File lengths (MBytes):  RWF=   1345 Int=      0 D2E=      0 Chk=     37 Scr=      1
 Normal termination of Gaussian 16 at Sat Feb 10 18:14:46 2024.
