 Entering Gaussian System, Link 0=g16
 Input=071-rad.com
 Output=071-rad.log
 Initial command:
 /sysapps/ubuntu-applications/gaussian/Gaussian/AVX2/g16/l1.exe "/scratch/selhajj1/4406560/Gau-2092623.inp" -scrdir="/scratch/selhajj1/4406560/"
 Entering Link 1 = /sysapps/ubuntu-applications/gaussian/Gaussian/AVX2/g16/l1.exe PID=   2092625.
  
 Copyright (c) 1988,1990,1992,1993,1995,1998,2003,2009,2016,
            Gaussian, Inc.  All Rights Reserved.
  
 This is part of the Gaussian(R) 16 program.  It is based on
 the Gaussian(R) 09 system (copyright 2009, Gaussian, Inc.),
 the Gaussian(R) 03 system (copyright 2003, Gaussian, Inc.),
 the Gaussian(R) 98 system (copyright 1998, Gaussian, Inc.),
 the Gaussian(R) 94 system (copyright 1995, Gaussian, Inc.),
 the Gaussian 92(TM) system (copyright 1992, Gaussian, Inc.),
 the Gaussian 90(TM) system (copyright 1990, Gaussian, Inc.),
 the Gaussian 88(TM) system (copyright 1988, Gaussian, Inc.),
 the Gaussian 86(TM) system (copyright 1986, Carnegie Mellon
 University), and the Gaussian 82(TM) system (copyright 1983,
 Carnegie Mellon University). Gaussian is a federally registered
 trademark of Gaussian, Inc.
  
 This software contains proprietary and confidential information,
 including trade secrets, belonging to Gaussian, Inc.
  
 This software is provided under written license and may be
 used, copied, transmitted, or stored only in accord with that
 written license.
  
 The following legend is applicable only to US Government
 contracts under FAR:
  
                    RESTRICTED RIGHTS LEGEND
  
 Use, reproduction and disclosure by the US Government is
 subject to restrictions as set forth in subparagraphs (a)
 and (c) of the Commercial Computer Software - Restricted
 Rights clause in FAR 52.227-19.
  
 Gaussian, Inc.
 340 Quinnipiac St., Bldg. 40, Wallingford CT 06492
  
  
 ---------------------------------------------------------------
 Warning -- This program may not be used in any manner that
 competes with the business of Gaussian, Inc. or will provide
 assistance to any competitor of Gaussian, Inc.  The licensee
 of this program is prohibited from giving any competitor of
 Gaussian, Inc. access to this program.  By using this program,
 the user acknowledges that Gaussian, Inc. is engaged in the
 business of creating and licensing software in the field of
 computational chemistry and represents and warrants to the
 licensee that it is not a competitor of Gaussian, Inc. and that
 it will not use this program in any manner prohibited above.
 ---------------------------------------------------------------
  

 Cite this work as:
 Gaussian 16, Revision A.03,
 M. J. Frisch, G. W. Trucks, H. B. Schlegel, G. E. Scuseria, 
 M. A. Robb, J. R. Cheeseman, G. Scalmani, V. Barone, 
 G. A. Petersson, H. Nakatsuji, X. Li, M. Caricato, A. V. Marenich, 
 J. Bloino, B. G. Janesko, R. Gomperts, B. Mennucci, H. P. Hratchian, 
 J. V. Ortiz, A. F. Izmaylov, J. L. Sonnenberg, D. Williams-Young, 
 F. Ding, F. Lipparini, F. Egidi, J. Goings, B. Peng, A. Petrone, 
 T. Henderson, D. Ranasinghe, V. G. Zakrzewski, J. Gao, N. Rega, 
 G. Zheng, W. Liang, M. Hada, M. Ehara, K. Toyota, R. Fukuda, 
 J. Hasegawa, M. Ishida, T. Nakajima, Y. Honda, O. Kitao, H. Nakai, 
 T. Vreven, K. Throssell, J. A. Montgomery, Jr., J. E. Peralta, 
 F. Ogliaro, M. J. Bearpark, J. J. Heyd, E. N. Brothers, K. N. Kudin, 
 V. N. Staroverov, T. A. Keith, R. Kobayashi, J. Normand, 
 K. Raghavachari, A. P. Rendell, J. C. Burant, S. S. Iyengar, 
 J. Tomasi, M. Cossi, J. M. Millam, M. Klene, C. Adamo, R. Cammi, 
 J. W. Ochterski, R. L. Martin, K. Morokuma, O. Farkas, 
 J. B. Foresman, and D. J. Fox, Gaussian, Inc., Wallingford CT, 2016.
 
 ******************************************
 Gaussian 16:  ES64L-G16RevA.03 25-Dec-2016
                10-Feb-2024 
 ******************************************
 %chk=071-rad.chk
 %nproc=8
 Will use up to    8 processors via shared memory.
 %mem=30GB
 ----------------------------------------------------------------------
 #P UB3LYP/6-311++G(d,p) nosym opt freq SCRF=(PCM,Solvent=n,n-DiMethylF
 ormamide)
 ----------------------------------------------------------------------
 1/18=20,19=15,26=3,38=1/1,3;
 2/9=110,12=2,15=1,17=6,18=5,40=1/2;
 3/5=4,6=6,7=1111,11=2,25=1,30=1,70=2201,71=1,72=148,74=-5,116=2/1,2,3;
 4//1;
 5/5=2,38=5,53=148/2;
 6/7=2,8=2,9=2,10=2,28=1/1;
 7/30=1/1,2,3,16;
 1/18=20,19=15,26=3/3(2);
 2/9=110,15=1/2;
 99//99;
 2/9=110,15=1/2;
 3/5=4,6=6,7=1111,11=2,25=1,30=1,70=2205,71=1,72=148,74=-5,116=2/1,2,3;
 4/5=5,16=3,69=1/1;
 5/5=2,38=5,53=148/2;
 7/30=1/1,2,3,16;
 1/18=20,19=15,26=3/3(-5);
 2/9=110,15=1/2;
 6/7=2,8=2,9=2,10=2,19=2,28=1/1;
 99/9=1/99;
 Leave Link    1 at Sat Feb 10 10:51:46 2024, MaxMem=  4026531840 cpu:               1.3 elap:               0.2
 (Enter /sysapps/ubuntu-applications/gaussian/Gaussian/AVX2/g16/l101.exe)
 -------
 Radical
 -------
 Symbolic Z-matrix:
 Charge = -1 Multiplicity = 2
 C                     1.24855   1.60828  -0.52024 
 C                     0.00623   1.19586   0.12795 
 C                    -0.39595  -0.11415   0.12596 
 C                     0.39132  -1.15748  -0.52564 
 C                     1.64499  -0.77676  -1.1813 
 C                     2.03985   0.55348  -1.13165 
 O                     1.61195   2.81176  -0.53738 
 O                    -0.00074  -2.3583   -0.52508 
 S                     3.57482   1.1292   -1.89943 
 C                     4.46542   2.07948  -0.62536 
 C                     4.39934   3.46894  -0.61566 
 C                     5.26562   1.38649   0.27845 
 C                     6.00592   2.10029   1.22056 
 C                     5.1542    4.17485   0.31849 
 C                     5.95247   3.49363   1.23863 
 O                     3.29759   2.04426  -3.01865 
 O                     4.44868  -0.03421  -2.16012 
 H                     3.75199   3.96832  -1.32227 
 H                     5.31589   0.30589   0.22996 
 H                     5.10993   5.25866   0.33502 
 H                     6.62935   1.56821   1.93133 
 C                    -1.68176  -0.53836   0.79086 
 C                    -0.8107    2.27828   0.78723 
 H                     6.53125   4.04866   1.96996 
 H                    -2.5447   -0.01264   0.36483 
 H                    -1.67197  -0.31012   1.86364 
 H                    -1.82371  -1.61079   0.66184 
 H                    -1.80819   2.35874   0.33824 
 H                    -0.302     3.23584   0.6785 
 H                    -0.95941   2.07582   1.85474 
 C                     2.38227  -1.89791  -1.87012 
 H                     1.74789  -2.78284  -1.84314 
 H                     3.33037  -2.11992  -1.37394 
 H                     2.63313  -1.64705  -2.90193 
 
 ITRead=  0  0  0  0  0  0  0  0  0  0  0  0  0  0  0  0  0  0  0  0
 ITRead=  0  0  0  0  0  0  0  0  0  0  0  0  0  0
 MicOpt= -1 -1 -1 -1 -1 -1 -1 -1 -1 -1 -1 -1 -1 -1 -1 -1 -1 -1 -1 -1
 MicOpt= -1 -1 -1 -1 -1 -1 -1 -1 -1 -1 -1 -1 -1 -1
 NAtoms=     34 NQM=       34 NQMF=       0 NMMI=      0 NMMIF=      0
                NMic=       0 NMicF=      0.
                    Isotopes and Nuclear Properties:
 (Nuclear quadrupole moments (NQMom) in fm**2, nuclear magnetic moments (NMagM)
  in nuclear magnetons)

  Atom         1           2           3           4           5           6           7           8           9          10
 IAtWgt=          12          12          12          12          12          12          16          16          32          12
 AtmWgt=  12.0000000  12.0000000  12.0000000  12.0000000  12.0000000  12.0000000  15.9949146  15.9949146  31.9720718  12.0000000
 NucSpn=           0           0           0           0           0           0           0           0           0           0
 AtZEff=  -0.0000000  -0.0000000  -0.0000000  -0.0000000  -0.0000000  -0.0000000  -0.0000000  -0.0000000  -0.0000000  -0.0000000
 NQMom=    0.0000000   0.0000000   0.0000000   0.0000000   0.0000000   0.0000000   0.0000000   0.0000000   0.0000000   0.0000000
 NMagM=    0.0000000   0.0000000   0.0000000   0.0000000   0.0000000   0.0000000   0.0000000   0.0000000   0.0000000   0.0000000
 AtZNuc=   6.0000000   6.0000000   6.0000000   6.0000000   6.0000000   6.0000000   8.0000000   8.0000000  16.0000000   6.0000000

  Atom        11          12          13          14          15          16          17          18          19          20
 IAtWgt=          12          12          12          12          12          16          16           1           1           1
 AtmWgt=  12.0000000  12.0000000  12.0000000  12.0000000  12.0000000  15.9949146  15.9949146   1.0078250   1.0078250   1.0078250
 NucSpn=           0           0           0           0           0           0           0           1           1           1
 AtZEff=  -0.0000000  -0.0000000  -0.0000000  -0.0000000  -0.0000000  -0.0000000  -0.0000000  -0.0000000  -0.0000000  -0.0000000
 NQMom=    0.0000000   0.0000000   0.0000000   0.0000000   0.0000000   0.0000000   0.0000000   0.0000000   0.0000000   0.0000000
 NMagM=    0.0000000   0.0000000   0.0000000   0.0000000   0.0000000   0.0000000   0.0000000   2.7928460   2.7928460   2.7928460
 AtZNuc=   6.0000000   6.0000000   6.0000000   6.0000000   6.0000000   8.0000000   8.0000000   1.0000000   1.0000000   1.0000000

  Atom        21          22          23          24          25          26          27          28          29          30
 IAtWgt=           1          12          12           1           1           1           1           1           1           1
 AtmWgt=   1.0078250  12.0000000  12.0000000   1.0078250   1.0078250   1.0078250   1.0078250   1.0078250   1.0078250   1.0078250
 NucSpn=           1           0           0           1           1           1           1           1           1           1
 AtZEff=  -0.0000000  -0.0000000  -0.0000000  -0.0000000  -0.0000000  -0.0000000  -0.0000000  -0.0000000  -0.0000000  -0.0000000
 NQMom=    0.0000000   0.0000000   0.0000000   0.0000000   0.0000000   0.0000000   0.0000000   0.0000000   0.0000000   0.0000000
 NMagM=    2.7928460   0.0000000   0.0000000   2.7928460   2.7928460   2.7928460   2.7928460   2.7928460   2.7928460   2.7928460
 AtZNuc=   1.0000000   6.0000000   6.0000000   1.0000000   1.0000000   1.0000000   1.0000000   1.0000000   1.0000000   1.0000000

  Atom        31          32          33          34
 IAtWgt=          12           1           1           1
 AtmWgt=  12.0000000   1.0078250   1.0078250   1.0078250
 NucSpn=           0           1           1           1
 AtZEff=  -0.0000000  -0.0000000  -0.0000000  -0.0000000
 NQMom=    0.0000000   0.0000000   0.0000000   0.0000000
 NMagM=    0.0000000   2.7928460   2.7928460   2.7928460
 AtZNuc=   6.0000000   1.0000000   1.0000000   1.0000000
 Leave Link  101 at Sat Feb 10 10:51:47 2024, MaxMem=  4026531840 cpu:               6.7 elap:               0.9
 (Enter /sysapps/ubuntu-applications/gaussian/Gaussian/AVX2/g16/l103.exe)

 GradGradGradGradGradGradGradGradGradGradGradGradGradGradGradGradGradGrad
 Berny optimization.
 Initialization pass.
                           ----------------------------
                           !    Initial Parameters    !
                           ! (Angstroms and Degrees)  !
 --------------------------                            --------------------------
 ! Name  Definition              Value          Derivative Info.                !
 --------------------------------------------------------------------------------
 ! R1    R(1,2)                  1.4607         estimate D2E/DX2                !
 ! R2    R(1,6)                  1.4535         estimate D2E/DX2                !
 ! R3    R(1,7)                  1.2573         estimate D2E/DX2                !
 ! R4    R(2,3)                  1.3704         estimate D2E/DX2                !
 ! R5    R(2,23)                 1.5079         estimate D2E/DX2                !
 ! R6    R(3,4)                  1.4605         estimate D2E/DX2                !
 ! R7    R(3,22)                 1.5084         estimate D2E/DX2                !
 ! R8    R(4,5)                  1.4651         estimate D2E/DX2                !
 ! R9    R(4,8)                  1.2632         estimate D2E/DX2                !
 ! R10   R(5,6)                  1.3885         estimate D2E/DX2                !
 ! R11   R(5,31)                 1.5083         estimate D2E/DX2                !
 ! R12   R(6,9)                  1.8103         estimate D2E/DX2                !
 ! R13   R(9,10)                 1.8219         estimate D2E/DX2                !
 ! R14   R(9,16)                 1.472          estimate D2E/DX2                !
 ! R15   R(9,17)                 1.4782         estimate D2E/DX2                !
 ! R16   R(10,11)                1.3911         estimate D2E/DX2                !
 ! R17   R(10,12)                1.3919         estimate D2E/DX2                !
 ! R18   R(11,14)                1.3931         estimate D2E/DX2                !
 ! R19   R(11,18)                1.0806         estimate D2E/DX2                !
 ! R20   R(12,13)                1.3947         estimate D2E/DX2                !
 ! R21   R(12,19)                1.0829         estimate D2E/DX2                !
 ! R22   R(13,15)                1.3945         estimate D2E/DX2                !
 ! R23   R(13,21)                1.0849         estimate D2E/DX2                !
 ! R24   R(14,15)                1.3957         estimate D2E/DX2                !
 ! R25   R(14,20)                1.0848         estimate D2E/DX2                !
 ! R26   R(15,24)                1.0853         estimate D2E/DX2                !
 ! R27   R(22,25)                1.0966         estimate D2E/DX2                !
 ! R28   R(22,26)                1.0968         estimate D2E/DX2                !
 ! R29   R(22,27)                1.0894         estimate D2E/DX2                !
 ! R30   R(23,28)                1.0968         estimate D2E/DX2                !
 ! R31   R(23,29)                1.0897         estimate D2E/DX2                !
 ! R32   R(23,30)                1.0967         estimate D2E/DX2                !
 ! R33   R(31,32)                1.0892         estimate D2E/DX2                !
 ! R34   R(31,33)                1.0929         estimate D2E/DX2                !
 ! R35   R(31,34)                1.0911         estimate D2E/DX2                !
 ! A1    A(2,1,6)              116.4105         estimate D2E/DX2                !
 ! A2    A(2,1,7)              121.4762         estimate D2E/DX2                !
 ! A3    A(6,1,7)              122.1118         estimate D2E/DX2                !
 ! A4    A(1,2,3)              121.2573         estimate D2E/DX2                !
 ! A5    A(1,2,23)             116.8803         estimate D2E/DX2                !
 ! A6    A(3,2,23)             121.8613         estimate D2E/DX2                !
 ! A7    A(2,3,4)              121.6927         estimate D2E/DX2                !
 ! A8    A(2,3,22)             121.2237         estimate D2E/DX2                !
 ! A9    A(4,3,22)             117.0819         estimate D2E/DX2                !
 ! A10   A(3,4,5)              118.3788         estimate D2E/DX2                !
 ! A11   A(3,4,8)              120.7703         estimate D2E/DX2                !
 ! A12   A(5,4,8)              120.8508         estimate D2E/DX2                !
 ! A13   A(4,5,6)              118.4432         estimate D2E/DX2                !
 ! A14   A(4,5,31)             115.4347         estimate D2E/DX2                !
 ! A15   A(6,5,31)             126.1183         estimate D2E/DX2                !
 ! A16   A(1,6,5)              123.7443         estimate D2E/DX2                !
 ! A17   A(1,6,9)              114.1571         estimate D2E/DX2                !
 ! A18   A(5,6,9)              122.0492         estimate D2E/DX2                !
 ! A19   A(6,9,10)             106.4855         estimate D2E/DX2                !
 ! A20   A(6,9,16)             111.1299         estimate D2E/DX2                !
 ! A21   A(6,9,17)             109.0115         estimate D2E/DX2                !
 ! A22   A(10,9,16)            107.4286         estimate D2E/DX2                !
 ! A23   A(10,9,17)            104.173          estimate D2E/DX2                !
 ! A24   A(16,9,17)            117.8071         estimate D2E/DX2                !
 ! A25   A(9,10,11)            120.1746         estimate D2E/DX2                !
 ! A26   A(9,10,12)            118.3862         estimate D2E/DX2                !
 ! A27   A(11,10,12)           121.3371         estimate D2E/DX2                !
 ! A28   A(10,11,14)           119.0172         estimate D2E/DX2                !
 ! A29   A(10,11,18)           119.0442         estimate D2E/DX2                !
 ! A30   A(14,11,18)           121.9312         estimate D2E/DX2                !
 ! A31   A(10,12,13)           119.2729         estimate D2E/DX2                !
 ! A32   A(10,12,19)           119.6331         estimate D2E/DX2                !
 ! A33   A(13,12,19)           121.0871         estimate D2E/DX2                !
 ! A34   A(12,13,15)           119.9861         estimate D2E/DX2                !
 ! A35   A(12,13,21)           119.774          estimate D2E/DX2                !
 ! A36   A(15,13,21)           120.2374         estimate D2E/DX2                !
 ! A37   A(11,14,15)           120.3094         estimate D2E/DX2                !
 ! A38   A(11,14,20)           119.6266         estimate D2E/DX2                !
 ! A39   A(15,14,20)           120.0602         estimate D2E/DX2                !
 ! A40   A(13,15,14)           120.0704         estimate D2E/DX2                !
 ! A41   A(13,15,24)           119.9521         estimate D2E/DX2                !
 ! A42   A(14,15,24)           119.9774         estimate D2E/DX2                !
 ! A43   A(3,22,25)            111.3897         estimate D2E/DX2                !
 ! A44   A(3,22,26)            111.407          estimate D2E/DX2                !
 ! A45   A(3,22,27)            109.615          estimate D2E/DX2                !
 ! A46   A(25,22,26)           106.6929         estimate D2E/DX2                !
 ! A47   A(25,22,27)           108.8674         estimate D2E/DX2                !
 ! A48   A(26,22,27)           108.7741         estimate D2E/DX2                !
 ! A49   A(2,23,28)            111.4927         estimate D2E/DX2                !
 ! A50   A(2,23,29)            109.5269         estimate D2E/DX2                !
 ! A51   A(2,23,30)            111.503          estimate D2E/DX2                !
 ! A52   A(28,23,29)           108.6162         estimate D2E/DX2                !
 ! A53   A(28,23,30)           106.7795         estimate D2E/DX2                !
 ! A54   A(29,23,30)           108.8228         estimate D2E/DX2                !
 ! A55   A(5,31,32)            107.9334         estimate D2E/DX2                !
 ! A56   A(5,31,33)            111.5748         estimate D2E/DX2                !
 ! A57   A(5,31,34)            111.922          estimate D2E/DX2                !
 ! A58   A(32,31,33)           109.2081         estimate D2E/DX2                !
 ! A59   A(32,31,34)           110.1299         estimate D2E/DX2                !
 ! A60   A(33,31,34)           106.0566         estimate D2E/DX2                !
 ! D1    D(6,1,2,3)             -1.4538         estimate D2E/DX2                !
 ! D2    D(6,1,2,23)           178.9343         estimate D2E/DX2                !
 ! D3    D(7,1,2,3)            178.9734         estimate D2E/DX2                !
 ! D4    D(7,1,2,23)            -0.6385         estimate D2E/DX2                !
 ! D5    D(2,1,6,5)              3.2035         estimate D2E/DX2                !
 ! D6    D(2,1,6,9)           -179.3094         estimate D2E/DX2                !
 ! D7    D(7,1,6,5)           -177.2267         estimate D2E/DX2                !
 ! D8    D(7,1,6,9)              0.2604         estimate D2E/DX2                !
 ! D9    D(1,2,3,4)             -0.2336         estimate D2E/DX2                !
 ! D10   D(1,2,3,22)          -179.7551         estimate D2E/DX2                !
 ! D11   D(23,2,3,4)           179.3588         estimate D2E/DX2                !
 ! D12   D(23,2,3,22)           -0.1627         estimate D2E/DX2                !
 ! D13   D(1,2,23,28)          119.2447         estimate D2E/DX2                !
 ! D14   D(1,2,23,29)           -0.9981         estimate D2E/DX2                !
 ! D15   D(1,2,23,30)         -121.5063         estimate D2E/DX2                !
 ! D16   D(3,2,23,28)          -60.3646         estimate D2E/DX2                !
 ! D17   D(3,2,23,29)          179.3925         estimate D2E/DX2                !
 ! D18   D(3,2,23,30)           58.8843         estimate D2E/DX2                !
 ! D19   D(2,3,4,5)              0.4137         estimate D2E/DX2                !
 ! D20   D(2,3,4,8)           -179.4893         estimate D2E/DX2                !
 ! D21   D(22,3,4,5)           179.9542         estimate D2E/DX2                !
 ! D22   D(22,3,4,8)             0.0511         estimate D2E/DX2                !
 ! D23   D(2,3,22,25)           58.5166         estimate D2E/DX2                !
 ! D24   D(2,3,22,26)          -60.4897         estimate D2E/DX2                !
 ! D25   D(2,3,22,27)          179.0663         estimate D2E/DX2                !
 ! D26   D(4,3,22,25)         -121.0262         estimate D2E/DX2                !
 ! D27   D(4,3,22,26)          119.9675         estimate D2E/DX2                !
 ! D28   D(4,3,22,27)           -0.4765         estimate D2E/DX2                !
 ! D29   D(3,4,5,6)              1.1934         estimate D2E/DX2                !
 ! D30   D(3,4,5,31)          -178.1444         estimate D2E/DX2                !
 ! D31   D(8,4,5,6)           -178.9037         estimate D2E/DX2                !
 ! D32   D(8,4,5,31)             1.7585         estimate D2E/DX2                !
 ! D33   D(4,5,6,1)             -3.0792         estimate D2E/DX2                !
 ! D34   D(4,5,6,9)            179.6261         estimate D2E/DX2                !
 ! D35   D(31,5,6,1)           176.1805         estimate D2E/DX2                !
 ! D36   D(31,5,6,9)            -1.1142         estimate D2E/DX2                !
 ! D37   D(4,5,31,32)            6.9658         estimate D2E/DX2                !
 ! D38   D(4,5,31,33)         -113.0226         estimate D2E/DX2                !
 ! D39   D(4,5,31,34)          128.3089         estimate D2E/DX2                !
 ! D40   D(6,5,31,32)         -172.3134         estimate D2E/DX2                !
 ! D41   D(6,5,31,33)           67.6982         estimate D2E/DX2                !
 ! D42   D(6,5,31,34)          -50.9703         estimate D2E/DX2                !
 ! D43   D(1,6,9,10)            53.3155         estimate D2E/DX2                !
 ! D44   D(1,6,9,16)           -63.3796         estimate D2E/DX2                !
 ! D45   D(1,6,9,17)           165.1574         estimate D2E/DX2                !
 ! D46   D(5,6,9,10)          -129.1497         estimate D2E/DX2                !
 ! D47   D(5,6,9,16)           114.1551         estimate D2E/DX2                !
 ! D48   D(5,6,9,17)           -17.3078         estimate D2E/DX2                !
 ! D49   D(6,9,10,11)          -99.1478         estimate D2E/DX2                !
 ! D50   D(6,9,10,12)           84.4778         estimate D2E/DX2                !
 ! D51   D(16,9,10,11)          19.9914         estimate D2E/DX2                !
 ! D52   D(16,9,10,12)        -156.3831         estimate D2E/DX2                !
 ! D53   D(17,9,10,11)         145.6936         estimate D2E/DX2                !
 ! D54   D(17,9,10,12)         -30.6809         estimate D2E/DX2                !
 ! D55   D(9,10,11,14)        -176.128          estimate D2E/DX2                !
 ! D56   D(9,10,11,18)           4.8467         estimate D2E/DX2                !
 ! D57   D(12,10,11,14)          0.1374         estimate D2E/DX2                !
 ! D58   D(12,10,11,18)       -178.8878         estimate D2E/DX2                !
 ! D59   D(9,10,12,13)         176.9429         estimate D2E/DX2                !
 ! D60   D(9,10,12,19)          -2.115          estimate D2E/DX2                !
 ! D61   D(11,10,12,13)          0.6125         estimate D2E/DX2                !
 ! D62   D(11,10,12,19)       -178.4453         estimate D2E/DX2                !
 ! D63   D(10,11,14,15)         -0.6846         estimate D2E/DX2                !
 ! D64   D(10,11,14,20)       -179.9848         estimate D2E/DX2                !
 ! D65   D(18,11,14,15)        178.3113         estimate D2E/DX2                !
 ! D66   D(18,11,14,20)         -0.9889         estimate D2E/DX2                !
 ! D67   D(10,12,13,15)         -0.817          estimate D2E/DX2                !
 ! D68   D(10,12,13,21)        179.7661         estimate D2E/DX2                !
 ! D69   D(19,12,13,15)        178.2267         estimate D2E/DX2                !
 ! D70   D(19,12,13,21)         -1.1902         estimate D2E/DX2                !
 ! D71   D(12,13,15,14)          0.2799         estimate D2E/DX2                !
 ! D72   D(12,13,15,24)       -179.8044         estimate D2E/DX2                !
 ! D73   D(21,13,15,14)        179.6941         estimate D2E/DX2                !
 ! D74   D(21,13,15,24)         -0.3902         estimate D2E/DX2                !
 ! D75   D(11,14,15,13)          0.48           estimate D2E/DX2                !
 ! D76   D(11,14,15,24)       -179.4356         estimate D2E/DX2                !
 ! D77   D(20,14,15,13)        179.7772         estimate D2E/DX2                !
 ! D78   D(20,14,15,24)         -0.1385         estimate D2E/DX2                !
 --------------------------------------------------------------------------------
 Trust Radius=3.00D-01 FncErr=1.00D-07 GrdErr=1.00D-06 EigMax=2.50D+02 EigMin=1.00D-04
 Number of steps in this run=    183 maximum allowed number of steps=    204.
 GradGradGradGradGradGradGradGradGradGradGradGradGradGradGradGradGradGrad

 Leave Link  103 at Sat Feb 10 10:51:47 2024, MaxMem=  4026531840 cpu:               0.2 elap:               0.0
 (Enter /sysapps/ubuntu-applications/gaussian/Gaussian/AVX2/g16/l202.exe)
                          Input orientation:                          
 ---------------------------------------------------------------------
 Center     Atomic      Atomic             Coordinates (Angstroms)
 Number     Number       Type             X           Y           Z
 ---------------------------------------------------------------------
      1          6           0        1.248547    1.608276   -0.520241
      2          6           0        0.006229    1.195859    0.127946
      3          6           0       -0.395953   -0.114147    0.125962
      4          6           0        0.391324   -1.157475   -0.525642
      5          6           0        1.644994   -0.776759   -1.181302
      6          6           0        2.039845    0.553477   -1.131650
      7          8           0        1.611948    2.811759   -0.537375
      8          8           0       -0.000739   -2.358296   -0.525081
      9         16           0        3.574815    1.129195   -1.899432
     10          6           0        4.465420    2.079481   -0.625364
     11          6           0        4.399341    3.468936   -0.615657
     12          6           0        5.265616    1.386492    0.278447
     13          6           0        6.005917    2.100290    1.220561
     14          6           0        5.154197    4.174845    0.318487
     15          6           0        5.952468    3.493630    1.238631
     16          8           0        3.297590    2.044258   -3.018649
     17          8           0        4.448682   -0.034212   -2.160123
     18          1           0        3.751988    3.968315   -1.322265
     19          1           0        5.315888    0.305886    0.229957
     20          1           0        5.109931    5.258658    0.335022
     21          1           0        6.629345    1.568212    1.931331
     22          6           0       -1.681764   -0.538364    0.790863
     23          6           0       -0.810698    2.278279    0.787233
     24          1           0        6.531250    4.048658    1.969957
     25          1           0       -2.544702   -0.012641    0.364833
     26          1           0       -1.671972   -0.310121    1.863642
     27          1           0       -1.823711   -1.610787    0.661840
     28          1           0       -1.808188    2.358739    0.338243
     29          1           0       -0.302000    3.235837    0.678504
     30          1           0       -0.959408    2.075823    1.854744
     31          6           0        2.382270   -1.897914   -1.870119
     32          1           0        1.747887   -2.782837   -1.843137
     33          1           0        3.330374   -2.119923   -1.373942
     34          1           0        2.633130   -1.647050   -2.901925
 ---------------------------------------------------------------------
                    Distance matrix (angstroms):
                    1          2          3          4          5
     1  C    0.000000
     2  C    1.460681   0.000000
     3  C    2.467529   1.370354   0.000000
     4  C    2.895555   2.472581   1.460454   0.000000
     5  C    2.506504   2.879393   2.512660   1.465102   0.000000
     6  C    1.453470   2.476859   2.821422   2.451984   1.388489
     7  O    1.257269   2.373208   3.610070   4.152695   3.645983
     8  O    4.158658   3.613656   2.369864   1.263204   2.374936
     9  S    2.746490   4.104816   4.627647   4.153405   2.805812
    10  C    3.252900   4.607890   5.386041   5.204430   4.052404
    11  C    3.660418   5.001925   6.031859   6.121763   5.092377
    12  C    4.101699   5.264992   5.859056   5.556712   4.463118
    13  C    5.089699   6.165068   6.861911   6.722047   5.750131
    14  C    4.748141   5.950818   7.016886   7.199385   6.251580
    15  C    5.364239   6.470791   7.386240   7.461351   6.530439
    16  O    3.260475   4.631835   5.309383   4.991248   3.750341
    17  O    3.953207   5.146234   5.357524   4.516127   3.061067
    18  H    3.532739   4.880608   5.997439   6.180809   5.193748
    19  H    4.336160   5.384695   5.728208   5.192657   4.079122
    20  H    5.382105   6.526637   7.695810   8.010790   7.122590
    21  H    5.913104   6.874337   7.446106   7.237333   6.327016
    22  C    3.861836   2.509245   1.508431   2.532623   3.874737
    23  C    2.529601   1.507867   2.516544   3.869484   4.386207
    24  H    6.329574   7.355771   8.289476   8.427961   7.555831
    25  H    4.218941   2.832638   2.164367   3.274727   4.530779
    26  H    4.229962   2.845518   2.164755   3.268620   4.526776
    27  H    4.604178   3.392784   2.136724   2.553818   4.015556
    28  H    3.262487   2.165323   2.855632   4.236498   4.905592
    29  H    2.547575   2.135329   3.396546   4.607804   4.832245
    30  H    3.276312   2.165323   2.846425   4.236146   4.913014
    31  C    3.924394   4.382838   3.858068   2.513908   1.508321
    32  H    4.613162   4.769545   3.949089   2.493563   2.114938
    33  H    4.354570   4.929505   4.489806   3.206857   2.163725
    34  H    4.264579   4.915573   4.548982   3.303347   2.166648
                    6          7          8          9         10
     6  C    0.000000
     7  O    2.374046   0.000000
     8  O    3.606984   5.415753   0.000000
     9  S    1.810269   2.922168   5.180349   0.000000
    10  C    2.910056   2.947249   6.296864   1.821941   0.000000
    11  C    3.785944   2.864886   7.302434   2.793261   1.391059
    12  C    3.617718   4.005776   6.511804   2.769145   1.391913
    13  C    4.863667   4.785759   7.681547   4.072793   2.404372
    14  C    4.991632   3.890762   8.364622   4.085290   2.399129
    15  C    5.437955   4.739120   8.532080   4.592518   2.772293
    16  O    2.713875   3.096315   6.039813   1.472019   2.663246
    17  O    2.684331   4.333581   5.279401   1.478215   2.612176
    18  H    3.824773   2.556061   7.398951   2.902605   2.135966
    19  H    3.556365   4.537331   5.994537   2.871144   2.144880
    20  H    5.806486   4.357095   9.212856   4.939821   3.383031
    21  H    5.610263   5.728455   8.087610   4.919109   3.388312
    22  C    4.328804   4.882221   2.805300   6.135965   6.829838
    23  C    3.844821   2.812188   4.886310   5.269847   5.465562
    24  H    6.481433   5.658283   9.483731   5.677671   3.857590
    25  H    4.855721   5.105777   3.572925   6.624136   7.382362
    26  H    4.847181   5.127879   3.562869   6.615220   7.040805
    27  H    4.777835   5.727197   2.300169   6.573561   7.404603
    28  H    4.497434   3.559391   5.124707   5.957826   6.353320
    29  H    3.994490   2.306816   5.730070   5.110126   5.075975
    30  H    4.497956   3.588274   5.122892   5.962308   5.964873
    31  C    2.583004   4.954858   2.774853   3.253677   4.659249
    32  H    3.423806   5.746564   2.230516   4.317966   5.701762
    33  H    2.978462   5.289075   3.445824   3.300403   4.414034
    34  H    2.885859   5.149261   3.618359   3.098274   4.735721
                   11         12         13         14         15
    11  C    0.000000
    12  C    2.426196   0.000000
    13  C    2.797494   1.394680   0.000000
    14  C    1.393104   2.790865   2.417218   0.000000
    15  C    2.418925   2.415316   1.394482   1.395692   0.000000
    16  O    3.002987   3.895719   5.030813   4.372970   5.222403
    17  O    3.828819   2.938095   4.290700   4.935324   5.124312
    18  H    1.080620   3.393989   3.877587   2.168159   3.409637
    19  H    3.400001   1.082861   2.162712   3.873348   3.403582
    20  H    2.147518   3.875707   3.400332   1.084843   2.154461
    21  H    3.882373   2.150536   1.084879   3.401744   2.155280
    22  C    7.417317   7.227291   8.139261   8.316721   8.645170
    23  C    5.525420   6.162446   6.832693   6.276676   6.886309
    24  H    3.400958   3.398553   2.152605   2.153962   1.085303
    25  H    7.829590   7.935118   8.849284   8.764145   9.233599
    26  H    7.568952   7.315837   8.073018   8.312581   8.543491
    27  H    8.134000   7.706441   8.682588   9.070977   9.319695
    28  H    6.377764   7.140556   7.868006   7.195376   7.894711
    29  H    4.881782   5.880346   6.432193   5.548102   6.284789
    30  H    6.062989   6.458391   6.994179   6.643956   7.082641
    31  C    5.869014   4.870045   6.218421   7.025096   7.174914
    32  H    6.900839   5.853105   7.166728   8.042693   8.159034
    33  H    5.740473   4.332493   5.630291   6.768659   6.724053
    34  H    5.875358   5.123195   6.512537   7.114864   7.388423
                   16         17         18         19         20
    16  O    0.000000
    17  O    2.526285   0.000000
    18  H    2.605032   4.148206   0.000000
    19  H    4.201060   2.565189   4.274174   0.000000
    20  H    4.986387   5.888758   2.501119   4.958166   0.000000
    21  H    5.985776   4.905410   4.962415   2.492651   4.298397
    22  C    6.780581   6.822379   7.368930   7.070679   8.940938
    23  C    5.605135   6.457213   5.303236   6.460336   6.643869
    24  H    6.273784   6.169642   4.309232   4.302679   2.481383
    25  H    7.057702   7.435273   7.638234   7.868197   9.294132
    26  H    7.353667   7.330022   7.607520   7.202679   8.907423
    27  H    7.289244   7.056343   8.133355   7.405000   9.765832
    28  H    6.118545   7.149578   6.021925   7.414741   7.501327
    29  H    5.295833   6.428064   4.579784   6.351887   5.787813
    30  H    6.470934   7.058246   5.989338   6.719520   7.019749
    31  C    4.206858   2.797775   6.048877   4.227667   7.969900
    32  H    5.204253   3.866486   7.061571   5.154470   8.984061
    33  H    4.477336   2.493769   6.103038   3.521265   7.780157
    34  H    3.752451   2.539241   5.939654   4.562876   8.018801
                   21         22         23         24         25
    21  H    0.000000
    22  C    8.649443   0.000000
    23  C    7.560912   2.948262   0.000000
    24  H    2.482685   9.480751   7.644428   0.000000
    25  H    9.440135   1.096608   2.904050  10.071915   0.000000
    26  H    8.511438   1.096834   2.932621   9.289947   1.759710
    27  H    9.119857   1.089443   4.020790  10.175749   1.778233
    28  H    8.622924   2.934971   1.096837   8.663980   2.483265
    29  H    7.238376   4.020070   1.089731   7.001559   3.959888
    30  H    7.606097   2.913351   1.096669   7.746955   3.015738
    31  C    6.671034   5.044361   5.890429   8.204995   5.729251
    32  H    7.550289   4.872178   6.251408   9.170037   5.565558
    33  H    5.950662   5.684121   6.415866   7.712241   6.479236
    34  H    7.047553   5.786551   6.393594   8.448175   6.336635
                   26         27         28         29         30
    26  H    0.000000
    27  H    1.777381   0.000000
    28  H    3.077046   3.982724   0.000000
    29  H    3.981858   5.079926   1.775861   0.000000
    30  H    2.490091   3.970029   1.760751   1.778021   0.000000
    31  C    5.735759   4.917676   6.368351   6.328995   6.389992
    32  H    5.616936   4.517181   6.621170   6.839967   6.679098
    33  H    6.227423   5.564910   7.028144   6.789024   6.814024
    34  H    6.559871   5.706590   6.802230   6.728822   7.027945
                   31         32         33         34
    31  C    0.000000
    32  H    1.089155   0.000000
    33  H    1.092877   1.778725   0.000000
    34  H    1.091094   1.787372   1.744847   0.000000
 Symmetry turned off by external request.
 Stoichiometry    C15H14O4S(1-,2)
 Framework group  C1[X(C15H14O4S)]
 Deg. of freedom    96
 Full point group                 C1      NOp   1
 Rotational constants (GHZ):           0.5266486           0.2320255           0.1958853
 Leave Link  202 at Sat Feb 10 10:51:47 2024, MaxMem=  4026531840 cpu:               0.1 elap:               0.0
 (Enter /sysapps/ubuntu-applications/gaussian/Gaussian/AVX2/g16/l301.exe)
 Standard basis: 6-311++G(d,p) (5D, 7F)
 Ernie: Thresh=  0.10000D-02 Tol=  0.10000D-05 Strict=F.
   546 basis functions,   860 primitive gaussians,   566 cartesian basis functions
    77 alpha electrons       76 beta electrons
       nuclear repulsion energy      1724.7752774308 Hartrees.
 IExCor=  402 DFT=T Ex+Corr=B3LYP ExCW=0 ScaHFX=  0.200000
 ScaDFX=  0.800000  0.720000  1.000000  0.810000 ScalE2=  1.000000  1.000000
 IRadAn=      5 IRanWt=     -1 IRanGd=            0 ICorTp=0 IEmpDi=  4
 NAtoms=   34 NActive=   34 NUniq=   34 SFac= 1.00D+00 NAtFMM=   60 NAOKFM=F Big=F
 Integral buffers will be    131072 words long.
 Raffenetti 2 integral format.
 Two-electron integral symmetry is turned off.
 ------------------------------------------------------------------------------
 Polarizable Continuum Model (PCM)
 =================================
 Model                : PCM.
 Atomic radii         : UFF (Universal Force Field).
 Polarization charges : Total charges.
 Charge compensation  : None.
 Solution method      : On-the-fly selection.
 Cavity type          : Scaled VdW (van der Waals Surface) (Alpha=1.100).
 Cavity algorithm     : GePol (No added spheres)
                        Default sphere list used, NSphG=   34.
                        Lebedev-Laikov grids with approx.  5.0 points / Ang**2.
                        Smoothing algorithm: York/Karplus (Gamma=1.0000).
                        Polarization charges: spherical gaussians, with
                                              point-specific exponents (IZeta= 3).
                        Self-potential: point-specific (ISelfS= 7).
                        Self-field    : sphere-specific E.n sum rule (ISelfD= 2).
 1st derivatives      : Analytical E(r).r(x)/FMM algorithm (CHGder, D1EAlg=3).
                        Cavity 1st derivative terms included.
 Solvent              : n,n-DiMethylFormamide, Eps=  37.219000 Eps(inf)=   2.046330
 ------------------------------------------------------------------------------
 GePol: Number of generator spheres                  =      34
 GePol: Total number of spheres                      =      34
 GePol: Number of exposed spheres                    =      34 (100.00%)
 GePol: Number of points                             =    2587
 GePol: Average weight of points                     =       0.13
 GePol: Minimum weight of points                     =   0.36D-10
 GePol: Maximum weight of points                     =    0.20577
 GePol: Number of points with low weight             =     162
 GePol: Fraction of low-weight points (<1% of avg)   =       6.26%
 GePol: Cavity surface area                          =    337.038 Ang**2
 GePol: Cavity volume                                =    374.649 Ang**3
 Leave Link  301 at Sat Feb 10 10:51:47 2024, MaxMem=  4026531840 cpu:               1.0 elap:               0.1
 (Enter /sysapps/ubuntu-applications/gaussian/Gaussian/AVX2/g16/l302.exe)
 NPDir=0 NMtPBC=     1 NCelOv=     1 NCel=       1 NClECP=     1 NCelD=      1
         NCelK=      1 NCelE2=     1 NClLst=     1 CellRange=     0.0.
 One-electron integrals computed using PRISM.
 NBasis=   546 RedAO= T EigKep=  1.51D-06  NBF=   546
 NBsUse=   541 1.00D-06 EigRej=  7.28D-07 NBFU=   541
 Precomputing XC quadrature grid using
 IXCGrd= 4 IRadAn=           5 IRanWt=          -1 IRanGd=           0 AccXCQ= 0.00D+00.
 Generated NRdTot=       0 NPtTot=           0 NUsed=           0 NTot=          32
 NSgBfM=   564   564   564   564   564 MxSgAt=    34 MxSgA2=    34.
 Leave Link  302 at Sat Feb 10 10:51:48 2024, MaxMem=  4026531840 cpu:               5.0 elap:               0.7
 (Enter /sysapps/ubuntu-applications/gaussian/Gaussian/AVX2/g16/l303.exe)
 DipDrv:  MaxL=1.
 Leave Link  303 at Sat Feb 10 10:51:48 2024, MaxMem=  4026531840 cpu:               0.9 elap:               0.2
 (Enter /sysapps/ubuntu-applications/gaussian/Gaussian/AVX2/g16/l401.exe)
 ExpMin= 3.60D-02 ExpMax= 9.34D+04 ExpMxC= 3.17D+03 IAcc=3 IRadAn=         5 AccDes= 0.00D+00
 Harris functional with IExCor=  402 and IRadAn=       5 diagonalized for initial guess.
 HarFok:  IExCor=  402 AccDes= 0.00D+00 IRadAn=         5 IDoV= 1 UseB2=F ITyADJ=14
 ICtDFT=  3500011 ScaDFX=  1.000000  1.000000  1.000000  1.000000
 FoFCou: FMM=F IPFlag=           0 FMFlag=      100000 FMFlg1=           0
         NFxFlg=           0 DoJE=T BraDBF=F KetDBF=T FulRan=T
         wScrn=  0.000000 ICntrl=       500 IOpCl=  0 I1Cent=   200000004 NGrid=           0
         NMat0=    1 NMatS0=      1 NMatT0=    0 NMatD0=    1 NMtDS0=    0 NMtDT0=    0
 Symmetry not used in FoFCou.
 Harris En= -1279.63610944300    
 JPrj=0 DoOrth=F DoCkMO=F.
 Initial guess <Sx>= 0.0000 <Sy>= 0.0000 <Sz>= 0.5000 <S**2>= 0.7500 S= 0.5000
 Leave Link  401 at Sat Feb 10 10:51:51 2024, MaxMem=  4026531840 cpu:              22.2 elap:               3.0
 (Enter /sysapps/ubuntu-applications/gaussian/Gaussian/AVX2/g16/l502.exe)
 Two-electron integral symmetry not used.
 UHF open shell SCF:
 Using DIIS extrapolation, IDIIS=  1040.
 NGot=  4026531840 LenX=  4025882544 LenY=  4025561622
 Requested convergence on RMS density matrix=1.00D-08 within 128 cycles.
 Requested convergence on MAX density matrix=1.00D-06.
 Requested convergence on             energy=1.00D-06.
 No special actions if energy rises.
 Fock matrices will be formed incrementally for  20 cycles.

 Cycle   1  Pass 1  IDiag  1:
 FoFJK:  IHMeth= 1 ICntrl=       0 DoSepK=F KAlg= 0 I1Cent=           0 FoldK=F
 IRaf= 840000000 NMat=       1 IRICut=       1 DoRegI=T DoRafI=F ISym2E= 0 IDoP0=0 IntGTp=1.
 FoFCou: FMM=F IPFlag=           0 FMFlag=      100000 FMFlg1=           0
         NFxFlg=           0 DoJE=F BraDBF=F KetDBF=F FulRan=T
         wScrn=  0.000000 ICntrl=         0 IOpCl=  1 I1Cent=           0 NGrid=           0
         NMat0=    1 NMatS0=      1 NMatT0=    0 NMatD0=    1 NMtDS0=    0 NMtDT0=    0
 Symmetry not used in FoFCou.
 Inv3:  Mode=1 IEnd=    20077707.
 Iteration    1 A*A^-1 deviation from unit magnitude is 3.55D-15 for   1656.
 Iteration    1 A*A^-1 deviation from orthogonality  is 2.36D-15 for   2552   1261.
 Iteration    1 A^-1*A deviation from unit magnitude is 3.11D-15 for   1269.
 Iteration    1 A^-1*A deviation from orthogonality  is 2.42D-15 for   2129    233.
 E= -1278.67445307873    
 DIIS: error= 2.76D-02 at cycle   1 NSaved=   1.
 NSaved= 1 IEnMin= 1 EnMin= -1278.67445307873     IErMin= 1 ErrMin= 2.76D-02
 ErrMax= 2.76D-02  0.00D+00 EMaxC= 1.00D-01 BMatC= 3.98D+00 BMatP= 3.98D+00
 IDIUse=3 WtCom= 7.24D-01 WtEn= 2.76D-01
 Coeff-Com:  0.100D+01
 Coeff-En:   0.100D+01
 Coeff:      0.100D+01
 Gap=     0.110 Goal=   None    Shift=    0.000
 Gap=     0.162 Goal=   None    Shift=    0.000
 GapD=    0.110 DampG=1.000 DampE=0.500 DampFc=0.5000 IDamp=-1.
 Damping current iteration by 5.00D-01
 RMSDP=3.58D-01 MaxDP=4.91D+01              OVMax= 3.49D-01

 Cycle   2  Pass 1  IDiag  1:
 RMSU=  9.04D-02    CP:  2.42D+00
 E= -1278.81854811123     Delta-E=       -0.144095032500 Rises=F Damp=T
 DIIS: error= 1.34D-02 at cycle   2 NSaved=   2.
 NSaved= 2 IEnMin= 2 EnMin= -1278.81854811123     IErMin= 2 ErrMin= 1.34D-02
 ErrMax= 1.34D-02  0.00D+00 EMaxC= 1.00D-01 BMatC= 7.16D-01 BMatP= 3.98D+00
 IDIUse=3 WtCom= 8.66D-01 WtEn= 1.34D-01
 Coeff-Com:  0.247D+00 0.753D+00
 Coeff-En:   0.409D+00 0.591D+00
 Coeff:      0.269D+00 0.731D+00
 Gap=     0.165 Goal=   None    Shift=    0.000
 Gap=     0.202 Goal=   None    Shift=    0.000
 RMSDP=1.48D-01 MaxDP=2.07D+01 DE=-1.44D-01 OVMax= 3.22D-01

 Cycle   3  Pass 1  IDiag  1:
 RMSU=  1.04D-02    CP:  1.21D+00  2.46D-01
 E= -1279.34394332335     Delta-E=       -0.525395212118 Rises=F Damp=F
 DIIS: error= 1.14D-02 at cycle   3 NSaved=   3.
 NSaved= 3 IEnMin= 3 EnMin= -1279.34394332335     IErMin= 3 ErrMin= 1.14D-02
 ErrMax= 1.14D-02  0.00D+00 EMaxC= 1.00D-01 BMatC= 4.59D-01 BMatP= 7.16D-01
 IDIUse=3 WtCom= 8.86D-01 WtEn= 1.14D-01
 Coeff-Com:  0.763D-01 0.447D+00 0.476D+00
 Coeff-En:   0.000D+00 0.000D+00 0.100D+01
 Coeff:      0.676D-01 0.396D+00 0.536D+00
 Gap=     0.123 Goal=   None    Shift=    0.000
 Gap=     0.155 Goal=   None    Shift=    0.000
 RMSDP=3.94D-02 MaxDP=5.05D+00 DE=-5.25D-01 OVMax= 1.22D-01

 Cycle   4  Pass 1  IDiag  1:
 RMSU=  9.80D-03    CP:  1.53D+00  4.24D-01  1.04D+00
 E= -1279.43647098390     Delta-E=       -0.092527660555 Rises=F Damp=F
 DIIS: error= 5.34D-03 at cycle   4 NSaved=   4.
 NSaved= 4 IEnMin= 4 EnMin= -1279.43647098390     IErMin= 4 ErrMin= 5.34D-03
 ErrMax= 5.34D-03  0.00D+00 EMaxC= 1.00D-01 BMatC= 8.02D-02 BMatP= 4.59D-01
 IDIUse=3 WtCom= 9.47D-01 WtEn= 5.34D-02
 Coeff-Com:  0.848D-02 0.988D-01 0.315D+00 0.578D+00
 Coeff-En:   0.000D+00 0.000D+00 0.165D+00 0.835D+00
 Coeff:      0.802D-02 0.935D-01 0.307D+00 0.592D+00
 Gap=     0.123 Goal=   None    Shift=    0.000
 Gap=     0.144 Goal=   None    Shift=    0.000
 RMSDP=5.52D-03 MaxDP=5.97D-01 DE=-9.25D-02 OVMax= 4.72D-02

 Cycle   5  Pass 1  IDiag  1:
 RMSU=  1.59D-03    CP:  1.49D+00  4.10D-01  1.07D+00  7.26D-01
 E= -1279.45394234119     Delta-E=       -0.017471357288 Rises=F Damp=F
 DIIS: error= 2.50D-03 at cycle   5 NSaved=   5.
 NSaved= 5 IEnMin= 5 EnMin= -1279.45394234119     IErMin= 5 ErrMin= 2.50D-03
 ErrMax= 2.50D-03  0.00D+00 EMaxC= 1.00D-01 BMatC= 6.39D-03 BMatP= 8.02D-02
 IDIUse=3 WtCom= 9.75D-01 WtEn= 2.50D-02
 Coeff-Com: -0.257D-02 0.169D-01 0.133D+00 0.338D+00 0.514D+00
 Coeff-En:   0.000D+00 0.000D+00 0.000D+00 0.000D+00 0.100D+01
 Coeff:     -0.250D-02 0.165D-01 0.130D+00 0.330D+00 0.526D+00
 Gap=     0.121 Goal=   None    Shift=    0.000
 Gap=     0.137 Goal=   None    Shift=    0.000
 RMSDP=3.76D-03 MaxDP=5.23D-01 DE=-1.75D-02 OVMax= 2.12D-02

 Cycle   6  Pass 1  IDiag  1:
 RMSU=  4.15D-04    CP:  1.46D+00  3.94D-01  1.06D+00  7.04D-01  8.03D-01
 E= -1279.45512129122     Delta-E=       -0.001178950029 Rises=F Damp=F
 DIIS: error= 1.23D-03 at cycle   6 NSaved=   6.
 NSaved= 6 IEnMin= 6 EnMin= -1279.45512129122     IErMin= 6 ErrMin= 1.23D-03
 ErrMax= 1.23D-03  0.00D+00 EMaxC= 1.00D-01 BMatC= 1.18D-03 BMatP= 6.39D-03
 IDIUse=3 WtCom= 9.88D-01 WtEn= 1.23D-02
 Coeff-Com: -0.209D-02-0.840D-03 0.451D-01 0.134D+00 0.338D+00 0.486D+00
 Coeff-En:   0.000D+00 0.000D+00 0.000D+00 0.000D+00 0.128D+00 0.872D+00
 Coeff:     -0.206D-02-0.830D-03 0.445D-01 0.132D+00 0.336D+00 0.491D+00
 Gap=     0.122 Goal=   None    Shift=    0.000
 Gap=     0.136 Goal=   None    Shift=    0.000
 RMSDP=4.02D-04 MaxDP=4.95D-02 DE=-1.18D-03 OVMax= 7.36D-03

 Cycle   7  Pass 1  IDiag  1:
 RMSU=  2.96D-04    CP:  1.46D+00  3.95D-01  1.06D+00  7.26D-01  7.75D-01
                    CP:  8.00D-01
 E= -1279.45535352229     Delta-E=       -0.000232231070 Rises=F Damp=F
 DIIS: error= 2.44D-04 at cycle   7 NSaved=   7.
 NSaved= 7 IEnMin= 7 EnMin= -1279.45535352229     IErMin= 7 ErrMin= 2.44D-04
 ErrMax= 2.44D-04  0.00D+00 EMaxC= 1.00D-01 BMatC= 9.98D-05 BMatP= 1.18D-03
 IDIUse=3 WtCom= 9.98D-01 WtEn= 2.44D-03
 Coeff-Com: -0.341D-03-0.342D-02 0.462D-02 0.195D-01 0.107D+00 0.261D+00
 Coeff-Com:  0.612D+00
 Coeff-En:   0.000D+00 0.000D+00 0.000D+00 0.000D+00 0.000D+00 0.000D+00
 Coeff-En:   0.100D+01
 Coeff:     -0.340D-03-0.341D-02 0.461D-02 0.195D-01 0.107D+00 0.260D+00
 Coeff:      0.613D+00
 Gap=     0.122 Goal=   None    Shift=    0.000
 Gap=     0.136 Goal=   None    Shift=    0.000
 RMSDP=2.10D-04 MaxDP=3.19D-02 DE=-2.32D-04 OVMax= 3.17D-03

 Cycle   8  Pass 1  IDiag  1:
 RMSU=  7.74D-05    CP:  1.46D+00  3.96D-01  1.06D+00  7.25D-01  7.84D-01
                    CP:  7.92D-01  8.66D-01
 E= -1279.45537817245     Delta-E=       -0.000024650163 Rises=F Damp=F
 DIIS: error= 1.02D-04 at cycle   8 NSaved=   8.
 NSaved= 8 IEnMin= 8 EnMin= -1279.45537817245     IErMin= 8 ErrMin= 1.02D-04
 ErrMax= 1.02D-04  0.00D+00 EMaxC= 1.00D-01 BMatC= 2.09D-05 BMatP= 9.98D-05
 IDIUse=3 WtCom= 9.99D-01 WtEn= 1.02D-03
 Coeff-Com:  0.356D-03-0.162D-02-0.539D-02-0.153D-01-0.527D-02 0.352D-01
 Coeff-Com:  0.323D+00 0.669D+00
 Coeff-En:   0.000D+00 0.000D+00 0.000D+00 0.000D+00 0.000D+00 0.000D+00
 Coeff-En:   0.000D+00 0.100D+01
 Coeff:      0.356D-03-0.162D-02-0.539D-02-0.153D-01-0.527D-02 0.351D-01
 Coeff:      0.323D+00 0.670D+00
 Gap=     0.122 Goal=   None    Shift=    0.000
 Gap=     0.136 Goal=   None    Shift=    0.000
 RMSDP=1.41D-04 MaxDP=1.73D-02 DE=-2.47D-05 OVMax= 1.28D-03

 Cycle   9  Pass 1  IDiag  1:
 RMSU=  4.74D-05    CP:  1.46D+00  3.95D-01  1.06D+00  7.23D-01  8.07D-01
                    CP:  7.83D-01  8.48D-01  7.38D-01
 E= -1279.45538429785     Delta-E=       -0.000006125398 Rises=F Damp=F
 DIIS: error= 7.72D-05 at cycle   9 NSaved=   9.
 NSaved= 9 IEnMin= 9 EnMin= -1279.45538429785     IErMin= 9 ErrMin= 7.72D-05
 ErrMax= 7.72D-05  0.00D+00 EMaxC= 1.00D-01 BMatC= 7.43D-06 BMatP= 2.09D-05
 IDIUse=1 WtCom= 1.00D+00 WtEn= 0.00D+00
 Coeff-Com:  0.357D-03 0.730D-04-0.490D-02-0.173D-01-0.409D-01-0.800D-01
 Coeff-Com: -0.956D-02 0.441D+00 0.711D+00
 Coeff:      0.357D-03 0.730D-04-0.490D-02-0.173D-01-0.409D-01-0.800D-01
 Coeff:     -0.956D-02 0.441D+00 0.711D+00
 Gap=     0.122 Goal=   None    Shift=    0.000
 Gap=     0.136 Goal=   None    Shift=    0.000
 RMSDP=4.20D-05 MaxDP=3.93D-03 DE=-6.13D-06 OVMax= 1.10D-03

 Cycle  10  Pass 1  IDiag  1:
 RMSU=  1.92D-05    CP:  1.46D+00  3.95D-01  1.06D+00  7.24D-01  8.05D-01
                    CP:  7.93D-01  9.18D-01  8.82D-01  8.43D-01
 E= -1279.45538695971     Delta-E=       -0.000002661857 Rises=F Damp=F
 DIIS: error= 2.37D-05 at cycle  10 NSaved=  10.
 NSaved=10 IEnMin=10 EnMin= -1279.45538695971     IErMin=10 ErrMin= 2.37D-05
 ErrMax= 2.37D-05  0.00D+00 EMaxC= 1.00D-01 BMatC= 8.66D-07 BMatP= 7.43D-06
 IDIUse=1 WtCom= 1.00D+00 WtEn= 0.00D+00
 Coeff-Com:  0.745D-04 0.283D-03-0.117D-02-0.515D-02-0.175D-01-0.449D-01
 Coeff-Com: -0.527D-01 0.861D-01 0.326D+00 0.709D+00
 Coeff:      0.745D-04 0.283D-03-0.117D-02-0.515D-02-0.175D-01-0.449D-01
 Coeff:     -0.527D-01 0.861D-01 0.326D+00 0.709D+00
 Gap=     0.122 Goal=   None    Shift=    0.000
 Gap=     0.136 Goal=   None    Shift=    0.000
 RMSDP=4.79D-05 MaxDP=6.09D-03 DE=-2.66D-06 OVMax= 4.51D-04

 Cycle  11  Pass 1  IDiag  1:
 RMSU=  8.28D-06    CP:  1.46D+00  3.95D-01  1.06D+00  7.23D-01  8.03D-01
                    CP:  7.89D-01  9.28D-01  8.93D-01  9.12D-01  8.10D-01
 E= -1279.45538722632     Delta-E=       -0.000000266609 Rises=F Damp=F
 DIIS: error= 1.88D-05 at cycle  11 NSaved=  11.
 NSaved=11 IEnMin=11 EnMin= -1279.45538722632     IErMin=11 ErrMin= 1.88D-05
 ErrMax= 1.88D-05  0.00D+00 EMaxC= 1.00D-01 BMatC= 4.23D-07 BMatP= 8.66D-07
 IDIUse=1 WtCom= 1.00D+00 WtEn= 0.00D+00
 Coeff-Com: -0.256D-04 0.191D-03 0.253D-03 0.195D-03-0.344D-02-0.144D-01
 Coeff-Com: -0.330D-01-0.399D-01 0.597D-01 0.485D+00 0.545D+00
 Coeff:     -0.256D-04 0.191D-03 0.253D-03 0.195D-03-0.344D-02-0.144D-01
 Coeff:     -0.330D-01-0.399D-01 0.597D-01 0.485D+00 0.545D+00
 Gap=     0.122 Goal=   None    Shift=    0.000
 Gap=     0.136 Goal=   None    Shift=    0.000
 RMSDP=2.08D-05 MaxDP=2.77D-03 DE=-2.67D-07 OVMax= 2.15D-04

 Cycle  12  Pass 1  IDiag  1:
 RMSU=  3.70D-06    CP:  1.46D+00  3.95D-01  1.06D+00  7.23D-01  8.03D-01
                    CP:  7.87D-01  9.25D-01  9.13D-01  9.04D-01  9.79D-01
                    CP:  7.57D-01
 E= -1279.45538734708     Delta-E=       -0.000000120763 Rises=F Damp=F
 DIIS: error= 5.04D-06 at cycle  12 NSaved=  12.
 NSaved=12 IEnMin=12 EnMin= -1279.45538734708     IErMin=12 ErrMin= 5.04D-06
 ErrMax= 5.04D-06  0.00D+00 EMaxC= 1.00D-01 BMatC= 3.04D-08 BMatP= 4.23D-07
 IDIUse=1 WtCom= 1.00D+00 WtEn= 0.00D+00
 Coeff-Com: -0.185D-04 0.548D-04 0.246D-03 0.638D-03 0.311D-03-0.194D-02
 Coeff-Com: -0.855D-02-0.297D-01-0.722D-02 0.149D+00 0.263D+00 0.634D+00
 Coeff:     -0.185D-04 0.548D-04 0.246D-03 0.638D-03 0.311D-03-0.194D-02
 Coeff:     -0.855D-02-0.297D-01-0.722D-02 0.149D+00 0.263D+00 0.634D+00
 Gap=     0.122 Goal=   None    Shift=    0.000
 Gap=     0.136 Goal=   None    Shift=    0.000
 RMSDP=3.37D-06 MaxDP=5.48D-04 DE=-1.21D-07 OVMax= 6.07D-05

 Cycle  13  Pass 1  IDiag  1:
 RMSU=  1.24D-06    CP:  1.46D+00  3.95D-01  1.06D+00  7.23D-01  8.03D-01
                    CP:  7.87D-01  9.27D-01  9.04D-01  9.09D-01  9.80D-01
                    CP:  8.21D-01  9.25D-01
 E= -1279.45538735700     Delta-E=       -0.000000009923 Rises=F Damp=F
 DIIS: error= 2.58D-06 at cycle  13 NSaved=  13.
 NSaved=13 IEnMin=13 EnMin= -1279.45538735700     IErMin=13 ErrMin= 2.58D-06
 ErrMax= 2.58D-06  0.00D+00 EMaxC= 1.00D-01 BMatC= 8.74D-09 BMatP= 3.04D-08
 IDIUse=1 WtCom= 1.00D+00 WtEn= 0.00D+00
 Coeff-Com: -0.292D-05-0.220D-04 0.900D-04 0.348D-03 0.126D-02 0.274D-02
 Coeff-Com:  0.402D-02-0.761D-02-0.190D-01-0.473D-01 0.192D-02 0.356D+00
 Coeff-Com:  0.707D+00
 Coeff:     -0.292D-05-0.220D-04 0.900D-04 0.348D-03 0.126D-02 0.274D-02
 Coeff:      0.402D-02-0.761D-02-0.190D-01-0.473D-01 0.192D-02 0.356D+00
 Coeff:      0.707D+00
 Gap=     0.122 Goal=   None    Shift=    0.000
 Gap=     0.136 Goal=   None    Shift=    0.000
 RMSDP=1.52D-06 MaxDP=1.88D-04 DE=-9.92D-09 OVMax= 4.95D-05

 Cycle  14  Pass 1  IDiag  1:
 RMSU=  9.11D-07    CP:  1.46D+00  3.95D-01  1.06D+00  7.23D-01  8.03D-01
                    CP:  7.87D-01  9.28D-01  8.99D-01  9.10D-01  1.01D+00
                    CP:  7.81D-01  9.95D-01  1.43D+00
 E= -1279.45538736067     Delta-E=       -0.000000003661 Rises=F Damp=F
 DIIS: error= 1.48D-06 at cycle  14 NSaved=  14.
 NSaved=14 IEnMin=14 EnMin= -1279.45538736067     IErMin=14 ErrMin= 1.48D-06
 ErrMax= 1.48D-06  0.00D+00 EMaxC= 1.00D-01 BMatC= 1.67D-09 BMatP= 8.74D-09
 IDIUse=1 WtCom= 1.00D+00 WtEn= 0.00D+00
 Coeff-Com:  0.299D-05-0.209D-04-0.110D-04 0.122D-04 0.550D-03 0.155D-02
 Coeff-Com:  0.370D-02 0.226D-02-0.509D-02-0.537D-01-0.515D-01 0.282D-01
 Coeff-Com:  0.319D+00 0.755D+00
 Coeff:      0.299D-05-0.209D-04-0.110D-04 0.122D-04 0.550D-03 0.155D-02
 Coeff:      0.370D-02 0.226D-02-0.509D-02-0.537D-01-0.515D-01 0.282D-01
 Coeff:      0.319D+00 0.755D+00
 Gap=     0.122 Goal=   None    Shift=    0.000
 Gap=     0.136 Goal=   None    Shift=    0.000
 RMSDP=1.08D-06 MaxDP=1.28D-04 DE=-3.66D-09 OVMax= 2.24D-05

 Cycle  15  Pass 1  IDiag  1:
 RMSU=  3.79D-07    CP:  1.46D+00  3.95D-01  1.06D+00  7.23D-01  8.03D-01
                    CP:  7.86D-01  9.28D-01  8.97D-01  9.12D-01  1.00D+00
                    CP:  8.28D-01  1.04D+00  1.51D+00  8.56D-01
 E= -1279.45538736155     Delta-E=       -0.000000000884 Rises=F Damp=F
 DIIS: error= 6.90D-07 at cycle  15 NSaved=  15.
 NSaved=15 IEnMin=15 EnMin= -1279.45538736155     IErMin=15 ErrMin= 6.90D-07
 ErrMax= 6.90D-07  0.00D+00 EMaxC= 1.00D-01 BMatC= 6.15D-10 BMatP= 1.67D-09
 IDIUse=1 WtCom= 1.00D+00 WtEn= 0.00D+00
 Coeff-Com:  0.265D-05-0.462D-05-0.362D-04-0.111D-03-0.595D-04 0.283D-04
 Coeff-Com:  0.105D-02 0.370D-02 0.370D-02-0.197D-01-0.311D-01-0.103D+00
 Coeff-Com: -0.311D-01 0.465D+00 0.712D+00
 Coeff:      0.265D-05-0.462D-05-0.362D-04-0.111D-03-0.595D-04 0.283D-04
 Coeff:      0.105D-02 0.370D-02 0.370D-02-0.197D-01-0.311D-01-0.103D+00
 Coeff:     -0.311D-01 0.465D+00 0.712D+00
 Gap=     0.122 Goal=   None    Shift=    0.000
 Gap=     0.136 Goal=   None    Shift=    0.000
 RMSDP=6.01D-07 MaxDP=5.90D-05 DE=-8.84D-10 OVMax= 1.73D-05

 Cycle  16  Pass 1  IDiag  1:
 RMSU=  2.83D-07    CP:  1.46D+00  3.95D-01  1.06D+00  7.23D-01  8.03D-01
                    CP:  7.86D-01  9.29D-01  8.98D-01  9.07D-01  1.00D+00
                    CP:  8.19D-01  1.09D+00  1.62D+00  1.02D+00  9.75D-01
 E= -1279.45538736189     Delta-E=       -0.000000000344 Rises=F Damp=F
 DIIS: error= 2.86D-07 at cycle  16 NSaved=  16.
 NSaved=16 IEnMin=16 EnMin= -1279.45538736189     IErMin=16 ErrMin= 2.86D-07
 ErrMax= 2.86D-07  0.00D+00 EMaxC= 1.00D-01 BMatC= 8.84D-11 BMatP= 6.15D-10
 IDIUse=1 WtCom= 1.00D+00 WtEn= 0.00D+00
 Coeff-Com:  0.353D-06 0.147D-05-0.155D-04-0.556D-04-0.124D-03-0.260D-03
 Coeff-Com: -0.745D-04 0.119D-02 0.252D-02-0.208D-03-0.360D-02-0.521D-01
 Coeff-Com: -0.654D-01 0.703D-01 0.303D+00 0.744D+00
 Coeff:      0.353D-06 0.147D-05-0.155D-04-0.556D-04-0.124D-03-0.260D-03
 Coeff:     -0.745D-04 0.119D-02 0.252D-02-0.208D-03-0.360D-02-0.521D-01
 Coeff:     -0.654D-01 0.703D-01 0.303D+00 0.744D+00
 Gap=     0.122 Goal=   None    Shift=    0.000
 Gap=     0.136 Goal=   None    Shift=    0.000
 RMSDP=5.93D-07 MaxDP=5.48D-05 DE=-3.44D-10 OVMax= 5.85D-06

 Cycle  17  Pass 1  IDiag  1:
 RMSU=  1.41D-07    CP:  1.46D+00  3.95D-01  1.06D+00  7.23D-01  8.03D-01
                    CP:  7.86D-01  9.29D-01  8.97D-01  9.13D-01  1.00D+00
                    CP:  8.28D-01  1.07D+00  1.68D+00  1.05D+00  1.18D+00
                    CP:  2.80D-01
 E= -1279.45538736192     Delta-E=       -0.000000000028 Rises=F Damp=F
 DIIS: error= 1.11D-07 at cycle  17 NSaved=  17.
 NSaved=17 IEnMin=17 EnMin= -1279.45538736192     IErMin=17 ErrMin= 1.11D-07
 ErrMax= 1.11D-07  0.00D+00 EMaxC= 1.00D-01 BMatC= 4.52D-11 BMatP= 8.84D-11
 IDIUse=1 WtCom= 1.00D+00 WtEn= 0.00D+00
 Coeff-Com: -0.704D-06 0.250D-05 0.925D-06-0.281D-05-0.650D-04-0.188D-03
 Coeff-Com: -0.341D-03-0.378D-03 0.610D-03 0.596D-02 0.781D-02-0.540D-02
 Coeff-Com: -0.359D-01-0.977D-01-0.123D-01 0.518D+00 0.620D+00
 Coeff:     -0.704D-06 0.250D-05 0.925D-06-0.281D-05-0.650D-04-0.188D-03
 Coeff:     -0.341D-03-0.378D-03 0.610D-03 0.596D-02 0.781D-02-0.540D-02
 Coeff:     -0.359D-01-0.977D-01-0.123D-01 0.518D+00 0.620D+00
 Gap=     0.122 Goal=   None    Shift=    0.000
 Gap=     0.136 Goal=   None    Shift=    0.000
 RMSDP=3.15D-07 MaxDP=2.84D-05 DE=-2.77D-11 OVMax= 3.34D-06

 Cycle  18  Pass 1  IDiag  1:
 RMSU=  7.05D-08    CP:  1.46D+00  3.95D-01  1.06D+00  7.23D-01  8.03D-01
                    CP:  7.86D-01  9.29D-01  8.97D-01  9.10D-01  1.01D+00
                    CP:  8.20D-01  1.09D+00  1.70D+00  1.11D+00  1.12D+00
                    CP:  8.10D-01  5.04D-01
 E= -1279.45538736200     Delta-E=       -0.000000000081 Rises=F Damp=F
 DIIS: error= 4.66D-08 at cycle  18 NSaved=  18.
 NSaved=18 IEnMin=18 EnMin= -1279.45538736200     IErMin=18 ErrMin= 4.66D-08
 ErrMax= 4.66D-08  0.00D+00 EMaxC= 1.00D-01 BMatC= 6.02D-12 BMatP= 4.52D-11
 IDIUse=1 WtCom= 1.00D+00 WtEn= 0.00D+00
 Coeff-Com: -0.365D-06 0.100D-05 0.303D-05 0.755D-05-0.118D-04-0.540D-04
 Coeff-Com: -0.150D-03-0.408D-03-0.130D-03 0.296D-02 0.459D-02 0.648D-02
 Coeff-Com: -0.576D-02-0.608D-01-0.628D-01 0.122D+00 0.320D+00 0.674D+00
 Coeff:     -0.365D-06 0.100D-05 0.303D-05 0.755D-05-0.118D-04-0.540D-04
 Coeff:     -0.150D-03-0.408D-03-0.130D-03 0.296D-02 0.459D-02 0.648D-02
 Coeff:     -0.576D-02-0.608D-01-0.628D-01 0.122D+00 0.320D+00 0.674D+00
 Gap=     0.122 Goal=   None    Shift=    0.000
 Gap=     0.136 Goal=   None    Shift=    0.000
 RMSDP=1.35D-07 MaxDP=1.30D-05 DE=-8.09D-11 OVMax= 1.26D-06

 Cycle  19  Pass 1  IDiag  1:
 RMSU=  2.06D-08    CP:  1.46D+00  3.95D-01  1.06D+00  7.23D-01  8.03D-01
                    CP:  7.86D-01  9.29D-01  8.97D-01  9.11D-01  1.00D+00
                    CP:  8.25D-01  1.08D+00  1.70D+00  1.09D+00  1.18D+00
                    CP:  6.96D-01  7.28D-01  6.72D-01
 E= -1279.45538736197     Delta-E=        0.000000000031 Rises=F Damp=F
 DIIS: error= 3.42D-08 at cycle  19 NSaved=  19.
 NSaved=19 IEnMin=18 EnMin= -1279.45538736200     IErMin=19 ErrMin= 3.42D-08
 ErrMax= 3.42D-08  0.00D+00 EMaxC= 1.00D-01 BMatC= 2.23D-12 BMatP= 6.02D-12
 IDIUse=1 WtCom= 1.00D+00 WtEn= 0.00D+00
 Coeff-Com: -0.102D-07-0.760D-07 0.176D-05 0.562D-05 0.104D-04 0.119D-04
 Coeff-Com: -0.746D-05-0.171D-03-0.250D-03 0.334D-03 0.832D-03 0.604D-02
 Coeff-Com:  0.612D-02-0.135D-01-0.401D-01-0.688D-01 0.356D-01 0.437D+00
 Coeff-Com:  0.637D+00
 Coeff:     -0.102D-07-0.760D-07 0.176D-05 0.562D-05 0.104D-04 0.119D-04
 Coeff:     -0.746D-05-0.171D-03-0.250D-03 0.334D-03 0.832D-03 0.604D-02
 Coeff:      0.612D-02-0.135D-01-0.401D-01-0.688D-01 0.356D-01 0.437D+00
 Coeff:      0.637D+00
 Gap=     0.122 Goal=   None    Shift=    0.000
 Gap=     0.136 Goal=   None    Shift=    0.000
 RMSDP=5.18D-08 MaxDP=5.20D-06 DE= 3.09D-11 OVMax= 8.96D-07

 Cycle  20  Pass 1  IDiag  1:
 RMSU=  8.84D-09    CP:  1.46D+00  3.95D-01  1.06D+00  7.23D-01  8.03D-01
                    CP:  7.86D-01  9.29D-01  8.97D-01  9.11D-01  1.00D+00
                    CP:  8.24D-01  1.08D+00  1.70D+00  1.10D+00  1.16D+00
                    CP:  7.66D-01  6.60D-01  9.07D-01  9.92D-01
 E= -1279.45538736196     Delta-E=        0.000000000013 Rises=F Damp=F
 DIIS: error= 1.35D-08 at cycle  20 NSaved=  20.
 NSaved=20 IEnMin=18 EnMin= -1279.45538736200     IErMin=20 ErrMin= 1.35D-08
 ErrMax= 1.35D-08  0.00D+00 EMaxC= 1.00D-01 BMatC= 3.00D-13 BMatP= 2.23D-12
 IDIUse=1 WtCom= 1.00D+00 WtEn= 0.00D+00
 Coeff-Com:  0.820D-07-0.256D-06 0.284D-06 0.114D-05 0.846D-05 0.151D-04
 Coeff-Com:  0.294D-04 0.104D-04-0.740D-04-0.479D-03-0.661D-03 0.110D-02
 Coeff-Com:  0.347D-02 0.734D-02-0.207D-02-0.499D-01-0.513D-01 0.425D-01
 Coeff-Com:  0.262D+00 0.788D+00
 Coeff:      0.820D-07-0.256D-06 0.284D-06 0.114D-05 0.846D-05 0.151D-04
 Coeff:      0.294D-04 0.104D-04-0.740D-04-0.479D-03-0.661D-03 0.110D-02
 Coeff:      0.347D-02 0.734D-02-0.207D-02-0.499D-01-0.513D-01 0.425D-01
 Coeff:      0.262D+00 0.788D+00
 Gap=     0.122 Goal=   None    Shift=    0.000
 Gap=     0.136 Goal=   None    Shift=    0.000
 RMSDP=1.44D-08 MaxDP=1.43D-06 DE= 1.27D-11 OVMax= 5.01D-07

 Cycle  21  Pass 1  IDiag  1:
 Restarting incremental Fock formation.
 E= -1279.45538736196     Delta-E=       -0.000000000001 Rises=F Damp=F
 DIIS: error= 7.99D-09 at cycle  21 NSaved=  20.
 NSaved=20 IEnMin=17 EnMin= -1279.45538736200     IErMin=20 ErrMin= 7.99D-09
 ErrMax= 7.99D-09  0.00D+00 EMaxC= 1.00D-01 BMatC= 1.02D-13 BMatP= 3.00D-13
 IDIUse=1 WtCom= 1.00D+00 WtEn= 0.00D+00
 Coeff-Com: -0.109D-06-0.550D-07-0.733D-07 0.264D-05 0.372D-05 0.112D-04
 Coeff-Com:  0.222D-04 0.692D-05-0.199D-03-0.346D-03-0.594D-03 0.138D-03
 Coeff-Com:  0.499D-02 0.727D-02-0.618D-02-0.342D-01-0.894D-01-0.329D-01
 Coeff-Com:  0.415D+00 0.736D+00
 Coeff:     -0.109D-06-0.550D-07-0.733D-07 0.264D-05 0.372D-05 0.112D-04
 Coeff:      0.222D-04 0.692D-05-0.199D-03-0.346D-03-0.594D-03 0.138D-03
 Coeff:      0.499D-02 0.727D-02-0.618D-02-0.342D-01-0.894D-01-0.329D-01
 Coeff:      0.415D+00 0.736D+00
 Gap=     0.122 Goal=   None    Shift=    0.000
 Gap=     0.136 Goal=   None    Shift=    0.000
 RMSDP=2.37D-08 MaxDP=3.78D-06 DE=-1.36D-12 OVMax= 2.78D-07

 Cycle  22  Pass 1  IDiag  1:
 RMSU=  2.17D-08    CP:  1.00D+00
 E= -1279.45538736196     Delta-E=        0.000000000004 Rises=F Damp=F
 DIIS: error= 4.47D-09 at cycle  22 NSaved=  20.
 NSaved=20 IEnMin=16 EnMin= -1279.45538736200     IErMin=20 ErrMin= 4.47D-09
 ErrMax= 4.47D-09  0.00D+00 EMaxC= 1.00D-01 BMatC= 2.30D-14 BMatP= 1.02D-13
 IDIUse=1 WtCom= 1.00D+00 WtEn= 0.00D+00
 Coeff-Com: -0.343D-06-0.101D-05-0.143D-05-0.179D-05 0.531D-05 0.281D-04
 Coeff-Com:  0.293D-04-0.702D-04-0.134D-03-0.807D-03-0.596D-03 0.170D-02
 Coeff-Com:  0.536D-02 0.844D-02-0.625D-02-0.530D-01-0.840D-01-0.519D-01
 Coeff-Com:  0.329D+00 0.852D+00
 Coeff:     -0.343D-06-0.101D-05-0.143D-05-0.179D-05 0.531D-05 0.281D-04
 Coeff:      0.293D-04-0.702D-04-0.134D-03-0.807D-03-0.596D-03 0.170D-02
 Coeff:      0.536D-02 0.844D-02-0.625D-02-0.530D-01-0.840D-01-0.519D-01
 Coeff:      0.329D+00 0.852D+00
 Gap=     0.122 Goal=   None    Shift=    0.000
 Gap=     0.136 Goal=   None    Shift=    0.000
 RMSDP=1.29D-08 MaxDP=1.45D-06 DE= 3.64D-12 OVMax= 1.94D-07

 Cycle  23  Pass 1  IDiag  1:
 RMSU=  7.68D-09    CP:  1.00D+00  1.47D+00
 E= -1279.45538736198     Delta-E=       -0.000000000024 Rises=F Damp=F
 DIIS: error= 2.10D-09 at cycle  23 NSaved=  20.
 NSaved=20 IEnMin=15 EnMin= -1279.45538736200     IErMin=20 ErrMin= 2.10D-09
 ErrMax= 2.10D-09  0.00D+00 EMaxC= 1.00D-01 BMatC= 4.34D-15 BMatP= 2.30D-14
 IDIUse=1 WtCom= 1.00D+00 WtEn= 0.00D+00
 Coeff-Com:  0.649D-07 0.108D-06 0.640D-06 0.224D-05 0.103D-05-0.519D-05
 Coeff-Com: -0.106D-04 0.572D-05-0.429D-05 0.119D-03-0.302D-03-0.634D-04
 Coeff-Com:  0.143D-02 0.218D-02 0.300D-02-0.136D-01-0.876D-01-0.235D-01
 Coeff-Com:  0.269D+00 0.850D+00
 Coeff:      0.649D-07 0.108D-06 0.640D-06 0.224D-05 0.103D-05-0.519D-05
 Coeff:     -0.106D-04 0.572D-05-0.429D-05 0.119D-03-0.302D-03-0.634D-04
 Coeff:      0.143D-02 0.218D-02 0.300D-02-0.136D-01-0.876D-01-0.235D-01
 Coeff:      0.269D+00 0.850D+00
 Gap=     0.122 Goal=   None    Shift=    0.000
 Gap=     0.136 Goal=   None    Shift=    0.000
 RMSDP=2.74D-09 MaxDP=4.80D-07 DE=-2.36D-11 OVMax= 4.77D-08

 Error on total polarization charges =  0.02055
 SCF Done:  E(UB3LYP) =  -1279.45538736     A.U. after   23 cycles
            NFock= 23  Conv=0.27D-08     -V/T= 2.0033
 <Sx>= 0.0000 <Sy>= 0.0000 <Sz>= 0.5000 <S**2>= 0.7597 S= 0.5048
 <L.S>=  0.00000000000    
 KE= 1.275285136972D+03 PE=-6.473958085463D+03 EE= 2.194442283699D+03
 Annihilation of the first spin contaminant:
 S**2 before annihilation     0.7597,   after     0.7500
 Leave Link  502 at Sat Feb 10 11:00:41 2024, MaxMem=  4026531840 cpu:            4170.2 elap:             530.0
 (Enter /sysapps/ubuntu-applications/gaussian/Gaussian/AVX2/g16/l601.exe)
 Copying SCF densities to generalized density rwf, IOpCl= 1 IROHF=0.

 **********************************************************************

            Population analysis using the SCF density.

 **********************************************************************

 Alpha  occ. eigenvalues --  -89.04758 -19.11517 -19.11060 -19.08220 -19.08087
 Alpha  occ. eigenvalues --  -10.23322 -10.22489 -10.20879 -10.19647 -10.19442
 Alpha  occ. eigenvalues --  -10.19203 -10.18892 -10.18760 -10.18602 -10.18495
 Alpha  occ. eigenvalues --  -10.17457 -10.17339 -10.15594 -10.15541 -10.15335
 Alpha  occ. eigenvalues --   -8.11124  -6.07412  -6.07301  -6.07209  -1.10569
 Alpha  occ. eigenvalues --   -1.01123  -1.00628  -1.00061  -0.87453  -0.84096
 Alpha  occ. eigenvalues --   -0.80011  -0.77614  -0.76169  -0.73115  -0.72369
 Alpha  occ. eigenvalues --   -0.69406  -0.65028  -0.64194  -0.62098  -0.60328
 Alpha  occ. eigenvalues --   -0.56416  -0.55355  -0.53492  -0.50924  -0.49171
 Alpha  occ. eigenvalues --   -0.47938  -0.47210  -0.45501  -0.44929  -0.44333
 Alpha  occ. eigenvalues --   -0.44116  -0.43514  -0.42094  -0.41542  -0.40929
 Alpha  occ. eigenvalues --   -0.40079  -0.39584  -0.39010  -0.38720  -0.37993
 Alpha  occ. eigenvalues --   -0.37757  -0.37156  -0.36872  -0.35939  -0.35727
 Alpha  occ. eigenvalues --   -0.35161  -0.33617  -0.32495  -0.30765  -0.29480
 Alpha  occ. eigenvalues --   -0.28387  -0.27347  -0.26899  -0.25196  -0.24607
 Alpha  occ. eigenvalues --   -0.23759  -0.16739
 Alpha virt. eigenvalues --   -0.04492  -0.02406  -0.01898  -0.00676   0.00142
 Alpha virt. eigenvalues --    0.00774   0.01582   0.01973   0.02239   0.02824
 Alpha virt. eigenvalues --    0.03135   0.03598   0.03736   0.04168   0.04272
 Alpha virt. eigenvalues --    0.05210   0.05280   0.05916   0.06063   0.06671
 Alpha virt. eigenvalues --    0.06968   0.07377   0.07671   0.07937   0.08165
 Alpha virt. eigenvalues --    0.08632   0.09106   0.09257   0.09720   0.09884
 Alpha virt. eigenvalues --    0.10620   0.10919   0.11233   0.11369   0.11631
 Alpha virt. eigenvalues --    0.11905   0.12210   0.12454   0.12705   0.12887
 Alpha virt. eigenvalues --    0.13266   0.13679   0.14080   0.14198   0.14564
 Alpha virt. eigenvalues --    0.14922   0.15081   0.15184   0.15524   0.15604
 Alpha virt. eigenvalues --    0.15998   0.16334   0.16485   0.16536   0.16897
 Alpha virt. eigenvalues --    0.17110   0.17244   0.18265   0.18539   0.18695
 Alpha virt. eigenvalues --    0.18825   0.19174   0.19243   0.19647   0.20043
 Alpha virt. eigenvalues --    0.20929   0.21007   0.21179   0.21526   0.21730
 Alpha virt. eigenvalues --    0.22240   0.22855   0.23439   0.23784   0.24096
 Alpha virt. eigenvalues --    0.24336   0.24660   0.24725   0.25349   0.25615
 Alpha virt. eigenvalues --    0.26184   0.26389   0.26510   0.27149   0.27449
 Alpha virt. eigenvalues --    0.27938   0.28127   0.28394   0.28849   0.29196
 Alpha virt. eigenvalues --    0.29624   0.29762   0.29902   0.30144   0.30976
 Alpha virt. eigenvalues --    0.31423   0.32159   0.32414   0.32559   0.33228
 Alpha virt. eigenvalues --    0.33812   0.34141   0.34292   0.34762   0.35089
 Alpha virt. eigenvalues --    0.35695   0.35949   0.36118   0.36803   0.36965
 Alpha virt. eigenvalues --    0.37761   0.38117   0.38509   0.39484   0.39912
 Alpha virt. eigenvalues --    0.40276   0.40937   0.41327   0.41934   0.43195
 Alpha virt. eigenvalues --    0.43674   0.44213   0.45223   0.45590   0.46733
 Alpha virt. eigenvalues --    0.47490   0.48226   0.48598   0.49261   0.49624
 Alpha virt. eigenvalues --    0.50150   0.51032   0.51436   0.53259   0.53863
 Alpha virt. eigenvalues --    0.54120   0.55354   0.55682   0.56036   0.56950
 Alpha virt. eigenvalues --    0.57442   0.58165   0.58355   0.58817   0.59209
 Alpha virt. eigenvalues --    0.59437   0.59968   0.60671   0.61744   0.63145
 Alpha virt. eigenvalues --    0.64263   0.64421   0.64666   0.65578   0.66874
 Alpha virt. eigenvalues --    0.67463   0.67754   0.68585   0.69215   0.69544
 Alpha virt. eigenvalues --    0.69636   0.70476   0.70844   0.71036   0.71530
 Alpha virt. eigenvalues --    0.71748   0.72899   0.73177   0.74138   0.74463
 Alpha virt. eigenvalues --    0.75281   0.75443   0.76202   0.76321   0.77112
 Alpha virt. eigenvalues --    0.78410   0.78821   0.80513   0.81736   0.83238
 Alpha virt. eigenvalues --    0.83780   0.84189   0.85103   0.86304   0.86827
 Alpha virt. eigenvalues --    0.87728   0.88438   0.89208   0.90069   0.90440
 Alpha virt. eigenvalues --    0.91484   0.92056   0.93887   0.94160   0.95079
 Alpha virt. eigenvalues --    0.95558   0.96759   0.97615   0.99164   0.99300
 Alpha virt. eigenvalues --    1.00427   1.00911   1.02067   1.02443   1.03886
 Alpha virt. eigenvalues --    1.04461   1.05501   1.06155   1.06902   1.08330
 Alpha virt. eigenvalues --    1.08743   1.09968   1.10452   1.10997   1.12771
 Alpha virt. eigenvalues --    1.14213   1.15422   1.17208   1.17451   1.18356
 Alpha virt. eigenvalues --    1.21068   1.21586   1.22521   1.24164   1.24346
 Alpha virt. eigenvalues --    1.24932   1.25511   1.26280   1.27431   1.29304
 Alpha virt. eigenvalues --    1.30121   1.31073   1.32268   1.34133   1.34602
 Alpha virt. eigenvalues --    1.36058   1.36870   1.37248   1.38906   1.40141
 Alpha virt. eigenvalues --    1.40241   1.42674   1.46767   1.47327   1.48119
 Alpha virt. eigenvalues --    1.49202   1.50164   1.51816   1.52125   1.52644
 Alpha virt. eigenvalues --    1.53921   1.55674   1.56475   1.56648   1.57670
 Alpha virt. eigenvalues --    1.58618   1.59106   1.59837   1.60121   1.60830
 Alpha virt. eigenvalues --    1.61541   1.63659   1.64789   1.65313   1.65967
 Alpha virt. eigenvalues --    1.66549   1.68199   1.68704   1.70305   1.71083
 Alpha virt. eigenvalues --    1.73136   1.73268   1.74179   1.74428   1.75945
 Alpha virt. eigenvalues --    1.77134   1.77285   1.79923   1.80090   1.82591
 Alpha virt. eigenvalues --    1.83455   1.83747   1.84839   1.86023   1.86173
 Alpha virt. eigenvalues --    1.86743   1.88374   1.88816   1.89225   1.90588
 Alpha virt. eigenvalues --    1.91579   1.93165   1.93441   1.94286   1.95057
 Alpha virt. eigenvalues --    1.95160   1.96450   1.97513   1.97948   2.00119
 Alpha virt. eigenvalues --    2.02082   2.03982   2.06749   2.07500   2.08046
 Alpha virt. eigenvalues --    2.08720   2.09291   2.10644   2.13506   2.14872
 Alpha virt. eigenvalues --    2.16744   2.18023   2.20858   2.22080   2.23618
 Alpha virt. eigenvalues --    2.24147   2.26021   2.29386   2.30288   2.33133
 Alpha virt. eigenvalues --    2.33569   2.33724   2.36467   2.37181   2.39833
 Alpha virt. eigenvalues --    2.43068   2.44015   2.45971   2.47472   2.47866
 Alpha virt. eigenvalues --    2.50062   2.52379   2.52999   2.53524   2.54962
 Alpha virt. eigenvalues --    2.56796   2.57693   2.58409   2.59674   2.62203
 Alpha virt. eigenvalues --    2.62960   2.65652   2.66148   2.66579   2.66876
 Alpha virt. eigenvalues --    2.67978   2.68519   2.69268   2.71156   2.71988
 Alpha virt. eigenvalues --    2.72911   2.74106   2.74253   2.75911   2.77301
 Alpha virt. eigenvalues --    2.77400   2.80273   2.80686   2.80954   2.82292
 Alpha virt. eigenvalues --    2.82856   2.83547   2.84637   2.86449   2.86859
 Alpha virt. eigenvalues --    2.87420   2.88874   2.90226   2.90808   2.92560
 Alpha virt. eigenvalues --    2.93119   2.93961   2.94140   2.95220   2.97325
 Alpha virt. eigenvalues --    2.97863   2.98721   3.00094   3.02116   3.04881
 Alpha virt. eigenvalues --    3.07899   3.08827   3.10531   3.12551   3.13311
 Alpha virt. eigenvalues --    3.17742   3.18136   3.20116   3.20976   3.23894
 Alpha virt. eigenvalues --    3.25277   3.26967   3.29557   3.32942   3.35439
 Alpha virt. eigenvalues --    3.36164   3.37341   3.38007   3.43917   3.48726
 Alpha virt. eigenvalues --    3.50005   3.51043   3.54003   3.55100   3.59550
 Alpha virt. eigenvalues --    3.60853   3.62873   3.64672   3.75539   3.78365
 Alpha virt. eigenvalues --    3.79163   3.80397   3.82479   3.83046   3.89208
 Alpha virt. eigenvalues --    3.91571   3.93215   3.99970   4.03502   4.04238
 Alpha virt. eigenvalues --    4.15016   4.16296   4.25664   4.28917   4.34636
 Alpha virt. eigenvalues --    4.38713   4.82699   4.83961   5.08145   5.09534
 Alpha virt. eigenvalues --    5.11733   5.13240   5.13687   5.18302   5.19193
 Alpha virt. eigenvalues --    5.29254   5.33802   5.37195   5.74962   5.84449
 Alpha virt. eigenvalues --    8.23195  17.44012  17.47561  17.60489  23.57072
 Alpha virt. eigenvalues --   23.60372  23.80499  23.89059  23.94286  23.95412
 Alpha virt. eigenvalues --   23.97143  23.97458  23.99469  23.99904  24.07170
 Alpha virt. eigenvalues --   24.07547  24.09242  24.15040  24.18646  49.92949
 Alpha virt. eigenvalues --   49.95776  50.04274  50.08644 189.35494
  Beta  occ. eigenvalues --  -89.04760 -19.11509 -19.11057 -19.07502 -19.07477
  Beta  occ. eigenvalues --  -10.23206 -10.22350 -10.20878 -10.19574 -10.19202
  Beta  occ. eigenvalues --  -10.19155 -10.18891 -10.18759 -10.18601 -10.18495
  Beta  occ. eigenvalues --  -10.17422 -10.17252 -10.15601 -10.15545 -10.15354
  Beta  occ. eigenvalues --   -8.11125  -6.07413  -6.07302  -6.07212  -1.10553
  Beta  occ. eigenvalues --   -1.00285  -0.99887  -0.99315  -0.87448  -0.83521
  Beta  occ. eigenvalues --   -0.79798  -0.77551  -0.76165  -0.72665  -0.72246
  Beta  occ. eigenvalues --   -0.69237  -0.64822  -0.63666  -0.62093  -0.60212
  Beta  occ. eigenvalues --   -0.56245  -0.54972  -0.53382  -0.50747  -0.48998
  Beta  occ. eigenvalues --   -0.47878  -0.47184  -0.45459  -0.44876  -0.44044
  Beta  occ. eigenvalues --   -0.43462  -0.43388  -0.41601  -0.41049  -0.40657
  Beta  occ. eigenvalues --   -0.39512  -0.39373  -0.38889  -0.38575  -0.37871
  Beta  occ. eigenvalues --   -0.37131  -0.36822  -0.35923  -0.35592  -0.34972
  Beta  occ. eigenvalues --   -0.34548  -0.33477  -0.32406  -0.30691  -0.29363
  Beta  occ. eigenvalues --   -0.27346  -0.26984  -0.25444  -0.24588  -0.23721
  Beta  occ. eigenvalues --   -0.23216
  Beta virt. eigenvalues --   -0.09611  -0.04220  -0.02294  -0.00773  -0.00654
  Beta virt. eigenvalues --    0.00151   0.00791   0.01620   0.02164   0.02795
  Beta virt. eigenvalues --    0.03035   0.03617   0.03677   0.03953   0.04298
  Beta virt. eigenvalues --    0.04520   0.05229   0.05376   0.05960   0.06089
  Beta virt. eigenvalues --    0.06776   0.07070   0.07415   0.07692   0.07966
  Beta virt. eigenvalues --    0.08294   0.08722   0.09188   0.09348   0.09744
  Beta virt. eigenvalues --    0.10006   0.10785   0.10977   0.11277   0.11385
  Beta virt. eigenvalues --    0.11683   0.11944   0.12255   0.12510   0.12717
  Beta virt. eigenvalues --    0.12928   0.13292   0.13722   0.14146   0.14261
  Beta virt. eigenvalues --    0.14591   0.14936   0.15118   0.15218   0.15560
  Beta virt. eigenvalues --    0.15627   0.16044   0.16407   0.16554   0.16815
  Beta virt. eigenvalues --    0.17076   0.17165   0.17299   0.18311   0.18564
  Beta virt. eigenvalues --    0.18826   0.18844   0.19227   0.19302   0.19723
  Beta virt. eigenvalues --    0.20119   0.20996   0.21054   0.21204   0.21594
  Beta virt. eigenvalues --    0.21767   0.22321   0.22911   0.23483   0.23800
  Beta virt. eigenvalues --    0.24151   0.24398   0.24702   0.24807   0.25411
  Beta virt. eigenvalues --    0.25685   0.26328   0.26468   0.26640   0.27220
  Beta virt. eigenvalues --    0.27505   0.27973   0.28262   0.28484   0.28968
  Beta virt. eigenvalues --    0.29383   0.29705   0.29849   0.29932   0.30245
  Beta virt. eigenvalues --    0.31040   0.31459   0.32416   0.32599   0.32873
  Beta virt. eigenvalues --    0.33395   0.33873   0.34186   0.34363   0.34885
  Beta virt. eigenvalues --    0.35172   0.35769   0.36022   0.36275   0.36861
  Beta virt. eigenvalues --    0.37011   0.37823   0.38190   0.38583   0.39578
  Beta virt. eigenvalues --    0.40040   0.40373   0.41033   0.41484   0.42022
  Beta virt. eigenvalues --    0.43316   0.43769   0.44276   0.45356   0.45729
  Beta virt. eigenvalues --    0.46827   0.47607   0.48346   0.48672   0.49379
  Beta virt. eigenvalues --    0.49704   0.50184   0.51111   0.51505   0.53374
  Beta virt. eigenvalues --    0.53887   0.54205   0.55378   0.55726   0.56094
  Beta virt. eigenvalues --    0.56984   0.57484   0.58193   0.58610   0.58876
  Beta virt. eigenvalues --    0.59345   0.59551   0.60039   0.60799   0.61821
  Beta virt. eigenvalues --    0.63197   0.64383   0.64510   0.64758   0.66013
  Beta virt. eigenvalues --    0.67012   0.67511   0.68016   0.68649   0.69369
  Beta virt. eigenvalues --    0.69579   0.69825   0.70582   0.70991   0.71153
  Beta virt. eigenvalues --    0.71665   0.71929   0.72956   0.73329   0.74174
  Beta virt. eigenvalues --    0.74544   0.75346   0.75530   0.76304   0.76449
  Beta virt. eigenvalues --    0.77211   0.78498   0.79012   0.80590   0.81786
  Beta virt. eigenvalues --    0.83300   0.83844   0.84216   0.85167   0.86351
  Beta virt. eigenvalues --    0.86858   0.87828   0.88496   0.89278   0.90175
[...]
 0000314,-0.00000067,0.00001142,0.00001518,0.00000270,0.00000851,-0.000
 00820,0.00002036,0.00010053,-0.00003108,0.00006607,0.00001562,-0.00001
 235,0.00000525,-0.00000161,-0.00000478,-0.00000291,0.,-0.00000445,0.00
 000204,0.00000082,0.00000089,0.00000212,0.,0.00000017,0.00038785,0.000
 05486,-0.00023267,-0.11558306,-0.24720799,-0.00864884,0.00000127,0.000
 00038,-0.00000029,-0.00003091,0.00008168,0.00000074,0.00005718,0.00011
 778,-0.00003232,-0.00012559,0.00003540,0.00001374,0.00282570,0.0062648
 9,-0.00037346,0.12688454,0.27062711,0.00035097,-0.00178038,-0.00013611
 ,-0.01052570,-0.01341944,-0.00097664,0.00277321,-0.00189058,-0.0012721
 6,-0.00045381,-0.00044933,0.00111392,0.00001641,-0.00019191,-0.0001310
 4,-0.00022089,0.00052711,0.00029121,-0.00041927,0.00181167,-0.00049014
 ,0.00014615,-0.00023846,-0.00037684,0.00010966,-0.00005598,-0.00004882
 ,0.00000231,0.00001037,0.00000625,-0.00001656,-0.00000831,-0.00001349,
 -0.00000641,-0.00000223,0.00002071,-0.00000179,-0.00001552,-0.00000684
 ,0.00000301,0.00001069,0.00001634,-0.00000683,0.00000688,-0.00001934,-
 0.00002517,0.00001885,0.00004297,-0.00008784,0.00005163,0.00002694,0.0
 0000691,0.00000344,-0.00000467,-0.00000278,0.00000345,0.00000174,-0.00
 000162,-0.00000204,-0.00000006,-0.00000214,0.,-0.00000247,0.00030414,0
 .00045688,-0.00049650,-0.00408866,-0.00633917,-0.04766775,-0.00000170,
 -0.00000059,-0.00000169,0.00005425,0.00022521,-0.00013614,0.00001737,-
 0.00011805,0.00033540,-0.00003898,-0.00004516,0.00024679,-0.00746187,-
 0.01398914,-0.00097983,0.00415529,0.00977585,0.04758056,-0.00047150,0.
 00181403,0.00107075,-0.00632778,-0.00339816,0.01751991,-0.00016881,-0.
 00205443,-0.00051079,-0.00072043,0.00004806,-0.00014038,0.00018108,-0.
 00001211,-0.00004511,-0.00071702,-0.00028009,0.00007231,-0.00072561,0.
 00036405,0.00049686,0.00016627,0.00016289,0.00003700,0.00037629,0.0003
 2476,-0.00023471,-0.00000510,-0.00003637,0.00004650,-0.00004145,0.0000
 1738,-0.00003850,-0.00001568,-0.00002635,0.00001373,0.00000222,-0.0000
 0397,-0.00000826,0.00000529,-0.00000883,0.00000263,-0.00001173,-0.0000
 0688,-0.00001279,-0.00008752,-0.00013007,0.00017230,-0.00033458,0.0000
 7685,0.00014346,0.00000487,0.00000732,0.00000071,0.00000237,0.00000232
 ,0.00001137,-0.00000436,-0.00000617,-0.00000397,-0.00000546,-0.0000003
 2,-0.00000723,0.00078044,-0.00012300,-0.00040022,-0.05109114,-0.017470
 25,0.04695905,-0.00000233,-0.00000204,-0.00000260,-0.00010081,0.000059
 09,-0.00029541,0.00012076,0.00006100,0.00014488,-0.00004162,0.00005066
 ,-0.00002404,0.00535888,0.00916365,-0.02675696,-0.00279937,-0.00338252
 ,0.01538185,0.05670737,0.00083685,-0.00396498,-0.00108949,0.00457172,0
 .00716006,-0.02242228,0.00016382,-0.00053011,-0.00016795,0.00035657,0.
 00013659,0.00124492,0.00000030,-0.00014191,-0.00023188,0.00070628,0.00
 050818,0.00044542,-0.00162049,0.00168900,0.00059215,-0.00007750,0.0001
 0802,-0.00016074,-0.00015586,-0.00034304,0.00011042,0.00000946,0.00002
 429,-0.00003584,-0.00000120,-0.00000237,0.00002571,0.00000967,0.000010
 21,0.00000742,-0.00000448,-0.00000760,-0.00000122,0.00000706,0.0000108
 2,0.00000707,0.00000070,0.00000901,-0.00000333,0.00003407,0.00012220,-
 0.00008904,0.00022436,-0.00001540,-0.00008591,0.00000306,-0.00000339,-
 0.00000531,-0.00000905,0.00000219,-0.00000523,0.00000184,0.00000290,0.
 00000260,0.00000147,0.00000095,0.00000266,-0.00033959,0.00008078,-0.00
 208629,-0.01603903,-0.07037205,0.07336827,0.00000047,0.00000079,0.0000
 0060,-0.00025803,-0.00049390,0.00025280,-0.00009059,-0.00028820,0.0007
 1020,0.00024831,0.00001279,0.00012352,-0.00108109,-0.00211173,0.004343
 89,-0.00225478,-0.00672371,0.02559387,0.01472809,0.07514290,-0.0004900
 0,-0.00238840,-0.00113164,0.00443583,0.00181781,-0.01291318,0.00214006
 ,0.00142933,0.00081298,0.00031741,0.00011204,0.00030083,-0.00020325,-0
 .00018525,-0.00009232,0.00059836,0.00047180,0.00012744,-0.00026493,0.0
 0050507,-0.00000506,-0.00020765,-0.00022238,-0.00005494,-0.00047942,-0
 .00032852,0.00029232,0.00002790,0.00002987,-0.00006365,0.00003293,-0.0
 0001233,0.00004323,0.00001315,0.00002388,-0.00000597,-0.00000293,0.000
 00037,0.00000390,-0.00000212,0.00001306,0.00000073,0.00000880,0.000010
 10,0.00000968,0.00010444,0.00014551,-0.00017535,0.00028919,-0.00004998
 ,-0.00011618,-0.00000306,-0.00000691,-0.00000266,-0.00000881,0.0000016
 5,-0.00001099,0.00000425,0.00000636,0.00000417,0.00000485,0.00000058,0
 .00000653,-0.00047216,0.00067773,0.00076604,0.04667701,0.07375776,-0.2
 6915758,0.00000252,0.00000211,0.00000241,-0.00047891,0.00003600,-0.000
 43732,-0.00016548,-0.00065554,0.00001867,-0.00015742,0.00008250,0.0002
 7251,0.00209340,0.00530878,-0.01474854,-0.00026277,-0.00011321,0.00309
 933,-0.05362638,-0.08038633,0.29319879,0.00161656,-0.00380510,0.002700
 56,-0.00104179,0.00002001,-0.00007095,-0.00129786,-0.00271648,0.002371
 14,-0.01630675,0.01689762,0.01986487,-0.10509587,0.02872670,0.03196207
 ,0.01395944,0.00164007,-0.00448271,0.00014995,-0.00157432,-0.00062755,
 -0.00086427,0.00310363,0.00120298,-0.00604877,0.00072053,-0.00047312,0
 .00028474,-0.00010611,-0.00000055,-0.00003043,0.00000520,0.00000985,0.
 00002582,0.00000175,0.00005827,0.00001228,-0.00002200,-0.00001267,0.00
 000602,0.00001939,0.00001274,-0.00002081,0.00000593,-0.00001589,0.0013
 2326,0.00046068,-0.00045824,-0.00216767,-0.00574260,-0.00065497,0.0000
 0383,-0.00001714,-0.00000891,-0.00001354,0.00001861,-0.00001176,-0.000
 00156,-0.00000016,-0.00000194,-0.00000124,0.00000030,-0.00000037,-0.00
 032293,0.00079129,0.00001510,0.00000181,0.00008262,-0.00011947,-0.0000
 0103,0.00000373,0.00000105,-0.00020476,0.00000017,0.00016072,-0.000078
 58,0.00000767,0.00010206,0.00008600,-0.00000699,-0.00004356,-0.0000563
 9,0.00008039,0.00004124,-0.00001915,0.00005097,0.00002438,-0.00001789,
 -0.00000106,0.00003972,0.54449063,-0.00611796,0.00013947,0.00168935,0.
 00104025,0.00009604,-0.00031224,-0.00280523,-0.00056929,0.00052985,0.0
 0309515,0.01309413,-0.00310713,0.03849644,-0.14190474,-0.04471723,0.01
 412411,-0.02287471,-0.01452046,0.00130048,-0.00123715,-0.00083108,-0.0
 0142063,-0.00396737,0.00039892,-0.00017420,0.00076325,0.00071687,0.000
 47790,0.00002838,-0.00054413,0.00007479,0.00008922,0.00009805,0.000006
 56,-0.00011456,-0.00002657,-0.00004268,0.00003663,0.00003655,-0.000049
 14,0.00004401,-0.00002548,-0.00000882,-0.00004152,-0.00001140,0.000160
 57,-0.00042176,0.00014144,-0.00388012,-0.00664850,-0.00031688,0.000026
 18,-0.00000190,-0.00000701,0.00002306,0.00000642,0.00002784,0.00000149
 ,-0.00000196,0.00000512,-0.00000338,0.00000127,-0.00000696,-0.00011688
 ,0.00050993,0.00040642,0.00008798,0.00008232,-0.00002539,0.00000263,-0
 .00000570,-0.00000380,-0.00014343,0.00001957,0.00006125,-0.00014473,0.
 00000435,0.00010608,0.00010476,-0.00005409,-0.00007136,-0.00000172,0.0
 0001808,-0.00000015,-0.00003015,0.00006252,0.00005339,0.00001698,0.000
 03093,0.00000281,0.05188637,0.51296262,0.00151267,0.00085749,0.0059097
 3,0.00016132,0.00086964,-0.00117266,0.00294506,0.00013028,0.00171510,0
 .01636384,-0.00798455,-0.00462490,0.03823651,-0.04440724,-0.10212926,-
 0.00068225,-0.00537127,0.00138666,-0.00014102,0.00031989,-0.00045677,0
 .00169484,-0.00481514,-0.00374937,-0.00133373,0.00142040,-0.00251561,-
 0.00012736,-0.00069138,0.00058564,-0.00017909,-0.00004527,-0.00023380,
 0.00006235,-0.00004495,0.00012035,0.00001334,0.00001372,-0.00003451,0.
 00000627,-0.00008694,0.00004021,-0.00001275,0.00000029,-0.00000880,0.0
 0062041,0.00053421,-0.00047011,-0.00140143,-0.00048383,-0.00091004,0.0
 0000230,-0.00000562,0.00000543,0.00001127,0.00003328,-0.00000255,-0.00
 001266,-0.00001950,-0.00002454,-0.00000957,-0.00000372,-0.00001029,0.0
 0005860,-0.00034305,-0.00034042,-0.00008243,-0.00007702,-0.00009867,-0
 .00000456,0.00000197,-0.00000299,0.00008668,-0.00005095,-0.00006032,0.
 00011666,-0.00004283,-0.00005518,-0.00006745,-0.00007233,0.00002319,0.
 00001873,0.00005285,0.00002419,0.00002780,0.00001401,-0.00001908,-0.00
 000654,-0.00000949,0.00002428,-0.00137220,-0.03431032,0.52501494,0.000
 63539,0.00065380,-0.00031708,0.00002339,0.00006914,0.00002584,0.000474
 21,-0.00047682,-0.00033472,-0.00140737,0.00012159,0.00173269,0.0114656
 9,0.01468834,-0.00052832,-0.00253900,0.00086222,0.00195346,-0.00026295
 ,0.00009629,0.00012690,-0.00293209,0.00065264,0.00149942,-0.00077048,0
 .00085319,0.00043540,0.00013248,-0.00009042,-0.00013575,-0.00000182,0.
 00002067,-0.00002748,-0.00000196,-0.00004328,0.00000199,-0.00001372,0.
 00001017,0.00000432,-0.00002633,-0.00000004,0.00000323,-0.00000234,-0.
 00001201,-0.00000763,0.00012721,-0.00021987,0.00006924,-0.00031635,-0.
 00199236,0.00008876,0.00001303,0.00000062,-0.00000153,0.00000916,0.000
 00405,0.00000866,-0.00000417,-0.00000575,-0.00000261,-0.00000425,-0.00
 000152,-0.00000641,-0.00002845,-0.00010536,-0.00001464,-0.00001329,-0.
 00003084,0.00000810,0.00000009,-0.00000304,-0.00000285,0.00002229,-0.0
 0000263,-0.00000669,0.00001389,-0.00000693,-0.00001635,-0.00004999,0.0
 0004069,0.00003373,0.00000705,-0.00001468,-0.00000240,-0.00000702,-0.0
 0002652,-0.00000739,0.00000323,-0.00000442,-0.00000631,-0.14185188,-0.
 13101603,-0.01198884,0.15516461,-0.00096187,-0.00020609,0.00032770,-0.
 00000961,-0.00015299,0.00001158,-0.00017833,0.00012477,0.00003346,-0.0
 0199652,-0.00356457,0.00074698,-0.01180553,-0.02371541,-0.00327107,0.0
 0317998,-0.00064459,-0.00280902,0.00025974,-0.00072878,-0.00017685,-0.
 00228013,0.00312820,0.00332335,0.00056048,0.00094292,-0.00025572,-0.00
 004649,-0.00004770,0.00005280,-0.00004214,0.00001927,-0.00005520,-0.00
 001308,-0.00002785,0.00001074,0.00000138,-0.00001109,-0.00001251,0.000
 00231,-0.00001641,0.00000410,-0.00000773,-0.00000359,-0.00001231,-0.00
 010699,-0.00019953,0.00025392,-0.00038730,-0.00003651,-0.00010865,0.00
 000214,0.00000701,0.00000556,0.00000618,-0.00000320,0.00001353,-0.0000
 0471,-0.00000784,-0.00000536,-0.00000399,-0.00000181,-0.00000747,-0.00
 008646,0.00004343,-0.00000353,0.00003498,0.00005008,0.00001688,-0.0000
 0341,-0.00000174,-0.00000249,0.00000476,0.00003445,0.00001484,0.000016
 19,0.00001846,-0.00000138,0.00004263,0.00005259,-0.00000536,0.00002999
 ,-0.00001714,-0.00000956,-0.00001680,-0.00000319,0.00001172,0.00001479
 ,-0.00001008,-0.00001835,-0.12693159,-0.21878448,-0.01218979,0.1395279
 2,0.24145069,-0.00044097,-0.00055186,0.00095179,-0.00011523,-0.0002404
 9,-0.00006059,-0.00038928,0.00067777,0.00048309,0.00071562,-0.00243599
 ,-0.00062377,-0.01212377,-0.01393389,-0.00152481,0.00266031,-0.0010840
 7,-0.00105749,0.00021614,-0.00023544,-0.00033262,0.00034979,0.00219709
 ,-0.00088255,0.00060560,-0.00035590,-0.00083263,-0.00013096,0.00008953
 ,0.00014151,-0.00000803,-0.00000710,-0.00000958,0.00000688,0.00000300,
 -0.00001056,0.00000238,-0.00000630,0.00000115,0.00001465,-0.00000735,-
 0.00000456,-0.00000174,0.00000035,-0.00000394,-0.00001627,-0.00002518,
 0.00009045,0.00059527,0.00076476,0.00094198,-0.00000613,0.00000479,0.0
 0000299,0.00001038,-0.00000172,0.00001262,0.00000083,-0.00000057,-0.00
 000155,-0.00000134,0.00000010,-0.00000028,-0.00001515,0.00010372,0.000
 00473,0.00001774,0.00006242,0.00000085,-0.00000161,-0.00000064,0.00000
 055,-0.00001438,0.00001855,0.00001276,0.00000621,0.00001814,0.00000777
 ,0.00006365,-0.00000665,-0.00003517,0.00001412,-0.00000132,-0.00000377
 ,-0.00000621,0.00002067,0.00001180,0.00000969,-0.00000497,-0.00001146,
 -0.00854738,-0.00962574,-0.04979152,0.00807131,0.01466340,0.04941881,-
 0.00079362,0.00001005,0.00081612,0.00046287,0.00033464,-0.00033786,0.0
 0003088,-0.00064215,0.00025034,0.00002193,0.00238622,0.00059835,-0.012
 92170,0.00673515,-0.00213534,-0.00045429,-0.00258412,0.00028306,0.0002
 3814,0.00041212,-0.00008329,-0.00017550,-0.00053541,0.00026465,-0.0003
 0444,-0.00007397,-0.00013336,0.00000729,-0.00000547,-0.00010300,0.0000
 3172,0.00002207,0.00002077,0.00001308,-0.00001197,0.00001809,0.0000030
 0,0.00000308,0.00000513,-0.00001300,0.00000551,-0.00001419,0.00000102,
 -0.00000414,0.00000579,0.00022112,0.00009853,-0.00015605,-0.00057215,-
 0.00188413,0.00056041,-0.00000235,-0.00000460,-0.00000037,-0.00000285,
 0.00001233,0.00000021,0.00000263,0.00000152,0.00000228,0.00000079,0.00
 000123,0.00000254,-0.00006685,0.00014505,0.00000623,-0.00004068,0.0000
 0823,-0.00000129,0.,0.00000022,0.00000101,-0.00005741,0.00000410,0.000
 03479,-0.00003523,-0.00000144,0.00004566,0.00000978,-0.00000920,-0.000
 00731,-0.00002228,0.00004053,0.00002058,-0.00000108,0.00002518,0.00001
 403,-0.00001433,0.00002281,0.00003531,-0.23062315,0.05730143,-0.106665
 52,-0.01436991,0.00490837,-0.00853509,0.25350167,-0.00052174,0.0003077
 3,-0.00138201,-0.00019098,-0.00040776,0.00026569,-0.00036090,0.0007733
 1,-0.00043816,-0.00031628,-0.00368786,-0.00084268,0.01993154,-0.007861
 73,0.00985054,-0.00069118,0.00036060,-0.00105751,0.00001826,-0.0002646
 6,0.00013953,0.00048538,0.00189843,0.00144518,0.00318801,-0.00247719,-
 0.00000608,-0.00022723,0.00008601,0.00002308,0.00000759,0.00001542,0.0
 0001059,-0.00002239,-0.00000384,0.00002593,0.00001377,-0.00000414,-0.0
 0000794,0.00001852,-0.00000202,-0.00000513,0.00000074,0.00001075,0.000
 00980,-0.00080649,0.00006728,0.00021128,-0.00110062,0.00126534,-0.0000
 4755,-0.00000788,0.00000980,0.00000168,-0.00000782,-0.00000108,-0.0000
 2370,0.00000423,0.00000270,0.00000121,-0.00000035,-0.00000184,0.000001
 75,0.00001224,-0.00009843,-0.00001796,0.00007721,0.00001523,0.00006935
 ,0.00000045,0.00000194,-0.00000033,0.00005359,0.00000785,-0.00002464,0
 .00003374,0.00000150,-0.00003939,0.00000641,0.00002395,0.00000750,0.00
 005647,-0.00006804,-0.00003093,-0.00001108,-0.00002451,-0.00000318,0.0
 0001774,-0.00002475,-0.00004097,0.05732408,-0.05926596,0.03022045,-0.0
 2111613,0.00851425,-0.01301822,-0.06446262,0.06374563,-0.00009136,0.00
 033376,-0.00087721,-0.00013629,-0.00030902,0.00012537,-0.00022178,0.00
 064628,-0.00044621,0.00055415,-0.00169122,-0.00177987,0.01622613,-0.00
 417935,0.00833222,-0.00054383,0.00016675,0.00054947,-0.00001368,-0.000
 14123,0.00008542,-0.00013049,0.00050342,0.00041520,0.00008717,0.000679
 18,0.00063648,0.00011104,-0.00002875,-0.00013544,-0.00000076,0.0000403
 8,-0.00004484,-0.00000606,-0.00010394,0.00001113,-0.00000160,0.0000220
 9,-0.00000937,-0.00002012,0.00000003,-0.00000528,-0.00001037,-0.000016
 70,-0.00000404,-0.00009993,-0.00039325,0.00024570,-0.00014705,-0.00147
 460,-0.00000875,0.00001177,0.00000691,0.00000436,-0.00000488,0.0000163
 9,0.00001012,-0.00000540,-0.00000702,-0.00000372,-0.00000790,-0.000002
 65,-0.00001006,0.00007781,-0.00010449,0.00003854,0.00003406,0.00001366
 ,0.00002673,-0.00000116,-0.00000161,-0.00000387,0.00004879,0.00000778,
 -0.00002759,0.00000890,0.00000431,-0.00002291,0.00000084,0.00001562,0.
 00000584,0.00002698,-0.00003226,-0.00001431,-0.00000256,-0.00001512,-0
 .00000262,0.00001535,-0.00001578,-0.00002486,-0.10244923,0.02945832,-0
 .09664097,-0.00016892,-0.00019826,-0.00136951,0.11216768,-0.03085427,0
 .10567254,-0.00076503,0.00003928,0.00004071,0.00026197,-0.00001548,-0.
 00011612,-0.00063713,-0.00031841,0.00008464,-0.00038791,0.00147198,0.0
 0094981,-0.00675480,-0.00291755,0.01508845,-0.00006179,-0.00151557,-0.
 00088830,0.00015372,0.00023894,-0.00001785,-0.00101276,0.00065537,0.00
 075282,0.00100097,-0.00152947,-0.00022229,-0.00006330,0.00003934,0.000
 06486,0.00000974,-0.00003125,0.00002439,0.00003828,0.00005069,-0.00000
 483,-0.00000060,-0.00001028,-0.00000455,0.00001062,0.00000148,0.000012
 53,0.00000765,0.00001965,0.00000790,-0.00024149,0.00019478,-0.00004826
 ,-0.00090127,0.00010150,-0.00027835,-0.00000570,-0.00000072,-0.0000031
 1,-0.00000418,-0.00000736,-0.00000852,0.00000550,0.00000589,0.00000279
 ,0.00000361,0.00000192,0.00000759,-0.00009031,0.00018418,0.00009515,-0
 .00001083,0.00001920,0.00001336,0.00000201,0.00000208,0.00000224,-0.00
 006964,0.00002187,0.00004333,-0.00004658,0.00000720,0.00004074,0.00003
 265,0.00001291,-0.00001268,-0.00001375,0.00001186,0.00000501,-0.000001
 56,0.00001558,0.00000945,-0.00000457,0.00001024,0.00000646,-0.05589402
 ,-0.02227206,0.06214876,-0.00348836,-0.00370916,0.01699296,0.00592493,
 0.00859371,-0.02530731,0.06300394,0.00038721,0.00001528,0.00099935,-0.
 00009352,-0.00005504,-0.00021534,0.00081473,0.00048656,0.00043620,0.00
 069757,-0.00466271,-0.00117892,0.00668058,0.00780968,-0.02379031,-0.00
 030939,0.00035551,0.00042443,-0.00003914,0.00003341,-0.00014827,-0.001
 75295,0.00193523,0.00077284,0.00012103,-0.00215902,-0.00215635,-0.0001
 7376,-0.00021218,0.00018661,-0.00003564,-0.00000948,-0.00007887,0.0000
 1249,0.00000787,0.00004734,0.00000049,0.00000363,-0.00000464,-0.000004
 89,-0.00003045,0.00002595,0.00000635,0.00000693,0.00000093,-0.00005327
 ,0.00018276,0.00018921,-0.00150578,-0.00068049,0.00020825,-0.00000165,
 -0.00000785,0.00000647,0.00002177,0.00000247,-0.00000172,-0.00000122,-
 0.00000543,-0.00000631,-0.00000249,-0.00000009,-0.00000080,0.00005698,
 -0.00015204,-0.00005040,-0.00000721,0.00001247,0.00000340,0.00000041,-
 0.00000089,-0.00000092,0.00006035,0.00000624,-0.00002756,0.00004475,0.
 00001325,-0.00002876,0.00001299,0.00002826,-0.00000158,0.00003579,-0.0
 0002568,-0.00001443,0.00000384,-0.00001244,-0.00001153,0.00001190,-0.0
 0001938,-0.00002694,-0.02092416,-0.07209546,0.07658673,-0.00243268,-0.
 00620153,0.02291912,-0.00225917,-0.00291389,0.00765463,0.02062767,0.07
 834448,0.00103108,-0.00017022,-0.00004176,-0.00065682,-0.00042484,0.00
 016698,0.00032562,0.00089943,0.00043019,-0.00000834,-0.00279517,-0.001
 16134,0.00392766,0.00316258,-0.01275901,0.00036941,0.00107454,0.001494
 27,-0.00026007,-0.00038802,-0.00000260,-0.00043253,0.00077625,0.000124
 36,0.00148831,-0.00241628,-0.00112026,-0.00033533,0.00020467,0.0001690
 4,-0.00000205,0.00000540,0.00005715,-0.00000117,0.00005219,0.00000840,
 0.00001486,-0.00001586,-0.00000133,0.00004417,-0.00000237,-0.00001943,
 0.00000565,0.00001294,0.00001239,-0.00030825,0.00024454,-0.00009152,0.
 00079382,0.00277295,0.00149729,-0.00001944,0.00000228,0.00000168,-0.00
 000307,-0.00000428,-0.00000649,0.00000751,0.00000715,0.00000413,0.0000
 0532,0.00000227,0.00000760,0.00001298,-0.00014419,-0.00006131,0.000007
 15,0.00000163,-0.00000572,-0.00000046,0.00000253,0.00000334,0.00006134
 ,-0.00000965,-0.00003412,0.00005597,0.00000385,-0.00004114,-0.00001270
 ,0.00001217,0.00001109,0.00003812,-0.00003661,-0.00001198,0.00000029,-
 0.00002220,-0.00001168,0.00001555,-0.00003044,-0.00003217,0.06078470,0
 .07473110,-0.27149736,-0.00048713,-0.00034769,0.00447351,0.00301965,0.
 00555712,-0.01472770,-0.06948178,-0.08271777,0.29316551\\0.00000096,0.
 00000047,-0.00000137,0.00000127,-0.00000138,-0.00000042,-0.00000143,-0
 .00000164,-0.00000607,0.00000324,-0.00000319,0.00000331,0.00000167,0.0
 0000005,0.00000169,0.00000103,0.,-0.00000627,-0.00000155,-0.00000011,0
 .00000090,0.00000249,0.00000149,-0.00000415,-0.00000128,0.00000467,-0.
 00000204,0.00000077,-0.00000149,0.00000514,-0.00000099,0.00000448,0.,0
 .00000069,0.00000138,0.00000330,-0.00000189,0.00000022,0.00000245,-0.0
 0000172,0.00000107,0.00000461,-0.00000224,0.00000206,0.00000310,0.0000
 0323,-0.00000265,0.00000490,0.00000225,0.00000467,-0.00000067,0.000000
 65,0.00000090,0.00000359,-0.00000090,0.00000096,0.00000121,-0.00000176
 ,0.00000143,0.00000389,-0.00000229,0.00000082,0.00000267,-0.00000194,-
 0.00000151,-0.00000754,-0.00000456,0.00000333,-0.00000576,-0.00000274,
 0.00000063,0.00000386,0.00000174,-0.00000127,-0.00000250,-0.00000076,-
 0.00000459,-0.00000269,0.00000023,-0.00000219,-0.00000202,-0.00000111,
 -0.00000404,0.00000052,-0.00000027,-0.00000292,0.00000025,-0.00000088,
 -0.00000232,-0.00000073,-0.00000153,0.00000102,-0.00000687,0.00000359,
 -0.00000035,0.00000033,0.00000270,-0.00000090,0.00000094,0.00000333,0.
 00000089,0.00000242\\\@


 Experience is what you get when you don't get what you want.
 -- Dan Stanford
 Job cpu time:       0 days  7 hours 24 minutes 36.5 seconds.
 Elapsed time:       0 days  0 hours 55 minutes 42.3 seconds.
 File lengths (MBytes):  RWF=   2039 Int=      0 D2E=      0 Chk=     45 Scr=      1
 Normal termination of Gaussian 16 at Sat Feb 10 15:06:37 2024.
