
Running Job 1 of 1 046-CPCM.in
qchem 046-CPCM.in_1752783.0 /expanse/lustre/scratch/selhajj/temp_project/qcscratch/31246021/qchem1752783/ 0
/cm/shared/apps/spack/cpu/opt/spack/linux-centos8-zen2/gcc-10.2.0/qchem-5.4-akfmr7b3t57bfs6qan3padb2wnb2i7cl/exe/qcprog.exe_s 046-CPCM.in_1752783.0 /expanse/lustre/scratch/selhajj/temp_project/qcscratch/31246021/qchem1752783/
                  Welcome to Q-Chem
     A Quantum Leap Into The Future Of Chemistry


 Q-Chem 5.4, Q-Chem, Inc., Pleasanton, CA (2021)

 License issued to: University of California, San Diego (site)

 E. Epifanovsky,  A. T. B. Gilbert,  Xintian Feng,  Joonho Lee,  Yuezhi Mao,  
 N. Mardirossian,  P. Pokhilko,  A. White,  M. Wormit,  M. P. Coons,  
 A. L. Dempwolff,  Zhengting Gan,  D. Hait,  P. R. Horn,  L. D. Jacobson,  
 I. Kaliman,  J. Kussmann,  A. W. Lange,  Ka Un Lao,  D. S. Levine,  Jie Liu,  
 S. C. McKenzie,  A. F. Morrison,  K. Nanda,  F. Plasser,  D. R. Rehn,  
 M. L. Vidal,  Zhi-Qiang You,  Ying Zhu,  B. Alam,  B. Albrecht,  
 A. Aldossary,  E. Alguire,  J. H. Andersen,  D. Barton,  K. Begam,  A. Behn,  
 Y. A. Bernard,  E. J. Berquist,  H. Burton,  A. Carreras,  K. Carter-Fenk,  
 R. Chakraborty,  A. D. Chien,  K. D. Closser,  V. Cofer-Shabica,  
 S. Dasgupta,  Jia Deng,  M. de Wergifosse,  M. Diedenhofen,  Hainam Do,  
 S. Ehlert,  Po-Tung Fang,  S. Fatehi,  Qingguo Feng,  J. Gayvert,  
 Qinghui Ge,  G. Gidofalvi,  M. Goldey,  J. Gomes,  C. Gonzalez-Espinoza,  
 S. Gulania,  A. Gunina,  M. W. D. Hanson-Heine,  P. H. P. Harbach,  
 A. W. Hauser,  M. F. Herbst,  M. Hernandez Vera,  M. Hodecker,  
 Z. C. Holden,  S. Houck,  Xunkun Huang,  Kerwin Hui,  B. C. Huynh,  
 M. Ivanov,  Hyunjun Ji,  Hanjie Jiang,  B. Kaduk,  S. Kaehler,  
 K. Khistyaev,  Jaehoon Kim,  P. Klunzinger,  Z. Koczor-Benda,  
 Joong Hoon Koh,  D. Kosenkov,  L. Koulias,  T. Kowalczyk,  C. M. Krauter,  
 K. Kue,  A. Kunitsa,  T. Kus,  A. Landau,  K. V. Lawler,  D. Lefrancois,  
 S. Lehtola,  Rain Li,  Yi-Pei Li,  Jiashu Liang,  M. Liebenthal,  
 Hung-Hsuan Lin,  You-Sheng Lin,  Fenglai Liu,  Kuan-Yu Liu,  
 M. Loipersberger,  A. Luenser,  A. Manjanath,  P. Manohar,  E. Mansoor,  
 S. F. Manzer,  Shan-Ping Mao,  A. V. Marenich,  T. Markovich,  S. Mason,  
 S. A. Maurer,  P. F. McLaughlin,  M. F. S. J. Menger,  J.-M. Mewes,  
 S. A. Mewes,  P. Morgante,  J. W. Mullinax,  T. S. Nguyen-Beck,  
 K. J. Oosterbaan,  G. Paran,  Alexander C. Paul,  Suranjan K. Paul,  
 F. Pavosevic,  Zheng Pei,  S. Prager,  E. I. Proynov,  E. Ramos,  B. Rana,  
 A. E. Rask,  A. Rettig,  R. M. Richard,  F. Rob,  E. Rossomme,  T. Scheele,  
 M. Scheurer,  M. Schneider,  N. Sergueev,  S. M. Sharada,  W. Skomorowski,  
 D. W. Small,  C. J. Stein,  Yu-Chuan Su,  E. J. Sundstrom,  Zhen Tao,  
 J. Thirman,  T. Tsuchimochi,  N. M. Tubman,  S. P. Veccham,  O. Vydrov,  
 J. Wenzel,  J. Witte,  A. Yamada,  Kun Yao,  S. Yeganeh,  S. R. Yost,  
 A. Zech,  Igor Ying Zhang,  Xing Zhang,  Yu Zhang,  D. Zuev,  
 A. Aspuru-Guzik,  A. T. Bell,  N. A. Besley,  K. B. Bravaya,  B. R. Brooks,  
 D. Casanova,  Jeng-Da Chai,  S. Coriani,  C. J. Cramer,  
 A. E. DePrince, III,  R. A. DiStasio Jr.,  A. Dreuw,  B. D. Dunietz,  
 T. R. Furlani,  W. A. Goddard III,  S. Grimme,  S. Hammes-Schiffer,  
 T. Head-Gordon,  W. J. Hehre,  Chao-Ping Hsu,  T.-C. Jagau,  Yousung Jung,  
 A. Klamt,  Jing Kong,  D. S. Lambrecht,  WanZhen Liang,  N. J. Mayhall,  
 C. W. McCurdy,  J. B. Neaton,  C. Ochsenfeld,  J. A. Parkhill,  R. Peverati,  
 V. A. Rassolov,  Yihan Shao,  L. V. Slipchenko,  T. Stauch,  R. P. Steele,  
 J. E. Subotnik,  A. J. W. Thom,  A. Tkatchenko,  D. G. Truhlar,  
 T. Van Voorhis,  T. A. Wesolowski,  K. B. Whaley,  H. L. Woodcock III,  
 P. M. Zimmerman,  S. Faraji,  P. M. W. Gill,  M. Head-Gordon,  
 J. M. Herbert,  A. I. Krylov

 Contributors to earlier versions of Q-Chem not listed above: 
 R. D. Adamson,  B. Austin,  R. Baer,  J. Baker,  G. J. O. Beran,  
 K. Brandhorst,  S. T. Brown,  E. F. C. Byrd,  A. K. Chakraborty,  
 G. K. L. Chan,  Chun-Min Chang,  Yunqing Chen,  C.-L. Cheng,  
 Siu Hung Chien,  D. M. Chipman,  D. L. Crittenden,  H. Dachsel,  
 R. J. Doerksen,  A. D. Dutoi,  R. G. Edgar,  J. Fosso-Tande,  
 L. Fusti-Molnar,  D. Ghosh,  A. Ghysels,  A. Golubeva-Zadorozhnaya,  
 J. Gonthier,  M. S. Gordon,  S. R. Gwaltney,  G. Hawkins,  J. E. Herr,  
 A. Heyden,  S. Hirata,  E. G. Hohenstein,  G. Kedziora,  F. J. Keil,  
 C. Kelley,  Jihan Kim,  R. A. King,  R. Z. Khaliullin,  P. P. Korambath,  
 W. Kurlancheek,  A. Laurent,  A. M. Lee,  M. S. Lee,  S. V. Levchenko,  
 Ching Yeh Lin,  D. Liotard,  E. Livshits,  R. C. Lochan,  I. Lotan,  
 L. A. Martinez-Martinez,  P. E. Maslen,  N. Nair,  D. P. O'Neill,  
 D. Neuhauser,  E. Neuscamman,  C. M. Oana,  R. Olivares-Amaya,  R. Olson,  
 T. M. Perrine,  B. Peters,  P. A. Pieniazek,  A. Prociuk,  Y. M. Rhee,  
 J. Ritchie,  M. A. Rohrdanz,  E. Rosta,  N. J. Russ,  H. F. Schaefer III,  
 M. W. Schmidt,  N. E. Schultz,  S. Sharma,  N. Shenvi,  C. D. Sherrill,  
 A. C. Simmonett,  A. Sodt,  T. Stein,  D. Stuck,  K. S. Thanthiriwatte,  
 V. Vanovschi,  L. Vogt,  Tao Wang,  A. Warshel,  M. A. Watson,  
 C. F. Williams,  Q. Wu,  X. Xu,  Jun Yang,  W. Zhang,  Yan Zhao

 Please cite Q-Chem as follows:
 Y. Shao et al., Mol. Phys. 113, 184-215 (2015)
 DOI: 10.1080/00268976.2014.952696

 Q-Chem 5.4.0 for Intel X86 EM64T Linux

 Parts of Q-Chem use Armadillo 9.800.1 (Horizon Scraper).
 http://arma.sourceforge.net/

 Q-Chem begins on Tue Jun 11 17:26:55 2024  

 Host: 
0

     Scratch files written to /expanse/lustre/scratch/selhajj/temp_project/qcscratch/31246021/qchem1752783//
 May1621 |scratch|qcdevops|jenkins|workspace|build_RNUM    
 Processing $rem in /cm/shared/apps/spack/cpu/opt/spack/linux-centos8-zen2/gcc-10.2.0/qchem-5.4-akfmr7b3t57bfs6qan3padb2wnb2i7cl/config/preferences:
 Processing $rem in /home/selhajj/.qchemrc:
 Symmetry turned off for PCM/SM12/SMD calculation

 Checking the input file for inconsistencies... 	...done.

--------------------------------------------------------------
User input:
--------------------------------------------------------------
$molecule
0 1
C                  2.6459100000     -0.3449820000     -1.9403270000
C                  2.6265670000     -0.0049550000     -0.4286720000
C                  2.8290460000      1.5177390000     -0.2250340000
C                  3.8158150000     -0.7295020000      0.2310010000
C                  1.2940280000     -0.4465800000      0.1932220000
C                  1.2157050000     -1.3515420000      1.1856870000
C                 -0.0625570000     -1.7766030000      1.7832300000
O                 -0.0916130000     -2.6032820000      2.6855790000
C                 -1.3048220000     -1.1781250000      1.2633530000
C                 -1.3191520000     -0.2665390000      0.2739630000
C                  0.0054860000      0.1552360000     -0.3239980000
O                  0.0345440000      0.9803010000     -1.2226210000
C                 -2.6142160000      0.3565780000     -0.2664350000
C                 -2.7733120000      0.0286640000     -1.7724900000
C                 -3.8487100000     -0.2003080000      0.4686400000
C                 -2.5925850000      1.8917950000     -0.0573440000
H                  3.6190010000     -0.0731730000     -2.3596810000
H                  2.5028780000     -1.4179630000     -2.0995220000
H                  1.8746620000      0.1952680000     -2.4861040000
H                  2.0617090000      2.0990180000     -0.7328700000
H                  3.8040360000      1.8097150000     -0.6260310000
H                  2.8167230000      1.7729250000      0.8388330000
H                  3.7602960000     -1.8139120000      0.1017460000
H                  3.8888510000     -0.5119890000      1.3001450000
H                  4.7430890000     -0.3903380000     -0.2369140000
H                  2.0885820000     -1.8284470000      1.6118050000
H                 -2.2069950000     -1.5328520000      1.7441640000
H                 -3.7238150000      0.4333020000     -2.1322870000
H                 -2.7890870000     -1.0531410000     -1.9354100000
H                 -1.9702630000      0.4600660000     -2.3671180000
H                 -3.8247700000      0.0205180000      1.5393270000
H                 -4.7476630000      0.2652840000      0.0576510000
H                 -3.9511250000     -1.2814580000      0.3407880000
H                 -3.5413970000      2.3165190000     -0.3979570000
H                 -2.4789210000      2.1384390000      1.0025300000
H                 -1.7859240000      2.3643260000     -0.6146460000
$end
$rem
MAX_SCF_CYCLES=200
BASIS  =  6-311++G(d,p)
GUI  =  2
JOB_TYPE  =  SP
METHOD  =  B3LYP
SOLVENT_METHOD = PCM
$end
$pcm
theory = CPCM
$end
$solvent
dielectric 37.219
opticaldielectric 1.43
$end





--------------------------------------------------------------
 ----------------------------------------------------------------
             Standard Nuclear Orientation (Angstroms)
    I     Atom           X                Y                Z
 ----------------------------------------------------------------
    1      C       2.6459100000    -0.3449820000    -1.9403270000
    2      C       2.6265670000    -0.0049550000    -0.4286720000
    3      C       2.8290460000     1.5177390000    -0.2250340000
    4      C       3.8158150000    -0.7295020000     0.2310010000
    5      C       1.2940280000    -0.4465800000     0.1932220000
    6      C       1.2157050000    -1.3515420000     1.1856870000
    7      C      -0.0625570000    -1.7766030000     1.7832300000
    8      O      -0.0916130000    -2.6032820000     2.6855790000
    9      C      -1.3048220000    -1.1781250000     1.2633530000
   10      C      -1.3191520000    -0.2665390000     0.2739630000
   11      C       0.0054860000     0.1552360000    -0.3239980000
   12      O       0.0345440000     0.9803010000    -1.2226210000
   13      C      -2.6142160000     0.3565780000    -0.2664350000
   14      C      -2.7733120000     0.0286640000    -1.7724900000
   15      C      -3.8487100000    -0.2003080000     0.4686400000
   16      C      -2.5925850000     1.8917950000    -0.0573440000
   17      H       3.6190010000    -0.0731730000    -2.3596810000
   18      H       2.5028780000    -1.4179630000    -2.0995220000
   19      H       1.8746620000     0.1952680000    -2.4861040000
   20      H       2.0617090000     2.0990180000    -0.7328700000
   21      H       3.8040360000     1.8097150000    -0.6260310000
   22      H       2.8167230000     1.7729250000     0.8388330000
   23      H       3.7602960000    -1.8139120000     0.1017460000
   24      H       3.8888510000    -0.5119890000     1.3001450000
   25      H       4.7430890000    -0.3903380000    -0.2369140000
   26      H       2.0885820000    -1.8284470000     1.6118050000
   27      H      -2.2069950000    -1.5328520000     1.7441640000
   28      H      -3.7238150000     0.4333020000    -2.1322870000
   29      H      -2.7890870000    -1.0531410000    -1.9354100000
   30      H      -1.9702630000     0.4600660000    -2.3671180000
   31      H      -3.8247700000     0.0205180000     1.5393270000
   32      H      -4.7476630000     0.2652840000     0.0576510000
   33      H      -3.9511250000    -1.2814580000     0.3407880000
   34      H      -3.5413970000     2.3165190000    -0.3979570000
   35      H      -2.4789210000     2.1384390000     1.0025300000
   36      H      -1.7859240000     2.3643260000    -0.6146460000
 ----------------------------------------------------------------
 Nuclear Repulsion Energy =        1144.54654388 hartrees
 There are       60 alpha and       60 beta electrons
 Requested basis set is 6-311++G(d,p)
 There are 196 shells and 492 basis functions

 Total QAlloc Memory Limit   8000 MB
 Mega-Array Size       188 MB
 MEM_STATIC part       192 MB
 Discretize the solute cavity surface with Lebedev spheres
	Using 110 Lebedev grid points for each H atom
	Using 194 Lebedev grid points for other atoms
	Atomic van der Waals radii will be scaled by 1.20
 Remove points where switching function is < 1.0e-08
 Keep 2150 surface tesserae and discard 3154 interior tesserae
 Molecular Surface Area = 280.161 Angst**2
 A cutoff of  1.0D-08 yielded  14123 shell pairs
 There are     89943 function pairs (     95366 Cartesian)
 Smallest overlap matrix eigenvalue = 2.74E-07

 Q-Chem warning in module stvman/mkSTV.C, line 323:

 Overlap eigenvalue is smaller than square root of threshold
 Use THRESH >= 12 to get rid of this warning

 Linear dependence detected in AO basis
 Tighter screening thresholds may be required for diffuse basis sets
 Use S2THRESH > 14 and THRESH = 14 in case of SCF convergence issues
 Number of orthogonalized atomic orbitals = 488
 Maximum deviation from orthogonality = 1.651E-10

 Scale SEOQF with 1.000000e-01/1.000000e-01/1.000000e-01

 Standard Electronic Orientation quadrupole field applied
 Nucleus-field energy     =     0.0000000166 hartrees
 Guess from superposition of atomic densities
 Warning:  Energy on first SCF cycle will be non-variational
 SAD guess density has 120.000000 electrons

 -----------------------------------------------------------------------
  General SCF calculation program by
  Eric Jon Sundstrom, Paul Horn, Yuezhi Mao, Dmitri Zuev, Alec White,
  David Stuck, Shaama M.S., Shane Yost, Joonho Lee, David Small,
  Daniel Levine, Susi Lehtola, Hugh Burton, Evgeny Epifanovsky,
  Bang C. Huynh
 -----------------------------------------------------------------------
 Exchange:     0.2000 Hartree-Fock + 0.0800 Slater + 0.7200 B88
 Correlation:  0.1900 VWN1RPA + 0.8100 LYP
 Using SG-1 standard quadrature grid
 using 8 threads for integral computing
 -------------------------------------------------------
 OpenMP Integral computing Module                
 Release: version 1.0, May 2013, Q-Chem Inc. Pittsburgh 
 -------------------------------------------------------
 A restricted SCF calculation will be
 performed using DIIS
 SCF converges when DIIS error is below 1.0e-05
 ---------------------------------------
  Cycle       Energy         DIIS error
 ---------------------------------------
    1    -699.2339200233      2.77e-02  
    2    -695.7846503506      3.70e-03  
    3    -695.4690302804      5.23e-03  
    4    -696.1261832305      1.30e-03  
    5    -696.1664266405      2.49e-04  
    6    -696.1677193437      8.96e-05  
    7    -696.1679391633      2.20e-05  
    8    -696.1679433430      1.22e-05  
    9    -696.1679361075      3.00e-06  Convergence criterion met
 ---------------------------------------
 SCF time:   CPU 483.18s  wall 66.00s 

************** Final PCM Free Energy Summary **************
 G_electrostatic  =      -0.01228377 hartree =      -7.70818394 kcal/mol
 G_cavitation     =       0.00000000 hartree =       0.00000000 kcal/mol
 G_dispersion     =       0.00000000 hartree =       0.00000000 kcal/mol
 G_repulsion      =       0.00000000 hartree =       0.00000000 kcal/mol
 --------------------------------------------------
 Non-electrostatic Free Energy =       0.00000000 hartree =       0.00000000 kcal/mol
 Total                         =      -0.01228377 hartree =      -7.70818394 kcal/mol
 --------------------------------------------------
 SCF Energy (H0 + V/2)                       =    -696.16793611 
 Solute Internal Energy (H0)                 =    -696.15565233 
 Total Free Energy (H0 + V/2 + non-elec)     =    -696.16793611 hartree
                                             = -436851.97331399 kcal/mol
***********************************************************

 SCF   energy in the final basis set =     -696.1679361075
 Total energy in the final basis set =     -696.1679361075
 
 --------------------------------------------------------------
 
                    Orbital Energies (a.u.)
 --------------------------------------------------------------
 
 Alpha MOs
 -- Occupied --
-19.1375 -19.1355 -10.2863 -10.2784 -10.2143 -10.2143 -10.2001 -10.2001
-10.1960 -10.1960 -10.1573 -10.1572 -10.1561 -10.1561 -10.1561 -10.1561
 -1.0723  -1.0650  -0.8670  -0.8419  -0.8044  -0.7617  -0.7017  -0.6891
 -0.6866  -0.6861  -0.6839  -0.6381  -0.6086  -0.5562  -0.5415  -0.5222
 -0.5031  -0.4777  -0.4716  -0.4551  -0.4492  -0.4446  -0.4412  -0.4374
 -0.4314  -0.4214  -0.4142  -0.4034  -0.3923  -0.3824  -0.3797  -0.3771
 -0.3663  -0.3639  -0.3542  -0.3533  -0.3400  -0.3386  -0.3383  -0.3303
 -0.2994  -0.2824  -0.2819  -0.2666
 -- Virtual --
 -0.1289  -0.0207  -0.0067  -0.0031   0.0033   0.0116   0.0174   0.0209
  0.0242   0.0296   0.0346   0.0347   0.0408   0.0421   0.0509   0.0537
  0.0572   0.0577   0.0693   0.0711   0.0777   0.0800   0.0818   0.0819
  0.0910   0.0953   0.0990   0.1028   0.1045   0.1057   0.1160   0.1186
  0.1210   0.1221   0.1247   0.1273   0.1291   0.1297   0.1327   0.1384
  0.1444   0.1456   0.1474   0.1500   0.1516   0.1543   0.1545   0.1563
  0.1590   0.1641   0.1649   0.1668   0.1683   0.1719   0.1738   0.1769
  0.1872   0.1873   0.1885   0.1909   0.1929   0.1944   0.1955   0.1987
  0.1988   0.2053   0.2061   0.2117   0.2190   0.2191   0.2192   0.2219
  0.2228   0.2327   0.2398   0.2474   0.2503   0.2510   0.2593   0.2600
  0.2656   0.2680   0.2686   0.2703   0.2863   0.2871   0.2893   0.2929
  0.2969   0.3034   0.3058   0.3134   0.3171   0.3199   0.3205   0.3239
  0.3276   0.3411   0.3419   0.3467   0.3572   0.3583   0.3655   0.3690
  0.3693   0.3698   0.3740   0.3747   0.3840   0.3885   0.4007   0.4099
  0.4108   0.4234   0.4328   0.4534   0.4590   0.4666   0.4681   0.4783
  0.4811   0.5091   0.5155   0.5250   0.5328   0.5341   0.5374   0.5550
  0.5716   0.5769   0.5777   0.5791   0.5845   0.5899   0.5959   0.6105
  0.6159   0.6174   0.6248   0.6283   0.6304   0.6446   0.6532   0.6627
  0.6627   0.6631   0.6688   0.6725   0.6731   0.6780   0.6835   0.6861
  0.6987   0.7063   0.7073   0.7121   0.7156   0.7208   0.7294   0.7346
  0.7371   0.7443   0.7493   0.7501   0.7656   0.7846   0.7922   0.7923
  0.8091   0.8111   0.8261   0.8292   0.8300   0.8438   0.8477   0.8718
  0.9019   0.9144   0.9153   0.9183   0.9272   0.9351   0.9353   0.9451
  0.9712   0.9733   0.9821   0.9866   1.0207   1.0466   1.0495   1.0533
  1.0641   1.0708   1.1045   1.1057   1.1236   1.1264   1.1501   1.1603
  1.1660   1.1868   1.2036   1.2123   1.2245   1.2309   1.2558   1.2578
  1.2651   1.2888   1.2928   1.2975   1.3209   1.3681   1.4198   1.4388
  1.4462   1.4500   1.4574   1.4590   1.4623   1.4631   1.4663   1.4728
  1.4728   1.4822   1.4975   1.5002   1.5086   1.5280   1.5343   1.5432
  1.5515   1.5551   1.5633   1.5949   1.6035   1.6071   1.6085   1.6088
  1.6301   1.6374   1.6427   1.6495   1.6564   1.6643   1.6713   1.6822
  1.7045   1.7169   1.7182   1.7215   1.7254   1.7276   1.7474   1.7517
  1.7521   1.7548   1.7694   1.7848   1.7998   1.8020   1.8027   1.8063
  1.8100   1.8169   1.8482   1.8498   1.8637   1.8926   1.9070   1.9157
  1.9243   1.9273   1.9662   1.9710   1.9929   1.9990   1.9991   2.0105
  2.0228   2.0517   2.0737   2.0780   2.0953   2.1104   2.1106   2.1211
  2.1367   2.1497   2.1694   2.1735   2.2134   2.2164   2.2246   2.2377
  2.2378   2.2516   2.2545   2.2665   2.2899   2.3539   2.3573   2.3624
  2.4416   2.4435   2.4528   2.4659   2.4679   2.5087   2.5193   2.5218
  2.5234   2.5279   2.5315   2.5325   2.5334   2.5381   2.5521   2.5588
  2.5629   2.5719   2.5847   2.5922   2.5959   2.5984   2.6205   2.6290
  2.6372   2.6456   2.6632   2.6731   2.6788   2.6939   2.6969   2.7403
  2.7538   2.7611   2.7738   2.7849   2.7930   2.8025   2.8171   2.8176
  2.8239   2.8509   2.8538   2.8855   2.8886   2.8939   2.9047   2.9101
  2.9293   2.9358   2.9881   3.0014   3.0280   3.0303   3.0318   3.0755
  3.0936   3.1098   3.1187   3.1493   3.1636   3.2003   3.2095   3.2209
  3.2455   3.2586   3.2691   3.3017   3.3274   3.3287   3.3508   3.3975
  3.4731   3.5619   3.5950   3.6547   3.6591   3.7025   3.7444   3.7785
  3.7820   3.7946   3.7984   3.8126   3.8201   3.8242   3.8274   3.8392
  3.8631   3.8649   3.8863   3.8929   4.1067   4.1242   4.1882   4.2498
  4.2736   4.2764   4.2788   4.3914   4.4172   4.7034   5.0425   5.1013
  5.2125   5.3456   5.7201   5.8041  23.6370  23.7618  23.7737  23.8175
 23.8691  23.9067  23.9804  23.9862  23.9942  23.9951  24.0080  24.0182
 24.1749  24.2238  49.9933  50.0414
 --------------------------------------------------------------
 
          Ground-State Mulliken Net Atomic Charges

     Atom                 Charge (a.u.)
  ----------------------------------------
      1 C                    -0.732966
      2 C                     0.696062
      3 C                    -0.731656
      4 C                    -0.483290
      5 C                     0.709464
      6 C                    -0.289780
      7 C                    -0.598833
      8 O                    -0.318487
      9 C                    -0.291041
     10 C                     0.715837
     11 C                    -0.734813
     12 O                    -0.199604
     13 C                     0.696263
     14 C                    -0.732492
     15 C                    -0.482988
     16 C                    -0.734248
     17 H                     0.174687
     18 H                     0.159865
     19 H                     0.173915
     20 H                     0.174593
     21 H                     0.174710
     22 H                     0.159409
     23 H                     0.147025
     24 H                     0.147343
     25 H                     0.188091
     26 H                     0.256276
     27 H                     0.256552
     28 H                     0.174710
     29 H                     0.159529
     30 H                     0.174431
     31 H                     0.146979
     32 H                     0.188228
     33 H                     0.147329
     34 H                     0.174908
     35 H                     0.159710
     36 H                     0.174279
  ----------------------------------------
  Sum of atomic charges =     0.000000

 -----------------------------------------------------------------
                    Cartesian Multipole Moments
 -----------------------------------------------------------------
    Charge (ESU x 10^10)
                 0.0000
    Dipole Moment (Debye)
         X       0.0517      Y       1.4693      Z      -1.6050
       Tot       2.1766
    Quadrupole Moments (Debye-Ang)
        XX     -85.5089     XY      -1.3269     YY    -110.2262
        XZ       0.0051     YZ      12.0759     ZZ    -111.9199
    Octopole Moments (Debye-Ang^2)
       XXX       1.8575    XXY      17.6457    XYY       1.5872
       YYY      82.3866    XXZ      -5.9718    XYZ      -0.9980
       YYZ     -36.3744    XZZ       2.0141    YZZ      51.4326
       ZZZ     -44.3294
    Hexadecapole Moments (Debye-Ang^3)
      XXXX   -3389.0021   XXXY      86.9152   XXYY    -743.3841
      XYYY      90.9797   YYYY   -1088.6562   XXXZ      49.2336
      XXYZ      67.3761   XYYZ      24.7858   YYYZ     361.1231
      XXZZ    -750.2793   XYZZ      28.6677   YYZZ    -447.0457
      XZZZ      59.0891   YZZZ     369.7669   ZZZZ   -1168.9440
 -----------------------------------------------------------------
 Total job time:  87.96s(wall), 493.32s(cpu) 
 Tue Jun 11 17:28:23 2024

        *************************************************************
        *                                                           *
        *  Thank you very much for using Q-Chem.  Have a nice day.  *
        *                                                           *
        *************************************************************


