
Running Job 1 of 1 341-rad-CPCM.in
qchem 341-rad-CPCM.in_1630452.0 /expanse/lustre/scratch/selhajj/temp_project/qcscratch/31258524/qchem1630452/ 0
/cm/shared/apps/spack/cpu/opt/spack/linux-centos8-zen2/gcc-10.2.0/qchem-5.4-akfmr7b3t57bfs6qan3padb2wnb2i7cl/exe/qcprog.exe_s 341-rad-CPCM.in_1630452.0 /expanse/lustre/scratch/selhajj/temp_project/qcscratch/31258524/qchem1630452/
                  Welcome to Q-Chem
     A Quantum Leap Into The Future Of Chemistry


 Q-Chem 5.4, Q-Chem, Inc., Pleasanton, CA (2021)

 License issued to: University of California, San Diego (site)

 E. Epifanovsky,  A. T. B. Gilbert,  Xintian Feng,  Joonho Lee,  Yuezhi Mao,  
 N. Mardirossian,  P. Pokhilko,  A. White,  M. Wormit,  M. P. Coons,  
 A. L. Dempwolff,  Zhengting Gan,  D. Hait,  P. R. Horn,  L. D. Jacobson,  
 I. Kaliman,  J. Kussmann,  A. W. Lange,  Ka Un Lao,  D. S. Levine,  Jie Liu,  
 S. C. McKenzie,  A. F. Morrison,  K. Nanda,  F. Plasser,  D. R. Rehn,  
 M. L. Vidal,  Zhi-Qiang You,  Ying Zhu,  B. Alam,  B. Albrecht,  
 A. Aldossary,  E. Alguire,  J. H. Andersen,  D. Barton,  K. Begam,  A. Behn,  
 Y. A. Bernard,  E. J. Berquist,  H. Burton,  A. Carreras,  K. Carter-Fenk,  
 R. Chakraborty,  A. D. Chien,  K. D. Closser,  V. Cofer-Shabica,  
 S. Dasgupta,  Jia Deng,  M. de Wergifosse,  M. Diedenhofen,  Hainam Do,  
 S. Ehlert,  Po-Tung Fang,  S. Fatehi,  Qingguo Feng,  J. Gayvert,  
 Qinghui Ge,  G. Gidofalvi,  M. Goldey,  J. Gomes,  C. Gonzalez-Espinoza,  
 S. Gulania,  A. Gunina,  M. W. D. Hanson-Heine,  P. H. P. Harbach,  
 A. W. Hauser,  M. F. Herbst,  M. Hernandez Vera,  M. Hodecker,  
 Z. C. Holden,  S. Houck,  Xunkun Huang,  Kerwin Hui,  B. C. Huynh,  
 M. Ivanov,  Hyunjun Ji,  Hanjie Jiang,  B. Kaduk,  S. Kaehler,  
 K. Khistyaev,  Jaehoon Kim,  P. Klunzinger,  Z. Koczor-Benda,  
 Joong Hoon Koh,  D. Kosenkov,  L. Koulias,  T. Kowalczyk,  C. M. Krauter,  
 K. Kue,  A. Kunitsa,  T. Kus,  A. Landau,  K. V. Lawler,  D. Lefrancois,  
 S. Lehtola,  Rain Li,  Yi-Pei Li,  Jiashu Liang,  M. Liebenthal,  
 Hung-Hsuan Lin,  You-Sheng Lin,  Fenglai Liu,  Kuan-Yu Liu,  
 M. Loipersberger,  A. Luenser,  A. Manjanath,  P. Manohar,  E. Mansoor,  
 S. F. Manzer,  Shan-Ping Mao,  A. V. Marenich,  T. Markovich,  S. Mason,  
 S. A. Maurer,  P. F. McLaughlin,  M. F. S. J. Menger,  J.-M. Mewes,  
 S. A. Mewes,  P. Morgante,  J. W. Mullinax,  T. S. Nguyen-Beck,  
 K. J. Oosterbaan,  G. Paran,  Alexander C. Paul,  Suranjan K. Paul,  
 F. Pavosevic,  Zheng Pei,  S. Prager,  E. I. Proynov,  E. Ramos,  B. Rana,  
 A. E. Rask,  A. Rettig,  R. M. Richard,  F. Rob,  E. Rossomme,  T. Scheele,  
 M. Scheurer,  M. Schneider,  N. Sergueev,  S. M. Sharada,  W. Skomorowski,  
 D. W. Small,  C. J. Stein,  Yu-Chuan Su,  E. J. Sundstrom,  Zhen Tao,  
 J. Thirman,  T. Tsuchimochi,  N. M. Tubman,  S. P. Veccham,  O. Vydrov,  
 J. Wenzel,  J. Witte,  A. Yamada,  Kun Yao,  S. Yeganeh,  S. R. Yost,  
 A. Zech,  Igor Ying Zhang,  Xing Zhang,  Yu Zhang,  D. Zuev,  
 A. Aspuru-Guzik,  A. T. Bell,  N. A. Besley,  K. B. Bravaya,  B. R. Brooks,  
 D. Casanova,  Jeng-Da Chai,  S. Coriani,  C. J. Cramer,  
 A. E. DePrince, III,  R. A. DiStasio Jr.,  A. Dreuw,  B. D. Dunietz,  
 T. R. Furlani,  W. A. Goddard III,  S. Grimme,  S. Hammes-Schiffer,  
 T. Head-Gordon,  W. J. Hehre,  Chao-Ping Hsu,  T.-C. Jagau,  Yousung Jung,  
 A. Klamt,  Jing Kong,  D. S. Lambrecht,  WanZhen Liang,  N. J. Mayhall,  
 C. W. McCurdy,  J. B. Neaton,  C. Ochsenfeld,  J. A. Parkhill,  R. Peverati,  
 V. A. Rassolov,  Yihan Shao,  L. V. Slipchenko,  T. Stauch,  R. P. Steele,  
 J. E. Subotnik,  A. J. W. Thom,  A. Tkatchenko,  D. G. Truhlar,  
 T. Van Voorhis,  T. A. Wesolowski,  K. B. Whaley,  H. L. Woodcock III,  
 P. M. Zimmerman,  S. Faraji,  P. M. W. Gill,  M. Head-Gordon,  
 J. M. Herbert,  A. I. Krylov

 Contributors to earlier versions of Q-Chem not listed above: 
 R. D. Adamson,  B. Austin,  R. Baer,  J. Baker,  G. J. O. Beran,  
 K. Brandhorst,  S. T. Brown,  E. F. C. Byrd,  A. K. Chakraborty,  
 G. K. L. Chan,  Chun-Min Chang,  Yunqing Chen,  C.-L. Cheng,  
 Siu Hung Chien,  D. M. Chipman,  D. L. Crittenden,  H. Dachsel,  
 R. J. Doerksen,  A. D. Dutoi,  R. G. Edgar,  J. Fosso-Tande,  
 L. Fusti-Molnar,  D. Ghosh,  A. Ghysels,  A. Golubeva-Zadorozhnaya,  
 J. Gonthier,  M. S. Gordon,  S. R. Gwaltney,  G. Hawkins,  J. E. Herr,  
 A. Heyden,  S. Hirata,  E. G. Hohenstein,  G. Kedziora,  F. J. Keil,  
 C. Kelley,  Jihan Kim,  R. A. King,  R. Z. Khaliullin,  P. P. Korambath,  
 W. Kurlancheek,  A. Laurent,  A. M. Lee,  M. S. Lee,  S. V. Levchenko,  
 Ching Yeh Lin,  D. Liotard,  E. Livshits,  R. C. Lochan,  I. Lotan,  
 L. A. Martinez-Martinez,  P. E. Maslen,  N. Nair,  D. P. O'Neill,  
 D. Neuhauser,  E. Neuscamman,  C. M. Oana,  R. Olivares-Amaya,  R. Olson,  
 T. M. Perrine,  B. Peters,  P. A. Pieniazek,  A. Prociuk,  Y. M. Rhee,  
 J. Ritchie,  M. A. Rohrdanz,  E. Rosta,  N. J. Russ,  H. F. Schaefer III,  
 M. W. Schmidt,  N. E. Schultz,  S. Sharma,  N. Shenvi,  C. D. Sherrill,  
 A. C. Simmonett,  A. Sodt,  T. Stein,  D. Stuck,  K. S. Thanthiriwatte,  
 V. Vanovschi,  L. Vogt,  Tao Wang,  A. Warshel,  M. A. Watson,  
 C. F. Williams,  Q. Wu,  X. Xu,  Jun Yang,  W. Zhang,  Yan Zhao

 Please cite Q-Chem as follows:
 Y. Shao et al., Mol. Phys. 113, 184-215 (2015)
 DOI: 10.1080/00268976.2014.952696

 Q-Chem 5.4.0 for Intel X86 EM64T Linux

 Parts of Q-Chem use Armadillo 9.800.1 (Horizon Scraper).
 http://arma.sourceforge.net/

 Q-Chem begins on Wed Jun 12 03:15:36 2024  

 Host: 
0

     Scratch files written to /expanse/lustre/scratch/selhajj/temp_project/qcscratch/31258524/qchem1630452//
 May1621 |scratch|qcdevops|jenkins|workspace|build_RNUM    
 Processing $rem in /cm/shared/apps/spack/cpu/opt/spack/linux-centos8-zen2/gcc-10.2.0/qchem-5.4-akfmr7b3t57bfs6qan3padb2wnb2i7cl/config/preferences:
 Processing $rem in /home/selhajj/.qchemrc:
 Symmetry turned off for PCM/SM12/SMD calculation

 Checking the input file for inconsistencies... 	...done.

--------------------------------------------------------------
User input:
--------------------------------------------------------------
$molecule
-1 2
C                 -0.3395910000     -2.0609520000      0.9148760000
C                 -0.2320890000     -0.9529620000     -0.1694210000
C                 -0.5450530000     -1.5703230000     -1.5606760000
C                 -1.2775810000      0.1348230000      0.1328000000
C                 -2.6297520000     -0.2092510000      0.1773290000
C                 -3.6339190000      0.7303620000      0.4464830000
C                 -3.2671150000      2.0618070000      0.6787330000
C                 -1.9337970000      2.4302420000      0.6405500000
C                 -0.9076910000      1.4858520000      0.3689240000
C                  0.4738150000      1.9455390000      0.3453440000
O                  0.7701640000      3.1623490000      0.5613310000
C                  1.5017370000      0.9531700000      0.0641530000
C                  2.8594910000      1.3705400000      0.0345500000
C                  3.8864410000      0.4805060000     -0.2265730000
C                  3.6004720000     -0.8686200000     -0.4700520000
C                  2.2645890000     -1.2909400000     -0.4431240000
C                  1.2094790000     -0.4149230000     -0.1823790000
H                  0.3710500000     -2.8701990000      0.7240240000
H                 -1.3455070000     -2.4895170000      0.9427420000
H                 -0.1214460000     -1.6437900000      1.9010240000
H                 -1.5552040000     -1.9888460000     -1.5885830000
H                 -0.4742730000     -0.8038330000     -2.3363230000
H                  0.1617200000     -2.3680100000     -1.8066360000
H                 -2.9261380000     -1.2385330000     -0.0015870000
H                 -4.6751240000      0.4251030000      0.4728560000
H                 -4.0297530000      2.8074180000      0.8893260000
H                 -1.6203260000      3.4522930000      0.8162640000
H                  3.0503710000      2.4195770000      0.2263920000
H                  4.9157770000      0.8299410000     -0.2425290000
H                  4.3942390000     -1.5794730000     -0.6764990000
H                  2.0550140000     -2.3393490000     -0.6333200000
$end
$rem
MAX_SCF_CYCLES=200
BASIS  =  6-311++G(d,p)
GUI  =  2
JOB_TYPE  =  SP
METHOD  =  B3LYP
SOLVENT_METHOD = PCM
$end
$pcm
theory = CPCM
$end
$solvent
dielectric 37.219
opticaldielectric 1.43
$end






--------------------------------------------------------------
 ----------------------------------------------------------------
             Standard Nuclear Orientation (Angstroms)
    I     Atom           X                Y                Z
 ----------------------------------------------------------------
    1      C      -0.3395910000    -2.0609520000     0.9148760000
    2      C      -0.2320890000    -0.9529620000    -0.1694210000
    3      C      -0.5450530000    -1.5703230000    -1.5606760000
    4      C      -1.2775810000     0.1348230000     0.1328000000
    5      C      -2.6297520000    -0.2092510000     0.1773290000
    6      C      -3.6339190000     0.7303620000     0.4464830000
    7      C      -3.2671150000     2.0618070000     0.6787330000
    8      C      -1.9337970000     2.4302420000     0.6405500000
    9      C      -0.9076910000     1.4858520000     0.3689240000
   10      C       0.4738150000     1.9455390000     0.3453440000
   11      O       0.7701640000     3.1623490000     0.5613310000
   12      C       1.5017370000     0.9531700000     0.0641530000
   13      C       2.8594910000     1.3705400000     0.0345500000
   14      C       3.8864410000     0.4805060000    -0.2265730000
   15      C       3.6004720000    -0.8686200000    -0.4700520000
   16      C       2.2645890000    -1.2909400000    -0.4431240000
   17      C       1.2094790000    -0.4149230000    -0.1823790000
   18      H       0.3710500000    -2.8701990000     0.7240240000
   19      H      -1.3455070000    -2.4895170000     0.9427420000
   20      H      -0.1214460000    -1.6437900000     1.9010240000
   21      H      -1.5552040000    -1.9888460000    -1.5885830000
   22      H      -0.4742730000    -0.8038330000    -2.3363230000
   23      H       0.1617200000    -2.3680100000    -1.8066360000
   24      H      -2.9261380000    -1.2385330000    -0.0015870000
   25      H      -4.6751240000     0.4251030000     0.4728560000
   26      H      -4.0297530000     2.8074180000     0.8893260000
   27      H      -1.6203260000     3.4522930000     0.8162640000
   28      H       3.0503710000     2.4195770000     0.2263920000
   29      H       4.9157770000     0.8299410000    -0.2425290000
   30      H       4.3942390000    -1.5794730000    -0.6764990000
   31      H       2.0550140000    -2.3393490000    -0.6333200000
 ----------------------------------------------------------------
 Nuclear Repulsion Energy =        1139.47676562 hartrees
 There are       60 alpha and       59 beta electrons
 Requested basis set is 6-311++G(d,p)
 There are 172 shells and 472 basis functions

 Total QAlloc Memory Limit   8000 MB
 Mega-Array Size       188 MB
 MEM_STATIC part       192 MB
 Discretize the solute cavity surface with Lebedev spheres
	Using 110 Lebedev grid points for each H atom
	Using 194 Lebedev grid points for other atoms
	Atomic van der Waals radii will be scaled by 1.20
 Remove points where switching function is < 1.0e-08
 Keep 1897 surface tesserae and discard 2941 interior tesserae
 Molecular Surface Area = 259.751 Angst**2
 A cutoff of  1.0D-08 yielded  11012 shell pairs
 There are     84978 function pairs (     90655 Cartesian)
 Smallest overlap matrix eigenvalue = 5.38E-08

 Q-Chem warning in module stvman/mkSTV.C, line 323:

 Overlap eigenvalue is smaller than square root of threshold
 Use THRESH >= 12 to get rid of this warning

 Linear dependence detected in AO basis
 Tighter screening thresholds may be required for diffuse basis sets
 Use S2THRESH > 14 and THRESH = 14 in case of SCF convergence issues
 Number of orthogonalized atomic orbitals = 464
 Maximum deviation from orthogonality = 6.744E-11

 Scale SEOQF with 1.000000e-01/1.000000e-01/1.000000e-01

 Standard Electronic Orientation quadrupole field applied
 Nucleus-field energy     =     0.0000000393 hartrees
 Guess from superposition of atomic densities
 Warning:  Energy on first SCF cycle will be non-variational
 SAD guess density has 118.000000 electrons

 -----------------------------------------------------------------------
  General SCF calculation program by
  Eric Jon Sundstrom, Paul Horn, Yuezhi Mao, Dmitri Zuev, Alec White,
  David Stuck, Shaama M.S., Shane Yost, Joonho Lee, David Small,
  Daniel Levine, Susi Lehtola, Hugh Burton, Evgeny Epifanovsky,
  Bang C. Huynh
 -----------------------------------------------------------------------
 Exchange:     0.2000 Hartree-Fock + 0.0800 Slater + 0.7200 B88
 Correlation:  0.1900 VWN1RPA + 0.8100 LYP
 Using SG-1 standard quadrature grid
 using 8 threads for integral computing
 -------------------------------------------------------
 OpenMP Integral computing Module                
 Release: version 1.0, May 2013, Q-Chem Inc. Pittsburgh 
 -------------------------------------------------------
 A unrestricted SCF calculation will be
 performed using DIIS
 SCF converges when DIIS error is below 1.0e-05
 ---------------------------------------
  Cycle       Energy         DIIS error
 ---------------------------------------
    1    -697.4848510974      1.50e-02  
    2    -693.3032242836      1.79e-03  
    3    -693.1296405367      2.34e-03  
    4    -693.6338350538      6.14e-04  
    5    -693.6640915955      1.10e-04  
    6    -693.6652330344      3.76e-05  
    7    -693.6653767685      1.75e-05  
    8    -693.6654196351      5.97e-06  Convergence criterion met
 ---------------------------------------
 SCF time:   CPU 433.75s  wall 57.00s 
<S^2> =          0.762527431

************** Final PCM Free Energy Summary **************
 G_electrostatic  =      -0.09197808 hartree =     -57.71711736 kcal/mol
 G_cavitation     =       0.00000000 hartree =       0.00000000 kcal/mol
 G_dispersion     =       0.00000000 hartree =       0.00000000 kcal/mol
 G_repulsion      =       0.00000000 hartree =       0.00000000 kcal/mol
 --------------------------------------------------
 Non-electrostatic Free Energy =       0.00000000 hartree =       0.00000000 kcal/mol
 Total                         =      -0.09197808 hartree =     -57.71711736 kcal/mol
 --------------------------------------------------
 SCF Energy (H0 + V/2)                       =    -693.66541964 
 Solute Internal Energy (H0)                 =    -693.57344155 
 Total Free Energy (H0 + V/2 + non-elec)     =    -693.66541964 hartree
                                             = -435281.62052620 kcal/mol
***********************************************************

 SCF   energy in the final basis set =     -693.6654196351
 Total energy in the final basis set =     -693.6654196351
 
 --------------------------------------------------------------
 
                    Orbital Energies (a.u.)
 --------------------------------------------------------------
 
 Alpha MOs
 -- Occupied --
-19.0504 -10.1927 -10.1877 -10.1689 -10.1688 -10.1595 -10.1595 -10.1581
-10.1581 -10.1572 -10.1572 -10.1567 -10.1567 -10.1517 -10.1517 -10.1513
-10.1513  -0.9739  -0.8593  -0.8376  -0.7992  -0.7539  -0.7352  -0.7262
 -0.7135  -0.6794  -0.6356  -0.6185  -0.5991  -0.5762  -0.5467  -0.5234
 -0.5127  -0.4696  -0.4490  -0.4452  -0.4424  -0.4271  -0.4221  -0.4215
 -0.4059  -0.3935  -0.3898  -0.3884  -0.3825  -0.3708  -0.3601  -0.3517
 -0.3507  -0.3430  -0.3358  -0.3272  -0.3091  -0.3001  -0.2461  -0.2449
 -0.2403  -0.2394  -0.2234  -0.1073
 -- Virtual --
 -0.0090  -0.0060  -0.0030   0.0008   0.0071   0.0116   0.0217   0.0220
  0.0253   0.0338   0.0441   0.0448   0.0488   0.0565   0.0598   0.0606
  0.0660   0.0681   0.0760   0.0784   0.0811   0.0834   0.0977   0.1075
  0.1096   0.1113   0.1179   0.1181   0.1187   0.1210   0.1239   0.1283
  0.1308   0.1313   0.1319   0.1410   0.1411   0.1446   0.1465   0.1502
  0.1511   0.1545   0.1549   0.1634   0.1680   0.1691   0.1717   0.1730
  0.1809   0.1843   0.1861   0.1948   0.2001   0.2027   0.2030   0.2044
  0.2054   0.2097   0.2133   0.2164   0.2178   0.2192   0.2285   0.2300
  0.2333   0.2345   0.2409   0.2450   0.2531   0.2585   0.2606   0.2675
  0.2717   0.2727   0.2799   0.2849   0.2855   0.2910   0.2988   0.2993
  0.3020   0.3133   0.3138   0.3167   0.3199   0.3205   0.3258   0.3286
  0.3317   0.3335   0.3419   0.3444   0.3493   0.3540   0.3701   0.3725
  0.3728   0.3751   0.3790   0.3845   0.4015   0.4087   0.4216   0.4265
  0.4410   0.4487   0.4508   0.4634   0.4776   0.4920   0.5036   0.5079
  0.5323   0.5353   0.5526   0.5591   0.5593   0.5621   0.5642   0.5727
  0.5785   0.5813   0.5938   0.5953   0.5981   0.6069   0.6224   0.6249
  0.6293   0.6317   0.6384   0.6452   0.6477   0.6661   0.6732   0.6736
  0.6780   0.6832   0.6860   0.6909   0.7081   0.7107   0.7115   0.7180
  0.7255   0.7320   0.7418   0.7452   0.7498   0.7682   0.7745   0.7756
  0.7842   0.7902   0.7970   0.8035   0.8101   0.8103   0.8334   0.8439
  0.8465   0.8670   0.8732   0.8770   0.8838   0.8986   0.9030   0.9202
  0.9230   0.9457   0.9508   0.9520   0.9581   0.9604   0.9688   0.9720
  0.9937   1.0014   1.0187   1.0227   1.0311   1.0427   1.0568   1.0619
  1.0626   1.0773   1.0870   1.0981   1.1148   1.1180   1.1468   1.1493
  1.1605   1.1634   1.1871   1.1905   1.1986   1.2257   1.2371   1.2417
  1.2623   1.2662   1.2966   1.3225   1.3307   1.3661   1.4161   1.4220
  1.4379   1.4488   1.4792   1.4893   1.4940   1.5094   1.5124   1.5355
  1.5409   1.5510   1.5544   1.5626   1.5699   1.5742   1.5798   1.5841
  1.6011   1.6103   1.6228   1.6229   1.6309   1.6445   1.6561   1.6765
  1.6796   1.6884   1.6892   1.7107   1.7108   1.7387   1.7393   1.7429
  1.7470   1.7579   1.7689   1.7734   1.7740   1.8137   1.8189   1.8204
  1.8351   1.8528   1.8784   1.8955   1.9078   1.9177   1.9206   1.9284
  1.9491   1.9542   1.9646   1.9676   1.9774   1.9788   1.9801   1.9952
  1.9957   2.0027   2.0215   2.0251   2.0411   2.0709   2.0948   2.0956
  2.1141   2.1160   2.1171   2.1290   2.1725   2.1870   2.2173   2.2230
  2.2634   2.2692   2.2863   2.3024   2.3058   2.3495   2.3517   2.4042
  2.4066   2.4096   2.4484   2.4759   2.4813   2.4848   2.4960   2.5211
  2.5337   2.5380   2.5669   2.5672   2.5682   2.6010   2.6357   2.6443
  2.6471   2.6506   2.6860   2.7002   2.7034   2.7204   2.7281   2.7340
  2.7396   2.7399   2.7554   2.7642   2.7683   2.7688   2.7847   2.7999
  2.8040   2.8067   2.8068   2.8246   2.8441   2.8545   2.8570   2.8703
  2.8864   2.8877   2.9176   2.9211   2.9228   2.9428   2.9588   2.9897
  2.9922   3.0099   3.0326   3.0416   3.0728   3.1347   3.1359   3.1534
  3.1767   3.2236   3.2310   3.2568   3.2731   3.2870   3.3347   3.3564
  3.3777   3.4091   3.4476   3.4483   3.5272   3.5528   3.5619   3.5767
  3.5866   3.5898   3.6038   3.6605   3.7927   3.7956   3.8139   3.8578
  3.8735   3.8852   3.9105   4.0633   4.0658   4.0901   4.1146   4.2067
  4.2193   4.2681   4.2733   4.3219   4.4880   4.7382   4.8511   4.8762
  5.1093   5.3062   5.8099  23.5647  23.7016  23.8716  23.9446  23.9497
 23.9659  23.9784  23.9878  23.9935  24.0490  24.0594  24.0811  24.1153
 24.1288  24.2020  24.2021  50.1002
 
 Beta MOs
 -- Occupied --
-19.0451 -10.1883 -10.1878 -10.1675 -10.1675 -10.1602 -10.1602 -10.1585
-10.1585 -10.1576 -10.1576 -10.1546 -10.1546 -10.1511 -10.1510 -10.1500
-10.1500  -0.9635  -0.8571  -0.8356  -0.7977  -0.7494  -0.7331  -0.7238
 -0.7120  -0.6789  -0.6277  -0.6180  -0.5967  -0.5748  -0.5448  -0.5204
 -0.5115  -0.4674  -0.4479  -0.4443  -0.4407  -0.4258  -0.4214  -0.4181
 -0.4052  -0.3922  -0.3886  -0.3842  -0.3702  -0.3694  -0.3594  -0.3495
 -0.3459  -0.3370  -0.3348  -0.3150  -0.3080  -0.2993  -0.2391  -0.2341
 -0.2328  -0.2282  -0.2188
 -- Virtual --
 -0.0472  -0.0030  -0.0018  -0.0011   0.0070   0.0084   0.0116   0.0217
  0.0221   0.0251   0.0338   0.0440   0.0447   0.0493   0.0571   0.0598
  0.0660   0.0680   0.0756   0.0776   0.0783   0.0810   0.0854   0.0978
  0.1075   0.1096   0.1114   0.1184   0.1187   0.1201   0.1208   0.1240
  0.1286   0.1312   0.1318   0.1331   0.1411   0.1414   0.1462   0.1477
  0.1506   0.1515   0.1548   0.1550   0.1668   0.1681   0.1697   0.1717
  0.1738   0.1826   0.1862   0.1879   0.1948   0.2025   0.2029   0.2045
  0.2047   0.2056   0.2113   0.2146   0.2165   0.2184   0.2189   0.2289
  0.2308   0.2339   0.2351   0.2449   0.2457   0.2537   0.2588   0.2604
  0.2686   0.2723   0.2745   0.2798   0.2850   0.2855   0.2926   0.2994
  0.3004   0.3041   0.3145   0.3160   0.3208   0.3210   0.3211   0.3268
  0.3290   0.3326   0.3342   0.3435   0.3446   0.3501   0.3551   0.3705
  0.3729   0.3731   0.3756   0.3798   0.3852   0.4018   0.4100   0.4224
  0.4269   0.4438   0.4494   0.4529   0.4642   0.4789   0.4939   0.5037
  0.5097   0.5326   0.5357   0.5538   0.5614   0.5616   0.5627   0.5660
  0.5741   0.5798   0.5828   0.5948   0.5960   0.5990   0.6134   0.6244
  0.6294   0.6301   0.6318   0.6422   0.6461   0.6536   0.6672   0.6730
  0.6745   0.6797   0.6844   0.6942   0.6956   0.7095   0.7115   0.7122
  0.7188   0.7259   0.7328   0.7430   0.7457   0.7505   0.7689   0.7769
  0.7792   0.7850   0.7909   0.7975   0.8044   0.8108   0.8111   0.8350
  0.8446   0.8471   0.8692   0.8739   0.8787   0.8837   0.8992   0.9047
  0.9213   0.9238   0.9470   0.9523   0.9532   0.9603   0.9625   0.9695
  0.9728   0.9949   1.0021   1.0232   1.0251   1.0351   1.0439   1.0596
  1.0624   1.0660   1.0782   1.0926   1.1014   1.1190   1.1213   1.1484
  1.1544   1.1640   1.1646   1.1899   1.1926   1.2048   1.2271   1.2388
  1.2436   1.2685   1.2709   1.2982   1.3264   1.3325   1.3683   1.4164
  1.4238   1.4389   1.4505   1.4814   1.4904   1.4947   1.5104   1.5146
  1.5360   1.5461   1.5515   1.5566   1.5634   1.5716   1.5769   1.5819
  1.5857   1.6029   1.6126   1.6232   1.6245   1.6323   1.6461   1.6578
  1.6770   1.6817   1.6881   1.6916   1.7113   1.7116   1.7408   1.7414
  1.7454   1.7500   1.7591   1.7710   1.7750   1.7762   1.8167   1.8201
  1.8209   1.8376   1.8533   1.8791   1.8970   1.9111   1.9180   1.9215
  1.9303   1.9516   1.9570   1.9666   1.9701   1.9782   1.9815   1.9823
  1.9968   2.0031   2.0060   2.0234   2.0255   2.0412   2.0748   2.0967
  2.0979   2.1157   2.1178   2.1209   2.1299   2.1732   2.1882   2.2197
  2.2234   2.2658   2.2709   2.2886   2.3045   2.3082   2.3522   2.3523
  2.4068   2.4078   2.4138   2.4510   2.4768   2.4817   2.4854   2.4967
  2.5214   2.5341   2.5383   2.5673   2.5675   2.5685   2.6018   2.6375
  2.6453   2.6478   2.6511   2.6876   2.7040   2.7053   2.7238   2.7282
  2.7342   2.7403   2.7437   2.7561   2.7655   2.7692   2.7751   2.7855
  2.8003   2.8045   2.8074   2.8074   2.8316   2.8442   2.8559   2.8623
  2.8713   2.8872   2.8974   2.9197   2.9231   2.9295   2.9451   2.9681
  2.9916   2.9980   3.0171   3.0329   3.0474   3.0737   3.1388   3.1398
  3.1575   3.1780   3.2248   3.2319   3.2575   3.2743   3.2884   3.3370
  3.3731   3.3783   3.4101   3.4484   3.4491   3.5281   3.5546   3.5632
  3.5780   3.5874   3.5916   3.6055   3.6619   3.7929   3.7958   3.8155
  3.8594   3.8747   3.8855   3.9125   4.0649   4.0674   4.0919   4.1164
  4.2084   4.2209   4.2685   4.2743   4.3257   4.4905   4.7426   4.8530
  4.8781   5.1314   5.3105   5.8154  23.5655  23.7025  23.8717  23.9466
 23.9506  23.9682  23.9787  23.9887  23.9937  24.0504  24.0604  24.0823
 24.1158  24.1292  24.2027  24.2028  50.1055
 --------------------------------------------------------------
 
          Ground-State Mulliken Net Atomic Charges

     Atom                 Charge (a.u.)    Spin (a.u.)
  --------------------------------------------------------
      1 C                    -0.815550       0.017648
      2 C                     0.424471      -0.094011
      3 C                    -0.818157       0.017713
      4 C                     0.224137       0.127286
      5 C                    -0.149099      -0.055339
      6 C                    -0.525653       0.177250
      7 C                    -0.440680      -0.061452
      8 C                     0.045176       0.170766
      9 C                     0.301161      -0.063363
     10 C                    -0.434890       0.280397
     11 O                    -0.593378       0.205372
     12 C                     0.299843      -0.063402
     13 C                     0.046758       0.170840
     14 C                    -0.441036      -0.061593
     15 C                    -0.524235       0.177350
     16 C                    -0.149913      -0.055362
     17 C                     0.221939       0.127365
     18 H                     0.151197       0.004129
     19 H                     0.151447       0.004082
     20 H                     0.167346       0.001024
     21 H                     0.151367       0.004144
     22 H                     0.167625       0.001032
     23 H                     0.151678       0.004043
     24 H                     0.152097       0.002023
     25 H                     0.184230      -0.012507
     26 H                     0.179263       0.003238
     27 H                     0.179137      -0.010707
     28 H                     0.178312      -0.010716
     29 H                     0.179285       0.003235
     30 H                     0.184297      -0.012505
     31 H                     0.151826       0.002019
  --------------------------------------------------------
  Sum of atomic charges =    -1.000000
  Sum of spin   charges =     1.000000

 -----------------------------------------------------------------
                    Cartesian Multipole Moments
 -----------------------------------------------------------------
    Charge (ESU x 10^10)
                -4.8032
    Dipole Moment (Debye)
         X      -2.8102      Y     -11.5297      Z      -2.0447
       Tot      12.0421
    Quadrupole Moments (Debye-Ang)
        XX    -115.3884     XY      -4.8741     YY    -133.9482
        XZ      -0.6481     YZ      -4.0116     ZZ    -112.3510
    Octopole Moments (Debye-Ang^2)
       XXX     -35.8691    XXY     -52.5660    XYY     -32.8222
       YYY    -228.4631    XXZ      -9.1321    XYZ      -3.5964
       YYZ     -25.6119    XZZ     -10.9648    YZZ     -45.8753
       ZZZ     -23.3053
    Hexadecapole Moments (Debye-Ang^3)
      XXXX   -3227.1054   XXXY     170.4823   XXYY    -839.0571
      XYYY      56.2044   YYYY   -2115.3435   XXXZ     130.4257
      XXYZ     -33.2771   XYYZ      23.3608   YYYZ    -199.9318
      XXZZ    -693.9303   XYZZ      56.6035   YYZZ    -394.1906
      XZZZ     180.7788   YZZZ    -175.6348   ZZZZ    -420.3501
 -----------------------------------------------------------------
 Total job time:  62.71s(wall), 442.72s(cpu) 
 Wed Jun 12 03:16:38 2024

        *************************************************************
        *                                                           *
        *  Thank you very much for using Q-Chem.  Have a nice day.  *
        *                                                           *
        *************************************************************


