 Entering Gaussian System, Link 0=g16
 Input=327.com
 Output=327.log
 Initial command:
 /sysapps/ubuntu-applications/gaussian/Gaussian/AVX2/g16/l1.exe "/scratch/selhajj1/4408939/Gau-1338544.inp" -scrdir="/scratch/selhajj1/4408939/"
 Entering Link 1 = /sysapps/ubuntu-applications/gaussian/Gaussian/AVX2/g16/l1.exe PID=   1338546.
  
 Copyright (c) 1988,1990,1992,1993,1995,1998,2003,2009,2016,
            Gaussian, Inc.  All Rights Reserved.
  
 This is part of the Gaussian(R) 16 program.  It is based on
 the Gaussian(R) 09 system (copyright 2009, Gaussian, Inc.),
 the Gaussian(R) 03 system (copyright 2003, Gaussian, Inc.),
 the Gaussian(R) 98 system (copyright 1998, Gaussian, Inc.),
 the Gaussian(R) 94 system (copyright 1995, Gaussian, Inc.),
 the Gaussian 92(TM) system (copyright 1992, Gaussian, Inc.),
 the Gaussian 90(TM) system (copyright 1990, Gaussian, Inc.),
 the Gaussian 88(TM) system (copyright 1988, Gaussian, Inc.),
 the Gaussian 86(TM) system (copyright 1986, Carnegie Mellon
 University), and the Gaussian 82(TM) system (copyright 1983,
 Carnegie Mellon University). Gaussian is a federally registered
 trademark of Gaussian, Inc.
  
 This software contains proprietary and confidential information,
 including trade secrets, belonging to Gaussian, Inc.
  
 This software is provided under written license and may be
 used, copied, transmitted, or stored only in accord with that
 written license.
  
 The following legend is applicable only to US Government
 contracts under FAR:
  
                    RESTRICTED RIGHTS LEGEND
  
 Use, reproduction and disclosure by the US Government is
 subject to restrictions as set forth in subparagraphs (a)
 and (c) of the Commercial Computer Software - Restricted
 Rights clause in FAR 52.227-19.
  
 Gaussian, Inc.
 340 Quinnipiac St., Bldg. 40, Wallingford CT 06492
  
  
 ---------------------------------------------------------------
 Warning -- This program may not be used in any manner that
 competes with the business of Gaussian, Inc. or will provide
 assistance to any competitor of Gaussian, Inc.  The licensee
 of this program is prohibited from giving any competitor of
 Gaussian, Inc. access to this program.  By using this program,
 the user acknowledges that Gaussian, Inc. is engaged in the
 business of creating and licensing software in the field of
 computational chemistry and represents and warrants to the
 licensee that it is not a competitor of Gaussian, Inc. and that
 it will not use this program in any manner prohibited above.
 ---------------------------------------------------------------
  

 Cite this work as:
 Gaussian 16, Revision A.03,
 M. J. Frisch, G. W. Trucks, H. B. Schlegel, G. E. Scuseria, 
 M. A. Robb, J. R. Cheeseman, G. Scalmani, V. Barone, 
 G. A. Petersson, H. Nakatsuji, X. Li, M. Caricato, A. V. Marenich, 
 J. Bloino, B. G. Janesko, R. Gomperts, B. Mennucci, H. P. Hratchian, 
 J. V. Ortiz, A. F. Izmaylov, J. L. Sonnenberg, D. Williams-Young, 
 F. Ding, F. Lipparini, F. Egidi, J. Goings, B. Peng, A. Petrone, 
 T. Henderson, D. Ranasinghe, V. G. Zakrzewski, J. Gao, N. Rega, 
 G. Zheng, W. Liang, M. Hada, M. Ehara, K. Toyota, R. Fukuda, 
 J. Hasegawa, M. Ishida, T. Nakajima, Y. Honda, O. Kitao, H. Nakai, 
 T. Vreven, K. Throssell, J. A. Montgomery, Jr., J. E. Peralta, 
 F. Ogliaro, M. J. Bearpark, J. J. Heyd, E. N. Brothers, K. N. Kudin, 
 V. N. Staroverov, T. A. Keith, R. Kobayashi, J. Normand, 
 K. Raghavachari, A. P. Rendell, J. C. Burant, S. S. Iyengar, 
 J. Tomasi, M. Cossi, J. M. Millam, M. Klene, C. Adamo, R. Cammi, 
 J. W. Ochterski, R. L. Martin, K. Morokuma, O. Farkas, 
 J. B. Foresman, and D. J. Fox, Gaussian, Inc., Wallingford CT, 2016.
 
 ******************************************
 Gaussian 16:  ES64L-G16RevA.03 25-Dec-2016
                11-Feb-2024 
 ******************************************
 %chk=327.chk
 %nproc=8
 Will use up to    8 processors via shared memory.
 %mem=30GB
 ----------------------------------------------------------------------
 #P UB3LYP/6-311++G(d,p) nosym opt freq SCRF=(PCM,Solvent=n,n-DiMethylF
 ormamide)
 ----------------------------------------------------------------------
 1/18=20,19=15,26=3,38=1/1,3;
 2/9=110,12=2,15=1,17=6,18=5,40=1/2;
 3/5=4,6=6,7=1111,11=2,25=1,30=1,70=2201,71=1,72=148,74=-5,116=2/1,2,3;
 4//1;
 5/5=2,38=5,53=148/2;
 6/7=2,8=2,9=2,10=2,28=1/1;
 7/30=1/1,2,3,16;
 1/18=20,19=15,26=3/3(2);
 2/9=110,15=1/2;
 99//99;
 2/9=110,15=1/2;
 3/5=4,6=6,7=1111,11=2,25=1,30=1,70=2205,71=1,72=148,74=-5,116=2/1,2,3;
 4/5=5,16=3,69=1/1;
 5/5=2,38=5,53=148/2;
 7/30=1/1,2,3,16;
 1/18=20,19=15,26=3/3(-5);
 2/9=110,15=1/2;
 6/7=2,8=2,9=2,10=2,19=2,28=1/1;
 99/9=1/99;
 Leave Link    1 at Sun Feb 11 19:33:47 2024, MaxMem=  4026531840 cpu:               0.9 elap:               0.2
 (Enter /sysapps/ubuntu-applications/gaussian/Gaussian/AVX2/g16/l101.exe)
 --------
 Oxidized
 --------
 Symbolic Z-matrix:
 Charge = -2 Multiplicity = 1
 C                    -1.7105    2.92724  -0.8319 
 C                    -2.84618   2.19836  -0.51204 
 C                    -2.71711   0.89225  -0.04208 
 C                    -0.43765   2.36741  -0.6909 
 C                    -0.29322   1.03332  -0.22148 
 C                    -1.45178   0.30748   0.09789 
 C                     0.73208   3.19599  -1.0471 
 C                     2.13722   2.55755  -0.87271 
 C                     2.18153   1.18974  -0.39522 
 C                     1.07121   0.4752   -0.09344 
 O                     0.64614   4.33959  -1.46415 
 O                     3.13279   3.21722  -1.14162 
 H                    -1.78294   3.94438  -1.20002 
 H                    -3.84016   2.61183  -0.62935 
 S                    -4.25677   0.00746   0.43647 
 H                    -1.37379  -0.71291   0.44831 
 H                     3.15475   0.72867  -0.27766 
 S                     1.35633  -1.25763   0.4859 
 O                     2.83273  -1.41341   0.48706 
 O                     0.66131  -2.07974  -0.53229 
 O                     0.74374  -1.28275   1.83471 
 O                    -4.36357   0.25209   1.89849 
 O                    -4.03339  -1.40609   0.06082 
 O                    -5.31598   0.69269  -0.35679 
 
 ITRead=  0  0  0  0  0  0  0  0  0  0  0  0  0  0  0  0  0  0  0  0
 ITRead=  0  0  0  0
 MicOpt= -1 -1 -1 -1 -1 -1 -1 -1 -1 -1 -1 -1 -1 -1 -1 -1 -1 -1 -1 -1
 MicOpt= -1 -1 -1 -1
 NAtoms=     24 NQM=       24 NQMF=       0 NMMI=      0 NMMIF=      0
                NMic=       0 NMicF=      0.
                    Isotopes and Nuclear Properties:
 (Nuclear quadrupole moments (NQMom) in fm**2, nuclear magnetic moments (NMagM)
  in nuclear magnetons)

  Atom         1           2           3           4           5           6           7           8           9          10
 IAtWgt=          12          12          12          12          12          12          12          12          12          12
 AtmWgt=  12.0000000  12.0000000  12.0000000  12.0000000  12.0000000  12.0000000  12.0000000  12.0000000  12.0000000  12.0000000
 NucSpn=           0           0           0           0           0           0           0           0           0           0
 AtZEff=  -0.0000000  -0.0000000  -0.0000000  -0.0000000  -0.0000000  -0.0000000  -0.0000000  -0.0000000  -0.0000000  -0.0000000
 NQMom=    0.0000000   0.0000000   0.0000000   0.0000000   0.0000000   0.0000000   0.0000000   0.0000000   0.0000000   0.0000000
 NMagM=    0.0000000   0.0000000   0.0000000   0.0000000   0.0000000   0.0000000   0.0000000   0.0000000   0.0000000   0.0000000
 AtZNuc=   6.0000000   6.0000000   6.0000000   6.0000000   6.0000000   6.0000000   6.0000000   6.0000000   6.0000000   6.0000000

  Atom        11          12          13          14          15          16          17          18          19          20
 IAtWgt=          16          16           1           1          32           1           1          32          16          16
 AtmWgt=  15.9949146  15.9949146   1.0078250   1.0078250  31.9720718   1.0078250   1.0078250  31.9720718  15.9949146  15.9949146
 NucSpn=           0           0           1           1           0           1           1           0           0           0
 AtZEff=  -0.0000000  -0.0000000  -0.0000000  -0.0000000  -0.0000000  -0.0000000  -0.0000000  -0.0000000  -0.0000000  -0.0000000
 NQMom=    0.0000000   0.0000000   0.0000000   0.0000000   0.0000000   0.0000000   0.0000000   0.0000000   0.0000000   0.0000000
 NMagM=    0.0000000   0.0000000   2.7928460   2.7928460   0.0000000   2.7928460   2.7928460   0.0000000   0.0000000   0.0000000
 AtZNuc=   8.0000000   8.0000000   1.0000000   1.0000000  16.0000000   1.0000000   1.0000000  16.0000000   8.0000000   8.0000000

  Atom        21          22          23          24
 IAtWgt=          16          16          16          16
 AtmWgt=  15.9949146  15.9949146  15.9949146  15.9949146
 NucSpn=           0           0           0           0
 AtZEff=  -0.0000000  -0.0000000  -0.0000000  -0.0000000
 NQMom=    0.0000000   0.0000000   0.0000000   0.0000000
 NMagM=    0.0000000   0.0000000   0.0000000   0.0000000
 AtZNuc=   8.0000000   8.0000000   8.0000000   8.0000000
 Leave Link  101 at Sun Feb 11 19:33:47 2024, MaxMem=  4026531840 cpu:               6.6 elap:               0.9
 (Enter /sysapps/ubuntu-applications/gaussian/Gaussian/AVX2/g16/l103.exe)

 GradGradGradGradGradGradGradGradGradGradGradGradGradGradGradGradGradGrad
 Berny optimization.
 Initialization pass.
                           ----------------------------
                           !    Initial Parameters    !
                           ! (Angstroms and Degrees)  !
 --------------------------                            --------------------------
 ! Name  Definition              Value          Derivative Info.                !
 --------------------------------------------------------------------------------
 ! R1    R(1,2)                  1.3868         estimate D2E/DX2                !
 ! R2    R(1,4)                  1.3977         estimate D2E/DX2                !
 ! R3    R(1,13)                 1.0841         estimate D2E/DX2                !
 ! R4    R(2,3)                  1.3941         estimate D2E/DX2                !
 ! R5    R(2,14)                 1.0829         estimate D2E/DX2                !
 ! R6    R(3,6)                  1.4009         estimate D2E/DX2                !
 ! R7    R(3,15)                 1.8391         estimate D2E/DX2                !
 ! R8    R(4,5)                  1.4216         estimate D2E/DX2                !
 ! R9    R(4,7)                  1.4771         estimate D2E/DX2                !
 ! R10   R(5,6)                  1.404          estimate D2E/DX2                !
 ! R11   R(5,10)                 1.4797         estimate D2E/DX2                !
 ! R12   R(6,16)                 1.0817         estimate D2E/DX2                !
 ! R13   R(7,8)                  1.5532         estimate D2E/DX2                !
 ! R14   R(7,11)                 1.2203         estimate D2E/DX2                !
 ! R15   R(8,9)                  1.4494         estimate D2E/DX2                !
 ! R16   R(8,12)                 1.2242         estimate D2E/DX2                !
 ! R17   R(9,10)                 1.3544         estimate D2E/DX2                !
 ! R18   R(9,17)                 1.0833         estimate D2E/DX2                !
 ! R19   R(10,18)                1.8492         estimate D2E/DX2                !
 ! R20   R(15,22)                1.4862         estimate D2E/DX2                !
 ! R21   R(15,23)                1.4796         estimate D2E/DX2                !
 ! R22   R(15,24)                1.4902         estimate D2E/DX2                !
 ! R23   R(18,19)                1.4846         estimate D2E/DX2                !
 ! R24   R(18,20)                1.4818         estimate D2E/DX2                !
 ! R25   R(18,21)                1.4816         estimate D2E/DX2                !
 ! A1    A(2,1,4)              120.7966         estimate D2E/DX2                !
 ! A2    A(2,1,13)             121.1102         estimate D2E/DX2                !
 ! A3    A(4,1,13)             118.0931         estimate D2E/DX2                !
 ! A4    A(1,2,3)              119.6261         estimate D2E/DX2                !
 ! A5    A(1,2,14)             121.735          estimate D2E/DX2                !
 ! A6    A(3,2,14)             118.634          estimate D2E/DX2                !
 ! A7    A(2,3,6)              120.556          estimate D2E/DX2                !
 ! A8    A(2,3,15)             117.4482         estimate D2E/DX2                !
 ! A9    A(6,3,15)             121.9594         estimate D2E/DX2                !
 ! A10   A(1,4,5)              120.1138         estimate D2E/DX2                !
 ! A11   A(1,4,7)              118.1771         estimate D2E/DX2                !
 ! A12   A(5,4,7)              121.7085         estimate D2E/DX2                !
 ! A13   A(4,5,6)              118.4532         estimate D2E/DX2                !
 ! A14   A(4,5,10)             118.4381         estimate D2E/DX2                !
 ! A15   A(6,5,10)             123.1087         estimate D2E/DX2                !
 ! A16   A(3,6,5)              120.4509         estimate D2E/DX2                !
 ! A17   A(3,6,16)             119.4224         estimate D2E/DX2                !
 ! A18   A(5,6,16)             120.1253         estimate D2E/DX2                !
 ! A19   A(4,7,8)              117.3084         estimate D2E/DX2                !
 ! A20   A(4,7,11)             123.5282         estimate D2E/DX2                !
 ! A21   A(8,7,11)             119.1634         estimate D2E/DX2                !
 ! A22   A(7,8,9)              116.9071         estimate D2E/DX2                !
 ! A23   A(7,8,12)             119.3117         estimate D2E/DX2                !
 ! A24   A(9,8,12)             123.781          estimate D2E/DX2                !
 ! A25   A(8,9,10)             123.106          estimate D2E/DX2                !
 ! A26   A(8,9,17)             117.7009         estimate D2E/DX2                !
 ! A27   A(10,9,17)            119.1932         estimate D2E/DX2                !
 ! A28   A(5,10,9)             122.5234         estimate D2E/DX2                !
 ! A29   A(5,10,18)            121.5148         estimate D2E/DX2                !
 ! A30   A(9,10,18)            115.9611         estimate D2E/DX2                !
 ! A31   A(3,15,22)            103.7066         estimate D2E/DX2                !
 ! A32   A(3,15,23)            105.4961         estimate D2E/DX2                !
 ! A33   A(3,15,24)            103.6101         estimate D2E/DX2                !
 ! A34   A(22,15,23)           114.7001         estimate D2E/DX2                !
 ! A35   A(22,15,24)           113.3839         estimate D2E/DX2                !
 ! A36   A(23,15,24)           114.2965         estimate D2E/DX2                !
 ! A37   A(10,18,19)           104.5905         estimate D2E/DX2                !
 ! A38   A(10,18,20)           103.4328         estimate D2E/DX2                !
 ! A39   A(10,18,21)           103.7299         estimate D2E/DX2                !
 ! A40   A(19,18,20)           114.128          estimate D2E/DX2                !
 ! A41   A(19,18,21)           114.1223         estimate D2E/DX2                !
 ! A42   A(20,18,21)           114.9743         estimate D2E/DX2                !
 ! D1    D(4,1,2,3)              0.1058         estimate D2E/DX2                !
 ! D2    D(4,1,2,14)          -179.0768         estimate D2E/DX2                !
 ! D3    D(13,1,2,3)           179.954          estimate D2E/DX2                !
 ! D4    D(13,1,2,14)            0.7714         estimate D2E/DX2                !
 ! D5    D(2,1,4,5)              0.3309         estimate D2E/DX2                !
 ! D6    D(2,1,4,7)           -179.9383         estimate D2E/DX2                !
 ! D7    D(13,1,4,5)          -179.5219         estimate D2E/DX2                !
 ! D8    D(13,1,4,7)             0.2089         estimate D2E/DX2                !
 ! D9    D(1,2,3,6)             -0.5728         estimate D2E/DX2                !
 ! D10   D(1,2,3,15)           177.2778         estimate D2E/DX2                !
 ! D11   D(14,2,3,6)           178.6351         estimate D2E/DX2                !
 ! D12   D(14,2,3,15)           -3.5143         estimate D2E/DX2                !
 ! D13   D(2,3,6,5)              0.6026         estimate D2E/DX2                !
 ! D14   D(2,3,6,16)          -178.9697         estimate D2E/DX2                !
 ! D15   D(15,3,6,5)          -177.1492         estimate D2E/DX2                !
 ! D16   D(15,3,6,16)            3.2785         estimate D2E/DX2                !
 ! D17   D(2,3,15,22)          -94.0932         estimate D2E/DX2                !
 ! D18   D(2,3,15,23)          144.9786         estimate D2E/DX2                !
 ! D19   D(2,3,15,24)           24.5515         estimate D2E/DX2                !
 ! D20   D(6,3,15,22)           83.7252         estimate D2E/DX2                !
 ! D21   D(6,3,15,23)          -37.203          estimate D2E/DX2                !
 ! D22   D(6,3,15,24)         -157.6301         estimate D2E/DX2                !
 ! D23   D(1,4,5,6)             -0.2989         estimate D2E/DX2                !
 ! D24   D(1,4,5,10)           179.6632         estimate D2E/DX2                !
 ! D25   D(7,4,5,6)            179.9801         estimate D2E/DX2                !
 ! D26   D(7,4,5,10)            -0.0579         estimate D2E/DX2                !
 ! D27   D(1,4,7,8)            179.5575         estimate D2E/DX2                !
 ! D28   D(1,4,7,11)            -0.3996         estimate D2E/DX2                !
 ! D29   D(5,4,7,8)             -0.7162         estimate D2E/DX2                !
 ! D30   D(5,4,7,11)           179.3267         estimate D2E/DX2                !
 ! D31   D(4,5,6,3)             -0.1623         estimate D2E/DX2                !
 ! D32   D(4,5,6,16)           179.4069         estimate D2E/DX2                !
 ! D33   D(10,5,6,3)           179.8775         estimate D2E/DX2                !
 ! D34   D(10,5,6,16)           -0.5533         estimate D2E/DX2                !
 ! D35   D(4,5,10,9)             0.5609         estimate D2E/DX2                !
 ! D36   D(4,5,10,18)         -179.1363         estimate D2E/DX2                !
 ! D37   D(6,5,10,9)          -179.4789         estimate D2E/DX2                !
 ! D38   D(6,5,10,18)            0.8238         estimate D2E/DX2                !
 ! D39   D(4,7,8,9)              1.0321         estimate D2E/DX2                !
 ! D40   D(4,7,8,12)          -179.1208         estimate D2E/DX2                !
 ! D41   D(11,7,8,9)          -179.0089         estimate D2E/DX2                !
 ! D42   D(11,7,8,12)            0.8382         estimate D2E/DX2                !
 ! D43   D(7,8,9,10)            -0.603          estimate D2E/DX2                !
 ! D44   D(7,8,9,17)           179.4455         estimate D2E/DX2                !
 ! D45   D(12,8,9,10)          179.5575         estimate D2E/DX2                !
 ! D46   D(12,8,9,17)           -0.394          estimate D2E/DX2                !
 ! D47   D(8,9,10,5)            -0.2            estimate D2E/DX2                !
 ! D48   D(8,9,10,18)          179.513          estimate D2E/DX2                !
 ! D49   D(17,9,10,5)          179.7508         estimate D2E/DX2                !
 ! D50   D(17,9,10,18)          -0.5362         estimate D2E/DX2                !
 ! D51   D(5,10,18,19)        -179.403          estimate D2E/DX2                !
 ! D52   D(5,10,18,20)          60.8317         estimate D2E/DX2                !
 ! D53   D(5,10,18,21)         -59.5136         estimate D2E/DX2                !
 ! D54   D(9,10,18,19)           0.881          estimate D2E/DX2                !
 ! D55   D(9,10,18,20)        -118.8844         estimate D2E/DX2                !
 ! D56   D(9,10,18,21)         120.7703         estimate D2E/DX2                !
 --------------------------------------------------------------------------------
 Trust Radius=3.00D-01 FncErr=1.00D-07 GrdErr=1.00D-06 EigMax=2.50D+02 EigMin=1.00D-04
 Number of steps in this run=    133 maximum allowed number of steps=    144.
 GradGradGradGradGradGradGradGradGradGradGradGradGradGradGradGradGradGrad

 Leave Link  103 at Sun Feb 11 19:33:48 2024, MaxMem=  4026531840 cpu:               0.3 elap:               0.1
 (Enter /sysapps/ubuntu-applications/gaussian/Gaussian/AVX2/g16/l202.exe)
                          Input orientation:                          
 ---------------------------------------------------------------------
 Center     Atomic      Atomic             Coordinates (Angstroms)
 Number     Number       Type             X           Y           Z
 ---------------------------------------------------------------------
      1          6           0       -1.710502    2.927236   -0.831900
      2          6           0       -2.846177    2.198363   -0.512039
      3          6           0       -2.717111    0.892252   -0.042079
      4          6           0       -0.437652    2.367413   -0.690897
      5          6           0       -0.293221    1.033323   -0.221480
      6          6           0       -1.451779    0.307477    0.097889
      7          6           0        0.732081    3.195990   -1.047101
      8          6           0        2.137219    2.557549   -0.872705
      9          6           0        2.181529    1.189735   -0.395220
     10          6           0        1.071210    0.475202   -0.093442
     11          8           0        0.646135    4.339590   -1.464145
     12          8           0        3.132794    3.217222   -1.141616
     13          1           0       -1.782943    3.944377   -1.200016
     14          1           0       -3.840159    2.611829   -0.629351
     15         16           0       -4.256766    0.007462    0.436472
     16          1           0       -1.373791   -0.712913    0.448309
     17          1           0        3.154746    0.728668   -0.277661
     18         16           0        1.356329   -1.257626    0.485899
     19          8           0        2.832732   -1.413414    0.487062
     20          8           0        0.661307   -2.079743   -0.532292
     21          8           0        0.743736   -1.282745    1.834714
     22          8           0       -4.363574    0.252090    1.898488
     23          8           0       -4.033394   -1.406087    0.060823
     24          8           0       -5.315981    0.692691   -0.356792
 ---------------------------------------------------------------------
                    Distance matrix (angstroms):
                    1          2          3          4          5
     1  C    0.000000
     2  C    1.386840   0.000000
     3  C    2.403797   1.394075   0.000000
     4  C    1.397652   2.421066   2.791594   0.000000
     5  C    2.442991   2.821228   2.434611   1.421622   0.000000
     6  C    2.791878   2.427305   1.400935   2.427751   1.403961
     7  C    2.466729   3.753063   4.267810   1.477057   2.531802
     8  C    3.865655   5.009324   5.198815   2.588275   2.941836
     9  C    4.284566   5.129211   4.920353   2.886946   2.485767
    10  C    3.780967   4.300050   3.811554   2.492806   1.479718
    11  O    2.819258   4.205663   5.021736   2.379493   3.654861
    12  O    4.861845   6.097748   6.390294   3.697757   4.165771
    13  H    1.084128   2.156929   3.395431   2.134438   3.413362
    14  H    2.162394   1.082920   2.136134   3.411830   3.903692
    15  S    4.076433   2.772991   1.839131   4.628819   4.146683
    16  H    3.873370   3.400841   2.149778   3.415048   2.159997
    17  H    5.367636   6.182719   5.878857   3.970085   3.461856
    18  S    5.353047   5.531799   4.636124   4.212378   2.910300
    19  O    6.420427   6.803906   6.032980   5.135918   4.032386
    20  O    5.548431   5.532183   4.526231   4.583674   3.270918
    21  O    5.555003   5.523843   4.497825   4.593260   3.266096
    22  O    4.652979   3.449799   2.624204   5.156779   4.655359
    23  O    4.997046   3.837931   2.650576   5.266284   4.474294
    24  O    4.268302   2.896736   2.625451   5.168599   5.036115
                    6          7          8          9         10
     6  C    0.000000
     7  C    3.797862   0.000000
     8  C    4.345778   1.553201   0.000000
     9  C    3.771268   2.559474   1.449438   0.000000
    10  C    2.535786   2.902957   2.465724   1.354413   0.000000
    11  O    4.806155   1.220301   2.397666   3.663553   4.122258
    12  O    5.569677   2.402667   1.224194   2.360660   3.587126
    13  H    3.875728   2.628462   4.171102   4.894158   4.626648
    14  H    3.397540   4.628298   5.982576   6.191760   5.382743
    15  S    2.841232   6.103793   7.007134   6.598570   5.374655
    16  H    1.081699   4.685133   4.976765   4.119698   2.771848
    17  H    4.640960   3.542460   2.175832   1.083307   2.106966
    18  S    3.238143   4.751260   4.124458   2.728901   1.849222
    19  O    4.633568   5.292730   4.254557   2.824690   2.647039
    20  O    3.249782   5.301264   4.878388   3.608234   2.624567
    21  O    3.219573   5.325792   4.900997   3.626708   2.629715
    22  O    3.424000   6.580938   7.433368   6.998475   5.792620
    23  O    3.098776   6.716871   7.393129   6.750669   5.442429
    24  O    3.909883   6.581952   7.700263   7.514066   6.396316
                   11         12         13         14         15
    11  O    0.000000
    12  O    2.747218   0.000000
    13  H    2.475152   4.969571   0.000000
    14  H    4.879434   7.017905   2.516641   0.000000
    15  S    6.813084   8.209660   4.929218   2.844691   0.000000
    16  H    5.767614   6.187336   4.957291   4.277643   2.971637
    17  H    4.554079   2.634350   5.964251   7.252495   7.480684
    18  S    5.969579   5.082214   6.305408   6.574188   5.754105
    19  O    6.456429   4.917867   7.270255   7.872511   7.230659
    20  O    6.486634   5.876850   6.535307   6.502574   5.429767
    21  O    6.519405   5.900495   6.551068   6.500109   5.350209
    22  O    7.287808   8.615670   5.467483   3.497471   1.486184
    23  O    7.565469   8.612497   5.939841   4.081339   1.479570
    24  O    7.076223   8.852740   4.875125   2.436274   1.490216
                   16         17         18         19         20
    16  H    0.000000
    17  H    4.807581   0.000000
    18  S    2.784184   2.786161   0.000000
    19  O    4.264627   2.297174   1.484600   0.000000
    20  O    2.640346   3.764206   1.481771   2.489611   0.000000
    21  O    2.594369   3.784294   1.481622   2.489406   2.498943
    22  O    3.460210   7.841421   6.082100   7.520163   6.049427
    23  O    2.775630   7.506071   5.408497   6.879347   4.779730
    24  O    4.262015   8.471173   7.002399   8.458681   6.591294
                   21         22         23         24
    21  O    0.000000
    22  O    5.333329   0.000000
    23  O    5.097340   2.497115   0.000000
    24  O    6.739823   2.487468   2.494855   0.000000
 Symmetry turned off by external request.
 Stoichiometry    C10H4O8S2(2-)
 Framework group  C1[X(C10H4O8S2)]
 Deg. of freedom    66
 Full point group                 C1      NOp   1
 Rotational constants (GHZ):           0.4105553           0.2145467           0.1492156
 Leave Link  202 at Sun Feb 11 19:33:48 2024, MaxMem=  4026531840 cpu:               0.4 elap:               0.1
 (Enter /sysapps/ubuntu-applications/gaussian/Gaussian/AVX2/g16/l301.exe)
 Standard basis: 6-311++G(d,p) (5D, 7F)
 Ernie: Thresh=  0.10000D-02 Tol=  0.10000D-05 Strict=F.
   484 basis functions,   784 primitive gaussians,   504 cartesian basis functions
    81 alpha electrons       81 beta electrons
       nuclear repulsion energy      1857.0993221496 Hartrees.
 IExCor=  402 DFT=T Ex+Corr=B3LYP ExCW=0 ScaHFX=  0.200000
 ScaDFX=  0.800000  0.720000  1.000000  0.810000 ScalE2=  1.000000  1.000000
 IRadAn=      5 IRanWt=     -1 IRanGd=            0 ICorTp=0 IEmpDi=  4
 NAtoms=   24 NActive=   24 NUniq=   24 SFac= 1.00D+00 NAtFMM=   60 NAOKFM=F Big=F
 Integral buffers will be    131072 words long.
 Raffenetti 2 integral format.
 Two-electron integral symmetry is turned off.
 ------------------------------------------------------------------------------
 Polarizable Continuum Model (PCM)
 =================================
 Model                : PCM.
 Atomic radii         : UFF (Universal Force Field).
 Polarization charges : Total charges.
 Charge compensation  : None.
 Solution method      : On-the-fly selection.
 Cavity type          : Scaled VdW (van der Waals Surface) (Alpha=1.100).
 Cavity algorithm     : GePol (No added spheres)
                        Default sphere list used, NSphG=   24.
                        Lebedev-Laikov grids with approx.  5.0 points / Ang**2.
                        Smoothing algorithm: York/Karplus (Gamma=1.0000).
                        Polarization charges: spherical gaussians, with
                                              point-specific exponents (IZeta= 3).
                        Self-potential: point-specific (ISelfS= 7).
                        Self-field    : sphere-specific E.n sum rule (ISelfD= 2).
 1st derivatives      : Analytical E(r).r(x)/FMM algorithm (CHGder, D1EAlg=3).
                        Cavity 1st derivative terms included.
 Solvent              : n,n-DiMethylFormamide, Eps=  37.219000 Eps(inf)=   2.046330
 ------------------------------------------------------------------------------
 GePol: Number of generator spheres                  =      24
 GePol: Total number of spheres                      =      24
 GePol: Number of exposed spheres                    =      24 (100.00%)
 GePol: Number of points                             =    2359
 GePol: Average weight of points                     =       0.13
 GePol: Minimum weight of points                     =   0.41D-08
 GePol: Maximum weight of points                     =    0.20577
 GePol: Number of points with low weight             =     106
 GePol: Fraction of low-weight points (<1% of avg)   =       4.49%
 GePol: Cavity surface area                          =    307.585 Ang**2
 GePol: Cavity volume                                =    332.129 Ang**3
 Leave Link  301 at Sun Feb 11 19:33:48 2024, MaxMem=  4026531840 cpu:               1.1 elap:               0.2
 (Enter /sysapps/ubuntu-applications/gaussian/Gaussian/AVX2/g16/l302.exe)
 NPDir=0 NMtPBC=     1 NCelOv=     1 NCel=       1 NClECP=     1 NCelD=      1
         NCelK=      1 NCelE2=     1 NClLst=     1 CellRange=     0.0.
 One-electron integrals computed using PRISM.
 NBasis=   484 RedAO= T EigKep=  1.02D-06  NBF=   484
 NBsUse=   479 1.00D-06 EigRej=  9.32D-07 NBFU=   479
 Precomputing XC quadrature grid using
 IXCGrd= 4 IRadAn=           5 IRanWt=          -1 IRanGd=           0 AccXCQ= 0.00D+00.
 Generated NRdTot=       0 NPtTot=           0 NUsed=           0 NTot=          32
 NSgBfM=   498   498   498   498   498 MxSgAt=    24 MxSgA2=    24.
 Leave Link  302 at Sun Feb 11 19:33:49 2024, MaxMem=  4026531840 cpu:               3.4 elap:               0.5
 (Enter /sysapps/ubuntu-applications/gaussian/Gaussian/AVX2/g16/l303.exe)
 DipDrv:  MaxL=1.
 Leave Link  303 at Sun Feb 11 19:33:49 2024, MaxMem=  4026531840 cpu:               1.1 elap:               0.2
 (Enter /sysapps/ubuntu-applications/gaussian/Gaussian/AVX2/g16/l401.exe)
 ExpMin= 3.60D-02 ExpMax= 9.34D+04 ExpMxC= 3.17D+03 IAcc=3 IRadAn=         5 AccDes= 0.00D+00
 Harris functional with IExCor=  402 and IRadAn=       5 diagonalized for initial guess.
 HarFok:  IExCor=  402 AccDes= 0.00D+00 IRadAn=         5 IDoV= 1 UseB2=F ITyADJ=14
 ICtDFT=  3500011 ScaDFX=  1.000000  1.000000  1.000000  1.000000
 FoFCou: FMM=F IPFlag=           0 FMFlag=      100000 FMFlg1=           0
         NFxFlg=           0 DoJE=T BraDBF=F KetDBF=T FulRan=T
         wScrn=  0.000000 ICntrl=       500 IOpCl=  0 I1Cent=   200000004 NGrid=           0
         NMat0=    1 NMatS0=      1 NMatT0=    0 NMatD0=    1 NMtDS0=    0 NMtDT0=    0
 Symmetry not used in FoFCou.
 Harris En= -1782.39550616217    
 JPrj=0 DoOrth=F DoCkMO=F.
 Initial guess <Sx>= 0.0000 <Sy>= 0.0000 <Sz>= 0.0000 <S**2>=-0.0000 S=-0.0000
 Leave Link  401 at Sun Feb 11 19:33:51 2024, MaxMem=  4026531840 cpu:              13.7 elap:               1.8
 (Enter /sysapps/ubuntu-applications/gaussian/Gaussian/AVX2/g16/l502.exe)
 Two-electron integral symmetry not used.
 UHF open shell SCF:
 Using DIIS extrapolation, IDIIS=  1040.
 NGot=  4026531840 LenX=  4026016340 LenY=  4025761820
 Requested convergence on RMS density matrix=1.00D-08 within 128 cycles.
 Requested convergence on MAX density matrix=1.00D-06.
 Requested convergence on             energy=1.00D-06.
 No special actions if energy rises.
 Fock matrices will be formed incrementally for  20 cycles.

 Cycle   1  Pass 1  IDiag  1:
 FoFJK:  IHMeth= 1 ICntrl=       0 DoSepK=F KAlg= 0 I1Cent=           0 FoldK=F
 IRaf= 820000000 NMat=       1 IRICut=       1 DoRegI=T DoRafI=F ISym2E= 0 IDoP0=0 IntGTp=1.
 FoFCou: FMM=F IPFlag=           0 FMFlag=      100000 FMFlg1=           0
         NFxFlg=           0 DoJE=F BraDBF=F KetDBF=F FulRan=T
         wScrn=  0.000000 ICntrl=         0 IOpCl=  1 I1Cent=           0 NGrid=           0
         NMat0=    1 NMatS0=      1 NMatT0=    0 NMatD0=    1 NMtDS0=    0 NMtDT0=    0
 Symmetry not used in FoFCou.
 Inv3:  Mode=1 IEnd=    16694643.
 Iteration    1 A*A^-1 deviation from unit magnitude is 3.66D-15 for    736.
 Iteration    1 A*A^-1 deviation from orthogonality  is 2.31D-15 for   2005   1626.
 Iteration    1 A^-1*A deviation from unit magnitude is 3.11D-15 for    736.
 Iteration    1 A^-1*A deviation from orthogonality  is 4.88D-15 for   2331   2320.
 E= -1781.29764100386    
 DIIS: error= 6.46D-02 at cycle   1 NSaved=   1.
 NSaved= 1 IEnMin= 1 EnMin= -1781.29764100386     IErMin= 1 ErrMin= 6.46D-02
 ErrMax= 6.46D-02  0.00D+00 EMaxC= 1.00D-01 BMatC= 5.46D+00 BMatP= 5.46D+00
 IDIUse=3 WtCom= 3.54D-01 WtEn= 6.46D-01
 Coeff-Com:  0.100D+01
 Coeff-En:   0.100D+01
 Coeff:      0.100D+01
 Gap=     0.081 Goal=   None    Shift=    0.000
 Gap=     0.081 Goal=   None    Shift=    0.000
 GapD=    0.081 DampG=0.500 DampE=0.500 DampFc=0.2500 IDamp=-1.
 Damping current iteration by 2.50D-01
 RMSDP=3.72D-01 MaxDP=4.10D+01              OVMax= 2.81D-01

 Cycle   2  Pass 1  IDiag  1:
 RMSU=  3.19D-02    CP:  1.63D+00
 E= -1781.61746535971     Delta-E=       -0.319824355849 Rises=F Damp=T
 DIIS: error= 2.12D-02 at cycle   2 NSaved=   2.
 NSaved= 2 IEnMin= 2 EnMin= -1781.61746535971     IErMin= 2 ErrMin= 2.12D-02
 ErrMax= 2.12D-02  0.00D+00 EMaxC= 1.00D-01 BMatC= 7.71D-01 BMatP= 5.46D+00
 IDIUse=3 WtCom= 7.88D-01 WtEn= 2.12D-01
 Coeff-Com: -0.469D+00 0.147D+01
 Coeff-En:   0.000D+00 0.100D+01
 Coeff:     -0.369D+00 0.137D+01
 Gap=     0.119 Goal=   None    Shift=    0.000
 Gap=     0.119 Goal=   None    Shift=    0.000
 RMSDP=3.55D-02 MaxDP=4.36D+00 DE=-3.20D-01 OVMax= 2.28D-01

 Cycle   3  Pass 1  IDiag  1:
 RMSU=  7.76D-03    CP:  1.38D+00  8.76D-01
 E= -1782.12846642149     Delta-E=       -0.511001061778 Rises=F Damp=F
 DIIS: error= 9.39D-03 at cycle   3 NSaved=   3.
 NSaved= 3 IEnMin= 3 EnMin= -1782.12846642149     IErMin= 3 ErrMin= 9.39D-03
 ErrMax= 9.39D-03  0.00D+00 EMaxC= 1.00D-01 BMatC= 2.23D-01 BMatP= 7.71D-01
 IDIUse=3 WtCom= 9.06D-01 WtEn= 9.39D-02
 Coeff-Com: -0.237D+00 0.726D+00 0.511D+00
 Coeff-En:   0.000D+00 0.000D+00 0.100D+01
 Coeff:     -0.214D+00 0.658D+00 0.557D+00
 Gap=     0.131 Goal=   None    Shift=    0.000
 Gap=     0.131 Goal=   None    Shift=    0.000
 RMSDP=4.84D-03 MaxDP=3.24D-01 DE=-5.11D-01 OVMax= 9.43D-02

 Cycle   4  Pass 1  IDiag  1:
 RMSU=  4.37D-03    CP:  1.38D+00  8.45D-01  7.66D-01
 E= -1782.16915947923     Delta-E=       -0.040693057736 Rises=F Damp=F
 DIIS: error= 7.08D-03 at cycle   4 NSaved=   4.
 NSaved= 4 IEnMin= 4 EnMin= -1782.16915947923     IErMin= 4 ErrMin= 7.08D-03
 ErrMax= 7.08D-03  0.00D+00 EMaxC= 1.00D-01 BMatC= 8.45D-02 BMatP= 2.23D-01
 IDIUse=3 WtCom= 9.29D-01 WtEn= 7.08D-02
 Coeff-Com: -0.752D-01 0.228D+00 0.374D+00 0.474D+00
 Coeff-En:   0.000D+00 0.000D+00 0.260D+00 0.740D+00
 Coeff:     -0.699D-01 0.212D+00 0.366D+00 0.493D+00
 Gap=     0.131 Goal=   None    Shift=    0.000
 Gap=     0.131 Goal=   None    Shift=    0.000
 RMSDP=4.66D-03 MaxDP=4.66D-01 DE=-4.07D-02 OVMax= 3.83D-02

 Cycle   5  Pass 1  IDiag  1:
 RMSU=  1.05D-03    CP:  1.41D+00  8.97D-01  8.22D-01  7.14D-01
 E= -1782.18570589911     Delta-E=       -0.016546419883 Rises=F Damp=F
 DIIS: error= 2.64D-03 at cycle   5 NSaved=   5.
 NSaved= 5 IEnMin= 5 EnMin= -1782.18570589911     IErMin= 5 ErrMin= 2.64D-03
 ErrMax= 2.64D-03  0.00D+00 EMaxC= 1.00D-01 BMatC= 8.31D-03 BMatP= 8.45D-02
 IDIUse=3 WtCom= 9.74D-01 WtEn= 2.64D-02
 Coeff-Com: -0.106D-01 0.304D-01 0.151D+00 0.300D+00 0.529D+00
 Coeff-En:   0.000D+00 0.000D+00 0.000D+00 0.217D-01 0.978D+00
 Coeff:     -0.103D-01 0.296D-01 0.147D+00 0.293D+00 0.541D+00
 Gap=     0.121 Goal=   None    Shift=    0.000
 Gap=     0.121 Goal=   None    Shift=    0.000
 RMSDP=2.44D-03 MaxDP=2.76D-01 DE=-1.65D-02 OVMax= 1.00D-02

 Cycle   6  Pass 1  IDiag  1:
 RMSU=  3.98D-04    CP:  1.39D+00  8.83D-01  8.33D-01  7.16D-01  6.81D-01
 E= -1782.18714187475     Delta-E=       -0.001435975639 Rises=F Damp=F
 DIIS: error= 9.27D-04 at cycle   6 NSaved=   6.
 NSaved= 6 IEnMin= 6 EnMin= -1782.18714187475     IErMin= 6 ErrMin= 9.27D-04
 ErrMax= 9.27D-04  0.00D+00 EMaxC= 1.00D-01 BMatC= 9.00D-04 BMatP= 8.31D-03
 IDIUse=3 WtCom= 9.91D-01 WtEn= 9.27D-03
 Coeff-Com:  0.160D-03-0.496D-03 0.566D-01 0.129D+00 0.320D+00 0.495D+00
 Coeff-En:   0.000D+00 0.000D+00 0.000D+00 0.000D+00 0.682D-01 0.932D+00
 Coeff:      0.159D-03-0.491D-03 0.560D-01 0.128D+00 0.318D+00 0.499D+00
 Gap=     0.121 Goal=   None    Shift=    0.000
 Gap=     0.121 Goal=   None    Shift=    0.000
 RMSDP=3.99D-04 MaxDP=4.42D-02 DE=-1.44D-03 OVMax= 5.09D-03

 Cycle   7  Pass 1  IDiag  1:
 RMSU=  1.41D-04    CP:  1.39D+00  8.81D-01  8.35D-01  7.06D-01  7.82D-01
                    CP:  6.01D-01
 E= -1782.18732452942     Delta-E=       -0.000182654676 Rises=F Damp=F
 DIIS: error= 2.28D-04 at cycle   7 NSaved=   7.
 NSaved= 7 IEnMin= 7 EnMin= -1782.18732452942     IErMin= 7 ErrMin= 2.28D-04
 ErrMax= 2.28D-04  0.00D+00 EMaxC= 1.00D-01 BMatC= 8.36D-05 BMatP= 9.00D-04
 IDIUse=3 WtCom= 9.98D-01 WtEn= 2.28D-03
 Coeff-Com:  0.127D-02-0.304D-02 0.177D-01 0.442D-01 0.129D+00 0.296D+00
 Coeff-Com:  0.515D+00
 Coeff-En:   0.000D+00 0.000D+00 0.000D+00 0.000D+00 0.000D+00 0.488D-01
 Coeff-En:   0.951D+00
 Coeff:      0.127D-02-0.303D-02 0.177D-01 0.441D-01 0.129D+00 0.295D+00
 Coeff:      0.516D+00
 Gap=     0.121 Goal=   None    Shift=    0.000
 Gap=     0.121 Goal=   None    Shift=    0.000
 RMSDP=9.24D-05 MaxDP=7.32D-03 DE=-1.83D-04 OVMax= 1.75D-03

 Cycle   8  Pass 1  IDiag  1:
 RMSU=  6.26D-05    CP:  1.39D+00  8.81D-01  8.35D-01  7.13D-01  7.53D-01
                    CP:  6.87D-01  7.26D-01
 E= -1782.18734248457     Delta-E=       -0.000017955147 Rises=F Damp=F
 DIIS: error= 5.10D-05 at cycle   8 NSaved=   8.
 NSaved= 8 IEnMin= 8 EnMin= -1782.18734248457     IErMin= 8 ErrMin= 5.10D-05
 ErrMax= 5.10D-05  0.00D+00 EMaxC= 1.00D-01 BMatC= 8.31D-06 BMatP= 8.36D-05
 IDIUse=1 WtCom= 1.00D+00 WtEn= 0.00D+00
 Coeff-Com:  0.801D-03-0.180D-02 0.355D-02 0.102D-01 0.376D-01 0.117D+00
 Coeff-Com:  0.302D+00 0.531D+00
 Coeff:      0.801D-03-0.180D-02 0.355D-02 0.102D-01 0.376D-01 0.117D+00
 Coeff:      0.302D+00 0.531D+00
 Gap=     0.121 Goal=   None    Shift=    0.000
 Gap=     0.121 Goal=   None    Shift=    0.000
 RMSDP=2.49D-05 MaxDP=1.47D-03 DE=-1.80D-05 OVMax= 3.86D-04

 Cycle   9  Pass 1  IDiag  1:
 RMSU=  1.64D-05    CP:  1.39D+00  8.81D-01  8.35D-01  7.13D-01  7.60D-01
                    CP:  6.82D-01  7.09D-01  8.91D-01
 E= -1782.18734409442     Delta-E=       -0.000001609848 Rises=F Damp=F
 DIIS: error= 1.67D-05 at cycle   9 NSaved=   9.
 NSaved= 9 IEnMin= 9 EnMin= -1782.18734409442     IErMin= 9 ErrMin= 1.67D-05
 ErrMax= 1.67D-05  0.00D+00 EMaxC= 1.00D-01 BMatC= 6.66D-07 BMatP= 8.31D-06
 IDIUse=1 WtCom= 1.00D+00 WtEn= 0.00D+00
 Coeff-Com:  0.310D-03-0.673D-03 0.239D-03 0.992D-03 0.825D-02 0.345D-01
 Coeff-Com:  0.109D+00 0.274D+00 0.574D+00
 Coeff:      0.310D-03-0.673D-03 0.239D-03 0.992D-03 0.825D-02 0.345D-01
 Coeff:      0.109D+00 0.274D+00 0.574D+00
 Gap=     0.121 Goal=   None    Shift=    0.000
 Gap=     0.121 Goal=   None    Shift=    0.000
 RMSDP=9.82D-06 MaxDP=5.71D-04 DE=-1.61D-06 OVMax= 1.63D-04

 Cycle  10  Pass 1  IDiag  1:
 RMSU=  6.33D-06    CP:  1.39D+00  8.81D-01  8.35D-01  7.14D-01  7.63D-01
                    CP:  6.85D-01  7.26D-01  8.55D-01  6.75D-01
 E= -1782.18734418193     Delta-E=       -0.000000087511 Rises=F Damp=F
 DIIS: error= 1.44D-05 at cycle  10 NSaved=  10.
 NSaved=10 IEnMin=10 EnMin= -1782.18734418193     IErMin=10 ErrMin= 1.44D-05
 ErrMax= 1.44D-05  0.00D+00 EMaxC= 1.00D-01 BMatC= 2.42D-07 BMatP= 6.66D-07
 IDIUse=1 WtCom= 1.00D+00 WtEn= 0.00D+00
 Coeff-Com:  0.598D-04-0.113D-03-0.366D-03-0.108D-02-0.542D-03 0.402D-02
 Coeff-Com:  0.235D-01 0.970D-01 0.403D+00 0.475D+00
 Coeff:      0.598D-04-0.113D-03-0.366D-03-0.108D-02-0.542D-03 0.402D-02
 Coeff:      0.235D-01 0.970D-01 0.403D+00 0.475D+00
 Gap=     0.121 Goal=   None    Shift=    0.000
 Gap=     0.121 Goal=   None    Shift=    0.000
 RMSDP=5.03D-06 MaxDP=4.79D-04 DE=-8.75D-08 OVMax= 6.34D-05

 Cycle  11  Pass 1  IDiag  1:
 RMSU=  1.81D-06    CP:  1.39D+00  8.81D-01  8.35D-01  7.13D-01  7.63D-01
                    CP:  6.86D-01  7.25D-01  8.78D-01  7.49D-01  6.99D-01
 E= -1782.18734423431     Delta-E=       -0.000000052380 Rises=F Damp=F
 DIIS: error= 1.92D-06 at cycle  11 NSaved=  11.
 NSaved=11 IEnMin=11 EnMin= -1782.18734423431     IErMin=11 ErrMin= 1.92D-06
 ErrMax= 1.92D-06  0.00D+00 EMaxC= 1.00D-01 BMatC= 7.52D-09 BMatP= 2.42D-07
 IDIUse=1 WtCom= 1.00D+00 WtEn= 0.00D+00
 Coeff-Com: -0.298D-05 0.102D-04-0.167D-03-0.612D-03-0.801D-03-0.889D-03
 Coeff-Com:  0.161D-02 0.227D-01 0.139D+00 0.203D+00 0.636D+00
 Coeff:     -0.298D-05 0.102D-04-0.167D-03-0.612D-03-0.801D-03-0.889D-03
 Coeff:      0.161D-02 0.227D-01 0.139D+00 0.203D+00 0.636D+00
 Gap=     0.121 Goal=   None    Shift=    0.000
 Gap=     0.121 Goal=   None    Shift=    0.000
 RMSDP=9.99D-07 MaxDP=8.36D-05 DE=-5.24D-08 OVMax= 2.17D-05

 Cycle  12  Pass 1  IDiag  1:
 RMSU=  6.85D-07    CP:  1.39D+00  8.81D-01  8.35D-01  7.13D-01  7.63D-01
                    CP:  6.85D-01  7.25D-01  8.83D-01  7.66D-01  6.80D-01
                    CP:  1.01D+00
 E= -1782.18734423571     Delta-E=       -0.000000001397 Rises=F Damp=F
 DIIS: error= 7.93D-07 at cycle  12 NSaved=  12.
 NSaved=12 IEnMin=12 EnMin= -1782.18734423571     IErMin=12 ErrMin= 7.93D-07
 ErrMax= 7.93D-07  0.00D+00 EMaxC= 1.00D-01 BMatC= 1.85D-09 BMatP= 7.52D-09
 IDIUse=1 WtCom= 1.00D+00 WtEn= 0.00D+00
 Coeff-Com: -0.102D-04 0.197D-04-0.497D-04-0.234D-03-0.409D-03-0.122D-02
 Coeff-Com: -0.264D-02-0.740D-03 0.231D-01 0.431D-01 0.369D+00 0.570D+00
 Coeff:     -0.102D-04 0.197D-04-0.497D-04-0.234D-03-0.409D-03-0.122D-02
 Coeff:     -0.264D-02-0.740D-03 0.231D-01 0.431D-01 0.369D+00 0.570D+00
 Gap=     0.121 Goal=   None    Shift=    0.000
 Gap=     0.121 Goal=   None    Shift=    0.000
 RMSDP=3.87D-07 MaxDP=1.84D-05 DE=-1.40D-09 OVMax= 9.37D-06

 Cycle  13  Pass 1  IDiag  1:
 RMSU=  2.21D-07    CP:  1.39D+00  8.81D-01  8.35D-01  7.13D-01  7.63D-01
                    CP:  6.86D-01  7.25D-01  8.85D-01  7.68D-01  6.83D-01
                    CP:  1.02D+00  6.82D-01
 E= -1782.18734423612     Delta-E=       -0.000000000407 Rises=F Damp=F
 DIIS: error= 1.79D-07 at cycle  13 NSaved=  13.
 NSaved=13 IEnMin=13 EnMin= -1782.18734423612     IErMin=13 ErrMin= 1.79D-07
 ErrMax= 1.79D-07  0.00D+00 EMaxC= 1.00D-01 BMatC= 8.67D-11 BMatP= 1.85D-09
 IDIUse=1 WtCom= 1.00D+00 WtEn= 0.00D+00
 Coeff-Com: -0.304D-05 0.534D-05-0.593D-05-0.473D-04-0.940D-04-0.426D-03
 Coeff-Com: -0.114D-02-0.210D-02-0.307D-02-0.418D-02 0.898D-01 0.215D+00
 Coeff-Com:  0.706D+00
 Coeff:     -0.304D-05 0.534D-05-0.593D-05-0.473D-04-0.940D-04-0.426D-03
 Coeff:     -0.114D-02-0.210D-02-0.307D-02-0.418D-02 0.898D-01 0.215D+00
 Coeff:      0.706D+00
 Gap=     0.121 Goal=   None    Shift=    0.000
 Gap=     0.121 Goal=   None    Shift=    0.000
 RMSDP=3.43D-07 MaxDP=4.33D-05 DE=-4.07D-10 OVMax= 3.18D-06

 Cycle  14  Pass 1  IDiag  1:
 RMSU=  6.59D-08    CP:  1.39D+00  8.81D-01  8.35D-01  7.13D-01  7.63D-01
                    CP:  6.86D-01  7.25D-01  8.85D-01  7.70D-01  6.82D-01
                    CP:  1.05D+00  8.16D-01  8.76D-01
 E= -1782.18734423613     Delta-E=       -0.000000000018 Rises=F Damp=F
 DIIS: error= 1.45D-07 at cycle  14 NSaved=  14.
 NSaved=14 IEnMin=14 EnMin= -1782.18734423613     IErMin=14 ErrMin= 1.45D-07
 ErrMax= 1.45D-07  0.00D+00 EMaxC= 1.00D-01 BMatC= 2.71D-11 BMatP= 8.67D-11
 IDIUse=1 WtCom= 1.00D+00 WtEn= 0.00D+00
 Coeff-Com: -0.371D-07 0.576D-07 0.448D-05 0.661D-05 0.664D-05-0.724D-04
 Coeff-Com: -0.267D-03-0.117D-02-0.541D-02-0.995D-02-0.165D-02 0.347D-01
 Coeff-Com:  0.414D+00 0.570D+00
 Coeff:     -0.371D-07 0.576D-07 0.448D-05 0.661D-05 0.664D-05-0.724D-04
 Coeff:     -0.267D-03-0.117D-02-0.541D-02-0.995D-02-0.165D-02 0.347D-01
 Coeff:      0.414D+00 0.570D+00
 Gap=     0.121 Goal=   None    Shift=    0.000
 Gap=     0.121 Goal=   None    Shift=    0.000
 RMSDP=1.76D-07 MaxDP=1.86D-05 DE=-1.80D-11 OVMax= 1.55D-06

 Cycle  15  Pass 1  IDiag  1:
 RMSU=  3.54D-08    CP:  1.39D+00  8.81D-01  8.35D-01  7.13D-01  7.63D-01
                    CP:  6.86D-01  7.25D-01  8.85D-01  7.69D-01  6.82D-01
                    CP:  1.06D+00  7.78D-01  9.30D-01  5.28D-01
 E= -1782.18734423613     Delta-E=        0.000000000007 Rises=F Damp=F
 DIIS: error= 4.93D-08 at cycle  15 NSaved=  15.
 NSaved=15 IEnMin=14 EnMin= -1782.18734423613     IErMin=15 ErrMin= 4.93D-08
 ErrMax= 4.93D-08  0.00D+00 EMaxC= 1.00D-01 BMatC= 3.00D-12 BMatP= 2.71D-11
 IDIUse=1 WtCom= 1.00D+00 WtEn= 0.00D+00
 Coeff-Com:  0.378D-06-0.542D-06 0.317D-05 0.800D-05 0.127D-04-0.491D-06
 Coeff-Com: -0.351D-04-0.475D-03-0.268D-02-0.532D-02-0.807D-02-0.313D-02
 Coeff-Com:  0.163D+00 0.327D+00 0.529D+00
 Coeff:      0.378D-06-0.542D-06 0.317D-05 0.800D-05 0.127D-04-0.491D-06
 Coeff:     -0.351D-04-0.475D-03-0.268D-02-0.532D-02-0.807D-02-0.313D-02
 Coeff:      0.163D+00 0.327D+00 0.529D+00
 Gap=     0.121 Goal=   None    Shift=    0.000
 Gap=     0.121 Goal=   None    Shift=    0.000
 RMSDP=3.90D-08 MaxDP=2.99D-06 DE= 6.59D-12 OVMax= 2.97D-07

 Cycle  16  Pass 1  IDiag  1:
 RMSU=  1.09D-08    CP:  1.39D+00  8.81D-01  8.35D-01  7.13D-01  7.63D-01
                    CP:  6.86D-01  7.25D-01  8.85D-01  7.70D-01  6.80D-01
                    CP:  1.06D+00  7.88D-01  9.61D-01  6.94D-01  5.43D-01
 E= -1782.18734423610     Delta-E=        0.000000000024 Rises=F Damp=F
 DIIS: error= 1.89D-08 at cycle  16 NSaved=  16.
 NSaved=16 IEnMin=14 EnMin= -1782.18734423613     IErMin=16 ErrMin= 1.89D-08
 ErrMax= 1.89D-08  0.00D+00 EMaxC= 1.00D-01 BMatC= 4.84D-13 BMatP= 3.00D-12
 IDIUse=1 WtCom= 1.00D+00 WtEn= 0.00D+00
 Coeff-Com:  0.310D-06-0.432D-06 0.106D-05 0.342D-05 0.620D-05 0.125D-04
 Coeff-Com:  0.336D-04-0.707D-04-0.523D-03-0.132D-02-0.398D-02-0.999D-02
 Coeff-Com:  0.193D-01 0.102D+00 0.322D+00 0.573D+00
 Coeff:      0.310D-06-0.432D-06 0.106D-05 0.342D-05 0.620D-05 0.125D-04
 Coeff:      0.336D-04-0.707D-04-0.523D-03-0.132D-02-0.398D-02-0.999D-02
 Coeff:      0.193D-01 0.102D+00 0.322D+00 0.573D+00
 Gap=     0.121 Goal=   None    Shift=    0.000
 Gap=     0.121 Goal=   None    Shift=    0.000
 RMSDP=1.85D-08 MaxDP=1.95D-06 DE= 2.39D-11 OVMax= 1.23D-07

 Cycle  17  Pass 1  IDiag  1:
 RMSU=  3.88D-09    CP:  1.39D+00  8.81D-01  8.35D-01  7.13D-01  7.63D-01
                    CP:  6.86D-01  7.25D-01  8.85D-01  7.70D-01  6.80D-01
                    CP:  1.06D+00  7.85D-01  9.61D-01  6.40D-01  7.10D-01
                    CP:  7.20D-01
 E= -1782.18734423612     Delta-E=       -0.000000000022 Rises=F Damp=F
 DIIS: error= 4.97D-09 at cycle  17 NSaved=  17.
 NSaved=17 IEnMin=14 EnMin= -1782.18734423613     IErMin=17 ErrMin= 4.97D-09
 ErrMax= 4.97D-09  0.00D+00 EMaxC= 1.00D-01 BMatC= 4.22D-14 BMatP= 4.84D-13
 IDIUse=1 WtCom= 1.00D+00 WtEn= 0.00D+00
 Coeff-Com:  0.134D-06-0.192D-06 0.275D-06 0.944D-06 0.206D-05 0.559D-05
 Coeff-Com:  0.198D-04 0.451D-05 0.483D-05-0.146D-03-0.783D-03-0.468D-02
 Coeff-Com: -0.511D-02 0.227D-01 0.107D+00 0.290D+00 0.592D+00
 Coeff:      0.134D-06-0.192D-06 0.275D-06 0.944D-06 0.206D-05 0.559D-05
 Coeff:      0.198D-04 0.451D-05 0.483D-05-0.146D-03-0.783D-03-0.468D-02
 Coeff:     -0.511D-02 0.227D-01 0.107D+00 0.290D+00 0.592D+00
 Gap=     0.121 Goal=   None    Shift=    0.000
 Gap=     0.121 Goal=   None    Shift=    0.000
 RMSDP=4.89D-09 MaxDP=4.19D-07 DE=-2.21D-11 OVMax= 5.34D-08

 Error on total polarization charges =  0.02120
 SCF Done:  E(UB3LYP) =  -1782.18734424     A.U. after   17 cycles
            NFock= 17  Conv=0.49D-08     -V/T= 2.0026
 <Sx>= 0.0000 <Sy>= 0.0000 <Sz>= 0.0000 <S**2>=-0.0000 S=-0.0000
 <L.S>=  0.00000000000    
 KE= 1.777507757199D+03 PE=-7.959121298986D+03 EE= 2.542326875401D+03
 Annihilation of the first spin contaminant:
 S**2 before annihilation    -0.0000,   after     0.0000
 Leave Link  502 at Sun Feb 11 19:37:45 2024, MaxMem=  4026531840 cpu:            1820.5 elap:             234.4
 (Enter /sysapps/ubuntu-applications/gaussian/Gaussian/AVX2/g16/l601.exe)
 Copying SCF densities to generalized density rwf, IOpCl= 1 IROHF=0.

 **********************************************************************

            Population analysis using the SCF density.

 **********************************************************************

 Alpha  occ. eigenvalues --  -89.05498 -89.04906 -19.14424 -19.14178 -19.09945
 Alpha  occ. eigenvalues --  -19.09941 -19.09880 -19.09512 -19.09336 -19.09200
 Alpha  occ. eigenvalues --  -10.28585 -10.28212 -10.23764 -10.22508 -10.21723
 Alpha  occ. eigenvalues --  -10.20954 -10.20364 -10.20193 -10.19790 -10.19734
 Alpha  occ. eigenvalues --   -8.11367  -8.10781  -6.07626  -6.07614  -6.07579
 Alpha  occ. eigenvalues --   -6.07045  -6.07037  -6.06977  -1.11991  -1.11299
 Alpha  occ. eigenvalues --   -1.08241  -1.05516  -0.98385  -0.98283  -0.97879
 Alpha  occ. eigenvalues --   -0.97417  -0.89830  -0.84342  -0.79008  -0.76908
 Alpha  occ. eigenvalues --   -0.72308  -0.66201  -0.64618  -0.62665  -0.59087
 Alpha  occ. eigenvalues --   -0.57247  -0.54625  -0.52518  -0.51167  -0.49511
 Alpha  occ. eigenvalues --   -0.48421  -0.46721  -0.46337  -0.46301  -0.45848
 Alpha  occ. eigenvalues --   -0.45617  -0.45412  -0.45055  -0.44738  -0.42408
 Alpha  occ. eigenvalues --   -0.41227  -0.40529  -0.39251  -0.37769  -0.34820
 Alpha  occ. eigenvalues --   -0.34235  -0.34014  -0.33737  -0.33659  -0.32114
 Alpha  occ. eigenvalues --   -0.31342  -0.30594  -0.29996  -0.29796  -0.29524
 Alpha  occ. eigenvalues --   -0.29289  -0.27349  -0.26517  -0.26329  -0.25971
 Alpha  occ. eigenvalues --   -0.25811
 Alpha virt. eigenvalues --   -0.13743  -0.06169  -0.02959   0.00040   0.00299
 Alpha virt. eigenvalues --    0.01179   0.01666   0.03249   0.03546   0.04211
 Alpha virt. eigenvalues --    0.04259   0.05526   0.06032   0.06160   0.06318
 Alpha virt. eigenvalues --    0.06768   0.06825   0.08060   0.08275   0.08968
 Alpha virt. eigenvalues --    0.09355   0.09577   0.09838   0.10043   0.10721
 Alpha virt. eigenvalues --    0.11031   0.11249   0.11424   0.11795   0.12151
 Alpha virt. eigenvalues --    0.12805   0.13142   0.13384   0.13422   0.13906
 Alpha virt. eigenvalues --    0.14125   0.14298   0.14649   0.15103   0.15955
 Alpha virt. eigenvalues --    0.16276   0.16524   0.16592   0.17330   0.17872
 Alpha virt. eigenvalues --    0.18416   0.19033   0.19259   0.19612   0.20544
 Alpha virt. eigenvalues --    0.21047   0.21714   0.22024   0.22298   0.22701
 Alpha virt. eigenvalues --    0.23485   0.23654   0.23994   0.24425   0.24789
 Alpha virt. eigenvalues --    0.24826   0.25443   0.26209   0.26601   0.26877
 Alpha virt. eigenvalues --    0.27152   0.27495   0.28444   0.28622   0.28718
 Alpha virt. eigenvalues --    0.29167   0.29320   0.29470   0.30019   0.30198
 Alpha virt. eigenvalues --    0.30519   0.30816   0.31193   0.31256   0.31807
 Alpha virt. eigenvalues --    0.31998   0.32446   0.32727   0.33513   0.33897
 Alpha virt. eigenvalues --    0.33967   0.34181   0.35005   0.35338   0.35508
 Alpha virt. eigenvalues --    0.35884   0.36674   0.37164   0.37271   0.38005
 Alpha virt. eigenvalues --    0.38268   0.38857   0.39206   0.39623   0.40568
 Alpha virt. eigenvalues --    0.41780   0.42008   0.42318   0.42829   0.44084
 Alpha virt. eigenvalues --    0.45612   0.46350   0.47439   0.47957   0.48033
 Alpha virt. eigenvalues --    0.50568   0.51795   0.52413   0.52754   0.53155
 Alpha virt. eigenvalues --    0.53693   0.56520   0.57359   0.57493   0.59636
 Alpha virt. eigenvalues --    0.60219   0.60483   0.60828   0.61524   0.62226
 Alpha virt. eigenvalues --    0.62950   0.64014   0.64845   0.65879   0.66242
 Alpha virt. eigenvalues --    0.68347   0.69659   0.70702   0.71018   0.72429
 Alpha virt. eigenvalues --    0.73504   0.74744   0.75318   0.77170   0.78637
 Alpha virt. eigenvalues --    0.79557   0.81082   0.82846   0.84632   0.84950
 Alpha virt. eigenvalues --    0.86411   0.87311   0.88351   0.89317   0.90335
 Alpha virt. eigenvalues --    0.91593   0.92294   0.93004   0.93858   0.93867
 Alpha virt. eigenvalues --    0.94761   0.95381   0.96333   0.96854   0.98089
 Alpha virt. eigenvalues --    0.98304   1.00135   1.01716   1.02582   1.03468
 Alpha virt. eigenvalues --    1.04740   1.05934   1.07107   1.07404   1.07706
 Alpha virt. eigenvalues --    1.08522   1.08951   1.10173   1.10994   1.12712
 Alpha virt. eigenvalues --    1.13101   1.14559   1.15146   1.15545   1.16486
 Alpha virt. eigenvalues --    1.17575   1.18195   1.18938   1.19261   1.19783
 Alpha virt. eigenvalues --    1.20205   1.20975   1.21555   1.21631   1.21818
 Alpha virt. eigenvalues --    1.22084   1.22742   1.23602   1.24321   1.25230
 Alpha virt. eigenvalues --    1.25332   1.25717   1.25996   1.27544   1.28605
 Alpha virt. eigenvalues --    1.29496   1.32850   1.33614   1.35474   1.37751
 Alpha virt. eigenvalues --    1.41065   1.44326   1.47970   1.48905   1.50588
 Alpha virt. eigenvalues --    1.52093   1.53041   1.56224   1.58040   1.58602
 Alpha virt. eigenvalues --    1.60308   1.61564   1.62000   1.63126   1.64995
 Alpha virt. eigenvalues --    1.66016   1.67442   1.69852   1.70843   1.71828
 Alpha virt. eigenvalues --    1.72993   1.73689   1.74580   1.75835   1.76825
 Alpha virt. eigenvalues --    1.79106   1.80617   1.84940   1.85434   1.86401
 Alpha virt. eigenvalues --    1.86682   1.89075   1.89767   1.90947   1.91281
 Alpha virt. eigenvalues --    1.92503   1.94475   1.95256   1.96070   1.99933
 Alpha virt. eigenvalues --    2.01371   2.03016   2.05424   2.06490   2.06872
 Alpha virt. eigenvalues --    2.09120   2.11714   2.12112   2.14020   2.16009
 Alpha virt. eigenvalues --    2.16459   2.24234   2.27018   2.30392   2.34050
 Alpha virt. eigenvalues --    2.37554   2.40098   2.47545   2.49769   2.57125
 Alpha virt. eigenvalues --    2.57549   2.64077   2.65161   2.65530   2.67140
 Alpha virt. eigenvalues --    2.71777   2.72076   2.73506   2.74168   2.74392
 Alpha virt. eigenvalues --    2.75853   2.77272   2.77709   2.78551   2.79211
 Alpha virt. eigenvalues --    2.81848   2.82500   2.83043   2.83937   2.84172
 Alpha virt. eigenvalues --    2.85033   2.85309   2.85722   2.86114   2.86423
 Alpha virt. eigenvalues --    2.86983   2.87777   2.88080   2.89475   2.89846
 Alpha virt. eigenvalues --    2.90372   2.90907   2.92536   2.93761   2.95393
 Alpha virt. eigenvalues --    2.95906   2.97942   2.98903   2.99777   3.01012
 Alpha virt. eigenvalues --    3.03114   3.03674   3.04373   3.09145   3.13937
 Alpha virt. eigenvalues --    3.14830   3.15046   3.15486   3.17134   3.17796
 Alpha virt. eigenvalues --    3.20967   3.22826   3.26158   3.28413   3.28761
 Alpha virt. eigenvalues --    3.34527   3.36415   3.37034   3.40580   3.42628
 Alpha virt. eigenvalues --    3.45348   3.47435   3.54575   3.56792   3.58432
 Alpha virt. eigenvalues --    3.58785   3.59198   3.60984   3.61324   3.63179
 Alpha virt. eigenvalues --    3.70512   3.75577   3.81572   3.85557   4.05462
 Alpha virt. eigenvalues --    4.11522   4.15079   4.20355   4.33352   4.70491
 Alpha virt. eigenvalues --    4.83028   4.99645   5.01399   5.03471   5.04484
 Alpha virt. eigenvalues --    5.04680   5.06180   5.07185   5.07542   5.08472
 Alpha virt. eigenvalues --    5.08554   5.08944   5.10271   5.11329   5.12506
 Alpha virt. eigenvalues --    5.12854   5.14079   5.16839   5.28280   5.28942
 Alpha virt. eigenvalues --    5.29539   5.30208   5.33048   5.64838   5.80126
 Alpha virt. eigenvalues --    8.20440   8.22081  17.40120  17.40772  17.41160
 Alpha virt. eigenvalues --   17.41466  17.49295  17.52067  23.50628  23.69768
 Alpha virt. eigenvalues --   23.85315  23.89097  23.91159  23.92049  24.02301
 Alpha virt. eigenvalues --   24.05805  24.15113  24.16274  49.88282  49.89442
 Alpha virt. eigenvalues --   49.90253  49.91025  49.95303  49.96131  49.98781
 Alpha virt. eigenvalues --   50.06102 189.29228 189.31295
  Beta  occ. eigenvalues --  -89.05498 -89.04906 -19.14424 -19.14178 -19.09945
  Beta  occ. eigenvalues --  -19.09941 -19.09880 -19.09512 -19.09336 -19.09200
  Beta  occ. eigenvalues --  -10.28585 -10.28212 -10.23764 -10.22508 -10.21723
  Beta  occ. eigenvalues --  -10.20954 -10.20364 -10.20193 -10.19790 -10.19734
  Beta  occ. eigenvalues --   -8.11367  -8.10781  -6.07626  -6.07614  -6.07579
  Beta  occ. eigenvalues --   -6.07045  -6.07037  -6.06977  -1.11991  -1.11299
  Beta  occ. eigenvalues --   -1.08241  -1.05516  -0.98385  -0.98283  -0.97879
  Beta  occ. eigenvalues --   -0.97417  -0.89830  -0.84342  -0.79008  -0.76908
  Beta  occ. eigenvalues --   -0.72308  -0.66201  -0.64618  -0.62665  -0.59087
  Beta  occ. eigenvalues --   -0.57247  -0.54625  -0.52518  -0.51167  -0.49511
  Beta  occ. eigenvalues --   -0.48421  -0.46721  -0.46337  -0.46301  -0.45848
  Beta  occ. eigenvalues --   -0.45617  -0.45412  -0.45055  -0.44738  -0.42408
  Beta  occ. eigenvalues --   -0.41227  -0.40529  -0.39251  -0.37769  -0.34820
  Beta  occ. eigenvalues --   -0.34235  -0.34014  -0.33737  -0.33659  -0.32114
  Beta  occ. eigenvalues --   -0.31342  -0.30594  -0.29996  -0.29796  -0.29524
  Beta  occ. eigenvalues --   -0.29289  -0.27349  -0.26517  -0.26329  -0.25971
  Beta  occ. eigenvalues --   -0.25811
  Beta virt. eigenvalues --   -0.13743  -0.06169  -0.02959   0.00040   0.00299
  Beta virt. eigenvalues --    0.01179   0.01666   0.03249   0.03546   0.04211
  Beta virt. eigenvalues --    0.04259   0.05526   0.06032   0.06160   0.06318
  Beta virt. eigenvalues --    0.06768   0.06825   0.08060   0.08275   0.08968
  Beta virt. eigenvalues --    0.09355   0.09577   0.09838   0.10043   0.10721
  Beta virt. eigenvalues --    0.11031   0.11249   0.11424   0.11795   0.12151
  Beta virt. eigenvalues --    0.12805   0.13142   0.13384   0.13422   0.13906
  Beta virt. eigenvalues --    0.14125   0.14298   0.14649   0.15103   0.15955
  Beta virt. eigenvalues --    0.16276   0.16524   0.16592   0.17330   0.17872
  Beta virt. eigenvalues --    0.18416   0.19033   0.19259   0.19612   0.20544
  Beta virt. eigenvalues --    0.21047   0.21714   0.22024   0.22298   0.22701
  Beta virt. eigenvalues --    0.23485   0.23654   0.23994   0.24425   0.24789
  Beta virt. eigenvalues --    0.24826   0.25443   0.26209   0.26601   0.26877
  Beta virt. eigenvalues --    0.27152   0.27495   0.28444   0.28622   0.28718
  Beta virt. eigenvalues --    0.29167   0.29320   0.29470   0.30019   0.30198
  Beta virt. eigenvalues --    0.30519   0.30816   0.31193   0.31256   0.31807
  Beta virt. eigenvalues --    0.31998   0.32446   0.32727   0.33513   0.33897
  Beta virt. eigenvalues --    0.33967   0.34181   0.35005   0.35338   0.35508
  Beta virt. eigenvalues --    0.35884   0.36674   0.37164   0.37271   0.38005
  Beta virt. eigenvalues --    0.38268   0.38857   0.39206   0.39623   0.40568
  Beta virt. eigenvalues --    0.41780   0.42008   0.42318   0.42829   0.44084
  Beta virt. eigenvalues --    0.45612   0.46350   0.47439   0.47957   0.48033
  Beta virt. eigenvalues --    0.50568   0.51795   0.52413   0.52754   0.53155
  Beta virt. eigenvalues --    0.53693   0.56520   0.57359   0.57493   0.59636
  Beta virt. eigenvalues --    0.60219   0.60483   0.60828   0.61524   0.62226
  Beta virt. eigenvalues --    0.62950   0.64014   0.64845   0.65879   0.66242
  Beta virt. eigenvalues --    0.68347   0.69659   0.70702   0.71018   0.72429
  Beta virt. eigenvalues --    0.73504   0.74744   0.75318   0.77170   0.78637
  Beta virt. eigenvalues --    0.79557   0.81082   0.82846   0.84632   0.84950
  Beta virt. eigenvalues --    0.86411   0.87311   0.88351   0.89317   0.90335
  Beta virt. eigenvalues --    0.91593   0.92294   0.93004   0.93858   0.93867
  Beta virt. eigenvalues --    0.94761   0.95381   0.96333   0.96854   0.98089
  Beta virt. eigenvalues --    0.98304   1.00135   1.01716   1.02582   1.03468
  Beta virt. eigenvalues --    1.04740   1.05934   1.07107   1.07404   1.07706
  Beta virt. eigenvalues --    1.08522   1.08951   1.10173   1.10994   1.12712
  Beta virt. eigenvalues --    1.13101   1.14559   1.15146   1.15545   1.16486
  Beta virt. eigenvalues --    1.17575   1.18195   1.18938   1.19261   1.19783
  Beta virt. eigenvalues --    1.20205   1.20975   1.21555   1.21631   1.21818
  Beta virt. eigenvalues --    1.22084   1.22742   1.23602   1.24321   1.25230
  Beta virt. eigenvalues --    1.25332   1.25717   1.25996   1.27544   1.28605
  Beta virt. eigenvalues --    1.29496   1.32850   1.33614   1.35474   1.37751
  Beta virt. eigenvalues --    1.41065   1.44326   1.47970   1.48905   1.50588
  Beta virt. eigenvalues --    1.52093   1.53041   1.56224   1.58040   1.58602
  Beta virt. eigenvalues --    1.60308   1.61564   1.62000   1.63126   1.64995
  Beta virt. eigenvalues --    1.66016   1.67442   1.69852   1.70843   1.71828
  Beta virt. eigenvalues --    1.72993   1.73689   1.74580   1.75835   1.76825
  Beta virt. eigenvalues --    1.79106   1.80617   1.84940   1.85434   1.86401
  Beta virt. eigenvalues --    1.86682   1.89075   1.89767   1.90947   1.91281
  Beta virt. eigenvalues --    1.92503   1.94475   1.95256   1.96070   1.99933
  Beta virt. eigenvalues --    2.01371   2.03016   2.05424   2.06490   2.06872
  Beta virt. eigenvalues --    2.09120   2.11714   2.12112   2.14020   2.16009
  Beta virt. eigenvalues --    2.16459   2.24234   2.27018   2.30392   2.34050
  Beta virt. eigenvalues --    2.37554   2.40098   2.47545   2.49769   2.57125
  Beta virt. eigenvalues --    2.57549   2.64077   2.65161   2.65530   2.67140
  Beta virt. eigenvalues --    2.71777   2.72076   2.73506   2.74168   2.74392
  Beta virt. eigenvalues --    2.75853   2.77272   2.77709   2.78551   2.79211
  Beta virt. eigenvalues --    2.81848   2.82500   2.83043   2.83937   2.84172
  Beta virt. eigenvalues --    2.85033   2.85309   2.85722   2.86114   2.86423
  Beta virt. eigenvalues --    2.86983   2.87777   2.88080   2.89475   2.89846
  Beta virt. eigenvalues --    2.90372   2.90907   2.92536   2.93761   2.95393
  Beta virt. eigenvalues --    2.95906   2.97942   2.98903   2.99777   3.01012
  Beta virt. eigenvalues --    3.03114   3.03674   3.04373   3.09145   3.13937
  Beta virt. eigenvalues --    3.14830   3.15046   3.15486   3.17134   3.17796
  Beta virt. eigenvalues --    3.20967   3.22826   3.26158   3.28413   3.28761
  Beta virt. eigenvalues --    3.34527   3.36415   3.37034   3.40580   3.42628
  Beta virt. eigenvalues --    3.45348   3.47435   3.54575   3.56792   3.58432
  Beta virt. eigenvalues --    3.58785   3.59198   3.60984   3.61324   3.63179
  Beta virt. eigenvalues --    3.70512   3.75577   3.81572   3.85557   4.05462
  Beta virt. eigenvalues --    4.11522   4.15079   4.20355   4.33352   4.70491
  Beta virt. eigenvalues --    4.83028   4.99645   5.01399   5.03471   5.04484
  Beta virt. eigenvalues --    5.04680   5.06180   5.07185   5.07542   5.08472
  Beta virt. eigenvalues --    5.08554   5.08944   5.10271   5.11329   5.12506
  Beta virt. eigenvalues --    5.12854   5.14079   5.16839   5.28280   5.28942
  Beta virt. eigenvalues --    5.29539   5.30208   5.33048   5.64838   5.80126
  Beta virt. eigenvalues --    8.20440   8.22081  17.40120  17.40772  17.41160
  Beta virt. eigenvalues --   17.41466  17.49295  17.52067  23.50628  23.69768
  Beta virt. eigenvalues --   23.85315  23.89097  23.91159  23.92049  24.02301
  Beta virt. eigenvalues --   24.05805  24.15113  24.16274  49.88282  49.89442
  Beta virt. eigenvalues --   49.90253  49.91025  49.95303  49.96131  49.98781
  Beta virt. eigenvalues --   50.06102 189.29228 189.31295
          Condensed to atoms (all electrons):
               1          2          3          4          5          6
     1  C   25.957832 -10.473394   2.566379   0.097009 -19.229347   9.463833
     2  C  -10.473394  33.868812 -22.005315  -9.264725  23.108067 -10.201033
     3  C    2.566379 -22.005315  44.986340   6.325633 -31.969985  14.196088
     4  C    0.097009  -9.264725   6.325633  24.608163  -8.212393   6.844778
     5  C  -19.229347  23.108067 -31.969985  -8.212393  63.690887 -34.552724
     6  C    9.463833 -10.201033  14.196088   6.844778 -34.552724  39.711491
     7  C    4.439086  -3.400193   2.606419  -8.568617  -8.022280   4.677326
     8  C    0.454614  -0.724411   0.460398  -0.542245  -1.443150  -0.626791
     9  C   -4.139714   2.708542  -3.930850  -1.698898  10.333153 -15.933808
    10  C   -3.521234   1.943174  -5.031048  -2.750786   9.390901  -1.922942
    11  O    0.142159  -0.014921   0.048292  -0.056362  -0.092395   0.071968
    12  O    0.031663   0.013508  -0.011158  -0.062211  -0.021776  -0.003523
    13  H    0.473843  -0.138570  -0.114511   0.069943   0.001985   0.016974
    14  H   -0.125443   0.723284  -0.268145  -0.128267   0.127353  -0.019180
    15  S    0.032103  -0.159141  -0.428121   0.125569  -0.736710   0.463259
    16  H    0.181006  -0.415328   0.760476   0.295580  -1.082078   1.194229
    17  H    0.000332  -0.002638   0.014204   0.019246   0.005530   0.086543
    18  S   -0.663200   0.997537  -2.062373  -1.710101   4.077061  -5.681099
    19  O    0.046866  -0.021980   0.066669   0.217102  -0.154669   0.831036
    20  O   -0.051505   0.056166  -0.106004  -0.187926   0.267916  -0.673175
    21  O   -0.065639   0.085725  -0.174046  -0.218101   0.425083  -0.909770
    22  O   -0.022406  -0.021481   0.182145   0.002945  -0.050803  -0.058165
    23  O    0.075968   0.314260  -0.565855  -0.007055   0.098743  -0.000771
    24  O    0.147659  -0.570446   0.840002   0.103120  -0.294125  -0.114771
               7          8          9         10         11         12
     1  C    4.439086   0.454614  -4.139714  -3.521234   0.142159   0.031663
     2  C   -3.400193  -0.724411   2.708542   1.943174  -0.014921   0.013508
     3  C    2.606419   0.460398  -3.930850  -5.031048   0.048292  -0.011158
     4  C   -8.568617  -0.542245  -1.698898  -2.750786  -0.056362  -0.062211
     5  C   -8.022280  -1.443150  10.333153   9.390901  -0.092395  -0.021776
     6  C    4.677326  -0.626791 -15.933808  -1.922942   0.071968  -0.003523
     7  C   24.084903  -4.317871  -7.290781   2.694959   0.191142   0.061565
     8  C   -4.317871  14.460737   3.085406  -6.658807   0.019562   0.462138
     9  C   -7.290781   3.085406  28.063398 -10.550980   0.027240  -0.459043
    10  C    2.694959  -6.658807 -10.550980  28.736098  -0.199444   0.143607
    11  O    0.191142   0.019562   0.027240  -0.199444   8.130060   0.015042
    12  O    0.061565   0.462138  -0.459043   0.143607   0.015042   8.147615
    13  H   -0.011507   0.013248   0.008980  -0.005098  -0.007318  -0.000248
    14  H    0.005620   0.001667   0.006306  -0.011966   0.001651   0.000137
    15  S   -0.165166   0.042356  -0.003649   0.082629   0.001557  -0.000277
    16  H    0.114388  -0.055016  -0.395588   0.100889   0.001691  -0.000868
    17  H   -0.147812  -0.221359   0.468541   0.193300   0.002069  -0.022024
    18  S   -0.173217   1.176586   5.537012  -6.276346  -0.013129   0.011116
    19  O    0.060124  -0.056098  -1.275478   1.259259  -0.000151   0.004243
    20  O   -0.062067   0.083375   0.604114  -0.476364  -0.000083  -0.000058
    21  O   -0.066719   0.090322   0.722867  -0.460201  -0.000098  -0.000066
    22  O   -0.003085  -0.000022  -0.001185  -0.004633  -0.000002  -0.000000
    23  O   -0.001646   0.001851   0.001694   0.019570   0.000012  -0.000001
    24  O    0.015696   0.000829  -0.003998  -0.026320  -0.000006  -0.000000
              13         14         15         16         17         18
     1  C    0.473843  -0.125443   0.032103   0.181006   0.000332  -0.663200
     2  C   -0.138570   0.723284  -0.159141  -0.415328  -0.002638   0.997537
     3  C   -0.114511  -0.268145  -0.428121   0.760476   0.014204  -2.062373
     4  C    0.069943  -0.128267   0.125569   0.295580   0.019246  -1.710101
     5  C    0.001985   0.127353  -0.736710  -1.082078   0.005530   4.077061
     6  C    0.016974  -0.019180   0.463259   1.194229   0.086543  -5.681099
     7  C   -0.011507   0.005620  -0.165166   0.114388  -0.147812  -0.173217
     8  C    0.013248   0.001667   0.042356  -0.055016  -0.221359   1.176586
     9  C    0.008980   0.006306  -0.003649  -0.395588   0.468541   5.537012
    10  C   -0.005098  -0.011966   0.082629   0.100889   0.193300  -6.276346
    11  O   -0.007318   0.001651   0.001557   0.001691   0.002069  -0.013129
    12  O   -0.000248   0.000137  -0.000277  -0.000868  -0.022024   0.011116
    13  H    0.506440  -0.018488   0.002657   0.002334   0.000098   0.006261
    14  H   -0.018488   0.484554  -0.019664  -0.001626  -0.000005   0.003604
    15  S    0.002657  -0.019664  16.241349  -0.098286  -0.000591  -0.038415
    16  H    0.002334  -0.001626  -0.098286   0.647101   0.006003  -0.422752
    17  H    0.000098  -0.000005  -0.000591   0.006003   0.467137  -0.153186
    18  S    0.006261   0.003604  -0.038415  -0.422752  -0.153186  20.959994
    19  O   -0.000087   0.000030  -0.003221   0.048588   0.021494  -1.352469
    20  O    0.000376  -0.000294   0.007875  -0.051867  -0.005652   0.619845
    21  O    0.000187   0.000178  -0.002720  -0.050881  -0.005983   0.621498
    22  O    0.001030  -0.007407   0.149636  -0.001931  -0.000008  -0.003982
    23  O   -0.000076   0.009464   0.019063   0.018876  -0.000038   0.000143
    24  O    0.000513  -0.002886  -0.180495   0.035271   0.000024  -0.007157
              19         20         21         22         23         24
     1  C    0.046866  -0.051505  -0.065639  -0.022406   0.075968   0.147659
     2  C   -0.021980   0.056166   0.085725  -0.021481   0.314260  -0.570446
     3  C    0.066669  -0.106004  -0.174046   0.182145  -0.565855   0.840002
     4  C    0.217102  -0.187926  -0.218101   0.002945  -0.007055   0.103120
     5  C   -0.154669   0.267916   0.425083  -0.050803   0.098743  -0.294125
     6  C    0.831036  -0.673175  -0.909770  -0.058165  -0.000771  -0.114771
     7  C    0.060124  -0.062067  -0.066719  -0.003085  -0.001646   0.015696
     8  C   -0.056098   0.083375   0.090322  -0.000022   0.001851   0.000829
     9  C   -1.275478   0.604114   0.722867  -0.001185   0.001694  -0.003998
    10  C    1.259259  -0.476364  -0.460201  -0.004633   0.019570  -0.026320
    11  O   -0.000151  -0.000083  -0.000098  -0.000002   0.000012  -0.000006
    12  O    0.004243  -0.000058  -0.000066  -0.000000  -0.000001  -0.000000
    13  H   -0.000087   0.000376   0.000187   0.001030  -0.000076   0.000513
    14  H    0.000030  -0.000294   0.000178  -0.007407   0.009464  -0.002886
    15  S   -0.003221   0.007875  -0.002720   0.149636   0.019063  -0.180495
    16  H    0.048588  -0.051867  -0.050881  -0.001931   0.018876   0.035271
    17  H    0.021494  -0.005652  -0.005983  -0.000008  -0.000038   0.000024
    18  S   -1.352469   0.619845   0.621498  -0.003982   0.000143  -0.007157
    19  O    9.290195  -0.350202  -0.337547  -0.000037  -0.000126   0.000008
    20  O   -0.350202   8.839314  -0.180492   0.000236   0.001812  -0.000218
    21  O   -0.337547  -0.180492   8.857933  -0.000123   0.000781  -0.000255
    22  O   -0.000037   0.000236  -0.000123   8.618025  -0.229472  -0.194224
    23  O   -0.000126   0.001812   0.000781  -0.229472   8.822679  -0.200624
    24  O    0.000008  -0.000218  -0.000255  -0.194224  -0.200624   8.855777
          Atomic-Atomic Spin Densities.
               1          2          3          4          5          6
     1  C   -0.000000   0.000000  -0.000000   0.000000   0.000000  -0.000000
     2  C    0.000000  -0.000000   0.000000   0.000000  -0.000000   0.000000
     3  C   -0.000000   0.000000  -0.000000  -0.000000   0.000000  -0.000000
     4  C    0.000000   0.000000  -0.000000  -0.000000   0.000000  -0.000000
     5  C    0.000000  -0.000000   0.000000   0.000000  -0.000001   0.000000
     6  C   -0.000000   0.000000  -0.000000  -0.000000   0.000000  -0.000000
     7  C   -0.000000   0.000000  -0.000000  -0.000000   0.000000  -0.000000
     8  C   -0.000000   0.000000  -0.000000   0.000000   0.000000  -0.000000
     9  C    0.000000  -0.000000   0.000000   0.000000  -0.000000   0.000000
    10  C    0.000000  -0.000000   0.000000   0.000000  -0.000000   0.000000
    11  O   -0.000000   0.000000  -0.000000   0.000000   0.000000  -0.000000
    12  O    0.000000  -0.000000   0.000000  -0.000000  -0.000000   0.000000
    13  H    0.000000  -0.000000   0.000000  -0.000000  -0.000000   0.000000
    14  H    0.000000  -0.000000   0.000000   0.000000  -0.000000   0.000000
    15  S   -0.000000   0.000000  -0.000000  -0.000000   0.000000  -0.000000
    16  H   -0.000000   0.000000  -0.000000  -0.000000   0.000000  -0.000000
    17  H   -0.000000   0.000000  -0.000000   0.000000  -0.000000  -0.000000
    18  S    0.000000  -0.000000   0.000000   0.000000  -0.000000   0.000000
    19  O   -0.000000   0.000000  -0.000000  -0.000000   0.000000  -0.000000
    20  O    0.000000  -0.000000   0.000000   0.000000  -0.000000   0.000000
    21  O    0.000000  -0.000000   0.000000   0.000000  -0.000000   0.000000
    22  O    0.000000  -0.000000   0.000000  -0.000000   0.000000   0.000000
    23  O    0.000000  -0.000000   0.000000   0.000000  -0.000000  -0.000000
    24  O   -0.000000   0.000000  -0.000000  -0.000000   0.000000   0.000000
               7          8          9         10         11         12
     1  C   -0.000000  -0.000000   0.000000   0.000000  -0.000000   0.000000
     2  C    0.000000   0.000000  -0.000000  -0.000000   0.000000  -0.000000
     3  C   -0.000000  -0.000000   0.000000   0.000000  -0.000000   0.000000
     4  C   -0.000000   0.000000   0.000000   0.000000   0.000000  -0.000000
     5  C    0.000000   0.000000  -0.000000  -0.000000   0.000000  -0.000000
     6  C   -0.000000  -0.000000   0.000000   0.000000  -0.000000   0.000000
     7  C   -0.000000  -0.000000  -0.000000   0.000000  -0.000000   0.000000
     8  C   -0.000000  -0.000000   0.000000   0.000000  -0.000000  -0.000000
     9  C   -0.000000   0.000000  -0.000000   0.000000   0.000000  -0.000000
    10  C    0.000000   0.000000   0.000000  -0.000000   0.000000   0.000000
    11  O   -0.000000  -0.000000   0.000000   0.000000  -0.000000   0.000000
    12  O    0.000000  -0.000000  -0.000000   0.000000   0.000000   0.000000
    13  H    0.000000   0.000000  -0.000000  -0.000000  -0.000000   0.000000
    14  H    0.000000   0.000000  -0.000000  -0.000000   0.000000  -0.000000
    15  S   -0.000000   0.000000   0.000000   0.000000   0.000000  -0.000000
    16  H   -0.000000  -0.000000   0.000000   0.000000  -0.000000   0.000000
    17  H   -0.000000  -0.000000   0.000000  -0.000000   0.000000  -0.000000
    18  S    0.000000   0.000000  -0.000000   0.000000   0.000000  -0.000000
    19  O    0.000000  -0.000000   0.000000  -0.000000  -0.000000   0.000000
    20  O    0.000000   0.000000  -0.000000   0.000000   0.000000   0.000000
    21  O    0.000000   0.000000  -0.000000   0.000000   0.000000   0.000000
    22  O   -0.000000   0.000000   0.000000   0.000000   0.000000  -0.000000
    23  O   -0.000000   0.000000   0.000000  -0.000000  -0.000000  -0.000000
    24  O   -0.000000  -0.000000   0.000000   0.000000  -0.000000  -0.000000
              13         14         15         16         17         18
     1  C    0.000000   0.000000  -0.000000  -0.000000  -0.000000   0.000000
     2  C   -0.000000  -0.000000   0.000000   0.000000   0.000000  -0.000000
     3  C    0.000000   0.000000  -0.000000  -0.000000  -0.000000   0.000000
     4  C   -0.000000   0.000000  -0.000000  -0.000000   0.000000   0.000000
     5  C   -0.000000  -0.000000   0.000000   0.000000  -0.000000  -0.000000
     6  C    0.000000   0.000000  -0.000000  -0.000000  -0.000000   0.000000
     7  C    0.000000   0.000000  -0.000000  -0.000000  -0.000000   0.000000
     8  C    0.000000   0.000000   0.000000  -0.000000  -0.000000   0.000000
     9  C   -0.000000  -0.000000   0.000000   0.000000   0.000000  -0.000000
    10  C   -0.000000  -0.000000   0.000000   0.000000  -0.000000   0.000000
    11  O   -0.000000   0.000000   0.000000  -0.000000   0.000000   0.000000
    12  O    0.000000  -0.000000  -0.000000   0.000000  -0.000000  -0.000000
    13  H    0.000000  -0.000000  -0.000000   0.000000  -0.000000   0.000000
    14  H   -0.000000  -0.000000  -0.000000   0.000000   0.000000  -0.000000
    15  S   -0.000000  -0.000000  -0.000000  -0.000000   0.000000   0.000000
    16  H    0.000000   0.000000  -0.000000  -0.000000   0.000000   0.000000
    17  H   -0.000000   0.000000   0.000000   0.000000   0.000000  -0.000000
    18  S    0.000000  -0.000000   0.000000   0.000000  -0.000000  -0.000000
    19  O    0.000000   0.000000  -0.000000  -0.000000   0.000000   0.000000
    20  O   -0.000000  -0.000000   0.000000   0.000000  -0.000000  -0.000000
    21  O   -0.000000  -0.000000   0.000000   0.000000  -0.000000  -0.000000
    22  O   -0.000000  -0.000000  -0.000000  -0.000000   0.000000   0.000000
    23  O    0.000000  -0.000000   0.000000   0.000000  -0.000000  -0.000000
    24  O    0.000000   0.000000  -0.000000  -0.000000   0.000000   0.000000
              19         20         21         22         23         24
     1  C   -0.000000   0.000000   0.000000   0.000000   0.000000  -0.000000
     2  C    0.000000  -0.000000  -0.000000  -0.000000  -0.000000   0.000000
     3  C   -0.000000   0.000000   0.000000   0.000000   0.000000  -0.000000
     4  C   -0.000000   0.000000   0.000000  -0.000000   0.000000  -0.000000
     5  C    0.000000  -0.000000  -0.000000   0.000000  -0.000000   0.000000
     6  C   -0.000000   0.000000   0.000000   0.000000  -0.000000   0.000000
     7  C    0.000000   0.000000   0.000000  -0.000000  -0.000000  -0.000000
     8  C   -0.000000   0.000000   0.000000   0.000000   0.000000  -0.000000
     9  C    0.000000  -0.000000  -0.000000   0.000000   0.000000   0.000000
    10  C   -0.000000   0.000000   0.000000   0.000000  -0.000000   0.000000
    11  O   -0.000000   0.000000   0.000000   0.000000  -0.000000  -0.000000
    12  O    0.000000   0.000000   0.000000  -0.000000  -0.000000  -0.000000
    13  H    0.000000  -0.000000  -0.000000  -0.000000   0.000000   0.000000
    14  H    0.000000  -0.000000  -0.000000  -0.000000  -0.000000   0.000000
    15  S   -0.000000   0.000000   0.000000  -0.000000   0.000000  -0.000000
    16  H   -0.000000   0.000000   0.000000  -0.000000   0.000000  -0.000000
    17  H    0.000000  -0.000000  -0.000000   0.000000  -0.000000   0.000000
    18  S    0.000000  -0.000000  -0.000000   0.000000  -0.000000   0.000000
    19  O   -0.000000   0.000000   0.000000   0.000000  -0.000000  -0.000000
[...]
 922,0.00593727,-0.02519417,0.00876867,-0.05844536,0.01963547,-0.005321
 21,0.00117037,-0.00073487,0.00021354,0.00018650,-0.00043886,0.00014182
 ,0.00001160,0.00059246,-0.00021660,0.00148236,-0.00047549,-0.00005577,
 -0.00059696,-0.00066032,0.00025741,0.00000275,0.00024149,-0.00008289,0
 .00010631,-0.00002589,-0.00004556,0.00016099,0.00131306,-0.00045793,-0
 .00189857,0.00328680,-0.00020285,0.06419942,0.00007008,0.00044487,-0.0
 0054297,0.00118771,0.00129925,0.00171054,0.00175613,-0.00651213,0.0032
 1828,-0.00202830,0.00137029,0.00198598,0.00173800,-0.00963382,0.004325
 89,0.01742582,-0.31471846,0.09538024,0.00052638,-0.00009284,0.00023224
 ,-0.00004511,-0.00034543,0.00007576,0.00010133,0.00018492,-0.00006851,
 0.00048076,-0.00006749,-0.00121224,-0.00017349,-0.00018693,-0.00008392
 ,0.00008513,0.00016693,-0.00004328,-0.00001053,-0.00013551,-0.00017873
 ,-0.00010935,-0.00012753,0.00006116,-0.00004909,-0.00117602,-0.0006631
 6,-0.02294366,0.33099680,-0.00002955,-0.00058637,-0.00104287,0.0001061
 7,0.00189283,0.00609558,-0.00064360,0.00171346,0.00287504,0.00140190,0
 .00217342,0.00643735,-0.00075191,0.00597466,0.00077157,-0.00411651,0.0
 9447992,-0.06973090,-0.00023144,0.00036101,0.00068835,-0.00000599,0.00
 008118,-0.00022398,-0.00003253,-0.00008373,0.00007396,-0.00044631,-0.0
 0131290,-0.00332482,0.00007745,-0.00007544,-0.00050019,-0.00002478,-0.
 00004748,0.00008730,-0.00004547,-0.00019120,-0.00059409,0.00006583,-0.
 00002164,-0.00006349,-0.00013614,-0.00021768,-0.00169243,0.00482439,-0
 .10504814,0.05962277,-0.00009447,0.00010480,-0.00006747,0.00007503,0.0
 0005112,-0.00001813,-0.00015733,-0.00038427,0.00012053,0.00042203,0.00
 002833,-0.00004854,-0.00078137,-0.00320818,0.00159854,-0.00077664,0.00
 075031,-0.00020464,0.00052237,-0.00143723,0.00062706,0.00232308,-0.002
 06129,0.00076868,-0.28651662,0.10883760,-0.02644955,-0.02017865,0.0092
 2384,-0.00212723,0.00035900,0.00012268,-0.00006935,0.00149503,0.000454
 53,-0.00030451,-0.00002506,0.00000494,-0.00000206,-0.00000920,0.000010
 97,0.00000519,0.00014695,0.00017066,-0.00009685,0.00000020,-0.00000382
 ,0.00001625,0.30456371,-0.00018965,0.00006725,-0.00021398,-0.00003422,
 0.00011585,0.00000424,-0.00025658,-0.00017775,-0.00025870,0.00052880,-
 0.00030137,-0.00016575,-0.00236284,-0.00155679,0.00402296,-0.00054148,
 0.00075420,-0.00014323,-0.00419916,-0.00199019,0.00192057,0.02746505,-
 0.01023485,0.00362549,0.11083242,-0.10240606,0.01870297,-0.01421458,0.
 01151356,-0.00216357,0.00223558,-0.00206666,0.00054273,-0.00146819,0.0
 0345581,-0.00187672,-0.00006710,0.00000696,-0.00000789,0.00002348,0.00
 003648,0.00004856,0.00012097,0.00015381,-0.00010582,0.00000710,0.00006
 781,0.00006559,-0.11613191,0.10496821,0.00003342,-0.00022787,-0.000468
 82,0.00002031,-0.00000307,0.00010462,0.00007200,-0.00026260,-0.0008943
 0,-0.00024886,-0.00018498,-0.00068911,0.00133195,0.00408758,0.00801502
 ,0.00024573,-0.00018543,0.00030325,0.00159387,0.00186104,0.00231460,-0
 .00962178,0.00507580,0.00232155,-0.02724895,0.01881727,-0.03963470,0.0
 0624946,-0.00328197,0.00427281,-0.00081023,0.00058256,-0.00053776,0.00
 035104,-0.00198419,-0.00135339,0.00002166,-0.00001309,-0.00002319,0.00
 000040,0.00005453,0.00016387,-0.00005404,-0.00009628,0.00002509,0.0000
 0931,0.00005815,0.00022901,0.02770217,-0.02281513,0.03118922,0.0019356
 7,0.00073390,-0.00035561,0.00015348,-0.00141322,0.00049393,-0.00131939
 ,-0.00091563,0.00042037,-0.00552400,0.00111171,-0.00000523,0.00292545,
 0.02065535,-0.00756766,0.00171515,0.00396950,-0.00154534,0.00027029,0.
 00116644,-0.00056567,-0.00575603,0.00412343,-0.00053972,0.00876085,-0.
 02145505,0.00761956,-0.06531137,0.01571426,-0.00471243,-0.00021030,-0.
 00061717,0.00026785,-0.00166216,-0.00374575,0.00121820,-0.00027741,0.0
 0006993,-0.00002286,0.00001117,-0.00031144,0.00010783,-0.00268159,-0.0
 0053893,0.00069931,-0.00805767,0.00103389,0.00016060,-0.00390107,-0.00
 444678,0.00149346,0.78415995,0.00043674,0.00089256,-0.00032182,-0.0008
 3545,0.00050506,0.00010514,-0.00073490,-0.00118869,0.00001747,-0.00619
 623,0.00192243,0.00029625,0.01313442,-0.00175904,0.00005606,0.00052698
 ,-0.00037017,-0.00074260,0.00173454,-0.00346322,0.00017942,0.00114592,
 -0.01355762,0.00931108,-0.01280317,-0.00165743,0.00358343,0.00852398,-
 0.11447389,0.02327317,-0.00140793,0.00322647,-0.00088601,0.00587024,0.
 00895432,-0.00458958,-0.00052341,0.00030771,-0.00019106,-0.00008338,0.
 00001765,0.00005980,0.00295053,0.00247562,-0.00110817,0.00025969,0.001
 04595,0.00103115,0.00124611,-0.00059366,-0.00159079,0.02655037,0.47731
 104,-0.00028337,-0.00034200,0.00012672,0.00034801,0.00012481,0.0004975
 6,0.00025029,0.00011334,-0.00082573,0.00262002,-0.00014650,0.00167637,
 -0.00482652,-0.00033022,0.00076784,-0.00031809,-0.00103032,-0.00214464
 ,-0.00074655,0.00019607,-0.00281757,0.00050146,0.00905416,0.00943842,0
 .00445273,0.00405125,0.00526701,-0.00216343,0.02292526,-0.05608066,0.0
 0053213,-0.00086752,0.00099643,-0.00214959,-0.00412690,-0.00174076,0.0
 0018406,-0.00021457,-0.00019951,0.00004095,0.00007134,0.00015314,-0.00
 088500,-0.00063633,0.00070562,0.00024955,0.00092449,0.00350417,-0.0004
 7902,-0.00131675,-0.00444016,-0.01223289,0.09092498,0.70212444,-0.0002
 8667,0.00083488,-0.00030095,-0.00012380,0.00048421,-0.00013586,0.00025
 831,-0.00001431,-0.00008494,-0.00194504,-0.00035564,0.00021811,0.00294
 547,0.00596034,-0.00223797,-0.00053029,-0.00056486,0.00028699,-0.00028
 501,-0.00159156,0.00061916,0.00170184,-0.00437942,0.00139393,-0.001839
 43,0.00228039,-0.00070521,-0.01581946,-0.00621704,0.00339125,0.0001232
 8,0.00085445,-0.00032355,0.00177701,0.00253374,-0.00095318,-0.00026014
 ,0.00008488,-0.00001968,-0.00003764,0.00007276,-0.00002420,0.00156663,
 0.00066867,-0.00046651,0.00113748,0.00013637,-0.00009673,0.00177662,0.
 00191772,-0.00077168,-0.42269567,0.05908755,-0.00296046,0.48702441,-0.
 00019885,-0.00061622,0.00020292,0.00028495,-0.00017279,-0.00001087,0.0
 0015007,0.00026177,0.00000236,0.00292709,-0.00006068,-0.00020900,-0.00
 389210,-0.00619126,0.00287331,-0.00032660,0.00004460,0.00007799,-0.000
 58741,0.00090458,-0.00024008,0.00279559,0.00376570,-0.00179044,0.00036
 091,-0.00677975,0.00244978,0.02532303,-0.00062571,0.00128449,0.0005294
 7,-0.00138667,0.00046769,-0.00191337,-0.00200980,0.00089925,0.00025755
 ,-0.00012258,0.00004494,0.00003168,0.00000357,-0.00000869,-0.00105027,
 -0.00079124,0.00038229,0.00006776,0.00000126,-0.00017998,0.00262284,-0
 .00140054,0.00022599,0.06058972,-0.08587662,0.00219565,-0.06726612,0.0
 7244073,0.00008477,0.00015344,-0.00012575,-0.00010069,-0.00000326,-0.0
 0009406,-0.00005390,-0.00001178,0.00017849,-0.00096548,-0.00005460,-0.
 00021202,0.00131789,0.00239787,0.00046500,0.00012958,0.00011389,0.0001
 8533,0.00023157,-0.00016399,0.00027350,-0.00112935,-0.00143752,-0.0003
 3901,-0.00000024,0.00231862,-0.00077740,-0.00788838,0.00290920,0.00602
 368,-0.00019619,0.00042787,-0.00021195,0.00060541,0.00069388,0.0000376
 9,-0.00007656,0.00005065,0.00001410,-0.00001135,-0.00001332,-0.0000175
 3,0.00029444,0.00020223,-0.00019195,-0.00006520,-0.00017762,-0.0004212
 9,-0.00105521,0.00029956,-0.00013818,-0.00327454,0.00237575,-0.0714107
 7,0.00214014,0.00102083,0.06474210,-0.00068172,-0.00000952,0.00021728,
 -0.00011310,0.00041983,-0.00049016,0.00082981,0.00082622,-0.00008561,0
 .00194397,-0.00038437,0.00013314,-0.00170600,-0.00238651,0.00095360,-0
 .00256603,-0.00011132,0.00261555,-0.00081080,-0.00019570,-0.00008652,0
 .00044193,0.00177893,0.00010662,0.00031986,-0.00197751,0.00124258,0.00
 416064,-0.00103764,-0.00628767,0.00041312,-0.00002614,0.00002611,-0.00
 049689,-0.00089040,0.00023929,0.00008643,-0.00004257,-0.00001205,0.000
 00188,0.00013621,-0.00008933,0.00094532,0.00000283,-0.00021212,0.00106
 653,0.00090908,-0.00141127,0.00046016,0.00023896,-0.00091470,-0.155671
 55,-0.09632256,-0.11285373,-0.02860094,-0.02384042,-0.03018274,0.16935
 466,0.00042782,-0.00032431,0.00001152,0.00024100,-0.00056734,0.0002540
 0,-0.00032979,0.00005358,-0.00035252,0.00174038,0.00061163,0.00050034,
 -0.00136188,-0.00161173,0.00127017,0.00151342,-0.00034978,-0.00059712,
 -0.00106827,0.00106856,-0.00120539,-0.00041191,0.00833889,0.00076172,0
 .00398227,-0.01137776,0.00503252,-0.01828587,-0.00742729,-0.02226649,0
 .00067894,-0.00134449,0.00063624,-0.00289853,-0.00467650,0.00094370,0.
 00015595,-0.00011550,-0.00005196,0.00003745,-0.00003611,0.00007895,-0.
 00155207,-0.00118115,0.00041644,0.00050243,-0.00160373,-0.00004889,-0.
 00006782,-0.00061361,-0.00154620,-0.10015726,-0.19646342,-0.13693389,0
 .00030969,0.01289678,-0.00380080,0.12018655,0.19177746,-0.00022932,-0.
 00010448,0.00006294,0.00022261,0.00007916,-0.00012423,0.00017131,-0.00
 022855,0.00020445,0.00079684,-0.00022489,0.00006482,-0.00067134,-0.000
 87644,0.00033542,0.00027573,0.00033022,0.00032163,-0.00024288,0.000344
 06,0.00020522,-0.00004074,0.00084624,-0.00145877,0.00043357,-0.0039401
 1,0.00119598,-0.00376294,0.00405605,0.00196426,0.00018000,-0.00041433,
 0.00006124,-0.00061818,-0.00084824,0.00072615,0.00005819,-0.00003459,0
 .00000519,0.00000342,-0.00002452,-0.00002557,-0.00028001,-0.00032194,-
 0.00006702,-0.00023596,-0.00032640,-0.00081224,0.00044485,0.00021020,0
 .00012083,-0.11224136,-0.12858427,-0.21865937,-0.00722868,-0.00802712,
 0.00416518,0.13715395,0.16606087,0.24514353,-0.00071198,-0.00007552,-0
 .00005010,-0.00009599,0.00064182,0.00003104,0.00079909,0.00066682,-0.0
 0045816,0.00180811,-0.00044316,-0.00001679,-0.00156948,-0.00222339,0.0
 0098522,-0.00257591,-0.00185170,-0.00175978,-0.00073274,-0.00015656,0.
 00024395,0.00039106,0.00096089,-0.00106482,0.00011095,-0.00153672,-0.0
 0001872,0.00566601,0.00247863,0.00460247,0.00036805,0.00003706,-0.0000
 6440,-0.00032893,-0.00058612,0.00032526,0.00007583,-0.00002422,0.00002
 218,0.00000801,0.00016703,-0.00000311,0.00105239,0.00009132,-0.0002394
 4,0.00108327,0.00134505,0.00040627,0.00048199,0.00072110,0.00049959,-0
 .12947178,0.00039434,0.12977404,-0.02434197,0.00210261,0.04048837,0.01
 150029,-0.00507691,-0.01444114,0.13739029,0.00052234,-0.00014593,0.000
 07205,0.00001013,-0.00059638,0.00010181,-0.00033656,0.00045459,0.00029
 553,0.00070179,0.00027812,-0.00076019,-0.00065998,-0.00087483,-0.00029
 359,0.00099621,0.00015285,0.00075281,-0.00057211,0.00116742,0.00050945
 ,-0.00061295,0.00360802,-0.00484928,0.00271737,-0.00679473,0.00133620,
 -0.00989424,0.00544767,0.02041188,0.00038980,-0.00088365,0.00012783,-0
 .00175359,-0.00249434,0.00184900,0.00008751,-0.00002247,0.00007241,0.0
 0001978,-0.00006157,-0.00005329,-0.00106349,-0.00073456,0.00036556,0.0
 0035163,-0.00109729,0.00024307,-0.00022689,0.00029966,0.00137266,-0.00
 255984,-0.07507844,0.01489046,0.00572633,0.01500838,-0.00713348,0.0026
 8283,0.01186184,-0.02827854,0.00248670,0.04981956,-0.00002918,0.000290
 67,-0.00008391,-0.00030515,0.00022582,-0.00010429,-0.00000617,-0.00001
 872,-0.00021104,-0.00184483,0.00015771,0.00056230,0.00157054,0.0021777
 6,-0.00048724,-0.00095754,0.00009563,0.00038220,0.00090189,-0.00112501
 ,0.00004661,0.00038864,-0.00513233,0.00332325,-0.00286119,0.01078234,-
 0.00305329,0.01272389,-0.00740721,-0.01263402,-0.00060088,0.00120237,-
 0.00037496,0.00233152,0.00355502,-0.00157882,-0.00015721,0.00006296,-0
 .00008383,-0.00002625,0.00004080,0.00000470,0.00110649,0.00073348,-0.0
 0066168,-0.00007100,0.00041321,-0.00122233,-0.00042284,-0.00044003,-0.
 00085470,0.13118572,0.00585459,-0.36600413,0.00784202,-0.00132057,-0.0
 0239023,0.00967494,-0.00878843,-0.03359106,-0.15936332,-0.00071991,0.4
 1830109,0.00019603,-0.00123077,-0.00095820,-0.00361301,0.00095049,0.00
 068491,0.00560311,-0.00153129,0.02052611,-0.00230814,-0.00191609,0.000
 75140,0.00090095,0.00110002,-0.00146868,-0.00156215,-0.00107588,0.0004
 3648,0.00213150,0.00239945,-0.00077481,0.00079519,0.00037192,-0.000179
 30,-0.00047929,-0.00011945,0.00007409,0.00055235,-0.00021929,0.0001281
 7,-0.00057029,-0.00186459,0.00067408,-0.00078600,-0.00029736,0.0001459
 8,-0.00033794,-0.00020837,0.00009174,0.00011287,-0.00016635,0.00064051
 ,-0.07649950,0.00181082,0.02989527,0.00018532,0.00004534,0.00036221,-0
 .00004115,-0.00002890,0.00000726,0.00062143,-0.00083306,0.00021063,-0.
 00040161,0.00028820,-0.00007277,-0.00018897,0.00041354,0.00008893,-0.0
 0022063,0.00028900,-0.00027661,0.05555525,0.00104155,0.00020944,-0.001
 06768,-0.00038402,-0.00027594,0.00004341,-0.00416851,0.00831983,0.0103
 9659,-0.00184047,-0.00014606,0.00022514,-0.00048884,-0.00015308,-0.000
 76970,-0.00015702,-0.00155615,0.00133716,0.00109181,0.00124188,-0.0004
 5113,0.00033465,0.00012176,-0.00005268,-0.00028779,0.00006970,-0.00001
 545,0.00013888,-0.00026309,0.00004476,-0.00024306,-0.00089131,0.000324
 38,-0.00033249,-0.00009144,0.00005592,-0.00000559,-0.00001634,0.000119
 12,0.00012403,0.00014278,0.00031989,0.00079068,-0.07536157,-0.02713832
 ,-0.00032567,0.00014099,0.00037963,-0.00002684,-0.00001676,0.00001961,
 0.00011771,-0.00048182,0.00013866,-0.00013918,0.00015890,-0.00004833,-
 0.00001013,0.00024023,0.00005678,-0.00001874,0.00015433,-0.00016118,-0
 .00910059,0.06386547,-0.00093923,0.00147006,0.00090531,0.00562296,0.00
 099987,-0.00065473,-0.00412635,-0.00540049,-0.01547476,0.00295795,0.00
 120137,-0.00072316,0.00080049,-0.00082791,0.00149228,0.00273174,0.0039
 3850,-0.00111852,-0.00239054,-0.00268353,0.00075473,-0.00086493,-0.000
 62387,0.00029407,0.00082865,0.00010214,-0.00011468,-0.00059231,0.00067
 200,-0.00009495,0.00068814,0.00204524,-0.00071403,0.00098453,0.0004188
 8,-0.00018582,0.00049985,0.00031748,-0.00011631,-0.00017811,-0.0006119
 8,-0.00063465,0.02205976,-0.03279395,-0.40680541,-0.00020146,-0.000141
 80,-0.00091344,0.00007701,0.00006458,-0.00004318,-0.00079530,0.0011253
 1,-0.00068002,0.00051996,-0.00038946,0.00018258,0.00029975,-0.00053382
 ,0.00000503,0.00019602,-0.00036977,0.00059605,-0.02288523,0.04292036,0
 .47268626,0.00004664,-0.00130443,0.00143891,-0.00414260,0.00084781,-0.
 00106958,0.00787423,-0.01791851,-0.00134670,-0.00113240,-0.00149657,0.
 00058218,0.00143964,0.00032921,0.00007003,-0.00283197,-0.00035645,-0.0
 0160594,0.00132952,0.00136849,-0.00050782,0.00058871,0.00050915,-0.000
 23566,-0.00040377,-0.00027533,0.00013160,0.00064991,-0.00012749,-0.000
 14780,-0.00043344,-0.00125243,0.00044032,-0.00063790,-0.00033467,0.000
 15006,-0.00036312,-0.00019290,0.00008314,0.00017676,-0.00060025,0.0000
 2380,-0.08711593,0.05231259,0.01640418,0.00103447,-0.00117900,0.000879
 25,-0.00002869,-0.00002969,0.00001687,0.00088930,-0.00061467,0.0002772
 8,-0.00043497,0.00022887,-0.00007898,-0.00034687,0.00030584,0.00001423
 ,-0.00029327,0.00024547,-0.00028195,0.01442496,0.00740622,0.00191250,0
 .07170065,0.00167907,-0.00153566,0.00171027,-0.00930892,-0.00169438,0.
 00053065,0.01292999,-0.01984758,-0.00949765,-0.00310605,-0.00148226,0.
 00055981,-0.00040116,0.00204775,0.00014459,-0.00092340,-0.00224264,0.0
 0173233,0.00254203,0.00286056,-0.00137526,0.00096284,0.00055806,-0.000
 21703,-0.00082629,-0.00008313,0.00005346,0.00065345,-0.00060648,0.0001
 9412,-0.00074727,-0.00220168,0.00088846,-0.00104380,-0.00039689,0.0001
 7889,-0.00076358,-0.00038264,0.00021195,0.00025113,0.00046103,-0.00075
 201,0.05429951,-0.38515382,-0.09227372,-0.00104100,-0.00032008,-0.0005
 8572,-0.00007175,-0.00006101,0.00002440,0.00047580,-0.00141330,0.00026
 878,-0.00043552,0.00046254,-0.00009662,-0.00004702,0.00072254,0.000207
 89,-0.00017840,0.00045881,-0.00041466,0.00583165,-0.00724884,-0.010777
 39,-0.07512193,0.43851395,0.00076621,-0.00045461,-0.00085318,-0.001214
 82,-0.00096733,0.00083951,0.00348880,0.00350311,0.00754998,-0.00022713
 ,0.00036122,-0.00003926,-0.00026370,-0.00045021,-0.00037115,0.00052682
 ,0.00044579,0.00043331,-0.00005989,0.00005372,0.00007244,-0.00001124,-
 0.00004960,-0.00001777,0.00000762,0.00003915,-0.00000928,-0.00005803,0
 .00002000,0.00006000,0.00002469,0.00000617,-0.00000571,0.00002414,0.00
 002388,0.00000300,-0.00005017,0.00000005,0.00001376,-0.00016310,0.0000
 8926,0.00032873,0.01742297,-0.08969361,-0.09821837,0.00017215,0.000278
 18,-0.00009099,0.00000216,0.00000106,-0.00000465,-0.00003088,-0.000024
 77,-0.00018341,0.00000757,-0.00000208,0.00004934,0.00004220,0.00005619
 ,0.00009722,-0.00000055,-0.00000026,0.00010640,0.00746974,-0.04307117,
 -0.01918646,-0.01845062,0.11457784,0.09743596,0.00126535,-0.00015104,0
 .00058366,-0.00283671,-0.00025404,0.00023521,-0.01663179,0.01846632,-0
 .01786172,-0.00347788,-0.00137886,0.00056534,-0.00163494,0.00296374,-0
 .00008502,-0.00572823,-0.00851556,0.00277162,0.00269808,0.00310064,-0.
 00130861,0.00112125,0.00094183,-0.00037635,-0.00107984,-0.00015782,0.0
 0011347,0.00060663,-0.00100481,0.00041827,-0.00072047,-0.00250887,0.00
 095775,-0.00122337,-0.00060179,0.00026173,-0.00033292,-0.00029583,0.00
 005813,-0.00105713,-0.00064560,0.00004113,-0.28423560,0.10929049,-0.12
 836180,0.00064796,-0.00029872,-0.00032808,-0.00011591,-0.00012008,0.00
 002175,0.00109726,-0.00150667,0.00045750,-0.00070840,0.00051479,-0.000
 14061,-0.00034174,0.00071504,0.00014892,-0.00039265,0.00045273,-0.0005
 2153,0.00592970,0.00648343,-0.00720585,-0.00198986,0.01439059,-0.00942
 494,0.30914121,-0.00066362,0.00141929,-0.00072733,-0.00015266,-0.00316
 835,-0.00010754,-0.00811948,0.00656306,0.00064227,-0.00055406,0.000280
 44,-0.00000008,-0.00105074,0.00011121,0.00014023,0.00078387,-0.0013269
 9,0.00012972,-0.00004241,0.00029675,-0.00008292,0.00003218,0.00014086,
 -0.00007000,-0.00018545,-0.00002728,0.00002069,0.00011382,-0.00019035,
 0.00001424,-0.00000876,-0.00007098,0.00001965,-0.00015229,-0.00008204,
 0.00004291,0.00013761,0.00003068,-0.00004373,-0.00100984,0.00232144,-0
 .00045913,0.10898006,-0.13544440,0.07002093,-0.00060096,0.00029818,0.0
 0000323,-0.00000874,-0.00002036,0.00001202,-0.00015095,-0.00028150,0.0
 0006577,0.00001167,0.00008504,-0.00002251,0.00010035,0.00012121,0.0000
 4293,0.00007809,0.00007292,-0.00006431,0.00509157,0.01183708,-0.000121
 82,0.03725065,-0.02141486,0.01525800,-0.13987992,0.13844893,0.00015955
 ,-0.00082920,0.00003550,-0.00000695,0.00166530,0.00011148,0.00302564,0
 .00479897,0.00495801,-0.00017886,-0.00065708,0.00023694,0.00041328,0.0
 0082476,-0.00091527,-0.00230008,-0.00098103,0.00118149,0.00045845,0.00
 042643,-0.00017942,0.00020891,0.00003906,-0.00003392,-0.00005660,0.000
 00119,-0.00000706,0.00000321,-0.00010107,-0.00002233,-0.00011464,-0.00
 043178,0.00015799,-0.00013303,-0.00004680,0.00003222,-0.00011441,-0.00
 002936,0.00009276,0.00056459,-0.00109798,-0.00009611,-0.12674663,0.070
 15245,-0.15111857,0.00018587,-0.00017733,0.00024796,-0.00001705,-0.000
 00094,0.00002225,0.00022266,-0.00015452,-0.00007096,-0.00010953,0.0000
 5081,0.00001316,-0.00007910,0.00010286,0.00005917,-0.00009409,0.000057
 61,0.00001292,-0.03557189,0.01639423,-0.02945621,0.00130070,-0.0052933
 7,0.01199058,0.15898002,-0.08471322,0.16274743\\0.00000206,0.00000329,
 0.00000592,-0.00000251,0.00000162,0.00000426,0.00000078,-0.00000274,-0
 .00000093,0.00000125,0.00000299,0.00000368,-0.00000327,-0.00000139,0.0
 0000104,0.00000256,0.00000099,-0.00000245,0.00000262,0.00000283,0.0000
 0733,0.00000274,0.00000205,0.00000537,-0.00000101,-0.00000077,0.000001
 67,0.00000179,-0.00000336,0.,0.00000205,0.00000245,0.00001098,0.000000
 44,0.00000064,0.00000870,0.00000145,0.00000358,0.00000875,0.00000125,0
 .00000415,0.00000289,-0.00000939,0.00000150,-0.00000834,-0.00000234,-0
 .00000255,-0.00000623,-0.00000031,-0.00000112,0.00000003,0.00000249,0.
 00000218,-0.00001021,-0.00000536,-0.00000587,-0.00000501,-0.00000189,-
 0.00000345,-0.00000927,-0.00000275,-0.00000789,-0.00000470,0.00000070,
 -0.00000218,-0.00000024,0.00000197,-0.00000048,-0.00001026,0.00000469,
 0.00000350,-0.00000299\\\@


 TWO ROADS DIVERGED IN A WOOD, AND I--
 I TOOK THE ONE LESS TRAVELED BY,
 AND THAT HAS MADE ALL THE DIFFERENCE.

                       -- ROBERT FROST
 Job cpu time:       0 days  4 hours 21 minutes 21.9 seconds.
 Elapsed time:       0 days  0 hours 32 minutes 53.0 seconds.
 File lengths (MBytes):  RWF=   1269 Int=      0 D2E=      0 Chk=     33 Scr=      1
 Normal termination of Gaussian 16 at Sun Feb 11 20:43:11 2024.
