
Running Job 1 of 1 233-CPCM.in
qchem 233-CPCM.in_2425145.0 /expanse/lustre/scratch/selhajj/temp_project/qcscratch/31257815/qchem2425145/ 0
/cm/shared/apps/spack/cpu/opt/spack/linux-centos8-zen2/gcc-10.2.0/qchem-5.4-akfmr7b3t57bfs6qan3padb2wnb2i7cl/exe/qcprog.exe_s 233-CPCM.in_2425145.0 /expanse/lustre/scratch/selhajj/temp_project/qcscratch/31257815/qchem2425145/
                  Welcome to Q-Chem
     A Quantum Leap Into The Future Of Chemistry


 Q-Chem 5.4, Q-Chem, Inc., Pleasanton, CA (2021)

 License issued to: University of California, San Diego (site)

 E. Epifanovsky,  A. T. B. Gilbert,  Xintian Feng,  Joonho Lee,  Yuezhi Mao,  
 N. Mardirossian,  P. Pokhilko,  A. White,  M. Wormit,  M. P. Coons,  
 A. L. Dempwolff,  Zhengting Gan,  D. Hait,  P. R. Horn,  L. D. Jacobson,  
 I. Kaliman,  J. Kussmann,  A. W. Lange,  Ka Un Lao,  D. S. Levine,  Jie Liu,  
 S. C. McKenzie,  A. F. Morrison,  K. Nanda,  F. Plasser,  D. R. Rehn,  
 M. L. Vidal,  Zhi-Qiang You,  Ying Zhu,  B. Alam,  B. Albrecht,  
 A. Aldossary,  E. Alguire,  J. H. Andersen,  D. Barton,  K. Begam,  A. Behn,  
 Y. A. Bernard,  E. J. Berquist,  H. Burton,  A. Carreras,  K. Carter-Fenk,  
 R. Chakraborty,  A. D. Chien,  K. D. Closser,  V. Cofer-Shabica,  
 S. Dasgupta,  Jia Deng,  M. de Wergifosse,  M. Diedenhofen,  Hainam Do,  
 S. Ehlert,  Po-Tung Fang,  S. Fatehi,  Qingguo Feng,  J. Gayvert,  
 Qinghui Ge,  G. Gidofalvi,  M. Goldey,  J. Gomes,  C. Gonzalez-Espinoza,  
 S. Gulania,  A. Gunina,  M. W. D. Hanson-Heine,  P. H. P. Harbach,  
 A. W. Hauser,  M. F. Herbst,  M. Hernandez Vera,  M. Hodecker,  
 Z. C. Holden,  S. Houck,  Xunkun Huang,  Kerwin Hui,  B. C. Huynh,  
 M. Ivanov,  Hyunjun Ji,  Hanjie Jiang,  B. Kaduk,  S. Kaehler,  
 K. Khistyaev,  Jaehoon Kim,  P. Klunzinger,  Z. Koczor-Benda,  
 Joong Hoon Koh,  D. Kosenkov,  L. Koulias,  T. Kowalczyk,  C. M. Krauter,  
 K. Kue,  A. Kunitsa,  T. Kus,  A. Landau,  K. V. Lawler,  D. Lefrancois,  
 S. Lehtola,  Rain Li,  Yi-Pei Li,  Jiashu Liang,  M. Liebenthal,  
 Hung-Hsuan Lin,  You-Sheng Lin,  Fenglai Liu,  Kuan-Yu Liu,  
 M. Loipersberger,  A. Luenser,  A. Manjanath,  P. Manohar,  E. Mansoor,  
 S. F. Manzer,  Shan-Ping Mao,  A. V. Marenich,  T. Markovich,  S. Mason,  
 S. A. Maurer,  P. F. McLaughlin,  M. F. S. J. Menger,  J.-M. Mewes,  
 S. A. Mewes,  P. Morgante,  J. W. Mullinax,  T. S. Nguyen-Beck,  
 K. J. Oosterbaan,  G. Paran,  Alexander C. Paul,  Suranjan K. Paul,  
 F. Pavosevic,  Zheng Pei,  S. Prager,  E. I. Proynov,  E. Ramos,  B. Rana,  
 A. E. Rask,  A. Rettig,  R. M. Richard,  F. Rob,  E. Rossomme,  T. Scheele,  
 M. Scheurer,  M. Schneider,  N. Sergueev,  S. M. Sharada,  W. Skomorowski,  
 D. W. Small,  C. J. Stein,  Yu-Chuan Su,  E. J. Sundstrom,  Zhen Tao,  
 J. Thirman,  T. Tsuchimochi,  N. M. Tubman,  S. P. Veccham,  O. Vydrov,  
 J. Wenzel,  J. Witte,  A. Yamada,  Kun Yao,  S. Yeganeh,  S. R. Yost,  
 A. Zech,  Igor Ying Zhang,  Xing Zhang,  Yu Zhang,  D. Zuev,  
 A. Aspuru-Guzik,  A. T. Bell,  N. A. Besley,  K. B. Bravaya,  B. R. Brooks,  
 D. Casanova,  Jeng-Da Chai,  S. Coriani,  C. J. Cramer,  
 A. E. DePrince, III,  R. A. DiStasio Jr.,  A. Dreuw,  B. D. Dunietz,  
 T. R. Furlani,  W. A. Goddard III,  S. Grimme,  S. Hammes-Schiffer,  
 T. Head-Gordon,  W. J. Hehre,  Chao-Ping Hsu,  T.-C. Jagau,  Yousung Jung,  
 A. Klamt,  Jing Kong,  D. S. Lambrecht,  WanZhen Liang,  N. J. Mayhall,  
 C. W. McCurdy,  J. B. Neaton,  C. Ochsenfeld,  J. A. Parkhill,  R. Peverati,  
 V. A. Rassolov,  Yihan Shao,  L. V. Slipchenko,  T. Stauch,  R. P. Steele,  
 J. E. Subotnik,  A. J. W. Thom,  A. Tkatchenko,  D. G. Truhlar,  
 T. Van Voorhis,  T. A. Wesolowski,  K. B. Whaley,  H. L. Woodcock III,  
 P. M. Zimmerman,  S. Faraji,  P. M. W. Gill,  M. Head-Gordon,  
 J. M. Herbert,  A. I. Krylov

 Contributors to earlier versions of Q-Chem not listed above: 
 R. D. Adamson,  B. Austin,  R. Baer,  J. Baker,  G. J. O. Beran,  
 K. Brandhorst,  S. T. Brown,  E. F. C. Byrd,  A. K. Chakraborty,  
 G. K. L. Chan,  Chun-Min Chang,  Yunqing Chen,  C.-L. Cheng,  
 Siu Hung Chien,  D. M. Chipman,  D. L. Crittenden,  H. Dachsel,  
 R. J. Doerksen,  A. D. Dutoi,  R. G. Edgar,  J. Fosso-Tande,  
 L. Fusti-Molnar,  D. Ghosh,  A. Ghysels,  A. Golubeva-Zadorozhnaya,  
 J. Gonthier,  M. S. Gordon,  S. R. Gwaltney,  G. Hawkins,  J. E. Herr,  
 A. Heyden,  S. Hirata,  E. G. Hohenstein,  G. Kedziora,  F. J. Keil,  
 C. Kelley,  Jihan Kim,  R. A. King,  R. Z. Khaliullin,  P. P. Korambath,  
 W. Kurlancheek,  A. Laurent,  A. M. Lee,  M. S. Lee,  S. V. Levchenko,  
 Ching Yeh Lin,  D. Liotard,  E. Livshits,  R. C. Lochan,  I. Lotan,  
 L. A. Martinez-Martinez,  P. E. Maslen,  N. Nair,  D. P. O'Neill,  
 D. Neuhauser,  E. Neuscamman,  C. M. Oana,  R. Olivares-Amaya,  R. Olson,  
 T. M. Perrine,  B. Peters,  P. A. Pieniazek,  A. Prociuk,  Y. M. Rhee,  
 J. Ritchie,  M. A. Rohrdanz,  E. Rosta,  N. J. Russ,  H. F. Schaefer III,  
 M. W. Schmidt,  N. E. Schultz,  S. Sharma,  N. Shenvi,  C. D. Sherrill,  
 A. C. Simmonett,  A. Sodt,  T. Stein,  D. Stuck,  K. S. Thanthiriwatte,  
 V. Vanovschi,  L. Vogt,  Tao Wang,  A. Warshel,  M. A. Watson,  
 C. F. Williams,  Q. Wu,  X. Xu,  Jun Yang,  W. Zhang,  Yan Zhao

 Please cite Q-Chem as follows:
 Y. Shao et al., Mol. Phys. 113, 184-215 (2015)
 DOI: 10.1080/00268976.2014.952696

 Q-Chem 5.4.0 for Intel X86 EM64T Linux

 Parts of Q-Chem use Armadillo 9.800.1 (Horizon Scraper).
 http://arma.sourceforge.net/

 Q-Chem begins on Wed Jun 12 02:35:33 2024  

 Host: 
0

     Scratch files written to /expanse/lustre/scratch/selhajj/temp_project/qcscratch/31257815/qchem2425145//
 May1621 |scratch|qcdevops|jenkins|workspace|build_RNUM    
 Processing $rem in /cm/shared/apps/spack/cpu/opt/spack/linux-centos8-zen2/gcc-10.2.0/qchem-5.4-akfmr7b3t57bfs6qan3padb2wnb2i7cl/config/preferences:
 Processing $rem in /home/selhajj/.qchemrc:
 Symmetry turned off for PCM/SM12/SMD calculation

 Checking the input file for inconsistencies... 	...done.

--------------------------------------------------------------
User input:
--------------------------------------------------------------
$molecule
0 1
C                  5.9364520000     -5.2256650000      1.1044700000
C                  6.8357590000     -5.0816330000      0.0532440000
C                  6.6254680000     -4.1035550000     -0.9212780000
C                  4.8198240000     -4.3900000000      1.1858480000
C                  4.6088380000     -3.4085990000      0.2080310000
C                  5.5156770000     -3.2685770000     -0.8454620000
C                  3.8703930000     -4.5627760000      2.3203710000
C                  2.6820700000     -3.6398460000      2.3639000000
C                  2.4787200000     -2.6938060000      1.4214200000
C                  3.4276450000     -2.5033010000      0.2685530000
O                  4.0406810000     -5.4065030000      3.1746070000
O                  3.2327790000     -1.6485370000     -0.5693020000
H                  6.0804330000     -5.9771750000      1.8705740000
H                  5.3335930000     -2.5037960000     -1.5900170000
Br                 1.5205200000     -3.9161260000      3.8276390000
Br                 1.0041210000     -1.5133560000      1.4340630000
H                  7.7014530000     -5.7309030000     -0.0083090000
H                  7.3279150000     -3.9935380000     -1.7393430000
$end
$rem
MAX_SCF_CYCLES=200
BASIS  =  6-311++G(d,p)
GUI  =  2
JOB_TYPE  =  SP
METHOD  =  B3LYP
SOLVENT_METHOD = PCM
$end
$pcm
theory = CPCM
$end
$solvent
dielectric 37.219
opticaldielectric 1.43
$end






--------------------------------------------------------------
 ----------------------------------------------------------------
             Standard Nuclear Orientation (Angstroms)
    I     Atom           X                Y                Z
 ----------------------------------------------------------------
    1      C       5.9364520000    -5.2256650000     1.1044700000
    2      C       6.8357590000    -5.0816330000     0.0532440000
    3      C       6.6254680000    -4.1035550000    -0.9212780000
    4      C       4.8198240000    -4.3900000000     1.1858480000
    5      C       4.6088380000    -3.4085990000     0.2080310000
    6      C       5.5156770000    -3.2685770000    -0.8454620000
    7      C       3.8703930000    -4.5627760000     2.3203710000
    8      C       2.6820700000    -3.6398460000     2.3639000000
    9      C       2.4787200000    -2.6938060000     1.4214200000
   10      C       3.4276450000    -2.5033010000     0.2685530000
   11      O       4.0406810000    -5.4065030000     3.1746070000
   12      O       3.2327790000    -1.6485370000    -0.5693020000
   13      H       6.0804330000    -5.9771750000     1.8705740000
   14      H       5.3335930000    -2.5037960000    -1.5900170000
   15      Br      1.5205200000    -3.9161260000     3.8276390000
   16      Br      1.0041210000    -1.5133560000     1.4340630000
   17      H       7.7014530000    -5.7309030000    -0.0083090000
   18      H       7.3279150000    -3.9935380000    -1.7393430000
 ----------------------------------------------------------------
 Nuclear Repulsion Energy =        1527.40026016 hartrees
 There are       75 alpha and       75 beta electrons
 Requested basis set is 6-311++G(d,p)
 There are 130 shells and 388 basis functions

 Total QAlloc Memory Limit   8000 MB
 Mega-Array Size       188 MB
 MEM_STATIC part       192 MB
 Discretize the solute cavity surface with Lebedev spheres
	Using 110 Lebedev grid points for each H atom
	Using 194 Lebedev grid points for other atoms
	Atomic van der Waals radii will be scaled by 1.20
 Remove points where switching function is < 1.0e-08
 Keep 1353 surface tesserae and discard 1803 interior tesserae
 Molecular Surface Area = 234.652 Angst**2
 A cutoff of  1.0D-08 yielded   5741 shell pairs
 There are     55368 function pairs (     60084 Cartesian)
 Smallest overlap matrix eigenvalue = 2.64E-07

 Q-Chem warning in module stvman/mkSTV.C, line 323:

 Overlap eigenvalue is smaller than square root of threshold
 Use THRESH >= 12 to get rid of this warning

 Linear dependence detected in AO basis
 Tighter screening thresholds may be required for diffuse basis sets
 Use S2THRESH > 14 and THRESH = 14 in case of SCF convergence issues
 Number of orthogonalized atomic orbitals = 386
 Maximum deviation from orthogonality = 1.959E-10

 Scale SEOQF with 1.000000e-02/1.000000e-02/1.000000e-01

 Standard Electronic Orientation quadrupole field applied
 Nucleus-field energy     =    -0.0000000630 hartrees
 Guess from superposition of atomic densities
 Warning:  Energy on first SCF cycle will be non-variational
 SAD guess density has 150.000000 electrons

 -----------------------------------------------------------------------
  General SCF calculation program by
  Eric Jon Sundstrom, Paul Horn, Yuezhi Mao, Dmitri Zuev, Alec White,
  David Stuck, Shaama M.S., Shane Yost, Joonho Lee, David Small,
  Daniel Levine, Susi Lehtola, Hugh Burton, Evgeny Epifanovsky,
  Bang C. Huynh
 -----------------------------------------------------------------------
 Exchange:     0.2000 Hartree-Fock + 0.0800 Slater + 0.7200 B88
 Correlation:  0.1900 VWN1RPA + 0.8100 LYP
 Using SG-1 standard quadrature grid
 using 8 threads for integral computing
 -------------------------------------------------------
 OpenMP Integral computing Module                
 Release: version 1.0, May 2013, Q-Chem Inc. Pittsburgh 
 -------------------------------------------------------
 A restricted SCF calculation will be
 performed using DIIS
 SCF converges when DIIS error is below 1.0e-05
 ---------------------------------------
  Cycle       Energy         DIIS error
 ---------------------------------------
    1   -5685.4822824786      3.27e-02  
    2   -5682.1497628298      3.61e-03  
    3   -5681.7822618270      6.31e-03  
    4   -5682.3148012117      1.28e-03  
    5   -5682.3401982752      3.08e-04  
    6   -5682.3416177956      9.53e-05  
    7   -5682.3417490209      3.11e-05  
    8   -5682.3417650056      7.86e-06  Convergence criterion met
 ---------------------------------------
 SCF time:   CPU 188.68s  wall 28.00s 

************** Final PCM Free Energy Summary **************
 G_electrostatic  =      -0.01444362 hartree =      -9.06350539 kcal/mol
 G_cavitation     =       0.00000000 hartree =       0.00000000 kcal/mol
 G_dispersion     =       0.00000000 hartree =       0.00000000 kcal/mol
 G_repulsion      =       0.00000000 hartree =       0.00000000 kcal/mol
 --------------------------------------------------
 Non-electrostatic Free Energy =       0.00000000 hartree =       0.00000000 kcal/mol
 Total                         =      -0.01444362 hartree =      -9.06350539 kcal/mol
 --------------------------------------------------
 SCF Energy (H0 + V/2)                       =   -5682.34176501 
 Solute Internal Energy (H0)                 =   -5682.32732139 
 Total Free Energy (H0 + V/2 + non-elec)     =   -5682.34176501 hartree
                                             = -3565723.27499984 kcal/mol
***********************************************************

 SCF   energy in the final basis set =    -5682.3417650056
 Total energy in the final basis set =    -5682.3417650056
 
 --------------------------------------------------------------
 
                    Orbital Energies (a.u.)
 --------------------------------------------------------------
 
 Alpha MOs
 -- Occupied --
********-482.8564 -62.5092 -62.5091 -56.3298 -56.3298 -56.3259 -56.3259
-56.3254 -56.3254 -19.1498 -19.1498 -10.3049 -10.3049 -10.2770 -10.2763
-10.2179 -10.2174 -10.2034 -10.2034 -10.2018 -10.2013  -8.7180  -8.7180
 -6.5499  -6.5499  -6.5368  -6.5368  -6.5353  -6.5353  -2.6607  -2.6607
 -2.6573  -2.6573  -2.6562  -2.6561  -2.6457  -2.6457  -2.6456  -2.6456
 -1.0883  -1.0865  -0.9062  -0.8862  -0.8250  -0.8108  -0.7857  -0.7576
 -0.7024  -0.6537  -0.6383  -0.6005  -0.5655  -0.5323  -0.5112  -0.4845
 -0.4771  -0.4726  -0.4651  -0.4565  -0.4409  -0.4373  -0.4313  -0.3964
 -0.3895  -0.3761  -0.3708  -0.3286  -0.3284  -0.3068  -0.3056  -0.2959
 -0.2883  -0.2843  -0.2747
 -- Virtual --
 -0.1395  -0.0640  -0.0517  -0.0457  -0.0041  -0.0016   0.0090   0.0133
  0.0144   0.0306   0.0358   0.0415   0.0428   0.0481   0.0552   0.0585
  0.0601   0.0617   0.0675   0.0839   0.0877   0.0912   0.0913   0.0949
  0.1023   0.1141   0.1159   0.1189   0.1232   0.1233   0.1245   0.1367
  0.1421   0.1443   0.1510   0.1515   0.1585   0.1635   0.1639   0.1706
  0.1748   0.1837   0.1839   0.1901   0.1947   0.2058   0.2090   0.2205
  0.2214   0.2250   0.2291   0.2306   0.2363   0.2402   0.2507   0.2600
  0.2637   0.2744   0.2775   0.2802   0.2806   0.2829   0.2860   0.2981
  0.3006   0.3048   0.3172   0.3228   0.3270   0.3299   0.3314   0.3481
  0.3484   0.3653   0.3654   0.3835   0.3959   0.4063   0.4187   0.4248
  0.4331   0.4350   0.4394   0.4492   0.4945   0.4964   0.5025   0.5098
  0.5146   0.5148   0.5300   0.5343   0.5465   0.5510   0.5557   0.5657
  0.5698   0.5895   0.5940   0.6052   0.6064   0.6202   0.6225   0.6245
  0.6311   0.6455   0.6456   0.6478   0.6639   0.6832   0.6838   0.7063
  0.7090   0.7100   0.7369   0.7449   0.7658   0.7749   0.7753   0.8099
  0.8112   0.8372   0.8373   0.8513   0.8554   0.8716   0.8762   0.8852
  0.8928   0.9100   0.9170   0.9212   0.9241   0.9481   0.9730   0.9814
  0.9947   1.0105   1.0108   1.0206   1.0266   1.0630   1.0637   1.0705
  1.1084   1.1102   1.1118   1.1259   1.1386   1.1640   1.1839   1.1902
  1.2232   1.2304   1.2343   1.2838   1.2896   1.3064   1.3366   1.3554
  1.3806   1.4322   1.4725   1.4930   1.4954   1.5145   1.5190   1.5540
  1.5646   1.5882   1.6325   1.6432   1.6529   1.6829   1.6864   1.7116
  1.7133   1.7345   1.7429   1.7638   1.7684   1.7933   1.8133   1.8368
  1.8529   1.8932   1.8962   1.9102   1.9397   1.9467   1.9502   1.9876
  1.9903   1.9909   2.0417   2.0422   2.0514   2.0753   2.0942   2.1074
  2.1511   2.1743   2.2229   2.2426   2.2530   2.2732   2.2763   2.2947
  2.3395   2.3644   2.3779   2.4376   2.4705   2.4891   2.5662   2.6167
  2.6380   2.6385   2.6977   2.7052   2.7121   2.7216   2.7355   2.7475
  2.7696   2.7794   2.8074   2.8085   2.8221   2.8524   2.8542   2.8630
  2.8934   2.9163   2.9192   2.9693   2.9892   3.0275   3.0736   3.0738
  3.1313   3.1794   3.2107   3.2200   3.3149   3.3323   3.3413   3.3872
  3.4464   3.4978   3.5139   3.5348   3.5640   3.5756   3.6381   3.7625
  3.7907   3.9484   3.9867   3.9929   4.0233   4.0492   4.0556   4.0595
  4.0596   4.1043   4.1637   4.1967   4.2185   4.2837   4.2919   4.3765
  4.4514   4.6999   4.8296   5.0192   5.0362   5.1999   5.2310   5.6860
  5.7781   6.7268   6.8294   7.5376   7.5712   7.6616   7.6818   7.7303
  7.7958  23.4265  23.6030  23.8317  23.8906  23.9275  23.9468  24.0358
 24.0745  24.0830  24.1666  47.9840  48.0690  49.9942  50.0423 289.7332
289.7686 289.8577 289.8828 289.9482 290.01811020.79711020.9019
 --------------------------------------------------------------
 
          Ground-State Mulliken Net Atomic Charges

     Atom                 Charge (a.u.)
  ----------------------------------------
      1 C                     0.215505
      2 C                    -0.369923
      3 C                    -0.369051
      4 C                     0.511607
      5 C                     0.511104
      6 C                     0.214470
      7 C                    -1.099901
      8 C                     0.598920
      9 C                     0.590351
     10 C                    -1.090892
     11 O                    -0.206722
     12 O                    -0.207100
     13 H                     0.198646
     14 H                     0.198642
     15 Br                   -0.083024
     16 Br                   -0.081992
     17 H                     0.234594
     18 H                     0.234766
  ----------------------------------------
  Sum of atomic charges =     0.000000

 -----------------------------------------------------------------
                    Cartesian Multipole Moments
 -----------------------------------------------------------------
    Charge (ESU x 10^10)
                 0.0000
    Dipole Moment (Debye)
         X       3.6664      Y      -1.2662      Z      -2.0626
       Tot       4.3932
    Quadrupole Moments (Debye-Ang)
        XX     -63.1745     XY     -21.4209     YY    -101.2400
        XZ     -12.9494     YZ      15.5050     ZZ    -112.4281
    Octopole Moments (Debye-Ang^2)
       XXX    -723.4157    XXY     150.4903    XYY    -260.3304
       YYY    1088.5861    XXZ    -219.9837    XYZ      72.9260
       YYZ    -240.6242    XZZ    -387.6498    YZZ     414.0623
       ZZZ    -483.7573
    Hexadecapole Moments (Debye-Ang^3)
      XXXX   -7138.4881   XXXY    2401.2844   XXYY   -2018.7876
      XYYY    3739.2642   YYYY   -8757.6123   XXXZ   -1376.3505
      XXYZ     897.3996   XYYZ    -696.3967   YYYZ    2212.6900
      XXZZ   -2172.3352   XYZZ    1614.9261   YYZZ   -2262.9011
      XZZZ   -1155.8840   YZZZ    1905.9952   ZZZZ   -2974.9786
 -----------------------------------------------------------------
 Total job time:  36.74s(wall), 195.43s(cpu) 
 Wed Jun 12 02:36:10 2024

        *************************************************************
        *                                                           *
        *  Thank you very much for using Q-Chem.  Have a nice day.  *
        *                                                           *
        *************************************************************


