
Running Job 1 of 1 186-rad-COSMO.in
qchem 186-rad-COSMO.in_1145750.0 /expanse/lustre/scratch/selhajj/temp_project/qcscratch/28870437/qchem1145750/ 0
/cm/shared/apps/spack/cpu/opt/spack/linux-centos8-zen2/gcc-10.2.0/qchem-5.4-akfmr7b3t57bfs6qan3padb2wnb2i7cl/exe/qcprog.exe_s 186-rad-COSMO.in_1145750.0 /expanse/lustre/scratch/selhajj/temp_project/qcscratch/28870437/qchem1145750/
                  Welcome to Q-Chem
     A Quantum Leap Into The Future Of Chemistry


 Q-Chem 5.4, Q-Chem, Inc., Pleasanton, CA (2021)

 License issued to: University of California, San Diego (site)

 E. Epifanovsky,  A. T. B. Gilbert,  Xintian Feng,  Joonho Lee,  Yuezhi Mao,  
 N. Mardirossian,  P. Pokhilko,  A. White,  M. Wormit,  M. P. Coons,  
 A. L. Dempwolff,  Zhengting Gan,  D. Hait,  P. R. Horn,  L. D. Jacobson,  
 I. Kaliman,  J. Kussmann,  A. W. Lange,  Ka Un Lao,  D. S. Levine,  Jie Liu,  
 S. C. McKenzie,  A. F. Morrison,  K. Nanda,  F. Plasser,  D. R. Rehn,  
 M. L. Vidal,  Zhi-Qiang You,  Ying Zhu,  B. Alam,  B. Albrecht,  
 A. Aldossary,  E. Alguire,  J. H. Andersen,  D. Barton,  K. Begam,  A. Behn,  
 Y. A. Bernard,  E. J. Berquist,  H. Burton,  A. Carreras,  K. Carter-Fenk,  
 R. Chakraborty,  A. D. Chien,  K. D. Closser,  V. Cofer-Shabica,  
 S. Dasgupta,  Jia Deng,  M. de Wergifosse,  M. Diedenhofen,  Hainam Do,  
 S. Ehlert,  Po-Tung Fang,  S. Fatehi,  Qingguo Feng,  J. Gayvert,  
 Qinghui Ge,  G. Gidofalvi,  M. Goldey,  J. Gomes,  C. Gonzalez-Espinoza,  
 S. Gulania,  A. Gunina,  M. W. D. Hanson-Heine,  P. H. P. Harbach,  
 A. W. Hauser,  M. F. Herbst,  M. Hernandez Vera,  M. Hodecker,  
 Z. C. Holden,  S. Houck,  Xunkun Huang,  Kerwin Hui,  B. C. Huynh,  
 M. Ivanov,  Hyunjun Ji,  Hanjie Jiang,  B. Kaduk,  S. Kaehler,  
 K. Khistyaev,  Jaehoon Kim,  P. Klunzinger,  Z. Koczor-Benda,  
 Joong Hoon Koh,  D. Kosenkov,  L. Koulias,  T. Kowalczyk,  C. M. Krauter,  
 K. Kue,  A. Kunitsa,  T. Kus,  A. Landau,  K. V. Lawler,  D. Lefrancois,  
 S. Lehtola,  Rain Li,  Yi-Pei Li,  Jiashu Liang,  M. Liebenthal,  
 Hung-Hsuan Lin,  You-Sheng Lin,  Fenglai Liu,  Kuan-Yu Liu,  
 M. Loipersberger,  A. Luenser,  A. Manjanath,  P. Manohar,  E. Mansoor,  
 S. F. Manzer,  Shan-Ping Mao,  A. V. Marenich,  T. Markovich,  S. Mason,  
 S. A. Maurer,  P. F. McLaughlin,  M. F. S. J. Menger,  J.-M. Mewes,  
 S. A. Mewes,  P. Morgante,  J. W. Mullinax,  T. S. Nguyen-Beck,  
 K. J. Oosterbaan,  G. Paran,  Alexander C. Paul,  Suranjan K. Paul,  
 F. Pavosevic,  Zheng Pei,  S. Prager,  E. I. Proynov,  E. Ramos,  B. Rana,  
 A. E. Rask,  A. Rettig,  R. M. Richard,  F. Rob,  E. Rossomme,  T. Scheele,  
 M. Scheurer,  M. Schneider,  N. Sergueev,  S. M. Sharada,  W. Skomorowski,  
 D. W. Small,  C. J. Stein,  Yu-Chuan Su,  E. J. Sundstrom,  Zhen Tao,  
 J. Thirman,  T. Tsuchimochi,  N. M. Tubman,  S. P. Veccham,  O. Vydrov,  
 J. Wenzel,  J. Witte,  A. Yamada,  Kun Yao,  S. Yeganeh,  S. R. Yost,  
 A. Zech,  Igor Ying Zhang,  Xing Zhang,  Yu Zhang,  D. Zuev,  
 A. Aspuru-Guzik,  A. T. Bell,  N. A. Besley,  K. B. Bravaya,  B. R. Brooks,  
 D. Casanova,  Jeng-Da Chai,  S. Coriani,  C. J. Cramer,  
 A. E. DePrince, III,  R. A. DiStasio Jr.,  A. Dreuw,  B. D. Dunietz,  
 T. R. Furlani,  W. A. Goddard III,  S. Grimme,  S. Hammes-Schiffer,  
 T. Head-Gordon,  W. J. Hehre,  Chao-Ping Hsu,  T.-C. Jagau,  Yousung Jung,  
 A. Klamt,  Jing Kong,  D. S. Lambrecht,  WanZhen Liang,  N. J. Mayhall,  
 C. W. McCurdy,  J. B. Neaton,  C. Ochsenfeld,  J. A. Parkhill,  R. Peverati,  
 V. A. Rassolov,  Yihan Shao,  L. V. Slipchenko,  T. Stauch,  R. P. Steele,  
 J. E. Subotnik,  A. J. W. Thom,  A. Tkatchenko,  D. G. Truhlar,  
 T. Van Voorhis,  T. A. Wesolowski,  K. B. Whaley,  H. L. Woodcock III,  
 P. M. Zimmerman,  S. Faraji,  P. M. W. Gill,  M. Head-Gordon,  
 J. M. Herbert,  A. I. Krylov

 Contributors to earlier versions of Q-Chem not listed above: 
 R. D. Adamson,  B. Austin,  R. Baer,  J. Baker,  G. J. O. Beran,  
 K. Brandhorst,  S. T. Brown,  E. F. C. Byrd,  A. K. Chakraborty,  
 G. K. L. Chan,  Chun-Min Chang,  Yunqing Chen,  C.-L. Cheng,  
 Siu Hung Chien,  D. M. Chipman,  D. L. Crittenden,  H. Dachsel,  
 R. J. Doerksen,  A. D. Dutoi,  R. G. Edgar,  J. Fosso-Tande,  
 L. Fusti-Molnar,  D. Ghosh,  A. Ghysels,  A. Golubeva-Zadorozhnaya,  
 J. Gonthier,  M. S. Gordon,  S. R. Gwaltney,  G. Hawkins,  J. E. Herr,  
 A. Heyden,  S. Hirata,  E. G. Hohenstein,  G. Kedziora,  F. J. Keil,  
 C. Kelley,  Jihan Kim,  R. A. King,  R. Z. Khaliullin,  P. P. Korambath,  
 W. Kurlancheek,  A. Laurent,  A. M. Lee,  M. S. Lee,  S. V. Levchenko,  
 Ching Yeh Lin,  D. Liotard,  E. Livshits,  R. C. Lochan,  I. Lotan,  
 L. A. Martinez-Martinez,  P. E. Maslen,  N. Nair,  D. P. O'Neill,  
 D. Neuhauser,  E. Neuscamman,  C. M. Oana,  R. Olivares-Amaya,  R. Olson,  
 T. M. Perrine,  B. Peters,  P. A. Pieniazek,  A. Prociuk,  Y. M. Rhee,  
 J. Ritchie,  M. A. Rohrdanz,  E. Rosta,  N. J. Russ,  H. F. Schaefer III,  
 M. W. Schmidt,  N. E. Schultz,  S. Sharma,  N. Shenvi,  C. D. Sherrill,  
 A. C. Simmonett,  A. Sodt,  T. Stein,  D. Stuck,  K. S. Thanthiriwatte,  
 V. Vanovschi,  L. Vogt,  Tao Wang,  A. Warshel,  M. A. Watson,  
 C. F. Williams,  Q. Wu,  X. Xu,  Jun Yang,  W. Zhang,  Yan Zhao

 Please cite Q-Chem as follows:
 Y. Shao et al., Mol. Phys. 113, 184-215 (2015)
 DOI: 10.1080/00268976.2014.952696

 Q-Chem 5.4.0 for Intel X86 EM64T Linux

 Parts of Q-Chem use Armadillo 9.800.1 (Horizon Scraper).
 http://arma.sourceforge.net/

 Q-Chem begins on Thu Feb 22 05:14:31 2024  

 Host: 
0

     Scratch files written to /expanse/lustre/scratch/selhajj/temp_project/qcscratch/28870437/qchem1145750//
 May1621 |scratch|qcdevops|jenkins|workspace|build_RNUM    
 Processing $rem in /cm/shared/apps/spack/cpu/opt/spack/linux-centos8-zen2/gcc-10.2.0/qchem-5.4-akfmr7b3t57bfs6qan3padb2wnb2i7cl/config/preferences:
 Processing $rem in /home/selhajj/.qchemrc:

 Checking the input file for inconsistencies... 
 Q-Chem warning in module libgen/CheckREMs.C, line 172:

 Found a $solvent section, which is only used for PCM and Kirkwood-Onsager solvation models

	...done.

--------------------------------------------------------------
User input:
--------------------------------------------------------------
$molecule
-1 2
O                  3.0563620000     -2.1970930000      0.2084400000
C                  2.7744690000     -0.8788740000      0.2556100000
C                  3.8057600000      0.0379730000      0.4171720000
C                  3.5204300000      1.4118880000      0.4670480000
C                  2.2202540000      1.8736030000      0.3573530000
C                  1.1549790000      0.9684340000      0.1929400000
C                 -0.2174820000      1.5044520000      0.0800130000
O                 -0.4141480000      2.7345830000      0.1308020000
C                 -1.2945500000      0.5179590000     -0.0900990000
C                 -2.6625460000      0.8954120000     -0.2113780000
O                 -3.0078760000      2.2208650000     -0.1703820000
C                 -3.6614590000     -0.0572750000     -0.3714460000
C                 -3.3480880000     -1.4270390000     -0.4184580000
C                 -2.0385390000     -1.8336220000     -0.3049460000
C                 -1.0019510000     -0.8865390000     -0.1411280000
C                  0.3560990000     -1.3866970000     -0.0276770000
O                  0.6014100000     -2.6460600000     -0.0749840000
C                  1.4216600000     -0.4259470000      0.1399620000
H                  2.1575450000     -2.6458420000      0.0877260000
H                  4.8211270000     -0.3333970000      0.5021320000
H                  4.3361810000      2.1180190000      0.5937000000
H                  1.9844000000      2.9294910000      0.3939310000
H                 -3.9651570000      2.2681280000     -0.2682960000
H                 -4.6950330000      0.2713770000     -0.4605040000
H                 -4.1437920000     -2.1548160000     -0.5442110000
H                 -1.7600530000     -2.8789820000     -0.3366400000
$end
$rem
MAX_SCF_CYCLES=200
BASIS  =  6-311++G(d,p)
GUI  =  2
JOB_TYPE  =  SP
METHOD  =  B3LYP
SOLVENT_METHOD = COSMO
$end
$solvent
dielectric 37.219
opticaldielectric 1.43
$end





--------------------------------------------------------------
 ----------------------------------------------------------------
             Standard Nuclear Orientation (Angstroms)
    I     Atom           X                Y                Z
 ----------------------------------------------------------------
    1      O       3.1918483321    -1.9408935571    -0.0000079337
    2      C       2.7989067817    -0.6505498313     0.0000992881
    3      C       3.7547063430     0.3577750237     0.0002156001
    4      C       3.3536305727     1.7033906724     0.0001530356
    5      C       2.0128331033     2.0468051130    -0.0000295151
    6      C       1.0220243826     1.0470694225    -0.0001119800
    7      C      -0.3973951501     1.4581231503    -0.0002652333
    8      O      -0.6976137615     2.6682256636    -0.0003550525
    9      C      -1.3931606169     0.3761651518    -0.0000847338
   10      C      -2.7947587404     0.6293746728     0.0001558518
   11      O      -3.2518287950     1.9212129266     0.0003207970
   12      C      -3.7151078016    -0.4117876909     0.0002200422
   13      C      -3.2863311061    -1.7507482612    -0.0000330722
   14      C      -1.9408120460    -2.0383099380    -0.0002184872
   15      C      -0.9822517961    -0.9993299231    -0.0001587923
   16      C       0.4197211357    -1.3758944521    -0.0000543436
   17      O       0.7711155324    -2.6107760473     0.0001146830
   18      C       1.4061470220    -0.3206562752    -0.0000063796
   19      H       2.3293906131    -2.4700306676    -0.0003760882
   20      H       4.8026950253     0.0788059562     0.0002803846
   21      H       4.1112674778     2.4819134587     0.0002116876
   22      H       1.6880005855     3.0794465606    -0.0000926679
   23      H      -4.2144619090     1.8819029938     0.0000513685
   24      H      -4.7777142311    -0.1770831915     0.0004475969
   25      H      -4.0220700604    -2.5490628768    -0.0000372235
   26      H      -1.5741904677    -3.0566051269    -0.0003526922
 ----------------------------------------------------------------
 Molecular Point Group                 C1    NOp =  1
 Largest Abelian Subgroup              C1    NOp =  1
 Nuclear Repulsion Energy =        1234.20657751 hartrees
 There are       63 alpha and       62 beta electrons
 Requested basis set is 6-311++G(d,p)
 There are 148 shells and 452 basis functions

 Total QAlloc Memory Limit   8000 MB
 Mega-Array Size       188 MB
 MEM_STATIC part       192 MB
 A cutoff of  1.0D-08 yielded   7726 shell pairs
 There are     75657 function pairs (     81155 Cartesian)
 Smallest overlap matrix eigenvalue = 6.91E-08

 Q-Chem warning in module stvman/mkSTV.C, line 323:

 Overlap eigenvalue is smaller than square root of threshold
 Use THRESH >= 12 to get rid of this warning

 Linear dependence detected in AO basis
 Tighter screening thresholds may be required for diffuse basis sets
 Use S2THRESH > 14 and THRESH = 14 in case of SCF convergence issues
 Number of orthogonalized atomic orbitals = 445
 Maximum deviation from orthogonality = 1.558E-10

 Scale SEOQF with 1.000000e-01/1.000000e-01/1.000000e-01

 Standard Electronic Orientation quadrupole field applied
 Nucleus-field energy     =     0.0000000516 hartrees
 Guess from superposition of atomic densities
 Warning:  Energy on first SCF cycle will be non-variational
 SAD guess density has 124.000000 electrons

 -----------------------------------------------------------------------
  General SCF calculation program by
  Eric Jon Sundstrom, Paul Horn, Yuezhi Mao, Dmitri Zuev, Alec White,
  David Stuck, Shaama M.S., Shane Yost, Joonho Lee, David Small,
  Daniel Levine, Susi Lehtola, Hugh Burton, Evgeny Epifanovsky,
  Bang C. Huynh
 -----------------------------------------------------------------------
 Exchange:     0.2000 Hartree-Fock + 0.0800 Slater + 0.7200 B88
 Correlation:  0.1900 VWN1RPA + 0.8100 LYP
 Using SG-1 standard quadrature grid
 using 8 threads for integral computing
 -------------------------------------------------------
 OpenMP Integral computing Module                
 Release: version 1.0, May 2013, Q-Chem Inc. Pittsburgh 
 -------------------------------------------------------
 A unrestricted SCF calculation will be
 performed using DIIS
 SCF converges when DIIS error is below 1.0e-05
 ---------------------------------------
  Cycle       Energy         DIIS error
 ---------------------------------------
    1    -843.8317976862      1.60e-02  
    2    -839.1598307984      2.00e-03  
    3    -837.4436745203      4.18e-03  
    4    -839.2661614696      1.58e-03  
    5    -839.5093227590      2.97e-04  
    6    -839.5089212741      3.31e-04  
    7    -839.5200810361      7.71e-05  
    8    -839.5206410906      3.46e-05  
    9    -839.5207548164      1.68e-05  
   10    -839.5207907868      8.71e-06  Convergence criterion met
 ---------------------------------------
 SCF time:   CPU 332.42s  wall 42.00s 
<S^2> =          0.759741665
 SCF   energy in the final basis set =     -839.5207907868
 Total energy in the final basis set =     -839.5207907868
 Exchange:     0.2000 Hartree-Fock + 0.0800 Slater + 0.7200 B88
 Correlation:  0.1900 VWN1RPA + 0.8100 LYP
 Using SG-1 standard quadrature grid
 in get_qchem_info
 IBasis=      401111
 IBasis=      401111
 USING 1082 GRID
 MICHARGE=          -1
 Set epsilon to    37.2190017700195     
==== cosmo data ====
outfile: 186-rad-COSMO.out.cosmo.0
phsran:    0.00000D+00
ampran:    0.10000D-04
volume:   1727.0252165
area:    846.1395807
routf:      0.8500000
rsolv [a.u]:      2.4566438
disex:     10.0000000
disex2:   4640.2068626
fepsi:      0.9731320
eps :    37.2190018
lcavity:     1
nppa:  1082
nspa:    92
nsph:    32
maxnps:  1912
natoms:    26
Atom   Radius [a.u.] nuc. charge
    1      3.2503287    8
    2      3.7794520    6
    3      3.7794520    6
    4      3.7794520    6
    5      3.7794520    6
    6      3.7794520    6
    7      3.7794520    6
    8      3.2503287    8
    9      3.7794520    6
   10      3.7794520    6
   11      3.2503287    8
   12      3.7794520    6
   13      3.7794520    6
   14      3.7794520    6
   15      3.7794520    6
   16      3.7794520    6
   17      3.2503287    8
   18      3.7794520    6
   19      2.4566438    1
   20      2.4566438    1
   21      2.4566438    1
   22      2.4566438    1
   23      2.4566438    1
   24      2.4566438    1
   25      2.4566438    1
   26      2.4566438    1
=== end cosmo data ===
 number of segments:         1046
 f_epsilon=  0.973132003749614     
Ediel:   -0.0812412
 A unrestricted SCF calculation will be
 performed using Roothaan-Hall, DIIS
 SCF converges when DIIS error is below 1.0e-05
 ---------------------------------------
  Cycle       Energy         DIIS error
 ---------------------------------------
 number of segments:         1046
 f_epsilon=  0.973132003749614     
Ediel:   -0.1005604
    1    -839.6020463121      1.47e-04  Roothaan Step
 ---------------------------------------
  Cycle       Energy         DIIS error
 ---------------------------------------
 number of segments:         1046
 f_epsilon=  0.973132003749614     
Ediel:   -0.0920281
    1    -839.6069677060      1.48e-04  
 number of segments:         1046
 f_epsilon=  0.973132003749614     
Ediel:   -0.0972598
    2    -839.6028310796      2.70e-04  
 number of segments:         1046
 f_epsilon=  0.973132003749614     
Ediel:   -0.0977574
    3    -839.6090564957      2.54e-05  
 number of segments:         1046
 f_epsilon=  0.973132003749614     
Ediel:   -0.0977539
    4    -839.6091053232      1.20e-05  
    5    -839.6091187635      4.78e-06  Convergence criterion met
 ---------------------------------------
 SCF time:   CPU 261.48s  wall 34.00s 
<S^2> =          0.758766618
before final oc correction, ETot:      -839.6091187635
 number of outlayer segments:          459
SCF energy after oc correction:      -839.6144856230
 SCF   energy in the final basis set =     -839.6144856230
 Total energy in the final basis set =     -839.6091187635
 
 --------------------------------------------------------------
 
                    Orbital Energies (a.u.)
 --------------------------------------------------------------
 
 Alpha MOs
 -- Occupied --
-19.1535 -19.1338 -19.0923 -19.0801 -10.2433 -10.2365 -10.2354 -10.2335
-10.1822 -10.1806 -10.1775 -10.1768 -10.1764 -10.1745 -10.1720 -10.1659
-10.1658 -10.1632  -1.0665  -1.0579  -1.0118  -1.0074  -0.8634  -0.8488
 -0.7895  -0.7506  -0.7463  -0.7399  -0.6730  -0.6456  -0.6339  -0.5935
 -0.5846  -0.5496  -0.5347  -0.5104  -0.4983  -0.4834  -0.4692  -0.4639
 -0.4447  -0.4397  -0.4255  -0.4236  -0.4212  -0.4171  -0.3932  -0.3869
 -0.3854  -0.3844  -0.3712  -0.3625  -0.3551  -0.3463  -0.3366  -0.3323
 -0.2752  -0.2607  -0.2537  -0.2397  -0.2396  -0.2302  -0.1462
 -- Virtual --
 -0.0489  -0.0261  -0.0012   0.0059   0.0066   0.0116   0.0219   0.0241
  0.0420   0.0446   0.0457   0.0479   0.0488   0.0601   0.0652   0.0660
  0.0686   0.0698   0.0833   0.0907   0.0941   0.1009   0.1053   0.1102
  0.1115   0.1172   0.1205   0.1237   0.1282   0.1284   0.1289   0.1346
  0.1410   0.1412   0.1424   0.1435   0.1611   0.1630   0.1690   0.1731
  0.1762   0.1782   0.1787   0.1813   0.1864   0.1923   0.1940   0.2021
  0.2069   0.2074   0.2138   0.2163   0.2255   0.2330   0.2380   0.2426
  0.2429   0.2465   0.2471   0.2488   0.2581   0.2659   0.2664   0.2708
  0.2739   0.2794   0.2816   0.2844   0.2929   0.2943   0.2989   0.3000
  0.3016   0.3082   0.3097   0.3132   0.3207   0.3230   0.3286   0.3287
  0.3320   0.3350   0.3419   0.3442   0.3470   0.3548   0.3607   0.3674
  0.3767   0.3830   0.3887   0.3927   0.4008   0.4035   0.4240   0.4291
  0.4355   0.4509   0.4639   0.4823   0.4974   0.5062   0.5203   0.5290
  0.5414   0.5425   0.5484   0.5518   0.5581   0.5634   0.5772   0.5812
  0.5896   0.5936   0.6043   0.6096   0.6129   0.6134   0.6231   0.6400
  0.6412   0.6498   0.6546   0.6613   0.6616   0.6652   0.6765   0.6779
  0.6787   0.6945   0.6966   0.7119   0.7390   0.7398   0.7584   0.7738
  0.7743   0.7791   0.7890   0.7934   0.8038   0.8060   0.8279   0.8598
  0.8635   0.8773   0.8851   0.8895   0.9011   0.9054   0.9158   0.9229
  0.9304   0.9354   0.9462   0.9511   0.9512   0.9776   0.9811   0.9877
  0.9924   1.0015   1.0067   1.0161   1.0328   1.0522   1.0577   1.0677
  1.0716   1.0785   1.0860   1.0940   1.1061   1.1204   1.1240   1.1284
  1.1402   1.1490   1.1724   1.1770   1.1965   1.2076   1.2196   1.2230
  1.2390   1.2472   1.2558   1.2560   1.2714   1.2929   1.3245   1.3347
  1.3449   1.3882   1.4188   1.4262   1.4343   1.4402   1.4410   1.4786
  1.4915   1.5004   1.5038   1.5197   1.5263   1.5336   1.5374   1.5607
  1.5713   1.5829   1.5952   1.6036   1.6067   1.6228   1.6329   1.6676
  1.6869   1.6931   1.7182   1.7219   1.7259   1.7421   1.7581   1.7617
  1.7842   1.7930   1.7948   1.8178   1.8491   1.8632   1.8932   1.8989
  1.8995   1.9133   1.9205   1.9304   1.9306   1.9366   1.9459   1.9577
  1.9672   1.9761   1.9880   1.9892   2.0088   2.0135   2.0377   2.0487
  2.0645   2.0835   2.0936   2.1147   2.1188   2.1292   2.1736   2.2020
  2.2330   2.2350   2.2552   2.3031   2.3143   2.3314   2.3731   2.3754
  2.3896   2.4236   2.4425   2.4666   2.5044   2.5130   2.5632   2.6013
  2.6061   2.6225   2.6396   2.6423   2.6859   2.7272   2.7288   2.7315
  2.7410   2.7470   2.7512   2.7564   2.7693   2.7922   2.7943   2.7989
  2.7989   2.8045   2.8196   2.8202   2.8279   2.8528   2.8562   2.8651
  2.8744   2.8798   2.9377   2.9451   2.9681   3.0247   3.0769   3.0879
  3.1020   3.1049   3.1187   3.1200   3.1311   3.1619   3.1709   3.1893
  3.1996   3.2162   3.2192   3.2370   3.2684   3.2866   3.3001   3.3492
  3.3523   3.3744   3.3984   3.4311   3.4647   3.4898   3.4999   3.5329
  3.5497   3.5791   3.5821   3.5993   3.6599   3.6736   3.6900   3.8213
  3.8469   3.9134   3.9187   3.9325   4.0538   4.0653   4.1175   4.1347
  4.2018   4.2255   4.2896   4.3256   4.4953   4.8162   4.8357   4.8577
  5.0064   5.0204   5.0670   5.0877   5.2825   5.2979   5.5173   5.5217
  5.7305   5.7716   5.8166   5.8486  23.5281  23.6834  23.8884  23.9092
 23.9183  23.9322  23.9453  23.9759  24.0028  24.0408  24.0824  24.0880
 24.1860  24.1920  49.9544  49.9944  50.0627  50.1176
 
 Beta MOs
 -- Occupied --
-19.1534 -19.1335 -19.0874 -19.0752 -10.2435 -10.2361 -10.2342 -10.2307
-10.1814 -10.1800 -10.1776 -10.1761 -10.1757 -10.1738 -10.1710 -10.1654
-10.1652 -10.1631  -1.0664  -1.0565  -1.0033  -0.9991  -0.8607  -0.8475
 -0.7856  -0.7478  -0.7442  -0.7382  -0.6660  -0.6437  -0.6319  -0.5926
 -0.5828  -0.5472  -0.5331  -0.5093  -0.4968  -0.4807  -0.4680  -0.4630
 -0.4435  -0.4311  -0.4229  -0.4212  -0.4183  -0.4138  -0.3918  -0.3834
 -0.3771  -0.3701  -0.3667  -0.3618  -0.3539  -0.3449  -0.3299  -0.3234
 -0.2571  -0.2567  -0.2487  -0.2352  -0.2306  -0.2238
 -- Virtual --
 -0.0902  -0.0373  -0.0157  -0.0010   0.0066   0.0088   0.0117   0.0220
  0.0242   0.0421   0.0448   0.0464   0.0481   0.0565   0.0653   0.0673
  0.0697   0.0698   0.0746   0.0835   0.0909   0.0947   0.1028   0.1057
  0.1104   0.1119   0.1173   0.1207   0.1240   0.1283   0.1286   0.1307
  0.1349   0.1413   0.1437   0.1438   0.1450   0.1614   0.1632   0.1690
  0.1735   0.1765   0.1789   0.1806   0.1817   0.1881   0.1935   0.1943
  0.2026   0.2076   0.2107   0.2145   0.2170   0.2259   0.2340   0.2383
  0.2431   0.2472   0.2475   0.2475   0.2492   0.2595   0.2668   0.2674
  0.2717   0.2743   0.2813   0.2823   0.2852   0.2939   0.2951   0.3009
  0.3022   0.3023   0.3086   0.3107   0.3138   0.3218   0.3235   0.3295
  0.3313   0.3327   0.3367   0.3427   0.3452   0.3480   0.3551   0.3613
  0.3680   0.3772   0.3835   0.3894   0.3936   0.4013   0.4049   0.4253
  0.4306   0.4377   0.4518   0.4649   0.4836   0.4988   0.5078   0.5217
  0.5300   0.5433   0.5437   0.5493   0.5539   0.5637   0.5641   0.5785
  0.5822   0.5904   0.5963   0.6072   0.6115   0.6137   0.6150   0.6242
  0.6411   0.6445   0.6505   0.6593   0.6631   0.6632   0.6658   0.6784
  0.6790   0.6797   0.6956   0.7002   0.7127   0.7397   0.7432   0.7590
  0.7743   0.7749   0.7800   0.7893   0.7956   0.8043   0.8072   0.8285
  0.8606   0.8644   0.8784   0.8868   0.8905   0.9022   0.9065   0.9166
  0.9241   0.9315   0.9373   0.9472   0.9523   0.9562   0.9790   0.9826
  0.9903   0.9947   1.0033   1.0087   1.0174   1.0352   1.0525   1.0616
  1.0690   1.0731   1.0801   1.0904   1.0962   1.1117   1.1247   1.1251
  1.1348   1.1454   1.1509   1.1738   1.1779   1.2000   1.2091   1.2203
  1.2280   1.2411   1.2524   1.2583   1.2601   1.2735   1.2944   1.3258
  1.3374   1.3460   1.3896   1.4193   1.4281   1.4366   1.4419   1.4423
  1.4797   1.4957   1.5010   1.5045   1.5206   1.5304   1.5342   1.5417
  1.5616   1.5727   1.5844   1.5963   1.6055   1.6082   1.6242   1.6348
  1.6687   1.6901   1.6945   1.7225   1.7230   1.7268   1.7437   1.7595
  1.7629   1.7851   1.7965   1.7974   1.8187   1.8506   1.8650   1.8967
  1.8998   1.9028   1.9155   1.9221   1.9322   1.9333   1.9379   1.9477
  1.9594   1.9705   1.9780   1.9909   1.9917   2.0124   2.0146   2.0390
  2.0506   2.0656   2.0843   2.0954   2.1169   2.1219   2.1302   2.1744
  2.2042   2.2354   2.2365   2.2584   2.3053   2.3184   2.3348   2.3739
  2.3790   2.3915   2.4250   2.4439   2.4682   2.5052   2.5133   2.5642
  2.6021   2.6080   2.6287   2.6399   2.6449   2.6911   2.7275   2.7320
  2.7350   2.7413   2.7478   2.7541   2.7566   2.7696   2.7925   2.7950
  2.7995   2.8048   2.8051   2.8208   2.8243   2.8286   2.8542   2.8628
  2.8700   2.8806   2.8872   2.9449   2.9560   2.9771   3.0304   3.0778
  3.0905   3.1046   3.1065   3.1214   3.1223   3.1328   3.1650   3.1711
  3.1936   3.2008   3.2183   3.2207   3.2404   3.2699   3.2888   3.3140
  3.3498   3.3653   3.3750   3.3995   3.4324   3.4657   3.4911   3.5014
  3.5342   3.5512   3.5805   3.5838   3.6002   3.6609   3.6751   3.6913
  3.8244   3.8498   3.9157   3.9192   3.9336   4.0550   4.0665   4.1186
  4.1360   4.2030   4.2264   4.2920   4.3285   4.4984   4.8202   4.8375
  4.8589   5.0066   5.0224   5.0868   5.1079   5.2862   5.3014   5.5180
  5.5224   5.7326   5.7735   5.8181   5.8524  23.5288  23.6839  23.8896
 23.9098  23.9196  23.9330  23.9469  23.9769  24.0035  24.0415  24.0831
 24.0885  24.1865  24.1926  49.9545  49.9949  50.0675  50.1225
 --------------------------------------------------------------
 
          Ground-State Mulliken Net Atomic Charges

     Atom                 Charge (a.u.)    Spin (a.u.)
  --------------------------------------------------------
      1 O                    -0.416758       0.010040
      2 C                    -0.164542       0.043911
      3 C                    -0.216056       0.036424
      4 C                    -0.419667       0.056685
      5 C                    -0.151080       0.030813
      6 C                     0.491731       0.074561
      7 C                    -0.323050       0.063225
      8 O                    -0.467612       0.185361
      9 C                    -0.224801       0.030884
     10 C                    -0.092410       0.001764
     11 O                    -0.251233       0.001000
     12 C                    -0.229833       0.080814
     13 C                    -0.410815       0.024275
     14 C                    -0.037238       0.069839
     15 C                     0.506996       0.007051
     16 C                    -0.378524       0.164388
     17 O                    -0.519099       0.176600
     18 C                     0.452569      -0.032692
     19 H                     0.378790      -0.003661
     20 H                     0.205144      -0.003362
     21 H                     0.210632      -0.004197
     22 H                     0.165291      -0.001684
     23 H                     0.317238      -0.000404
     24 H                     0.184873      -0.006691
     25 H                     0.214708      -0.002183
     26 H                     0.174747      -0.002763
  --------------------------------------------------------
  Sum of atomic charges =    -1.000000
  Sum of spin   charges =     1.000000

 -----------------------------------------------------------------
                    Cartesian Multipole Moments
 -----------------------------------------------------------------
    Charge (ESU x 10^10)
                -4.8032
    Dipole Moment (Debye)
         X      -5.0116      Y      -0.3811      Z       0.0008
       Tot       5.0260
    Quadrupole Moments (Debye-Ang)
        XX     -98.7811     XY      15.6951     YY    -139.0316
        XZ      -0.0016     YZ       0.0059     ZZ    -110.4313
    Octopole Moments (Debye-Ang^2)
       XXX    -140.9646    XXY      46.0468    XYY     -10.1008
       YYY     -17.4693    XXZ       0.0100    XYZ       0.0047
       YYZ      -0.0006    XZZ      -1.7928    YZZ       0.2257
       ZZZ       0.0035
    Hexadecapole Moments (Debye-Ang^3)
      XXXX   -3284.3916   XXXY       4.5592   XXYY    -929.0487
      XYYY      93.9261   YYYY   -1992.8745   XXXZ      -0.0163
      XXYZ       0.0071   XYYZ      -0.0131   YYYZ       0.0555
      XXZZ    -723.3972   XYZZ     -36.7051   YYZZ    -333.3042
      XZZZ      -0.0073   YZZZ       0.0021   ZZZZ    -126.9342
 -----------------------------------------------------------------
 Total job time:  81.63s(wall), 602.53s(cpu) 
 Thu Feb 22 05:15:52 2024

        *************************************************************
        *                                                           *
        *  Thank you very much for using Q-Chem.  Have a nice day.  *
        *                                                           *
        *************************************************************


