 Entering Gaussian System, Link 0=g16
 Input=138-an.com
 Output=138-an.log
 Initial command:
 /sysapps/ubuntu-applications/gaussian/Gaussian/AVX2/g16/l1.exe "/scratch/selhajj1/4221780/Gau-3904320.inp" -scrdir="/scratch/selhajj1/4221780/"
 Entering Link 1 = /sysapps/ubuntu-applications/gaussian/Gaussian/AVX2/g16/l1.exe PID=   3904333.
  
 Copyright (c) 1988,1990,1992,1993,1995,1998,2003,2009,2016,
            Gaussian, Inc.  All Rights Reserved.
  
 This is part of the Gaussian(R) 16 program.  It is based on
 the Gaussian(R) 09 system (copyright 2009, Gaussian, Inc.),
 the Gaussian(R) 03 system (copyright 2003, Gaussian, Inc.),
 the Gaussian(R) 98 system (copyright 1998, Gaussian, Inc.),
 the Gaussian(R) 94 system (copyright 1995, Gaussian, Inc.),
 the Gaussian 92(TM) system (copyright 1992, Gaussian, Inc.),
 the Gaussian 90(TM) system (copyright 1990, Gaussian, Inc.),
 the Gaussian 88(TM) system (copyright 1988, Gaussian, Inc.),
 the Gaussian 86(TM) system (copyright 1986, Carnegie Mellon
 University), and the Gaussian 82(TM) system (copyright 1983,
 Carnegie Mellon University). Gaussian is a federally registered
 trademark of Gaussian, Inc.
  
 This software contains proprietary and confidential information,
 including trade secrets, belonging to Gaussian, Inc.
  
 This software is provided under written license and may be
 used, copied, transmitted, or stored only in accord with that
 written license.
  
 The following legend is applicable only to US Government
 contracts under FAR:
  
                    RESTRICTED RIGHTS LEGEND
  
 Use, reproduction and disclosure by the US Government is
 subject to restrictions as set forth in subparagraphs (a)
 and (c) of the Commercial Computer Software - Restricted
 Rights clause in FAR 52.227-19.
  
 Gaussian, Inc.
 340 Quinnipiac St., Bldg. 40, Wallingford CT 06492
  
  
 ---------------------------------------------------------------
 Warning -- This program may not be used in any manner that
 competes with the business of Gaussian, Inc. or will provide
 assistance to any competitor of Gaussian, Inc.  The licensee
 of this program is prohibited from giving any competitor of
 Gaussian, Inc. access to this program.  By using this program,
 the user acknowledges that Gaussian, Inc. is engaged in the
 business of creating and licensing software in the field of
 computational chemistry and represents and warrants to the
 licensee that it is not a competitor of Gaussian, Inc. and that
 it will not use this program in any manner prohibited above.
 ---------------------------------------------------------------
  

 Cite this work as:
 Gaussian 16, Revision A.03,
 M. J. Frisch, G. W. Trucks, H. B. Schlegel, G. E. Scuseria, 
 M. A. Robb, J. R. Cheeseman, G. Scalmani, V. Barone, 
 G. A. Petersson, H. Nakatsuji, X. Li, M. Caricato, A. V. Marenich, 
 J. Bloino, B. G. Janesko, R. Gomperts, B. Mennucci, H. P. Hratchian, 
 J. V. Ortiz, A. F. Izmaylov, J. L. Sonnenberg, D. Williams-Young, 
 F. Ding, F. Lipparini, F. Egidi, J. Goings, B. Peng, A. Petrone, 
 T. Henderson, D. Ranasinghe, V. G. Zakrzewski, J. Gao, N. Rega, 
 G. Zheng, W. Liang, M. Hada, M. Ehara, K. Toyota, R. Fukuda, 
 J. Hasegawa, M. Ishida, T. Nakajima, Y. Honda, O. Kitao, H. Nakai, 
 T. Vreven, K. Throssell, J. A. Montgomery, Jr., J. E. Peralta, 
 F. Ogliaro, M. J. Bearpark, J. J. Heyd, E. N. Brothers, K. N. Kudin, 
 V. N. Staroverov, T. A. Keith, R. Kobayashi, J. Normand, 
 K. Raghavachari, A. P. Rendell, J. C. Burant, S. S. Iyengar, 
 J. Tomasi, M. Cossi, J. M. Millam, M. Klene, C. Adamo, R. Cammi, 
 J. W. Ochterski, R. L. Martin, K. Morokuma, O. Farkas, 
 J. B. Foresman, and D. J. Fox, Gaussian, Inc., Wallingford CT, 2016.
 
 ******************************************
 Gaussian 16:  ES64L-G16RevA.03 25-Dec-2016
                21-Dec-2023 
 ******************************************
 %chk=138-an.chk
 %nproc=8
 Will use up to    8 processors via shared memory.
 %mem=30GB
 --------------------------------------
 #P UB3LYP/6-311++G(d,p) nosym opt freq
 --------------------------------------
 1/18=20,19=15,26=3,38=1/1,3;
 2/9=110,12=2,15=1,17=6,18=5,40=1/2;
 3/5=4,6=6,7=1111,11=2,25=1,30=1,71=1,74=-5,116=2/1,2,3;
 4//1;
 5/5=2,38=5/2;
 6/7=2,8=2,9=2,10=2,28=1/1;
 7/30=1/1,2,3,16;
 1/18=20,19=15,26=3/3(2);
 2/9=110,15=1/2;
 99//99;
 2/9=110,15=1/2;
 3/5=4,6=6,7=1111,11=2,25=1,30=1,71=1,74=-5,116=2/1,2,3;
 4/5=5,16=3,69=1/1;
 5/5=2,38=5/2;
 7/30=1/1,2,3,16;
 1/18=20,19=15,26=3/3(-5);
 2/9=110,15=1/2;
 6/7=2,8=2,9=2,10=2,19=2,28=1/1;
 99/9=1/99;
 Leave Link    1 at Thu Dec 21 06:46:41 2023, MaxMem=  4026531840 cpu:               0.7 elap:               0.1
 (Enter /sysapps/ubuntu-applications/gaussian/Gaussian/AVX2/g16/l101.exe)
 -------
 Reduced
 -------
 Symbolic Z-matrix:
 Charge = -2 Multiplicity = 1
 C                     4.71166  -0.74037   0.89799 
 O                     4.18971   0.26526   0.08629 
 C                     2.85858   0.49155  -0.16403 
 C                     2.48336   1.51977  -0.98516 
 C                     1.16863   1.80335  -1.27915 
 C                     0.19262   0.98647  -0.69784 
 C                    -1.22866   1.25681  -0.98747 
 O                    -1.53228   2.21952  -1.75362 
 C                    -2.21326   0.39896  -0.37474 
 C                    -3.54898   0.62164  -0.62252 
 C                    -4.4927   -0.19735  -0.03774 
 C                    -4.11293  -1.23327   0.78965 
 C                    -2.77569  -1.46389   1.04367 
 C                    -1.83396  -0.64019   0.45513 
 C                    -0.43313  -0.90942   0.74275 
 O                    -0.12493  -1.863     1.50205 
 C                     0.56555  -0.04624   0.12666 
 C                     1.90452  -0.30567   0.40321 
 H                     4.92807  -1.66331   0.28415 
 H                     4.05959  -0.97931   1.75314 
 H                     5.72306  -0.38379   1.24662 
 H                     3.28393   2.13802  -1.42169 
 H                     0.86236   2.61139  -1.92508 
 H                    -3.88409   1.42427  -1.26585 
 H                    -5.55472  -0.00879  -0.24369 
 H                    -4.85322  -1.87496   1.24779 
 H                    -2.48819  -2.28476   1.69855 
 H                     2.14508  -1.1427    1.06802 
 
 ITRead=  0  0  0  0  0  0  0  0  0  0  0  0  0  0  0  0  0  0  0  0
 ITRead=  0  0  0  0  0  0  0  0
 MicOpt= -1 -1 -1 -1 -1 -1 -1 -1 -1 -1 -1 -1 -1 -1 -1 -1 -1 -1 -1 -1
 MicOpt= -1 -1 -1 -1 -1 -1 -1 -1
 NAtoms=     28 NQM=       28 NQMF=       0 NMMI=      0 NMMIF=      0
                NMic=       0 NMicF=      0.
                    Isotopes and Nuclear Properties:
 (Nuclear quadrupole moments (NQMom) in fm**2, nuclear magnetic moments (NMagM)
  in nuclear magnetons)

  Atom         1           2           3           4           5           6           7           8           9          10
 IAtWgt=          12          16          12          12          12          12          12          16          12          12
 AtmWgt=  12.0000000  15.9949146  12.0000000  12.0000000  12.0000000  12.0000000  12.0000000  15.9949146  12.0000000  12.0000000
 NucSpn=           0           0           0           0           0           0           0           0           0           0
 AtZEff=  -0.0000000  -0.0000000  -0.0000000  -0.0000000  -0.0000000  -0.0000000  -0.0000000  -0.0000000  -0.0000000  -0.0000000
 NQMom=    0.0000000   0.0000000   0.0000000   0.0000000   0.0000000   0.0000000   0.0000000   0.0000000   0.0000000   0.0000000
 NMagM=    0.0000000   0.0000000   0.0000000   0.0000000   0.0000000   0.0000000   0.0000000   0.0000000   0.0000000   0.0000000
 AtZNuc=   6.0000000   8.0000000   6.0000000   6.0000000   6.0000000   6.0000000   6.0000000   8.0000000   6.0000000   6.0000000

  Atom        11          12          13          14          15          16          17          18          19          20
 IAtWgt=          12          12          12          12          12          16          12          12           1           1
 AtmWgt=  12.0000000  12.0000000  12.0000000  12.0000000  12.0000000  15.9949146  12.0000000  12.0000000   1.0078250   1.0078250
 NucSpn=           0           0           0           0           0           0           0           0           1           1
 AtZEff=  -0.0000000  -0.0000000  -0.0000000  -0.0000000  -0.0000000  -0.0000000  -0.0000000  -0.0000000  -0.0000000  -0.0000000
 NQMom=    0.0000000   0.0000000   0.0000000   0.0000000   0.0000000   0.0000000   0.0000000   0.0000000   0.0000000   0.0000000
 NMagM=    0.0000000   0.0000000   0.0000000   0.0000000   0.0000000   0.0000000   0.0000000   0.0000000   2.7928460   2.7928460
 AtZNuc=   6.0000000   6.0000000   6.0000000   6.0000000   6.0000000   8.0000000   6.0000000   6.0000000   1.0000000   1.0000000

  Atom        21          22          23          24          25          26          27          28
 IAtWgt=           1           1           1           1           1           1           1           1
 AtmWgt=   1.0078250   1.0078250   1.0078250   1.0078250   1.0078250   1.0078250   1.0078250   1.0078250
 NucSpn=           1           1           1           1           1           1           1           1
 AtZEff=  -0.0000000  -0.0000000  -0.0000000  -0.0000000  -0.0000000  -0.0000000  -0.0000000  -0.0000000
 NQMom=    0.0000000   0.0000000   0.0000000   0.0000000   0.0000000   0.0000000   0.0000000   0.0000000
 NMagM=    2.7928460   2.7928460   2.7928460   2.7928460   2.7928460   2.7928460   2.7928460   2.7928460
 AtZNuc=   1.0000000   1.0000000   1.0000000   1.0000000   1.0000000   1.0000000   1.0000000   1.0000000
 Leave Link  101 at Thu Dec 21 06:46:42 2023, MaxMem=  4026531840 cpu:               4.0 elap:               0.6
 (Enter /sysapps/ubuntu-applications/gaussian/Gaussian/AVX2/g16/l103.exe)

 GradGradGradGradGradGradGradGradGradGradGradGradGradGradGradGradGradGrad
 Berny optimization.
 Initialization pass.
                           ----------------------------
                           !    Initial Parameters    !
                           ! (Angstroms and Degrees)  !
 --------------------------                            --------------------------
 ! Name  Definition              Value          Derivative Info.                !
 --------------------------------------------------------------------------------
 ! R1    R(1,2)                  1.3938         estimate D2E/DX2                !
 ! R2    R(1,19)                 1.1294         estimate D2E/DX2                !
 ! R3    R(1,20)                 1.1016         estimate D2E/DX2                !
 ! R4    R(1,21)                 1.1277         estimate D2E/DX2                !
 ! R5    R(2,3)                  1.3732         estimate D2E/DX2                !
 ! R6    R(3,4)                  1.3683         estimate D2E/DX2                !
 ! R7    R(3,18)                 1.3666         estimate D2E/DX2                !
 ! R8    R(4,5)                  1.3767         estimate D2E/DX2                !
 ! R9    R(4,22)                 1.1017         estimate D2E/DX2                !
 ! R10   R(5,6)                  1.3992         estimate D2E/DX2                !
 ! R11   R(5,23)                 1.0789         estimate D2E/DX2                !
 ! R12   R(6,7)                  1.4755         estimate D2E/DX2                !
 ! R13   R(6,17)                 1.3731         estimate D2E/DX2                !
 ! R14   R(7,8)                  1.2673         estimate D2E/DX2                !
 ! R15   R(7,9)                  1.4425         estimate D2E/DX2                !
 ! R16   R(9,10)                 1.3766         estimate D2E/DX2                !
 ! R17   R(9,14)                 1.3829         estimate D2E/DX2                !
 ! R18   R(10,11)                1.3796         estimate D2E/DX2                !
 ! R19   R(10,24)                1.0819         estimate D2E/DX2                !
 ! R20   R(11,12)                1.3791         estimate D2E/DX2                !
 ! R21   R(11,25)                1.0981         estimate D2E/DX2                !
 ! R22   R(12,13)                1.3805         estimate D2E/DX2                !
 ! R23   R(12,26)                1.0815         estimate D2E/DX2                !
 ! R24   R(13,14)                1.3827         estimate D2E/DX2                !
 ! R25   R(13,27)                1.0887         estimate D2E/DX2                !
 ! R26   R(14,15)                1.4552         estimate D2E/DX2                !
 ! R27   R(15,16)                1.2573         estimate D2E/DX2                !
 ! R28   R(15,17)                1.4567         estimate D2E/DX2                !
 ! R29   R(17,18)                1.3916         estimate D2E/DX2                !
 ! R30   R(18,28)                1.0957         estimate D2E/DX2                !
 ! A1    A(2,1,19)             110.1736         estimate D2E/DX2                !
 ! A2    A(2,1,20)             112.7628         estimate D2E/DX2                !
 ! A3    A(2,1,21)             106.725          estimate D2E/DX2                !
 ! A4    A(19,1,20)            110.9831         estimate D2E/DX2                !
 ! A5    A(19,1,21)            104.7485         estimate D2E/DX2                !
 ! A6    A(20,1,21)            111.0688         estimate D2E/DX2                !
 ! A7    A(1,2,3)              126.0196         estimate D2E/DX2                !
 ! A8    A(2,3,4)              119.9362         estimate D2E/DX2                !
 ! A9    A(2,3,18)             120.3272         estimate D2E/DX2                !
 ! A10   A(4,3,18)             119.7366         estimate D2E/DX2                !
 ! A11   A(3,4,5)              123.0116         estimate D2E/DX2                !
 ! A12   A(3,4,22)             117.401          estimate D2E/DX2                !
 ! A13   A(5,4,22)             119.5874         estimate D2E/DX2                !
 ! A14   A(4,5,6)              117.2041         estimate D2E/DX2                !
 ! A15   A(4,5,23)             123.5884         estimate D2E/DX2                !
 ! A16   A(6,5,23)             119.2075         estimate D2E/DX2                !
 ! A17   A(5,6,7)              118.9079         estimate D2E/DX2                !
 ! A18   A(5,6,17)             119.9405         estimate D2E/DX2                !
 ! A19   A(7,6,17)             121.1516         estimate D2E/DX2                !
 ! A20   A(6,7,8)              119.2523         estimate D2E/DX2                !
 ! A21   A(6,7,9)              117.7203         estimate D2E/DX2                !
 ! A22   A(8,7,9)              123.0274         estimate D2E/DX2                !
 ! A23   A(7,9,10)             119.3162         estimate D2E/DX2                !
 ! A24   A(7,9,14)             120.9685         estimate D2E/DX2                !
 ! A25   A(10,9,14)            119.7153         estimate D2E/DX2                !
 ! A26   A(9,10,11)            119.4324         estimate D2E/DX2                !
 ! A27   A(9,10,24)            121.8432         estimate D2E/DX2                !
 ! A28   A(11,10,24)           118.7244         estimate D2E/DX2                !
 ! A29   A(10,11,12)           120.7872         estimate D2E/DX2                !
 ! A30   A(10,11,25)           118.6935         estimate D2E/DX2                !
 ! A31   A(12,11,25)           120.5193         estimate D2E/DX2                !
 ! A32   A(11,12,13)           120.1724         estimate D2E/DX2                !
 ! A33   A(11,12,26)           120.7521         estimate D2E/DX2                !
 ! A34   A(13,12,26)           119.0754         estimate D2E/DX2                !
 ! A35   A(12,13,14)           118.8098         estimate D2E/DX2                !
 ! A36   A(12,13,27)           119.4992         estimate D2E/DX2                !
 ! A37   A(14,13,27)           121.691          estimate D2E/DX2                !
 ! A38   A(9,14,13)            121.083          estimate D2E/DX2                !
 ! A39   A(9,14,15)            121.4445         estimate D2E/DX2                !
 ! A40   A(13,14,15)           117.4726         estimate D2E/DX2                !
 ! A41   A(14,15,16)           119.7125         estimate D2E/DX2                !
 ! A42   A(14,15,17)           117.8233         estimate D2E/DX2                !
 ! A43   A(16,15,17)           122.4641         estimate D2E/DX2                !
 ! A44   A(6,17,15)            120.8917         estimate D2E/DX2                !
 ! A45   A(6,17,18)            121.3903         estimate D2E/DX2                !
 ! A46   A(15,17,18)           117.718          estimate D2E/DX2                !
 ! A47   A(3,18,17)            118.717          estimate D2E/DX2                !
 ! A48   A(3,18,28)            122.9728         estimate D2E/DX2                !
 ! A49   A(17,18,28)           118.3103         estimate D2E/DX2                !
 ! D1    D(19,1,2,3)            91.3993         estimate D2E/DX2                !
 ! D2    D(20,1,2,3)           -33.2032         estimate D2E/DX2                !
 ! D3    D(21,1,2,3)          -155.4222         estimate D2E/DX2                !
 ! D4    D(1,2,3,4)           -179.9991         estimate D2E/DX2                !
 ! D5    D(1,2,3,18)             0.0008         estimate D2E/DX2                !
 ! D6    D(2,3,4,5)            180.0            estimate D2E/DX2                !
 ! D7    D(2,3,4,22)             0.0003         estimate D2E/DX2                !
 ! D8    D(18,3,4,5)             0.0            estimate D2E/DX2                !
 ! D9    D(18,3,4,22)         -179.9996         estimate D2E/DX2                !
 ! D10   D(2,3,18,17)         -180.0            estimate D2E/DX2                !
 ! D11   D(2,3,18,28)           -0.0011         estimate D2E/DX2                !
 ! D12   D(4,3,18,17)            0.0            estimate D2E/DX2                !
 ! D13   D(4,3,18,28)          179.9988         estimate D2E/DX2                !
 ! D14   D(3,4,5,6)              0.0            estimate D2E/DX2                !
 ! D15   D(3,4,5,23)           179.9996         estimate D2E/DX2                !
 ! D16   D(22,4,5,6)           179.9996         estimate D2E/DX2                !
 ! D17   D(22,4,5,23)           -0.0007         estimate D2E/DX2                !
 ! D18   D(4,5,6,7)           -179.9998         estimate D2E/DX2                !
 ! D19   D(4,5,6,17)             0.0            estimate D2E/DX2                !
 ! D20   D(23,5,6,7)             0.0006         estimate D2E/DX2                !
 ! D21   D(23,5,6,17)         -179.9997         estimate D2E/DX2                !
 ! D22   D(5,6,7,8)             -0.0004         estimate D2E/DX2                !
 ! D23   D(5,6,7,9)           -180.0            estimate D2E/DX2                !
 ! D24   D(17,6,7,8)           179.9998         estimate D2E/DX2                !
 ! D25   D(17,6,7,9)             0.0003         estimate D2E/DX2                !
 ! D26   D(5,6,17,15)          180.0            estimate D2E/DX2                !
 ! D27   D(5,6,17,18)            0.0            estimate D2E/DX2                !
 ! D28   D(7,6,17,15)           -0.0003         estimate D2E/DX2                !
 ! D29   D(7,6,17,18)          179.9998         estimate D2E/DX2                !
 ! D30   D(6,7,9,10)           179.9999         estimate D2E/DX2                !
 ! D31   D(6,7,9,14)            -0.0001         estimate D2E/DX2                !
 ! D32   D(8,7,9,10)             0.0003         estimate D2E/DX2                !
 ! D33   D(8,7,9,14)          -179.9996         estimate D2E/DX2                !
 ! D34   D(7,9,10,11)         -179.9995         estimate D2E/DX2                !
 ! D35   D(7,9,10,24)            0.0003         estimate D2E/DX2                !
 ! D36   D(14,9,10,11)           0.0004         estimate D2E/DX2                !
 ! D37   D(14,9,10,24)        -179.9997         estimate D2E/DX2                !
 ! D38   D(7,9,14,13)          179.9995         estimate D2E/DX2                !
 ! D39   D(7,9,14,15)           -0.0001         estimate D2E/DX2                !
 ! D40   D(10,9,14,13)          -0.0004         estimate D2E/DX2                !
 ! D41   D(10,9,14,15)         180.0            estimate D2E/DX2                !
 ! D42   D(9,10,11,12)          -0.0001         estimate D2E/DX2                !
 ! D43   D(9,10,11,25)         179.9999         estimate D2E/DX2                !
 ! D44   D(24,10,11,12)        180.0            estimate D2E/DX2                !
 ! D45   D(24,10,11,25)          0.0            estimate D2E/DX2                !
 ! D46   D(10,11,12,13)         -0.0001         estimate D2E/DX2                !
 ! D47   D(10,11,12,26)        179.9995         estimate D2E/DX2                !
 ! D48   D(25,11,12,13)        179.9999         estimate D2E/DX2                !
 ! D49   D(25,11,12,26)         -0.0005         estimate D2E/DX2                !
 ! D50   D(11,12,13,14)          0.0001         estimate D2E/DX2                !
 ! D51   D(11,12,13,27)       -179.9998         estimate D2E/DX2                !
 ! D52   D(26,12,13,14)       -179.9995         estimate D2E/DX2                !
 ! D53   D(26,12,13,27)          0.0005         estimate D2E/DX2                !
 ! D54   D(12,13,14,9)           0.0002         estimate D2E/DX2                !
 ! D55   D(12,13,14,15)        179.9998         estimate D2E/DX2                !
 ! D56   D(27,13,14,9)        -179.9999         estimate D2E/DX2                !
 ! D57   D(27,13,14,15)         -0.0003         estimate D2E/DX2                !
 ! D58   D(9,14,15,16)        -179.9999         estimate D2E/DX2                !
 ! D59   D(9,14,15,17)           0.0001         estimate D2E/DX2                !
 ! D60   D(13,14,15,16)          0.0005         estimate D2E/DX2                !
 ! D61   D(13,14,15,17)       -179.9995         estimate D2E/DX2                !
 ! D62   D(14,15,17,6)           0.0001         estimate D2E/DX2                !
 ! D63   D(14,15,17,18)       -179.9999         estimate D2E/DX2                !
 ! D64   D(16,15,17,6)        -179.9999         estimate D2E/DX2                !
 ! D65   D(16,15,17,18)          0.0            estimate D2E/DX2                !
 ! D66   D(6,17,18,3)            0.0            estimate D2E/DX2                !
 ! D67   D(6,17,18,28)        -179.9989         estimate D2E/DX2                !
 ! D68   D(15,17,18,3)        -179.9999         estimate D2E/DX2                !
 ! D69   D(15,17,18,28)          0.0011         estimate D2E/DX2                !
 --------------------------------------------------------------------------------
 Trust Radius=3.00D-01 FncErr=1.00D-07 GrdErr=1.00D-06 EigMax=2.50D+02 EigMin=1.00D-04
 Number of steps in this run=    158 maximum allowed number of steps=    168.
 GradGradGradGradGradGradGradGradGradGradGradGradGradGradGradGradGradGrad

 Leave Link  103 at Thu Dec 21 06:46:42 2023, MaxMem=  4026531840 cpu:               0.3 elap:               0.1
 (Enter /sysapps/ubuntu-applications/gaussian/Gaussian/AVX2/g16/l202.exe)
                          Input orientation:                          
 ---------------------------------------------------------------------
 Center     Atomic      Atomic             Coordinates (Angstroms)
 Number     Number       Type             X           Y           Z
 ---------------------------------------------------------------------
      1          6           0        4.711656   -0.740366    0.897991
      2          8           0        4.189709    0.265258    0.086290
      3          6           0        2.858583    0.491547   -0.164031
      4          6           0        2.483357    1.519770   -0.985161
      5          6           0        1.168628    1.803347   -1.279152
      6          6           0        0.192615    0.986472   -0.697836
      7          6           0       -1.228655    1.256808   -0.987469
      8          8           0       -1.532284    2.219521   -1.753621
      9          6           0       -2.213255    0.398956   -0.374741
     10          6           0       -3.548977    0.621642   -0.622516
     11          6           0       -4.492696   -0.197354   -0.037735
     12          6           0       -4.112929   -1.233269    0.789647
     13          6           0       -2.775694   -1.463885    1.043671
     14          6           0       -1.833956   -0.640194    0.455126
     15          6           0       -0.433127   -0.909416    0.742746
     16          8           0       -0.124930   -1.863000    1.502053
     17          6           0        0.565552   -0.046237    0.126657
     18          6           0        1.904525   -0.305666    0.403207
     19          1           0        4.928074   -1.663310    0.284152
     20          1           0        4.059592   -0.979308    1.753139
     21          1           0        5.723064   -0.383789    1.246619
     22          1           0        3.283927    2.138022   -1.421688
     23          1           0        0.862356    2.611392   -1.925078
     24          1           0       -3.884093    1.424274   -1.265854
     25          1           0       -5.554715   -0.008791   -0.243692
     26          1           0       -4.853223   -1.874959    1.247787
     27          1           0       -2.488189   -2.284761    1.698549
     28          1           0        2.145085   -1.142704    1.068016
 ---------------------------------------------------------------------
                    Distance matrix (angstroms):
                    1          2          3          4          5
     1  C    0.000000
     2  O    1.393760   0.000000
     3  C    2.465640   1.373231   0.000000
     4  C    3.690501   2.373488   1.368317   0.000000
     5  C    4.874779   3.654734   2.412522   1.376720   0.000000
     6  C    5.094150   4.136637   2.763564   2.369486   1.399219
     7  C    6.544537   5.612023   4.239008   3.721316   2.476036
     8  O    7.401268   6.320255   4.979197   4.147958   2.773671
     9  C    7.132482   6.420933   5.077058   4.866930   3.771924
    10  C    8.509117   7.779247   6.425260   6.109599   4.907484
    11  C    9.267715   8.695605   7.384567   7.246478   6.131436
    12  C    8.839004   8.466055   7.244755   7.364792   6.433957
    13  C    7.523637   7.240397   6.085009   6.377772   5.623876
    14  C    6.561341   6.102493   4.866633   5.037764   4.241948
    15  C    5.149901   4.814708   3.690569   4.170430   3.743363
    16  O    5.001777   5.014976   4.149829   4.942928   4.780219
    17  C    4.273986   3.637743   2.373121   2.714129   2.400200
    18  C    2.883360   2.376649   1.366578   2.365339   2.796392
    19  H    1.129364   2.074538   3.021104   4.209489   5.347435
    20  H    1.101616   2.084289   2.698402   4.028423   5.029475
    21  H    1.127667   2.029483   3.310800   4.370363   5.648536
    22  H    3.962883   2.569374   2.115065   1.101682   2.146349
    23  H    5.832762   4.541060   3.402933   2.168577   1.078871
    24  H    9.124407   8.267883   6.895482   6.374349   5.066939
    25  H   10.355531   9.753861   8.428539   8.215649   7.039842
    26  H    9.638287   9.365054   8.189355   8.386636   7.495202
    27  H    7.407011   7.327776   6.305954   6.811243   6.241125
    28  H    2.603474   2.669576   2.167440   3.379162   3.891257
                    6          7          8          9         10
     6  C    0.000000
     7  C    1.475459   0.000000
     8  O    2.368621   1.267279   0.000000
     9  C    2.497555   1.442492   2.383168   0.000000
    10  C    3.760091   2.433212   2.810634   1.376639   0.000000
    11  C    4.877429   3.697369   4.189223   2.380127   1.379612
    12  C    5.067303   4.204480   5.004967   2.762013   2.398529
    13  C    4.224684   3.731089   4.789404   2.407988   2.779131
    14  C    2.842948   2.458879   3.625954   1.382889   2.386387
    15  C    2.461955   2.884273   4.150932   2.475777   3.730496
    16  O    3.613840   4.141151   5.408053   3.605538   4.734061
    17  C    1.373083   2.481609   3.615248   2.858560   4.235171
    18  C    2.410923   3.767243   4.779135   4.249448   5.626073
    19  H    5.514546   6.931769   7.808017   7.462283   8.826294
    20  H    4.982477   6.362130   7.334776   6.765804   8.130012
    21  H    6.020331   7.483923   8.271561   8.137976   9.511851
    22  H    3.377312   4.618277   4.828324   5.859988   7.044620
    23  H    2.143605   2.662018   2.432542   4.093630   5.011550
    24  H    4.139307   2.675237   2.530087   2.153383   1.081852
    25  H    5.850522   4.568341   4.839960   3.368796   2.136338
    26  H    6.118311   5.286003   6.066453   3.843530   3.381141
    27  H    4.861104   4.619938   5.754979   3.402419   3.867789
    28  H    3.385818   4.622207   5.726188   4.842870   6.196221
                   11         12         13         14         15
    11  C    0.000000
    12  C    1.379095   0.000000
    13  C    2.391994   1.380547   0.000000
    14  C    2.740058   2.378521   1.382650   0.000000
    15  C    4.194792   3.694323   2.426028   1.455172   0.000000
    16  O    4.921656   4.099782   2.719550   2.347781   1.257321
    17  C    5.063174   4.872041   3.743603   2.493654   1.456710
    18  C    6.413314   6.100781   4.863755   3.753777   2.438118
    19  H    9.539578   9.065329   7.743687   6.841129   5.433337
    20  H    8.772702   8.233038   6.889070   6.044315   4.605465
    21  H   10.297867   9.883177   8.569520   7.602680   6.199101
    22  H    8.236818   8.424315   7.467981   6.118304   5.271446
    23  H    6.334643   6.848694   6.217456   4.848534   4.603439
    24  H    2.123287   3.367489   3.860559   3.380364   4.624905
    25  H    1.098117   2.155431   3.390805   3.838108   5.292906
    26  H    2.144040   1.081524   2.127622   3.356923   4.552427
    27  H    3.374907   2.138111   1.088743   2.163035   2.651115
    28  H    6.795329   6.264856   4.931309   4.057205   2.609100
                   16         17         18         19         20
    16  O    0.000000
    17  C    2.380989   0.000000
    18  C    2.784141   1.391629   0.000000
    19  H    5.201540   4.655248   3.316508   0.000000
    20  H    4.284178   3.965398   2.630670   1.838490   0.000000
    21  H    6.037578   5.288496   3.911354   1.787603   1.838027
    22  H    6.014711   3.815485   3.347328   4.479201   4.516517
    23  H    5.721901   3.370564   3.875082   6.299511   6.053489
    24  H    5.709534   4.888847   6.267899   9.465199   8.831402
    25  H    5.997356   6.131577   7.493122  10.625673   9.867327
    26  H    4.735140   5.827888   6.988788   9.830929   8.971948
    27  H    2.408627   4.099654   4.989054   7.575466   6.676872
    28  H    2.420781   2.140869   1.095661   2.937772   2.039958
                   21         22         23         24         25
    21  H    0.000000
    22  H    4.407809   0.000000
    23  H    6.531252   2.518231   0.000000
    24  H   10.093516   7.205153   4.936862   0.000000
    25  H   11.382001   9.171591   7.132407   2.426823   0.000000
    26  H   10.680891   9.457449   7.928573   4.259406   2.489816
    27  H    8.440534   7.912914   6.951917   4.949058   4.284381
    28  H    3.661937   4.273026   4.969633   6.956099   7.892608
                   26         27         28
    26  H    0.000000
    27  H    2.442235   0.000000
    28  H    7.038809   4.813428   0.000000
 Symmetry turned off by external request.
 Stoichiometry    C15H10O3(2-)
 Framework group  C1[X(C15H10O3)]
 Deg. of freedom    78
 Full point group                 C1      NOp   1
 Rotational constants (GHZ):           0.9583453           0.2809631           0.2175742
 Leave Link  202 at Thu Dec 21 06:46:42 2023, MaxMem=  4026531840 cpu:               0.5 elap:               0.1
 (Enter /sysapps/ubuntu-applications/gaussian/Gaussian/AVX2/g16/l301.exe)
 Standard basis: 6-311++G(d,p) (5D, 7F)
 Ernie: Thresh=  0.10000D-02 Tol=  0.10000D-05 Strict=F.
   466 basis functions,   738 primitive gaussians,   484 cartesian basis functions
    63 alpha electrons       63 beta electrons
       nuclear repulsion energy      1211.3121063647 Hartrees.
 IExCor=  402 DFT=T Ex+Corr=B3LYP ExCW=0 ScaHFX=  0.200000
 ScaDFX=  0.800000  0.720000  1.000000  0.810000 ScalE2=  1.000000  1.000000
 IRadAn=      5 IRanWt=     -1 IRanGd=            0 ICorTp=0 IEmpDi=  4
 NAtoms=   28 NActive=   28 NUniq=   28 SFac= 1.00D+00 NAtFMM=   60 NAOKFM=F Big=F
 Integral buffers will be    131072 words long.
 Raffenetti 2 integral format.
 Two-electron integral symmetry is turned off.
 Leave Link  301 at Thu Dec 21 06:46:42 2023, MaxMem=  4026531840 cpu:               0.5 elap:               0.1
 (Enter /sysapps/ubuntu-applications/gaussian/Gaussian/AVX2/g16/l302.exe)
 NPDir=0 NMtPBC=     1 NCelOv=     1 NCel=       1 NClECP=     1 NCelD=      1
         NCelK=      1 NCelE2=     1 NClLst=     1 CellRange=     0.0.
 One-electron integrals computed using PRISM.
 NBasis=   466 RedAO= T EigKep=  1.26D-06  NBF=   466
 NBsUse=   459 1.00D-06 EigRej=  6.33D-07 NBFU=   459
 Precomputing XC quadrature grid using
 IXCGrd= 4 IRadAn=           5 IRanWt=          -1 IRanGd=           0 AccXCQ= 0.00D+00.
 Generated NRdTot=       0 NPtTot=           0 NUsed=           0 NTot=          32
 NSgBfM=   483   483   483   483   483 MxSgAt=    28 MxSgA2=    28.
 Leave Link  302 at Thu Dec 21 06:46:43 2023, MaxMem=  4026531840 cpu:               5.4 elap:               0.8
 (Enter /sysapps/ubuntu-applications/gaussian/Gaussian/AVX2/g16/l303.exe)
 DipDrv:  MaxL=1.
 Leave Link  303 at Thu Dec 21 06:46:43 2023, MaxMem=  4026531840 cpu:               1.0 elap:               0.2
 (Enter /sysapps/ubuntu-applications/gaussian/Gaussian/AVX2/g16/l401.exe)
 ExpMin= 3.60D-02 ExpMax= 8.59D+03 ExpMxC= 1.30D+03 IAcc=3 IRadAn=         5 AccDes= 0.00D+00
 Harris functional with IExCor=  402 and IRadAn=       5 diagonalized for initial guess.
 HarFok:  IExCor=  402 AccDes= 0.00D+00 IRadAn=         5 IDoV= 1 UseB2=F ITyADJ=14
 ICtDFT=  3500011 ScaDFX=  1.000000  1.000000  1.000000  1.000000
 FoFCou: FMM=F IPFlag=           0 FMFlag=      100000 FMFlg1=           0
         NFxFlg=           0 DoJE=T BraDBF=F KetDBF=T FulRan=T
         wScrn=  0.000000 ICntrl=       500 IOpCl=  0 I1Cent=   200000004 NGrid=           0
         NMat0=    1 NMatS0=      1 NMatT0=    0 NMatD0=    1 NMtDS0=    0 NMtDT0=    0
 Symmetry not used in FoFCou.
 Harris En= -803.977446751253    
 JPrj=0 DoOrth=F DoCkMO=F.
 Initial guess <Sx>= 0.0000 <Sy>= 0.0000 <Sz>= 0.0000 <S**2>=-0.0000 S=-0.0000
 Leave Link  401 at Thu Dec 21 06:46:49 2023, MaxMem=  4026531840 cpu:              42.7 elap:               5.6
 (Enter /sysapps/ubuntu-applications/gaussian/Gaussian/AVX2/g16/l502.exe)
 Two-electron integral symmetry not used.
 UHF open shell SCF:
 Using DIIS extrapolation, IDIIS=  1040.
 NGot=  4026531840 LenX=  4026055996 LenY=  4025821256
 Requested convergence on RMS density matrix=1.00D-08 within 128 cycles.
 Requested convergence on MAX density matrix=1.00D-06.
 Requested convergence on             energy=1.00D-06.
 No special actions if energy rises.
 Fock matrices will be formed incrementally for  20 cycles.

 Cycle   1  Pass 1  IDiag  1:
 FoFJK:  IHMeth= 1 ICntrl=       0 DoSepK=F KAlg= 0 I1Cent=           0 FoldK=F
 IRaf= 850000000 NMat=       1 IRICut=       1 DoRegI=T DoRafI=F ISym2E= 0 IDoP0=0 IntGTp=1.
 FoFCou: FMM=F IPFlag=           0 FMFlag=      100000 FMFlg1=           0
         NFxFlg=           0 DoJE=F BraDBF=F KetDBF=F FulRan=T
         wScrn=  0.000000 ICntrl=         0 IOpCl=  1 I1Cent=           0 NGrid=           0
         NMat0=    1 NMatS0=      1 NMatT0=    0 NMatD0=    1 NMtDS0=    0 NMtDT0=    0
 Symmetry not used in FoFCou.
 E= -802.793725243646    
 DIIS: error= 4.54D-02 at cycle   1 NSaved=   1.
 NSaved= 1 IEnMin= 1 EnMin= -802.793725243646     IErMin= 1 ErrMin= 4.54D-02
 ErrMax= 4.54D-02  0.00D+00 EMaxC= 1.00D-01 BMatC= 2.74D+00 BMatP= 2.74D+00
 IDIUse=3 WtCom= 5.46D-01 WtEn= 4.54D-01
 Coeff-Com:  0.100D+01
 Coeff-En:   0.100D+01
 Coeff:      0.100D+01
 Gap=     0.026 Goal=   None    Shift=    0.000
 Gap=     0.026 Goal=   None    Shift=    0.000
 GapD=    0.026 DampG=0.250 DampE=0.500 DampFc=0.2500 IDamp=-1.
 Damping current iteration by 2.50D-01
 RMSDP=6.20D+00 MaxDP=4.94D+02              OVMax= 9.90D-01

 Cycle   2  Pass 1  IDiag  1:
 RMSU=  1.49D+00    CP:  3.00D+00
 E= -802.677000889486     Delta-E=        0.116724354160 Rises=F Damp=T
 DIIS: error= 1.31D-02 at cycle   2 NSaved=   2.
 NSaved= 2 IEnMin= 1 EnMin= -802.793725243646     IErMin= 2 ErrMin= 1.31D-02
 ErrMax= 1.31D-02  0.00D+00 EMaxC= 1.00D-01 BMatC= 5.70D-01 BMatP= 2.74D+00
 IDIUse=3 WtCom= 8.69D-01 WtEn= 1.31D-01
 Coeff-Com:  0.973D-03 0.999D+00
 Coeff-En:   0.575D+00 0.425D+00
 Coeff:      0.764D-01 0.924D+00
 Gap=     0.235 Goal=   None    Shift=    0.000
 Gap=     0.235 Goal=   None    Shift=    0.000
 RMSDP=1.54D+00 MaxDP=1.21D+02 DE= 1.17D-01 OVMax= 7.48D-01

 Cycle   3  Pass 1  IDiag  1:
 RMSU=  1.75D-02    CP:  1.36D+00  2.97D-03
 E= -802.716461890969     Delta-E=       -0.039461001483 Rises=F Damp=F
 DIIS: error= 4.48D-02 at cycle   3 NSaved=   3.
 NSaved= 3 IEnMin= 1 EnMin= -802.793725243646     IErMin= 2 ErrMin= 1.31D-02
 ErrMax= 4.48D-02  0.00D+00 EMaxC= 1.00D-01 BMatC= 2.56D+00 BMatP= 5.70D-01
 IDIUse=2 WtCom= 0.00D+00 WtEn= 1.00D+00
 EnCoef did     3 forward-backward iterations
 Coeff-En:   0.151D+00 0.423D+00 0.426D+00
 Coeff:      0.151D+00 0.423D+00 0.426D+00
 Gap=     0.207 Goal=   None    Shift=    0.000
 Gap=     0.207 Goal=   None    Shift=    0.000
 RMSDP=6.55D-01 MaxDP=3.69D+01 DE=-3.95D-02 OVMax= 9.95D-01

 Cycle   4  Pass 1  IDiag  1:
 RMSU=  6.32D-01    CP:  3.00D+00  4.70D-02 -3.00D+00
 E= -802.723482406533     Delta-E=       -0.007020515563 Rises=F Damp=F
 DIIS: error= 5.74D-02 at cycle   4 NSaved=   4.
 NSaved= 4 IEnMin= 1 EnMin= -802.793725243646     IErMin= 2 ErrMin= 1.31D-02
 ErrMax= 5.74D-02  0.00D+00 EMaxC= 1.00D-01 BMatC= 2.19D+00 BMatP= 5.70D-01
 IDIUse=2 WtCom= 0.00D+00 WtEn= 1.00D+00
 EnCoef did     5 forward-backward iterations
 Coeff-En:   0.121D+00 0.000D+00 0.408D+00 0.472D+00
 Coeff:      0.121D+00 0.000D+00 0.408D+00 0.472D+00
 Gap=    -0.084 Goal=   None    Shift=    0.000
 Gap=    -0.084 Goal=   None    Shift=    0.000
 RMSDP=6.91D-01 MaxDP=3.55D+01 DE=-7.02D-03 OVMax= 9.79D-01

 Cycle   5  Pass 1  IDiag  1:
 RMSU=  3.25D-01    CP:  3.00D+00  1.23D-01  3.00D+00  8.61D-02
 E= -803.172919530166     Delta-E=       -0.449437123633 Rises=F Damp=F
 DIIS: error= 1.57D-02 at cycle   5 NSaved=   5.
 NSaved= 5 IEnMin= 5 EnMin= -803.172919530166     IErMin= 2 ErrMin= 1.31D-02
 ErrMax= 1.57D-02  0.00D+00 EMaxC= 1.00D-01 BMatC= 3.11D-01 BMatP= 5.70D-01
 IDIUse=3 WtCom= 8.43D-01 WtEn= 1.57D-01
 EnCoef did     3 forward-backward iterations
 Coeff-Com:  0.106D-01 0.225D+00 0.270D+00 0.148D+00 0.346D+00
 Coeff-En:   0.210D-01 0.000D+00 0.321D+00 0.194D+00 0.463D+00
 Coeff:      0.122D-01 0.190D+00 0.278D+00 0.155D+00 0.364D+00
 Gap=    -0.113 Goal=   None    Shift=    0.000
 Gap=    -0.113 Goal=   None    Shift=    0.000
 RMSDP=4.13D-01 MaxDP=3.02D+01 DE=-4.49D-01 OVMax= 9.89D-01

 Cycle   6  Pass 1  IDiag  1:
 RMSU=  5.86D-03    CP:  1.09D+00  4.15D-04  2.65D-01 -6.15D-04 -7.06D-04
 E= -803.344350563890     Delta-E=       -0.171431033724 Rises=F Damp=F
 DIIS: error= 1.17D-02 at cycle   6 NSaved=   6.
 NSaved= 6 IEnMin= 6 EnMin= -803.344350563890     IErMin= 6 ErrMin= 1.17D-02
 ErrMax= 1.17D-02  0.00D+00 EMaxC= 1.00D-01 BMatC= 2.85D-01 BMatP= 3.11D-01
 IDIUse=3 WtCom= 8.83D-01 WtEn= 1.17D-01
 EnCoef did     4 forward-backward iterations
 Coeff-Com: -0.141D+00 0.238D+00 0.675D-01 0.258D-01 0.269D+00 0.541D+00
 Coeff-En:   0.000D+00 0.000D+00 0.000D+00 0.487D-01 0.308D+00 0.644D+00
 Coeff:     -0.124D+00 0.210D+00 0.596D-01 0.285D-01 0.274D+00 0.553D+00
 Gap=     0.058 Goal=   None    Shift=    0.000
 Gap=     0.058 Goal=   None    Shift=    0.000
 RMSDP=5.45D-03 MaxDP=3.77D-01 DE=-1.71D-01 OVMax= 7.96D-02

 Cycle   7  Pass 1  IDiag  1:
 RMSU=  4.32D-03    CP:  1.09D+00  1.99D-03  2.30D-01 -1.49D-03  2.76D-03
                    CP:  1.32D+00
 E= -803.398213304839     Delta-E=       -0.053862740950 Rises=F Damp=F
 DIIS: error= 1.12D-02 at cycle   7 NSaved=   7.
 NSaved= 7 IEnMin= 7 EnMin= -803.398213304839     IErMin= 7 ErrMin= 1.12D-02
 ErrMax= 1.12D-02  0.00D+00 EMaxC= 1.00D-01 BMatC= 1.57D-01 BMatP= 2.85D-01
 IDIUse=3 WtCom= 8.88D-01 WtEn= 1.12D-01
 EnCoef did     4 forward-backward iterations
 Coeff-Com: -0.171D+00 0.239D+00-0.230D-01-0.165D-01 0.178D+00 0.290D+00
 Coeff-Com:  0.503D+00
 Coeff-En:   0.000D+00 0.000D+00 0.000D+00 0.333D-01 0.232D+00 0.000D+00
 Coeff-En:   0.735D+00
 Coeff:     -0.152D+00 0.212D+00-0.204D-01-0.109D-01 0.184D+00 0.258D+00
 Coeff:      0.529D+00
 Gap=     0.033 Goal=   None    Shift=    0.000
 Gap=     0.033 Goal=   None    Shift=    0.000
 RMSDP=5.46D-03 MaxDP=3.87D-01 DE=-5.39D-02 OVMax= 7.62D-02

 Cycle   8  Pass 1  IDiag  1:
 RMSU=  2.22D-03    CP:  1.14D+00  3.26D-03  1.81D-01 -1.97D-03  5.23D-03
                    CP:  1.67D+00  1.56D+00
 E= -803.415207557609     Delta-E=       -0.016994252770 Rises=F Damp=F
 DIIS: error= 7.73D-03 at cycle   8 NSaved=   8.
 NSaved= 8 IEnMin= 8 EnMin= -803.415207557609     IErMin= 8 ErrMin= 7.73D-03
 ErrMax= 7.73D-03  0.00D+00 EMaxC= 1.00D-01 BMatC= 8.78D-02 BMatP= 1.57D-01
 IDIUse=3 WtCom= 9.23D-01 WtEn= 7.73D-02
 EnCoef did     4 forward-backward iterations
 Coeff-Com: -0.129D+00 0.180D+00-0.426D-01-0.860D-02 0.121D+00 0.110D-01
 Coeff-Com:  0.389D+00 0.481D+00
 Coeff-En:   0.000D+00 0.000D+00 0.000D+00 0.105D-01 0.217D+00 0.000D+00
 Coeff-En:   0.000D+00 0.772D+00
 Coeff:     -0.119D+00 0.166D+00-0.393D-01-0.712D-02 0.128D+00 0.102D-01
 Coeff:      0.359D+00 0.503D+00
 Gap=     0.028 Goal=   None    Shift=    0.000
 Gap=     0.028 Goal=   None    Shift=    0.000
 RMSDP=5.59D-03 MaxDP=5.50D-01 DE=-1.70D-02 OVMax= 7.76D-02

 Cycle   9  Pass 1  IDiag  1:
 RMSU=  1.58D-03    CP:  1.19D+00  4.70D-03  1.59D-01 -2.61D-03  8.06D-03
                    CP:  1.98D+00  2.27D+00  1.44D+00
 E= -803.430248577906     Delta-E=       -0.015041020298 Rises=F Damp=F
 DIIS: error= 6.99D-03 at cycle   9 NSaved=   9.
 NSaved= 9 IEnMin= 9 EnMin= -803.430248577906     IErMin= 9 ErrMin= 6.99D-03
 ErrMax= 6.99D-03  0.00D+00 EMaxC= 1.00D-01 BMatC= 4.92D-02 BMatP= 8.78D-02
 IDIUse=3 WtCom= 9.30D-01 WtEn= 6.99D-02
 Coeff-Com: -0.468D-01 0.752D-01-0.318D-01 0.131D-01 0.410D-01-0.259D+00
 Coeff-Com: -0.787D-01 0.521D+00 0.766D+00
 Coeff-En:   0.000D+00 0.000D+00 0.000D+00 0.000D+00 0.177D+00 0.000D+00
 Coeff-En:   0.000D+00 0.000D+00 0.823D+00
 Coeff:     -0.435D-01 0.700D-01-0.296D-01 0.122D-01 0.505D-01-0.241D+00
 Coeff:     -0.732D-01 0.485D+00 0.770D+00
 Gap=     0.015 Goal=   None    Shift=    0.000
 Gap=     0.015 Goal=   None    Shift=    0.000
 RMSDP=5.88D-01 MaxDP=4.57D+01 DE=-1.50D-02 OVMax= 9.98D-01

 Cycle  10  Pass 1  IDiag  1:
 RMSU=  1.10D-01    CP:  3.00D+00  1.61D-01  3.00D+00  1.56D-01  1.46D+00
                    CP: -2.02D+00 -3.00D+00 -3.00D+00 -3.00D+00
 E= -803.190995476618     Delta-E=        0.239253101289 Rises=F Damp=F
 DIIS: error= 1.49D-02 at cycle  10 NSaved=  10.
 NSaved=10 IEnMin= 9 EnMin= -803.430248577906     IErMin= 9 ErrMin= 6.99D-03
 ErrMax= 1.49D-02  0.00D+00 EMaxC= 1.00D-01 BMatC= 3.02D-01 BMatP= 4.92D-02
 IDIUse=2 WtCom= 0.00D+00 WtEn= 1.00D+00
 Coeff-En:   0.000D+00 0.000D+00 0.000D+00 0.000D+00 0.000D+00 0.000D+00
 Coeff-En:   0.000D+00 0.000D+00 0.789D+00 0.211D+00
 Coeff:      0.000D+00 0.000D+00 0.000D+00 0.000D+00 0.000D+00 0.000D+00
 Coeff:      0.000D+00 0.000D+00 0.789D+00 0.211D+00
 Gap=    -0.013 Goal=   None    Shift=    0.000
 Gap=    -0.013 Goal=   None    Shift=    0.000
 RMSDP=5.83D-01 MaxDP=4.57D+01 DE= 2.39D-01 OVMax= 9.96D-01

 Cycle  11  Pass 1  IDiag  1:
 RMSU=  5.88D-03    CP:  1.27D+00  7.61D-03  1.59D-01 -2.83D-03  1.67D-02
                    CP:  2.76D+00  3.00D+00  3.00D+00  1.87D+00  6.18D-03
 E= -803.432404138397     Delta-E=       -0.241408661779 Rises=F Damp=F
 DIIS: error= 6.80D-03 at cycle  11 NSaved=  11.
 NSaved=11 IEnMin=11 EnMin= -803.432404138397     IErMin=11 ErrMin= 6.80D-03
 ErrMax= 6.80D-03  0.00D+00 EMaxC= 1.00D-01 BMatC= 5.29D-02 BMatP= 4.92D-02
 IDIUse=3 WtCom= 9.32D-01 WtEn= 6.80D-02
 EnCoef did     8 forward-backward iterations
 Coeff-Com: -0.108D-01 0.238D-01-0.179D-01-0.111D-01-0.284D-01-0.169D+00
 Coeff-Com: -0.295D-01 0.110D+00 0.744D+00 0.145D+00 0.244D+00
 Coeff-En:   0.000D+00 0.000D+00 0.000D+00 0.000D+00 0.000D+00 0.000D+00
 Coeff-En:   0.000D+00 0.000D+00 0.568D+00 0.191D+00 0.241D+00
 Coeff:     -0.101D-01 0.222D-01-0.167D-01-0.103D-01-0.264D-01-0.158D+00
 Coeff:     -0.275D-01 0.102D+00 0.732D+00 0.148D+00 0.244D+00
 Gap=     0.013 Goal=   None    Shift=    0.000
 Gap=     0.013 Goal=   None    Shift=    0.000
 RMSDP=1.46D-02 MaxDP=1.35D+00 DE=-2.41D-01 OVMax= 8.40D-02

 Cycle  12  Pass 1  IDiag  1:
 RMSU=  6.15D-03    CP:  1.38D+00  1.32D-02  3.41D-01 -2.73D-03  3.28D-02
                    CP:  2.87D+00  3.00D+00  3.00D+00  3.00D+00 -9.20D-03
                    CP:  1.56D+00
 E= -803.445204367523     Delta-E=       -0.012800229126 Rises=F Damp=F
 DIIS: error= 1.94D-03 at cycle  12 NSaved=  12.
 NSaved=12 IEnMin=12 EnMin= -803.445204367523     IErMin=12 ErrMin= 1.94D-03
 ErrMax= 1.94D-03  0.00D+00 EMaxC= 1.00D-01 BMatC= 5.97D-03 BMatP= 4.92D-02
 IDIUse=3 WtCom= 9.81D-01 WtEn= 1.94D-02
 Coeff-Com:  0.792D-02-0.555D-02 0.711D-02-0.196D-02-0.173D-01-0.762D-01
 Coeff-Com: -0.107D+00-0.285D-01-0.223D-01 0.606D-01-0.418D-01 0.123D+01
 Coeff-En:   0.000D+00 0.000D+00 0.000D+00 0.000D+00 0.000D+00 0.000D+00
 Coeff-En:   0.000D+00 0.000D+00 0.000D+00 0.140D+00 0.000D+00 0.860D+00
 Coeff:      0.777D-02-0.544D-02 0.697D-02-0.192D-02-0.170D-01-0.747D-01
 Coeff:     -0.105D+00-0.279D-01-0.219D-01 0.621D-01-0.410D-01 0.122D+01
 Gap=    -0.013 Goal=   None    Shift=    0.000
 Gap=    -0.013 Goal=   None    Shift=    0.000
 RMSDP=7.53D-01 MaxDP=4.72D+01 DE=-1.28D-02 OVMax= 9.95D-01

 Cycle  13  Pass 1  IDiag  1:
 RMSU=  1.18D-01    CP:  3.00D+00  2.83D-01  3.00D+00  1.40D-01  1.76D+00
                    CP:  3.11D-01 -2.84D+00  2.88D+00 -3.00D+00  6.00D-01
                    CP:  4.26D-01  2.11D+00
 E= -803.166760222609     Delta-E=        0.278444144913 Rises=F Damp=F
 DIIS: error= 1.59D-02 at cycle  13 NSaved=  13.
 NSaved=13 IEnMin=12 EnMin= -803.445204367523     IErMin=12 ErrMin= 1.94D-03
 ErrMax= 1.59D-02  0.00D+00 EMaxC= 1.00D-01 BMatC= 3.49D-01 BMatP= 5.97D-03
 IDIUse=2 WtCom= 0.00D+00 WtEn= 1.00D+00
 Coeff-En:   0.000D+00 0.000D+00 0.000D+00 0.000D+00 0.000D+00 0.000D+00
 Coeff-En:   0.000D+00 0.000D+00 0.000D+00 0.000D+00 0.000D+00 0.864D+00
 Coeff-En:   0.136D+00
 Coeff:      0.000D+00 0.000D+00 0.000D+00 0.000D+00 0.000D+00 0.000D+00
 Coeff:      0.000D+00 0.000D+00 0.000D+00 0.000D+00 0.000D+00 0.864D+00
 Coeff:      0.136D+00
 Gap=    -0.010 Goal=   None    Shift=    0.000
 Gap=    -0.010 Goal=   None    Shift=    0.000
 RMSDP=7.48D-01 MaxDP=4.70D+01 DE= 2.78D-01 OVMax= 9.92D-01

 Cycle  14  Pass 1  IDiag  1:
 RMSU=  1.80D-03    CP:  1.42D+00  1.47D-02  4.24D-01 -1.32D-03  4.54D-02
                    CP:  2.88D+00  3.00D+00  3.00D+00  3.00D+00 -6.38D-03
                    CP:  1.82D+00  1.26D+00  4.26D-05
 E= -803.443190620201     Delta-E=       -0.276430397592 Rises=F Damp=F
 DIIS: error= 3.51D-03 at cycle  14 NSaved=  14.
 NSaved=14 IEnMin=12 EnMin= -803.445204367523     IErMin=12 ErrMin= 1.94D-03
 ErrMax= 3.51D-03  0.00D+00 EMaxC= 1.00D-01 BMatC= 1.20D-02 BMatP= 5.97D-03
 IDIUse=3 WtCom= 9.81D-01 WtEn= 1.94D-02
 EnCoef did   100 forward-backward iterations
 Coeff-Com:  0.837D-02-0.751D-02 0.597D-02-0.590D-02-0.225D-01-0.677D-01
 Coeff-Com: -0.871D-01-0.409D-01-0.439D-01-0.594D-01-0.300D-01 0.132D+01
 Coeff-Com:  0.123D+00-0.900D-01
 Coeff-En:   0.000D+00 0.000D+00 0.000D+00 0.000D+00 0.000D+00 0.000D+00
 Coeff-En:   0.000D+00 0.000D+00 0.000D+00 0.209D-01 0.000D+00 0.168D+00
 Coeff-En:   0.129D+00 0.682D+00
 Coeff:      0.821D-02-0.737D-02 0.585D-02-0.578D-02-0.221D-01-0.664D-01
 Coeff:     -0.854D-01-0.401D-01-0.431D-01-0.579D-01-0.295D-01 0.129D+01
 Coeff:      0.124D+00-0.750D-01
 Gap=    -0.013 Goal=   None    Shift=    0.000
 Gap=    -0.013 Goal=   None    Shift=    0.000
 RMSDP=7.14D-01 MaxDP=4.73D+01 DE=-2.76D-01 OVMax= 9.93D-01

 Cycle  15  Pass 1  IDiag  1:
 RMSU=  8.16D-03    CP:  3.00D+00  2.61D-01  3.00D+00  1.41D-01  1.71D+00
                    CP:  6.33D-02 -3.00D+00  2.68D+00 -3.00D+00  6.17D-01
                    CP:  2.14D-01  1.69D+00  8.99D-01 -9.43D-01
 E= -803.164951591247     Delta-E=        0.278239028954 Rises=F Damp=F
 DIIS: error= 1.61D-02 at cycle  15 NSaved=  15.
 NSaved=15 IEnMin=12 EnMin= -803.445204367523     IErMin=12 ErrMin= 1.94D-03
 ErrMax= 1.61D-02  0.00D+00 EMaxC= 1.00D-01 BMatC= 3.55D-01 BMatP= 5.97D-03
 IDIUse=2 WtCom= 0.00D+00 WtEn= 1.00D+00
 EnCoef did   100 forward-backward iterations
 Rare condition: small coef for last iteration:  0.000D+00
 Coeff-En:   0.000D+00 0.000D+00 0.000D+00 0.000D+00 0.000D+00 0.000D+00
 Coeff-En:   0.000D+00 0.000D+00 0.000D+00 0.180D-02 0.000D+00 0.912D-02
 Coeff-En:   0.284D-03 0.839D+00 0.150D+00
 Coeff:      0.000D+00 0.000D+00 0.000D+00 0.000D+00 0.000D+00 0.000D+00
 Coeff:      0.000D+00 0.000D+00 0.000D+00 0.180D-02 0.000D+00 0.912D-02
 Coeff:      0.284D-03 0.839D+00 0.150D+00
 Gap=    -0.009 Goal=   None    Shift=    0.000
 Gap=    -0.009 Goal=   None    Shift=    0.000
 RMSDP=7.06D-01 MaxDP=4.70D+01 DE= 2.78D-01 OVMax= 9.88D-01

 Cycle  16  Pass 1  IDiag  1:
 RMSU=  1.37D-03    CP:  1.47D+00  1.71D-02  5.43D-01  1.08D-03  6.48D-02
                    CP:  2.85D+00  3.00D+00  3.00D+00  3.00D+00  1.13D-03
                    CP:  2.32D+00  1.54D+00 -6.64D-03  2.16D+00 -3.95D-02
 E= -803.444553013696     Delta-E=       -0.279601422449 Rises=F Damp=F
 DIIS: error= 2.18D-03 at cycle  16 NSaved=  16.
 NSaved=16 IEnMin=12 EnMin= -803.445204367523     IErMin=12 ErrMin= 1.94D-03
 ErrMax= 2.18D-03  0.00D+00 EMaxC= 1.00D-01 BMatC= 1.04D-02 BMatP= 5.97D-03
 IDIUse=3 WtCom= 9.81D-01 WtEn= 1.94D-02
 EnCoef did   100 forward-backward iterations
 Coeff-Com:  0.755D-02-0.508D-02 0.594D-02-0.331D-02-0.223D-01-0.490D-01
 Coeff-Com: -0.735D-01-0.417D-01-0.104D+00-0.636D-02-0.470D-01 0.164D+01
 Coeff-Com:  0.197D+00-0.145D+00-0.130D+00-0.222D+00
 Coeff-En:   0.000D+00 0.000D+00 0.000D+00 0.000D+00 0.000D+00 0.000D+00
 Coeff-En:   0.000D+00 0.000D+00 0.000D+00 0.203D-03 0.000D+00 0.511D-02
 Coeff-En:   0.179D-01 0.492D+00 0.128D+00 0.356D+00
 Coeff:      0.741D-02-0.499D-02 0.583D-02-0.324D-02-0.219D-01-0.481D-01
 Coeff:     -0.720D-01-0.409D-01-0.102D+00-0.623D-02-0.461D-01 0.161D+01
 Coeff:      0.194D+00-0.133D+00-0.125D+00-0.211D+00
 Gap=    -0.013 Goal=   None    Shift=    0.000
 Gap=    -0.013 Goal=   None    Shift=    0.000
 RMSDP=6.78D-01 MaxDP=4.65D+01 DE=-2.80D-01 OVMax= 9.90D-01

 Cycle  17  Pass 1  IDiag  1:
 RMSU=  2.35D-03    CP:  3.00D+00  2.46D-01  3.00D+00  1.40D-01  1.66D+00
                    CP: -1.03D-01 -3.00D+00  2.17D+00 -3.00D+00  6.19D-01
                    CP:  2.31D-02  1.48D+00  7.94D-01 -1.24D+00  1.15D+00
                    CP:  1.09D-01
 E= -803.164670370420     Delta-E=        0.279882643276 Rises=F Damp=F
 DIIS: error= 1.60D-02 at cycle  17 NSaved=  17.
 NSaved=17 IEnMin=12 EnMin= -803.445204367523     IErMin=12 ErrMin= 1.94D-03
 ErrMax= 1.60D-02  0.00D+00 EMaxC= 1.00D-01 BMatC= 3.54D-01 BMatP= 5.97D-03
 IDIUse=2 WtCom= 0.00D+00 WtEn= 1.00D+00
 EnCoef did   100 forward-backward iterations
 Rare condition: small coef for last iteration: -0.178D-14
 Coeff-En:   0.000D+00 0.000D+00 0.000D+00 0.000D+00 0.000D+00 0.000D+00
 Coeff-En:   0.000D+00 0.000D+00 0.000D+00 0.000D+00 0.000D+00 0.294D-02
 Coeff-En:   0.995D-02 0.537D-01 0.305D-03 0.802D+00 0.131D+00
 Coeff:      0.000D+00 0.000D+00 0.000D+00 0.000D+00 0.000D+00 0.000D+00
 Coeff:      0.000D+00 0.000D+00 0.000D+00 0.000D+00 0.000D+00 0.294D-02
 Coeff:      0.995D-02 0.537D-01 0.305D-03 0.802D+00 0.131D+00
 Gap=    -0.008 Goal=   None    Shift=    0.000
 Gap=    -0.008 Goal=   None    Shift=    0.000
 RMSDP=6.60D-01 MaxDP=4.59D+01 DE= 2.80D-01 OVMax= 9.82D-01

 Cycle  18  Pass 1  IDiag  1:
 RMSU=  1.90D-03    CP:  1.62D+00  2.30D-02  7.58D-01  4.43D-03  1.03D-01
                    CP:  3.00D+00  3.00D+00  3.00D+00  3.00D+00 -5.87D-04
                    CP:  2.96D+00  2.31D+00 -1.00D-02  3.00D+00 -6.29D-03
                    CP:  9.40D-01  9.58D-02
 E= -803.442498903316     Delta-E=       -0.277828532896 Rises=F Damp=F
 DIIS: error= 5.70D-03 at cycle  18 NSaved=  18.
 NSaved=18 IEnMin=12 EnMin= -803.445204367523     IErMin=12 ErrMin= 1.94D-03
 ErrMax= 5.70D-03  0.00D+00 EMaxC= 1.00D-01 BMatC= 1.97D-02 BMatP= 5.97D-03
 IDIUse=3 WtCom= 9.81D-01 WtEn= 1.94D-02
 EnCoef did   100 forward-backward iterations
 Coeff-Com:  0.750D-02-0.548D-02 0.514D-02-0.138D-02-0.203D-01-0.539D-01
 Coeff-Com: -0.711D-01-0.413D-01-0.119D+00-0.776D-02-0.610D-01 0.171D+01
 Coeff-Com:  0.252D+00 0.929D-01-0.291D+00-0.359D+00 0.102D+00-0.137D+00
 Coeff-En:   0.000D+00 0.000D+00 0.000D+00 0.000D+00 0.000D+00 0.000D+00
 Coeff-En:   0.000D+00 0.000D+00 0.000D+00 0.000D+00 0.000D+00 0.192D-02
 Coeff-En:   0.348D-01 0.345D-02 0.769D-04 0.551D+00 0.108D+00 0.301D+00
 Coeff:      0.736D-02-0.537D-02 0.504D-02-0.136D-02-0.199D-01-0.529D-01
 Coeff:     -0.698D-01-0.405D-01-0.117D+00-0.761D-02-0.598D-01 0.168D+01
 Coeff:      0.248D+00 0.912D-01-0.285D+00-0.342D+00 0.102D+00-0.128D+00
 Gap=    -0.013 Goal=   None    Shift=    0.000
 Gap=    -0.013 Goal=   None    Shift=    0.000
 RMSDP=6.31D-01 MaxDP=4.53D+01 DE=-2.78D-01 OVMax= 9.85D-01

 Cycle  19  Pass 1  IDiag  1:
 RMSU=  6.79D-04    CP:  3.00D+00  2.30D-01  3.00D+00  1.38D-01  1.61D+00
                    CP: -2.29D-01 -3.00D+00  1.84D+00 -3.00D+00  6.10D-01
                    CP: -2.52D-01  1.27D+00  6.96D-01 -1.78D+00  1.44D+00
                    CP:  8.23D-02  2.17D+00  4.32D-02
 E= -803.162328579319     Delta-E=        0.280170323997 Rises=F Damp=F
 DIIS: error= 1.61D-02 at cycle  19 NSaved=  19.
 NSaved=19 IEnMin=12 EnMin= -803.445204367523     IErMin=12 ErrMin= 1.94D-03
 ErrMax= 1.61D-02  0.00D+00 EMaxC= 1.00D-01 BMatC= 3.58D-01 BMatP= 5.97D-03
 IDIUse=2 WtCom= 0.00D+00 WtEn= 1.00D+00
 EnCoef did   100 forward-backward iterations
 Rare condition: small coef for last iteration:  0.688D-15
 Coeff-En:   0.000D+00 0.000D+00 0.000D+00 0.000D+00 0.000D+00 0.000D+00
 Coeff-En:   0.000D+00 0.000D+00 0.000D+00 0.998D-02 0.000D+00 0.549D-01
 Coeff-En:   0.472D-02 0.249D-01 0.253D-01 0.162D+00 0.517D-03 0.611D+00
 Coeff-En:   0.107D+00
 Coeff:      0.000D+00 0.000D+00 0.000D+00 0.000D+00 0.000D+00 0.000D+00
 Coeff:      0.000D+00 0.000D+00 0.000D+00 0.998D-02 0.000D+00 0.549D-01
 Coeff:      0.472D-02 0.249D-01 0.253D-01 0.162D+00 0.517D-03 0.611D+00
 Coeff:      0.107D+00
 Gap=    -0.008 Goal=   None    Shift=    0.000
 Gap=    -0.008 Goal=   None    Shift=    0.000
 RMSDP=6.15D-01 MaxDP=4.47D+01 DE= 2.80D-01 OVMax= 9.78D-01

 Cycle  20  Pass 1  IDiag  1:
 RMSU=  4.92D-03    CP:  1.70D+00  2.84D-02  9.82D-01  8.85D-03  1.40D-01
                    CP:  2.89D+00  3.00D+00  3.00D+00  3.00D+00  5.02D-03
                    CP:  3.00D+00  2.72D+00 -2.20D-02  3.00D+00 -1.22D-01
                    CP:  2.18D+00  1.62D-01  1.49D+00 -9.66D-04
 E= -803.444067860454     Delta-E=       -0.281739281135 Rises=F Damp=F
 DIIS: error= 3.48D-03 at cycle  20 NSaved=  20.
 NSaved=20 IEnMin=12 EnMin= -803.445204367523     IErMin=12 ErrMin= 1.94D-03
 ErrMax= 3.48D-03  0.00D+00 EMaxC= 1.00D-01 BMatC= 2.19D-02 BMatP= 5.97D-03
 IDIUse=3 WtCom= 9.81D-01 WtEn= 1.94D-02
 EnCoef did   100 forward-backward iterations
 Coeff-Com:  0.669D-02-0.368D-02 0.396D-02-0.495D-02-0.131D-01-0.530D-01
 Coeff-Com: -0.663D-01-0.110D+00 0.793D-01-0.338D-01-0.116D-01 0.151D+01
 Coeff-Com: -0.663D-01-0.828D+00 0.107D+01-0.800D+00-0.541D+00 0.595D+00
 Coeff-Com: -0.377D+00 0.642D+00
 Coeff-En:   0.000D+00 0.000D+00 0.000D+00 0.000D+00 0.000D+00 0.000D+00
 Coeff-En:   0.000D+00 0.000D+00 0.000D+00 0.000D+00 0.000D+00 0.000D+00
 Coeff-En:   0.574D-01 0.181D-01 0.476D-03 0.147D-03 0.488D-01 0.464D+00
 Coeff-En:   0.326D-01 0.379D+00
 Coeff:      0.656D-02-0.361D-02 0.388D-02-0.486D-02-0.128D-01-0.520D-01
 Coeff:     -0.650D-01-0.108D+00 0.778D-01-0.331D-01-0.114D-01 0.148D+01
 Coeff:     -0.639D-01-0.811D+00 0.105D+01-0.785D+00-0.529D+00 0.593D+00
 Coeff:     -0.370D+00 0.637D+00
 Gap=    -0.011 Goal=   None    Shift=    0.000
 Gap=    -0.011 Goal=   None    Shift=    0.000
 RMSDP=7.93D-01 MaxDP=4.88D+01 DE=-2.82D-01 OVMax= 9.48D-01

 Cycle  21  Pass 1  IDiag  1:
 Restarting incremental Fock formation.
 E= -803.181192550094     Delta-E=        0.262875310359 Rises=F Damp=F
 DIIS: error= 1.52D-02 at cycle  21 NSaved=  20.
 NSaved=20 IEnMin=11 EnMin= -803.445204367523     IErMin=11 ErrMin= 1.94D-03
 ErrMax= 1.52D-02  0.00D+00 EMaxC= 1.00D-01 BMatC= 3.32D-01 BMatP= 5.97D-03
 IDIUse=2 WtCom= 0.00D+00 WtEn= 1.00D+00
 EnCoef did   100 forward-backward iterations
 Coeff-En:   0.000D+00 0.000D+00 0.000D+00 0.000D+00 0.000D+00 0.000D+00
 Coeff-En:   0.000D+00 0.000D+00 0.000D+00 0.000D+00 0.000D+00 0.807D-03
 Coeff-En:   0.238D-01 0.182D-03 0.194D-03 0.780D-03 0.456D+00 0.319D-03
 Coeff-En:   0.376D+00 0.142D+00
 Coeff:      0.000D+00 0.000D+00 0.000D+00 0.000D+00 0.000D+00 0.000D+00
 Coeff:      0.000D+00 0.000D+00 0.000D+00 0.000D+00 0.000D+00 0.807D-03
 Coeff:      0.238D-01 0.182D-03 0.194D-03 0.780D-03 0.456D+00 0.319D-03
 Coeff:      0.376D+00 0.142D+00
 Gap=    -0.006 Goal=   None    Shift=    0.000
 Gap=    -0.006 Goal=   None    Shift=    0.000
 RMSDP=7.50D-01 MaxDP=4.60D+01 DE= 2.63D-01 OVMax= 9.17D-01

 Cycle  22  Pass 1  IDiag  1:
 RMSU=  7.82D-02    CP:  1.70D-01
 E= -803.450549493912     Delta-E=       -0.269356943817 Rises=F Damp=F
 DIIS: error= 1.67D-03 at cycle  22 NSaved=  20.
 NSaved=20 IEnMin=20 EnMin= -803.450549493912     IErMin=20 ErrMin= 1.67D-03
 ErrMax= 1.67D-03  0.00D+00 EMaxC= 1.00D-01 BMatC= 4.78D-03 BMatP= 5.97D-03
 IDIUse=3 WtCom= 9.83D-01 WtEn= 1.67D-02
 Coeff-Com: -0.611D-04 0.317D-02-0.358D-03-0.958D-02-0.357D-01-0.957D-02
 Coeff-Com:  0.123D+00-0.163D+00 0.211D-01 0.417D-01 0.130D+01 0.317D+00
 Coeff-Com:  0.113D+01 0.362D+00-0.203D+01-0.133D+01-0.132D+01 0.489D+00
 Coeff-Com:  0.178D+00 0.194D+01
 Coeff-En:   0.000D+00 0.000D+00 0.000D+00 0.000D+00 0.000D+00 0.000D+00
 Coeff-En:   0.000D+00 0.000D+00 0.000D+00 0.000D+00 0.000D+00 0.000D+00
 Coeff-En:   0.000D+00 0.000D+00 0.000D+00 0.000D+00 0.000D+00 0.000D+00
 Coeff-En:   0.108D+00 0.892D+00
 Coeff:     -0.601D-04 0.312D-02-0.352D-03-0.942D-02-0.351D-01-0.941D-02
 Coeff:      0.121D+00-0.160D+00 0.208D-01 0.410D-01 0.127D+01 0.312D+00
 Coeff:      0.111D+01 0.356D+00-0.200D+01-0.131D+01-0.130D+01 0.481D+00
 Coeff:      0.177D+00 0.193D+01
 Gap=    -0.002 Goal=   None    Shift=    0.000
 Gap=    -0.002 Goal=   None    Shift=    0.000
 RMSDP=6.20D-01 MaxDP=4.27D+01 DE=-2.69D-01 OVMax= 7.84D-01

 Cycle  23  Pass 1  IDiag  1:
 RMSU=  6.38D-02    CP:  8.52D-01  1.27D-01
 E= -803.282593290972     Delta-E=        0.167956202939 Rises=F Damp=F
 DIIS: error= 1.16D-02 at cycle  23 NSaved=  20.
 NSaved=20 IEnMin=19 EnMin= -803.450549493912     IErMin=19 ErrMin= 1.67D-03
 ErrMax= 1.16D-02  0.00D+00 EMaxC= 1.00D-01 BMatC= 2.34D-01 BMatP= 4.78D-03
 IDIUse=2 WtCom= 0.00D+00 WtEn= 1.00D+00
 Coeff-En:   0.000D+00 0.000D+00 0.000D+00 0.000D+00 0.000D+00 0.000D+00
 Coeff-En:   0.000D+00 0.000D+00 0.000D+00 0.000D+00 0.000D+00 0.000D+00
 Coeff-En:   0.000D+00 0.000D+00 0.000D+00 0.000D+00 0.000D+00 0.000D+00
 Coeff-En:   0.862D+00 0.138D+00
 Coeff:      0.000D+00 0.000D+00 0.000D+00 0.000D+00 0.000D+00 0.000D+00
 Coeff:      0.000D+00 0.000D+00 0.000D+00 0.000D+00 0.000D+00 0.000D+00
 Coeff:      0.000D+00 0.000D+00 0.000D+00 0.000D+00 0.000D+00 0.000D+00
 Coeff:      0.862D+00 0.138D+00
 Gap=     0.001 Goal=   None    Shift=    0.000
 Gap=     0.001 Goal=   None    Shift=    0.000
 RMSDP=4.77D-01 MaxDP=3.56D+01 DE= 1.68D-01 OVMax= 6.54D-01

 Cycle  24  Pass 1  IDiag  1:
 RMSU=  1.96D-02    CP:  3.32D-01  1.03D+00  1.23D-01
 E= -803.456197476270     Delta-E=       -0.173604185297 Rises=F Damp=F
 DIIS: error= 1.69D-03 at cycle  24 NSaved=  20.
 NSaved=20 IEnMin=20 EnMin= -803.456197476270     IErMin=18 ErrMin= 1.67D-03
 ErrMax= 1.69D-03  0.00D+00 EMaxC= 1.00D-01 BMatC= 3.18D-03 BMatP= 4.78D-03
 IDIUse=3 WtCom= 9.83D-01 WtEn= 1.67D-02
 Coeff-Com: -0.522D-03-0.704D-02-0.294D-02 0.159D-01 0.868D-02-0.377D-01
 Coeff-Com: -0.415D-01 0.180D-01 0.267D+00 0.226D+00 0.428D-01-0.849D+00
 Coeff-Com: -0.588D+00-0.952D-01-0.312D+00 0.674D+00-0.312D-01 0.119D+01
 Coeff-Com:  0.190D+00 0.332D+00
 Coeff-En:   0.000D+00 0.000D+00 0.000D+00 0.000D+00 0.000D+00 0.000D+00
 Coeff-En:   0.000D+00 0.000D+00 0.000D+00 0.000D+00 0.000D+00 0.000D+00
 Coeff-En:   0.000D+00 0.000D+00 0.000D+00 0.000D+00 0.000D+00 0.000D+00
 Coeff-En:   0.101D-01 0.990D+00
 Coeff:     -0.513D-03-0.692D-02-0.289D-02 0.157D-01 0.854D-02-0.371D-01
 Coeff:     -0.408D-01 0.177D-01 0.263D+00 0.222D+00 0.421D-01-0.834D+00
 Coeff:     -0.579D+00-0.936D-01-0.307D+00 0.663D+00-0.307D-01 0.117D+01
 Coeff:      0.187D+00 0.343D+00
 Gap=     0.006 Goal=   None    Shift=    0.000
 Gap=     0.006 Goal=   None    Shift=    0.000
 RMSDP=4.95D-01 MaxDP=3.20D+01 DE=-1.74D-01 OVMax= 4.64D-01

 Cycle  25  Pass 1  IDiag  1:
 RMSU=  2.12D-02    CP:  8.81D-01  6.11D-01 -5.99D-02  1.98D+00
 E= -803.378620641300     Delta-E=        0.077576834970 Rises=F Damp=F
 DIIS: error= 7.77D-03 at cycle  25 NSaved=  20.
 NSaved=20 IEnMin=19 EnMin= -803.456197476270     IErMin=17 ErrMin= 1.67D-03
 ErrMax= 7.77D-03  0.00D+00 EMaxC= 1.00D-01 BMatC= 1.14D-01 BMatP= 3.18D-03
 IDIUse=3 WtCom= 9.83D-01 WtEn= 1.67D-02
 Coeff-Com: -0.777D-02-0.246D-03 0.135D-01 0.109D-01-0.367D-01-0.419D-01
 Coeff-Com:  0.156D-01 0.316D+00 0.113D+00 0.273D-01-0.700D+00-0.548D+00
 Coeff-Com:  0.165D+00-0.268D+00 0.454D+00-0.667D-01 0.107D+01 0.565D-01
 Coeff-Com:  0.299D+00 0.132D+00
 Coeff-En:   0.000D+00 0.000D+00 0.000D+00 0.000D+00 0.000D+00 0.000D+00
 Coeff-En:   0.000D+00 0.000D+00 0.000D+00 0.000D+00 0.000D+00 0.000D+00
 Coeff-En:   0.000D+00 0.000D+00 0.000D+00 0.000D+00 0.000D+00 0.000D+00
 Coeff-En:   0.969D+00 0.307D-01
 Coeff:     -0.764D-02-0.242D-03 0.133D-01 0.107D-01-0.361D-01-0.412D-01
 Coeff:      0.153D-01 0.311D+00 0.111D+00 0.269D-01-0.688D+00-0.539D+00
 Coeff:      0.162D+00-0.263D+00 0.447D+00-0.656D-01 0.105D+01 0.556D-01
 Coeff:      0.310D+00 0.131D+00
 Gap=     0.010 Goal=   None    Shift=    0.000
 Gap=     0.010 Goal=   None    Shift=    0.000
 RMSDP=5.92D-02 MaxDP=4.07D+00 DE= 7.76D-02 OVMax= 4.46D-02

 Cycle  26  Pass 1  IDiag  1:
 RMSU=  1.67D-03    CP:  8.17D-01  6.71D-01  9.89D-02  1.93D+00  6.82D-01
 E= -803.393508256320     Delta-E=       -0.014887615020 Rises=F Damp=F
 DIIS: error= 7.20D-03 at cycle  26 NSaved=  20.
 NSaved=20 IEnMin=18 EnMin= -803.456197476270     IErMin=16 ErrMin= 1.67D-03
 ErrMax= 7.20D-03  0.00D+00 EMaxC= 1.00D-01 BMatC= 9.45D-02 BMatP= 3.18D-03
 IDIUse=3 WtCom= 9.83D-01 WtEn= 1.67D-02
 Coeff-Com: -0.611D-02 0.809D-03 0.668D-02 0.103D-01-0.304D-01-0.289D-01
 Coeff-Com:  0.531D-02 0.212D+00 0.233D-01-0.293D-01-0.442D+00-0.319D+00
 Coeff-Com:  0.486D+00-0.134D+00-0.484D-01 0.843D+00-0.600D-01 0.269D+00
 Coeff-Com: -0.265D+00 0.507D+00
 Coeff-En:   0.000D+00 0.000D+00 0.000D+00 0.000D+00 0.000D+00 0.000D+00
 Coeff-En:   0.000D+00 0.000D+00 0.000D+00 0.000D+00 0.000D+00 0.000D+00
 Coeff-En:   0.000D+00 0.000D+00 0.000D+00 0.000D+00 0.000D+00 0.963D+00
 Coeff-En:   0.000D+00 0.369D-01
 Coeff:     -0.601D-02 0.796D-03 0.657D-02 0.101D-01-0.299D-01-0.285D-01
 Coeff:      0.522D-02 0.208D+00 0.229D-01-0.289D-01-0.435D+00-0.314D+00
 Coeff:      0.478D+00-0.132D+00-0.476D-01 0.829D+00-0.590D-01 0.280D+00
 Coeff:     -0.261D+00 0.499D+00
 Gap=     0.010 Goal=   None    Shift=    0.000
 Gap=     0.010 Goal=   None    Shift=    0.000
 RMSDP=3.57D-02 MaxDP=2.35D+00 DE=-1.49D-02 OVMax= 3.53D-02

 Cycle  27  Pass 1  IDiag  1:
 RMSU=  5.83D-04    CP:  7.78D-01  7.36D-01  1.33D-01  1.99D+00  4.83D-01
                    CP:  1.92D+00
 E= -803.404453551772     Delta-E=       -0.010945295452 Rises=F Damp=F
 DIIS: error= 6.65D-03 at cycle  27 NSaved=  20.
 NSaved=20 IEnMin=17 EnMin= -803.456197476270     IErMin=15 ErrMin= 1.67D-03
 ErrMax= 6.65D-03  0.00D+00 EMaxC= 1.00D-01 BMatC= 7.94D-02 BMatP= 3.18D-03
 IDIUse=3 WtCom= 9.83D-01 WtEn= 1.67D-02
 Coeff-Com: -0.388D-02-0.778D-02-0.123D-02 0.958D-02-0.393D-02-0.149D-01
 Coeff-Com:  0.452D-02 0.116D+00 0.358D-02 0.508D-01 0.724D-01-0.212D+00
 Coeff-Com: -0.125D+00-0.339D-01 0.722D+00-0.121D+00 0.244D+00-0.319D+00
 Coeff-Com:  0.308D+00 0.311D+00
 Coeff-En:   0.000D+00 0.000D+00 0.000D+00 0.000D+00 0.000D+00 0.000D+00
 Coeff-En:   0.000D+00 0.000D+00 0.000D+00 0.000D+00 0.000D+00 0.000D+00
 Coeff-En:   0.000D+00 0.000D+00 0.000D+00 0.000D+00 0.957D+00 0.000D+00
 Coeff-En:   0.000D+00 0.432D-01
 Coeff:     -0.381D-02-0.765D-02-0.121D-02 0.942D-02-0.386D-02-0.146D-01
 Coeff:      0.445D-02 0.114D+00 0.352D-02 0.500D-01 0.712D-01-0.209D+00
 Coeff:     -0.123D+00-0.333D-01 0.710D+00-0.119D+00 0.256D+00-0.314D+00
 Coeff:      0.303D+00 0.307D+00
 Gap=     0.010 Goal=   None    Shift=    0.000
 Gap=     0.010 Goal=   None    Shift=    0.000
 RMSDP=1.37D-02 MaxDP=1.00D+00 DE=-1.09D-02 OVMax= 7.71D-03

 Cycle  28  Pass 1  IDiag  1:
 RMSU=  2.70D-04    CP:  7.64D-01  7.55D-01  1.77D-01  1.98D+00  3.39D-01
                    CP:  2.65D+00  1.77D+00
 E= -803.406267221819     Delta-E=       -0.001813670047 Rises=F Damp=F
 DIIS: error= 6.58D-03 at cycle  28 NSaved=  20.
 NSaved=20 IEnMin=16 EnMin= -803.456197476270     IErMin=14 ErrMin= 1.67D-03
 ErrMax= 6.58D-03  0.00D+00 EMaxC= 1.00D-01 BMatC= 7.74D-02 BMatP= 3.18D-03
 IDIUse=3 WtCom= 9.83D-01 WtEn= 1.67D-02
 Coeff-Com: -0.383D-02-0.911D-02-0.132D-02 0.974D-02-0.484D-02-0.889D-02
 Coeff-Com:  0.510D-02 0.110D+00 0.639D-01 0.664D-01-0.215D+00-0.134D+00
 Coeff-Com: -0.279D-01 0.728D+00-0.110D+00 0.241D+00-0.314D+00 0.183D+00
 Coeff-Com:  0.529D+00-0.107D+00
 Coeff-En:   0.000D+00 0.000D+00 0.000D+00 0.000D+00 0.000D+00 0.000D+00
 Coeff-En:   0.000D+00 0.000D+00 0.000D+00 0.000D+00 0.000D+00 0.000D+00
 Coeff-En:   0.000D+00 0.000D+00 0.000D+00 0.956D+00 0.000D+00 0.000D+00
 Coeff-En:   0.000D+00 0.444D-01
 Coeff:     -0.377D-02-0.896D-02-0.130D-02 0.957D-02-0.475D-02-0.874D-02
 Coeff:      0.501D-02 0.108D+00 0.629D-01 0.653D-01-0.212D+00-0.132D+00
 Coeff:     -0.275D-01 0.716D+00-0.108D+00 0.253D+00-0.309D+00 0.180D+00
 Coeff:      0.520D+00-0.104D+00
 Gap=     0.010 Goal=   None    Shift=    0.000
 Gap=     0.010 Goal=   None    Shift=    0.000
 RMSDP=2.65D-03 MaxDP=1.98D-01 DE=-1.81D-03 OVMax= 2.02D-03

 Cycle  29  Pass 1  IDiag  1:
 RMSU=  1.56D-04    CP:  7.61D-01  7.57D-01  1.86D-01  1.97D+00  3.26D-01
                    CP:  2.78D+00  1.94D+00  1.42D+00
 E= -803.406861087011     Delta-E=       -0.000593865192 Rises=F Damp=F
 DIIS: error= 6.54D-03 at cycle  29 NSaved=  20.
 NSaved=20 IEnMin=15 EnMin= -803.456197476270     IErMin=13 ErrMin= 1.67D-03
 ErrMax= 6.54D-03  0.00D+00 EMaxC= 1.00D-01 BMatC= 7.65D-02 BMatP= 3.18D-03
 IDIUse=3 WtCom= 9.83D-01 WtEn= 1.67D-02
 Coeff-Com: -0.245D-02-0.490D-02 0.330D-02-0.168D-02 0.267D-02-0.521D-02
 Coeff-Com:  0.624D-02 0.107D+00 0.266D-01-0.171D+00-0.938D-01 0.673D-01
 Coeff-Com:  0.645D+00-0.143D+00 0.250D+00-0.588D+00 0.531D+00 0.145D+01
 Coeff-Com: -0.606D+01 0.498D+01
 Coeff-En:   0.000D+00 0.000D+00 0.000D+00 0.000D+00 0.000D+00 0.000D+00
 Coeff-En:   0.000D+00 0.000D+00 0.000D+00 0.000D+00 0.000D+00 0.000D+00
 Coeff-En:   0.000D+00 0.000D+00 0.955D+00 0.000D+00 0.000D+00 0.000D+00
 Coeff-En:   0.000D+00 0.448D-01
 Coeff:     -0.241D-02-0.482D-02 0.324D-02-0.165D-02 0.263D-02-0.512D-02
 Coeff:      0.614D-02 0.105D+00 0.262D-01-0.168D+00-0.922D-01 0.662D-01
 Coeff:      0.635D+00-0.140D+00 0.262D+00-0.578D+00 0.522D+00 0.143D+01
 Coeff:     -0.596D+01 0.489D+01
 Gap=     0.010 Goal=   None    Shift=    0.000
 Gap=     0.010 Goal=   None    Shift=    0.000
 RMSDP=5.55D-02 MaxDP=3.56D+00 DE=-5.94D-04 OVMax= 5.25D-02

 Cycle  30  Pass 1  IDiag  1:
 RMSU=  3.02D-04    CP:  6.99D-01  8.04D-01  2.40D-01  1.89D+00  2.53D-01
                    CP:  2.53D+00  1.07D+00  6.57D-01  7.19D-01
 E= -803.421170375377     Delta-E=       -0.014309288366 Rises=F Damp=F
 DIIS: error= 5.59D-03 at cycle  30 NSaved=  20.
 NSaved=20 IEnMin=14 EnMin= -803.456197476270     IErMin=12 ErrMin= 1.67D-03
 ErrMax= 5.59D-03  0.00D+00 EMaxC= 1.00D-01 BMatC= 5.57D-02 BMatP= 3.18D-03
 IDIUse=3 WtCom= 9.83D-01 WtEn= 1.67D-02
 Large coefficients: NSaved= 20 BigCof=   12.63 CofMax=   10.00 Det=-2.85D-08
 Inversion failed.  Reducing to 19 matrices.
 EnCoef did    10 forward-backward iterations
 Coeff-Com: -0.469D-02-0.365D-02 0.166D-01-0.109D-01 0.182D-01-0.340D-02
 Coeff-Com: -0.450D-01-0.495D-01-0.118D-01 0.861D-02 0.591D+00-0.473D-01
 Coeff-Com:  0.216D+00-0.439D+00 0.158D+01 0.308D+00-0.935D+01 0.688D+01
 Coeff-Com:  0.135D+01
 Coeff-En:   0.000D+00 0.000D+00 0.000D+00 0.000D+00 0.000D+00 0.000D+00
 Coeff-En:   0.000D+00 0.000D+00 0.000D+00 0.000D+00 0.313D-02 0.000D+00
 Coeff-En:   0.937D+00 0.000D+00 0.000D+00 0.000D+00 0.000D+00 0.000D+00
 Coeff-En:   0.595D-01
 Coeff:     -0.461D-02-0.359D-02 0.163D-01-0.107D-01 0.179D-01-0.334D-02
 Coeff:     -0.443D-01-0.487D-01-0.116D-01 0.847D-02 0.581D+00-0.465D-01
 Coeff:      0.228D+00-0.432D+00 0.155D+01 0.303D+00-0.920D+01 0.677D+01
 Coeff:      0.133D+01
 Gap=     0.010 Goal=   None    Shift=    0.000
 Gap=     0.010 Goal=   None    Shift=    0.000
 RMSDP=4.69D-02 MaxDP=3.02D+00 DE=-1.43D-02 OVMax= 5.80D-02

 Cycle  31  Pass 1  IDiag  1:
 RMSU=  4.24D-04    CP:  6.48D-01  8.55D-01  1.92D-01  1.85D+00  3.29D-01
                    CP:  1.96D+00  3.93D-01 -7.11D-01  3.00D+00  1.74D+00
 E= -803.434665553162     Delta-E=       -0.013495177785 Rises=F Damp=F
 DIIS: error= 4.36D-03 at cycle  31 NSaved=  20.
 NSaved=20 IEnMin=13 EnMin= -803.456197476270     IErMin=11 ErrMin= 1.67D-03
 ErrMax= 4.36D-03  0.00D+00 EMaxC= 1.00D-01 BMatC= 3.47D-02 BMatP= 3.18D-03
 IDIUse=3 WtCom= 9.83D-01 WtEn= 1.67D-02
 EnCoef did    13 forward-backward iterations
 Coeff-Com:  0.284D-03 0.764D-02 0.127D-01-0.262D-01 0.633D-02 0.323D-02
 Coeff-Com:  0.594D-01 0.490D-02-0.213D-02 0.128D-01 0.338D+00 0.464D-01
 Coeff-Com:  0.107D+00 0.489D+00 0.193D-01-0.336D-01-0.953D+01 0.724D+01
 Coeff-Com:  0.145D+01 0.799D+00
 Coeff-En:   0.000D+00 0.000D+00 0.000D+00 0.000D+00 0.000D+00 0.000D+00
 Coeff-En:   0.000D+00 0.000D+00 0.000D+00 0.000D+00 0.482D-01 0.000D+00
 Coeff-En:   0.852D+00 0.000D+00 0.000D+00 0.000D+00 0.000D+00 0.000D+00
 Coeff-En:   0.000D+00 0.996D-01
 Coeff:      0.279D-03 0.751D-02 0.125D-01-0.258D-01 0.622D-02 0.318D-02
 Coeff:      0.584D-01 0.482D-02-0.209D-02 0.126D-01 0.333D+00 0.456D-01
 Coeff:      0.119D+00 0.481D+00 0.190D-01-0.331D-01-0.937D+01 0.712D+01
 Coeff:      0.142D+01 0.788D+00
 Gap=     0.010 Goal=   None    Shift=    0.000
 Gap=     0.010 Goal=   None    Shift=    0.000
 RMSDP=1.17D-01 MaxDP=7.73D+00 DE=-1.35D-02 OVMax= 9.68D-02

 Cycle  32  Pass 1  IDiag  1:
 RMSU=  7.49D-04    CP:  5.18D-01  9.11D-01  3.13D-01  1.49D+00  7.20D-02
                    CP:  1.92D+00 -4.26D-01 -1.48D-01  4.93D-01  3.00D+00
                    CP:  8.97D-01
 E= -803.449265691623     Delta-E=       -0.014600138461 Rises=F Damp=F
 DIIS: error= 2.56D-03 at cycle  32 NSaved=  20.
 NSaved=20 IEnMin=12 EnMin= -803.456197476270     IErMin=10 ErrMin= 1.67D-03
 ErrMax= 2.56D-03  0.00D+00 EMaxC= 1.00D-01 BMatC= 1.30D-02 BMatP= 3.18D-03
 IDIUse=3 WtCom= 9.83D-01 WtEn= 1.67D-02
 EnCoef did    10 forward-backward iterations
 Coeff-Com:  0.580D-02 0.112D-01-0.147D-02-0.211D-01 0.403D-02 0.532D-01
 Coeff-Com:  0.700D-02 0.105D+00 0.694D-01 0.598D-01 0.668D-01 0.459D-01
 Coeff-Com:  0.920D+00-0.593D+00-0.368D+00-0.801D+01 0.641D+01 0.989D+00
 Coeff-Com:  0.666D+00 0.581D+00
 Coeff-En:   0.000D+00 0.000D+00 0.000D+00 0.000D+00 0.000D+00 0.000D+00
 Coeff-En:   0.000D+00 0.000D+00 0.000D+00 0.954D-01 0.000D+00 0.689D+00
 Coeff-En:   0.000D+00 0.000D+00 0.000D+00 0.000D+00 0.000D+00 0.000D+00
 Coeff-En:   0.000D+00 0.216D+00
 Coeff:      0.571D-02 0.110D-01-0.144D-02-0.208D-01 0.397D-02 0.523D-01
 Coeff:      0.688D-02 0.103D+00 0.683D-01 0.604D-01 0.657D-01 0.566D-01
 Coeff:      0.905D+00-0.583D+00-0.362D+00-0.787D+01 0.630D+01 0.973D+00
 Coeff:      0.655D+00 0.574D+00
 Gap=     0.011 Goal=   None    Shift=    0.000
 Gap=     0.011 Goal=   None    Shift=    0.000
 RMSDP=7.16D-02 MaxDP=4.67D+00 DE=-1.46D-02 OVMax= 6.57D-02

 Cycle  33  Pass 1  IDiag  1:
 RMSU=  2.38D-04    CP:  4.39D-01  9.35D-01  3.38D-01  1.21D+00 -2.07D-02
                    CP:  1.78D+00 -5.87D-01  8.00D-01  4.22D-01  3.00D+00
                    CP:  1.20D+00  1.83D+00
 E= -803.454816102915     Delta-E=       -0.005550411292 Rises=F Damp=F
 DIIS: error= 1.53D-03 at cycle  33 NSaved=  20.
 NSaved=20 IEnMin=11 EnMin= -803.456197476270     IErMin=20 ErrMin= 1.53D-03
 ErrMax= 1.53D-03  0.00D+00 EMaxC= 1.00D-01 BMatC= 4.37D-03 BMatP= 3.18D-03
 IDIUse=3 WtCom= 9.83D-01 WtEn= 1.67D-02
 EnCoef did     8 forward-backward iterations
 Coeff-Com:  0.418D-02 0.334D-02-0.221D-01 0.142D-01 0.314D-03-0.666D-01
 Coeff-Com: -0.752D-02 0.335D+00 0.173D+00-0.440D+00-0.512D-01 0.684D+00
 Coeff-Com: -0.452D+00 0.226D+00-0.416D+01 0.355D+01-0.180D+00-0.879D-01
 Coeff-Com: -0.214D+00 0.169D+01
 Coeff-En:   0.000D+00 0.000D+00 0.000D+00 0.000D+00 0.000D+00 0.000D+00
 Coeff-En:   0.000D+00 0.000D+00 0.000D+00 0.884D-01 0.517D+00 0.000D+00
 Coeff-En:   0.000D+00 0.000D+00 0.000D+00 0.000D+00 0.000D+00 0.000D+00
 Coeff-En:   0.000D+00 0.394D+00
 Coeff:      0.411D-02 0.329D-02-0.218D-01 0.140D-01 0.309D-03-0.655D-01
 Coeff:     -0.739D-02 0.329D+00 0.170D+00-0.432D+00-0.417D-01 0.673D+00
 Coeff:     -0.444D+00 0.222D+00-0.409D+01 0.349D+01-0.177D+00-0.864D-01
 Coeff:     -0.210D+00 0.167D+01
 Gap=     0.012 Goal=   None    Shift=    0.000
 Gap=     0.012 Goal=   None    Shift=    0.000
 RMSDP=5.61D-02 MaxDP=3.70D+00 DE=-5.55D-03 OVMax= 5.28D-02

 Cycle  34  Pass 1  IDiag  1:
 RMSU=  3.03D-04    CP:  3.77D-01  9.31D-01  3.62D-01  9.16D-01 -7.14D-02
                    CP:  1.72D+00 -7.00D-01  1.55D+00  1.43D+00  3.00D+00
                    CP:  1.85D+00  3.00D+00  2.49D+00
 E= -803.457003071875     Delta-E=       -0.002186968960 Rises=F Damp=F
 DIIS: error= 6.34D-04 at cycle  34 NSaved=  20.
 NSaved=20 IEnMin=20 EnMin= -803.457003071875     IErMin=20 ErrMin= 6.34D-04
 ErrMax= 6.34D-04  0.00D+00 EMaxC= 1.00D-01 BMatC= 7.09D-04 BMatP= 3.18D-03
 IDIUse=3 WtCom= 9.94D-01 WtEn= 6.34D-03
 Coeff-Com:  0.115D-02-0.106D-01 0.117D-01 0.157D-02-0.282D-01 0.976D-02
 Coeff-Com:  0.200D+00 0.973D-01-0.313D+00-0.564D-01 0.264D+00-0.888D-01
 Coeff-Com:  0.600D+00-0.334D+01 0.242D+01 0.810D-01-0.408D-01-0.482D+00
 Coeff-Com:  0.797D+00 0.875D+00
 Coeff-En:   0.000D+00 0.000D+00 0.000D+00 0.000D+00 0.000D+00 0.000D+00
 Coeff-En:   0.000D+00 0.000D+00 0.000D+00 0.239D+00 0.000D+00 0.000D+00
 Coeff-En:   0.000D+00 0.000D+00 0.000D+00 0.000D+00 0.000D+00 0.000D+00
 Coeff-En:   0.000D+00 0.761D+00
 Coeff:      0.114D-02-0.106D-01 0.116D-01 0.156D-02-0.280D-01 0.970D-02
 Coeff:      0.199D+00 0.967D-01-0.311D+00-0.546D-01 0.262D+00-0.883D-01
 Coeff:      0.596D+00-0.332D+01 0.240D+01 0.805D-01-0.405D-01-0.479D+00
 Coeff:      0.792D+00 0.874D+00
 Gap=     0.012 Goal=   None    Shift=    0.000
 Gap=     0.012 Goal=   None    Shift=    0.000
 RMSDP=4.17D-03 MaxDP=4.09D-01 DE=-2.19D-03 OVMax= 6.22D-03

 Cycle  35  Pass 1  IDiag  1:
 RMSU=  4.34D-04    CP:  3.80D-01  9.13D-01  3.85D-01  8.84D-01 -3.46D-02
                    CP:  1.51D+00 -1.19D+00  7.79D-01  2.44D+00  3.00D+00
                    CP:  1.99D+00  3.00D+00  2.97D+00  2.32D+00
 E= -803.456965544844     Delta-E=        0.000037527031 Rises=F Damp=F
 DIIS: error= 6.18D-04 at cycle  35 NSaved=  20.
 NSaved=20 IEnMin=19 EnMin= -803.457003071875     IErMin=20 ErrMin= 6.18D-04
 ErrMax= 6.18D-04  0.00D+00 EMaxC= 1.00D-01 BMatC= 7.20D-04 BMatP= 7.09D-04
 IDIUse=3 WtCom= 9.94D-01 WtEn= 6.18D-03
 Rare condition: small coef for last iteration:  0.000D+00
 Coeff-Com:  0.106D-02-0.153D-02 0.263D-02 0.971D-03-0.105D-01 0.157D-01
 Coeff-Com:  0.510D-01 0.213D-01-0.977D-01-0.402D-01-0.762D-01 0.616D+00
 Coeff-Com: -0.119D+01 0.590D+00 0.168D+00 0.348D-01-0.464D+00-0.289D+00
 Coeff-Com:  0.680D+00 0.988D+00
 Coeff-En:   0.000D+00 0.000D+00 0.000D+00 0.000D+00 0.000D+00 0.000D+00
 Coeff-En:   0.000D+00 0.000D+00 0.427D-02 0.258D+00 0.000D+00 0.000D+00
 Coeff-En:   0.000D+00 0.000D+00 0.000D+00 0.000D+00 0.000D+00 0.000D+00
 Coeff-En:   0.000D+00 0.738D+00
 Coeff:      0.106D-02-0.153D-02 0.263D-02 0.971D-03-0.105D-01 0.157D-01
 Coeff:      0.510D-01 0.213D-01-0.977D-01-0.402D-01-0.762D-01 0.616D+00
 Coeff:     -0.119D+01 0.590D+00 0.168D+00 0.348D-01-0.464D+00-0.289D+00
 Coeff:      0.680D+00 0.988D+00
 Gap=     0.013 Goal=   None    Shift=    0.000
 Gap=     0.013 Goal=   None    Shift=    0.000
 RMSDP=7.45D-03 MaxDP=6.88D-01 DE= 3.75D-05 OVMax= 1.02D-02

 Cycle  36  Pass 1  IDiag  1:
 RMSU=  1.24D-03    CP:  3.73D-01  8.96D-01  3.90D-01  8.11D-01  2.25D-02
                    CP:  1.13D+00 -1.96D+00 -7.12D-01  3.00D+00  3.00D+00
                    CP:  2.37D+00  3.00D+00  3.00D+00  3.00D+00  3.00D+00
 E= -803.457198271995     Delta-E=       -0.000232727151 Rises=F Damp=F
 DIIS: error= 3.80D-04 at cycle  36 NSaved=  20.
 NSaved=20 IEnMin=20 EnMin= -803.457198271995     IErMin=20 ErrMin= 3.80D-04
 ErrMax= 3.80D-04  0.00D+00 EMaxC= 1.00D-01 BMatC= 2.69D-04 BMatP= 7.09D-04
 IDIUse=3 WtCom= 9.96D-01 WtEn= 3.80D-03
 Coeff-Com:  0.141D-02 0.110D-02-0.939D-03 0.110D-02-0.124D-01 0.201D-01
 Coeff-Com:  0.115D-01-0.146D-03-0.855D-02-0.180D-01 0.153D+00-0.331D+00
 Coeff-Com:  0.153D+00 0.540D-01 0.385D-01-0.222D+00-0.232D+00 0.191D+00
 Coeff-Com:  0.425D+00 0.775D+00
 Coeff-En:   0.000D+00 0.000D+00 0.000D+00 0.000D+00 0.000D+00 0.000D+00
 Coeff-En:   0.000D+00 0.000D+00 0.000D+00 0.846D-01 0.000D+00 0.000D+00
 Coeff-En:   0.000D+00 0.000D+00 0.000D+00 0.000D+00 0.000D+00 0.000D+00
 Coeff-En:   0.000D+00 0.915D+00
 Coeff:      0.141D-02 0.110D-02-0.935D-03 0.110D-02-0.123D-01 0.200D-01
 Coeff:      0.115D-01-0.146D-03-0.851D-02-0.176D-01 0.153D+00-0.329D+00
 Coeff:      0.152D+00 0.538D-01 0.383D-01-0.221D+00-0.232D+00 0.191D+00
 Coeff:      0.423D+00 0.776D+00
 Gap=     0.013 Goal=   None    Shift=    0.000
 Gap=     0.013 Goal=   None    Shift=    0.000
 RMSDP=1.29D-02 MaxDP=1.00D+00 DE=-2.33D-04 OVMax= 1.92D-02

 Cycle  37  Pass 1  IDiag  1:
 RMSU=  2.05D-03    CP:  3.59D-01  8.97D-01  3.75D-01  7.58D-01  4.22D-02
                    CP:  8.97D-01 -2.37D+00 -1.56D+00  3.00D+00  3.00D+00
                    CP:  2.52D+00  3.00D+00  3.00D+00  3.00D+00  3.00D+00
                    CP:  3.00D+00
 E= -803.457350551422     Delta-E=       -0.000152279427 Rises=F Damp=F
 DIIS: error= 1.22D-04 at cycle  37 NSaved=  20.
 NSaved=20 IEnMin=20 EnMin= -803.457350551422     IErMin=20 ErrMin= 1.22D-04
 ErrMax= 1.22D-04  0.00D+00 EMaxC= 1.00D-01 BMatC= 2.48D-05 BMatP= 2.69D-04
 IDIUse=3 WtCom= 9.99D-01 WtEn= 1.22D-03
 Coeff-Com:  0.881D-03 0.199D-03 0.764D-04-0.146D-01 0.105D-01 0.223D-01
 Coeff-Com:  0.737D-02-0.190D-01-0.153D-01 0.135D+00-0.371D+00 0.221D+00
 Coeff-Com:  0.438D-01 0.184D-01-0.182D+00-0.154D+00 0.163D+00 0.285D+00
 Coeff-Com:  0.546D+00 0.301D+00
 Coeff-En:   0.000D+00 0.000D+00 0.000D+00 0.000D+00 0.000D+00 0.000D+00
 Coeff-En:   0.000D+00 0.000D+00 0.000D+00 0.000D+00 0.000D+00 0.000D+00
 Coeff-En:   0.000D+00 0.000D+00 0.000D+00 0.000D+00 0.000D+00 0.000D+00
 Coeff-En:   0.000D+00 0.100D+01
 Coeff:      0.880D-03 0.199D-03 0.763D-04-0.146D-01 0.105D-01 0.223D-01
 Coeff:      0.736D-02-0.190D-01-0.153D-01 0.135D+00-0.370D+00 0.221D+00
 Coeff:      0.438D-01 0.184D-01-0.182D+00-0.153D+00 0.163D+00 0.285D+00
 Coeff:      0.545D+00 0.301D+00
 Gap=     0.013 Goal=   None    Shift=    0.000
 Gap=     0.013 Goal=   None    Shift=    0.000
 RMSDP=3.67D-03 MaxDP=2.48D-01 DE=-1.52D-04 OVMax= 4.67D-03

[...]
 0.00040561,-0.00078668,0.00078748,-0.00093988,-0.00078588,0.00036823,0
 .00075996,0.00218477,0.00114574,-0.01052910,-0.00181336,0.00031273,0.0
 2686080,0.00313978,0.00390904,0.01512104,-0.00470619,0.05381375,0.0003
 7411,-0.00005860,-0.00003529,0.00134262,-0.00007636,0.00010056,0.00508
 817,0.00524788,-0.00364148,-0.19104067,-0.11232646,0.07654395,-0.01718
 488,-0.01945083,0.01393074,-0.00347596,0.00289727,-0.00264532,0.000224
 07,-0.00138162,0.00099574,-0.00010547,0.00008863,-0.00012111,-0.000959
 27,0.00011513,0.00001164,0.00018454,-0.00013761,0.00009395,-0.00014162
 ,-0.00012464,0.00007077,-0.00008008,0.00010808,-0.00007140,0.00009544,
 0.00001571,-0.00000080,-0.00019581,0.00005862,-0.00013784,0.00029581,-
 0.00003113,0.00000693,-0.00007478,0.00000566,0.00003230,-0.00036814,0.
 00066273,-0.00055941,0.00054199,0.00130460,-0.00074373,0.00000584,-0.0
 0002420,-0.00000588,-0.00001070,0.00000561,0.00005377,-0.00005138,-0.0
 0004564,0.00009711,0.20413830,0.00050663,-0.00011851,0.00006129,-0.000
 75174,0.00093314,-0.00228850,-0.02035688,-0.00947661,0.00767575,-0.110
 32309,-0.13627321,0.07768540,0.00517396,0.00590495,-0.00331371,0.00173
 075,0.00326951,0.00399695,-0.00026037,0.00053167,-0.00002724,0.0000639
 0,-0.00020576,0.00039544,-0.00011246,-0.00041335,-0.00045612,0.0000933
 8,0.00005827,0.00004755,-0.00004274,-0.00000528,0.00003643,-0.00001341
 ,0.00000968,-0.00001699,0.00001386,0.00003845,0.00000298,-0.00020189,0
 .00003477,0.00010877,-0.00007607,-0.00065109,0.00010626,-0.00041025,0.
 00036062,-0.00035466,0.00112001,0.00025565,-0.00066815,0.00270984,-0.0
 0239710,0.00406330,-0.00002026,0.00010988,-0.00000961,-0.00007521,0.00
 014354,-0.00023145,0.00009607,-0.00018297,-0.00005443,0.12228229,0.139
 60934,-0.00047788,-0.00008613,-0.00023069,0.00076434,-0.00204186,-0.00
 017831,0.01518868,0.00837763,-0.00465299,0.07531249,0.07794009,-0.0804
 8110,-0.00442507,-0.00451790,0.00401032,-0.00196686,0.00402548,0.00553
 453,0.00019069,-0.00006206,0.00057878,-0.00001784,0.00039461,0.0000693
 4,0.00011966,-0.00055505,-0.00070957,-0.00008470,0.00006197,0.00011630
 ,0.00004536,0.00002042,0.00002768,-0.00002201,-0.00000307,0.00000168,0
 .00003613,0.00001006,0.00001495,0.00000021,0.00011692,0.00013052,0.000
 14031,0.00007670,-0.00044874,0.00025748,-0.00027713,0.00008527,-0.0007
 1192,-0.00065833,-0.00038347,-0.00216243,0.00422786,-0.00027818,0.0000
 7299,-0.00025579,0.00015010,0.00000437,-0.00000535,0.00002446,0.000154
 48,-0.00007940,-0.00012066,-0.08361052,-0.08430214,0.07958507,-0.00043
 210,0.00000153,0.00012735,-0.00039890,0.00113878,-0.00102308,-0.004227
 32,-0.00054925,0.00011144,-0.00483666,0.02279451,-0.01758089,-0.076348
 56,0.05832139,-0.04534806,0.01175384,-0.01648746,0.01260191,-0.0008268
 5,-0.00298651,0.00233521,-0.00016517,0.00249743,-0.00182682,0.00143225
 ,0.00121746,-0.00090211,-0.00060238,0.00003577,-0.00007024,0.00018014,
 0.00034625,-0.00023721,-0.00004225,-0.00024872,0.00017260,0.00007667,0
 .00017342,-0.00012880,0.00017833,-0.00030903,0.00029916,0.00088364,-0.
 00079689,0.00061639,-0.00037566,-0.00021265,0.00013504,-0.00336827,-0.
 00195815,0.00125536,-0.00072311,-0.00032928,0.00006371,-0.00000782,0.0
 0004412,-0.00000228,0.00000489,-0.00000362,-0.00003856,-0.00001754,0.0
 0008808,-0.00011431,0.00127210,-0.00034192,0.00052378,0.07663378,0.000
 05788,-0.00002540,-0.00012946,-0.00004350,-0.00000534,0.00038096,0.000
 46687,0.00462155,0.00298044,-0.00103477,-0.00006432,0.00266626,0.05731
 888,-0.20790396,0.12999272,0.00484547,-0.01180709,0.01259171,0.0018910
 9,-0.00341013,0.00049822,0.00168834,0.00181750,-0.00193011,0.00019283,
 0.00026294,-0.00016187,-0.00013857,0.00000067,0.00004856,0.00004779,0.
 00009318,-0.00005147,-0.00010533,-0.00007686,0.00002019,0.00014806,0.0
 0013149,-0.00005911,-0.00026386,-0.00015461,0.00013831,0.00102738,-0.0
 0072633,0.00034294,-0.00038997,-0.00013605,0.00010103,-0.00314629,0.00
 110768,0.00278393,-0.00080118,-0.00007140,-0.00072490,0.00002340,-0.00
 002890,0.00003186,0.00000462,0.00001028,0.00000019,0.00001904,-0.00005
 273,-0.00000571,0.00060770,-0.00132145,-0.00296199,-0.06245573,0.21798
 995,-0.00005290,-0.00015816,0.00000244,-0.00012949,0.00042963,0.000223
 35,-0.00077211,0.00312600,0.00621646,0.00022271,0.00353817,0.00079748,
 -0.04452817,0.13015540,-0.13771884,-0.00369388,0.01175883,-0.00422661,
 -0.00116887,0.00034116,-0.00296238,-0.00120320,-0.00187584,0.00052961,
 -0.00003327,-0.00019707,0.00012068,0.00003868,0.00005440,0.00004635,0.
 00001075,-0.00005146,0.00005273,0.00005145,0.00003626,-0.00006870,-0.0
 0007960,-0.00004004,0.00009834,0.00009312,0.00012069,-0.00004240,-0.00
 068231,0.00007330,-0.00057923,0.00022932,0.00024042,-0.00005257,0.0022
 4548,0.00270583,0.00283645,0.00045337,-0.00068701,-0.00043267,0.000010
 83,-0.00001299,0.00002220,0.00000052,0.00002448,-0.00005725,0.00006609
 ,-0.00002478,-0.00006635,-0.00009816,-0.00300384,-0.00309622,0.0490303
 5,-0.14628394,0.13877774,0.00001353,-0.00002887,0.00003943,-0.00013930
 ,0.00003011,0.00003651,0.00000755,0.00018242,-0.00021073,0.00027284,-0
 .00019520,0.00015790,-0.00037832,-0.00024775,0.00016257,0.00173126,-0.
 00049244,0.00040880,-0.00221358,0.00368733,-0.00268603,0.00292829,-0.0
 0244782,0.00200545,-0.00359128,0.02508781,-0.01902698,-0.07228351,0.05
 166695,-0.03999454,0.00815909,-0.01767301,0.01331812,-0.00240624,-0.00
 234279,0.00129438,-0.00099789,-0.00031547,0.00022080,-0.00533326,-0.00
 080017,0.00001436,0.00051130,0.00144335,-0.00102053,-0.00067627,0.0000
 0728,-0.00003219,-0.00008897,0.00037840,-0.00026344,0.00010256,-0.0001
 4498,0.00016084,0.00000268,-0.00001186,-0.00000611,0.00001808,-0.00000
 396,-0.00002499,-0.00000828,-0.00000528,0.00000241,0.00001007,-0.00000
 788,0.00000846,-0.00012528,-0.00004072,0.00002629,0.07295150,0.0000582
 2,-0.00001375,0.00002613,-0.00011375,0.00002794,-0.00004158,0.00012995
 ,0.00009339,-0.00003416,0.00004451,-0.00005834,0.00002819,-0.00007403,
 -0.00003317,0.00013122,0.00058475,-0.00012004,0.00009122,-0.00111643,-
 0.00243920,-0.00027759,-0.00176341,-0.00033860,-0.00050977,0.00355316,
 -0.00147472,0.00472250,0.05284621,-0.21080505,0.13137717,0.00639754,-0
 .00908065,0.00928840,-0.00357570,0.00255153,0.00402993,0.00014502,0.00
 020354,-0.00086421,0.00048963,0.00269891,0.00195843,-0.00029062,-0.000
 53034,0.00001305,0.00013015,0.00007436,0.00004513,0.00023584,0.0002032
 5,-0.00010113,-0.00009497,-0.00005809,0.00001587,0.00001275,-0.0000023
 1,-0.00000113,0.00000910,0.00000240,0.00000679,-0.00001155,-0.00002010
 ,0.00000843,0.00002031,-0.00001122,-0.00001387,-0.00003596,0.00002477,
 -0.00001018,-0.05763730,0.22097432,-0.00006815,0.00000520,0.00003226,0
 .00006600,-0.00002271,0.00002274,-0.00006832,-0.00001498,0.00003012,-0
 .00004053,-0.00000533,-0.00001529,0.00003448,0.00013435,0.00004803,-0.
 00030041,-0.00002801,-0.00001646,0.00081459,-0.00003305,-0.00269592,0.
 00148354,-0.00057019,-0.00040320,-0.00290963,0.00574604,0.00032661,-0.
 04100298,0.13134301,-0.13690571,-0.00446218,0.00815047,-0.00322097,0.0
 0212815,0.00407242,0.00522214,-0.00011173,-0.00084259,-0.00031045,-0.0
 0092212,0.00188792,0.00380932,0.00027560,0.00003308,-0.00054241,-0.000
 14539,0.00009039,0.00007232,-0.00016600,-0.00000060,0.00005072,0.00006
 616,-0.00001987,-0.00003346,0.00000087,-0.00000234,0.00000486,-0.00000
 134,-0.00000581,-0.00000827,0.00002737,0.00002760,-0.00004120,-0.00001
 202,-0.00001182,-0.00002238,0.00002269,-0.00000734,0.00002149,0.045010
 33,-0.14728647,0.13799385,-0.00015756,0.00003671,-0.00001001,0.0002635
 6,-0.00006959,0.00008950,-0.00024897,-0.00010049,0.00007965,-0.0001295
 4,-0.00000404,-0.00003329,0.00003944,0.00018501,-0.00011737,-0.0006518
 3,-0.00044441,0.00034948,-0.00087349,0.00099087,-0.00082458,-0.0000200
 5,-0.00005810,0.00003160,0.00016066,-0.00367395,0.00238449,-0.02010282
 ,0.00678310,-0.00608585,-0.29940131,0.04520862,-0.04637849,-0.00624134
 ,-0.00183481,0.00110217,0.00163277,0.00204129,-0.00167427,0.00082330,-
 0.00071156,0.00061102,0.00001354,0.00030559,-0.00020611,-0.00010815,-0
 .00024645,0.00018272,-0.00021725,-0.00020147,0.00014998,0.00013497,0.0
 0004045,-0.00007159,-0.00001899,-0.00000059,0.00000707,-0.00001479,-0.
 00000976,-0.00001909,0.00004481,0.00005202,-0.00005469,-0.00003772,0.0
 0000878,-0.00000352,0.00001325,-0.00001394,0.00001456,0.00123652,-0.00
 026160,0.00048760,0.32345840,0.00003022,-0.00000214,0.00000815,-0.0000
 8141,0.00002503,-0.00003759,0.00005223,-0.00008790,0.00010563,-0.00006
 572,0.00007266,-0.00004050,-0.00001325,0.00012540,0.00003488,-0.000334
 83,-0.00053697,-0.00049199,-0.00022045,0.00100879,-0.00024498,0.000023
 86,-0.00003091,0.00026152,-0.00222552,0.00045263,0.00527401,-0.0187987
 0,0.00592502,-0.00476972,0.04524627,-0.05400445,0.02446228,0.02410671,
 -0.00101341,0.00057055,-0.00005954,-0.00225846,0.00510825,-0.00053931,
 -0.00045227,0.00017235,0.00033828,-0.00027552,-0.00030962,0.00007193,0
 .00017889,-0.00019938,-0.00003258,-0.00007814,0.00020588,0.00004512,0.
 00006023,-0.00000670,0.00000364,0.00000380,-0.00000224,-0.00000072,0.0
 0000576,0.00000165,-0.00000661,-0.00002236,0.00000999,-0.00001234,-0.0
 0000656,-0.00001114,0.00001431,-0.00000540,-0.00001097,0.00071934,-0.0
 0110421,-0.00284026,-0.04864793,0.05196893,-0.00003884,0.00001093,-0.0
 0000623,0.00005642,-0.00002876,0.00002636,-0.00003082,0.00006282,-0.00
 004475,0.00002585,-0.00001100,0.00006633,0.00003491,0.00004186,0.00012
 501,0.00027461,-0.00051162,-0.00083478,0.00006646,-0.00020170,0.000862
 79,-0.00003454,0.00027672,0.00011879,0.00132987,0.00522281,0.00386649,
 0.01293104,-0.00357621,0.00400659,-0.04639801,0.02443323,-0.04437093,-
 0.01818064,-0.00058686,-0.00203747,-0.00007464,0.00516078,0.00066612,0
 .00044664,0.00015902,-0.00029577,-0.00023779,-0.00031262,-0.00049202,-
 0.00005254,-0.00021446,0.00007426,0.00001822,0.00018673,0.00009868,-0.
 00006586,0.00003078,0.00004493,-0.00000227,-0.00000373,0.00000115,-0.0
 0000122,-0.00000203,-0.00000572,0.00000798,0.00000373,-0.00000896,0.00
 001145,-0.00000776,-0.00001242,-0.00001211,-0.00000986,-0.00001211,-0.
 00023359,-0.00287029,-0.00285082,0.05036781,-0.02630917,0.04154994,-0.
 00011294,-0.00001806,0.00000377,0.00012988,-0.00004309,0.00007541,-0.0
 0025516,-0.00016457,0.00003842,-0.00005102,0.00012117,-0.00007217,0.00
 009661,0.00001126,-0.00000508,-0.00024640,0.00011369,-0.00014235,0.000
 33580,0.00001778,0.00002954,-0.00007654,-0.00003236,0.00003240,-0.0003
 7189,0.00086815,-0.00062397,0.00078521,0.00117129,-0.00101244,0.007536
 94,0.00618589,-0.00422561,-0.18095146,-0.10694756,0.07258745,-0.018444
 61,-0.02119120,0.01489265,-0.00381480,0.00295491,-0.00281944,0.0001430
 5,-0.00141889,0.00103972,-0.00005020,0.00001959,-0.00002780,-0.0010690
 3,0.00003453,0.00003216,0.00018381,-0.00008921,0.00013200,-0.00001512,
 0.00000179,0.00000450,-0.00000963,-0.00000966,-0.00002444,0.00003276,0
 .00006269,-0.00004978,-0.00001016,0.00000161,-0.00000318,-0.00000477,-
 0.00000992,0.00000883,0.00016678,0.00026963,-0.00022359,0.00087312,-0.
 00066522,0.00062366,0.19392348,-0.00010067,0.00002453,0.00001539,0.000
 14475,-0.00004793,0.00003930,-0.00015269,0.00010481,0.00006839,0.00003
 998,-0.00003774,-0.00002657,-0.00003381,0.00003513,0.00003169,-0.00001
 912,0.00002798,0.00010841,-0.00010446,-0.00045641,-0.00021815,-0.00026
 446,0.00012664,-0.00013900,0.00065760,0.00029116,-0.00040525,0.0032797
 6,-0.00162563,0.00478524,-0.01967011,-0.01051164,0.00603662,-0.1070070
 9,-0.13722667,0.07828302,0.00433282,0.00481038,-0.00245903,0.00161240,
 0.00348731,0.00355568,-0.00038687,0.00026799,0.00014612,0.00007563,-0.
 00002687,0.00028900,-0.00006764,-0.00033420,-0.00057650,0.00004940,-0.
 00000545,-0.00002482,-0.00001220,-0.00000221,0.00000383,-0.00000898,-0
 .00000542,-0.00002414,0.00002618,0.00002823,-0.00003748,-0.00000951,0.
 00000723,0.00000473,0.00000923,0.00000009,0.00000198,-0.00092415,-0.00
 036356,0.00060762,0.00076795,-0.00006074,-0.00129225,0.11808313,0.1426
 8769,0.00007364,0.00001109,0.00000726,-0.00010342,0.00000656,-0.000071
 43,0.00010020,0.00007893,0.00017159,-0.00001549,0.00000703,-0.00005281
 ,0.00002427,0.00001256,0.00003005,-0.00002104,0.00015155,0.00008794,0.
 00019903,-0.00012713,-0.00058217,0.00018710,-0.00015527,0.00006446,-0.
 00055001,-0.00042486,-0.00005003,-0.00255336,0.00467252,0.00092935,0.0
 1500348,0.00715893,-0.00587719,0.07267266,0.07837230,-0.08045267,-0.00
 414558,-0.00370405,0.00371339,-0.00168293,0.00363127,0.00540519,0.0001
 9803,0.00015396,0.00040043,-0.00003271,0.00025072,0.00017272,0.0000164
 8,-0.00066503,-0.00070747,-0.00002635,-0.00000772,0.00002932,0.0000102
 4,-0.00000310,-0.00000626,0.00000210,0.00001190,0.00001280,-0.00003012
 ,-0.00004059,0.00002699,0.00000263,0.00000074,0.00000721,-0.00000453,0
 .00000122,0.00000265,0.00067033,0.00066669,0.00007568,-0.00043917,-0.0
 0134930,-0.00084547,-0.08006270,-0.08583123,0.08046868,0.00006021,-0.0
 0003639,0.00003510,-0.00011079,0.00004071,-0.00008307,0.00021365,0.000
 27862,-0.00018401,-0.00010546,-0.00018775,0.00016850,0.00012434,0.0001
 6814,-0.00013719,0.00019175,-0.00034179,0.00029490,0.00080116,-0.00081
 741,0.00066651,-0.00038620,-0.00016210,0.00008984,-0.00342067,-0.00183
 637,0.00098821,-0.00057930,-0.00039982,0.00027299,-0.00481918,-0.00032
 932,-0.00028517,-0.00464930,0.02276427,-0.01736555,-0.07766004,0.06016
 052,-0.04653573,0.01192107,-0.01656197,0.01265572,-0.00105104,-0.00303
 680,0.00236427,-0.00010677,0.00243958,-0.00179899,0.00141267,0.0012917
 0,-0.00095139,-0.00055644,0.00007951,-0.00010390,0.00000541,0.00001737
 ,0.00000464,0.00000536,0.00000186,0.00000593,-0.00001640,-0.00002178,0
 .00001776,-0.00000344,0.00000593,-0.00000758,0.00002269,0.00001642,-0.
 00001495,0.00009364,0.00003336,0.00002266,-0.00044627,0.00106038,-0.00
 083654,0.00127810,-0.00029057,0.00049434,0.07791652,-0.00004560,0.0000
 1989,0.00003825,0.00009014,-0.00003923,-0.00000388,-0.00005566,0.00008
 943,-0.00002189,-0.00009177,-0.00004541,0.00004470,0.00012785,0.000103
 65,-0.00006431,-0.00020071,-0.00014333,0.00013513,0.00097672,-0.000843
 45,0.00016982,-0.00036167,-0.00009556,0.00018930,-0.00314169,0.0013256
 6,0.00273494,-0.00090637,-0.00008944,-0.00067106,0.00081454,0.00434853
 ,0.00289948,-0.00117687,-0.00011746,0.00227072,0.05897136,-0.20727681,
 0.12914422,0.00506555,-0.01214390,0.01288648,0.00179359,-0.00326803,0.
 00059358,0.00175383,0.00173916,-0.00194798,0.00015548,0.00023544,-0.00
 019395,-0.00008621,0.00000103,-0.00001055,-0.00000809,0.00000327,0.000
 00441,-0.00000920,-0.00000278,-0.00001341,0.00001109,0.00001578,-0.000
 03741,-0.00000702,0.00000574,-0.00000613,0.00001552,-0.00000917,0.0000
 0580,0.00010618,-0.00039531,-0.00040586,-0.00012737,0.00010893,0.00034
 908,0.00067009,-0.00117508,-0.00288155,-0.06428258,0.21764228,0.000055
 10,0.00002138,0.00003472,-0.00005147,-0.00000104,-0.00004457,0.0000370
 1,-0.00000835,0.00006058,0.00006376,0.00002465,-0.00002525,-0.00009678
 ,-0.00005189,0.00005836,0.00013066,0.00012308,-0.00000904,-0.00064729,
 0.00003658,-0.00077374,0.00022489,0.00024793,0.00003140,0.00197030,0.0
 0278550,0.00314216,0.00069304,-0.00062495,-0.00043650,-0.00120257,0.00
 285875,0.00602628,0.00051103,0.00332049,0.00052725,-0.04566503,0.12927
 436,-0.13554507,-0.00352785,0.01186187,-0.00413179,-0.00125550,0.00044
 766,-0.00290385,-0.00124385,-0.00197424,0.00042812,-0.00009788,-0.0001
 7777,0.00003166,0.00008723,0.00000294,0.00007332,0.00000416,-0.0000093
 1,-0.00000429,-0.00000034,0.00000348,0.00000145,-0.00002156,-0.0000168
 9,-0.00001097,0.00000941,-0.00000201,-0.00000015,-0.00001016,0.0000052
 3,-0.00000749,-0.00002752,-0.00040734,-0.00064635,0.00005471,0.0004110
 3,0.00030948,-0.00020233,-0.00293862,-0.00293694,0.05017839,-0.1452062
 8,0.13674620,-0.00261085,-0.00045744,0.00008735,0.00224726,0.00149358,
 -0.00098355,0.00792143,-0.01661662,0.01234625,-0.00253526,-0.00212138,
 0.00132106,-0.00115160,-0.00025914,0.00012857,-0.00532728,-0.00035957,
 -0.00019662,0.00063177,0.00113427,-0.00092472,-0.00069528,0.00025325,-
 0.00017900,-0.00018940,0.00049664,-0.00034900,0.00031772,-0.00011480,0
 .00010742,-0.00031560,0.00017456,-0.00014855,0.00039469,-0.00023540,0.
 00020623,-0.00054119,-0.00032301,0.00024197,0.00235473,-0.00053891,0.0
 0037887,-0.00282154,0.00416604,-0.00297549,0.00337319,-0.00273147,0.00
 222392,-0.00347550,0.02446702,-0.01847087,-0.06649973,0.04835126,-0.03
 725564,-0.00154608,0.00029984,-0.00013311,-0.00101279,-0.00003379,-0.0
 0030508,0.00003774,-0.00014959,0.00024084,0.00016704,-0.00081287,0.000
 67407,0.00005109,0.00008801,-0.00004543,0.00003649,0.00001518,-0.00000
 569,-0.00002428,-0.00000816,0.00000448,-0.00000180,-0.00002652,0.00001
 287,-0.00013525,-0.00005114,0.00003048,0.07135028,0.00087801,-0.000513
 57,0.00028249,0.00163138,-0.00123809,-0.00184823,0.00441304,-0.0088781
 1,0.00989232,-0.00279145,0.00189499,0.00306337,-0.00011799,0.00003569,
 -0.00082420,0.00025709,0.00266474,0.00156507,-0.00023747,-0.00042273,0
 .00035911,0.00004322,0.00024887,-0.00018852,0.00030028,0.00034837,-0.0
 0031539,-0.00003892,-0.00005288,0.00006625,-0.00007013,0.00016665,-0.0
 0012477,0.00019773,-0.00015734,0.00009907,-0.00030174,-0.00012208,0.00
 018275,0.00122829,-0.00020662,0.00033470,-0.00155448,-0.00145873,-0.00
 121323,-0.00102569,-0.00143740,0.00011945,0.00384213,-0.00199584,0.004
 49901,0.04828915,-0.21594000,0.13777900,0.00103281,0.00051925,0.000632
 14,-0.00063508,-0.00026577,-0.00092771,0.00053158,0.00043998,-0.000819
 25,0.00026577,-0.00020933,0.00058088,0.00001734,-0.00026096,-0.0002560
 8,0.00001046,-0.00000576,-0.00000087,-0.00001432,0.00000338,-0.0000001
 7,0.00000253,-0.00001960,0.00000187,-0.00005370,0.00000615,-0.00000623
 ,-0.05609984,0.22685674,-0.00101802,-0.00004140,-0.00038291,-0.0009107
 2,-0.00204631,-0.00277729,-0.00349391,0.00935135,-0.00258229,0.0019812
 4,0.00308206,0.00391526,-0.00022734,-0.00098405,-0.00042745,-0.0004343
 7,0.00165505,0.00336987,0.00012972,0.00023359,-0.00060248,-0.00006322,
 -0.00007273,0.00026167,-0.00026298,-0.00021082,0.00015549,0.00008038,0
 .00004280,-0.00003388,0.00000154,-0.00009991,0.00009012,-0.00007142,0.
 00007177,-0.00007958,0.00011294,0.00014530,0.00004512,-0.00067884,0.00
 026771,-0.00010680,0.00113895,-0.00037283,-0.00199873,0.00098682,-0.00
 025935,-0.00116377,-0.00333514,0.00496840,-0.00033938,-0.03692392,0.13
 802709,-0.13732424,0.00078296,-0.00058196,0.00005814,-0.00139064,0.000
 33805,-0.00004157,-0.00013266,-0.00089092,0.00002505,-0.00027799,0.000
 56757,0.00027866,0.00000419,-0.00025801,-0.00042517,-0.00001032,0.0000
 0857,0.00000274,0.00000567,-0.00000260,0.00000052,-0.00000562,-0.00000
 396,-0.00002327,0.00004432,-0.00000165,0.00000502,0.04396837,-0.152932
 81,0.14010114\\0.00000471,-0.00001853,0.00001291,0.00001327,0.00000977
 ,-0.00001572,-0.00001365,0.00000715,-0.00000153,0.00001140,-0.00000565
 ,-0.00001632,-0.00000138,0.00001023,0.00000528,-0.00002821,0.00001736,
 0.00000858,0.00002651,-0.00002677,-0.00005863,-0.00000631,0.00001927,0
 .00001756,0.00002337,-0.00002542,0.00004095,-0.00002586,0.00001118,-0.
 00001020,-0.00000311,0.00000290,-0.00000296,0.00000649,-0.00000041,0.0
 0000335,-0.00001535,-0.00001915,0.00001230,0.00000299,0.00002243,-0.00
 004435,0.00000542,0.00006865,0.00005421,0.00000338,-0.00004173,-0.0000
 1227,-0.00002161,-0.00002657,-0.00001315,0.00001356,-0.00002071,0.0000
 2149,0.00000249,0.00000790,-0.00000139,0.00000826,-0.00000231,-0.00000
 727,-0.00000216,0.00000120,0.00000640,-0.00000318,0.00000447,0.0000101
 7,0.00000100,-0.00000324,-0.00000379,0.00000215,-0.00000230,0.00000229
 ,0.00000213,0.00000016,0.00000251,-0.00000216,-0.00000320,-0.00000169,
 0.00000207,0.00000449,-0.00000008,-0.00000621,0.00000883,-0.00000866\\
 \@


 IT IS BETTER TO THINK YOU ARE HALF DRY THAN TO KNOW YOU
 ARE ALL WET.  -- SNOOPY
 Job cpu time:       0 days  7 hours  5 minutes 26.5 seconds.
 Elapsed time:       0 days  1 hours  0 minutes 46.8 seconds.
 File lengths (MBytes):  RWF=   1107 Int=      0 D2E=      0 Chk=     25 Scr=      1
 Normal termination of Gaussian 16 at Thu Dec 21 09:53:47 2023.
