 Entering Gaussian System, Link 0=g16
 Input=001-rad.com
 Output=001-rad.log
 Initial command:
 /sysapps/ubuntu-applications/gaussian/Gaussian/AVX2/g16/l1.exe "/scratch/selhajj1/4217056/Gau-1080164.inp" -scrdir="/scratch/selhajj1/4217056/"
 Entering Link 1 = /sysapps/ubuntu-applications/gaussian/Gaussian/AVX2/g16/l1.exe PID=   1080174.
  
 Copyright (c) 1988,1990,1992,1993,1995,1998,2003,2009,2016,
            Gaussian, Inc.  All Rights Reserved.
  
 This is part of the Gaussian(R) 16 program.  It is based on
 the Gaussian(R) 09 system (copyright 2009, Gaussian, Inc.),
 the Gaussian(R) 03 system (copyright 2003, Gaussian, Inc.),
 the Gaussian(R) 98 system (copyright 1998, Gaussian, Inc.),
 the Gaussian(R) 94 system (copyright 1995, Gaussian, Inc.),
 the Gaussian 92(TM) system (copyright 1992, Gaussian, Inc.),
 the Gaussian 90(TM) system (copyright 1990, Gaussian, Inc.),
 the Gaussian 88(TM) system (copyright 1988, Gaussian, Inc.),
 the Gaussian 86(TM) system (copyright 1986, Carnegie Mellon
 University), and the Gaussian 82(TM) system (copyright 1983,
 Carnegie Mellon University). Gaussian is a federally registered
 trademark of Gaussian, Inc.
  
 This software contains proprietary and confidential information,
 including trade secrets, belonging to Gaussian, Inc.
  
 This software is provided under written license and may be
 used, copied, transmitted, or stored only in accord with that
 written license.
  
 The following legend is applicable only to US Government
 contracts under FAR:
  
                    RESTRICTED RIGHTS LEGEND
  
 Use, reproduction and disclosure by the US Government is
 subject to restrictions as set forth in subparagraphs (a)
 and (c) of the Commercial Computer Software - Restricted
 Rights clause in FAR 52.227-19.
  
 Gaussian, Inc.
 340 Quinnipiac St., Bldg. 40, Wallingford CT 06492
  
  
 ---------------------------------------------------------------
 Warning -- This program may not be used in any manner that
 competes with the business of Gaussian, Inc. or will provide
 assistance to any competitor of Gaussian, Inc.  The licensee
 of this program is prohibited from giving any competitor of
 Gaussian, Inc. access to this program.  By using this program,
 the user acknowledges that Gaussian, Inc. is engaged in the
 business of creating and licensing software in the field of
 computational chemistry and represents and warrants to the
 licensee that it is not a competitor of Gaussian, Inc. and that
 it will not use this program in any manner prohibited above.
 ---------------------------------------------------------------
  

 Cite this work as:
 Gaussian 16, Revision A.03,
 M. J. Frisch, G. W. Trucks, H. B. Schlegel, G. E. Scuseria, 
 M. A. Robb, J. R. Cheeseman, G. Scalmani, V. Barone, 
 G. A. Petersson, H. Nakatsuji, X. Li, M. Caricato, A. V. Marenich, 
 J. Bloino, B. G. Janesko, R. Gomperts, B. Mennucci, H. P. Hratchian, 
 J. V. Ortiz, A. F. Izmaylov, J. L. Sonnenberg, D. Williams-Young, 
 F. Ding, F. Lipparini, F. Egidi, J. Goings, B. Peng, A. Petrone, 
 T. Henderson, D. Ranasinghe, V. G. Zakrzewski, J. Gao, N. Rega, 
 G. Zheng, W. Liang, M. Hada, M. Ehara, K. Toyota, R. Fukuda, 
 J. Hasegawa, M. Ishida, T. Nakajima, Y. Honda, O. Kitao, H. Nakai, 
 T. Vreven, K. Throssell, J. A. Montgomery, Jr., J. E. Peralta, 
 F. Ogliaro, M. J. Bearpark, J. J. Heyd, E. N. Brothers, K. N. Kudin, 
 V. N. Staroverov, T. A. Keith, R. Kobayashi, J. Normand, 
 K. Raghavachari, A. P. Rendell, J. C. Burant, S. S. Iyengar, 
 J. Tomasi, M. Cossi, J. M. Millam, M. Klene, C. Adamo, R. Cammi, 
 J. W. Ochterski, R. L. Martin, K. Morokuma, O. Farkas, 
 J. B. Foresman, and D. J. Fox, Gaussian, Inc., Wallingford CT, 2016.
 
 ******************************************
 Gaussian 16:  ES64L-G16RevA.03 25-Dec-2016
                17-Dec-2023 
 ******************************************
 %chk=001-rad.chk
 %nproc=8
 Will use up to    8 processors via shared memory.
 %mem=30GB
 --------------------------------------
 #P UB3LYP/6-311++G(d,p) nosym opt freq
 --------------------------------------
 1/18=20,19=15,26=3,38=1/1,3;
 2/9=110,12=2,15=1,17=6,18=5,40=1/2;
 3/5=4,6=6,7=1111,11=2,25=1,30=1,71=1,74=-5,116=2/1,2,3;
 4//1;
 5/5=2,38=5/2;
 6/7=2,8=2,9=2,10=2,28=1/1;
 7/30=1/1,2,3,16;
 1/18=20,19=15,26=3/3(2);
 2/9=110,15=1/2;
 99//99;
 2/9=110,15=1/2;
 3/5=4,6=6,7=1111,11=2,25=1,30=1,71=1,74=-5,116=2/1,2,3;
 4/5=5,16=3,69=1/1;
 5/5=2,38=5/2;
 7/30=1/1,2,3,16;
 1/18=20,19=15,26=3/3(-5);
 2/9=110,15=1/2;
 6/7=2,8=2,9=2,10=2,19=2,28=1/1;
 99/9=1/99;
 Leave Link    1 at Sun Dec 17 20:48:51 2023, MaxMem=  4026531840 cpu:               0.6 elap:               0.1
 (Enter /sysapps/ubuntu-applications/gaussian/Gaussian/AVX2/g16/l101.exe)
 -------
 Radical
 -------
 Symbolic Z-matrix:
 Charge = -1 Multiplicity = 2
 O                    -1.07169   1.70488  -1.82366 
 C                    -0.82886   0.82068  -0.96013 
 C                    -1.88649  -0.0453   -0.46073 
 C                    -1.6143   -0.96756   0.44502 
 C                    -0.25379  -1.10853   0.93605 
 O                     0.04889  -1.97685   1.80124 
 C                     0.83286  -0.26017   0.46032 
 C                     0.52495   0.66201  -0.45491 
 C                     1.61765   1.48541  -0.90642 
 N                     2.49569   2.1593   -1.29057 
 C                     2.17439  -0.39836   0.94377 
 N                     3.2707   -0.52232   1.32139 
 H                    -2.92233   0.07073  -0.84244 
 H                    -2.38768  -1.62392   0.83108 
 
 ITRead=  0  0  0  0  0  0  0  0  0  0  0  0  0  0
 MicOpt= -1 -1 -1 -1 -1 -1 -1 -1 -1 -1 -1 -1 -1 -1
 NAtoms=     14 NQM=       14 NQMF=       0 NMMI=      0 NMMIF=      0
                NMic=       0 NMicF=      0.
                    Isotopes and Nuclear Properties:
 (Nuclear quadrupole moments (NQMom) in fm**2, nuclear magnetic moments (NMagM)
  in nuclear magnetons)

  Atom         1           2           3           4           5           6           7           8           9          10
 IAtWgt=          16          12          12          12          12          16          12          12          12          14
 AtmWgt=  15.9949146  12.0000000  12.0000000  12.0000000  12.0000000  15.9949146  12.0000000  12.0000000  12.0000000  14.0030740
 NucSpn=           0           0           0           0           0           0           0           0           0           2
 AtZEff=  -0.0000000  -0.0000000  -0.0000000  -0.0000000  -0.0000000  -0.0000000  -0.0000000  -0.0000000  -0.0000000  -0.0000000
 NQMom=    0.0000000   0.0000000   0.0000000   0.0000000   0.0000000   0.0000000   0.0000000   0.0000000   0.0000000   2.0440000
 NMagM=    0.0000000   0.0000000   0.0000000   0.0000000   0.0000000   0.0000000   0.0000000   0.0000000   0.0000000   0.4037610
 AtZNuc=   8.0000000   6.0000000   6.0000000   6.0000000   6.0000000   8.0000000   6.0000000   6.0000000   6.0000000   7.0000000

  Atom        11          12          13          14
 IAtWgt=          12          14           1           1
 AtmWgt=  12.0000000  14.0030740   1.0078250   1.0078250
 NucSpn=           0           2           1           1
 AtZEff=  -0.0000000  -0.0000000  -0.0000000  -0.0000000
 NQMom=    0.0000000   2.0440000   0.0000000   0.0000000
 NMagM=    0.0000000   0.4037610   2.7928460   2.7928460
 AtZNuc=   6.0000000   7.0000000   1.0000000   1.0000000
 Leave Link  101 at Sun Dec 17 20:48:52 2023, MaxMem=  4026531840 cpu:               4.7 elap:               0.8
 (Enter /sysapps/ubuntu-applications/gaussian/Gaussian/AVX2/g16/l103.exe)

 GradGradGradGradGradGradGradGradGradGradGradGradGradGradGradGradGradGrad
 Berny optimization.
 Initialization pass.
                           ----------------------------
                           !    Initial Parameters    !
                           ! (Angstroms and Degrees)  !
 --------------------------                            --------------------------
 ! Name  Definition              Value          Derivative Info.                !
 --------------------------------------------------------------------------------
 ! R1    R(1,2)                  1.2595         estimate D2E/DX2                !
 ! R2    R(2,3)                  1.4553         estimate D2E/DX2                !
 ! R3    R(2,8)                  1.4537         estimate D2E/DX2                !
 ! R4    R(3,4)                  1.321          estimate D2E/DX2                !
 ! R5    R(3,13)                 1.11           estimate D2E/DX2                !
 ! R6    R(4,5)                  1.4533         estimate D2E/DX2                !
 ! R7    R(4,14)                 1.0853         estimate D2E/DX2                !
 ! R8    R(5,6)                  1.2626         estimate D2E/DX2                !
 ! R9    R(5,7)                  1.4584         estimate D2E/DX2                !
 ! R10   R(7,8)                  1.3352         estimate D2E/DX2                !
 ! R11   R(7,11)                 1.4327         estimate D2E/DX2                !
 ! R12   R(8,9)                  1.4408         estimate D2E/DX2                !
 ! R13   R(9,10)                 1.1716         estimate D2E/DX2                !
 ! R14   R(11,12)                1.1661         estimate D2E/DX2                !
 ! A1    A(1,2,3)              120.8561         estimate D2E/DX2                !
 ! A2    A(1,2,8)              119.6326         estimate D2E/DX2                !
 ! A3    A(3,2,8)              119.5113         estimate D2E/DX2                !
 ! A4    A(2,3,4)              120.0648         estimate D2E/DX2                !
 ! A5    A(2,3,13)             119.8656         estimate D2E/DX2                !
 ! A6    A(4,3,13)             120.0696         estimate D2E/DX2                !
 ! A7    A(3,4,5)              119.4915         estimate D2E/DX2                !
 ! A8    A(3,4,14)             121.2833         estimate D2E/DX2                !
 ! A9    A(5,4,14)             119.2251         estimate D2E/DX2                !
 ! A10   A(4,5,6)              121.5118         estimate D2E/DX2                !
 ! A11   A(4,5,7)              122.0669         estimate D2E/DX2                !
 ! A12   A(6,5,7)              116.4213         estimate D2E/DX2                !
 ! A13   A(5,7,8)              116.9706         estimate D2E/DX2                !
 ! A14   A(5,7,11)             122.1086         estimate D2E/DX2                !
 ! A15   A(8,7,11)             120.9208         estimate D2E/DX2                !
 ! A16   A(2,8,7)              121.8949         estimate D2E/DX2                !
 ! A17   A(2,8,9)              122.3444         estimate D2E/DX2                !
 ! A18   A(7,8,9)              115.7607         estimate D2E/DX2                !
 ! A19   L(8,9,10,12,-1)       180.9283         estimate D2E/DX2                !
 ! A20   L(7,11,12,10,-1)      179.8889         estimate D2E/DX2                !
 ! A21   L(8,9,10,12,-2)       179.622          estimate D2E/DX2                !
 ! A22   L(7,11,12,10,-2)      181.0008         estimate D2E/DX2                !
 ! D1    D(1,2,3,4)           -179.9999         estimate D2E/DX2                !
 ! D2    D(1,2,3,13)            -0.0004         estimate D2E/DX2                !
 ! D3    D(8,2,3,4)              0.0            estimate D2E/DX2                !
 ! D4    D(8,2,3,13)           179.9996         estimate D2E/DX2                !
 ! D5    D(1,2,8,7)           -180.0            estimate D2E/DX2                !
 ! D6    D(1,2,8,9)              0.0017         estimate D2E/DX2                !
 ! D7    D(3,2,8,7)              0.0            estimate D2E/DX2                !
 ! D8    D(3,2,8,9)           -179.9982         estimate D2E/DX2                !
 ! D9    D(2,3,4,5)             -0.0002         estimate D2E/DX2                !
 ! D10   D(2,3,4,14)          -179.9998         estimate D2E/DX2                !
 ! D11   D(13,3,4,5)          -179.9997         estimate D2E/DX2                !
 ! D12   D(13,3,4,14)            0.0007         estimate D2E/DX2                !
 ! D13   D(3,4,5,6)           -180.0            estimate D2E/DX2                !
 ! D14   D(3,4,5,7)              0.0002         estimate D2E/DX2                !
 ! D15   D(14,4,5,6)            -0.0003         estimate D2E/DX2                !
 ! D16   D(14,4,5,7)           179.9999         estimate D2E/DX2                !
 ! D17   D(4,5,7,8)             -0.0001         estimate D2E/DX2                !
 ! D18   D(4,5,7,11)          -179.9997         estimate D2E/DX2                !
 ! D19   D(6,5,7,8)           -179.9999         estimate D2E/DX2                !
 ! D20   D(6,5,7,11)             0.0004         estimate D2E/DX2                !
 ! D21   D(5,7,8,2)              0.0            estimate D2E/DX2                !
 ! D22   D(5,7,8,9)            179.9984         estimate D2E/DX2                !
 ! D23   D(11,7,8,2)           179.9996         estimate D2E/DX2                !
 ! D24   D(11,7,8,9)            -0.002          estimate D2E/DX2                !
 --------------------------------------------------------------------------------
 Trust Radius=3.00D-01 FncErr=1.00D-07 GrdErr=1.00D-06 EigMax=2.50D+02 EigMin=1.00D-04
 Number of steps in this run=     70 maximum allowed number of steps=    100.
 GradGradGradGradGradGradGradGradGradGradGradGradGradGradGradGradGradGrad

 Leave Link  103 at Sun Dec 17 20:48:52 2023, MaxMem=  4026531840 cpu:               0.3 elap:               0.1
 (Enter /sysapps/ubuntu-applications/gaussian/Gaussian/AVX2/g16/l202.exe)
                          Input orientation:                          
 ---------------------------------------------------------------------
 Center     Atomic      Atomic             Coordinates (Angstroms)
 Number     Number       Type             X           Y           Z
 ---------------------------------------------------------------------
      1          8           0       -1.071687    1.704876   -1.823656
      2          6           0       -0.828860    0.820676   -0.960134
      3          6           0       -1.886493   -0.045304   -0.460729
      4          6           0       -1.614298   -0.967560    0.445018
      5          6           0       -0.253791   -1.108526    0.936050
      6          8           0        0.048894   -1.976850    1.801236
      7          6           0        0.832857   -0.260168    0.460319
      8          6           0        0.524947    0.662012   -0.454906
      9          6           0        1.617651    1.485407   -0.906421
     10          7           0        2.495689    2.159297   -1.290574
     11          6           0        2.174395   -0.398363    0.943768
     12          7           0        3.270700   -0.522315    1.321391
     13          1           0       -2.922326    0.070733   -0.842440
     14          1           0       -2.387677   -1.623915    0.831079
 ---------------------------------------------------------------------
                    Distance matrix (angstroms):
                    1          2          3          4          5
     1  O    0.000000
     2  C    1.259541   0.000000
     3  C    2.363178   1.455306   0.000000
     4  C    3.547283   2.406066   1.320993   0.000000
     5  C    4.024943   2.765509   2.397321   1.453260   0.000000
     6  O    5.286838   4.027626   3.548673   2.371541   1.262597
     7  C    3.564439   2.438691   2.879125   2.547392   1.458367
     8  C    2.347399   1.453693   2.513041   2.835795   2.382435
     9  C    2.849916   2.535777   3.849772   4.276555   3.691271
    10  N    3.635498   3.599128   4.975181   5.448074   4.816240
    11  C    4.755974   3.759047   4.311389   3.863539   2.529917
    12  N    5.805861   4.880100   5.477237   4.982918   3.593628
    13  H    2.656704   2.226852   1.110009   2.108681   3.416835
    14  H    4.456490   3.407988   2.100468   1.085339   2.197752
                    6          7          8          9         10
     6  O    0.000000
     7  C    2.315092   0.000000
     8  C    3.504340   1.335238   0.000000
     9  C    4.666865   2.351789   1.440780   0.000000
    10  N    5.714351   3.418253   2.612284   1.171603   0.000000
    11  C    2.782917   1.432670   2.408601   2.698472   3.411325
    12  N    3.567345   2.598700   3.478077   3.424422   3.822833
    13  H    4.473229   3.988493   3.519018   4.755711   5.823900
    14  H    2.646252   3.516975   3.919515   5.359985   6.531568
                   11         12         13         14
    11  C    0.000000
    12  N    1.166125   0.000000
    13  H    5.420992   6.586914   0.000000
    14  H    4.725165   5.785426   2.440973   0.000000
 Symmetry turned off by external request.
 Stoichiometry    C8H2N2O2(1-,2)
 Framework group  C1[X(C8H2N2O2)]
 Deg. of freedom    36
 Full point group                 C1      NOp   1
 Rotational constants (GHZ):           1.1677233           1.1340677           0.5753286
 Leave Link  202 at Sun Dec 17 20:48:52 2023, MaxMem=  4026531840 cpu:               0.4 elap:               0.1
 (Enter /sysapps/ubuntu-applications/gaussian/Gaussian/AVX2/g16/l301.exe)
 Standard basis: 6-311++G(d,p) (5D, 7F)
 Ernie: Thresh=  0.10000D-02 Tol=  0.10000D-05 Strict=F.
   278 basis functions,   450 primitive gaussians,   290 cartesian basis functions
    41 alpha electrons       40 beta electrons
       nuclear repulsion energy       581.9852114715 Hartrees.
 IExCor=  402 DFT=T Ex+Corr=B3LYP ExCW=0 ScaHFX=  0.200000
 ScaDFX=  0.800000  0.720000  1.000000  0.810000 ScalE2=  1.000000  1.000000
 IRadAn=      5 IRanWt=     -1 IRanGd=            0 ICorTp=0 IEmpDi=  4
 NAtoms=   14 NActive=   14 NUniq=   14 SFac= 1.00D+00 NAtFMM=   60 NAOKFM=F Big=F
 Integral buffers will be    131072 words long.
 Raffenetti 2 integral format.
 Two-electron integral symmetry is turned off.
 Leave Link  301 at Sun Dec 17 20:48:52 2023, MaxMem=  4026531840 cpu:               0.5 elap:               0.1
 (Enter /sysapps/ubuntu-applications/gaussian/Gaussian/AVX2/g16/l302.exe)
 NPDir=0 NMtPBC=     1 NCelOv=     1 NCel=       1 NClECP=     1 NCelD=      1
         NCelK=      1 NCelE2=     1 NClLst=     1 CellRange=     0.0.
 One-electron integrals computed using PRISM.
 NBasis=   278 RedAO= T EigKep=  1.71D-06  NBF=   278
 NBsUse=   277 1.00D-06 EigRej=  7.09D-07 NBFU=   277
 Precomputing XC quadrature grid using
 IXCGrd= 4 IRadAn=           5 IRanWt=          -1 IRanGd=           0 AccXCQ= 0.00D+00.
 Generated NRdTot=       0 NPtTot=           0 NUsed=           0 NTot=          32
 NSgBfM=   290   290   290   290   290 MxSgAt=    14 MxSgA2=    14.
 Leave Link  302 at Sun Dec 17 20:48:53 2023, MaxMem=  4026531840 cpu:               6.6 elap:               1.1
 (Enter /sysapps/ubuntu-applications/gaussian/Gaussian/AVX2/g16/l303.exe)
 DipDrv:  MaxL=1.
 Leave Link  303 at Sun Dec 17 20:48:54 2023, MaxMem=  4026531840 cpu:               1.2 elap:               0.3
 (Enter /sysapps/ubuntu-applications/gaussian/Gaussian/AVX2/g16/l401.exe)
 ExpMin= 3.60D-02 ExpMax= 8.59D+03 ExpMxC= 1.30D+03 IAcc=3 IRadAn=         5 AccDes= 0.00D+00
 Harris functional with IExCor=  402 and IRadAn=       5 diagonalized for initial guess.
 HarFok:  IExCor=  402 AccDes= 0.00D+00 IRadAn=         5 IDoV= 1 UseB2=F ITyADJ=14
 ICtDFT=  3500011 ScaDFX=  1.000000  1.000000  1.000000  1.000000
 FoFCou: FMM=F IPFlag=           0 FMFlag=      100000 FMFlg1=           0
         NFxFlg=           0 DoJE=T BraDBF=F KetDBF=T FulRan=T
         wScrn=  0.000000 ICntrl=       500 IOpCl=  0 I1Cent=   200000004 NGrid=           0
         NMat0=    1 NMatS0=      1 NMatT0=    0 NMatD0=    1 NMtDS0=    0 NMtDT0=    0
 Symmetry not used in FoFCou.
 Harris En= -566.311864679518    
 JPrj=0 DoOrth=F DoCkMO=F.
 Initial guess <Sx>= 0.0000 <Sy>= 0.0000 <Sz>= 0.5000 <S**2>= 0.7500 S= 0.5000
 Leave Link  401 at Sun Dec 17 20:48:56 2023, MaxMem=  4026531840 cpu:              11.3 elap:               1.9
 (Enter /sysapps/ubuntu-applications/gaussian/Gaussian/AVX2/g16/l502.exe)
 Two-electron integral symmetry not used.
 UHF open shell SCF:
 Using DIIS extrapolation, IDIIS=  1040.
 NGot=  4026531840 LenX=  4026359292 LenY=  4026274751
 Requested convergence on RMS density matrix=1.00D-08 within 128 cycles.
 Requested convergence on MAX density matrix=1.00D-06.
 Requested convergence on             energy=1.00D-06.
 No special actions if energy rises.
 Fock matrices will be formed incrementally for  20 cycles.

 Cycle   1  Pass 1  IDiag  1:
 FoFJK:  IHMeth= 1 ICntrl=       0 DoSepK=F KAlg= 0 I1Cent=           0 FoldK=F
 IRaf= 920000000 NMat=       1 IRICut=       1 DoRegI=T DoRafI=F ISym2E= 0 IDoP0=0 IntGTp=1.
 FoFCou: FMM=F IPFlag=           0 FMFlag=      100000 FMFlg1=           0
         NFxFlg=           0 DoJE=F BraDBF=F KetDBF=F FulRan=T
         wScrn=  0.000000 ICntrl=         0 IOpCl=  1 I1Cent=           0 NGrid=           0
         NMat0=    1 NMatS0=      1 NMatT0=    0 NMatD0=    1 NMtDS0=    0 NMtDT0=    0
 Symmetry not used in FoFCou.
 E= -565.881459995126    
 DIIS: error= 4.80D-02 at cycle   1 NSaved=   1.
 NSaved= 1 IEnMin= 1 EnMin= -565.881459995126     IErMin= 1 ErrMin= 4.80D-02
 ErrMax= 4.80D-02  0.00D+00 EMaxC= 1.00D-01 BMatC= 1.59D+00 BMatP= 1.59D+00
 IDIUse=3 WtCom= 5.20D-01 WtEn= 4.80D-01
 Coeff-Com:  0.100D+01
 Coeff-En:   0.100D+01
 Coeff:      0.100D+01
 Gap=     0.080 Goal=   None    Shift=    0.000
 Gap=     0.055 Goal=   None    Shift=    0.000
 GapD=    0.055 DampG=0.500 DampE=0.500 DampFc=0.2500 IDamp=-1.
 Damping current iteration by 2.50D-01
 RMSDP=9.11D-02 MaxDP=1.14D+01              OVMax= 4.54D-01

 Cycle   2  Pass 1  IDiag  1:
 RMSU=  2.00D-02    CP:  1.12D+00
 E= -565.976921912667     Delta-E=       -0.095461917540 Rises=F Damp=T
 DIIS: error= 2.25D-02 at cycle   2 NSaved=   2.
 NSaved= 2 IEnMin= 2 EnMin= -565.976921912667     IErMin= 2 ErrMin= 2.25D-02
 ErrMax= 2.25D-02  0.00D+00 EMaxC= 1.00D-01 BMatC= 3.01D-01 BMatP= 1.59D+00
 IDIUse=3 WtCom= 7.75D-01 WtEn= 2.25D-01
 Coeff-Com: -0.367D+00 0.137D+01
 Coeff-En:   0.000D+00 0.100D+01
 Coeff:     -0.284D+00 0.128D+01
 Gap=     0.107 Goal=   None    Shift=    0.000
 Gap=     0.171 Goal=   None    Shift=    0.000
 RMSDP=1.64D-02 MaxDP=1.78D+00 DE=-9.55D-02 OVMax= 3.93D-01

 Cycle   3  Pass 1  IDiag  1:
 RMSU=  1.28D-02    CP:  1.03D+00  6.74D-01
 E= -566.111614479093     Delta-E=       -0.134692566426 Rises=F Damp=F
 DIIS: error= 2.59D-02 at cycle   3 NSaved=   3.
 NSaved= 3 IEnMin= 3 EnMin= -566.111614479093     IErMin= 2 ErrMin= 2.25D-02
 ErrMax= 2.59D-02  0.00D+00 EMaxC= 1.00D-01 BMatC= 2.84D-01 BMatP= 3.01D-01
 IDIUse=3 WtCom= 7.41D-01 WtEn= 2.59D-01
 Coeff-Com: -0.323D+00 0.840D+00 0.483D+00
 Coeff-En:   0.000D+00 0.000D+00 0.100D+01
 Coeff:     -0.239D+00 0.622D+00 0.617D+00
 Gap=     0.157 Goal=   None    Shift=    0.000
 Gap=     0.171 Goal=   None    Shift=    0.000
 RMSDP=1.68D-02 MaxDP=1.09D+00 DE=-1.35D-01 OVMax= 1.21D-01

 Cycle   4  Pass 1  IDiag  1:
 RMSU=  9.41D-03    CP:  1.14D+00  6.51D-01  2.25D-01
 E= -566.139861220651     Delta-E=       -0.028246741558 Rises=F Damp=F
 DIIS: error= 2.30D-02 at cycle   4 NSaved=   4.
 NSaved= 4 IEnMin= 4 EnMin= -566.139861220651     IErMin= 2 ErrMin= 2.25D-02
 ErrMax= 2.30D-02  0.00D+00 EMaxC= 1.00D-01 BMatC= 1.89D-01 BMatP= 2.84D-01
 IDIUse=3 WtCom= 7.70D-01 WtEn= 2.30D-01
 Coeff-Com: -0.357D-01 0.182D+00 0.419D+00 0.434D+00
 Coeff-En:   0.000D+00 0.000D+00 0.406D+00 0.594D+00
 Coeff:     -0.275D-01 0.140D+00 0.416D+00 0.471D+00
 Gap=     0.106 Goal=   None    Shift=    0.000
 Gap=     0.131 Goal=   None    Shift=    0.000
 RMSDP=7.84D-03 MaxDP=6.32D-01 DE=-2.82D-02 OVMax= 5.57D-02

 Cycle   5  Pass 1  IDiag  1:
 RMSU=  1.17D-03    CP:  1.08D+00  6.10D-01  5.13D-01  5.41D-01
 E= -566.179471800894     Delta-E=       -0.039610580242 Rises=F Damp=F
 DIIS: error= 5.89D-03 at cycle   5 NSaved=   5.
 NSaved= 5 IEnMin= 5 EnMin= -566.179471800894     IErMin= 5 ErrMin= 5.89D-03
 ErrMax= 5.89D-03  0.00D+00 EMaxC= 1.00D-01 BMatC= 1.68D-02 BMatP= 1.89D-01
 IDIUse=3 WtCom= 9.41D-01 WtEn= 5.89D-02
 Coeff-Com:  0.253D-01-0.797D-02 0.244D+00 0.361D+00 0.377D+00
 Coeff-En:   0.000D+00 0.000D+00 0.000D+00 0.357D-01 0.964D+00
 Coeff:      0.238D-01-0.750D-02 0.230D+00 0.342D+00 0.412D+00
 Gap=     0.110 Goal=   None    Shift=    0.000
 Gap=     0.135 Goal=   None    Shift=    0.000
 RMSDP=1.58D-03 MaxDP=1.60D-01 DE=-3.96D-02 OVMax= 1.84D-02

 Cycle   6  Pass 1  IDiag  1:
 RMSU=  7.87D-04    CP:  1.07D+00  5.80D-01  5.33D-01  5.17D-01  4.87D-01
 E= -566.182773304349     Delta-E=       -0.003301503456 Rises=F Damp=F
 DIIS: error= 1.34D-03 at cycle   6 NSaved=   6.
 NSaved= 6 IEnMin= 6 EnMin= -566.182773304349     IErMin= 6 ErrMin= 1.34D-03
 ErrMax= 1.34D-03  0.00D+00 EMaxC= 1.00D-01 BMatC= 1.13D-03 BMatP= 1.68D-02
 IDIUse=3 WtCom= 9.87D-01 WtEn= 1.34D-02
 Coeff-Com:  0.173D-01-0.293D-01 0.584D-01 0.101D+00 0.235D+00 0.617D+00
 Coeff-En:   0.000D+00 0.000D+00 0.000D+00 0.000D+00 0.584D-01 0.942D+00
 Coeff:      0.171D-01-0.289D-01 0.576D-01 0.100D+00 0.233D+00 0.621D+00
 Gap=     0.110 Goal=   None    Shift=    0.000
 Gap=     0.135 Goal=   None    Shift=    0.000
 RMSDP=5.85D-04 MaxDP=4.51D-02 DE=-3.30D-03 OVMax= 5.77D-03

 Cycle   7  Pass 1  IDiag  1:
 RMSU=  2.58D-04    CP:  1.07D+00  5.81D-01  5.53D-01  4.92D-01  5.85D-01
                    CP:  7.79D-01
 E= -566.183034138914     Delta-E=       -0.000260834565 Rises=F Damp=F
 DIIS: error= 4.44D-04 at cycle   7 NSaved=   7.
 NSaved= 7 IEnMin= 7 EnMin= -566.183034138914     IErMin= 7 ErrMin= 4.44D-04
 ErrMax= 4.44D-04  0.00D+00 EMaxC= 1.00D-01 BMatC= 9.55D-05 BMatP= 1.13D-03
 IDIUse=3 WtCom= 9.96D-01 WtEn= 4.44D-03
 Coeff-Com:  0.243D-02-0.695D-02-0.129D-01-0.192D-01 0.152D-01 0.268D+00
 Coeff-Com:  0.753D+00
 Coeff-En:   0.000D+00 0.000D+00 0.000D+00 0.000D+00 0.000D+00 0.000D+00
 Coeff-En:   0.100D+01
 Coeff:      0.242D-02-0.692D-02-0.129D-01-0.191D-01 0.151D-01 0.267D+00
 Coeff:      0.755D+00
 Gap=     0.111 Goal=   None    Shift=    0.000
 Gap=     0.136 Goal=   None    Shift=    0.000
 RMSDP=4.17D-04 MaxDP=3.94D-02 DE=-2.61D-04 OVMax= 3.42D-03

 Cycle   8  Pass 1  IDiag  1:
 RMSU=  1.79D-04    CP:  1.07D+00  5.78D-01  5.42D-01  5.10D-01  5.35D-01
                    CP:  9.56D-01  6.18D-01
 E= -566.183069753231     Delta-E=       -0.000035614317 Rises=F Damp=F
 DIIS: error= 2.54D-04 at cycle   8 NSaved=   8.
 NSaved= 8 IEnMin= 8 EnMin= -566.183069753231     IErMin= 8 ErrMin= 2.54D-04
 ErrMax= 2.54D-04  0.00D+00 EMaxC= 1.00D-01 BMatC= 1.78D-05 BMatP= 9.55D-05
 IDIUse=3 WtCom= 9.97D-01 WtEn= 2.54D-03
 Coeff-Com: -0.208D-02 0.257D-02-0.168D-01-0.290D-01-0.426D-01-0.206D-02
 Coeff-Com:  0.326D+00 0.764D+00
 Coeff-En:   0.000D+00 0.000D+00 0.000D+00 0.000D+00 0.000D+00 0.000D+00
 Coeff-En:   0.000D+00 0.100D+01
 Coeff:     -0.207D-02 0.256D-02-0.168D-01-0.289D-01-0.425D-01-0.206D-02
 Coeff:      0.325D+00 0.765D+00
 Gap=     0.111 Goal=   None    Shift=    0.000
 Gap=     0.136 Goal=   None    Shift=    0.000
 RMSDP=1.79D-04 MaxDP=2.00D-02 DE=-3.56D-05 OVMax= 3.50D-03

 Cycle   9  Pass 1  IDiag  1:
 RMSU=  7.53D-05    CP:  1.07D+00  5.77D-01  5.48D-01  5.00D-01  5.46D-01
                    CP:  9.37D-01  8.53D-01  7.55D-01
 E= -566.183077899915     Delta-E=       -0.000008146684 Rises=F Damp=F
 DIIS: error= 1.32D-04 at cycle   9 NSaved=   9.
 NSaved= 9 IEnMin= 9 EnMin= -566.183077899915     IErMin= 9 ErrMin= 1.32D-04
 ErrMax= 1.32D-04  0.00D+00 EMaxC= 1.00D-01 BMatC= 1.33D-05 BMatP= 1.78D-05
 IDIUse=3 WtCom= 9.99D-01 WtEn= 1.32D-03
 Coeff-Com: -0.204D-02 0.375D-02-0.739D-02-0.137D-01-0.373D-01-0.107D+00
 Coeff-Com: -0.514D-01 0.598D+00 0.617D+00
 Coeff-En:   0.000D+00 0.000D+00 0.000D+00 0.000D+00 0.000D+00 0.000D+00
 Coeff-En:   0.000D+00 0.000D+00 0.100D+01
 Coeff:     -0.204D-02 0.375D-02-0.738D-02-0.137D-01-0.373D-01-0.107D+00
 Coeff:     -0.513D-01 0.597D+00 0.617D+00
 Gap=     0.111 Goal=   None    Shift=    0.000
 Gap=     0.136 Goal=   None    Shift=    0.000
 RMSDP=7.42D-05 MaxDP=8.38D-03 DE=-8.15D-06 OVMax= 1.30D-03

 Cycle  10  Pass 1  IDiag  1:
 RMSU=  5.01D-05    CP:  1.07D+00  5.76D-01  5.48D-01  4.99D-01  5.49D-01
                    CP:  9.61D-01  8.52D-01  9.61D-01  7.56D-01
 E= -566.183081983205     Delta-E=       -0.000004083290 Rises=F Damp=F
 DIIS: error= 8.06D-05 at cycle  10 NSaved=  10.
 NSaved=10 IEnMin=10 EnMin= -566.183081983205     IErMin=10 ErrMin= 8.06D-05
 ErrMax= 8.06D-05  0.00D+00 EMaxC= 1.00D-01 BMatC= 2.18D-06 BMatP= 1.33D-05
 IDIUse=1 WtCom= 1.00D+00 WtEn= 0.00D+00
 Coeff-Com: -0.106D-02 0.205D-02-0.297D-02-0.562D-02-0.201D-01-0.751D-01
 Coeff-Com: -0.800D-01 0.326D+00 0.405D+00 0.452D+00
 Coeff:     -0.106D-02 0.205D-02-0.297D-02-0.562D-02-0.201D-01-0.751D-01
 Coeff:     -0.800D-01 0.326D+00 0.405D+00 0.452D+00
 Gap=     0.111 Goal=   None    Shift=    0.000
 Gap=     0.136 Goal=   None    Shift=    0.000
 RMSDP=3.46D-05 MaxDP=4.21D-03 DE=-4.08D-06 OVMax= 5.79D-04

 Cycle  11  Pass 1  IDiag  1:
 RMSU=  1.32D-05    CP:  1.07D+00  5.77D-01  5.47D-01  5.00D-01  5.45D-01
                    CP:  9.67D-01  8.52D-01  1.01D+00  9.76D-01  5.78D-01
 E= -566.183082498923     Delta-E=       -0.000000515719 Rises=F Damp=F
 DIIS: error= 2.96D-05 at cycle  11 NSaved=  11.
 NSaved=11 IEnMin=11 EnMin= -566.183082498923     IErMin=11 ErrMin= 2.96D-05
 ErrMax= 2.96D-05  0.00D+00 EMaxC= 1.00D-01 BMatC= 3.62D-07 BMatP= 2.18D-06
 IDIUse=1 WtCom= 1.00D+00 WtEn= 0.00D+00
 Coeff-Com: -0.972D-04 0.224D-03 0.158D-03 0.294D-03-0.232D-02-0.182D-01
 Coeff-Com: -0.387D-01 0.457D-01 0.671D-01 0.303D+00 0.643D+00
 Coeff:     -0.972D-04 0.224D-03 0.158D-03 0.294D-03-0.232D-02-0.182D-01
 Coeff:     -0.387D-01 0.457D-01 0.671D-01 0.303D+00 0.643D+00
 Gap=     0.111 Goal=   None    Shift=    0.000
 Gap=     0.136 Goal=   None    Shift=    0.000
 RMSDP=1.27D-05 MaxDP=1.26D-03 DE=-5.16D-07 OVMax= 2.11D-04

 Cycle  12  Pass 1  IDiag  1:
 RMSU=  3.73D-06    CP:  1.07D+00  5.76D-01  5.47D-01  5.00D-01  5.43D-01
                    CP:  9.69D-01  8.52D-01  1.05D+00  9.25D-01  6.89D-01
                    CP:  9.82D-01
 E= -566.183082592006     Delta-E=       -0.000000093082 Rises=F Damp=F
 DIIS: error= 5.05D-06 at cycle  12 NSaved=  12.
 NSaved=12 IEnMin=12 EnMin= -566.183082592006     IErMin=12 ErrMin= 5.05D-06
 ErrMax= 5.05D-06  0.00D+00 EMaxC= 1.00D-01 BMatC= 2.07D-08 BMatP= 3.62D-07
 IDIUse=1 WtCom= 1.00D+00 WtEn= 0.00D+00
 Coeff-Com:  0.256D-04-0.239D-04 0.253D-03 0.504D-03 0.482D-04-0.335D-02
 Coeff-Com: -0.120D-01 0.587D-03 0.173D-02 0.110D+00 0.288D+00 0.614D+00
 Coeff:      0.256D-04-0.239D-04 0.253D-03 0.504D-03 0.482D-04-0.335D-02
 Coeff:     -0.120D-01 0.587D-03 0.173D-02 0.110D+00 0.288D+00 0.614D+00
 Gap=     0.111 Goal=   None    Shift=    0.000
 Gap=     0.136 Goal=   None    Shift=    0.000
 RMSDP=2.62D-06 MaxDP=1.60D-04 DE=-9.31D-08 OVMax= 2.46D-05

 Cycle  13  Pass 1  IDiag  1:
 RMSU=  1.61D-06    CP:  1.07D+00  5.76D-01  5.47D-01  5.00D-01  5.44D-01
                    CP:  9.69D-01  8.51D-01  1.05D+00  9.35D-01  7.15D-01
                    CP:  9.80D-01  9.37D-01
 E= -566.183082596789     Delta-E=       -0.000000004783 Rises=F Damp=F
 DIIS: error= 3.17D-06 at cycle  13 NSaved=  13.
 NSaved=13 IEnMin=13 EnMin= -566.183082596789     IErMin=13 ErrMin= 3.17D-06
 ErrMax= 3.17D-06  0.00D+00 EMaxC= 1.00D-01 BMatC= 7.60D-09 BMatP= 2.07D-08
 IDIUse=1 WtCom= 1.00D+00 WtEn= 0.00D+00
 Coeff-Com:  0.425D-04-0.694D-04 0.134D-03 0.279D-03 0.500D-03 0.173D-02
 Coeff-Com:  0.309D-03-0.910D-02-0.138D-01 0.794D-02 0.449D-01 0.395D+00
 Coeff-Com:  0.572D+00
 Coeff:      0.425D-04-0.694D-04 0.134D-03 0.279D-03 0.500D-03 0.173D-02
 Coeff:      0.309D-03-0.910D-02-0.138D-01 0.794D-02 0.449D-01 0.395D+00
 Coeff:      0.572D+00
 Gap=     0.111 Goal=   None    Shift=    0.000
 Gap=     0.136 Goal=   None    Shift=    0.000
 RMSDP=1.36D-06 MaxDP=1.08D-04 DE=-4.78D-09 OVMax= 2.13D-05

 Cycle  14  Pass 1  IDiag  1:
 RMSU=  7.89D-07    CP:  1.07D+00  5.76D-01  5.47D-01  5.00D-01  5.44D-01
                    CP:  9.69D-01  8.51D-01  1.05D+00  9.41D-01  7.21D-01
                    CP:  1.01D+00  1.02D+00  1.10D+00
 E= -566.183082598720     Delta-E=       -0.000000001931 Rises=F Damp=F
 DIIS: error= 2.27D-06 at cycle  14 NSaved=  14.
 NSaved=14 IEnMin=14 EnMin= -566.183082598720     IErMin=14 ErrMin= 2.27D-06
 ErrMax= 2.27D-06  0.00D+00 EMaxC= 1.00D-01 BMatC= 2.62D-09 BMatP= 7.60D-09
 IDIUse=1 WtCom= 1.00D+00 WtEn= 0.00D+00
 Coeff-Com:  0.230D-04-0.416D-04 0.341D-04 0.736D-04 0.352D-03 0.198D-02
 Coeff-Com:  0.287D-02-0.596D-02-0.101D-01-0.189D-01-0.377D-01 0.120D+00
 Coeff-Com:  0.409D+00 0.538D+00
 Coeff:      0.230D-04-0.416D-04 0.341D-04 0.736D-04 0.352D-03 0.198D-02
 Coeff:      0.287D-02-0.596D-02-0.101D-01-0.189D-01-0.377D-01 0.120D+00
 Coeff:      0.409D+00 0.538D+00
 Gap=     0.111 Goal=   None    Shift=    0.000
 Gap=     0.136 Goal=   None    Shift=    0.000
 RMSDP=7.62D-07 MaxDP=4.64D-05 DE=-1.93D-09 OVMax= 1.49D-05

 Cycle  15  Pass 1  IDiag  1:
 RMSU=  3.32D-07    CP:  1.07D+00  5.76D-01  5.47D-01  5.00D-01  5.44D-01
                    CP:  9.69D-01  8.50D-01  1.05D+00  9.38D-01  7.28D-01
                    CP:  1.02D+00  1.10D+00  1.25D+00  8.58D-01
 E= -566.183082599502     Delta-E=       -0.000000000782 Rises=F Damp=F
 DIIS: error= 6.59D-07 at cycle  15 NSaved=  15.
 NSaved=15 IEnMin=15 EnMin= -566.183082599502     IErMin=15 ErrMin= 6.59D-07
 ErrMax= 6.59D-07  0.00D+00 EMaxC= 1.00D-01 BMatC= 4.51D-10 BMatP= 2.62D-09
 IDIUse=1 WtCom= 1.00D+00 WtEn= 0.00D+00
 Coeff-Com: -0.799D-05 0.101D-04-0.363D-04-0.795D-04 0.451D-04 0.575D-03
 Coeff-Com:  0.165D-02 0.362D-03-0.112D-02-0.140D-01-0.430D-01-0.991D-01
 Coeff-Com:  0.589D-02 0.298D+00 0.851D+00
 Coeff:     -0.799D-05 0.101D-04-0.363D-04-0.795D-04 0.451D-04 0.575D-03
 Coeff:      0.165D-02 0.362D-03-0.112D-02-0.140D-01-0.430D-01-0.991D-01
 Coeff:      0.589D-02 0.298D+00 0.851D+00
 Gap=     0.111 Goal=   None    Shift=    0.000
 Gap=     0.136 Goal=   None    Shift=    0.000
 RMSDP=7.72D-07 MaxDP=4.77D-05 DE=-7.82D-10 OVMax= 9.54D-06

 Cycle  16  Pass 1  IDiag  1:
 RMSU=  1.68D-07    CP:  1.07D+00  5.76D-01  5.47D-01  5.00D-01  5.44D-01
                    CP:  9.69D-01  8.50D-01  1.05D+00  9.37D-01  7.30D-01
                    CP:  1.03D+00  1.18D+00  1.41D+00  1.07D+00  1.22D+00
 E= -566.183082599813     Delta-E=       -0.000000000311 Rises=F Damp=F
 DIIS: error= 2.58D-07 at cycle  16 NSaved=  16.
 NSaved=16 IEnMin=16 EnMin= -566.183082599813     IErMin=16 ErrMin= 2.58D-07
 ErrMax= 2.58D-07  0.00D+00 EMaxC= 1.00D-01 BMatC= 4.95D-11 BMatP= 4.51D-10
 IDIUse=1 WtCom= 1.00D+00 WtEn= 0.00D+00
 Coeff-Com: -0.627D-05 0.964D-05-0.598D-05-0.108D-04-0.670D-04-0.486D-03
 Coeff-Com: -0.760D-03 0.124D-02 0.185D-02 0.600D-02 0.102D-01-0.111D-01
 Coeff-Com: -0.838D-01-0.151D+00-0.305D-01 0.126D+01
 Coeff:     -0.627D-05 0.964D-05-0.598D-05-0.108D-04-0.670D-04-0.486D-03
 Coeff:     -0.760D-03 0.124D-02 0.185D-02 0.600D-02 0.102D-01-0.111D-01
 Coeff:     -0.838D-01-0.151D+00-0.305D-01 0.126D+01
 Gap=     0.111 Goal=   None    Shift=    0.000
 Gap=     0.136 Goal=   None    Shift=    0.000
 RMSDP=3.35D-07 MaxDP=2.30D-05 DE=-3.11D-10 OVMax= 5.41D-06

 Cycle  17  Pass 1  IDiag  1:
 RMSU=  8.72D-08    CP:  1.07D+00  5.76D-01  5.47D-01  5.00D-01  5.44D-01
                    CP:  9.69D-01  8.49D-01  1.05D+00  9.36D-01  7.34D-01
                    CP:  1.03D+00  1.20D+00  1.52D+00  1.20D+00  1.47D+00
                    CP:  1.33D+00
 E= -566.183082599868     Delta-E=       -0.000000000055 Rises=F Damp=F
 DIIS: error= 1.50D-07 at cycle  17 NSaved=  17.
 NSaved=17 IEnMin=17 EnMin= -566.183082599868     IErMin=17 ErrMin= 1.50D-07
 ErrMax= 1.50D-07  0.00D+00 EMaxC= 1.00D-01 BMatC= 1.03D-11 BMatP= 4.95D-11
 IDIUse=1 WtCom= 1.00D+00 WtEn= 0.00D+00
 Coeff-Com:  0.609D-06-0.361D-06 0.471D-05 0.127D-04-0.375D-04-0.248D-03
 Coeff-Com: -0.482D-03 0.170D-03 0.823D-03 0.461D-02 0.102D-01 0.178D-01
 Coeff-Com: -0.231D-01-0.101D+00-0.166D+00 0.325D+00 0.932D+00
 Coeff:      0.609D-06-0.361D-06 0.471D-05 0.127D-04-0.375D-04-0.248D-03
 Coeff:     -0.482D-03 0.170D-03 0.823D-03 0.461D-02 0.102D-01 0.178D-01
 Coeff:     -0.231D-01-0.101D+00-0.166D+00 0.325D+00 0.932D+00
 Gap=     0.111 Goal=   None    Shift=    0.000
 Gap=     0.136 Goal=   None    Shift=    0.000
 RMSDP=1.20D-07 MaxDP=8.56D-06 DE=-5.53D-11 OVMax= 1.79D-06

 Cycle  18  Pass 1  IDiag  1:
 RMSU=  3.58D-08    CP:  1.07D+00  5.76D-01  5.47D-01  5.00D-01  5.44D-01
                    CP:  9.69D-01  8.50D-01  1.05D+00  9.36D-01  7.34D-01
                    CP:  1.03D+00  1.21D+00  1.53D+00  1.21D+00  1.62D+00
                    CP:  1.55D+00  1.03D+00
 E= -566.183082599880     Delta-E=       -0.000000000012 Rises=F Damp=F
 DIIS: error= 5.75D-08 at cycle  18 NSaved=  18.
 NSaved=18 IEnMin=18 EnMin= -566.183082599880     IErMin=18 ErrMin= 5.75D-08
 ErrMax= 5.75D-08  0.00D+00 EMaxC= 1.00D-01 BMatC= 2.97D-12 BMatP= 1.03D-11
 IDIUse=1 WtCom= 1.00D+00 WtEn= 0.00D+00
 Coeff-Com:  0.162D-05-0.204D-05 0.353D-05 0.831D-05-0.129D-04-0.678D-04
 Coeff-Com: -0.153D-03-0.951D-04 0.236D-03 0.175D-02 0.388D-02 0.111D-01
 Coeff-Com: -0.991D-03-0.341D-01-0.820D-01 0.119D-01 0.464D+00 0.624D+00
 Coeff:      0.162D-05-0.204D-05 0.353D-05 0.831D-05-0.129D-04-0.678D-04
 Coeff:     -0.153D-03-0.951D-04 0.236D-03 0.175D-02 0.388D-02 0.111D-01
 Coeff:     -0.991D-03-0.341D-01-0.820D-01 0.119D-01 0.464D+00 0.624D+00
 Gap=     0.111 Goal=   None    Shift=    0.000
 Gap=     0.136 Goal=   None    Shift=    0.000
 RMSDP=4.07D-08 MaxDP=3.93D-06 DE=-1.18D-11 OVMax= 5.76D-07

 Cycle  19  Pass 1  IDiag  1:
 RMSU=  1.63D-08    CP:  1.07D+00  5.76D-01  5.47D-01  5.00D-01  5.44D-01
                    CP:  9.69D-01  8.50D-01  1.05D+00  9.36D-01  7.34D-01
                    CP:  1.03D+00  1.22D+00  1.54D+00  1.22D+00  1.63D+00
                    CP:  1.59D+00  1.10D+00  1.01D+00
 E= -566.183082599875     Delta-E=        0.000000000005 Rises=F Damp=F
 DIIS: error= 2.44D-08 at cycle  19 NSaved=  19.
 NSaved=19 IEnMin=18 EnMin= -566.183082599880     IErMin=19 ErrMin= 2.44D-08
 ErrMax= 2.44D-08  0.00D+00 EMaxC= 1.00D-01 BMatC= 5.09D-13 BMatP= 2.97D-12
 IDIUse=1 WtCom= 1.00D+00 WtEn= 0.00D+00
 Coeff-Com:  0.854D-06-0.115D-05 0.103D-05 0.147D-05 0.136D-05 0.169D-04
 Coeff-Com:  0.224D-04-0.910D-04-0.225D-04-0.460D-04-0.228D-03 0.158D-02
 Coeff-Com:  0.345D-02 0.308D-02-0.472D-02-0.512D-01 0.153D-01 0.263D+00
 Coeff-Com:  0.770D+00
 Coeff:      0.854D-06-0.115D-05 0.103D-05 0.147D-05 0.136D-05 0.169D-04
 Coeff:      0.224D-04-0.910D-04-0.225D-04-0.460D-04-0.228D-03 0.158D-02
 Coeff:      0.345D-02 0.308D-02-0.472D-02-0.512D-01 0.153D-01 0.263D+00
 Coeff:      0.770D+00
 Gap=     0.111 Goal=   None    Shift=    0.000
 Gap=     0.136 Goal=   None    Shift=    0.000
 RMSDP=2.22D-08 MaxDP=2.74D-06 DE= 5.46D-12 OVMax= 3.32D-07

 Cycle  20  Pass 1  IDiag  1:
 RMSU=  6.92D-09    CP:  1.07D+00  5.76D-01  5.47D-01  5.00D-01  5.44D-01
                    CP:  9.69D-01  8.50D-01  1.05D+00  9.36D-01  7.34D-01
                    CP:  1.03D+00  1.22D+00  1.54D+00  1.22D+00  1.63D+00
                    CP:  1.60D+00  1.15D+00  1.10D+00  9.68D-01
 E= -566.183082599881     Delta-E=       -0.000000000006 Rises=F Damp=F
 DIIS: error= 1.39D-08 at cycle  20 NSaved=  20.
 NSaved=20 IEnMin=20 EnMin= -566.183082599881     IErMin=20 ErrMin= 1.39D-08
 ErrMax= 1.39D-08  0.00D+00 EMaxC= 1.00D-01 BMatC= 1.10D-13 BMatP= 5.09D-13
 IDIUse=1 WtCom= 1.00D+00 WtEn= 0.00D+00
 Coeff-Com:  0.120D-06-0.174D-06-0.413D-07-0.769D-06 0.287D-05 0.184D-04
 Coeff-Com:  0.361D-04-0.304D-04-0.331D-04-0.305D-03-0.734D-03-0.109D-02
 Coeff-Com:  0.145D-02 0.671D-02 0.118D-01-0.238D-01-0.735D-01-0.531D-03
 Coeff-Com:  0.364D+00 0.716D+00
 Coeff:      0.120D-06-0.174D-06-0.413D-07-0.769D-06 0.287D-05 0.184D-04
 Coeff:      0.361D-04-0.304D-04-0.331D-04-0.305D-03-0.734D-03-0.109D-02
 Coeff:      0.145D-02 0.671D-02 0.118D-01-0.238D-01-0.735D-01-0.531D-03
 Coeff:      0.364D+00 0.716D+00
 Gap=     0.111 Goal=   None    Shift=    0.000
 Gap=     0.136 Goal=   None    Shift=    0.000
 RMSDP=9.32D-09 MaxDP=9.08D-07 DE=-5.91D-12 OVMax= 1.86D-07

 SCF Done:  E(UB3LYP) =  -566.183082600     A.U. after   20 cycles
            NFock= 20  Conv=0.93D-08     -V/T= 2.0036
 <Sx>= 0.0000 <Sy>= 0.0000 <Sz>= 0.5000 <S**2>= 0.7626 S= 0.5063
 <L.S>=  0.00000000000    
 KE= 5.641575556012D+02 PE=-2.499332249556D+03 EE= 7.870063998836D+02
 Annihilation of the first spin contaminant:
 S**2 before annihilation     0.7626,   after     0.7501
 Leave Link  502 at Sun Dec 17 20:50:14 2023, MaxMem=  4026531840 cpu:             622.6 elap:              78.5
 (Enter /sysapps/ubuntu-applications/gaussian/Gaussian/AVX2/g16/l601.exe)
 Copying SCF densities to generalized density rwf, IOpCl= 1 IROHF=0.

 **********************************************************************

            Population analysis using the SCF density.

 **********************************************************************

 Alpha  occ. eigenvalues --  -18.97265 -18.97105 -14.19985 -14.19857 -10.12975
 Alpha  occ. eigenvalues --  -10.12837 -10.09955 -10.09921 -10.09832 -10.09811
 Alpha  occ. eigenvalues --  -10.07704 -10.07475  -0.90008  -0.89549  -0.79834
 Alpha  occ. eigenvalues --   -0.78613  -0.74819  -0.69263  -0.59681  -0.53977
 Alpha  occ. eigenvalues --   -0.52434  -0.41934  -0.40584  -0.39563  -0.36179
 Alpha  occ. eigenvalues --   -0.32891  -0.30126  -0.28761  -0.28322  -0.27521
 Alpha  occ. eigenvalues --   -0.25762  -0.25723  -0.25364  -0.23298  -0.22640
 Alpha  occ. eigenvalues --   -0.21230  -0.18250  -0.16958  -0.13695  -0.13364
 Alpha  occ. eigenvalues --   -0.06052
 Alpha virt. eigenvalues --    0.05089   0.08476   0.10295   0.11223   0.12190
 Alpha virt. eigenvalues --    0.12555   0.14766   0.15175   0.15281   0.16003
 Alpha virt. eigenvalues --    0.16764   0.16792   0.17739   0.18202   0.18264
 Alpha virt. eigenvalues --    0.19240   0.19384   0.19568   0.20000   0.21292
 Alpha virt. eigenvalues --    0.22137   0.22641   0.22816   0.23521   0.23734
 Alpha virt. eigenvalues --    0.25607   0.25997   0.26491   0.26966   0.28555
 Alpha virt. eigenvalues --    0.28763   0.29445   0.30830   0.30980   0.32664
 Alpha virt. eigenvalues --    0.32901   0.33197   0.33873   0.34306   0.35337
 Alpha virt. eigenvalues --    0.35391   0.35885   0.36326   0.36853   0.37511
 Alpha virt. eigenvalues --    0.37901   0.38807   0.39073   0.39319   0.40247
 Alpha virt. eigenvalues --    0.40310   0.41898   0.42172   0.42257   0.42605
 Alpha virt. eigenvalues --    0.43821   0.44883   0.45318   0.46578   0.49758
 Alpha virt. eigenvalues --    0.51873   0.52085   0.52963   0.53581   0.54431
 Alpha virt. eigenvalues --    0.57636   0.62612   0.63290   0.67850   0.68070
 Alpha virt. eigenvalues --    0.68799   0.69700   0.70329   0.70757   0.74776
 Alpha virt. eigenvalues --    0.75685   0.76028   0.76874   0.78021   0.78632
 Alpha virt. eigenvalues --    0.78923   0.81602   0.81962   0.85181   0.85523
 Alpha virt. eigenvalues --    0.86517   0.89431   0.92521   0.93758   0.95618
 Alpha virt. eigenvalues --    0.96185   0.97283   0.97589   0.99462   1.00348
 Alpha virt. eigenvalues --    1.01776   1.03066   1.05163   1.05466   1.06846
 Alpha virt. eigenvalues --    1.06935   1.08415   1.10556   1.12147   1.14444
 Alpha virt. eigenvalues --    1.14922   1.15271   1.16464   1.17262   1.19747
 Alpha virt. eigenvalues --    1.19840   1.23959   1.24361   1.25132   1.32719
 Alpha virt. eigenvalues --    1.33782   1.35252   1.36725   1.38319   1.39314
 Alpha virt. eigenvalues --    1.40468   1.42908   1.43239   1.46599   1.47828
 Alpha virt. eigenvalues --    1.51899   1.55799   1.58580   1.60661   1.64342
 Alpha virt. eigenvalues --    1.65514   1.68521   1.69118   1.69284   1.77799
 Alpha virt. eigenvalues --    1.78277   1.81629   1.82752   1.84553   1.88520
 Alpha virt. eigenvalues --    1.88843   1.93457   1.94221   1.96005   1.99205
 Alpha virt. eigenvalues --    2.00304   2.02955   2.03702   2.07312   2.09603
 Alpha virt. eigenvalues --    2.12342   2.15102   2.19656   2.19895   2.20452
 Alpha virt. eigenvalues --    2.22711   2.25203   2.26312   2.28462   2.36730
 Alpha virt. eigenvalues --    2.39651   2.44138   2.46207   2.49812   2.66015
 Alpha virt. eigenvalues --    2.68948   2.73193   2.75076   2.76456   2.77183
 Alpha virt. eigenvalues --    2.79830   2.83212   2.85430   2.88758   2.90014
 Alpha virt. eigenvalues --    2.92397   2.95359   2.96780   2.99530   3.00754
 Alpha virt. eigenvalues --    3.02127   3.03192   3.03776   3.08306   3.09452
 Alpha virt. eigenvalues --    3.11856   3.14543   3.17057   3.21425   3.21462
 Alpha virt. eigenvalues --    3.22507   3.22963   3.31205   3.32495   3.36881
 Alpha virt. eigenvalues --    3.42816   3.43218   3.44475   3.45576   3.58972
 Alpha virt. eigenvalues --    3.59903   3.62974   3.70777   3.73628   3.81828
 Alpha virt. eigenvalues --    3.86125   4.08435   4.11380   4.12813   4.17181
 Alpha virt. eigenvalues --    4.19198   4.23669   4.26550   4.30560   4.35255
 Alpha virt. eigenvalues --    4.68630   4.75111   4.88570   5.16948   5.18827
 Alpha virt. eigenvalues --    5.33708   5.37860   5.82756   5.92903  23.65250
 Alpha virt. eigenvalues --   23.88984  24.00774  24.04132  24.31495  24.41709
 Alpha virt. eigenvalues --   24.50164  24.61214  35.97008  36.01433  50.14211
 Alpha virt. eigenvalues --   50.18029
  Beta  occ. eigenvalues --  -18.96526 -18.96369 -14.19871 -14.19758 -10.12930
  Beta  occ. eigenvalues --  -10.12805 -10.09995 -10.09862 -10.09721 -10.09619
  Beta  occ. eigenvalues --  -10.07657 -10.07415  -0.88813  -0.88287  -0.79604
  Beta  occ. eigenvalues --   -0.78446  -0.74247  -0.69006  -0.58751  -0.53557
  Beta  occ. eigenvalues --   -0.52142  -0.41608  -0.40264  -0.39355  -0.35955
  Beta  occ. eigenvalues --   -0.31484  -0.29641  -0.28311  -0.27830  -0.25550
  Beta  occ. eigenvalues --   -0.25311  -0.25197  -0.24839  -0.22524  -0.22310
  Beta  occ. eigenvalues --   -0.21163  -0.16511  -0.14445  -0.12993  -0.12662
  Beta virt. eigenvalues --    0.00955   0.06604   0.08490   0.11242   0.11883
  Beta virt. eigenvalues --    0.12268   0.12591   0.14790   0.15221   0.15426
  Beta virt. eigenvalues --    0.16057   0.16820   0.17119   0.17902   0.18237
  Beta virt. eigenvalues --    0.18581   0.19300   0.19561   0.19956   0.20052
  Beta virt. eigenvalues --    0.21327   0.22153   0.22675   0.22911   0.23758
  Beta virt. eigenvalues --    0.23889   0.25704   0.26246   0.26680   0.27010
  Beta virt. eigenvalues --    0.28615   0.28823   0.29472   0.30827   0.31549
  Beta virt. eigenvalues --    0.33010   0.33214   0.33280   0.33931   0.34415
  Beta virt. eigenvalues --    0.35402   0.35517   0.35989   0.36467   0.36904
  Beta virt. eigenvalues --    0.37796   0.37922   0.38873   0.39136   0.39419
  Beta virt. eigenvalues --    0.40372   0.40789   0.42056   0.42261   0.42382
  Beta virt. eigenvalues --    0.43216   0.43935   0.45089   0.45387   0.46662
  Beta virt. eigenvalues --    0.49927   0.52020   0.52256   0.53235   0.53760
  Beta virt. eigenvalues --    0.54683   0.57909   0.62679   0.63494   0.67907
  Beta virt. eigenvalues --    0.68321   0.68924   0.69847   0.70745   0.71096
  Beta virt. eigenvalues --    0.74924   0.75921   0.76099   0.77123   0.78355
  Beta virt. eigenvalues --    0.78750   0.79184   0.81674   0.82011   0.85226
  Beta virt. eigenvalues --    0.85551   0.87050   0.89616   0.92649   0.93864
  Beta virt. eigenvalues --    0.95695   0.96312   0.97434   0.97737   0.99796
  Beta virt. eigenvalues --    1.00719   1.01887   1.03117   1.05499   1.05592
  Beta virt. eigenvalues --    1.06975   1.07507   1.08547   1.10726   1.12226
  Beta virt. eigenvalues --    1.14776   1.15197   1.15464   1.16624   1.17520
  Beta virt. eigenvalues --    1.19937   1.20346   1.25376   1.25605   1.25970
  Beta virt. eigenvalues --    1.33045   1.34162   1.35998   1.37500   1.38569
  Beta virt. eigenvalues --    1.39435   1.40758   1.43071   1.43510   1.46883
  Beta virt. eigenvalues --    1.47955   1.52112   1.55904   1.58561   1.60757
  Beta virt. eigenvalues --    1.64774   1.65614   1.68785   1.69248   1.69787
  Beta virt. eigenvalues --    1.77954   1.78455   1.81854   1.82925   1.84804
  Beta virt. eigenvalues --    1.88844   1.89174   1.93808   1.94655   1.96423
  Beta virt. eigenvalues --    1.99493   2.00516   2.03642   2.04384   2.07484
  Beta virt. eigenvalues --    2.09758   2.12972   2.15247   2.20022   2.20240
  Beta virt. eigenvalues --    2.20767   2.23057   2.25614   2.26764   2.28639
  Beta virt. eigenvalues --    2.37320   2.40312   2.44432   2.46405   2.49904
  Beta virt. eigenvalues --    2.66547   2.69063   2.73450   2.75516   2.76636
  Beta virt. eigenvalues --    2.77808   2.79943   2.83333   2.85520   2.89326
  Beta virt. eigenvalues --    2.90692   2.92539   2.95923   2.96879   2.99797
  Beta virt. eigenvalues --    3.01758   3.03203   3.04382   3.05254   3.09641
  Beta virt. eigenvalues --    3.09873   3.12569   3.15427   3.17288   3.21568
  Beta virt. eigenvalues --    3.22296   3.22756   3.23110   3.31337   3.32757
  Beta virt. eigenvalues --    3.37013   3.42957   3.44801   3.45039   3.47382
  Beta virt. eigenvalues --    3.59248   3.60140   3.63382   3.71102   3.73901
  Beta virt. eigenvalues --    3.82126   3.86722   4.08890   4.11834   4.13005
  Beta virt. eigenvalues --    4.17311   4.19326   4.24015   4.26945   4.30909
  Beta virt. eigenvalues --    4.35629   4.68729   4.75223   4.89023   5.20015
  Beta virt. eigenvalues --    5.21889   5.34321   5.38468   5.83340   5.93471
  Beta virt. eigenvalues --   23.65391  23.89098  24.00846  24.04192  24.31702
  Beta virt. eigenvalues --   24.41781  24.50165  24.61187  35.97118  36.01547
  Beta virt. eigenvalues --   50.14952  50.18771
          Condensed to atoms (all electrons):
               1          2          3          4          5          6
     1  O    8.269770   0.716007  -0.232589   0.035393  -0.055699   0.000439
     2  C    0.716007  10.700594  -3.401509   2.151524   0.295832  -0.062215
     3  C   -0.232589  -3.401509  15.621058  -5.606718   2.157621   0.030354
     4  C    0.035393   2.151524  -5.606718  15.913549  -3.406657  -0.202393
     5  C   -0.055699   0.295832   2.157621  -3.406657  10.869761   0.729696
     6  O    0.000439  -0.062215   0.030354  -0.202393   0.729696   8.269878
     7  C   -0.146377  -2.499498   3.524971  -6.094831  -0.524659  -0.195205
     8  C   -0.192213   0.791111  -5.734523   3.932956  -1.582039  -0.137420
     9  C   -0.069594  -0.320124  -3.449346   2.234618  -1.610035   0.040749
    10  N    0.009979  -0.001446   0.075563  -0.035870   0.032597  -0.000273
    11  C    0.041654  -1.568104   2.418134  -3.679538   0.069062  -0.113205
    12  N   -0.000363   0.038442  -0.039890   0.076641  -0.032865   0.010615
    13  H   -0.018991  -0.152491   0.601351  -0.173088   0.071456   0.001909
    14  H    0.001909   0.080705  -0.179714   0.619135  -0.160058  -0.017410
               7          8          9         10         11         12
     1  O   -0.146377  -0.192213  -0.069594   0.009979   0.041654  -0.000363
     2  C   -2.499498   0.791111  -0.320124  -0.001446  -1.568104   0.038442
     3  C    3.524971  -5.734523  -3.449346   0.075563   2.418134  -0.039890
     4  C   -6.094831   3.932956   2.234618  -0.035870  -3.679538   0.076641
     5  C   -0.524659  -1.582039  -1.610035   0.032597   0.069062  -0.032865
     6  O   -0.195205  -0.137420   0.040749  -0.000273  -0.113205   0.010615
     7  C   30.523450 -15.040909   1.266035  -0.050529  -6.864503   0.596042
     8  C  -15.040909  28.549608  -7.448629   0.619870   0.718728  -0.025289
     9  C    1.266035  -7.448629  18.228468  -0.318476  -1.486041   0.036881
    10  N   -0.050529   0.619870  -0.318476   6.856564   0.046324   0.002075
    11  C   -6.864503   0.718728  -1.486041   0.046324  17.712005  -0.283764
    12  N    0.596042  -0.025289   0.036881   0.002075  -0.283764   6.861575
    13  H    0.130003  -0.116460  -0.065941   0.001585   0.014617   0.000014
    14  H   -0.128741   0.137397   0.010753   0.000098  -0.066872   0.001504
              13         14
     1  O   -0.018991   0.001909
     2  C   -0.152491   0.080705
     3  C    0.601351  -0.179714
     4  C   -0.173088   0.619135
     5  C    0.071456  -0.160058
     6  O    0.001909  -0.017410
     7  C    0.130003  -0.128741
     8  C   -0.116460   0.137397
     9  C   -0.065941   0.010753
    10  N    0.001585   0.000098
    11  C    0.014617  -0.066872
    12  N    0.000014   0.001504
    13  H    0.557510  -0.025033
    14  H   -0.025033   0.557783
          Atomic-Atomic Spin Densities.
               1          2          3          4          5          6
     1  O    0.350915  -0.030631  -0.002046   0.006863  -0.001902  -0.000179
     2  C   -0.030631  -0.053334   0.003772  -0.019970  -0.050243  -0.002343
     3  C   -0.002046   0.003772  -0.016812  -0.003709  -0.018401   0.006595
     4  C    0.006863  -0.019970  -0.003709   0.019970  -0.015082  -0.000840
     5  C   -0.001902  -0.050243  -0.018401  -0.015082  -0.072624  -0.033895
     6  O   -0.000179  -0.002343   0.006595  -0.000840  -0.033895   0.348655
     7  C   -0.008607  -0.033422  -0.026099   0.082725   0.209716  -0.058962
     8  C   -0.058611   0.177228   0.075639  -0.037627  -0.055930  -0.005872
     9  C    0.016399   0.031396   0.011278   0.013955   0.022505  -0.002826
    10  N    0.000372   0.000405  -0.000019  -0.000904  -0.001767  -0.000000
    11  C   -0.004104   0.011275   0.008327   0.003080   0.034590   0.016510
    12  N    0.000022  -0.001348  -0.000962   0.000521  -0.000356   0.000462
    13  H   -0.000620  -0.005017   0.003587  -0.000395   0.001464   0.000228
    14  H    0.000248   0.001511  -0.000187   0.005181  -0.005810  -0.000632
               7          8          9         10         11         12
     1  O   -0.008607  -0.058611   0.016399   0.000372  -0.004104   0.000022
     2  C   -0.033422   0.177228   0.031396   0.000405   0.011275  -0.001348
     3  C   -0.026099   0.075639   0.011278  -0.000019   0.008327  -0.000962
     4  C    0.082725  -0.037627   0.013955  -0.000904   0.003080   0.000521
     5  C    0.209716  -0.055930   0.022505  -0.001767   0.034590  -0.000356
     6  O   -0.058962  -0.005872  -0.002826  -0.000000   0.016510   0.000462
     7  C   -0.124012   0.014219  -0.164430   0.005073   0.265765  -0.019785
     8  C    0.014219  -0.032845   0.244741  -0.018842  -0.178285   0.008379
     9  C   -0.164430   0.244741  -0.209828   0.008074   0.007818   0.001928
    10  N    0.005073  -0.018842   0.008074   0.054848   0.001878  -0.000616
    11  C    0.265765  -0.178285   0.007818   0.001878  -0.193771   0.003679
    12  N   -0.019785   0.008379   0.001928  -0.000616   0.003679   0.062658
    13  H    0.000192   0.000504  -0.000669   0.000040   0.001764  -0.000050
    14  H   -0.000708   0.000671   0.001839  -0.000046  -0.001340   0.000066
              13         14
     1  O   -0.000620   0.000248
     2  C   -0.005017   0.001511
     3  C    0.003587  -0.000187
     4  C   -0.000395   0.005181
     5  C    0.001464  -0.005810
     6  O    0.000228  -0.000632
     7  C    0.000192  -0.000708
     8  C    0.000504   0.000671
     9  C   -0.000669   0.001839
    10  N    0.000040  -0.000046
    11  C    0.001764  -0.001340
    12  N   -0.000050   0.000066
    13  H   -0.005550   0.000500
    14  H    0.000500  -0.006061
 Mulliken charges and spin densities:
               1          2
     1  O   -0.359326   0.268120
     2  C   -0.768827   0.029278
     3  C    0.215236   0.040962
     4  C    0.235278   0.053767
     5  C   -0.854013   0.012265
     6  O   -0.355521   0.266901
     7  C    1.504751   0.141665
     8  C    1.527812   0.133370
     9  C   -1.049317  -0.017819
    10  N   -0.238060   0.048496
    11  C   -0.958496  -0.022815
    12  N   -0.241620   0.054596
    13  H    0.173560  -0.004022
    14  H    0.168543  -0.004766
 Sum of Mulliken charges =  -1.00000   1.00000
 Mulliken charges and spin densities with hydrogens summed into heavy atoms:
               1          2
     1  O   -0.359326   0.268120
     2  C   -0.768827   0.029278
     3  C    0.388796   0.036941
     4  C    0.403821   0.049001
     5  C   -0.854013   0.012265
     6  O   -0.355521   0.266901
     7  C    1.504751   0.141665
     8  C    1.527812   0.133370
     9  C   -1.049317  -0.017819
    10  N   -0.238060   0.048496
    11  C   -0.958496  -0.022815
    12  N   -0.241620   0.054596
 Electronic spatial extent (au):  <R**2>=           1860.7683
 Charge=             -1.0000 electrons
 Dipole moment (field-independent basis, Debye):
    X=             -6.7146    Y=             -1.9887    Z=              0.0499  Tot=              7.0031
 Quadrupole moment (field-independent basis, Debye-Ang):
   XX=            -96.6822   YY=            -92.1703   ZZ=            -89.2567
   XY=             -1.1515   XZ=             -6.1053   YZ=             20.4466
 Traceless Quadrupole moment (field-independent basis, Debye-Ang):
   XX=             -3.9791   YY=              0.5327   ZZ=              3.4464
   XY=             -1.1515   XZ=             -6.1053   YZ=             20.4466
 Octapole moment (field-independent basis, Debye-Ang**2):
  XXX=           -190.7488  YYY=            -37.1429  ZZZ=              0.1821  XYY=            -46.0561
  XXY=            -32.4004  XXZ=             -6.9519  XZZ=            -38.1921  YZZ=            -11.3560
  YYZ=              7.2708  XYZ=             11.2348
 Hexadecapole moment (field-independent basis, Debye-Ang**3):
 XXXX=          -1618.5155 YYYY=           -818.5109 ZZZZ=           -660.9722 XXXY=           -110.7535
 XXXZ=           -139.4130 YYYX=           -127.5198 YYYZ=            351.9623 ZZZX=           -104.7286
 ZZZY=            333.9280 XXYY=           -412.0415 XXZZ=           -389.9963 YYZZ=           -296.6970
 XXYZ=            146.3174 YYXZ=            -16.2493 ZZXY=            -25.5671
 N-N= 5.819852114715D+02 E-N=-2.499332249495D+03  KE= 5.641575556012D+02
                          Isotropic Fermi Contact Couplings
        Atom                 a.u.       MegaHertz       Gauss      10(-4) cm-1
     1  O(17)              0.02530     -15.33856      -5.47318      -5.11639
     2  C(13)             -0.01104     -12.40995      -4.42818      -4.13951
     3  C(13)             -0.00272      -3.06319      -1.09302      -1.02177
     4  C(13)             -0.00178      -1.99843      -0.71309      -0.66660
     5  C(13)             -0.01149     -12.92175      -4.61080      -4.31023
     6  O(17)              0.02509     -15.21039      -5.42745      -5.07364
     7  C(13)              0.00207       2.32279       0.82883       0.77480
     8  C(13)              0.00060       0.67003       0.23908       0.22350
     9  C(13)             -0.00923     -10.37882      -3.70342      -3.46200
    10  N(14)              0.00270       0.87265       0.31138       0.29108
    11  C(13)             -0.01012     -11.37422      -4.05861      -3.79403
    12  N(14)              0.00309       0.99983       0.35676       0.33351
    13  H(1)              -0.00074      -3.28779      -1.17317      -1.09669
    14  H(1)              -0.00087      -3.87339      -1.38212      -1.29202
 --------------------------------------------------------
       Center         ----  Spin Dipole Couplings  ----
                      3XX-RR        3YY-RR        3ZZ-RR
 --------------------------------------------------------
     1   Atom       -0.496467      0.165313      0.331154
     2   Atom       -0.037171      0.013400      0.023771
     3   Atom       -0.017932      0.005845      0.012087
     4   Atom       -0.022414      0.007462      0.014953
     5   Atom       -0.032814      0.012976      0.019838
     6   Atom       -0.495799      0.166005      0.329793
     7   Atom       -0.082885      0.028565      0.054321
     8   Atom       -0.078368      0.026242      0.052127
     9   Atom        0.012525     -0.002887     -0.009638
    10   Atom       -0.046768      0.015576      0.031192
    11   Atom        0.021182     -0.010800     -0.010382
    12   Atom       -0.058444      0.020359      0.038085
    13   Atom        0.006444     -0.003039     -0.003406
    14   Atom        0.005386     -0.001866     -0.003520
 --------------------------------------------------------
                        XY            XZ            YZ
 --------------------------------------------------------
     1   Atom       -0.214764     -0.239032      0.814561
     2   Atom       -0.018194     -0.008374      0.034621
     3   Atom       -0.007743     -0.009229      0.030815
     4   Atom       -0.009694     -0.011509      0.038129
     5   Atom       -0.013720     -0.008378      0.026565
     6   Atom       -0.212301     -0.240195      0.809962
     7   Atom       -0.036420     -0.039196      0.128332
     8   Atom       -0.035341     -0.035324      0.121457
     9   Atom        0.012630     -0.003099     -0.011012
    10   Atom       -0.023201     -0.018274      0.075519
    11   Atom        0.001125      0.009786     -0.008510
    12   Atom       -0.018253     -0.026354      0.084503
    13   Atom        0.001978      0.000965     -0.000204
    14   Atom        0.004062     -0.001246     -0.000561
 --------------------------------------------------------


 ---------------------------------------------------------------------------------
              Anisotropic Spin Dipole Couplings in Principal Axis System
 ---------------------------------------------------------------------------------

       Atom             a.u.   MegaHertz   Gauss  10(-4) cm-1        Axes

              Baa    -0.5706    41.289    14.733    13.772 -0.0781  0.7294 -0.6796
     1 O(17)  Bbb    -0.5599    40.512    14.456    13.513  0.9779  0.1886  0.0900
              Bcc     1.1305   -81.800   -29.188   -27.286 -0.1938  0.6576  0.7281
 
              Baa    -0.0432    -5.795    -2.068    -1.933  0.9399  0.3368 -0.0566
     2 C(13)  Bbb    -0.0140    -1.873    -0.668    -0.625  0.2829 -0.6746  0.6818
              Bcc     0.0571     7.669     2.736     2.558 -0.1915  0.6568  0.7293
 
              Baa    -0.0221    -2.967    -1.059    -0.990 -0.2334  0.6902 -0.6849
     3 C(13)  Bbb    -0.0202    -2.715    -0.969    -0.906  0.9524  0.3042 -0.0181
              Bcc     0.0423     5.682     2.028     1.895 -0.1959  0.6565  0.7284
 
              Baa    -0.0273    -3.658    -1.305    -1.220  0.2762 -0.6746  0.6846
     4 C(13)  Bbb    -0.0253    -3.392    -1.210    -1.131  0.9407  0.3356 -0.0489
              Bcc     0.0525     7.050     2.516     2.352 -0.1967  0.6575  0.7273
 
              Baa    -0.0366    -4.916    -1.754    -1.640  0.9667  0.2547  0.0236
     5 C(13)  Bbb    -0.0096    -1.282    -0.458    -0.428 -0.1694  0.7067 -0.6869
              Bcc     0.0462     6.198     2.212     2.068 -0.1917  0.6601  0.7263
 
              Baa    -0.5677    41.075    14.657    13.701  0.3762 -0.6355  0.6742
     6 O(17)  Bbb    -0.5577    40.356    14.400    13.461  0.9060  0.4047 -0.1241
              Bcc     1.1254   -81.431   -29.057   -27.163 -0.1940  0.6576  0.7280
 
              Baa    -0.0938   -12.587    -4.491    -4.199  0.9741  0.2144  0.0720
     7 C(13)  Bbb    -0.0875   -11.736    -4.188    -3.915 -0.1084  0.7219 -0.6834
              Bcc     0.1813    24.323     8.679     8.113 -0.1985  0.6579  0.7265
 
              Baa    -0.0894   -11.997    -4.281    -4.002  0.9089  0.4004 -0.1168
     8 C(13)  Bbb    -0.0819   -10.990    -3.922    -3.666  0.3682 -0.6386  0.6757
              Bcc     0.1713    22.987     8.202     7.668 -0.1960  0.6572  0.7278
 
              Baa    -0.0188    -2.519    -0.899    -0.840 -0.1935  0.6582  0.7276
     9 C(13)  Bbb    -0.0031    -0.411    -0.147    -0.137  0.5594 -0.5352  0.6329
              Bcc     0.0218     2.931     1.046     0.978  0.8060  0.5295 -0.2646
 
              Baa    -0.0574    -2.212    -0.789    -0.738  0.6885  0.6158 -0.3831
    10 N(14)  Bbb    -0.0475    -1.834    -0.654    -0.612  0.7003 -0.4270  0.5721
              Bcc     0.1049     4.046     1.444     1.350 -0.1887  0.6622  0.7252
 
              Baa    -0.0206    -2.761    -0.985    -0.921 -0.1887  0.6571  0.7298
    11 C(13)  Bbb    -0.0034    -0.462    -0.165    -0.154  0.2131  0.7529 -0.6227
              Bcc     0.0240     3.223     1.150     1.075  0.9586 -0.0380  0.2821
 
              Baa    -0.0657    -2.535    -0.905    -0.846  0.9137 -0.1690  0.3695
    12 N(14)  Bbb    -0.0541    -2.088    -0.745    -0.696  0.3664  0.7358 -0.5695
              Bcc     0.1199     4.623     1.650     1.542 -0.1757  0.6558  0.7342
 
              Baa    -0.0038    -2.053    -0.733    -0.685 -0.1947  0.6585  0.7270
    13 H(1)   Bbb    -0.0031    -1.639    -0.585    -0.547 -0.0822  0.7276 -0.6811
              Bcc     0.0069     3.692     1.317     1.232  0.9774  0.1924  0.0876
 
              Baa    -0.0037    -1.970    -0.703    -0.657 -0.0324  0.3587  0.9329
    14 H(1)   Bbb    -0.0037    -1.966    -0.701    -0.656 -0.4229  0.8408 -0.3380
              Bcc     0.0074     3.936     1.404     1.313  0.9056  0.4055 -0.1245
 

 ---------------------------------------------------------------------------------

 No NMR shielding tensors so no spin-rotation constants.
 Leave Link  601 at Sun Dec 17 20:50:15 2023, MaxMem=  4026531840 cpu:               4.3 elap:               1.1
 (Enter /sysapps/ubuntu-applications/gaussian/Gaussian/AVX2/g16/l701.exe)
 ... and contract with generalized density number  0.
 Compute integral first derivatives.
 Leave Link  701 at Sun Dec 17 20:50:16 2023, MaxMem=  4026531840 cpu:               2.7 elap:               0.7
 (Enter /sysapps/ubuntu-applications/gaussian/Gaussian/AVX2/g16/l702.exe)
 L702 exits ... SP integral derivatives will be done elsewhere.
 Leave Link  702 at Sun Dec 17 20:50:16 2023, MaxMem=  4026531840 cpu:               0.3 elap:               0.1
 (Enter /sysapps/ubuntu-applications/gaussian/Gaussian/AVX2/g16/l703.exe)
 Integral derivatives from FoFJK, PRISM(SPDF).
 Compute integral first derivatives, UseDBF=F ICtDFT=           0.
 Calling FoFJK, ICntrl=      2127 FMM=F ISym2X=0 I1Cent= 0 IOpClX= 1 NMat=1 NMatS=1 NMatT=0.
 FoFJK:  IHMeth= 1 ICntrl=    2127 DoSepK=F KAlg= 0 I1Cent=           0 FoldK=F
 IRaf=         0 NMat=       1 IRICut=       1 DoRegI=T DoRafI=F ISym2E= 0 IDoP0=0 IntGTp=1.
 FoFCou: FMM=F IPFlag=           0 FMFlag=      100000 FMFlg1=         800
         NFxFlg=           0 DoJE=F BraDBF=F KetDBF=F FulRan=T
         wScrn=  0.000000 ICntrl=      2127 IOpCl=  1 I1Cent=           0 NGrid=           0
         NMat0=    1 NMatS0=      1 NMatT0=    0 NMatD0=    1 NMtDS0=    0 NMtDT0=    0
 Symmetry not used in FoFCou.
 Leave Link  703 at Sun Dec 17 20:50:35 2023, MaxMem=  4026531840 cpu:             102.9 elap:              18.8
 (Enter /sysapps/ubuntu-applications/gaussian/Gaussian/AVX2/g16/l716.exe)
 Dipole        =-2.64171525D+00-7.82420808D-01 1.96402736D-02
 -------------------------------------------------------------------
 Center     Atomic                   Forces (Hartrees/Bohr)
 Number     Number              X              Y              Z
 -------------------------------------------------------------------
      1        8          -0.002491965   -0.003300865    0.002331876
      2        6          -0.004729315    0.026599677   -0.025325527
      3        6          -0.014381921    0.021913944   -0.023646957
      4        6           0.014541905   -0.016696822    0.018911566
      5        6           0.025101858   -0.031687122    0.035362586
      6        8          -0.012024290   -0.001782690   -0.001560612
      7        6          -0.006604097   -0.032916690    0.028793842
      8        6           0.006570335    0.039062074   -0.033154096
      9        6           0.004586631    0.023854725   -0.021281850
     10        7          -0.022178850   -0.018545860    0.011479880
     11        6           0.007602438   -0.011360980    0.009909810
     12        7          -0.018404053    0.002983416   -0.006128675
     13        1           0.017250295    0.004157851    0.000864468
     14        1           0.005161029   -0.002280660    0.003443691
 -------------------------------------------------------------------
 Cartesian Forces:  Max     0.039062074 RMS     0.018379248
 Leave Link  716 at Sun Dec 17 20:50:35 2023, MaxMem=  4026531840 cpu:               0.4 elap:               0.1
 (Enter /sysapps/ubuntu-applications/gaussian/Gaussian/AVX2/g16/l103.exe)

 GradGradGradGradGradGradGradGradGradGradGradGradGradGradGradGradGradGrad
 Berny optimization.
 FormGI is forming the generalized inverse of G from B-inverse, IUseBI=4.
 Internal  Forces:  Max     0.079313627 RMS     0.016203708
 Search for a local minimum.
 Step number   1 out of a maximum of   70
 All quantities printed in internal units (Hartrees-Bohrs-Radians)
 RMS Force = .16204D-01 SwitMx=.10000D-02 MixMth= 1
 Mixed Optimization -- RFO/linear search
 Second derivative matrix not updated -- first step.
 ITU=  0
     Eigenvalues ---    0.01352   0.01359   0.01368   0.01897   0.01904
     Eigenvalues ---    0.02184   0.02203   0.02395   0.02530   0.04713
     Eigenvalues ---    0.04713   0.04785   0.04785   0.16000   0.16000
     Eigenvalues ---    0.22451   0.24491   0.25000   0.25000   0.25000
     Eigenvalues ---    0.25000   0.25000   0.32599   0.35150   0.35357
     Eigenvalues ---    0.36675   0.37388   0.37794   0.39479   0.40608
     Eigenvalues ---    0.55560   0.60564   0.78751   0.79809   1.20492
     Eigenvalues ---    1.23868
 RFO step:  Lambda=-3.51390248D-02 EMin= 1.35179893D-02
 Linear search not attempted -- first point.
 Maximum step size (   0.300) exceeded in Quadratic search.
    -- Step size scaled by   0.963
 Iteration  1 RMS(Cart)=  0.07917421 RMS(Int)=  0.00113247
 Iteration  2 RMS(Cart)=  0.00171781 RMS(Int)=  0.00005628
 Iteration  3 RMS(Cart)=  0.00000022 RMS(Int)=  0.00005628
 ITry= 1 IFail=0 DXMaxC= 1.61D-01 DCOld= 1.00D+10 DXMaxT= 3.00D-01 DXLimC= 3.00D+00 Rises=F
 Variable       Old X    -DE/DX   Delta X   Delta X   Delta X     New X
                                 (Linear)    (Quad)   (Total)
    R1        2.38019  -0.00344   0.00000  -0.00397  -0.00397   2.37622
    R2        2.75013  -0.00134   0.00000  -0.00457  -0.00455   2.74558
    R3        2.74708  -0.00072   0.00000   0.00003  -0.00005   2.74703
    R4        2.49631   0.04979   0.00000   0.07153   0.07163   2.56794
    R5        2.09761  -0.01596   0.00000  -0.04254  -0.04254   2.05507
    R6        2.74626  -0.00246   0.00000  -0.00740  -0.00731   2.73895
    R7        2.05099  -0.00107   0.00000  -0.00266  -0.00266   2.04834
    R8        2.38596  -0.00273   0.00000  -0.00319  -0.00319   2.38277
    R9        2.75591   0.00157   0.00000   0.00508   0.00506   2.76098
   R10        2.52323   0.07931   0.00000   0.12562   0.12552   2.64876
   R11        2.70735  -0.00803   0.00000  -0.01752  -0.01752   2.68984
   R12        2.72268  -0.00724   0.00000  -0.01620  -0.01620   2.70648
   R13        2.21401  -0.03105   0.00000  -0.02410  -0.02410   2.18990
   R14        2.20366  -0.01960   0.00000  -0.01481  -0.01481   2.18884
    A1        2.10934   0.00551   0.00000   0.01924   0.01927   2.12861
    A2        2.08798   0.01331   0.00000   0.04557   0.04561   2.13359
    A3        2.08586  -0.01882   0.00000  -0.06481  -0.06488   2.02099
    A4        2.09553   0.01482   0.00000   0.04626   0.04637   2.14190
    A5        2.09205  -0.01559   0.00000  -0.06349  -0.06355   2.02850
    A6        2.09561   0.00077   0.00000   0.01724   0.01718   2.11279
    A7        2.08552   0.01549   0.00000   0.04835   0.04853   2.13405
    A8        2.11679  -0.00106   0.00000   0.00882   0.00873   2.12552
    A9        2.08087  -0.01443   0.00000  -0.05717  -0.05726   2.02361
   A10        2.12078  -0.00017   0.00000   0.00046   0.00042   2.12120
   A11        2.13047  -0.02817   0.00000  -0.09715  -0.09708   2.03339
   A12        2.03193   0.02834   0.00000   0.09669   0.09666   2.12859
   A13        2.04152   0.01768   0.00000   0.06512   0.06500   2.10652
   A14        2.13120  -0.02404   0.00000  -0.08386  -0.08380   2.04739
   A15        2.11047   0.00636   0.00000   0.01874   0.01880   2.12927
   A16        2.12747  -0.00100   0.00000   0.00224   0.00205   2.12952
   A17        2.13531  -0.02409   0.00000  -0.08412  -0.08402   2.05129
   A18        2.02041   0.02509   0.00000   0.08188   0.08197   2.10238
   A19        3.15780  -0.00400   0.00000  -0.04675  -0.04675   3.11104
   A20        3.13965  -0.00120   0.00000  -0.01393  -0.01393   3.12573
   A21        3.13500   0.00065   0.00000   0.00758   0.00758   3.14258
   A22        3.15906  -0.00162   0.00000  -0.01883  -0.01883   3.14023
    D1       -3.14159   0.00001   0.00000   0.00023   0.00023  -3.14136
    D2       -0.00001   0.00000   0.00000   0.00005   0.00005   0.00004
    D3        0.00000   0.00001   0.00000   0.00014   0.00014   0.00014
    D4        3.14158  -0.00000   0.00000  -0.00005  -0.00004   3.14154
    D5       -3.14159  -0.00000   0.00000  -0.00004  -0.00004   3.14155
    D6        0.00003  -0.00001   0.00000  -0.00013  -0.00014  -0.00010
    D7        0.00000   0.00000   0.00000   0.00006   0.00005   0.00005
    D8       -3.14156  -0.00000   0.00000  -0.00004  -0.00004   3.14158
    D9       -0.00000  -0.00000   0.00000  -0.00001  -0.00000  -0.00000
   D10       -3.14159  -0.00001   0.00000  -0.00021  -0.00021   3.14138
   D11       -3.14159   0.00001   0.00000   0.00018   0.00018  -3.14140
   D12        0.00001  -0.00000   0.00000  -0.00003  -0.00002  -0.00001
   D13       -3.14159  -0.00001   0.00000  -0.00030  -0.00030   3.14130
   D14        0.00000  -0.00002   0.00000  -0.00031  -0.00030  -0.00030
   D15       -0.00001  -0.00000   0.00000  -0.00010  -0.00010  -0.00010
   D16        3.14159  -0.00000   0.00000  -0.00011  -0.00010   3.14149
   D17       -0.00000   0.00003   0.00000   0.00049   0.00048   0.00048
   D18       -3.14159   0.00003   0.00000   0.00052   0.00051  -3.14108
   D19       -3.14159   0.00003   0.00000   0.00047   0.00047  -3.14112
   D20        0.00001   0.00003   0.00000   0.00051   0.00050   0.00051
   D21       -0.00000  -0.00002   0.00000  -0.00035  -0.00036  -0.00036
   D22        3.14156  -0.00002   0.00000  -0.00027  -0.00027   3.14129
   D23        3.14159  -0.00002   0.00000  -0.00039  -0.00040   3.14119
   D24       -0.00003  -0.00002   0.00000  -0.00030  -0.00030  -0.00034
         Item               Value     Threshold  Converged?
 Maximum Force            0.079314     0.000450     NO 
 RMS     Force            0.016204     0.000300     NO 
 Maximum Displacement     0.161416     0.001800     NO 
 RMS     Displacement     0.079100     0.001200     NO 
 Predicted change in Energy=-1.912840D-02
 Lowest energy point so far.  Saving SCF results.
 GradGradGradGradGradGradGradGradGradGradGradGradGradGradGradGradGradGrad

 Leave Link  103 at Sun Dec 17 20:50:38 2023, MaxMem=  4026531840 cpu:              15.4 elap:               2.4
 (Enter /sysapps/ubuntu-applications/gaussian/Gaussian/AVX2/g16/l202.exe)
                          Input orientation:                          
 ---------------------------------------------------------------------
 Center     Atomic      Atomic             Coordinates (Angstroms)
 Number     Number       Type             X           Y           Z
 ---------------------------------------------------------------------
      1          8           0       -1.089947    1.747342   -1.865609
      2          6           0       -0.818536    0.872374   -1.004259
      3          6           0       -1.832453   -0.019366   -0.467896
      4          6           0       -1.556504   -0.969899    0.463201
      5          6           0       -0.222919   -1.167969    0.995227
      6          8           0        0.017493   -2.054216    1.859322
      7          6           0        0.822768   -0.288496    0.477806
      8          6           0        0.525703    0.688436   -0.482408
      9          6           0        1.554656    1.548092   -0.985857
     10          7           0        2.410271    2.227950   -1.371396
     11          6           0        2.139233   -0.468656    0.988229
     12          7           0        3.216094   -0.600581    1.393928
     13          1           0       -2.840749    0.112197   -0.853483
     14          1           0       -2.325111   -1.627208    0.853197
 ---------------------------------------------------------------------
                    Distance matrix (angstroms):
                    1          2          3          4          5
     1  O    0.000000
     2  C    1.257441   0.000000
     3  C    2.371956   1.452898   0.000000
     4  C    3.608938   2.468199   1.358897   0.000000
     5  C    4.175543   2.918168   2.459800   1.449390   0.000000
     6  O    5.436302   4.178992   3.602618   2.366931   1.260910
     7  C    3.646192   2.497602   2.831427   2.474966   1.461047
     8  C    2.375890   1.453664   2.462132   2.824860   2.487987
     9  C    2.794206   2.467584   3.767985   4.256684   3.802821
    10  N    3.567458   3.521019   4.885432   5.415468   4.905799
    11  C    4.845889   3.810088   4.253992   3.766347   2.463503
    12  N    5.888915   4.919262   5.412211   4.876509   3.508233
    13  H    2.600656   2.165629   1.087497   2.133981   3.451027
    14  H    4.506121   3.459454   2.138494   1.083933   2.156453
                    6          7          8          9         10
     6  O    0.000000
     7  C    2.382188   0.000000
     8  C    3.641994   1.401662   0.000000
     9  C    4.840923   2.459883   1.432206   0.000000
    10  N    5.873660   3.503173   2.590753   1.158847   0.000000
    11  C    2.788294   1.423400   2.470853   2.882017   3.593464
    12  N    3.544107   2.581605   3.524260   3.611170   4.036949
    13  H    4.496911   3.918450   3.435513   4.625895   5.684880
    14  H    2.585038   3.441252   3.908093   5.340154   6.498839
                   11         12         13         14
    11  C    0.000000
    12  N    1.158286   0.000000
    13  H    5.341303   6.499559   0.000000
    14  H    4.614201   5.661388   2.490817   0.000000
 Symmetry turned off by external request.
 Stoichiometry    C8H2N2O2(1-,2)
 Framework group  C1[X(C8H2N2O2)]
 Deg. of freedom    36
 Full point group                 C1      NOp   1
 Rotational constants (GHZ):           1.2052028           1.0586292           0.5635855
 Leave Link  202 at Sun Dec 17 20:50:38 2023, MaxMem=  4026531840 cpu:               0.4 elap:               0.1
 (Enter /sysapps/ubuntu-applications/gaussian/Gaussian/AVX2/g16/l301.exe)
 Standard basis: 6-311++G(d,p) (5D, 7F)
 Ernie: Thresh=  0.10000D-02 Tol=  0.10000D-05 Strict=F.
   278 basis functions,   450 primitive gaussians,   290 cartesian basis functions
    41 alpha electrons       40 beta electrons
       nuclear repulsion energy       577.8830664677 Hartrees.
 IExCor=  402 DFT=T Ex+Corr=B3LYP ExCW=0 ScaHFX=  0.200000
 ScaDFX=  0.800000  0.720000  1.000000  0.810000 ScalE2=  1.000000  1.000000
 IRadAn=      5 IRanWt=     -1 IRanGd=            0 ICorTp=0 IEmpDi=  4
 NAtoms=   14 NActive=   14 NUniq=   14 SFac= 1.00D+00 NAtFMM=   60 NAOKFM=F Big=F
 Integral buffers will be    131072 words long.
 Raffenetti 2 integral format.
 Two-electron integral symmetry is turned off.
 Leave Link  301 at Sun Dec 17 20:50:38 2023, MaxMem=  4026531840 cpu:               0.5 elap:               0.1
 (Enter /sysapps/ubuntu-applications/gaussian/Gaussian/AVX2/g16/l302.exe)
 NPDir=0 NMtPBC=     1 NCelOv=     1 NCel=       1 NClECP=     1 NCelD=      1
         NCelK=      1 NCelE2=     1 NClLst=     1 CellRange=     0.0.
 One-electron integrals computed using PRISM.
 NBasis=   278 RedAO= T EigKep=  2.05D-06  NBF=   278
 NBsUse=   277 1.00D-06 EigRej=  9.69D-07 NBFU=   277
 Precomputing XC quadrature grid using
 IXCGrd= 4 IRadAn=           5 IRanWt=          -1 IRanGd=           0 AccXCQ= 0.00D+00.
[...]
 ! A20   L(7,11,12,10,-1)      179.9943         -DE/DX =    0.0                 !
 ! A21   L(8,9,10,12,-2)       179.9987         -DE/DX =    0.0                 !
 ! A22   L(7,11,12,10,-2)      180.0069         -DE/DX =    0.0                 !
 ! D1    D(1,2,3,4)            180.0078         -DE/DX =    0.0                 !
 ! D2    D(1,2,3,13)             0.0111         -DE/DX =    0.0                 !
 ! D3    D(8,2,3,4)             -0.0106         -DE/DX =    0.0                 !
 ! D4    D(8,2,3,13)          -180.0074         -DE/DX =    0.0                 !
 ! D5    D(1,2,8,7)           -180.0098         -DE/DX =    0.0                 !
 ! D6    D(1,2,8,9)             -0.0104         -DE/DX =    0.0                 !
 ! D7    D(3,2,8,7)              0.0089         -DE/DX =    0.0                 !
 ! D8    D(3,2,8,9)            180.0083         -DE/DX =    0.0                 !
 ! D9    D(2,3,4,5)              0.0027         -DE/DX =    0.0                 !
 ! D10   D(2,3,4,14)          -179.997          -DE/DX =    0.0                 !
 ! D11   D(13,3,4,5)           179.9992         -DE/DX =    0.0                 !
 ! D12   D(13,3,4,14)           -0.0005         -DE/DX =    0.0                 !
 ! D13   D(3,4,5,6)           -180.0049         -DE/DX =    0.0                 !
 ! D14   D(3,4,5,7)              0.0071         -DE/DX =    0.0                 !
 ! D15   D(14,4,5,6)            -0.0052         -DE/DX =    0.0                 !
 ! D16   D(14,4,5,7)          -179.9932         -DE/DX =    0.0                 !
 ! D17   D(4,5,7,8)             -0.0086         -DE/DX =    0.0                 !
 ! D18   D(4,5,7,11)           179.9909         -DE/DX =    0.0                 !
 ! D19   D(6,5,7,8)            180.0036         -DE/DX =    0.0                 !
 ! D20   D(6,5,7,11)             0.0031         -DE/DX =    0.0                 !
 ! D21   D(5,7,8,2)              0.0006         -DE/DX =    0.0                 !
 ! D22   D(5,7,8,9)           -179.9988         -DE/DX =    0.0                 !
 ! D23   D(11,7,8,2)          -179.9989         -DE/DX =    0.0                 !
 ! D24   D(11,7,8,9)             0.0017         -DE/DX =    0.0                 !
 --------------------------------------------------------------------------------
 GradGradGradGradGradGradGradGradGradGradGradGradGradGradGradGradGradGrad

 Leave Link  103 at Sun Dec 17 21:10:04 2023, MaxMem=  4026531840 cpu:              25.6 elap:               6.5
 (Enter /sysapps/ubuntu-applications/gaussian/Gaussian/AVX2/g16/l9999.exe)

 ----------------------------------------------------------------------

 Electric dipole moment (input orientation):
 (Debye = 10**-18 statcoulomb cm , SI units = C m)
                  (au)            (Debye)         (10**-30 SI)
   Tot        0.268735D+01      0.683056D+01      0.227843D+02
   x         -0.257986D+01     -0.655734D+01     -0.218729D+02
   y         -0.752439D+00     -0.191251D+01     -0.637944D+01
   z         -0.410558D-02     -0.104354D-01     -0.348086D-01

 Dipole polarizability, Alpha (input orientation).
 (esu units = cm**3 , SI units = C**2 m**2 J**-1)
 Alpha(0;0):
               (au)            (10**-24 esu)      (10**-40 SI)
   iso        0.130987D+03      0.194102D+02      0.215968D+02
   aniso      0.108584D+03      0.160905D+02      0.179031D+02
   xx         0.158213D+03      0.234448D+02      0.260859D+02
   yx         0.114806D+02      0.170124D+01      0.189289D+01
   yy         0.122538D+03      0.181583D+02      0.202038D+02
   zx         0.159446D+02      0.236274D+01      0.262890D+01
   zy        -0.544196D+02     -0.806415D+01     -0.897258D+01
   zz         0.112208D+03      0.166275D+02      0.185006D+02

 ----------------------------------------------------------------------

 Dipole orientation:
     8         -4.42767411          2.60766182          1.06499904
     6         -2.39617082          1.41090555          1.01219150
     6         -1.10285558          0.64960520          3.32696657
     6          1.10230708         -0.64910015          3.32725838
     6          2.39609948         -1.41132290          1.01290730
     8          4.42767808         -2.60759377          1.06638957
     6          1.14476977         -0.67426951         -1.33296924
     6         -1.14438579          0.67383044         -1.33345890
     6         -2.33882445          1.37732169         -3.63693820
     7         -3.31195444          1.95041432         -5.51223364
     6          2.33965489         -1.37778785         -3.63637587
     7          3.31226455         -1.95073261         -5.51197010
     1         -2.02655212          1.19377288          5.07627096
     1          2.02564346         -1.19270511          5.07696262

 Electric dipole moment (dipole orientation):
 (Debye = 10**-18 statcoulomb cm , SI units = C m)
                  (au)            (Debye)         (10**-30 SI)
   Tot        0.268735D+01      0.683056D+01      0.227843D+02
   x          0.000000D+00      0.000000D+00      0.000000D+00
   y          0.000000D+00      0.000000D+00      0.000000D+00
   z          0.268735D+01      0.683056D+01      0.227843D+02

 Dipole polarizability, Alpha (dipole orientation).
 (esu units = cm**3 , SI units = C**2 m**2 J**-1)
 Alpha(0;0):
               (au)            (10**-24 esu)      (10**-40 SI)
   iso        0.130987D+03      0.194102D+02      0.215968D+02
   aniso      0.108584D+03      0.160905D+02      0.179031D+02
   xx         0.143239D+03      0.212258D+02      0.236169D+02
   yx        -0.496856D+02     -0.736264D+01     -0.819204D+01
   yy         0.881328D+02      0.130599D+02      0.145311D+02
   zx         0.679895D-02      0.100750D-02      0.112100D-02
   zy        -0.280047D-02     -0.414986D-03     -0.461734D-03
   zz         0.161589D+03      0.239450D+02      0.266424D+02

 ----------------------------------------------------------------------
 1\1\GINC-ACIDSGN004\Freq\UB3LYP\6-311++G(d,p)\C8H2N2O2(1-,2)\SELHAJJ1\
 17-Dec-2023\0\\#P Geom=AllCheck Guess=TCheck SCRF=Check GenChk UB3LYP/
 6-311++G(d,p) Freq\\Radical\\-1,2\O,-1.0928956876,1.7445264417,-1.8637
 99841\C,-0.8128183247,0.8793765984,-1.0090504029\C,-1.8276057983,-0.01
 90674457,-0.4667026684\C,-1.5529051548,-0.9665370534,0.4611192627\C,-0
 .2158967392,-1.1796204366,1.0073151365\O,0.010118194,-2.0602928373,1.8
 620888242\C,0.8198552671,-0.2943728554,0.482729073\C,0.5347966221,0.68
 91776496,-0.4804433898\C,1.5561093089,1.5436730299,-0.9811352434\N,2.3
 874924645,2.2396131574,-1.389066735\C,2.1389114135,-0.466361861,0.9873
 681393\N,3.2129776214,-0.6064019925,1.3980896086\H,-2.8314231941,0.118
 6839867,-0.8567374391\H,-2.3267159926,-1.6223963819,0.8482256753\\Vers
 ion=ES64L-G16RevA.03\HF=-566.2010973\S2=0.761384\S2-1=0.\S2A=0.750071\
 RMSD=9.931e-09\RMSF=4.488e-05\ZeroPoint=0.0801963\Thermal=0.08989\Dipo
 le=-1.8895022,-0.551177,-0.002968\DipoleDeriv=-0.5066912,0.1820232,-0.
 1956203,0.5451441,-0.7170184,0.4410247,-0.5232086,0.3448077,-0.8381465
 ,0.0916658,-0.248833,0.2170423,-0.5959269,0.4323484,-0.4394445,0.53014
 23,-0.3475954,0.5744267,0.2639635,-0.1001642,0.1994412,0.4556353,-0.01
 00649,-0.0039784,-0.3020638,-0.1511642,-0.0917358,0.3453585,0.3272279,
 -0.1646049,-0.2286686,-0.0921227,-0.1112361,0.3370617,0.036002,-0.0914
 455,-0.1920198,-0.1479488,0.0507674,0.1989503,0.7183837,-0.4869065,-0.
 2623674,-0.5787885,0.5732326,-0.2384984,0.1217014,-0.0701314,-0.241280
 5,-0.9870414,0.4763922,0.2574843,0.5725831,-0.8368644,-0.4234923,-0.29
 95621,0.1516061,0.4241387,0.0702948,0.071361,-0.5015522,-0.1203411,0.0
 007104,-0.225684,0.1110172,-0.1665723,-0.6124796,-0.1288099,-0.0234164
 ,0.4862998,0.1682753,0.001935,0.5614469,0.3075879,-0.1587492,0.38115,0
 .3303079,-0.0954048,-0.225094,-0.1148707,0.1567628,-0.5856957,-0.20817
 36,0.1252046,-0.2439226,-0.4943192,0.0664587,0.1574668,0.0759262,-0.37
 59053,0.8052333,-0.0041592,0.1871864,-0.0775732,0.0848883,0.0045844,0.
 2534837,0.0240121,0.1582295,-0.7631611,0.0364281,-0.1425873,0.0719959,
 -0.3158161,-0.01097,-0.1746439,-0.020381,-0.3769897,-0.0989444,-0.0005
 043,-0.0595168,0.0268718,0.0874512,0.0433455,-0.0842433,0.0360956,0.07
 27191,-0.0334811,-0.0766406,0.0265343,-0.1040347,0.0215183,0.0681903,0
 .0512345,0.075439,0.0730713\Polar=158.2134377,11.4805609,122.5382794,1
 5.9445632,-54.4195859,112.2082511\Quadrupole=-2.4673415,0.1001273,2.36
 72142,-0.8503534,-4.5955719,15.7356365\PG=C01 [X(C8H2N2O2)]\NImag=0\\0
 .11057598,-0.07941052,0.32598457,0.09403532,-0.29167948,0.31413023,-0.
 10818231,0.06071379,-0.06783644,0.50524074,0.06429636,-0.28184815,0.21
 821798,0.01057630,0.48782192,-0.07107027,0.21727446,-0.27373469,0.0782
 4819,-0.28076774,0.44768657,0.01975630,-0.00977852,0.00928241,-0.18460
 844,-0.05449871,0.01896904,0.62632868,-0.02299675,-0.04242251,0.048462
 50,-0.03667475,-0.10506183,0.02158511,-0.00213405,0.44643878,0.0212102
 7,0.05195661,-0.02324517,0.00288238,0.01687149,-0.08486627,0.13795032,
 -0.30200532,0.42149207,-0.00709924,-0.01117390,0.00739350,0.03993975,0
 .00020623,0.01050084,-0.14140886,0.01786889,-0.04168101,0.57209903,-0.
 00106097,0.00554338,-0.00251993,-0.01517264,-0.02721913,0.02016454,0.0
 4994440,-0.24900953,0.19748955,0.08337347,0.50086606,-0.00173102,-0.00
 519801,0.00729319,0.02437879,0.02424380,-0.01584546,-0.07064103,0.1889
 8811,-0.23408711,0.04642940,-0.32848782,0.42119912,-0.00023039,0.01038
 269,-0.00929747,-0.02303357,-0.01651566,0.00998950,0.01393536,0.041274
 18,-0.03345304,-0.20275354,-0.02570983,-0.01182509,0.50916890,-0.00399
 163,0.00612040,-0.00702184,0.00634372,-0.00708934,0.00402224,0.0258965
 2,-0.00105929,0.00742368,-0.00788245,-0.08674275,0.01265615,0.00419205
 ,0.48391606,0.00367346,-0.00322176,0.00338534,-0.01064113,-0.00202420,
 -0.00547587,-0.01957236,0.01149300,-0.01597852,-0.02792050,0.00794346,
 -0.08496473,0.08507902,-0.27898977,0.44791592,0.00033710,-0.00121863,0
 .00111347,0.00446775,0.00296501,-0.00136233,-0.00899281,-0.00818528,0.
 00419697,-0.01280367,0.04163694,-0.04574513,-0.10131479,0.04990831,-0.
 05629365,0.10031555,0.00422139,-0.00440755,0.00534964,-0.01140473,0.00
 139810,-0.00472206,0.00192542,0.00744012,-0.00344250,0.02841776,-0.009
 66279,0.03251798,0.05348761,-0.28886412,0.22177835,-0.06325986,0.33639
 522,-0.00379673,0.00391287,-0.00425022,0.01160878,-0.00092226,0.003409
 67,-0.00492986,-0.00611976,0.00727999,-0.03381168,0.03601628,-0.023434
 25,-0.05952539,0.22083208,-0.27393275,0.07677286,-0.29690064,0.3143224
 5,-0.00320587,-0.00163809,-0.00033384,-0.00903465,0.02264711,-0.022464
 78,-0.00357701,-0.00186278,-0.00000425,-0.02722846,-0.01470944,0.00416
 761,-0.17590773,-0.03088328,-0.00179294,0.02420771,-0.02524817,0.02511
 968,0.56943751,-0.00458705,-0.00552820,0.00704924,0.03203686,0.0101050
 0,-0.00188120,-0.01056690,-0.01756166,0.01555032,-0.02018329,0.0177573
 0,-0.01488570,-0.03344926,-0.10471325,0.02798482,-0.02607404,-0.035865
 96,0.03938018,0.02541755,0.39121302,0.00232848,0.00783239,-0.00281856,
 -0.03094187,-0.00436570,-0.00563041,0.00785396,0.01786272,-0.01126538,
 0.00909864,-0.01344841,0.02171764,0.00052314,0.02865860,-0.08962019,0.
 02586357,0.03959764,-0.01347349,0.09890229,-0.24757313,0.35904029,-0.0
 1613792,0.03763864,-0.04231796,-0.18439378,-0.02005881,-0.01381748,-0.
 03004952,-0.01570586,0.00431145,-0.01317165,0.00458109,-0.00836157,0.0
 2112286,-0.01557583,0.02002171,-0.00666662,0.00087515,-0.00351868,-0.1
 0366411,0.02120835,-0.03650269,0.54068689,0.03845261,0.00471202,0.0198
 4230,-0.01746713,-0.09616175,0.02449055,-0.01024462,0.02060041,-0.0148
 3113,0.01329279,-0.00791313,0.01315998,-0.02497654,-0.02022418,0.01038
 405,0.00382840,-0.00204285,0.00613615,0.02466707,-0.17652222,0.1314369
 6,0.07092345,0.42019946,-0.04305269,0.01962317,-0.01369285,-0.01615871
 ,0.02380166,-0.08968095,-0.00060834,-0.01626947,0.02169918,-0.01622272
 ,0.01085539,-0.01131871,0.02850488,0.01287902,-0.00545863,-0.00618240,
 0.00535383,-0.00283660,-0.03963175,0.13051044,-0.16638843,0.05021695,-
 0.26168487,0.35890302,0.00330894,-0.00970973,0.01043308,-0.03773005,-0
 .01454329,0.00242572,-0.00869399,-0.00263271,-0.00116815,-0.00453408,0
 .00376614,-0.00433544,0.01021152,0.00114631,-0.00044698,-0.00238823,0.
 00268939,-0.00288965,0.00830643,-0.01423626,0.01450459,-0.18086972,-0.
 08306431,0.04212408,0.83465692,0.00097438,-0.01198343,0.00835694,-0.01
 523027,0.01556208,-0.01564380,-0.00192504,-0.00069991,0.00433794,-0.00
 279791,0.00169426,-0.00316760,0.01071887,0.00425907,0.00620246,-0.0030
 6795,-0.00070740,-0.00075367,-0.02146844,-0.02900048,0.02234526,-0.080
 13567,-0.13792536,0.05193318,0.60266185,0.60679600,0.00079322,0.005531
 62,-0.00778875,0.00304060,-0.01546940,0.01745648,-0.00180371,0.0041515
 5,0.00045037,0.00158744,-0.00142809,0.00071423,-0.00908231,0.00366786,
 0.00227228,0.00230581,0.00077137,-0.00072801,0.02103039,0.02426020,-0.
 01426365,0.03948230,0.05116345,-0.09259380,-0.34629804,-0.30816001,0.2
 7491511,-0.00109862,0.00472178,-0.00475003,0.00571781,-0.00480488,0.00
 551690,0.00202067,0.00212562,-0.00104969,0.00227731,-0.00155379,0.0019
 4365,-0.00367894,-0.00012316,-0.00053215,0.00099619,-0.00170664,0.0017
 8998,-0.00501460,0.00625281,-0.00720558,-0.00802051,-0.02406473,0.0150
 2532,-0.61875496,-0.48761838,0.28678514,0.62432823,0.00053334,0.006909
 25,-0.00541377,0.00548001,-0.00902859,0.01072408,0.00084670,0.00175347
 ,-0.00248467,0.00188340,-0.00112018,0.00171729,-0.00385149,-0.00074218
 ,-0.00147452,0.00100275,-0.00094381,0.00116538,-0.00022744,0.00718333,
 -0.00574628,-0.02584464,-0.00224579,0.01075881,-0.48694346,-0.44569266
 ,0.23724449,0.50648022,0.44404125,-0.00097092,-0.00430615,0.00437923,-
 0.00376158,0.00800271,-0.00696914,0.00010165,-0.00214728,0.00071447,-0
 .00115749,0.00080711,-0.00080428,0.00283139,-0.00048748,-0.00005676,-0
 .00065511,0.00044770,-0.00052433,-0.00135692,-0.00402970,0.00416121,0.
 01662962,0.01122845,0.01152831,0.28617812,0.23706899,-0.17809536,-0.29
 732986,-0.24763521,0.16578537,-0.00207561,-0.00356014,0.00283280,0.013
 85850,0.00495546,-0.00291742,-0.00231156,-0.00630474,0.00534250,-0.008
 44007,-0.00232372,-0.00137679,-0.03586222,-0.01816835,0.00618819,-0.00
 501156,0.01411366,-0.01327117,-0.24192886,0.01641856,-0.06384164,-0.01
 848630,0.02082999,-0.02424082,-0.00241902,-0.00281999,0.00311579,0.000
 17371,0.00098124,-0.00103050,1.31258190,0.00219524,-0.00102286,0.00092
 435,-0.00460721,0.00059068,0.00545579,0.00025412,-0.00054441,-0.000339
 29,-0.00302750,-0.00095190,0.00427471,-0.01749179,0.01368113,-0.014550
 98,0.00343183,-0.00360896,0.00145119,0.01348465,-0.07641847,0.02120079
 ,0.02806019,-0.00204910,0.01114773,0.00250542,-0.00192716,-0.00173349,
 -0.00024702,-0.00015461,0.00072489,-0.15103483,0.12637174,-0.00236145,
 -0.00059940,-0.00072658,0.00571466,0.00798912,0.00229138,-0.00057823,-
 0.00207800,0.00072690,-0.00074043,0.00446235,0.00045245,0.00557403,-0.
 01473009,0.01746089,-0.00362883,0.00427999,-0.00783386,-0.06118378,0.0
 2197831,-0.09292749,-0.03076599,0.00922807,-0.01441545,-0.00168948,-0.
 00314273,-0.00219274,0.00007794,0.00105097,-0.00020637,0.46040938,-0.0
 7415937,0.27734072,0.00012216,0.00238162,-0.00213071,-0.00462744,-0.00
 234974,0.00122467,0.00145134,0.00318600,-0.00255219,0.00327735,-0.0011
 4241,0.00222950,0.00179596,0.01167132,-0.01038987,0.00356520,-0.006830
 14,0.00691077,-0.02885010,0.00703031,-0.01854867,0.00120182,-0.0100447
 0,0.00914851,0.00041014,0.00060884,-0.00063030,0.00101779,-0.00009446,
 0.00032481,-1.00859823,0.12753105,-0.37154926,1.02940040,-0.00032679,-
 0.00006419,0.00001943,0.00137453,0.00021254,-0.00095270,-0.00024928,-0
 .00028806,0.00040205,0.00013798,0.00048614,-0.00153026,0.00138151,-0.0
 0508272,0.00608026,-0.00263702,0.00221518,-0.00201956,0.00881569,0.018
 70841,0.00102518,-0.00356001,0.00092854,-0.00098415,-0.00062242,-0.000
 39549,0.00084213,0.00058666,0.00024620,0.00003389,0.12684877,-0.053963
 39,0.04625536,-0.13201996,0.03699947,0.00031327,0.00073662,-0.00052845
 ,-0.00213587,-0.00193926,-0.00006236,0.00054811,0.00131194,-0.00080834
 ,0.00107427,-0.00186968,0.00072095,-0.00110244,0.00880447,-0.00698889,
 0.00312508,-0.00312927,0.00440436,-0.02017027,0.00055418,0.01141847,0.
 00329733,-0.00270155,0.00419354,0.00047930,0.00116853,-0.00020601,-0.0
 0028966,-0.00014617,0.00016698,-0.37092339,0.04643426,-0.18002939,0.38
 610723,-0.04936491,0.16779954,0.00370547,0.00057613,0.00108037,-0.0185
 5562,0.00662502,-0.01195911,-0.29257760,0.02695789,-0.09216873,-0.0018
 5224,-0.00097779,-0.00114395,0.00328042,-0.00165523,-0.00071902,-0.000
 72194,0.00093917,-0.00053502,0.00090288,-0.00032022,0.00080210,-0.0021
 0378,-0.00336452,0.00176974,-0.00130850,0.00025319,-0.00057494,-0.0000
 3137,-0.00029059,0.00026111,-0.00020975,0.00014477,-0.00002437,0.00000
 881,-0.00002952,-0.00001311,0.30869520,0.00225494,0.00032431,-0.001813
 43,-0.01800682,0.00565844,-0.00623195,0.02821950,-0.05120238,0.0209465
 5,0.02179476,0.00225648,0.00896995,-0.00319633,0.00270875,0.00721821,0
 .00156935,-0.00136663,-0.00006905,0.00067773,-0.00087897,0.00003864,-0
 .00264058,-0.00082901,0.00247175,-0.00113929,0.00021448,-0.00049703,0.
 00007359,-0.00019009,0.00016676,-0.00013037,-0.00017988,-0.00042454,0.
 00013667,0.00004345,0.00014057,-0.03018129,0.04562115,-0.00043472,-0.0
 0225704,-0.00042512,0.01027545,0.00028685,0.00649527,-0.09331101,0.020
 61330,-0.07957576,-0.02169519,0.00294022,-0.00259192,0.00067005,0.0076
 2643,0.00493862,-0.00110316,-0.00023662,-0.00198231,-0.00009960,-0.000
 22527,-0.00085850,0.00111604,0.00228075,0.00092113,0.00068264,-0.00012
 811,0.00029495,-0.00006761,0.00007037,-0.00010837,0.00022446,-0.000351
 69,-0.00023524,-0.00016330,0.00009657,0.00002875,0.10256438,-0.0274029
 6,0.07599227,0.00022401,0.00007488,0.00049550,0.00094131,0.00049961,-0
 .00328346,0.00872743,0.00508433,-0.00381684,-0.19830162,-0.12065147,0.
 06601107,-0.01673383,-0.02087831,0.01334622,0.00401012,0.00178000,0.00
 007611,-0.00444314,0.00105258,-0.00283633,0.00055234,0.00123224,-0.000
 69206,-0.00019539,-0.00015350,0.00024860,0.00006728,0.00004440,-0.0000
 6433,-0.00127095,-0.00119892,0.00074584,-0.00017519,0.00029986,-0.0003
 0985,0.00076802,0.00056814,0.00134156,0.20582961,-0.00055454,-0.002317
 04,0.00022606,0.00203833,0.00506004,0.00648267,-0.01768952,-0.00838320
 ,0.00812471,-0.12191024,-0.14598421,0.06674143,0.00375399,0.00383243,0
 .00117662,0.00010019,0.00002145,-0.00210918,0.00032783,0.00152214,0.00
 113535,0.00023454,-0.00052704,-0.00039649,0.00012235,-0.00019401,-0.00
 034465,-0.00012210,-0.00001558,0.00012532,0.00019446,0.00017718,-0.000
 11006,-0.00006441,-0.00004609,0.00000028,0.00132298,-0.00218010,-0.003
 31282,0.13224615,0.14903403,0.00106378,0.00039410,-0.00197760,-0.00467
 323,0.00607494,0.00492579,0.01673905,0.01415159,-0.00253643,0.06714493
 ,0.06707503,-0.07905111,-0.00888628,-0.00534136,0.00650329,0.00159285,
 -0.00166542,-0.00042066,-0.00218185,0.00132732,0.00090848,0.00020897,-
 0.00013314,-0.00085976,0.00000018,-0.00041738,-0.00023511,0.00008565,0
 .00016921,0.00002904,-0.00051139,-0.00047889,0.00029478,0.00001882,0.0
 0009671,-0.00010915,0.00066055,-0.00351347,-0.00289376,-0.07126202,-0.
 07773924,0.07542220\\0.00001153,0.00004362,-0.00001646,-0.00009078,-0.
 00010349,0.00001671,0.00000581,0.00010628,-0.00007567,0.00008201,-0.00
 004067,0.00007077,-0.00005751,-0.00009687,0.00004022,0.00000747,0.0000
 4494,-0.00002676,-0.00001829,0.00002701,-0.00002547,0.00008517,0.00003
 726,0.00000340,-0.00002324,-0.00003166,0.00002404,0.00001116,0.0000206
 5,-0.00001667,0.00000626,0.00000287,0.00001365,0.00001337,-0.00000072,
 -0.00000337,-0.00000749,-0.00001982,0.00001430,-0.00002547,0.00001059,
 -0.00001868\\\@


 I take a simple view of life: keep your eyes open and get on with it.
 -- Laurence Olivier
 Job cpu time:       0 days  1 hours  8 minutes 15.1 seconds.
 Elapsed time:       0 days  0 hours 10 minutes  2.0 seconds.
 File lengths (MBytes):  RWF=    244 Int=      0 D2E=      0 Chk=     12 Scr=      1
 Normal termination of Gaussian 16 at Sun Dec 17 21:10:04 2023.
