 Entering Gaussian System, Link 0=g16
 Input=019-an-PCM.com
 Output=019-an-PCM.log
 Initial command:
 /sysapps/ubuntu-applications/gaussian/Gaussian/AVX2/g16/l1.exe "/scratch/selhajj1/4304352/Gau-666644.inp" -scrdir="/scratch/selhajj1/4304352/"
 Entering Link 1 = /sysapps/ubuntu-applications/gaussian/Gaussian/AVX2/g16/l1.exe PID=    666648.
  
 Copyright (c) 1988,1990,1992,1993,1995,1998,2003,2009,2016,
            Gaussian, Inc.  All Rights Reserved.
  
 This is part of the Gaussian(R) 16 program.  It is based on
 the Gaussian(R) 09 system (copyright 2009, Gaussian, Inc.),
 the Gaussian(R) 03 system (copyright 2003, Gaussian, Inc.),
 the Gaussian(R) 98 system (copyright 1998, Gaussian, Inc.),
 the Gaussian(R) 94 system (copyright 1995, Gaussian, Inc.),
 the Gaussian 92(TM) system (copyright 1992, Gaussian, Inc.),
 the Gaussian 90(TM) system (copyright 1990, Gaussian, Inc.),
 the Gaussian 88(TM) system (copyright 1988, Gaussian, Inc.),
 the Gaussian 86(TM) system (copyright 1986, Carnegie Mellon
 University), and the Gaussian 82(TM) system (copyright 1983,
 Carnegie Mellon University). Gaussian is a federally registered
 trademark of Gaussian, Inc.
  
 This software contains proprietary and confidential information,
 including trade secrets, belonging to Gaussian, Inc.
  
 This software is provided under written license and may be
 used, copied, transmitted, or stored only in accord with that
 written license.
  
 The following legend is applicable only to US Government
 contracts under FAR:
  
                    RESTRICTED RIGHTS LEGEND
  
 Use, reproduction and disclosure by the US Government is
 subject to restrictions as set forth in subparagraphs (a)
 and (c) of the Commercial Computer Software - Restricted
 Rights clause in FAR 52.227-19.
  
 Gaussian, Inc.
 340 Quinnipiac St., Bldg. 40, Wallingford CT 06492
  
  
 ---------------------------------------------------------------
 Warning -- This program may not be used in any manner that
 competes with the business of Gaussian, Inc. or will provide
 assistance to any competitor of Gaussian, Inc.  The licensee
 of this program is prohibited from giving any competitor of
 Gaussian, Inc. access to this program.  By using this program,
 the user acknowledges that Gaussian, Inc. is engaged in the
 business of creating and licensing software in the field of
 computational chemistry and represents and warrants to the
 licensee that it is not a competitor of Gaussian, Inc. and that
 it will not use this program in any manner prohibited above.
 ---------------------------------------------------------------
  

 Cite this work as:
 Gaussian 16, Revision A.03,
 M. J. Frisch, G. W. Trucks, H. B. Schlegel, G. E. Scuseria, 
 M. A. Robb, J. R. Cheeseman, G. Scalmani, V. Barone, 
 G. A. Petersson, H. Nakatsuji, X. Li, M. Caricato, A. V. Marenich, 
 J. Bloino, B. G. Janesko, R. Gomperts, B. Mennucci, H. P. Hratchian, 
 J. V. Ortiz, A. F. Izmaylov, J. L. Sonnenberg, D. Williams-Young, 
 F. Ding, F. Lipparini, F. Egidi, J. Goings, B. Peng, A. Petrone, 
 T. Henderson, D. Ranasinghe, V. G. Zakrzewski, J. Gao, N. Rega, 
 G. Zheng, W. Liang, M. Hada, M. Ehara, K. Toyota, R. Fukuda, 
 J. Hasegawa, M. Ishida, T. Nakajima, Y. Honda, O. Kitao, H. Nakai, 
 T. Vreven, K. Throssell, J. A. Montgomery, Jr., J. E. Peralta, 
 F. Ogliaro, M. J. Bearpark, J. J. Heyd, E. N. Brothers, K. N. Kudin, 
 V. N. Staroverov, T. A. Keith, R. Kobayashi, J. Normand, 
 K. Raghavachari, A. P. Rendell, J. C. Burant, S. S. Iyengar, 
 J. Tomasi, M. Cossi, J. M. Millam, M. Klene, C. Adamo, R. Cammi, 
 J. W. Ochterski, R. L. Martin, K. Morokuma, O. Farkas, 
 J. B. Foresman, and D. J. Fox, Gaussian, Inc., Wallingford CT, 2016.
 
 ******************************************
 Gaussian 16:  ES64L-G16RevA.03 25-Dec-2016
                21-Jan-2024 
 ******************************************
 %chk=019-an-PCM.chk
 %nproc=8
 Will use up to    8 processors via shared memory.
 %mem=30GB
 ----------------------------------------------------------------
 #P UB3LYP/6-311++G(d,p) SCRF=(PCM,Solvent=n,n-DiMethylFormamide)
 ----------------------------------------------------------------
 1/38=1,172=1/1;
 2/12=2,17=6,18=5,40=1/2;
 3/5=4,6=6,7=1111,11=2,25=1,30=1,70=2201,72=148,74=-5,116=2/1,2,3;
 4//1;
 5/5=2,38=5,53=148/2;
 6/7=2,8=2,9=2,10=2,28=1/1;
 99/5=1,9=1/99;
 Leave Link    1 at Sun Jan 21 07:30:50 2024, MaxMem=  4026531840 cpu:               0.6 elap:               0.1
 (Enter /sysapps/ubuntu-applications/gaussian/Gaussian/AVX2/g16/l101.exe)
 -------
 Reduced
 -------
 Symbolic Z-matrix:
 Charge = -2 Multiplicity = 1
 C                    -2.90052   0.40025   0.52644 
 C                    -1.91629  -0.41343  -0.3393 
 C                    -2.26915  -0.33154  -1.83904 
 C                    -0.44528  -0.16743  -0.02313 
 C                     0.2674    1.0268   -0.20221 
 Br                   -0.63485   2.64535  -0.9431 
 C                     1.64429   1.2792    0.08685 
 O                     2.25411   2.39776  -0.09647 
 C                     2.31049   0.11022   0.62607 
 C                     1.60823  -1.07897   0.80607 
 Br                    2.58843  -2.64074   1.55021 
 C                     0.23488  -1.33666   0.51941 
 O                    -0.35602  -2.46516   0.71051 
 C                     3.76965   0.27112   0.96592 
 H                    -2.84496   1.47198   0.32218 
 H                    -2.67875   0.24403   1.58692 
 H                    -3.93502   0.06863   0.34506 
 H                    -2.04134  -1.46114  -0.0486 
 H                    -2.16096   0.68035  -2.23639 
 H                    -1.6121   -0.99385  -2.41163 
 H                    -3.30756  -0.65794  -2.00701 
 H                     4.40436  -0.42358   0.39868 
 H                     4.05142   1.2986    0.7258 
 H                     3.96954   0.07614   2.02853 
 
 ITRead=  0  0  0  0  0  0  0  0  0  0  0  0  0  0  0  0  0  0  0  0
 ITRead=  0  0  0  0
 MicOpt= -1 -1 -1 -1 -1 -1 -1 -1 -1 -1 -1 -1 -1 -1 -1 -1 -1 -1 -1 -1
 MicOpt= -1 -1 -1 -1
 NAtoms=     24 NQM=       24 NQMF=       0 NMMI=      0 NMMIF=      0
                NMic=       0 NMicF=      0.
                    Isotopes and Nuclear Properties:
 (Nuclear quadrupole moments (NQMom) in fm**2, nuclear magnetic moments (NMagM)
  in nuclear magnetons)

  Atom         1           2           3           4           5           6           7           8           9          10
 IAtWgt=          12          12          12          12          12          79          12          16          12          12
 AtmWgt=  12.0000000  12.0000000  12.0000000  12.0000000  12.0000000  78.9183361  12.0000000  15.9949146  12.0000000  12.0000000
 NucSpn=           0           0           0           0           0           3           0           0           0           0
 AtZEff=  -0.0000000  -0.0000000  -0.0000000  -0.0000000  -0.0000000  -0.0000000  -0.0000000  -0.0000000  -0.0000000  -0.0000000
 NQMom=    0.0000000   0.0000000   0.0000000   0.0000000   0.0000000  31.3000000   0.0000000   0.0000000   0.0000000   0.0000000
 NMagM=    0.0000000   0.0000000   0.0000000   0.0000000   0.0000000   2.1063990   0.0000000   0.0000000   0.0000000   0.0000000
 AtZNuc=   6.0000000   6.0000000   6.0000000   6.0000000   6.0000000  35.0000000   6.0000000   8.0000000   6.0000000   6.0000000

  Atom        11          12          13          14          15          16          17          18          19          20
 IAtWgt=          79          12          16          12           1           1           1           1           1           1
 AtmWgt=  78.9183361  12.0000000  15.9949146  12.0000000   1.0078250   1.0078250   1.0078250   1.0078250   1.0078250   1.0078250
 NucSpn=           3           0           0           0           1           1           1           1           1           1
 AtZEff=  -0.0000000  -0.0000000  -0.0000000  -0.0000000  -0.0000000  -0.0000000  -0.0000000  -0.0000000  -0.0000000  -0.0000000
 NQMom=   31.3000000   0.0000000   0.0000000   0.0000000   0.0000000   0.0000000   0.0000000   0.0000000   0.0000000   0.0000000
 NMagM=    2.1063990   0.0000000   0.0000000   0.0000000   2.7928460   2.7928460   2.7928460   2.7928460   2.7928460   2.7928460
 AtZNuc=  35.0000000   6.0000000   8.0000000   6.0000000   1.0000000   1.0000000   1.0000000   1.0000000   1.0000000   1.0000000

  Atom        21          22          23          24
 IAtWgt=           1           1           1           1
 AtmWgt=   1.0078250   1.0078250   1.0078250   1.0078250
 NucSpn=           1           1           1           1
 AtZEff=  -0.0000000  -0.0000000  -0.0000000  -0.0000000
 NQMom=    0.0000000   0.0000000   0.0000000   0.0000000
 NMagM=    2.7928460   2.7928460   2.7928460   2.7928460
 AtZNuc=   1.0000000   1.0000000   1.0000000   1.0000000
 Leave Link  101 at Sun Jan 21 07:30:50 2024, MaxMem=  4026531840 cpu:               1.3 elap:               0.3
 (Enter /sysapps/ubuntu-applications/gaussian/Gaussian/AVX2/g16/l202.exe)
                          Input orientation:                          
 ---------------------------------------------------------------------
 Center     Atomic      Atomic             Coordinates (Angstroms)
 Number     Number       Type             X           Y           Z
 ---------------------------------------------------------------------
      1          6           0       -2.900522    0.400246    0.526437
      2          6           0       -1.916285   -0.413427   -0.339302
      3          6           0       -2.269151   -0.331537   -1.839037
      4          6           0       -0.445281   -0.167434   -0.023133
      5          6           0        0.267397    1.026798   -0.202214
      6         35           0       -0.634854    2.645352   -0.943102
      7          6           0        1.644289    1.279201    0.086847
      8          8           0        2.254111    2.397756   -0.096472
      9          6           0        2.310488    0.110223    0.626067
     10          6           0        1.608231   -1.078969    0.806070
     11         35           0        2.588428   -2.640740    1.550210
     12          6           0        0.234882   -1.336657    0.519409
     13          8           0       -0.356023   -2.465160    0.710509
     14          6           0        3.769652    0.271117    0.965921
     15          1           0       -2.844961    1.471983    0.322183
     16          1           0       -2.678746    0.244025    1.586916
     17          1           0       -3.935016    0.068634    0.345064
     18          1           0       -2.041338   -1.461137   -0.048596
     19          1           0       -2.160959    0.680349   -2.236387
     20          1           0       -1.612099   -0.993849   -2.411632
     21          1           0       -3.307564   -0.657935   -2.007009
     22          1           0        4.404361   -0.423577    0.398682
     23          1           0        4.051420    1.298597    0.725800
     24          1           0        3.969542    0.076142    2.028526
 ---------------------------------------------------------------------
                    Distance matrix (angstroms):
                    1          2          3          4          5
     1  C    0.000000
     2  C    1.542819   0.000000
     3  C    2.555309   1.542863   0.000000
     4  C    2.579243   1.524575   2.578941   0.000000
     5  C    3.310470   2.619448   3.310338   1.402202   0.000000
     6  Br   3.511879   3.370871   3.512192   2.965476   1.995668
     7  C    4.649850   3.965385   4.649572   2.543846   1.429369
     8  O    5.563120   5.035268   5.562865   3.724553   2.416141
     9  C    5.220025   4.367122   5.219673   2.844788   2.387547
    10  C    4.753433   3.765241   4.752824   2.394866   2.692346
    11  Br   6.358009   5.368763   6.357318   4.218535   4.680706
    12  C    3.584360   2.493443   3.583673   1.457414   2.471379
    13  O    3.836523   2.783187   3.835700   2.413657   3.662716
    14  C    6.685884   5.873848   6.685665   4.351576   3.768472
    15  H    1.092441   2.203355   2.873171   2.926670   3.187468
    16  H    1.094626   2.173455   3.498027   2.783868   3.534611
    17  H    1.101381   2.185409   2.775885   3.517037   4.344867
    18  H    2.129227   1.094461   2.129219   2.054681   3.397599
    19  H    2.873779   2.203439   1.092477   2.925881   3.186660
    20  H    3.497969   2.173470   1.094641   2.783766   3.535116
    21  H    2.775568   2.185564   1.101386   3.516962   4.344647
    22  H    7.352300   6.363591   7.039291   4.874686   4.424832
    23  H    7.012580   6.299125   7.013226   4.788577   3.905626
    24  H    7.039822   6.363116   7.351567   4.874351   4.425588
                    6          7          8          9         10
     6  Br   0.000000
     7  C    2.849852   0.000000
     8  O    3.020630   1.287111   0.000000
     9  C    4.190968   1.449513   2.399593   0.000000
    10  C    4.686321   2.465674   3.649570   1.392747   0.000000
    11  Br   6.674498   4.289378   5.311287   2.915320   1.988381
    12  C    4.330332   3.002707   4.289806   2.532386   1.426417
    13  O    5.378616   4.290739   5.577810   3.708100   2.406024
    14  C    5.355468   2.511209   2.819244   1.506834   2.553434
    15  H    2.803982   4.499546   5.199314   5.340917   5.154844
    16  H    4.042877   4.691527   5.639630   5.082675   4.553922
    17  H    4.380630   5.714962   6.627598   6.251961   5.679534
    18  H    4.431883   4.594741   5.774446   4.675760   3.767739
    19  H    2.804072   4.498439   5.198227   5.339712   5.153498
    20  H    4.044178   4.691824   5.640082   5.082645   4.553172
    21  H    4.380295   5.714681   6.627189   6.251853   5.679412
    22  H    6.050818   3.258020   3.581714   2.172775   2.900663
    23  H    5.153654   2.490566   2.261548   2.110219   3.410049
    24  H    6.052427   3.259489   3.584440   2.172674   2.899046
                   11         12         13         14         15
    11  Br   0.000000
    12  C    2.881382   0.000000
    13  O    3.066874   1.288102   0.000000
    14  C    3.196184   3.908825   4.957181   0.000000
    15  H    6.924179   4.172863   4.674046   6.753487   0.000000
    16  H    6.005526   3.482435   3.674618   6.478287   1.770609
    17  H    7.165780   4.403781   4.400324   7.732294   1.777113
    18  H    5.038093   2.349320   2.103471   6.147971   3.063736
    19  H    6.922761   4.171664   4.672924   6.752362   2.764204
    20  H    6.004404   3.481359   3.672907   6.478522   3.882528
    21  H    7.165755   4.403677   4.400291   7.732298   3.189935
    22  H    3.088599   4.269994   5.189080   1.098734   7.493442
    23  H    4.282333   4.642534   5.795831   1.092138   6.910357
    24  H    3.085079   4.268620   5.187089   1.098681   7.162222
                   16         17         18         19         20
    16  H    0.000000
    17  H    1.775154   0.000000
    18  H    2.447196   2.466006   0.000000
    19  H    3.882799   3.191452   3.063772   0.000000
    20  H    4.319543   3.758216   2.446741   1.770564   0.000000
    21  H    3.758356   2.540442   2.466545   1.777167   1.775151
    22  H    7.213044   8.354062   6.543976   7.160005   6.664898
    23  H    6.866497   8.089557   6.733314   6.910169   6.868350
    24  H    6.665053   8.081840   6.542808   7.492502   7.212115
                   21         22         23         24
    21  H    0.000000
    22  H    8.081835   0.000000
    23  H    8.090174   1.788143   0.000000
    24  H    8.353483   1.759312   1.788350   0.000000
 Stoichiometry    C10H10Br2O2(2-)
 Framework group  C1[X(C10H10Br2O2)]
 Deg. of freedom    66
 Full point group                 C1      NOp   1
 Largest Abelian subgroup         C1      NOp   1
 Largest concise Abelian subgroup C1      NOp   1
                         Standard orientation:                         
 ---------------------------------------------------------------------
 Center     Atomic      Atomic             Coordinates (Angstroms)
 Number     Number       Type             X           Y           Z
 ---------------------------------------------------------------------
      1          6           0       -2.347123    2.297578   -1.277646
      2          6           0       -1.502321    2.110727   -0.000271
      3          6           0       -2.346315    2.297770    1.277663
      4          6           0       -0.625543    0.863495   -0.000124
      5          6           0       -1.057175   -0.470620   -0.000021
      6         35           0       -3.004573   -0.906889    0.000028
      7          6           0       -0.254149   -1.653093    0.000150
      8          8           0       -0.700581   -2.860302    0.000429
      9          6           0        1.163042   -1.348694   -0.000108
     10          6           0        1.598147   -0.025657    0.000067
     11         35           0        3.557160    0.314823    0.000009
     12          6           0        0.801847    1.157801    0.000061
     13          8           0        1.269871    2.357867    0.000096
     14          6           0        2.099183   -2.529451   -0.000464
     15          1           0       -3.118010    1.530516   -1.381458
     16          1           0       -1.700919    2.252160   -2.160008
     17          1           0       -2.840406    3.282291   -1.270304
     18          1           0       -0.758791    2.913851   -0.000534
     19          1           0       -3.116371    1.529997    1.382746
     20          1           0       -1.699334    2.253531    2.159535
     21          1           0       -2.840543    3.282013    1.270138
     22          1           0        2.756158   -2.535284    0.880197
     23          1           0        1.487017   -3.433894   -0.002548
     24          1           0        2.758782   -2.532536   -0.879111
 ---------------------------------------------------------------------
 Rotational constants (GHZ):           0.6716358           0.2347621           0.1810937
 Leave Link  202 at Sun Jan 21 07:30:51 2024, MaxMem=  4026531840 cpu:               0.5 elap:               0.1
 (Enter /sysapps/ubuntu-applications/gaussian/Gaussian/AVX2/g16/l301.exe)
 Standard basis: 6-311++G(d,p) (5D, 7F)
 Ernie: Thresh=  0.10000D-02 Tol=  0.10000D-05 Strict=F.
 There are   448 symmetry adapted cartesian basis functions of A   symmetry.
 There are   430 symmetry adapted basis functions of A   symmetry.
   430 basis functions,   710 primitive gaussians,   448 cartesian basis functions
    79 alpha electrons       79 beta electrons
       nuclear repulsion energy      1596.5656396535 Hartrees.
 IExCor=  402 DFT=T Ex+Corr=B3LYP ExCW=0 ScaHFX=  0.200000
 ScaDFX=  0.800000  0.720000  1.000000  0.810000 ScalE2=  1.000000  1.000000
 IRadAn=      5 IRanWt=     -1 IRanGd=            0 ICorTp=0 IEmpDi=  4
 NAtoms=   24 NActive=   24 NUniq=   24 SFac= 1.00D+00 NAtFMM=   60 NAOKFM=F Big=F
 Integral buffers will be    131072 words long.
 Raffenetti 2 integral format.
 Two-electron integral symmetry is turned on.
 ------------------------------------------------------------------------------
 Polarizable Continuum Model (PCM)
 =================================
 Model                : PCM.
 Atomic radii         : UFF (Universal Force Field).
 Polarization charges : Total charges.
 Charge compensation  : None.
 Solution method      : On-the-fly selection.
 Cavity type          : Scaled VdW (van der Waals Surface) (Alpha=1.100).
 Cavity algorithm     : GePol (No added spheres)
                        Default sphere list used, NSphG=   24.
                        Lebedev-Laikov grids with approx.  5.0 points / Ang**2.
                        Smoothing algorithm: York/Karplus (Gamma=1.0000).
                        Polarization charges: spherical gaussians, with
                                              point-specific exponents (IZeta= 3).
                        Self-potential: point-specific (ISelfS= 7).
                        Self-field    : sphere-specific E.n sum rule (ISelfD= 2).
 Solvent              : n,n-DiMethylFormamide, Eps=  37.219000 Eps(inf)=   2.046330
 ------------------------------------------------------------------------------
 GePol: Number of generator spheres                  =      24
 GePol: Total number of spheres                      =      24
 GePol: Number of exposed spheres                    =      24 (100.00%)
 GePol: Number of points                             =    2149
 GePol: Average weight of points                     =       0.13
 GePol: Minimum weight of points                     =   0.10D-09
 GePol: Maximum weight of points                     =    0.20577
 GePol: Number of points with low weight             =     117
 GePol: Fraction of low-weight points (<1% of avg)   =       5.44%
 GePol: Cavity surface area                          =    282.192 Ang**2
 GePol: Cavity volume                                =    306.941 Ang**3
 Leave Link  301 at Sun Jan 21 07:30:51 2024, MaxMem=  4026531840 cpu:               1.0 elap:               0.2
 (Enter /sysapps/ubuntu-applications/gaussian/Gaussian/AVX2/g16/l302.exe)
 NPDir=0 NMtPBC=     1 NCelOv=     1 NCel=       1 NClECP=     1 NCelD=      1
         NCelK=      1 NCelE2=     1 NClLst=     1 CellRange=     0.0.
 One-electron integrals computed using PRISM.
 One-electron integral symmetry used in STVInt
 NBasis=   430 RedAO= T EigKep=  1.84D-06  NBF=   430
 NBsUse=   428 1.00D-06 EigRej=  8.08D-07 NBFU=   428
 Precomputing XC quadrature grid using
 IXCGrd= 4 IRadAn=           5 IRanWt=          -1 IRanGd=           0 AccXCQ= 0.00D+00.
 Generated NRdTot=       0 NPtTot=           0 NUsed=           0 NTot=          32
 NSgBfM=   437   437   437   437   437 MxSgAt=    24 MxSgA2=    24.
 Leave Link  302 at Sun Jan 21 07:30:52 2024, MaxMem=  4026531840 cpu:               6.2 elap:               0.9
 (Enter /sysapps/ubuntu-applications/gaussian/Gaussian/AVX2/g16/l303.exe)
 DipDrv:  MaxL=1.
 Leave Link  303 at Sun Jan 21 07:30:52 2024, MaxMem=  4026531840 cpu:               0.9 elap:               0.2
 (Enter /sysapps/ubuntu-applications/gaussian/Gaussian/AVX2/g16/l401.exe)
 ExpMin= 3.50D-02 ExpMax= 4.40D+05 ExpMxC= 1.51D+04 IAcc=3 IRadAn=         5 AccDes= 0.00D+00
 Harris functional with IExCor=  402 and IRadAn=       5 diagonalized for initial guess.
 HarFok:  IExCor=  402 AccDes= 0.00D+00 IRadAn=         5 IDoV= 1 UseB2=F ITyADJ=14
 ICtDFT=  3500011 ScaDFX=  1.000000  1.000000  1.000000  1.000000
 FoFCou: FMM=F IPFlag=           0 FMFlag=      100000 FMFlg1=           0
         NFxFlg=           0 DoJE=T BraDBF=F KetDBF=T FulRan=T
         wScrn=  0.000000 ICntrl=       500 IOpCl=  0 I1Cent=   200000004 NGrid=           0
         NMat0=    1 NMatS0=      1 NMatT0=    0 NMatD0=    1 NMtDS0=    0 NMtDT0=    0
 Petite list used in FoFCou.
 Harris En= -5686.59428268983    
 JPrj=0 DoOrth=F DoCkMO=F.
 Initial guess <Sx>= 0.0000 <Sy>= 0.0000 <Sz>= 0.0000 <S**2>=-0.0000 S=-0.0000
 Leave Link  401 at Sun Jan 21 07:30:55 2024, MaxMem=  4026531840 cpu:              20.7 elap:               2.6
 (Enter /sysapps/ubuntu-applications/gaussian/Gaussian/AVX2/g16/l502.exe)
 Integral symmetry usage will be decided dynamically.
 UHF open shell SCF:
 Using DIIS extrapolation, IDIIS=  1040.
 NGot=  4026531840 LenX=  4026122654 LenY=  4025921502
 Requested convergence on RMS density matrix=1.00D-08 within 128 cycles.
 Requested convergence on MAX density matrix=1.00D-06.
 Requested convergence on             energy=1.00D-06.
 No special actions if energy rises.
 Fock matrices will be formed incrementally for  20 cycles.

 Cycle   1  Pass 1  IDiag  1:
 FoFJK:  IHMeth= 1 ICntrl=       0 DoSepK=F KAlg= 0 I1Cent=           0 FoldK=F
 IRaf= 860000000 NMat=       1 IRICut=       1 DoRegI=T DoRafI=F ISym2E= 0 IDoP0=0 IntGTp=1.
 FoFCou: FMM=F IPFlag=           0 FMFlag=      100000 FMFlg1=           0
         NFxFlg=           0 DoJE=F BraDBF=F KetDBF=F FulRan=T
         wScrn=  0.000000 ICntrl=         0 IOpCl=  1 I1Cent=           0 NGrid=           0
         NMat0=    1 NMatS0=      1 NMatT0=    0 NMatD0=    1 NMtDS0=    0 NMtDT0=    0
 Symmetry not used in FoFCou.
 Inv3:  Mode=1 IEnd=    13854603.
 Iteration    1 A*A^-1 deviation from unit magnitude is 3.11D-15 for    195.
 Iteration    1 A*A^-1 deviation from orthogonality  is 1.78D-15 for   1877    134.
 Iteration    1 A^-1*A deviation from unit magnitude is 2.78D-15 for   1497.
 Iteration    1 A^-1*A deviation from orthogonality  is 5.09D-15 for    927    924.
 E= -5685.65544245564    
 DIIS: error= 5.96D-02 at cycle   1 NSaved=   1.
 NSaved= 1 IEnMin= 1 EnMin= -5685.65544245564     IErMin= 1 ErrMin= 5.96D-02
 ErrMax= 5.96D-02  0.00D+00 EMaxC= 1.00D-01 BMatC= 1.17D+01 BMatP= 1.17D+01
 IDIUse=3 WtCom= 4.04D-01 WtEn= 5.96D-01
 Coeff-Com:  0.100D+01
 Coeff-En:   0.100D+01
 Coeff:      0.100D+01
 Gap=     0.050 Goal=   None    Shift=    0.000
 Gap=     0.050 Goal=   None    Shift=    0.000
 GapD=    0.050 DampG=0.250 DampE=0.500 DampFc=0.2500 IDamp=-1.
 Damping current iteration by 2.50D-01
 RMSDP=6.36D-01 MaxDP=8.95D+01              OVMax= 9.83D-01

 Cycle   2  Pass 1  IDiag  1:
 RMSU=  1.47D-01    CP:  2.01D+00
 E= -5685.79926020621     Delta-E=       -0.143817750567 Rises=F Damp=T
 DIIS: error= 4.43D-02 at cycle   2 NSaved=   2.
 NSaved= 2 IEnMin= 2 EnMin= -5685.79926020621     IErMin= 2 ErrMin= 4.43D-02
 ErrMax= 4.43D-02  0.00D+00 EMaxC= 1.00D-01 BMatC= 4.82D+00 BMatP= 1.17D+01
 IDIUse=3 WtCom= 5.57D-01 WtEn= 4.43D-01
 Coeff-Com: -0.114D+01 0.214D+01
 Coeff-En:   0.117D+00 0.883D+00
 Coeff:     -0.583D+00 0.158D+01
 Gap=     0.002 Goal=   None    Shift=    0.000
 Gap=     0.002 Goal=   None    Shift=    0.000
 RMSDP=1.65D-01 MaxDP=2.25D+01 DE=-1.44D-01 OVMax= 8.54D-01

 Cycle   3  Pass 1  IDiag  1:
 RMSU=  1.33D-02    CP:  7.21D-01  1.06D-02
 E= -5685.95851818350     Delta-E=       -0.159257977296 Rises=F Damp=F
 DIIS: error= 4.68D-02 at cycle   3 NSaved=   3.
 NSaved= 3 IEnMin= 3 EnMin= -5685.95851818350     IErMin= 2 ErrMin= 4.43D-02
 ErrMax= 4.68D-02  0.00D+00 EMaxC= 1.00D-01 BMatC= 1.35D+00 BMatP= 4.82D+00
 IDIUse=3 WtCom= 5.32D-01 WtEn= 4.68D-01
 Coeff-Com: -0.669D+00 0.108D+01 0.594D+00
 Coeff-En:   0.000D+00 0.157D+00 0.843D+00
 Coeff:     -0.356D+00 0.645D+00 0.711D+00
 Gap=     0.092 Goal=   None    Shift=    0.000
 Gap=     0.092 Goal=   None    Shift=    0.000
 RMSDP=3.66D-02 MaxDP=3.40D+00 DE=-1.59D-01 OVMax= 2.62D-01

 Cycle   4  Pass 1  IDiag  1:
 RMSU=  2.78D-02    CP:  1.06D+00  8.71D-02  1.40D+00
 E= -5686.01249286433     Delta-E=       -0.053974680827 Rises=F Damp=F
 DIIS: error= 4.92D-02 at cycle   4 NSaved=   4.
 NSaved= 4 IEnMin= 4 EnMin= -5686.01249286433     IErMin= 2 ErrMin= 4.43D-02
 ErrMax= 4.92D-02  0.00D+00 EMaxC= 1.00D-01 BMatC= 1.08D+00 BMatP= 1.35D+00
 IDIUse=3 WtCom= 5.08D-01 WtEn= 4.92D-01
 Coeff-Com: -0.151D+00 0.247D+00 0.475D+00 0.429D+00
 Coeff-En:   0.000D+00 0.000D+00 0.455D+00 0.545D+00
 Coeff:     -0.769D-01 0.126D+00 0.465D+00 0.486D+00
 Gap=     0.114 Goal=   None    Shift=    0.000
 Gap=     0.114 Goal=   None    Shift=    0.000
 RMSDP=3.26D-02 MaxDP=3.05D+00 DE=-5.40D-02 OVMax= 1.36D-01

 Cycle   5  Pass 1  IDiag  1:
 RMSU=  5.31D-03    CP:  6.95D-01  2.04D-02  9.90D-01  2.53D-01
 E= -5686.20432410442     Delta-E=       -0.191831240085 Rises=F Damp=F
 DIIS: error= 1.05D-02 at cycle   5 NSaved=   5.
 NSaved= 5 IEnMin= 5 EnMin= -5686.20432410442     IErMin= 5 ErrMin= 1.05D-02
 ErrMax= 1.05D-02  0.00D+00 EMaxC= 1.00D-01 BMatC= 5.51D-02 BMatP= 1.08D+00
 IDIUse=3 WtCom= 8.95D-01 WtEn= 1.05D-01
 Coeff-Com: -0.186D-01 0.362D-01 0.213D+00 0.287D+00 0.482D+00
 Coeff-En:   0.000D+00 0.000D+00 0.000D+00 0.166D-01 0.983D+00
 Coeff:     -0.166D-01 0.324D-01 0.191D+00 0.259D+00 0.535D+00
 Gap=     0.119 Goal=   None    Shift=    0.000
 Gap=     0.119 Goal=   None    Shift=    0.000
 RMSDP=2.35D-03 MaxDP=2.34D-01 DE=-1.92D-01 OVMax= 3.17D-02

 Cycle   6  Pass 1  IDiag  1:
 RMSU=  1.41D-03    CP:  7.12D-01  2.34D-02  1.03D+00  2.70D-01  7.48D-01
 E= -5686.21683876810     Delta-E=       -0.012514663683 Rises=F Damp=F
 DIIS: error= 2.70D-03 at cycle   6 NSaved=   6.
 NSaved= 6 IEnMin= 6 EnMin= -5686.21683876810     IErMin= 6 ErrMin= 2.70D-03
 ErrMax= 2.70D-03  0.00D+00 EMaxC= 1.00D-01 BMatC= 6.41D-03 BMatP= 5.51D-02
 IDIUse=3 WtCom= 9.73D-01 WtEn= 2.70D-02
 Coeff-Com: -0.198D-03 0.227D-03 0.368D-01 0.625D-01 0.294D+00 0.607D+00
 Coeff-En:   0.000D+00 0.000D+00 0.000D+00 0.000D+00 0.105D+00 0.895D+00
 Coeff:     -0.193D-03 0.221D-03 0.358D-01 0.608D-01 0.289D+00 0.615D+00
 Gap=     0.115 Goal=   None    Shift=    0.000
 Gap=     0.115 Goal=   None    Shift=    0.000
 RMSDP=8.19D-04 MaxDP=7.65D-02 DE=-1.25D-02 OVMax= 9.06D-03

 Cycle   7  Pass 1  IDiag  1:
 RMSU=  2.83D-04    CP:  7.04D-01  2.21D-02  1.01D+00  2.63D-01  8.31D-01
                    CP:  9.34D-01
 E= -5686.21835137463     Delta-E=       -0.001512606533 Rises=F Damp=F
 DIIS: error= 4.15D-04 at cycle   7 NSaved=   7.
 NSaved= 7 IEnMin= 7 EnMin= -5686.21835137463     IErMin= 7 ErrMin= 4.15D-04
 ErrMax= 4.15D-04  0.00D+00 EMaxC= 1.00D-01 BMatC= 5.48D-04 BMatP= 6.41D-03
 IDIUse=3 WtCom= 9.96D-01 WtEn= 4.15D-03
 Coeff-Com:  0.125D-03-0.423D-03-0.262D-02 0.107D-02 0.110D+00 0.344D+00
 Coeff-Com:  0.548D+00
 Coeff-En:   0.000D+00 0.000D+00 0.000D+00 0.000D+00 0.000D+00 0.000D+00
 Coeff-En:   0.100D+01
 Coeff:      0.125D-03-0.421D-03-0.261D-02 0.106D-02 0.109D+00 0.343D+00
 Coeff:      0.549D+00
 Gap=     0.115 Goal=   None    Shift=    0.000
 Gap=     0.115 Goal=   None    Shift=    0.000
 RMSDP=2.32D-04 MaxDP=1.55D-02 DE=-1.51D-03 OVMax= 4.83D-03

 Cycle   8  Pass 1  IDiag  1:
 RMSU=  1.11D-04    CP:  7.02D-01  2.16D-02  1.01D+00  2.57D-01  8.35D-01
                    CP:  9.21D-01  7.16D-01
 E= -5686.21845206355     Delta-E=       -0.000100688917 Rises=F Damp=F
 DIIS: error= 2.22D-04 at cycle   8 NSaved=   8.
 NSaved= 8 IEnMin= 8 EnMin= -5686.21845206355     IErMin= 8 ErrMin= 2.22D-04
 ErrMax= 2.22D-04  0.00D+00 EMaxC= 1.00D-01 BMatC= 5.07D-05 BMatP= 5.48D-04
 IDIUse=3 WtCom= 9.98D-01 WtEn= 2.22D-03
 Coeff-Com:  0.201D-03-0.371D-03-0.267D-02-0.195D-02 0.555D-01 0.185D+00
 Coeff-Com:  0.338D+00 0.426D+00
 Coeff-En:   0.000D+00 0.000D+00 0.000D+00 0.000D+00 0.000D+00 0.000D+00
 Coeff-En:   0.242D-01 0.976D+00
 Coeff:      0.201D-03-0.370D-03-0.266D-02-0.195D-02 0.554D-01 0.184D+00
 Coeff:      0.337D+00 0.428D+00
 Gap=     0.115 Goal=   None    Shift=    0.000
 Gap=     0.115 Goal=   None    Shift=    0.000
 RMSDP=7.59D-05 MaxDP=6.60D-03 DE=-1.01D-04 OVMax= 2.28D-03

 Cycle   9  Pass 1  IDiag  1:
 RMSU=  4.51D-05    CP:  7.02D-01  2.15D-02  1.01D+00  2.56D-01  8.38D-01
                    CP:  9.20D-01  7.51D-01  8.81D-01
 E= -5686.21846435793     Delta-E=       -0.000012294379 Rises=F Damp=F
 DIIS: error= 6.63D-05 at cycle   9 NSaved=   9.
 NSaved= 9 IEnMin= 9 EnMin= -5686.21846435793     IErMin= 9 ErrMin= 6.63D-05
 ErrMax= 6.63D-05  0.00D+00 EMaxC= 1.00D-01 BMatC= 4.49D-06 BMatP= 5.07D-05
 IDIUse=1 WtCom= 1.00D+00 WtEn= 0.00D+00
 Coeff-Com:  0.236D-03-0.342D-03-0.543D-03-0.119D-02 0.966D-02 0.359D-01
 Coeff-Com:  0.815D-01 0.239D+00 0.635D+00
 Coeff:      0.236D-03-0.342D-03-0.543D-03-0.119D-02 0.966D-02 0.359D-01
 Coeff:      0.815D-01 0.239D+00 0.635D+00
 Gap=     0.115 Goal=   None    Shift=    0.000
 Gap=     0.115 Goal=   None    Shift=    0.000
 RMSDP=3.92D-05 MaxDP=3.17D-03 DE=-1.23D-05 OVMax= 6.36D-04

 Cycle  10  Pass 1  IDiag  1:
 RMSU=  1.08D-05    CP:  7.01D-01  2.15D-02  1.01D+00  2.55D-01  8.39D-01
                    CP:  9.25D-01  7.65D-01  9.32D-01  8.04D-01
 E= -5686.21846534659     Delta-E=       -0.000000988666 Rises=F Damp=F
 DIIS: error= 2.40D-05 at cycle  10 NSaved=  10.
 NSaved=10 IEnMin=10 EnMin= -5686.21846534659     IErMin=10 ErrMin= 2.40D-05
 ErrMax= 2.40D-05  0.00D+00 EMaxC= 1.00D-01 BMatC= 7.77D-07 BMatP= 4.49D-06
 IDIUse=1 WtCom= 1.00D+00 WtEn= 0.00D+00
 Coeff-Com:  0.136D-03-0.191D-03-0.652D-04-0.607D-03 0.212D-03 0.365D-02
 Coeff-Com:  0.171D-01 0.110D+00 0.408D+00 0.462D+00
 Coeff:      0.136D-03-0.191D-03-0.652D-04-0.607D-03 0.212D-03 0.365D-02
 Coeff:      0.171D-01 0.110D+00 0.408D+00 0.462D+00
 Gap=     0.115 Goal=   None    Shift=    0.000
 Gap=     0.115 Goal=   None    Shift=    0.000
 RMSDP=1.23D-05 MaxDP=9.12D-04 DE=-9.89D-07 OVMax= 1.30D-04

 Cycle  11  Pass 1  IDiag  1:
 RMSU=  4.24D-06    CP:  7.01D-01  2.14D-02  1.01D+00  2.55D-01  8.39D-01
                    CP:  9.26D-01  7.67D-01  9.54D-01  8.55D-01  8.02D-01
 E= -5686.21846553755     Delta-E=       -0.000000190959 Rises=F Damp=F
 DIIS: error= 3.67D-06 at cycle  11 NSaved=  11.
 NSaved=11 IEnMin=11 EnMin= -5686.21846553755     IErMin=11 ErrMin= 3.67D-06
 ErrMax= 3.67D-06  0.00D+00 EMaxC= 1.00D-01 BMatC= 1.33D-08 BMatP= 7.77D-07
 IDIUse=1 WtCom= 1.00D+00 WtEn= 0.00D+00
 Coeff-Com:  0.116D-04-0.167D-04-0.138D-04-0.119D-03-0.554D-03-0.868D-03
 Coeff-Com:  0.358D-03 0.175D-01 0.814D-01 0.145D+00 0.758D+00
 Coeff:      0.116D-04-0.167D-04-0.138D-04-0.119D-03-0.554D-03-0.868D-03
 Coeff:      0.358D-03 0.175D-01 0.814D-01 0.145D+00 0.758D+00
 Gap=     0.115 Goal=   None    Shift=    0.000
 Gap=     0.115 Goal=   None    Shift=    0.000
 RMSDP=2.32D-06 MaxDP=2.56D-04 DE=-1.91D-07 OVMax= 1.46D-05

 Cycle  12  Pass 1  IDiag  1:
 RMSU=  1.20D-06    CP:  7.01D-01  2.14D-02  1.01D+00  2.55D-01  8.39D-01
                    CP:  9.26D-01  7.68D-01  9.57D-01  8.70D-01  8.73D-01
                    CP:  9.27D-01
 E= -5686.21846553959     Delta-E=       -0.000000002041 Rises=F Damp=F
 DIIS: error= 1.54D-06 at cycle  12 NSaved=  12.
 NSaved=12 IEnMin=12 EnMin= -5686.21846553959     IErMin=12 ErrMin= 1.54D-06
 ErrMax= 1.54D-06  0.00D+00 EMaxC= 1.00D-01 BMatC= 4.19D-09 BMatP= 1.33D-08
 IDIUse=1 WtCom= 1.00D+00 WtEn= 0.00D+00
 Coeff-Com: -0.563D-05 0.699D-05-0.110D-04-0.606D-05-0.294D-03-0.703D-03
 Coeff-Com: -0.127D-02-0.206D-03 0.874D-02 0.382D-01 0.413D+00 0.543D+00
 Coeff:     -0.563D-05 0.699D-05-0.110D-04-0.606D-05-0.294D-03-0.703D-03
 Coeff:     -0.127D-02-0.206D-03 0.874D-02 0.382D-01 0.413D+00 0.543D+00
 Gap=     0.115 Goal=   None    Shift=    0.000
 Gap=     0.115 Goal=   None    Shift=    0.000
 RMSDP=8.35D-07 MaxDP=7.58D-05 DE=-2.04D-09 OVMax= 8.79D-06

 Cycle  13  Pass 1  IDiag  1:
 RMSU=  4.36D-07    CP:  7.01D-01  2.14D-02  1.01D+00  2.55D-01  8.39D-01
                    CP:  9.26D-01  7.69D-01  9.58D-01  8.68D-01  8.86D-01
                    CP:  1.01D+00  8.04D-01
 E= -5686.21846554047     Delta-E=       -0.000000000879 Rises=F Damp=F
 DIIS: error= 6.00D-07 at cycle  13 NSaved=  13.
 NSaved=13 IEnMin=13 EnMin= -5686.21846554047     IErMin=13 ErrMin= 6.00D-07
 ErrMax= 6.00D-07  0.00D+00 EMaxC= 1.00D-01 BMatC= 3.72D-10 BMatP= 4.19D-09
 IDIUse=1 WtCom= 1.00D+00 WtEn= 0.00D+00
 Coeff-Com: -0.503D-05 0.650D-05-0.743D-05 0.627D-05-0.116D-03-0.322D-03
 Coeff-Com: -0.729D-03-0.148D-02-0.141D-02 0.809D-02 0.144D+00 0.282D+00
 Coeff-Com:  0.570D+00
 Coeff:     -0.503D-05 0.650D-05-0.743D-05 0.627D-05-0.116D-03-0.322D-03
 Coeff:     -0.729D-03-0.148D-02-0.141D-02 0.809D-02 0.144D+00 0.282D+00
 Coeff:      0.570D+00
 Gap=     0.115 Goal=   None    Shift=    0.000
 Gap=     0.115 Goal=   None    Shift=    0.000
 RMSDP=2.64D-07 MaxDP=2.93D-05 DE=-8.79D-10 OVMax= 4.37D-06

 Cycle  14  Pass 1  IDiag  1:
 RMSU=  8.28D-08    CP:  7.01D-01  2.14D-02  1.01D+00  2.55D-01  8.39D-01
                    CP:  9.26D-01  7.69D-01  9.59D-01  8.70D-01  8.93D-01
                    CP:  1.00D+00  8.57D-01  7.75D-01
 E= -5686.21846554054     Delta-E=       -0.000000000072 Rises=F Damp=F
 DIIS: error= 2.56D-07 at cycle  14 NSaved=  14.
 NSaved=14 IEnMin=14 EnMin= -5686.21846554054     IErMin=14 ErrMin= 2.56D-07
 ErrMax= 2.56D-07  0.00D+00 EMaxC= 1.00D-01 BMatC= 6.53D-11 BMatP= 3.72D-10
 IDIUse=1 WtCom= 1.00D+00 WtEn= 0.00D+00
 Coeff-Com: -0.340D-05 0.450D-05-0.353D-05 0.441D-05-0.377D-04-0.120D-03
 Coeff-Com: -0.290D-03-0.843D-03-0.169D-02 0.341D-03 0.363D-01 0.104D+00
 Coeff-Com:  0.348D+00 0.514D+00
 Coeff:     -0.340D-05 0.450D-05-0.353D-05 0.441D-05-0.377D-04-0.120D-03
 Coeff:     -0.290D-03-0.843D-03-0.169D-02 0.341D-03 0.363D-01 0.104D+00
 Coeff:      0.348D+00 0.514D+00
 Gap=     0.115 Goal=   None    Shift=    0.000
 Gap=     0.115 Goal=   None    Shift=    0.000
 RMSDP=8.59D-08 MaxDP=8.64D-06 DE=-7.19D-11 OVMax= 1.41D-06

 Cycle  15  Pass 1  IDiag  1:
 RMSU=  2.71D-08    CP:  7.01D-01  2.14D-02  1.01D+00  2.55D-01  8.39D-01
                    CP:  9.26D-01  7.69D-01  9.59D-01  8.70D-01  8.94D-01
                    CP:  1.01D+00  8.37D-01  8.71D-01  8.97D-01
 E= -5686.21846554055     Delta-E=       -0.000000000007 Rises=F Damp=F
 DIIS: error= 4.82D-08 at cycle  15 NSaved=  15.
 NSaved=15 IEnMin=15 EnMin= -5686.21846554055     IErMin=15 ErrMin= 4.82D-08
 ErrMax= 4.82D-08  0.00D+00 EMaxC= 1.00D-01 BMatC= 3.05D-12 BMatP= 6.53D-11
 IDIUse=1 WtCom= 1.00D+00 WtEn= 0.00D+00
 Coeff-Com: -0.120D-05 0.163D-05-0.484D-06 0.102D-05-0.557D-05-0.239D-04
 Coeff-Com: -0.419D-04-0.139D-03-0.286D-03-0.453D-03-0.328D-03 0.738D-02
 Coeff-Com:  0.616D-01 0.189D+00 0.744D+00
 Coeff:     -0.120D-05 0.163D-05-0.484D-06 0.102D-05-0.557D-05-0.239D-04
 Coeff:     -0.419D-04-0.139D-03-0.286D-03-0.453D-03-0.328D-03 0.738D-02
 Coeff:      0.616D-01 0.189D+00 0.744D+00
 Gap=     0.115 Goal=   None    Shift=    0.000
 Gap=     0.115 Goal=   None    Shift=    0.000
 RMSDP=2.43D-08 MaxDP=2.57D-06 DE=-7.28D-12 OVMax= 2.41D-07

 Cycle  16  Pass 1  IDiag  1:
 RMSU=  8.53D-09    CP:  7.01D-01  2.14D-02  1.01D+00  2.55D-01  8.39D-01
                    CP:  9.26D-01  7.69D-01  9.59D-01  8.70D-01  8.94D-01
                    CP:  1.01D+00  8.45D-01  8.65D-01  9.10D-01  9.55D-01
 E= -5686.21846554059     Delta-E=       -0.000000000035 Rises=F Damp=F
 DIIS: error= 1.54D-08 at cycle  16 NSaved=  16.
 NSaved=16 IEnMin=16 EnMin= -5686.21846554059     IErMin=16 ErrMin= 1.54D-08
 ErrMax= 1.54D-08  0.00D+00 EMaxC= 1.00D-01 BMatC= 3.00D-13 BMatP= 3.05D-12
 IDIUse=1 WtCom= 1.00D+00 WtEn= 0.00D+00
 Coeff-Com: -0.262D-06 0.363D-06-0.583D-07 0.247D-06-0.897D-06-0.683D-05
 Coeff-Com: -0.677D-05-0.129D-04 0.207D-04-0.153D-03-0.233D-02-0.366D-02
 Coeff-Com:  0.400D-02 0.486D-01 0.330D+00 0.623D+00
 Coeff:     -0.262D-06 0.363D-06-0.583D-07 0.247D-06-0.897D-06-0.683D-05
 Coeff:     -0.677D-05-0.129D-04 0.207D-04-0.153D-03-0.233D-02-0.366D-02
 Coeff:      0.400D-02 0.486D-01 0.330D+00 0.623D+00
 Gap=     0.115 Goal=   None    Shift=    0.000
 Gap=     0.115 Goal=   None    Shift=    0.000
 RMSDP=9.38D-09 MaxDP=7.48D-07 DE=-3.55D-11 OVMax= 6.55D-08

 Error on total polarization charges =  0.03050
 SCF Done:  E(UB3LYP) =  -5686.21846554     A.U. after   16 cycles
            NFock= 16  Conv=0.94D-08     -V/T= 2.0015
 <Sx>= 0.0000 <Sy>= 0.0000 <Sz>= 0.0000 <S**2>=-0.0000 S=-0.0000
 <L.S>=  0.00000000000    
 KE= 5.677606346248D+03 PE=-1.680015011547D+04 EE= 3.839759664027D+03
 Annihilation of the first spin contaminant:
 S**2 before annihilation    -0.0000,   after     0.0000
 Leave Link  502 at Sun Jan 21 07:35:07 2024, MaxMem=  4026531840 cpu:            2012.5 elap:             252.8
 (Enter /sysapps/ubuntu-applications/gaussian/Gaussian/AVX2/g16/l601.exe)
 Copying SCF densities to generalized density rwf, IOpCl= 1 IROHF=0.

 **********************************************************************

            Population analysis using the SCF density.

 **********************************************************************

 Orbital symmetries:
 Alpha Orbitals:
       Occupied  (A) (A) (A) (A) (A) (A) (A) (A) (A) (A) (A) (A)
                 (A) (A) (A) (A) (A) (A) (A) (A) (A) (A) (A) (A)
                 (A) (A) (A) (A) (A) (A) (A) (A) (A) (A) (A) (A)
                 (A) (A) (A) (A) (A) (A) (A) (A) (A) (A) (A) (A)
                 (A) (A) (A) (A) (A) (A) (A) (A) (A) (A) (A) (A)
                 (A) (A) (A) (A) (A) (A) (A) (A) (A) (A) (A) (A)
                 (A) (A) (A) (A) (A) (A) (A)
       Virtual   (A) (A) (A) (A) (A) (A) (A) (A) (A) (A) (A) (A)
                 (A) (A) (A) (A) (A) (A) (A) (A) (A) (A) (A) (A)
                 (A) (A) (A) (A) (A) (A) (A) (A) (A) (A) (A) (A)
                 (A) (A) (A) (A) (A) (A) (A) (A) (A) (A) (A) (A)
                 (A) (A) (A) (A) (A) (A) (A) (A) (A) (A) (A) (A)
                 (A) (A) (A) (A) (A) (A) (A) (A) (A) (A) (A) (A)
                 (A) (A) (A) (A) (A) (A) (A) (A) (A) (A) (A) (A)
                 (A) (A) (A) (A) (A) (A) (A) (A) (A) (A) (A) (A)
                 (A) (A) (A) (A) (A) (A) (A) (A) (A) (A) (A) (A)
                 (A) (A) (A) (A) (A) (A) (A) (A) (A) (A) (A) (A)
                 (A) (A) (A) (A) (A) (A) (A) (A) (A) (A) (A) (A)
                 (A) (A) (A) (A) (A) (A) (A) (A) (A) (A) (A) (A)
                 (A) (A) (A) (A) (A) (A) (A) (A) (A) (A) (A) (A)
                 (A) (A) (A) (A) (A) (A) (A) (A) (A) (A) (A) (A)
                 (A) (A) (A) (A) (A) (A) (A) (A) (A) (A) (A) (A)
                 (A) (A) (A) (A) (A) (A) (A) (A) (A) (A) (A) (A)
                 (A) (A) (A) (A) (A) (A) (A) (A) (A) (A) (A) (A)
                 (A) (A) (A) (A) (A) (A) (A) (A) (A) (A) (A) (A)
                 (A) (A) (A) (A) (A) (A) (A) (A) (A) (A) (A) (A)
                 (A) (A) (A) (A) (A) (A) (A) (A) (A) (A) (A) (A)
                 (A) (A) (A) (A) (A) (A) (A) (A) (A) (A) (A) (A)
                 (A) (A) (A) (A) (A) (A) (A) (A) (A) (A) (A) (A)
                 (A) (A) (A) (A) (A) (A) (A) (A) (A) (A) (A) (A)
                 (A) (A) (A) (A) (A) (A) (A) (A) (A) (A) (A) (A)
                 (A) (A) (A) (A) (A) (A) (A) (A) (A) (A) (A) (A)
                 (A) (A) (A) (A) (A) (A) (A) (A) (A) (A) (A) (A)
                 (A) (A) (A) (A) (A) (A) (A) (A) (A) (A) (A) (A)
                 (A) (A) (A) (A) (A) (A) (A) (A) (A) (A) (A) (A)
                 (A) (A) (A) (A) (A) (A) (A) (A) (A) (A) (A) (A)
                 (A)
 Beta  Orbitals:
       Occupied  (A) (A) (A) (A) (A) (A) (A) (A) (A) (A) (A) (A)
                 (A) (A) (A) (A) (A) (A) (A) (A) (A) (A) (A) (A)
                 (A) (A) (A) (A) (A) (A) (A) (A) (A) (A) (A) (A)
                 (A) (A) (A) (A) (A) (A) (A) (A) (A) (A) (A) (A)
                 (A) (A) (A) (A) (A) (A) (A) (A) (A) (A) (A) (A)
                 (A) (A) (A) (A) (A) (A) (A) (A) (A) (A) (A) (A)
                 (A) (A) (A) (A) (A) (A) (A)
       Virtual   (A) (A) (A) (A) (A) (A) (A) (A) (A) (A) (A) (A)
                 (A) (A) (A) (A) (A) (A) (A) (A) (A) (A) (A) (A)
                 (A) (A) (A) (A) (A) (A) (A) (A) (A) (A) (A) (A)
                 (A) (A) (A) (A) (A) (A) (A) (A) (A) (A) (A) (A)
                 (A) (A) (A) (A) (A) (A) (A) (A) (A) (A) (A) (A)
                 (A) (A) (A) (A) (A) (A) (A) (A) (A) (A) (A) (A)
                 (A) (A) (A) (A) (A) (A) (A) (A) (A) (A) (A) (A)
                 (A) (A) (A) (A) (A) (A) (A) (A) (A) (A) (A) (A)
                 (A) (A) (A) (A) (A) (A) (A) (A) (A) (A) (A) (A)
                 (A) (A) (A) (A) (A) (A) (A) (A) (A) (A) (A) (A)
                 (A) (A) (A) (A) (A) (A) (A) (A) (A) (A) (A) (A)
                 (A) (A) (A) (A) (A) (A) (A) (A) (A) (A) (A) (A)
                 (A) (A) (A) (A) (A) (A) (A) (A) (A) (A) (A) (A)
                 (A) (A) (A) (A) (A) (A) (A) (A) (A) (A) (A) (A)
                 (A) (A) (A) (A) (A) (A) (A) (A) (A) (A) (A) (A)
                 (A) (A) (A) (A) (A) (A) (A) (A) (A) (A) (A) (A)
                 (A) (A) (A) (A) (A) (A) (A) (A) (A) (A) (A) (A)
                 (A) (A) (A) (A) (A) (A) (A) (A) (A) (A) (A) (A)
                 (A) (A) (A) (A) (A) (A) (A) (A) (A) (A) (A) (A)
                 (A) (A) (A) (A) (A) (A) (A) (A) (A) (A) (A) (A)
                 (A) (A) (A) (A) (A) (A) (A) (A) (A) (A) (A) (A)
                 (A) (A) (A) (A) (A) (A) (A) (A) (A) (A) (A) (A)
                 (A) (A) (A) (A) (A) (A) (A) (A) (A) (A) (A) (A)
                 (A) (A) (A) (A) (A) (A) (A) (A) (A) (A) (A) (A)
                 (A) (A) (A) (A) (A) (A) (A) (A) (A) (A) (A) (A)
                 (A) (A) (A) (A) (A) (A) (A) (A) (A) (A) (A) (A)
                 (A) (A) (A) (A) (A) (A) (A) (A) (A) (A) (A) (A)
                 (A) (A) (A) (A) (A) (A) (A) (A) (A) (A) (A) (A)
                 (A) (A) (A) (A) (A) (A) (A) (A) (A) (A) (A) (A)
                 (A)
 The electronic state is 1-A.
 Alpha  occ. eigenvalues -- -482.79884-482.79568 -62.45164 -62.44855 -56.27157
 Alpha  occ. eigenvalues --  -56.26850 -56.26845 -56.26814 -56.26534 -56.26502
 Alpha  occ. eigenvalues --  -19.02012 -19.01929 -10.18339 -10.18254 -10.18103
 Alpha  occ. eigenvalues --  -10.17946 -10.15033 -10.14528 -10.14390 -10.14066
 Alpha  occ. eigenvalues --  -10.14066 -10.14040  -8.66113  -8.65810  -6.49107
 Alpha  occ. eigenvalues --   -6.48812  -6.48073  -6.47982  -6.47767  -6.47674
 Alpha  occ. eigenvalues --   -2.60224  -2.59946  -2.59927  -2.59878  -2.59648
 Alpha  occ. eigenvalues --   -2.59577  -2.59055  -2.59055  -2.58747  -2.58746
 Alpha  occ. eigenvalues --   -0.94160  -0.93764  -0.81260  -0.78890  -0.75846
 Alpha  occ. eigenvalues --   -0.74008  -0.71291  -0.66651  -0.65061  -0.64178
 Alpha  occ. eigenvalues --   -0.57424  -0.52312  -0.51336  -0.46559  -0.43155
 Alpha  occ. eigenvalues --   -0.41645  -0.40420  -0.40390  -0.39305  -0.37667
 Alpha  occ. eigenvalues --   -0.37357  -0.36572  -0.35914  -0.35337  -0.34662
 Alpha  occ. eigenvalues --   -0.32740  -0.32676  -0.32236  -0.31797  -0.29796
 Alpha  occ. eigenvalues --   -0.28382  -0.27672  -0.26397  -0.25673  -0.22708
 Alpha  occ. eigenvalues --   -0.20405  -0.20366  -0.19745  -0.12348
 Alpha virt. eigenvalues --   -0.00835  -0.00048   0.00737   0.01229   0.01565
 Alpha virt. eigenvalues --    0.02696   0.02709   0.03158   0.03764   0.04101
 Alpha virt. eigenvalues --    0.05065   0.05365   0.05563   0.05997   0.06139
 Alpha virt. eigenvalues --    0.06831   0.06866   0.07567   0.07662   0.08597
 Alpha virt. eigenvalues --    0.08758   0.08794   0.09716   0.10199   0.10717
 Alpha virt. eigenvalues --    0.11372   0.11854   0.12645   0.12736   0.12982
 Alpha virt. eigenvalues --    0.13823   0.14244   0.14261   0.14536   0.15025
 Alpha virt. eigenvalues --    0.15286   0.15327   0.15861   0.16172   0.16793
 Alpha virt. eigenvalues --    0.17693   0.17918   0.18037   0.18390   0.18789
 Alpha virt. eigenvalues --    0.19071   0.19436   0.19730   0.20432   0.20790
 Alpha virt. eigenvalues --    0.20821   0.21677   0.21705   0.22435   0.22909
 Alpha virt. eigenvalues --    0.23529   0.24666   0.24714   0.25334   0.25654
 Alpha virt. eigenvalues --    0.25875   0.26224   0.27113   0.27484   0.28728
 Alpha virt. eigenvalues --    0.28832   0.29373   0.30185   0.30446   0.30953
 Alpha virt. eigenvalues --    0.31596   0.32065   0.32625   0.33337   0.34072
 Alpha virt. eigenvalues --    0.34448   0.35005   0.35327   0.35791   0.36767
 Alpha virt. eigenvalues --    0.38942   0.39225   0.40210   0.41606   0.42491
 Alpha virt. eigenvalues --    0.43392   0.43879   0.44458   0.44670   0.45804
 Alpha virt. eigenvalues --    0.45821   0.46833   0.48180   0.49350   0.49597
 Alpha virt. eigenvalues --    0.50392   0.51213   0.52454   0.54158   0.54673
 Alpha virt. eigenvalues --    0.55413   0.57308   0.58990   0.59861   0.60387
 Alpha virt. eigenvalues --    0.60850   0.61391   0.63157   0.63202   0.63428
 Alpha virt. eigenvalues --    0.64060   0.65359   0.65531   0.66707   0.67589
 Alpha virt. eigenvalues --    0.68424   0.68594   0.69330   0.69904   0.70193
 Alpha virt. eigenvalues --    0.70523   0.70801   0.71679   0.72586   0.72985
 Alpha virt. eigenvalues --    0.73856   0.75136   0.76670   0.77899   0.79132
 Alpha virt. eigenvalues --    0.79437   0.80351   0.80494   0.80883   0.81662
 Alpha virt. eigenvalues --    0.82203   0.82901   0.85694   0.88301   0.88738
 Alpha virt. eigenvalues --    0.89204   0.91547   0.93098   0.94441   0.95799
 Alpha virt. eigenvalues --    0.97087   0.98040   0.99433   1.01144   1.03072
 Alpha virt. eigenvalues --    1.05093   1.05409   1.05453   1.08482   1.08931
 Alpha virt. eigenvalues --    1.10241   1.11379   1.13547   1.16768   1.17404
 Alpha virt. eigenvalues --    1.21774   1.21994   1.23534   1.25229   1.26965
 Alpha virt. eigenvalues --    1.28761   1.29002   1.30304   1.32218   1.33217
 Alpha virt. eigenvalues --    1.33847   1.35517   1.37043   1.40064   1.41678
 Alpha virt. eigenvalues --    1.46898   1.47742   1.48312   1.48561   1.51059
 Alpha virt. eigenvalues --    1.51939   1.53607   1.56092   1.58815   1.59099
 Alpha virt. eigenvalues --    1.59705   1.61324   1.61353   1.61693   1.64815
 Alpha virt. eigenvalues --    1.65101   1.65747   1.66768   1.68849   1.69651
 Alpha virt. eigenvalues --    1.70610   1.73868   1.74736   1.76518   1.78743
 Alpha virt. eigenvalues --    1.78863   1.81084   1.81984   1.85323   1.85945
 Alpha virt. eigenvalues --    1.86842   1.87455   1.87532   1.89929   1.93413
 Alpha virt. eigenvalues --    1.93751   1.96939   1.97301   2.00071   2.01468
 Alpha virt. eigenvalues --    2.04872   2.05885   2.07898   2.08648   2.11078
 Alpha virt. eigenvalues --    2.12967   2.14129   2.15710   2.17487   2.18079
 Alpha virt. eigenvalues --    2.20802   2.23243   2.26529   2.26538   2.29419
 Alpha virt. eigenvalues --    2.31822   2.32906   2.33041   2.36962   2.38514
 Alpha virt. eigenvalues --    2.38945   2.40193   2.42986   2.48253   2.49452
 Alpha virt. eigenvalues --    2.52612   2.52771   2.53902   2.55398   2.57329
 Alpha virt. eigenvalues --    2.58310   2.59485   2.59839   2.61420   2.63741
 Alpha virt. eigenvalues --    2.65643   2.66564   2.69967   2.72533   2.74002
 Alpha virt. eigenvalues --    2.76040   2.78596   2.80000   2.81143   2.85982
 Alpha virt. eigenvalues --    2.86485   2.89849   2.90351   2.92045   2.95575
 Alpha virt. eigenvalues --    2.96332   2.96847   3.00074   3.01659   3.02453
 Alpha virt. eigenvalues --    3.03312   3.10488   3.13145   3.16483   3.16563
 Alpha virt. eigenvalues --    3.17512   3.20499   3.24711   3.26833   3.28611
 Alpha virt. eigenvalues --    3.35515   3.37844   3.39612   3.47016   3.50742
 Alpha virt. eigenvalues --    3.54222   3.58330   3.61514   3.78988   3.79133
 Alpha virt. eigenvalues --    3.80408   3.80891   3.85701   3.86108   3.89230
 Alpha virt. eigenvalues --    3.93291   4.05094   4.17892   4.18962   4.21084
 Alpha virt. eigenvalues --    4.24420   4.24906   4.26117   4.26655   4.29498
 Alpha virt. eigenvalues --    4.29741   4.32191   4.39951   4.42510   4.45079
 Alpha virt. eigenvalues --    4.61266   4.62265   4.85144   5.14621   5.16396
 Alpha virt. eigenvalues --    5.32161   5.36027   5.76367   5.84958   6.80320
 Alpha virt. eigenvalues --    6.85150   7.60460   7.62055   7.72355   7.75302
 Alpha virt. eigenvalues --    7.78923   7.81167  23.53210  23.82492  23.88407
 Alpha virt. eigenvalues --   23.96109  23.97143  23.98350  24.00023  24.02284
 Alpha virt. eigenvalues --   24.06817  24.10794  48.06262  48.10221  50.08260
 Alpha virt. eigenvalues --   50.12994 289.80531 289.82130 289.92268 289.95580
 Alpha virt. eigenvalues --  290.00721 290.027741020.876831020.92594
  Beta  occ. eigenvalues -- -482.79884-482.79568 -62.45164 -62.44855 -56.27157
  Beta  occ. eigenvalues --  -56.26850 -56.26845 -56.26814 -56.26534 -56.26502
  Beta  occ. eigenvalues --  -19.02012 -19.01929 -10.18339 -10.18254 -10.18103
  Beta  occ. eigenvalues --  -10.17946 -10.15033 -10.14528 -10.14390 -10.14066
  Beta  occ. eigenvalues --  -10.14066 -10.14040  -8.66113  -8.65810  -6.49107
  Beta  occ. eigenvalues --   -6.48812  -6.48073  -6.47982  -6.47767  -6.47674
  Beta  occ. eigenvalues --   -2.60224  -2.59946  -2.59927  -2.59878  -2.59648
  Beta  occ. eigenvalues --   -2.59577  -2.59055  -2.59055  -2.58747  -2.58746
  Beta  occ. eigenvalues --   -0.94160  -0.93764  -0.81260  -0.78890  -0.75846
  Beta  occ. eigenvalues --   -0.74008  -0.71291  -0.66651  -0.65061  -0.64178
  Beta  occ. eigenvalues --   -0.57424  -0.52312  -0.51336  -0.46559  -0.43155
  Beta  occ. eigenvalues --   -0.41645  -0.40420  -0.40390  -0.39305  -0.37667
  Beta  occ. eigenvalues --   -0.37357  -0.36572  -0.35914  -0.35337  -0.34662
  Beta  occ. eigenvalues --   -0.32740  -0.32676  -0.32236  -0.31797  -0.29796
  Beta  occ. eigenvalues --   -0.28382  -0.27672  -0.26397  -0.25673  -0.22708
  Beta  occ. eigenvalues --   -0.20405  -0.20366  -0.19745  -0.12348
  Beta virt. eigenvalues --   -0.00835  -0.00048   0.00737   0.01229   0.01565
  Beta virt. eigenvalues --    0.02696   0.02709   0.03158   0.03764   0.04101
  Beta virt. eigenvalues --    0.05065   0.05365   0.05563   0.05997   0.06139
  Beta virt. eigenvalues --    0.06831   0.06866   0.07567   0.07662   0.08597
  Beta virt. eigenvalues --    0.08758   0.08794   0.09716   0.10199   0.10717
  Beta virt. eigenvalues --    0.11372   0.11854   0.12645   0.12736   0.12982
  Beta virt. eigenvalues --    0.13823   0.14244   0.14261   0.14536   0.15025
  Beta virt. eigenvalues --    0.15286   0.15327   0.15861   0.16172   0.16793
  Beta virt. eigenvalues --    0.17693   0.17918   0.18037   0.18390   0.18789
  Beta virt. eigenvalues --    0.19071   0.19436   0.19730   0.20432   0.20790
  Beta virt. eigenvalues --    0.20821   0.21677   0.21705   0.22435   0.22909
  Beta virt. eigenvalues --    0.23529   0.24666   0.24714   0.25334   0.25654
  Beta virt. eigenvalues --    0.25875   0.26224   0.27113   0.27484   0.28728
  Beta virt. eigenvalues --    0.28832   0.29373   0.30185   0.30446   0.30953
  Beta virt. eigenvalues --    0.31596   0.32065   0.32625   0.33337   0.34072
  Beta virt. eigenvalues --    0.34448   0.35005   0.35327   0.35791   0.36767
  Beta virt. eigenvalues --    0.38942   0.39225   0.40210   0.41606   0.42491
  Beta virt. eigenvalues --    0.43392   0.43879   0.44458   0.44670   0.45804
  Beta virt. eigenvalues --    0.45821   0.46833   0.48180   0.49350   0.49597
  Beta virt. eigenvalues --    0.50392   0.51213   0.52454   0.54158   0.54673
  Beta virt. eigenvalues --    0.55413   0.57308   0.58990   0.59861   0.60387
  Beta virt. eigenvalues --    0.60850   0.61391   0.63157   0.63202   0.63428
  Beta virt. eigenvalues --    0.64060   0.65359   0.65531   0.66707   0.67589
  Beta virt. eigenvalues --    0.68424   0.68594   0.69330   0.69904   0.70193
  Beta virt. eigenvalues --    0.70523   0.70801   0.71679   0.72586   0.72985
  Beta virt. eigenvalues --    0.73856   0.75136   0.76670   0.77899   0.79132
  Beta virt. eigenvalues --    0.79437   0.80351   0.80494   0.80883   0.81662
  Beta virt. eigenvalues --    0.82203   0.82901   0.85694   0.88301   0.88738
  Beta virt. eigenvalues --    0.89204   0.91547   0.93098   0.94441   0.95799
  Beta virt. eigenvalues --    0.97087   0.98040   0.99433   1.01144   1.03072
  Beta virt. eigenvalues --    1.05093   1.05409   1.05453   1.08482   1.08931
  Beta virt. eigenvalues --    1.10241   1.11379   1.13547   1.16768   1.17404
  Beta virt. eigenvalues --    1.21774   1.21994   1.23534   1.25229   1.26965
  Beta virt. eigenvalues --    1.28761   1.29002   1.30304   1.32218   1.33217
  Beta virt. eigenvalues --    1.33847   1.35517   1.37043   1.40064   1.41678
  Beta virt. eigenvalues --    1.46898   1.47742   1.48312   1.48561   1.51059
  Beta virt. eigenvalues --    1.51939   1.53607   1.56092   1.58815   1.59099
  Beta virt. eigenvalues --    1.59705   1.61324   1.61353   1.61693   1.64815
  Beta virt. eigenvalues --    1.65101   1.65747   1.66768   1.68849   1.69651
  Beta virt. eigenvalues --    1.70610   1.73868   1.74736   1.76518   1.78743
  Beta virt. eigenvalues --    1.78863   1.81084   1.81984   1.85323   1.85945
  Beta virt. eigenvalues --    1.86842   1.87455   1.87532   1.89929   1.93413
  Beta virt. eigenvalues --    1.93751   1.96939   1.97301   2.00071   2.01468
  Beta virt. eigenvalues --    2.04872   2.05885   2.07898   2.08648   2.11078
  Beta virt. eigenvalues --    2.12967   2.14129   2.15710   2.17487   2.18079
  Beta virt. eigenvalues --    2.20802   2.23243   2.26529   2.26538   2.29419
  Beta virt. eigenvalues --    2.31822   2.32906   2.33041   2.36962   2.38514
  Beta virt. eigenvalues --    2.38945   2.40193   2.42986   2.48253   2.49452
  Beta virt. eigenvalues --    2.52612   2.52771   2.53902   2.55398   2.57329
  Beta virt. eigenvalues --    2.58310   2.59485   2.59839   2.61420   2.63741
  Beta virt. eigenvalues --    2.65643   2.66564   2.69967   2.72533   2.74002
  Beta virt. eigenvalues --    2.76040   2.78596   2.80000   2.81143   2.85982
  Beta virt. eigenvalues --    2.86485   2.89849   2.90351   2.92045   2.95575
  Beta virt. eigenvalues --    2.96332   2.96847   3.00074   3.01659   3.02453
  Beta virt. eigenvalues --    3.03312   3.10488   3.13145   3.16483   3.16563
  Beta virt. eigenvalues --    3.17512   3.20499   3.24711   3.26833   3.28611
  Beta virt. eigenvalues --    3.35515   3.37844   3.39612   3.47016   3.50742
  Beta virt. eigenvalues --    3.54222   3.58330   3.61514   3.78988   3.79133
  Beta virt. eigenvalues --    3.80408   3.80891   3.85701   3.86108   3.89230
  Beta virt. eigenvalues --    3.93291   4.05094   4.17892   4.18962   4.21084
  Beta virt. eigenvalues --    4.24420   4.24906   4.26117   4.26655   4.29498
  Beta virt. eigenvalues --    4.29741   4.32191   4.39951   4.42510   4.45079
  Beta virt. eigenvalues --    4.61266   4.62265   4.85144   5.14621   5.16396
  Beta virt. eigenvalues --    5.32161   5.36027   5.76367   5.84958   6.80320
  Beta virt. eigenvalues --    6.85150   7.60460   7.62055   7.72355   7.75302
  Beta virt. eigenvalues --    7.78923   7.81167  23.53210  23.82492  23.88407
  Beta virt. eigenvalues --   23.96109  23.97143  23.98350  24.00023  24.02284
  Beta virt. eigenvalues --   24.06817  24.10794  48.06262  48.10221  50.08260
  Beta virt. eigenvalues --   50.12994 289.80531 289.82130 289.92268 289.95580
  Beta virt. eigenvalues --  290.00721 290.027741020.876831020.92594
          Condensed to atoms (all electrons):
               1          2          3          4          5          6
     1  C    5.654271  -0.151879  -0.082113   0.371621  -0.012915  -0.029810
     2  C   -0.151879  10.941563  -0.150996  -2.889760  -0.029981   0.159440
     3  C   -0.082113  -0.150996   5.654151   0.369596  -0.013803  -0.029642
     4  C    0.371621  -2.889760   0.369596  17.640708   1.071479  -0.099879
     5  C   -0.012915  -0.029981  -0.013803   1.071479  16.561805  -0.139513
     6  Br  -0.029810   0.159440  -0.029642  -0.099879  -0.139513  35.289092
     7  C    0.079677   0.659647   0.080398  -1.153113  -1.900245  -0.021539
     8  O   -0.002318   0.034117  -0.002302  -0.058964  -0.346953  -0.045735
     9  C   -0.054230   0.330238  -0.053886  -1.407645  -4.165363  -0.065087
    10  C   -0.085929  -2.139948  -0.085738  -6.663113  -1.628886   0.160655
    11  Br  -0.000869   0.025758  -0.000863  -0.150824   0.061225   0.001221
    12  C   -0.110017  -1.121821  -0.108978  -1.550611  -2.663054   0.048841
    13  O   -0.007663  -0.246427  -0.007694  -0.126963  -0.065963   0.003253
    14  C   -0.003156  -0.040989  -0.003131   0.095689  -0.947187  -0.000481
    15  H    0.412721   0.012919  -0.011849  -0.047257   0.023374  -0.009437
    16  H    0.380615   0.036158   0.002151  -0.092676   0.004221  -0.006928
    17  H    0.393180  -0.098572   0.008809   0.037825  -0.004011   0.010097
    18  H   -0.047991   0.450454  -0.048043  -0.138666  -0.004558   0.004862
    19  H   -0.011775   0.013191   0.412707  -0.047520   0.023379  -0.009487
    20  H    0.002161   0.036216   0.380592  -0.092727   0.004227  -0.006904
    21  H    0.008768  -0.098972   0.393263   0.038202  -0.004071   0.010077
    22  H   -0.000004  -0.002335  -0.000076   0.005239   0.024072   0.000326
    23  H    0.000252  -0.001629   0.000260  -0.013077  -0.020217   0.000550
    24  H   -0.000072  -0.002335  -0.000006   0.005115   0.023814   0.000328
               7          8          9         10         11         12
     1  C    0.079677  -0.002318  -0.054230  -0.085929  -0.000869  -0.110017
     2  C    0.659647   0.034117   0.330238  -2.139948   0.025758  -1.121821
     3  C    0.080398  -0.002302  -0.053886  -0.085738  -0.000863  -0.108978
     4  C   -1.153113  -0.058964  -1.407645  -6.663113  -0.150824  -1.550611
     5  C   -1.900245  -0.346953  -4.165363  -1.628886   0.061225  -2.663054
     6  Br  -0.021539  -0.045735  -0.065087   0.160655   0.001221   0.048841
     7  C   13.299355   0.891172  -0.916668  -3.453263   0.127139   0.423919
     8  O    0.891172   8.693475  -0.249882  -0.162318   0.000054  -0.082247
     9  C   -0.916668  -0.249882  15.994213  -1.007860   0.083630  -2.632837
    10  C   -3.453263  -0.162318  -1.007860  20.532368   0.030749   0.498717
    11  Br   0.127139   0.000054   0.083630   0.030749  35.268830  -0.104247
    12  C    0.423919  -0.082247  -2.632837   0.498717  -0.104247  12.969074
    13  O   -0.064710  -0.000130  -0.086453  -0.520671  -0.040652   1.084181
    14  C   -0.850230  -0.064258  -0.399626   0.468449  -0.021248   0.223595
    15  H   -0.028412  -0.001385  -0.011126   0.001691   0.000317  -0.000284
    16  H    0.006418  -0.000086   0.002607  -0.004000  -0.000371   0.026002
    17  H    0.005752   0.000277   0.002774  -0.000593  -0.000059   0.003455
    18  H   -0.021208   0.000160   0.001974   0.054888  -0.000682   0.026378
    19  H   -0.028267  -0.001384  -0.011098   0.001610   0.000317  -0.000406
    20  H    0.006340  -0.000088   0.002567  -0.003914  -0.000371   0.026055
    21  H    0.005786   0.000277   0.002773  -0.000621  -0.000060   0.003456
    22  H   -0.007836   0.006440   0.001574  -0.017141  -0.005252  -0.028982
    23  H    0.070188  -0.004861  -0.170489   0.059030   0.007983   0.027848
    24  H   -0.008264   0.006449   0.001193  -0.016460  -0.005202  -0.028967
              13         14         15         16         17         18
     1  C   -0.007663  -0.003156   0.412721   0.380615   0.393180  -0.047991
     2  C   -0.246427  -0.040989   0.012919   0.036158  -0.098572   0.450454
     3  C   -0.007694  -0.003131  -0.011849   0.002151   0.008809  -0.048043
     4  C   -0.126963   0.095689  -0.047257  -0.092676   0.037825  -0.138666
     5  C   -0.065963  -0.947187   0.023374   0.004221  -0.004011  -0.004558
     6  Br   0.003253  -0.000481  -0.009437  -0.006928   0.010097   0.004862
     7  C   -0.064710  -0.850230  -0.028412   0.006418   0.005752  -0.021208
     8  O   -0.000130  -0.064258  -0.001385  -0.000086   0.000277   0.000160
     9  C   -0.086453  -0.399626  -0.011126   0.002607   0.002774   0.001974
    10  C   -0.520671   0.468449   0.001691  -0.004000  -0.000593   0.054888
    11  Br  -0.040652  -0.021248   0.000317  -0.000371  -0.000059  -0.000682
    12  C    1.084181   0.223595  -0.000284   0.026002   0.003455   0.026378
    13  O    8.656247   0.017670  -0.002016   0.002448  -0.000231   0.001101
    14  C    0.017670   6.756833  -0.001497   0.001398  -0.000075  -0.001937
    15  H   -0.002016  -0.001497   0.594554  -0.040020  -0.042205   0.006880
    16  H    0.002448   0.001398  -0.040020   0.575612  -0.026016  -0.007274
    17  H   -0.000231  -0.000075  -0.042205  -0.026016   0.586265  -0.006819
    18  H    0.001101  -0.001937   0.006880  -0.007274  -0.006819   0.533484
    19  H   -0.002023  -0.001485  -0.002311  -0.000507   0.004606   0.006871
    20  H    0.002451   0.001390  -0.000509  -0.002742   0.001441  -0.007295
    21  H   -0.000230  -0.000074   0.004616   0.001444  -0.008087  -0.006793
    22  H   -0.000443   0.370174   0.000069   0.000034  -0.000038  -0.000021
    23  H    0.000327   0.398569  -0.000101   0.000046   0.000011  -0.000148
    24  H   -0.000446   0.370633  -0.000043  -0.000066   0.000026  -0.000024
              19         20         21         22         23         24
     1  C   -0.011775   0.002161   0.008768  -0.000004   0.000252  -0.000072
     2  C    0.013191   0.036216  -0.098972  -0.002335  -0.001629  -0.002335
     3  C    0.412707   0.380592   0.393263  -0.000076   0.000260  -0.000006
     4  C   -0.047520  -0.092727   0.038202   0.005239  -0.013077   0.005115
     5  C    0.023379   0.004227  -0.004071   0.024072  -0.020217   0.023814
     6  Br  -0.009487  -0.006904   0.010077   0.000326   0.000550   0.000328
     7  C   -0.028267   0.006340   0.005786  -0.007836   0.070188  -0.008264
     8  O   -0.001384  -0.000088   0.000277   0.006440  -0.004861   0.006449
     9  C   -0.011098   0.002567   0.002773   0.001574  -0.170489   0.001193
    10  C    0.001610  -0.003914  -0.000621  -0.017141   0.059030  -0.016460
    11  Br   0.000317  -0.000371  -0.000060  -0.005252   0.007983  -0.005202
    12  C   -0.000406   0.026055   0.003456  -0.028982   0.027848  -0.028967
    13  O   -0.002023   0.002451  -0.000230  -0.000443   0.000327  -0.000446
    14  C   -0.001485   0.001390  -0.000074   0.370174   0.398569   0.370633
    15  H   -0.002311  -0.000509   0.004616   0.000069  -0.000101  -0.000043
    16  H   -0.000507  -0.002742   0.001444   0.000034   0.000046  -0.000066
    17  H    0.004606   0.001441  -0.008087  -0.000038   0.000011   0.000026
    18  H    0.006871  -0.007295  -0.006793  -0.000021  -0.000148  -0.000024
    19  H    0.594594  -0.040038  -0.042207  -0.000043  -0.000098   0.000068
    20  H   -0.040038   0.575584  -0.025999  -0.000066   0.000046   0.000034
    21  H   -0.042207  -0.025999   0.586268   0.000026   0.000010  -0.000037
    22  H   -0.000043  -0.000066   0.000026   0.604089  -0.022047  -0.072741
    23  H   -0.000098   0.000046   0.000010  -0.022047   0.516245  -0.021870
    24  H    0.000068   0.000034  -0.000037  -0.072741  -0.021870   0.604135
          Atomic-Atomic Spin Densities.
               1          2          3          4          5          6
     1  C   -0.000000   0.000000  -0.000000  -0.000000  -0.000000   0.000000
     2  C    0.000000  -0.000000   0.000000   0.000000   0.000000  -0.000000
     3  C   -0.000000   0.000000  -0.000000  -0.000000  -0.000000   0.000000
     4  C   -0.000000   0.000000  -0.000000  -0.000000  -0.000000   0.000000
     5  C   -0.000000   0.000000  -0.000000  -0.000000  -0.000000   0.000000
     6  Br   0.000000  -0.000000   0.000000   0.000000   0.000000  -0.000000
     7  C   -0.000000  -0.000000  -0.000000   0.000000   0.000000  -0.000000
     8  O    0.000000  -0.000000   0.000000   0.000000  -0.000000   0.000000
     9  C    0.000000  -0.000000   0.000000  -0.000000   0.000000  -0.000000
    10  C    0.000000   0.000000   0.000000   0.000000  -0.000000   0.000000
    11  Br  -0.000000  -0.000000  -0.000000  -0.000000   0.000000   0.000000
    12  C   -0.000000  -0.000000  -0.000000   0.000000   0.000000  -0.000000
    13  O    0.000000   0.000000   0.000000   0.000000  -0.000000   0.000000
    14  C   -0.000000   0.000000  -0.000000   0.000000  -0.000000  -0.000000
    15  H   -0.000000   0.000000  -0.000000  -0.000000   0.000000  -0.000000
    16  H    0.000000  -0.000000   0.000000   0.000000   0.000000   0.000000
    17  H    0.000000  -0.000000   0.000000   0.000000  -0.000000  -0.000000
    18  H   -0.000000  -0.000000  -0.000000  -0.000000  -0.000000  -0.000000
    19  H   -0.000000   0.000000  -0.000000  -0.000000  -0.000000  -0.000000
    20  H   -0.000000  -0.000000   0.000000   0.000000   0.000000   0.000000
    21  H    0.000000  -0.000000   0.000000   0.000000  -0.000000  -0.000000
    22  H   -0.000000   0.000000  -0.000000  -0.000000  -0.000000  -0.000000
    23  H    0.000000   0.000000   0.000000   0.000000   0.000000  -0.000000
    24  H   -0.000000   0.000000  -0.000000  -0.000000  -0.000000  -0.000000
               7          8          9         10         11         12
     1  C   -0.000000   0.000000   0.000000   0.000000  -0.000000  -0.000000
     2  C   -0.000000  -0.000000  -0.000000   0.000000  -0.000000  -0.000000
     3  C   -0.000000   0.000000   0.000000   0.000000  -0.000000  -0.000000
     4  C    0.000000   0.000000  -0.000000   0.000000  -0.000000   0.000000
     5  C    0.000000  -0.000000   0.000000  -0.000000   0.000000   0.000000
     6  Br  -0.000000   0.000000  -0.000000   0.000000   0.000000  -0.000000
     7  C   -0.000000   0.000000   0.000000  -0.000000   0.000000  -0.000000
     8  O    0.000000  -0.000000   0.000000  -0.000000   0.000000   0.000000
     9  C    0.000000   0.000000  -0.000000   0.000000   0.000000   0.000000
    10  C   -0.000000  -0.000000   0.000000  -0.000000  -0.000000   0.000000
    11  Br   0.000000   0.000000   0.000000  -0.000000  -0.000000   0.000000
    12  C   -0.000000   0.000000   0.000000   0.000000   0.000000  -0.000000
    13  O   -0.000000  -0.000000  -0.000000  -0.000000  -0.000000   0.000000
    14  C   -0.000000  -0.000000   0.000000  -0.000000   0.000000  -0.000000
    15  H    0.000000   0.000000   0.000000   0.000000   0.000000   0.000000
    16  H   -0.000000   0.000000   0.000000  -0.000000  -0.000000  -0.000000
    17  H   -0.000000  -0.000000  -0.000000   0.000000  -0.000000  -0.000000
    18  H    0.000000   0.000000  -0.000000   0.000000   0.000000   0.000000
    19  H    0.000000   0.000000   0.000000   0.000000   0.000000   0.000000
    20  H   -0.000000   0.000000   0.000000  -0.000000  -0.000000  -0.000000
    21  H   -0.000000  -0.000000  -0.000000  -0.000000  -0.000000  -0.000000
    22  H    0.000000  -0.000000  -0.000000   0.000000  -0.000000   0.000000
    23  H   -0.000000   0.000000   0.000000  -0.000000  -0.000000  -0.000000
    24  H   -0.000000  -0.000000  -0.000000   0.000000  -0.000000   0.000000
              13         14         15         16         17         18
     1  C    0.000000  -0.000000  -0.000000   0.000000   0.000000  -0.000000
     2  C    0.000000   0.000000   0.000000  -0.000000  -0.000000  -0.000000
     3  C    0.000000  -0.000000  -0.000000   0.000000   0.000000  -0.000000
     4  C    0.000000   0.000000  -0.000000   0.000000   0.000000  -0.000000
     5  C   -0.000000  -0.000000   0.000000   0.000000  -0.000000  -0.000000
     6  Br   0.000000  -0.000000  -0.000000   0.000000  -0.000000  -0.000000
     7  C   -0.000000  -0.000000   0.000000  -0.000000  -0.000000   0.000000
     8  O   -0.000000  -0.000000   0.000000   0.000000  -0.000000   0.000000
     9  C   -0.000000   0.000000   0.000000   0.000000  -0.000000  -0.000000
    10  C   -0.000000  -0.000000   0.000000  -0.000000   0.000000   0.000000
    11  Br  -0.000000   0.000000   0.000000  -0.000000  -0.000000   0.000000
    12  C    0.000000  -0.000000   0.000000  -0.000000  -0.000000   0.000000
    13  O    0.000000   0.000000  -0.000000   0.000000   0.000000   0.000000
    14  C    0.000000  -0.000000  -0.000000  -0.000000   0.000000  -0.000000
    15  H   -0.000000  -0.000000   0.000000   0.000000  -0.000000   0.000000
    16  H    0.000000  -0.000000   0.000000  -0.000000  -0.000000   0.000000
    17  H    0.000000   0.000000  -0.000000  -0.000000   0.000000  -0.000000
    18  H    0.000000  -0.000000   0.000000   0.000000  -0.000000   0.000000
    19  H   -0.000000  -0.000000   0.000000   0.000000   0.000000  -0.000000
    20  H    0.000000  -0.000000   0.000000  -0.000000  -0.000000   0.000000
    21  H    0.000000   0.000000   0.000000  -0.000000  -0.000000   0.000000
    22  H   -0.000000  -0.000000  -0.000000   0.000000   0.000000   0.000000
    23  H    0.000000  -0.000000  -0.000000  -0.000000   0.000000   0.000000
    24  H   -0.000000   0.000000  -0.000000   0.000000   0.000000  -0.000000
              19         20         21         22         23         24
     1  C   -0.000000  -0.000000   0.000000  -0.000000   0.000000  -0.000000
     2  C    0.000000  -0.000000  -0.000000   0.000000   0.000000   0.000000
     3  C   -0.000000   0.000000   0.000000  -0.000000   0.000000  -0.000000
     4  C   -0.000000   0.000000   0.000000  -0.000000   0.000000  -0.000000
     5  C   -0.000000   0.000000  -0.000000  -0.000000   0.000000  -0.000000
     6  Br  -0.000000   0.000000  -0.000000  -0.000000  -0.000000  -0.000000
     7  C    0.000000  -0.000000  -0.000000   0.000000  -0.000000  -0.000000
     8  O    0.000000   0.000000  -0.000000  -0.000000   0.000000  -0.000000
     9  C    0.000000   0.000000  -0.000000  -0.000000   0.000000  -0.000000
    10  C    0.000000  -0.000000  -0.000000   0.000000  -0.000000   0.000000
    11  Br   0.000000  -0.000000  -0.000000  -0.000000  -0.000000  -0.000000
    12  C    0.000000  -0.000000  -0.000000   0.000000  -0.000000   0.000000
    13  O   -0.000000   0.000000   0.000000  -0.000000   0.000000  -0.000000
    14  C   -0.000000  -0.000000   0.000000  -0.000000  -0.000000   0.000000
    15  H    0.000000   0.000000   0.000000  -0.000000  -0.000000  -0.000000
    16  H    0.000000  -0.000000  -0.000000   0.000000  -0.000000   0.000000
    17  H    0.000000  -0.000000  -0.000000   0.000000   0.000000   0.000000
    18  H   -0.000000   0.000000   0.000000   0.000000   0.000000  -0.000000
    19  H    0.000000   0.000000   0.000000  -0.000000  -0.000000  -0.000000
    20  H    0.000000  -0.000000  -0.000000   0.000000  -0.000000  -0.000000
    21  H    0.000000  -0.000000  -0.000000   0.000000   0.000000   0.000000
    22  H   -0.000000   0.000000   0.000000   0.000000   0.000000   0.000000
    23  H   -0.000000  -0.000000   0.000000   0.000000   0.000000   0.000000
    24  H   -0.000000  -0.000000   0.000000   0.000000   0.000000   0.000000
 Mulliken charges and spin densities:
               1          2
     1  C   -0.702524   0.000000
     2  C    0.275944  -0.000000
     3  C   -0.702807  -0.000000
     4  C    0.897323   0.000000
     5  C    0.149121   0.000000
     6  Br  -0.224301  -0.000000
     7  C   -1.202038  -0.000000
     8  O   -0.609512   0.000000
     9  C    0.808708   0.000000
    10  C   -0.017702  -0.000000
    11  Br  -0.276521   0.000000
    12  C   -0.929069  -0.000000
    13  O   -0.594965  -0.000000
    14  C   -0.369028  -0.000000
    15  H    0.141308   0.000000
    16  H    0.141533  -0.000000
    17  H    0.132188   0.000000
    18  H    0.204406   0.000000
    19  H    0.141308   0.000000
    20  H    0.141550  -0.000000
    21  H    0.132185   0.000000
    22  H    0.144983  -0.000000
    23  H    0.173171   0.000000
    24  H    0.144740  -0.000000
 Sum of Mulliken charges =  -2.00000   0.00000
 Mulliken charges and spin densities with hydrogens summed into heavy atoms:
               1          2
     1  C   -0.287495   0.000000
     2  C    0.480350  -0.000000
     3  C   -0.287763  -0.000000
     4  C    0.897323   0.000000
     5  C    0.149121   0.000000
     6  Br  -0.224301  -0.000000
     7  C   -1.202038  -0.000000
     8  O   -0.609512   0.000000
     9  C    0.808708   0.000000
    10  C   -0.017702  -0.000000
    11  Br  -0.276521   0.000000
    12  C   -0.929069  -0.000000
    13  O   -0.594965  -0.000000
    14  C    0.093866  -0.000000
 Electronic spatial extent (au):  <R**2>=           5317.3185
 Charge=             -2.0000 electrons
 Dipole moment (field-independent basis, Debye):
    X=             -2.2547    Y=              2.4138    Z=             -0.0021  Tot=              3.3030
 Quadrupole moment (field-independent basis, Debye-Ang):
   XX=           -155.4159   YY=           -168.4992   ZZ=           -119.7319
   XY=            -21.9848   XZ=             -0.0003   YZ=              0.0034
 Traceless Quadrupole moment (field-independent basis, Debye-Ang):
   XX=             -7.5336   YY=            -20.6169   ZZ=             28.1504
   XY=            -21.9848   XZ=             -0.0003   YZ=              0.0034
 Octapole moment (field-independent basis, Debye-Ang**2):
  XXX=            -11.5164  YYY=             24.4070  ZZZ=              0.0010  XYY=              4.8753
  XXY=            -12.4578  XXZ=             -0.0040  XZZ=              9.3950  YZZ=             -8.0344
  YYZ=             -0.0209  XYZ=             -0.0046
 Hexadecapole moment (field-independent basis, Debye-Ang**3):
 XXXX=          -4106.9900 YYYY=          -2488.7155 ZZZZ=           -350.7832 XXXY=             92.6902
 XXXZ=             -0.0360 YYYX=            -13.8274 YYYZ=              0.0375 ZZZX=              0.0040
 ZZZY=             -0.0111 XXYY=          -1080.2708 XXZZ=           -726.8186 YYZZ=           -420.9081
 XXYZ=              0.0008 YYXZ=              0.0185 ZZXY=             46.4027
 N-N= 1.596565639654D+03 E-N=-1.680015010713D+04  KE= 5.677606346248D+03
                          Isotropic Fermi Contact Couplings
        Atom                 a.u.       MegaHertz       Gauss      10(-4) cm-1
     1  C(13)             -0.00000      -0.00000      -0.00000      -0.00000
     2  C(13)             -0.00000      -0.00000      -0.00000      -0.00000
     3  C(13)             -0.00000      -0.00000      -0.00000      -0.00000
     4  C(13)              0.00000       0.00000       0.00000       0.00000
     5  C(13)              0.00000       0.00000       0.00000       0.00000
     6  Br(79)            -0.00000      -0.00000      -0.00000      -0.00000
     7  C(13)             -0.00000      -0.00000      -0.00000      -0.00000
     8  O(17)              0.00000      -0.00000      -0.00000      -0.00000
     9  C(13)              0.00000       0.00000       0.00000       0.00000
    10  C(13)              0.00000       0.00000       0.00000       0.00000
    11  Br(79)             0.00000       0.00000       0.00000       0.00000
    12  C(13)             -0.00000      -0.00000      -0.00000      -0.00000
    13  O(17)              0.00000      -0.00000      -0.00000      -0.00000
    14  C(13)              0.00000       0.00000       0.00000       0.00000
    15  H(1)               0.00000       0.00000       0.00000       0.00000
    16  H(1)              -0.00000      -0.00000      -0.00000      -0.00000
    17  H(1)               0.00000       0.00000       0.00000       0.00000
    18  H(1)               0.00000       0.00000       0.00000       0.00000
    19  H(1)               0.00000       0.00000       0.00000       0.00000
    20  H(1)              -0.00000      -0.00000      -0.00000      -0.00000
    21  H(1)               0.00000       0.00000       0.00000       0.00000
    22  H(1)               0.00000       0.00000       0.00000       0.00000
    23  H(1)               0.00000       0.00000       0.00000       0.00000
    24  H(1)               0.00000       0.00000       0.00000       0.00000
 --------------------------------------------------------
       Center         ----  Spin Dipole Couplings  ----
                      3XX-RR        3YY-RR        3ZZ-RR
 --------------------------------------------------------
     1   Atom       -0.000000     -0.000000      0.000000
     2   Atom       -0.000000      0.000000      0.000000
     3   Atom       -0.000000     -0.000000      0.000000
     4   Atom       -0.000000     -0.000000      0.000000
     5   Atom        0.000000     -0.000000      0.000000
     6   Atom       -0.000000      0.000000      0.000000
     7   Atom       -0.000000      0.000000      0.000000
     8   Atom        0.000000     -0.000000     -0.000000
     9   Atom       -0.000000      0.000000      0.000000
    10   Atom       -0.000000      0.000000      0.000000
    11   Atom        0.000000     -0.000000      0.000000
    12   Atom        0.000000     -0.000000      0.000000
    13   Atom       -0.000000      0.000000      0.000000
    14   Atom       -0.000000      0.000000      0.000000
    15   Atom        0.000000     -0.000000      0.000000
    16   Atom        0.000000     -0.000000     -0.000000
    17   Atom       -0.000000      0.000000     -0.000000
    18   Atom        0.000000     -0.000000     -0.000000
    19   Atom       -0.000000     -0.000000      0.000000
    20   Atom        0.000000     -0.000000     -0.000000
    21   Atom       -0.000000      0.000000     -0.000000
    22   Atom        0.000000     -0.000000      0.000000
    23   Atom        0.000000     -0.000000     -0.000000
    24   Atom        0.000000     -0.000000      0.000000
 --------------------------------------------------------
                        XY            XZ            YZ
 --------------------------------------------------------
     1   Atom       -0.000000     -0.000000     -0.000000
     2   Atom        0.000000      0.000000      0.000000
     3   Atom       -0.000000     -0.000000      0.000000
     4   Atom       -0.000000     -0.000000     -0.000000
     5   Atom        0.000000     -0.000000      0.000000
     6   Atom       -0.000000     -0.000000     -0.000000
     7   Atom        0.000000     -0.000000      0.000000
     8   Atom       -0.000000     -0.000000      0.000000
     9   Atom        0.000000     -0.000000      0.000000
    10   Atom        0.000000     -0.000000     -0.000000
    11   Atom        0.000000      0.000000     -0.000000
    12   Atom        0.000000     -0.000000      0.000000
    13   Atom        0.000000      0.000000      0.000000
    14   Atom        0.000000      0.000000      0.000000
    15   Atom        0.000000      0.000000     -0.000000
    16   Atom       -0.000000     -0.000000     -0.000000
    17   Atom       -0.000000     -0.000000     -0.000000
    18   Atom        0.000000      0.000000     -0.000000
    19   Atom        0.000000     -0.000000      0.000000
    20   Atom       -0.000000      0.000000      0.000000
    21   Atom       -0.000000      0.000000     -0.000000
    22   Atom        0.000000      0.000000     -0.000000
    23   Atom        0.000000      0.000000     -0.000000
    24   Atom        0.000000     -0.000000      0.000000
 --------------------------------------------------------


 ---------------------------------------------------------------------------------
              Anisotropic Spin Dipole Couplings in Principal Axis System
 ---------------------------------------------------------------------------------

       Atom             a.u.   MegaHertz   Gauss  10(-4) cm-1        Axes

              Baa    -0.0000    -0.000    -0.000    -0.000  0.0270  0.8598  0.5099
     1 C(13)  Bbb    -0.0000    -0.000    -0.000    -0.000  0.9996 -0.0258 -0.0095
              Bcc     0.0000     0.000     0.000     0.000 -0.0050 -0.5100  0.8602
 
              Baa    -0.0000    -0.000    -0.000    -0.000  0.9909 -0.1318 -0.0290
     2 C(13)  Bbb     0.0000     0.000     0.000     0.000  0.0274 -0.0139  0.9995
              Bcc     0.0000     0.000     0.000     0.000  0.1321  0.9912  0.0101
 
              Baa    -0.0000    -0.000    -0.000    -0.000  0.0279  0.7371 -0.6752
     3 C(13)  Bbb    -0.0000    -0.000    -0.000    -0.000  0.9940  0.0511  0.0968
              Bcc     0.0000     0.000     0.000     0.000 -0.1058  0.6739  0.7312
 
              Baa    -0.0000    -0.000    -0.000    -0.000  0.6289  0.7775  0.0080
     4 C(13)  Bbb     0.0000     0.000     0.000     0.000  0.7772 -0.6289  0.0206
              Bcc     0.0000     0.000     0.000     0.000 -0.0210  0.0068  0.9998
 
              Baa    -0.0000    -0.000    -0.000    -0.000 -0.6707  0.7417 -0.0098
     5 C(13)  Bbb     0.0000     0.000     0.000     0.000 -0.0070  0.0070  1.0000
              Bcc     0.0000     0.000     0.000     0.000  0.7417  0.6707  0.0005
 
              Baa    -0.0000    -0.000    -0.000    -0.000  0.9491  0.3149  0.0081
     6 Br(79) Bbb     0.0000     0.000     0.000     0.000 -0.3149  0.9491  0.0070
              Bcc     0.0000     0.000     0.000     0.000 -0.0055 -0.0092  0.9999
 
              Baa    -0.0000    -0.000    -0.000    -0.000  0.9643 -0.2642  0.0193
     7 C(13)  Bbb     0.0000     0.000     0.000     0.000 -0.0111  0.0326  0.9994
              Bcc     0.0000     0.000     0.000     0.000  0.2647  0.9639 -0.0285
 
              Baa    -0.0000     0.000     0.000     0.000  0.2691  0.9631  0.0105
     8 O(17)  Bbb    -0.0000     0.000     0.000     0.000  0.0202 -0.0166  0.9997
              Bcc     0.0000    -0.000    -0.000    -0.000  0.9629 -0.2688 -0.0239
 
              Baa    -0.0000    -0.000    -0.000    -0.000  0.8139 -0.5809  0.0089
     9 C(13)  Bbb     0.0000     0.000     0.000     0.000 -0.0500 -0.0549  0.9972
              Bcc     0.0000     0.000     0.000     0.000  0.5788  0.8121  0.0738
 
              Baa    -0.0000    -0.000    -0.000    -0.000  0.8003 -0.5995 -0.0123
    10 C(13)  Bbb     0.0000     0.000     0.000     0.000  0.0479  0.0434  0.9979
              Bcc     0.0000     0.000     0.000     0.000  0.5977  0.7992 -0.0634
 
              Baa    -0.0000    -0.000    -0.000    -0.000 -0.4089  0.9118  0.0375
    11 Br(79) Bbb     0.0000     0.000     0.000     0.000 -0.0443 -0.0608  0.9972
              Bcc     0.0000     0.000     0.000     0.000  0.9115  0.4061  0.0652
 
              Baa    -0.0000    -0.000    -0.000    -0.000 -0.5492  0.8350 -0.0336
    12 C(13)  Bbb     0.0000     0.000     0.000     0.000 -0.0393  0.0144  0.9991
              Bcc     0.0000     0.000     0.000     0.000  0.8348  0.5500  0.0249
 
              Baa    -0.0000     0.000     0.000     0.000  0.9802 -0.1979 -0.0054
    13 O(17)  Bbb     0.0000    -0.000    -0.000    -0.000  0.1976  0.9795 -0.0385
              Bcc     0.0000    -0.000    -0.000    -0.000  0.0129  0.0367  0.9992
 
              Baa    -0.0000    -0.000    -0.000    -0.000  0.9226 -0.3846 -0.0291
    14 C(13)  Bbb     0.0000     0.000     0.000     0.000 -0.1030 -0.3185  0.9423
              Bcc     0.0000     0.000     0.000     0.000  0.3717  0.8664  0.3335
 
              Baa    -0.0000    -0.000    -0.000    -0.000  0.6272 -0.5340 -0.5669
    15 H(1)   Bbb     0.0000     0.000     0.000     0.000  0.2548  0.8286 -0.4986
              Bcc     0.0000     0.000     0.000     0.000  0.7360  0.1683  0.6557
 
              Baa    -0.0000    -0.000    -0.000    -0.000  0.3589  0.8725  0.3315
    16 H(1)   Bbb    -0.0000    -0.000    -0.000    -0.000  0.1318 -0.3990  0.9074
              Bcc     0.0000     0.000     0.000     0.000  0.9240 -0.2819 -0.2582
 
              Baa    -0.0000    -0.000    -0.000    -0.000  0.7202  0.3253  0.6128
    17 H(1)   Bbb    -0.0000    -0.000    -0.000    -0.000 -0.5113 -0.3481  0.7857
              Bcc     0.0000     0.000     0.000     0.000 -0.4689  0.8792  0.0844
 
              Baa    -0.0000    -0.000    -0.000    -0.000 -0.5667  0.8238  0.0135
    18 H(1)   Bbb    -0.0000    -0.000    -0.000    -0.000  0.0015 -0.0154  0.9999
              Bcc     0.0000     0.000     0.000     0.000  0.8239  0.5667  0.0075
 
              Baa    -0.0000    -0.000    -0.000    -0.000  0.7287 -0.5270  0.4373
    19 H(1)   Bbb     0.0000     0.000     0.000     0.000  0.5989  0.8001 -0.0337
              Bcc     0.0000     0.000     0.000     0.000 -0.3321  0.2864  0.8987
 
              Baa    -0.0000    -0.000    -0.000    -0.000  0.3121  0.9194 -0.2393
    20 H(1)   Bbb    -0.0000    -0.000    -0.000    -0.000 -0.1156  0.2868  0.9510
              Bcc     0.0000     0.000     0.000     0.000  0.9430 -0.2692  0.1958
 
              Baa    -0.0000    -0.000    -0.000    -0.000 -0.6799 -0.1898  0.7083
    21 H(1)   Bbb    -0.0000    -0.000    -0.000    -0.000  0.6126  0.3838  0.6910
              Bcc     0.0000     0.000     0.000     0.000 -0.4029  0.9037 -0.1447
 
              Baa    -0.0000    -0.000    -0.000    -0.000 -0.4304  0.8898  0.1517
    22 H(1)   Bbb     0.0000     0.000     0.000     0.000  0.7650  0.4488 -0.4619
              Bcc     0.0000     0.000     0.000     0.000  0.4790  0.0828  0.8739
 
              Baa    -0.0000    -0.000    -0.000    -0.000 -0.6298  0.7767  0.0108
    23 H(1)   Bbb    -0.0000    -0.000    -0.000    -0.000  0.0105 -0.0054  0.9999
              Bcc     0.0000     0.000     0.000     0.000  0.7767  0.6299 -0.0048
 
              Baa    -0.0000    -0.000    -0.000    -0.000 -0.3430  0.9059 -0.2484
    24 H(1)   Bbb     0.0000     0.000     0.000     0.000  0.6045  0.4153  0.6798
              Bcc     0.0000     0.000     0.000     0.000  0.7190  0.0830 -0.6900
 

 ---------------------------------------------------------------------------------

 No NMR shielding tensors so no spin-rotation constants.
 Leave Link  601 at Sun Jan 21 07:35:10 2024, MaxMem=  4026531840 cpu:              13.0 elap:               2.1
 (Enter /sysapps/ubuntu-applications/gaussian/Gaussian/AVX2/g16/l9999.exe)
 1\1\GINC-ACIDSGN003\SP\UB3LYP\6-311++G(d,p)\C10H10Br2O2(2-)\SELHAJJ1\2
 1-Jan-2024\0\\#P UB3LYP/6-311++G(d,p) SCRF=(PCM,Solvent=n,n-DiMethylFo
 rmamide)\\Reduced\\-2,1\C,0,-2.900522,0.400246,0.526437\C,0,-1.916285,
 -0.413427,-0.339302\C,0,-2.269151,-0.331537,-1.839037\C,0,-0.445281,-0
 .167434,-0.023133\C,0,0.267397,1.026798,-0.202214\Br,0,-0.634854,2.645
 352,-0.943102\C,0,1.644289,1.279201,0.086847\O,0,2.254111,2.397756,-0.
 096472\C,0,2.310488,0.110223,0.626067\C,0,1.608231,-1.078969,0.80607\B
 r,0,2.588428,-2.64074,1.55021\C,0,0.234882,-1.336657,0.519409\O,0,-0.3
 56023,-2.46516,0.710509\C,0,3.769652,0.271117,0.965921\H,0,-2.844961,1
 .471983,0.322183\H,0,-2.678746,0.244025,1.586916\H,0,-3.935016,0.06863
 4,0.345064\H,0,-2.041338,-1.461137,-0.048596\H,0,-2.160959,0.680349,-2
 .236387\H,0,-1.612099,-0.993849,-2.411632\H,0,-3.307564,-0.657935,-2.0
 07009\H,0,4.404361,-0.423577,0.398682\H,0,4.05142,1.298597,0.7258\H,0,
 3.969542,0.076142,2.028526\\Version=ES64L-G16RevA.03\State=1-A\HF=-568
 6.2184655\S2=0.\S2-1=0.\S2A=0.\RMSD=9.383e-09\Dipole=-1.2581541,-0.037
 8777,-0.3229803\Quadrupole=5.8790005,-22.8698035,16.990803,-7.9773734,
 -1.5467835,11.4092766\PG=C01 [X(C10H10Br2O2)]\\@


 THE ENLIGHTENED ONE, BECAUSE HE SAW MANKIND DROWNING  
 IN THE GREAT SEA OF BIRTH, DEATH, AND SORROW, LONGED TO SAVE 
 THEM, FOR THIS HE WAS MOVED TO PITY.                         
 BECAUSE HE SAW MEN OF THE WORLD STRAYING IN FALSE PATHS, AND 
 NONE TO GUIDE THEM, FOR THIS HE WAS MOVED TO PITY.           
                     ..................                       
 BECAUSE HE SAW THE MEN OF THE WORLD PLOUGHING THEIR FIELDS,  
 SOWING THE SEED, TRAFFICKING, HUCKSTERING, BUYING, SELLING,  
 AND AT THE END WINNOWING NOTHING BUT BITTERNESS,             
 FOR THIS HE WAS MOVED TO PITY......                   
                   BUDAH'S PITY - UPSAKA SILA SUTRA           
 Job cpu time:       0 days  0 hours 34 minutes 17.5 seconds.
 Elapsed time:       0 days  0 hours  4 minutes 19.6 seconds.
 File lengths (MBytes):  RWF=    260 Int=      0 D2E=      0 Chk=     15 Scr=      1
 Normal termination of Gaussian 16 at Sun Jan 21 07:35:10 2024.
