
Running Job 1 of 1 046-an-CPCM.in
qchem 046-an-CPCM.in_2449831.0 /expanse/lustre/scratch/selhajj/temp_project/qcscratch/31246143/qchem2449831/ 0
/cm/shared/apps/spack/cpu/opt/spack/linux-centos8-zen2/gcc-10.2.0/qchem-5.4-akfmr7b3t57bfs6qan3padb2wnb2i7cl/exe/qcprog.exe_s 046-an-CPCM.in_2449831.0 /expanse/lustre/scratch/selhajj/temp_project/qcscratch/31246143/qchem2449831/
                  Welcome to Q-Chem
     A Quantum Leap Into The Future Of Chemistry


 Q-Chem 5.4, Q-Chem, Inc., Pleasanton, CA (2021)

 License issued to: University of California, San Diego (site)

 E. Epifanovsky,  A. T. B. Gilbert,  Xintian Feng,  Joonho Lee,  Yuezhi Mao,  
 N. Mardirossian,  P. Pokhilko,  A. White,  M. Wormit,  M. P. Coons,  
 A. L. Dempwolff,  Zhengting Gan,  D. Hait,  P. R. Horn,  L. D. Jacobson,  
 I. Kaliman,  J. Kussmann,  A. W. Lange,  Ka Un Lao,  D. S. Levine,  Jie Liu,  
 S. C. McKenzie,  A. F. Morrison,  K. Nanda,  F. Plasser,  D. R. Rehn,  
 M. L. Vidal,  Zhi-Qiang You,  Ying Zhu,  B. Alam,  B. Albrecht,  
 A. Aldossary,  E. Alguire,  J. H. Andersen,  D. Barton,  K. Begam,  A. Behn,  
 Y. A. Bernard,  E. J. Berquist,  H. Burton,  A. Carreras,  K. Carter-Fenk,  
 R. Chakraborty,  A. D. Chien,  K. D. Closser,  V. Cofer-Shabica,  
 S. Dasgupta,  Jia Deng,  M. de Wergifosse,  M. Diedenhofen,  Hainam Do,  
 S. Ehlert,  Po-Tung Fang,  S. Fatehi,  Qingguo Feng,  J. Gayvert,  
 Qinghui Ge,  G. Gidofalvi,  M. Goldey,  J. Gomes,  C. Gonzalez-Espinoza,  
 S. Gulania,  A. Gunina,  M. W. D. Hanson-Heine,  P. H. P. Harbach,  
 A. W. Hauser,  M. F. Herbst,  M. Hernandez Vera,  M. Hodecker,  
 Z. C. Holden,  S. Houck,  Xunkun Huang,  Kerwin Hui,  B. C. Huynh,  
 M. Ivanov,  Hyunjun Ji,  Hanjie Jiang,  B. Kaduk,  S. Kaehler,  
 K. Khistyaev,  Jaehoon Kim,  P. Klunzinger,  Z. Koczor-Benda,  
 Joong Hoon Koh,  D. Kosenkov,  L. Koulias,  T. Kowalczyk,  C. M. Krauter,  
 K. Kue,  A. Kunitsa,  T. Kus,  A. Landau,  K. V. Lawler,  D. Lefrancois,  
 S. Lehtola,  Rain Li,  Yi-Pei Li,  Jiashu Liang,  M. Liebenthal,  
 Hung-Hsuan Lin,  You-Sheng Lin,  Fenglai Liu,  Kuan-Yu Liu,  
 M. Loipersberger,  A. Luenser,  A. Manjanath,  P. Manohar,  E. Mansoor,  
 S. F. Manzer,  Shan-Ping Mao,  A. V. Marenich,  T. Markovich,  S. Mason,  
 S. A. Maurer,  P. F. McLaughlin,  M. F. S. J. Menger,  J.-M. Mewes,  
 S. A. Mewes,  P. Morgante,  J. W. Mullinax,  T. S. Nguyen-Beck,  
 K. J. Oosterbaan,  G. Paran,  Alexander C. Paul,  Suranjan K. Paul,  
 F. Pavosevic,  Zheng Pei,  S. Prager,  E. I. Proynov,  E. Ramos,  B. Rana,  
 A. E. Rask,  A. Rettig,  R. M. Richard,  F. Rob,  E. Rossomme,  T. Scheele,  
 M. Scheurer,  M. Schneider,  N. Sergueev,  S. M. Sharada,  W. Skomorowski,  
 D. W. Small,  C. J. Stein,  Yu-Chuan Su,  E. J. Sundstrom,  Zhen Tao,  
 J. Thirman,  T. Tsuchimochi,  N. M. Tubman,  S. P. Veccham,  O. Vydrov,  
 J. Wenzel,  J. Witte,  A. Yamada,  Kun Yao,  S. Yeganeh,  S. R. Yost,  
 A. Zech,  Igor Ying Zhang,  Xing Zhang,  Yu Zhang,  D. Zuev,  
 A. Aspuru-Guzik,  A. T. Bell,  N. A. Besley,  K. B. Bravaya,  B. R. Brooks,  
 D. Casanova,  Jeng-Da Chai,  S. Coriani,  C. J. Cramer,  
 A. E. DePrince, III,  R. A. DiStasio Jr.,  A. Dreuw,  B. D. Dunietz,  
 T. R. Furlani,  W. A. Goddard III,  S. Grimme,  S. Hammes-Schiffer,  
 T. Head-Gordon,  W. J. Hehre,  Chao-Ping Hsu,  T.-C. Jagau,  Yousung Jung,  
 A. Klamt,  Jing Kong,  D. S. Lambrecht,  WanZhen Liang,  N. J. Mayhall,  
 C. W. McCurdy,  J. B. Neaton,  C. Ochsenfeld,  J. A. Parkhill,  R. Peverati,  
 V. A. Rassolov,  Yihan Shao,  L. V. Slipchenko,  T. Stauch,  R. P. Steele,  
 J. E. Subotnik,  A. J. W. Thom,  A. Tkatchenko,  D. G. Truhlar,  
 T. Van Voorhis,  T. A. Wesolowski,  K. B. Whaley,  H. L. Woodcock III,  
 P. M. Zimmerman,  S. Faraji,  P. M. W. Gill,  M. Head-Gordon,  
 J. M. Herbert,  A. I. Krylov

 Contributors to earlier versions of Q-Chem not listed above: 
 R. D. Adamson,  B. Austin,  R. Baer,  J. Baker,  G. J. O. Beran,  
 K. Brandhorst,  S. T. Brown,  E. F. C. Byrd,  A. K. Chakraborty,  
 G. K. L. Chan,  Chun-Min Chang,  Yunqing Chen,  C.-L. Cheng,  
 Siu Hung Chien,  D. M. Chipman,  D. L. Crittenden,  H. Dachsel,  
 R. J. Doerksen,  A. D. Dutoi,  R. G. Edgar,  J. Fosso-Tande,  
 L. Fusti-Molnar,  D. Ghosh,  A. Ghysels,  A. Golubeva-Zadorozhnaya,  
 J. Gonthier,  M. S. Gordon,  S. R. Gwaltney,  G. Hawkins,  J. E. Herr,  
 A. Heyden,  S. Hirata,  E. G. Hohenstein,  G. Kedziora,  F. J. Keil,  
 C. Kelley,  Jihan Kim,  R. A. King,  R. Z. Khaliullin,  P. P. Korambath,  
 W. Kurlancheek,  A. Laurent,  A. M. Lee,  M. S. Lee,  S. V. Levchenko,  
 Ching Yeh Lin,  D. Liotard,  E. Livshits,  R. C. Lochan,  I. Lotan,  
 L. A. Martinez-Martinez,  P. E. Maslen,  N. Nair,  D. P. O'Neill,  
 D. Neuhauser,  E. Neuscamman,  C. M. Oana,  R. Olivares-Amaya,  R. Olson,  
 T. M. Perrine,  B. Peters,  P. A. Pieniazek,  A. Prociuk,  Y. M. Rhee,  
 J. Ritchie,  M. A. Rohrdanz,  E. Rosta,  N. J. Russ,  H. F. Schaefer III,  
 M. W. Schmidt,  N. E. Schultz,  S. Sharma,  N. Shenvi,  C. D. Sherrill,  
 A. C. Simmonett,  A. Sodt,  T. Stein,  D. Stuck,  K. S. Thanthiriwatte,  
 V. Vanovschi,  L. Vogt,  Tao Wang,  A. Warshel,  M. A. Watson,  
 C. F. Williams,  Q. Wu,  X. Xu,  Jun Yang,  W. Zhang,  Yan Zhao

 Please cite Q-Chem as follows:
 Y. Shao et al., Mol. Phys. 113, 184-215 (2015)
 DOI: 10.1080/00268976.2014.952696

 Q-Chem 5.4.0 for Intel X86 EM64T Linux

 Parts of Q-Chem use Armadillo 9.800.1 (Horizon Scraper).
 http://arma.sourceforge.net/

 Q-Chem begins on Tue Jun 11 17:33:12 2024  

 Host: 
0

     Scratch files written to /expanse/lustre/scratch/selhajj/temp_project/qcscratch/31246143/qchem2449831//
 May1621 |scratch|qcdevops|jenkins|workspace|build_RNUM    
 Processing $rem in /cm/shared/apps/spack/cpu/opt/spack/linux-centos8-zen2/gcc-10.2.0/qchem-5.4-akfmr7b3t57bfs6qan3padb2wnb2i7cl/config/preferences:
 Processing $rem in /home/selhajj/.qchemrc:
 Symmetry turned off for PCM/SM12/SMD calculation

 Checking the input file for inconsistencies... 	...done.

--------------------------------------------------------------
User input:
--------------------------------------------------------------
$molecule
-2 1
C                  2.5842200000     -0.3311650000     -1.9365100000
C                  2.5623050000     -0.0064890000     -0.4216610000
C                  2.7643800000      1.5177780000     -0.2308500000
C                  3.7689860000     -0.7183380000      0.2222740000
C                  1.2021070000     -0.4295560000      0.1809620000
C                  1.1422190000     -1.3780370000      1.2165520000
C                 -0.0647440000     -1.8272500000      1.8321660000
O                 -0.0959700000     -2.7089720000      2.7924870000
C                 -1.2340210000     -1.2130910000      1.2907320000
C                 -1.2265730000     -0.2609640000      0.2567730000
C                  0.0061980000      0.1754250000     -0.3484110000
O                  0.0379270000      1.0702280000     -1.3217970000
C                 -2.5501690000      0.3483910000     -0.2620500000
C                 -2.7105940000      0.0364000000     -1.7712040000
C                 -3.8011950000     -0.1928660000      0.4586440000
C                 -2.5279570000      1.8851130000     -0.0655840000
H                  3.5184400000      0.0227930000     -2.4040430000
H                  2.5153550000     -1.4149950000     -2.0884570000
H                  1.7259190000      0.1525610000     -2.4086650000
H                  1.9094690000      2.0394230000     -0.6675200000
H                  3.6969020000      1.8571980000     -0.7123700000
H                  2.8248470000      1.7569040000      0.8376350000
H                  3.7115750000     -1.8044040000      0.0986830000
H                  3.8378170000     -0.5088810000      1.2944100000
H                  4.6956660000     -0.3683060000     -0.2548240000
H                  2.0518000000     -1.8269570000      1.6071840000
H                 -2.1708220000     -1.5339420000      1.7389500000
H                 -3.6141590000      0.5179680000     -2.1814550000
H                 -2.8015570000     -1.0458990000     -1.9224900000
H                 -1.8246140000      0.3990600000     -2.2976490000
H                 -3.7738600000      0.0197790000      1.5320080000
H                 -4.6985160000      0.2835810000      0.0383110000
H                 -3.9019400000     -1.2759480000      0.3367230000
H                 -3.4335030000      2.3517290000     -0.4885780000
H                 -2.4871330000      2.1255600000      1.0035350000
H                 -1.6388010000      2.2861680000     -0.5577080000
$end
$rem
MAX_SCF_CYCLES=200
BASIS  =  6-311++G(d,p)
GUI  =  2
JOB_TYPE  =  SP
METHOD  =  B3LYP
SOLVENT_METHOD = PCM
$end
$pcm
theory = CPCM
$end
$solvent
dielectric 37.219
opticaldielectric 1.43
$end





--------------------------------------------------------------
 ----------------------------------------------------------------
             Standard Nuclear Orientation (Angstroms)
    I     Atom           X                Y                Z
 ----------------------------------------------------------------
    1      C       2.5842200000    -0.3311650000    -1.9365100000
    2      C       2.5623050000    -0.0064890000    -0.4216610000
    3      C       2.7643800000     1.5177780000    -0.2308500000
    4      C       3.7689860000    -0.7183380000     0.2222740000
    5      C       1.2021070000    -0.4295560000     0.1809620000
    6      C       1.1422190000    -1.3780370000     1.2165520000
    7      C      -0.0647440000    -1.8272500000     1.8321660000
    8      O      -0.0959700000    -2.7089720000     2.7924870000
    9      C      -1.2340210000    -1.2130910000     1.2907320000
   10      C      -1.2265730000    -0.2609640000     0.2567730000
   11      C       0.0061980000     0.1754250000    -0.3484110000
   12      O       0.0379270000     1.0702280000    -1.3217970000
   13      C      -2.5501690000     0.3483910000    -0.2620500000
   14      C      -2.7105940000     0.0364000000    -1.7712040000
   15      C      -3.8011950000    -0.1928660000     0.4586440000
   16      C      -2.5279570000     1.8851130000    -0.0655840000
   17      H       3.5184400000     0.0227930000    -2.4040430000
   18      H       2.5153550000    -1.4149950000    -2.0884570000
   19      H       1.7259190000     0.1525610000    -2.4086650000
   20      H       1.9094690000     2.0394230000    -0.6675200000
   21      H       3.6969020000     1.8571980000    -0.7123700000
   22      H       2.8248470000     1.7569040000     0.8376350000
   23      H       3.7115750000    -1.8044040000     0.0986830000
   24      H       3.8378170000    -0.5088810000     1.2944100000
   25      H       4.6956660000    -0.3683060000    -0.2548240000
   26      H       2.0518000000    -1.8269570000     1.6071840000
   27      H      -2.1708220000    -1.5339420000     1.7389500000
   28      H      -3.6141590000     0.5179680000    -2.1814550000
   29      H      -2.8015570000    -1.0458990000    -1.9224900000
   30      H      -1.8246140000     0.3990600000    -2.2976490000
   31      H      -3.7738600000     0.0197790000     1.5320080000
   32      H      -4.6985160000     0.2835810000     0.0383110000
   33      H      -3.9019400000    -1.2759480000     0.3367230000
   34      H      -3.4335030000     2.3517290000    -0.4885780000
   35      H      -2.4871330000     2.1255600000     1.0035350000
   36      H      -1.6388010000     2.2861680000    -0.5577080000
 ----------------------------------------------------------------
 Nuclear Repulsion Energy =        1145.34817552 hartrees
 There are       61 alpha and       61 beta electrons
 Requested basis set is 6-311++G(d,p)
 There are 196 shells and 492 basis functions

 Total QAlloc Memory Limit   8000 MB
 Mega-Array Size       188 MB
 MEM_STATIC part       192 MB
 Discretize the solute cavity surface with Lebedev spheres
	Using 110 Lebedev grid points for each H atom
	Using 194 Lebedev grid points for other atoms
	Atomic van der Waals radii will be scaled by 1.20
 Remove points where switching function is < 1.0e-08
 Keep 2112 surface tesserae and discard 3192 interior tesserae
 Molecular Surface Area = 279.098 Angst**2
 A cutoff of  1.0D-08 yielded  14165 shell pairs
 There are     90089 function pairs (     95510 Cartesian)
 Smallest overlap matrix eigenvalue = 1.93E-07

 Q-Chem warning in module stvman/mkSTV.C, line 323:

 Overlap eigenvalue is smaller than square root of threshold
 Use THRESH >= 12 to get rid of this warning

 Linear dependence detected in AO basis
 Tighter screening thresholds may be required for diffuse basis sets
 Use S2THRESH > 14 and THRESH = 14 in case of SCF convergence issues
 Number of orthogonalized atomic orbitals = 488
 Maximum deviation from orthogonality = 1.957E-10

 Scale SEOQF with 1.000000e-01/1.000000e-01/1.000000e-01

 Standard Electronic Orientation quadrupole field applied
 Nucleus-field energy     =     0.0000000152 hartrees
 Guess from superposition of atomic densities
 Warning:  Energy on first SCF cycle will be non-variational
 SAD guess density has 120.000000 electrons

 -----------------------------------------------------------------------
  General SCF calculation program by
  Eric Jon Sundstrom, Paul Horn, Yuezhi Mao, Dmitri Zuev, Alec White,
  David Stuck, Shaama M.S., Shane Yost, Joonho Lee, David Small,
  Daniel Levine, Susi Lehtola, Hugh Burton, Evgeny Epifanovsky,
  Bang C. Huynh
 -----------------------------------------------------------------------
 Exchange:     0.2000 Hartree-Fock + 0.0800 Slater + 0.7200 B88
 Correlation:  0.1900 VWN1RPA + 0.8100 LYP
 Using SG-1 standard quadrature grid
 using 8 threads for integral computing
 -------------------------------------------------------
 OpenMP Integral computing Module                
 Release: version 1.0, May 2013, Q-Chem Inc. Pittsburgh 
 -------------------------------------------------------
 A restricted SCF calculation will be
 performed using DIIS
 SCF converges when DIIS error is below 1.0e-05
 ---------------------------------------
  Cycle       Energy         DIIS error
 ---------------------------------------
    1    -699.0238568803      2.71e-02  
    2    -695.8537997408      4.28e-03  
    3    -694.3197643208      7.89e-03  
    4    -696.2621586905      2.38e-03  
    5    -696.4005470253      3.84e-04  
    6    -696.4045771757      2.59e-04  
    7    -696.4063210280      8.18e-05  
    8    -696.4064318305      4.83e-05  
    9    -696.4064862906      4.91e-06  Convergence criterion met
 ---------------------------------------
 SCF time:   CPU 465.14s  wall 64.00s 

************** Final PCM Free Energy Summary **************
 G_electrostatic  =      -0.29163740 hartree =    -183.00523287 kcal/mol
 G_cavitation     =       0.00000000 hartree =       0.00000000 kcal/mol
 G_dispersion     =       0.00000000 hartree =       0.00000000 kcal/mol
 G_repulsion      =       0.00000000 hartree =       0.00000000 kcal/mol
 --------------------------------------------------
 Non-electrostatic Free Energy =       0.00000000 hartree =       0.00000000 kcal/mol
 Total                         =      -0.29163740 hartree =    -183.00523287 kcal/mol
 --------------------------------------------------
 SCF Energy (H0 + V/2)                       =    -696.40648629 
 Solute Internal Energy (H0)                 =    -696.11484889 
 Total Free Energy (H0 + V/2 + non-elec)     =    -696.40648629 hartree
                                             = -437001.66581319 kcal/mol
***********************************************************

 SCF   energy in the final basis set =     -696.4064862906
 Total energy in the final basis set =     -696.4064862906
 
 --------------------------------------------------------------
 
                    Orbital Energies (a.u.)
 --------------------------------------------------------------
 
 Alpha MOs
 -- Occupied --
-19.0117 -18.9974 -10.1591 -10.1578 -10.1578 -10.1562 -10.1360 -10.1360
-10.1282 -10.1282 -10.1282 -10.1281 -10.1236 -10.1235 -10.1098 -10.1098
 -0.9199  -0.9081  -0.7962  -0.7928  -0.7487  -0.6795  -0.6615  -0.6614
 -0.6569  -0.6564  -0.6341  -0.5701  -0.5441  -0.4940  -0.4879  -0.4376
 -0.4355  -0.4238  -0.4130  -0.4120  -0.4117  -0.4071  -0.3901  -0.3798
 -0.3658  -0.3603  -0.3553  -0.3542  -0.3449  -0.3410  -0.3330  -0.3323
 -0.3215  -0.3060  -0.3055  -0.3017  -0.3002  -0.2897  -0.2870  -0.2843
 -0.2131  -0.1989  -0.1917  -0.1738  -0.1118
 -- Virtual --
  0.0008   0.0098   0.0177   0.0207   0.0277   0.0291   0.0304   0.0364
  0.0416   0.0423   0.0471   0.0486   0.0572   0.0643   0.0644   0.0696
  0.0710   0.0768   0.0775   0.0894   0.0902   0.0903   0.0905   0.0996
  0.1060   0.1061   0.1120   0.1167   0.1186   0.1281   0.1282   0.1306
  0.1329   0.1366   0.1384   0.1387   0.1401   0.1469   0.1565   0.1566
  0.1583   0.1593   0.1595   0.1607   0.1652   0.1669   0.1682   0.1688
  0.1771   0.1780   0.1784   0.1889   0.1941   0.1944   0.1965   0.1996
  0.2026   0.2047   0.2073   0.2109   0.2119   0.2148   0.2173   0.2208
  0.2241   0.2253   0.2306   0.2336   0.2417   0.2439   0.2505   0.2525
  0.2595   0.2630   0.2638   0.2694   0.2714   0.2760   0.2795   0.2835
  0.2852   0.2996   0.3009   0.3142   0.3165   0.3193   0.3194   0.3245
  0.3250   0.3265   0.3286   0.3357   0.3408   0.3455   0.3482   0.3510
  0.3576   0.3610   0.3612   0.3716   0.3755   0.3797   0.3830   0.3834
  0.3889   0.4016   0.4110   0.4135   0.4184   0.4254   0.4410   0.4448
  0.4648   0.4703   0.4749   0.4778   0.4865   0.5008   0.5115   0.5252
  0.5348   0.5493   0.5504   0.5616   0.5701   0.5709   0.5964   0.5976
  0.5982   0.6016   0.6134   0.6142   0.6225   0.6315   0.6331   0.6384
  0.6477   0.6510   0.6605   0.6726   0.6729   0.6779   0.6885   0.6896
  0.6932   0.7014   0.7038   0.7061   0.7174   0.7210   0.7214   0.7286
  0.7320   0.7444   0.7458   0.7550   0.7595   0.7633   0.7709   0.7782
  0.7798   0.7926   0.7955   0.7981   0.8106   0.8117   0.8218   0.8363
  0.8385   0.8413   0.8525   0.8533   0.8619   0.8862   0.9228   0.9386
  0.9397   0.9647   0.9650   0.9701   0.9774   0.9795   0.9900   1.0259
  1.0264   1.0334   1.0600   1.0699   1.0815   1.1006   1.1119   1.1149
  1.1479   1.1495   1.1594   1.1731   1.1770   1.1922   1.2128   1.2134
  1.2405   1.2555   1.2647   1.2741   1.2827   1.3035   1.3077   1.3091
  1.3338   1.3630   1.3665   1.3820   1.3948   1.4582   1.4674   1.4758
  1.4783   1.4800   1.4820   1.4901   1.5071   1.5096   1.5118   1.5198
  1.5294   1.5405   1.5459   1.5616   1.5757   1.5767   1.5804   1.5939
  1.6099   1.6135   1.6221   1.6266   1.6350   1.6588   1.6601   1.6658
  1.6804   1.6876   1.6922   1.6952   1.7024   1.7025   1.7224   1.7321
  1.7421   1.7534   1.7541   1.7561   1.7606   1.7831   1.7901   1.8069
  1.8101   1.8142   1.8270   1.8295   1.8531   1.8588   1.8663   1.8699
  1.8774   1.9019   1.9156   1.9199   1.9435   1.9646   1.9650   1.9734
  2.0115   2.0135   2.0173   2.0179   2.0202   2.0504   2.0630   2.0828
  2.0963   2.0969   2.1268   2.1272   2.1377   2.1423   2.1545   2.1742
  2.1803   2.2045   2.2268   2.2391   2.2493   2.2672   2.2741   2.2948
  2.2980   2.3211   2.3456   2.3567   2.3602   2.3691   2.4083   2.4713
  2.4773   2.4826   2.4980   2.5231   2.5342   2.5350   2.5505   2.5508
  2.5513   2.5553   2.5575   2.5719   2.5753   2.5776   2.5859   2.5953
  2.6105   2.6143   2.6317   2.6348   2.6403   2.6414   2.6686   2.6713
  2.7045   2.7134   2.7170   2.7239   2.7391   2.7567   2.7774   2.8012
  2.8058   2.8111   2.8240   2.8270   2.8441   2.8624   2.8861   2.8935
  2.9026   2.9086   2.9188   2.9500   2.9696   2.9697   2.9850   2.9963
  3.0157   3.0486   3.0630   3.0683   3.0977   3.1321   3.1410   3.1473
  3.1584   3.1687   3.2049   3.2430   3.2468   3.2498   3.2537   3.2935
  3.3089   3.3306   3.3430   3.3531   3.3721   3.3989   3.4747   3.4864
  3.5296   3.5992   3.6686   3.7044   3.7718   3.7866   3.7887   3.7901
  3.8071   3.8089   3.8303   3.8342   3.8568   3.8603   3.8696   3.8801
  3.8951   3.9211   3.9666   4.1727   4.2336   4.2674   4.2949   4.2979
  4.3065   4.3424   4.4582   4.4913   4.8735   5.1492   5.2408   5.2960
  5.4543   5.7874   5.8744  23.6743  23.8357  23.8547  23.9603  23.9693
 23.9951  23.9986  24.0069  24.0092  24.0139  24.0349  24.0365  24.1215
 24.1716  50.0823  50.1384
 --------------------------------------------------------------
 
          Ground-State Mulliken Net Atomic Charges

     Atom                 Charge (a.u.)
  ----------------------------------------
      1 C                    -0.698078
      2 C                     0.838271
      3 C                    -0.696862
      4 C                    -0.506988
      5 C                     0.396631
      6 C                    -0.370460
      7 C                    -0.608590
      8 O                    -0.784732
      9 C                    -0.370709
     10 C                     0.392910
     11 C                    -0.654219
     12 O                    -0.666219
     13 C                     0.837835
     14 C                    -0.697652
     15 C                    -0.507698
     16 C                    -0.698913
     17 H                     0.134726
     18 H                     0.125255
     19 H                     0.163624
     20 H                     0.163793
     21 H                     0.134819
     22 H                     0.124746
     23 H                     0.126845
     24 H                     0.126801
     25 H                     0.161506
     26 H                     0.135760
     27 H                     0.136113
     28 H                     0.134733
     29 H                     0.125067
     30 H                     0.163493
     31 H                     0.126795
     32 H                     0.161538
     33 H                     0.126844
     34 H                     0.134895
     35 H                     0.124817
     36 H                     0.163303
  ----------------------------------------
  Sum of atomic charges =    -2.000000

 -----------------------------------------------------------------
                    Cartesian Multipole Moments
 -----------------------------------------------------------------
    Charge (ESU x 10^10)
                -9.6064
    Dipole Moment (Debye)
         X       0.2966      Y       8.4206      Z      -7.6508
       Tot      11.3811
    Quadrupole Moments (Debye-Ang)
        XX    -120.5699     XY      -0.8119     YY    -149.8805
        XZ       1.5254     YZ      37.4626     ZZ    -153.8024
    Octopole Moments (Debye-Ang^2)
       XXX       2.5881    XXY      24.4703    XYY       3.4126
       YYY     151.4735    XXZ      -7.8122    XYZ      -3.1186
       YYZ     -94.9305    XZZ       4.1576    YZZ     112.9083
       ZZZ    -109.6878
    Hexadecapole Moments (Debye-Ang^3)
      XXXX   -3759.6103   XXXY      99.3987   XXYY    -827.8911
      XYYY      90.2624   YYYY   -1474.0300   XXXZ      60.6295
      XXYZ     104.2628   XYYZ      31.6272   YYYZ     601.4475
      XXZZ    -838.9538   XYZZ      24.7242   YYZZ    -678.0149
      XZZZ      71.4868   YZZZ     617.0697   ZZZZ   -1591.8393
 -----------------------------------------------------------------
 Total job time:  65.70s(wall), 471.59s(cpu) 
 Tue Jun 11 17:34:18 2024

        *************************************************************
        *                                                           *
        *  Thank you very much for using Q-Chem.  Have a nice day.  *
        *                                                           *
        *************************************************************


