
Running Job 1 of 1 123-rad-COSMO.in
qchem 123-rad-COSMO.in_4059087.0 /expanse/lustre/scratch/selhajj/temp_project/qcscratch/28869622/qchem4059087/ 0
/cm/shared/apps/spack/cpu/opt/spack/linux-centos8-zen2/gcc-10.2.0/qchem-5.4-akfmr7b3t57bfs6qan3padb2wnb2i7cl/exe/qcprog.exe_s 123-rad-COSMO.in_4059087.0 /expanse/lustre/scratch/selhajj/temp_project/qcscratch/28869622/qchem4059087/
                  Welcome to Q-Chem
     A Quantum Leap Into The Future Of Chemistry


 Q-Chem 5.4, Q-Chem, Inc., Pleasanton, CA (2021)

 License issued to: University of California, San Diego (site)

 E. Epifanovsky,  A. T. B. Gilbert,  Xintian Feng,  Joonho Lee,  Yuezhi Mao,  
 N. Mardirossian,  P. Pokhilko,  A. White,  M. Wormit,  M. P. Coons,  
 A. L. Dempwolff,  Zhengting Gan,  D. Hait,  P. R. Horn,  L. D. Jacobson,  
 I. Kaliman,  J. Kussmann,  A. W. Lange,  Ka Un Lao,  D. S. Levine,  Jie Liu,  
 S. C. McKenzie,  A. F. Morrison,  K. Nanda,  F. Plasser,  D. R. Rehn,  
 M. L. Vidal,  Zhi-Qiang You,  Ying Zhu,  B. Alam,  B. Albrecht,  
 A. Aldossary,  E. Alguire,  J. H. Andersen,  D. Barton,  K. Begam,  A. Behn,  
 Y. A. Bernard,  E. J. Berquist,  H. Burton,  A. Carreras,  K. Carter-Fenk,  
 R. Chakraborty,  A. D. Chien,  K. D. Closser,  V. Cofer-Shabica,  
 S. Dasgupta,  Jia Deng,  M. de Wergifosse,  M. Diedenhofen,  Hainam Do,  
 S. Ehlert,  Po-Tung Fang,  S. Fatehi,  Qingguo Feng,  J. Gayvert,  
 Qinghui Ge,  G. Gidofalvi,  M. Goldey,  J. Gomes,  C. Gonzalez-Espinoza,  
 S. Gulania,  A. Gunina,  M. W. D. Hanson-Heine,  P. H. P. Harbach,  
 A. W. Hauser,  M. F. Herbst,  M. Hernandez Vera,  M. Hodecker,  
 Z. C. Holden,  S. Houck,  Xunkun Huang,  Kerwin Hui,  B. C. Huynh,  
 M. Ivanov,  Hyunjun Ji,  Hanjie Jiang,  B. Kaduk,  S. Kaehler,  
 K. Khistyaev,  Jaehoon Kim,  P. Klunzinger,  Z. Koczor-Benda,  
 Joong Hoon Koh,  D. Kosenkov,  L. Koulias,  T. Kowalczyk,  C. M. Krauter,  
 K. Kue,  A. Kunitsa,  T. Kus,  A. Landau,  K. V. Lawler,  D. Lefrancois,  
 S. Lehtola,  Rain Li,  Yi-Pei Li,  Jiashu Liang,  M. Liebenthal,  
 Hung-Hsuan Lin,  You-Sheng Lin,  Fenglai Liu,  Kuan-Yu Liu,  
 M. Loipersberger,  A. Luenser,  A. Manjanath,  P. Manohar,  E. Mansoor,  
 S. F. Manzer,  Shan-Ping Mao,  A. V. Marenich,  T. Markovich,  S. Mason,  
 S. A. Maurer,  P. F. McLaughlin,  M. F. S. J. Menger,  J.-M. Mewes,  
 S. A. Mewes,  P. Morgante,  J. W. Mullinax,  T. S. Nguyen-Beck,  
 K. J. Oosterbaan,  G. Paran,  Alexander C. Paul,  Suranjan K. Paul,  
 F. Pavosevic,  Zheng Pei,  S. Prager,  E. I. Proynov,  E. Ramos,  B. Rana,  
 A. E. Rask,  A. Rettig,  R. M. Richard,  F. Rob,  E. Rossomme,  T. Scheele,  
 M. Scheurer,  M. Schneider,  N. Sergueev,  S. M. Sharada,  W. Skomorowski,  
 D. W. Small,  C. J. Stein,  Yu-Chuan Su,  E. J. Sundstrom,  Zhen Tao,  
 J. Thirman,  T. Tsuchimochi,  N. M. Tubman,  S. P. Veccham,  O. Vydrov,  
 J. Wenzel,  J. Witte,  A. Yamada,  Kun Yao,  S. Yeganeh,  S. R. Yost,  
 A. Zech,  Igor Ying Zhang,  Xing Zhang,  Yu Zhang,  D. Zuev,  
 A. Aspuru-Guzik,  A. T. Bell,  N. A. Besley,  K. B. Bravaya,  B. R. Brooks,  
 D. Casanova,  Jeng-Da Chai,  S. Coriani,  C. J. Cramer,  
 A. E. DePrince, III,  R. A. DiStasio Jr.,  A. Dreuw,  B. D. Dunietz,  
 T. R. Furlani,  W. A. Goddard III,  S. Grimme,  S. Hammes-Schiffer,  
 T. Head-Gordon,  W. J. Hehre,  Chao-Ping Hsu,  T.-C. Jagau,  Yousung Jung,  
 A. Klamt,  Jing Kong,  D. S. Lambrecht,  WanZhen Liang,  N. J. Mayhall,  
 C. W. McCurdy,  J. B. Neaton,  C. Ochsenfeld,  J. A. Parkhill,  R. Peverati,  
 V. A. Rassolov,  Yihan Shao,  L. V. Slipchenko,  T. Stauch,  R. P. Steele,  
 J. E. Subotnik,  A. J. W. Thom,  A. Tkatchenko,  D. G. Truhlar,  
 T. Van Voorhis,  T. A. Wesolowski,  K. B. Whaley,  H. L. Woodcock III,  
 P. M. Zimmerman,  S. Faraji,  P. M. W. Gill,  M. Head-Gordon,  
 J. M. Herbert,  A. I. Krylov

 Contributors to earlier versions of Q-Chem not listed above: 
 R. D. Adamson,  B. Austin,  R. Baer,  J. Baker,  G. J. O. Beran,  
 K. Brandhorst,  S. T. Brown,  E. F. C. Byrd,  A. K. Chakraborty,  
 G. K. L. Chan,  Chun-Min Chang,  Yunqing Chen,  C.-L. Cheng,  
 Siu Hung Chien,  D. M. Chipman,  D. L. Crittenden,  H. Dachsel,  
 R. J. Doerksen,  A. D. Dutoi,  R. G. Edgar,  J. Fosso-Tande,  
 L. Fusti-Molnar,  D. Ghosh,  A. Ghysels,  A. Golubeva-Zadorozhnaya,  
 J. Gonthier,  M. S. Gordon,  S. R. Gwaltney,  G. Hawkins,  J. E. Herr,  
 A. Heyden,  S. Hirata,  E. G. Hohenstein,  G. Kedziora,  F. J. Keil,  
 C. Kelley,  Jihan Kim,  R. A. King,  R. Z. Khaliullin,  P. P. Korambath,  
 W. Kurlancheek,  A. Laurent,  A. M. Lee,  M. S. Lee,  S. V. Levchenko,  
 Ching Yeh Lin,  D. Liotard,  E. Livshits,  R. C. Lochan,  I. Lotan,  
 L. A. Martinez-Martinez,  P. E. Maslen,  N. Nair,  D. P. O'Neill,  
 D. Neuhauser,  E. Neuscamman,  C. M. Oana,  R. Olivares-Amaya,  R. Olson,  
 T. M. Perrine,  B. Peters,  P. A. Pieniazek,  A. Prociuk,  Y. M. Rhee,  
 J. Ritchie,  M. A. Rohrdanz,  E. Rosta,  N. J. Russ,  H. F. Schaefer III,  
 M. W. Schmidt,  N. E. Schultz,  S. Sharma,  N. Shenvi,  C. D. Sherrill,  
 A. C. Simmonett,  A. Sodt,  T. Stein,  D. Stuck,  K. S. Thanthiriwatte,  
 V. Vanovschi,  L. Vogt,  Tao Wang,  A. Warshel,  M. A. Watson,  
 C. F. Williams,  Q. Wu,  X. Xu,  Jun Yang,  W. Zhang,  Yan Zhao

 Please cite Q-Chem as follows:
 Y. Shao et al., Mol. Phys. 113, 184-215 (2015)
 DOI: 10.1080/00268976.2014.952696

 Q-Chem 5.4.0 for Intel X86 EM64T Linux

 Parts of Q-Chem use Armadillo 9.800.1 (Horizon Scraper).
 http://arma.sourceforge.net/

 Q-Chem begins on Thu Feb 22 04:32:57 2024  

 Host: 
0

     Scratch files written to /expanse/lustre/scratch/selhajj/temp_project/qcscratch/28869622/qchem4059087//
 May1621 |scratch|qcdevops|jenkins|workspace|build_RNUM    
 Processing $rem in /cm/shared/apps/spack/cpu/opt/spack/linux-centos8-zen2/gcc-10.2.0/qchem-5.4-akfmr7b3t57bfs6qan3padb2wnb2i7cl/config/preferences:
 Processing $rem in /home/selhajj/.qchemrc:

 Checking the input file for inconsistencies... 
 Q-Chem warning in module libgen/CheckREMs.C, line 172:

 Found a $solvent section, which is only used for PCM and Kirkwood-Onsager solvation models

	...done.

--------------------------------------------------------------
User input:
--------------------------------------------------------------
$molecule
-1 2
C                 -2.8901220000     -1.9246540000     -0.1390790000
C                 -2.3999270000     -0.4961670000     -0.0503860000
C                 -3.3553240000      0.5054540000      0.0501040000
C                 -3.0039710000      1.8659470000      0.1374690000
C                 -1.6759530000      2.2256800000      0.1236710000
C                 -0.6622990000      1.2490810000      0.0233590000
C                  0.7253490000      1.7239800000      0.0161090000
O                  1.0075950000      2.9469810000      0.0957450000
C                  1.7610900000      0.7018320000     -0.0875970000
C                  3.1210880000      1.0849900000     -0.1002880000
C                  4.1263100000      0.1445450000     -0.1971040000
C                  3.7990020000     -1.2271520000     -0.2854810000
C                  2.4760090000     -1.6217210000     -0.2747160000
C                  1.4297110000     -0.6773870000     -0.1764220000
C                  0.0420300000     -1.1566120000     -0.1698430000
O                 -0.1998940000     -2.3888050000     -0.2505040000
C                 -1.0115260000     -0.1397800000     -0.0658870000
H                 -3.9851250000     -1.9387670000     -0.1083230000
H                 -2.4993290000     -2.5368110000      0.6758450000
H                 -2.5495290000     -2.4120860000     -1.0544590000
H                 -4.4051060000      0.2249390000      0.0610750000
H                 -3.7802540000      2.6217720000      0.2149170000
H                 -1.3608200000      3.2602040000      0.1885780000
H                  3.3393300000      2.1445050000     -0.0309630000
H                  5.1668410000      0.4560730000     -0.2054730000
H                  4.5883740000     -1.9693600000     -0.3617560000
H                  2.1964470000     -2.6666800000     -0.3412110000
$end
$rem
MAX_SCF_CYCLES=200
BASIS  =  6-311++G(d,p)
GUI  =  2
JOB_TYPE  =  SP
METHOD  =  B3LYP
SOLVENT_METHOD = COSMO
$end
$solvent
dielectric 37.219
opticaldielectric 1.43
$end





--------------------------------------------------------------
 ----------------------------------------------------------------
             Standard Nuclear Orientation (Angstroms)
    I     Atom           X                Y                Z
 ----------------------------------------------------------------
    1      C       2.8971829746    -2.2610882660     0.0008088223
    2      C       2.5073048814    -0.7993334275     0.0000604400
    3      C       3.5306596464     0.1381478302    -0.0003998322
    4      C       3.2746192741     1.5225126903    -0.0005965874
    5      C       1.9740513519     1.9716818872    -0.0002267438
    6      C       0.8942909005     1.0631557310     0.0001294100
    7      C      -0.4577828319     1.6315263103     0.0004475200
    8      O      -0.6544063925     2.8737321055     0.0001630754
    9      C      -1.5627411391     0.6789676511     0.0002812257
   10      C      -2.8935878386     1.1537441637     0.0002802619
   11      C      -3.9623937295     0.2808551189    -0.0000164637
   12      C      -3.7311166983    -1.1130618527    -0.0003196011
   13      C      -2.4380016943    -1.5967607727    -0.0003036511
   14      C      -1.3279249321    -0.7227485278     0.0000069185
   15      C       0.0238683437    -1.2954730507     0.0000495373
   16      O       0.1796324558    -2.5441004010    -0.0004883791
   17      C       1.1462427301    -0.3494232929     0.0001111144
   18      H       3.9891785456    -2.3489633401     0.0013768269
   19      H       2.4943311870    -2.7867085430    -0.8669412851
   20      H       2.4934792438    -2.7859826502     0.8685779586
   21      H       4.5590032754    -0.2130795173    -0.0004806716
   22      H       4.1020813954     2.2262109550    -0.0009277640
   23      H       1.7314785536     3.0275796420    -0.0002674459
   24      H      -3.0377163310     2.2280972255     0.0004740256
   25      H      -4.9793418351     0.6624845816    -0.0000405581
   26      H      -4.5706763977    -1.8022194500    -0.0005699194
   27      H      -2.2316535773    -2.6606856923    -0.0004729618
 ----------------------------------------------------------------
 Molecular Point Group                 C1    NOp =  1
 Largest Abelian Subgroup              C1    NOp =  1
 Nuclear Repulsion Energy =        1096.47034224 hartrees
 There are       59 alpha and       58 beta electrons
 Requested basis set is 6-311++G(d,p)
 There are 152 shells and 444 basis functions

 Total QAlloc Memory Limit   8000 MB
 Mega-Array Size       188 MB
 MEM_STATIC part       192 MB
 A cutoff of  1.0D-08 yielded   8270 shell pairs
 There are     73866 function pairs (     79102 Cartesian)
 Smallest overlap matrix eigenvalue = 4.89E-08

 Q-Chem warning in module stvman/mkSTV.C, line 323:

 Overlap eigenvalue is smaller than square root of threshold
 Use THRESH >= 12 to get rid of this warning

 Linear dependence detected in AO basis
 Tighter screening thresholds may be required for diffuse basis sets
 Use S2THRESH > 14 and THRESH = 14 in case of SCF convergence issues
 Number of orthogonalized atomic orbitals = 437
 Maximum deviation from orthogonality = 2.408E-10

 Scale SEOQF with 1.000000e-01/1.000000e-01/1.000000e-01

 Standard Electronic Orientation quadrupole field applied
 Nucleus-field energy     =     0.0000000466 hartrees
 Guess from superposition of atomic densities
 Warning:  Energy on first SCF cycle will be non-variational
 SAD guess density has 116.000000 electrons

 -----------------------------------------------------------------------
  General SCF calculation program by
  Eric Jon Sundstrom, Paul Horn, Yuezhi Mao, Dmitri Zuev, Alec White,
  David Stuck, Shaama M.S., Shane Yost, Joonho Lee, David Small,
  Daniel Levine, Susi Lehtola, Hugh Burton, Evgeny Epifanovsky,
  Bang C. Huynh
 -----------------------------------------------------------------------
 Exchange:     0.2000 Hartree-Fock + 0.0800 Slater + 0.7200 B88
 Correlation:  0.1900 VWN1RPA + 0.8100 LYP
 Using SG-1 standard quadrature grid
 using 8 threads for integral computing
 -------------------------------------------------------
 OpenMP Integral computing Module                
 Release: version 1.0, May 2013, Q-Chem Inc. Pittsburgh 
 -------------------------------------------------------
 A unrestricted SCF calculation will be
 performed using DIIS
 SCF converges when DIIS error is below 1.0e-05
 ---------------------------------------
  Cycle       Energy         DIIS error
 ---------------------------------------
    1    -732.2900413713      1.58e-02  
    2    -727.9858685937      1.94e-03  
    3    -727.2738053561      3.37e-03  
    4    -728.2595440414      9.51e-04  
    5    -728.3362323298      1.89e-04  
    6    -728.3396018364      8.75e-05  
    7    -728.3401851294      4.92e-05  
    8    -728.3404681025      1.85e-05  
    9    -728.3405158369      8.56e-06  Convergence criterion met
 ---------------------------------------
 SCF time:   CPU 328.91s  wall 41.00s 
<S^2> =          0.760021582
 SCF   energy in the final basis set =     -728.3405158369
 Total energy in the final basis set =     -728.3405158369
 Exchange:     0.2000 Hartree-Fock + 0.0800 Slater + 0.7200 B88
 Correlation:  0.1900 VWN1RPA + 0.8100 LYP
 Using SG-1 standard quadrature grid
 in get_qchem_info
 IBasis=      401111
 IBasis=      401111
 USING 1082 GRID
 MICHARGE=          -1
 Set epsilon to    37.2190017700195     
==== cosmo data ====
outfile: 123-rad-COSMO.out.cosmo.0
phsran:    0.00000D+00
ampran:    0.10000D-04
volume:   1745.2952903
area:    850.4628085
routf:      0.8500000
rsolv [a.u]:      2.4566438
disex:     10.0000000
disex2:   4645.7602857
fepsi:      0.9731320
eps :    37.2190018
lcavity:     1
nppa:  1082
nspa:    92
nsph:    32
maxnps:  1884
natoms:    27
Atom   Radius [a.u.] nuc. charge
    1      3.7794520    6
    2      3.7794520    6
    3      3.7794520    6
    4      3.7794520    6
    5      3.7794520    6
    6      3.7794520    6
    7      3.7794520    6
    8      3.2503287    8
    9      3.7794520    6
   10      3.7794520    6
   11      3.7794520    6
   12      3.7794520    6
   13      3.7794520    6
   14      3.7794520    6
   15      3.7794520    6
   16      3.2503287    8
   17      3.7794520    6
   18      2.4566438    1
   19      2.4566438    1
   20      2.4566438    1
   21      2.4566438    1
   22      2.4566438    1
   23      2.4566438    1
   24      2.4566438    1
   25      2.4566438    1
   26      2.4566438    1
   27      2.4566438    1
=== end cosmo data ===
 number of segments:         1046
 f_epsilon=  0.973132003749614     
Ediel:   -0.0745408
 A unrestricted SCF calculation will be
 performed using Roothaan-Hall, DIIS
 SCF converges when DIIS error is below 1.0e-05
 ---------------------------------------
  Cycle       Energy         DIIS error
 ---------------------------------------
 number of segments:         1046
 f_epsilon=  0.973132003749614     
Ediel:   -0.0899673
    1    -728.4150751788      1.27e-04  Roothaan Step
 ---------------------------------------
  Cycle       Energy         DIIS error
 ---------------------------------------
 number of segments:         1046
 f_epsilon=  0.973132003749614     
Ediel:   -0.0828246
    1    -728.4188617706      1.33e-04  
 number of segments:         1046
 f_epsilon=  0.973132003749614     
Ediel:   -0.0872174
    2    -728.4156783078      2.38e-04  
 number of segments:         1046
 f_epsilon=  0.973132003749614     
Ediel:   -0.0876140
    3    -728.4206076956      2.10e-05  
    4    -728.4206444985      9.50e-06  Convergence criterion met
 ---------------------------------------
 SCF time:   CPU 238.86s  wall 31.00s 
<S^2> =          0.758780366
before final oc correction, ETot:      -728.4206444985
 number of outlayer segments:          443
SCF energy after oc correction:      -728.4260181340
 SCF   energy in the final basis set =     -728.4260181340
 Total energy in the final basis set =     -728.4206444985
 
 --------------------------------------------------------------
 
                    Orbital Energies (a.u.)
 --------------------------------------------------------------
 
 Alpha MOs
 -- Occupied --
-19.0778 -19.0750 -10.2265 -10.2240 -10.1835 -10.1759 -10.1723 -10.1720
-10.1718 -10.1714 -10.1712 -10.1695 -10.1690 -10.1686 -10.1656 -10.1645
-10.1520  -1.0052  -1.0025  -0.8608  -0.8509  -0.7846  -0.7683  -0.7497
 -0.7367  -0.6868  -0.6594  -0.6307  -0.6153  -0.5764  -0.5466  -0.5320
 -0.5188  -0.4723  -0.4626  -0.4570  -0.4543  -0.4279  -0.4228  -0.4185
 -0.4125  -0.4050  -0.4021  -0.3998  -0.3796  -0.3754  -0.3651  -0.3575
 -0.3441  -0.3421  -0.3386  -0.3316  -0.2684  -0.2569  -0.2484  -0.2477
 -0.2470  -0.2355  -0.1417
 -- Virtual --
 -0.0521  -0.0214  -0.0025  -0.0016   0.0071   0.0122   0.0222   0.0250
  0.0385   0.0418   0.0442   0.0464   0.0504   0.0530   0.0637   0.0652
  0.0666   0.0667   0.0808   0.0851   0.0863   0.0910   0.1011   0.1101
  0.1131   0.1145   0.1166   0.1192   0.1214   0.1255   0.1267   0.1308
  0.1312   0.1314   0.1377   0.1464   0.1481   0.1544   0.1551   0.1584
  0.1620   0.1702   0.1712   0.1750   0.1753   0.1765   0.1844   0.1867
  0.1956   0.2001   0.2012   0.2058   0.2152   0.2205   0.2222   0.2255
  0.2306   0.2314   0.2341   0.2419   0.2480   0.2496   0.2537   0.2542
  0.2571   0.2640   0.2683   0.2687   0.2757   0.2826   0.2925   0.2936
  0.2957   0.3036   0.3049   0.3073   0.3143   0.3180   0.3195   0.3241
  0.3284   0.3314   0.3343   0.3365   0.3442   0.3471   0.3527   0.3620
  0.3651   0.3751   0.3796   0.3821   0.3958   0.3989   0.4046   0.4218
  0.4276   0.4384   0.4439   0.4611   0.4728   0.4886   0.5026   0.5128
  0.5281   0.5395   0.5461   0.5537   0.5552   0.5666   0.5676   0.5721
  0.5850   0.5878   0.5957   0.6083   0.6087   0.6131   0.6240   0.6278
  0.6289   0.6445   0.6484   0.6549   0.6571   0.6615   0.6658   0.6740
  0.6774   0.6792   0.6859   0.6960   0.7043   0.7089   0.7257   0.7311
  0.7438   0.7473   0.7641   0.7712   0.7777   0.7844   0.7899   0.8017
  0.8121   0.8238   0.8371   0.8391   0.8663   0.8700   0.8800   0.8897
  0.8985   0.9055   0.9260   0.9312   0.9349   0.9393   0.9479   0.9514
  0.9562   0.9655   0.9849   0.9869   0.9925   1.0002   1.0100   1.0201
  1.0271   1.0290   1.0483   1.0571   1.0647   1.0747   1.0939   1.0986
  1.1154   1.1260   1.1336   1.1470   1.1632   1.1689   1.1830   1.1892
  1.2092   1.2327   1.2407   1.2590   1.2749   1.3162   1.3262   1.3349
  1.3455   1.3796   1.3812   1.4250   1.4386   1.4760   1.4803   1.4901
  1.4934   1.4977   1.5195   1.5221   1.5226   1.5342   1.5343   1.5542
  1.5732   1.5752   1.5811   1.5831   1.6127   1.6156   1.6371   1.6498
  1.6678   1.6774   1.6900   1.7045   1.7089   1.7168   1.7339   1.7455
  1.7550   1.7717   1.7740   1.7972   1.7984   1.8162   1.8278   1.8533
  1.8732   1.8936   1.8979   1.9110   1.9157   1.9180   1.9382   1.9389
  1.9461   1.9487   1.9637   1.9797   1.9887   1.9934   2.0038   2.0123
  2.0340   2.0439   2.0775   2.0834   2.1037   2.1214   2.1230   2.1519
  2.1822   2.1916   2.2202   2.2372   2.2852   2.2899   2.3054   2.3279
  2.3298   2.3501   2.3760   2.4149   2.4189   2.4353   2.4798   2.4858
  2.4961   2.5107   2.5591   2.5745   2.5906   2.5979   2.6128   2.6392
  2.6461   2.6549   2.6697   2.7063   2.7256   2.7273   2.7379   2.7549
  2.7580   2.7593   2.7729   2.7750   2.7799   2.7954   2.8036   2.8048
  2.8182   2.8199   2.8378   2.8517   2.8551   2.8713   2.8904   2.8931
  2.8969   2.9155   2.9198   2.9406   2.9557   2.9681   2.9981   3.0403
  3.1025   3.1063   3.1191   3.1391   3.1847   3.2058   3.2319   3.2423
  3.2820   3.2947   3.3317   3.3367   3.3528   3.3539   3.3860   3.4395
  3.4399   3.5133   3.5216   3.5349   3.5684   3.5778   3.5874   3.5963
  3.6871   3.6951   3.7909   3.8059   3.8487   3.8896   3.9369   4.0496
  4.0644   4.0866   4.1466   4.2077   4.2853   4.3161   4.3649   4.5133
  4.8161   4.8406   4.8607   5.0763   5.0950   5.2861   5.3301   5.7655
  5.8491  23.5420  23.6903  23.9083  23.9248  23.9316  23.9505  23.9587
 23.9728  23.9916  24.0152  24.0491  24.1122  24.1240  24.1950  24.1973
 50.0655  50.1196
 
 Beta MOs
 -- Occupied --
-19.0724 -19.0694 -10.2248 -10.2221 -10.1835 -10.1752 -10.1715 -10.1715
-10.1709 -10.1709 -10.1704 -10.1690 -10.1689 -10.1686 -10.1650 -10.1644
-10.1520  -0.9956  -0.9927  -0.8581  -0.8497  -0.7807  -0.7668  -0.7476
 -0.7348  -0.6840  -0.6536  -0.6289  -0.6127  -0.5755  -0.5444  -0.5296
 -0.5173  -0.4692  -0.4619  -0.4552  -0.4536  -0.4224  -0.4189  -0.4146
 -0.4093  -0.4033  -0.3986  -0.3953  -0.3741  -0.3643  -0.3608  -0.3505
 -0.3431  -0.3412  -0.3303  -0.3270  -0.2515  -0.2479  -0.2426  -0.2421
 -0.2401  -0.2305
 -- Virtual --
 -0.0832  -0.0423  -0.0111  -0.0014  -0.0001   0.0071   0.0122   0.0223
  0.0250   0.0390   0.0420   0.0442   0.0465   0.0549   0.0582   0.0637
  0.0666   0.0674   0.0794   0.0809   0.0851   0.0870   0.0925   0.1016
  0.1103   0.1143   0.1147   0.1168   0.1194   0.1215   0.1268   0.1272
  0.1311   0.1314   0.1330   0.1403   0.1465   0.1483   0.1544   0.1560
  0.1585   0.1621   0.1702   0.1723   0.1749   0.1768   0.1769   0.1850
  0.1869   0.1973   0.2013   0.2032   0.2061   0.2151   0.2213   0.2223
  0.2265   0.2317   0.2326   0.2344   0.2432   0.2500   0.2542   0.2547
  0.2549   0.2583   0.2656   0.2695   0.2697   0.2760   0.2833   0.2931
  0.2941   0.2969   0.3043   0.3058   0.3109   0.3149   0.3184   0.3201
  0.3247   0.3293   0.3345   0.3352   0.3384   0.3453   0.3479   0.3533
  0.3625   0.3656   0.3755   0.3804   0.3829   0.3963   0.3995   0.4062
  0.4232   0.4307   0.4390   0.4454   0.4617   0.4731   0.4905   0.5041
  0.5143   0.5295   0.5399   0.5475   0.5552   0.5572   0.5682   0.5720
  0.5728   0.5856   0.5886   0.5976   0.6089   0.6098   0.6150   0.6251
  0.6298   0.6299   0.6455   0.6511   0.6584   0.6587   0.6645   0.6665
  0.6747   0.6786   0.6805   0.6865   0.6984   0.7081   0.7095   0.7264
  0.7319   0.7441   0.7512   0.7646   0.7716   0.7783   0.7851   0.7904
  0.8042   0.8125   0.8245   0.8382   0.8398   0.8669   0.8706   0.8808
  0.8905   0.8999   0.9063   0.9274   0.9320   0.9375   0.9432   0.9488
  0.9524   0.9570   0.9669   0.9857   0.9893   0.9951   1.0027   1.0121
  1.0219   1.0279   1.0311   1.0515   1.0577   1.0677   1.0755   1.0973
  1.1039   1.1166   1.1309   1.1384   1.1512   1.1700   1.1721   1.1846
  1.1906   1.2128   1.2423   1.2433   1.2656   1.2777   1.3182   1.3290
  1.3368   1.3475   1.3807   1.3820   1.4270   1.4407   1.4778   1.4812
  1.4906   1.4963   1.4983   1.5205   1.5235   1.5259   1.5354   1.5382
  1.5551   1.5743   1.5767   1.5815   1.5844   1.6151   1.6162   1.6387
  1.6512   1.6686   1.6782   1.6906   1.7089   1.7103   1.7182   1.7348
  1.7470   1.7567   1.7732   1.7754   1.7980   1.8028   1.8175   1.8308
  1.8552   1.8750   1.8944   1.8987   1.9140   1.9188   1.9197   1.9401
  1.9412   1.9478   1.9505   1.9671   1.9809   1.9903   1.9950   2.0082
  2.0135   2.0355   2.0454   2.0790   2.0848   2.1050   2.1235   2.1260
  2.1530   2.1834   2.1928   2.2218   2.2383   2.2878   2.2909   2.3075
  2.3323   2.3325   2.3526   2.3768   2.4183   2.4219   2.4363   2.4802
  2.4862   2.4964   2.5109   2.5597   2.5748   2.5925   2.5988   2.6133
  2.6398   2.6514   2.6566   2.6727   2.7109   2.7258   2.7278   2.7387
  2.7553   2.7583   2.7596   2.7741   2.7804   2.7821   2.7958   2.8041
  2.8100   2.8188   2.8242   2.8386   2.8546   2.8560   2.8794   2.8942
  2.8943   2.9048   2.9169   2.9254   2.9493   2.9658   2.9784   3.0058
  3.0453   3.1058   3.1083   3.1233   3.1410   3.1902   3.2077   3.2329
  3.2439   3.2838   3.2958   3.3379   3.3464   3.3536   3.3685   3.3869
  3.4403   3.4410   3.5155   3.5238   3.5365   3.5698   3.5785   3.5886
  3.5982   3.6886   3.6962   3.7911   3.8072   3.8533   3.8912   3.9383
  4.0504   4.0654   4.0880   4.1479   4.2088   4.2879   4.3190   4.3660
  4.5164   4.8204   4.8421   4.8618   5.0988   5.1179   5.2906   5.3346
  5.7703   5.8540  23.5427  23.6909  23.9095  23.9256  23.9326  23.9510
 23.9601  23.9741  23.9921  24.0157  24.0499  24.1127  24.1242  24.1953
 24.1977  50.0709  50.1251
 --------------------------------------------------------------
 
          Ground-State Mulliken Net Atomic Charges

     Atom                 Charge (a.u.)    Spin (a.u.)
  --------------------------------------------------------
      1 C                    -0.536008       0.005725
      2 C                     0.747291       0.017875
      3 C                    -0.436272       0.053176
      4 C                    -0.369910       0.037066
      5 C                    -0.047228       0.035690
      6 C                     0.389401       0.036219
      7 C                    -0.528098       0.114144
      8 O                    -0.495590       0.198352
      9 C                     0.050848       0.011787
     10 C                     0.034710       0.033095
     11 C                    -0.488318       0.028386
     12 C                    -0.493224       0.042747
     13 C                     0.127860       0.020729
     14 C                     0.020727       0.039085
     15 C                    -0.732400       0.089612
     16 O                    -0.446943       0.201702
     17 C                     0.433149       0.052682
     18 H                     0.154742      -0.000337
     19 H                     0.166828      -0.000050
     20 H                     0.166520      -0.000052
     21 H                     0.142538      -0.004198
     22 H                     0.214848      -0.002978
     23 H                     0.166760      -0.001856
     24 H                     0.175473      -0.001651
     25 H                     0.200427      -0.002538
     26 H                     0.201797      -0.003487
     27 H                     0.180070      -0.000926
  --------------------------------------------------------
  Sum of atomic charges =    -1.000000
  Sum of spin   charges =     1.000000

 -----------------------------------------------------------------
                    Cartesian Multipole Moments
 -----------------------------------------------------------------
    Charge (ESU x 10^10)
                -4.8032
    Dipole Moment (Debye)
         X       1.3385      Y      -1.7011      Z      -0.0010
       Tot       2.1646
    Quadrupole Moments (Debye-Ang)
        XX     -95.7245     XY       5.4961     YY    -134.5661
        XZ      -0.0005     YZ      -0.0036     ZZ    -106.3140
    Octopole Moments (Debye-Ang^2)
       XXX      -4.4921    XXY      -3.7637    XYY      12.4013
       YYY     -24.3210    XXZ      -0.0282    XYZ      -0.0024
       YYZ      -0.0050    XZZ       2.6168    YZZ      -3.4949
       ZZZ      -0.0028
    Hexadecapole Moments (Debye-Ang^3)
      XXXX   -3301.6472   XXXY      18.0596   XXYY    -830.8033
      XYYY      77.1605   YYYY   -1965.6457   XXXZ      -0.0102
      XXYZ       0.0056   XYYZ      -0.0142   YYYZ      -0.0210
      XXZZ    -696.9457   XYZZ     -13.8678   YYZZ    -308.8461
      XZZZ       0.0045   YZZZ       0.0040   ZZZZ    -133.3879
 -----------------------------------------------------------------
 Total job time:  91.77s(wall), 576.88s(cpu) 
 Thu Feb 22 04:34:29 2024

        *************************************************************
        *                                                           *
        *  Thank you very much for using Q-Chem.  Have a nice day.  *
        *                                                           *
        *************************************************************


