
Running Job 1 of 1 072-rad-CPCM.in
qchem 072-rad-CPCM.in_4155087.0 /expanse/lustre/scratch/selhajj/temp_project/qcscratch/31246352/qchem4155087/ 0
/cm/shared/apps/spack/cpu/opt/spack/linux-centos8-zen2/gcc-10.2.0/qchem-5.4-akfmr7b3t57bfs6qan3padb2wnb2i7cl/exe/qcprog.exe_s 072-rad-CPCM.in_4155087.0 /expanse/lustre/scratch/selhajj/temp_project/qcscratch/31246352/qchem4155087/
                  Welcome to Q-Chem
     A Quantum Leap Into The Future Of Chemistry


 Q-Chem 5.4, Q-Chem, Inc., Pleasanton, CA (2021)

 License issued to: University of California, San Diego (site)

 E. Epifanovsky,  A. T. B. Gilbert,  Xintian Feng,  Joonho Lee,  Yuezhi Mao,  
 N. Mardirossian,  P. Pokhilko,  A. White,  M. Wormit,  M. P. Coons,  
 A. L. Dempwolff,  Zhengting Gan,  D. Hait,  P. R. Horn,  L. D. Jacobson,  
 I. Kaliman,  J. Kussmann,  A. W. Lange,  Ka Un Lao,  D. S. Levine,  Jie Liu,  
 S. C. McKenzie,  A. F. Morrison,  K. Nanda,  F. Plasser,  D. R. Rehn,  
 M. L. Vidal,  Zhi-Qiang You,  Ying Zhu,  B. Alam,  B. Albrecht,  
 A. Aldossary,  E. Alguire,  J. H. Andersen,  D. Barton,  K. Begam,  A. Behn,  
 Y. A. Bernard,  E. J. Berquist,  H. Burton,  A. Carreras,  K. Carter-Fenk,  
 R. Chakraborty,  A. D. Chien,  K. D. Closser,  V. Cofer-Shabica,  
 S. Dasgupta,  Jia Deng,  M. de Wergifosse,  M. Diedenhofen,  Hainam Do,  
 S. Ehlert,  Po-Tung Fang,  S. Fatehi,  Qingguo Feng,  J. Gayvert,  
 Qinghui Ge,  G. Gidofalvi,  M. Goldey,  J. Gomes,  C. Gonzalez-Espinoza,  
 S. Gulania,  A. Gunina,  M. W. D. Hanson-Heine,  P. H. P. Harbach,  
 A. W. Hauser,  M. F. Herbst,  M. Hernandez Vera,  M. Hodecker,  
 Z. C. Holden,  S. Houck,  Xunkun Huang,  Kerwin Hui,  B. C. Huynh,  
 M. Ivanov,  Hyunjun Ji,  Hanjie Jiang,  B. Kaduk,  S. Kaehler,  
 K. Khistyaev,  Jaehoon Kim,  P. Klunzinger,  Z. Koczor-Benda,  
 Joong Hoon Koh,  D. Kosenkov,  L. Koulias,  T. Kowalczyk,  C. M. Krauter,  
 K. Kue,  A. Kunitsa,  T. Kus,  A. Landau,  K. V. Lawler,  D. Lefrancois,  
 S. Lehtola,  Rain Li,  Yi-Pei Li,  Jiashu Liang,  M. Liebenthal,  
 Hung-Hsuan Lin,  You-Sheng Lin,  Fenglai Liu,  Kuan-Yu Liu,  
 M. Loipersberger,  A. Luenser,  A. Manjanath,  P. Manohar,  E. Mansoor,  
 S. F. Manzer,  Shan-Ping Mao,  A. V. Marenich,  T. Markovich,  S. Mason,  
 S. A. Maurer,  P. F. McLaughlin,  M. F. S. J. Menger,  J.-M. Mewes,  
 S. A. Mewes,  P. Morgante,  J. W. Mullinax,  T. S. Nguyen-Beck,  
 K. J. Oosterbaan,  G. Paran,  Alexander C. Paul,  Suranjan K. Paul,  
 F. Pavosevic,  Zheng Pei,  S. Prager,  E. I. Proynov,  E. Ramos,  B. Rana,  
 A. E. Rask,  A. Rettig,  R. M. Richard,  F. Rob,  E. Rossomme,  T. Scheele,  
 M. Scheurer,  M. Schneider,  N. Sergueev,  S. M. Sharada,  W. Skomorowski,  
 D. W. Small,  C. J. Stein,  Yu-Chuan Su,  E. J. Sundstrom,  Zhen Tao,  
 J. Thirman,  T. Tsuchimochi,  N. M. Tubman,  S. P. Veccham,  O. Vydrov,  
 J. Wenzel,  J. Witte,  A. Yamada,  Kun Yao,  S. Yeganeh,  S. R. Yost,  
 A. Zech,  Igor Ying Zhang,  Xing Zhang,  Yu Zhang,  D. Zuev,  
 A. Aspuru-Guzik,  A. T. Bell,  N. A. Besley,  K. B. Bravaya,  B. R. Brooks,  
 D. Casanova,  Jeng-Da Chai,  S. Coriani,  C. J. Cramer,  
 A. E. DePrince, III,  R. A. DiStasio Jr.,  A. Dreuw,  B. D. Dunietz,  
 T. R. Furlani,  W. A. Goddard III,  S. Grimme,  S. Hammes-Schiffer,  
 T. Head-Gordon,  W. J. Hehre,  Chao-Ping Hsu,  T.-C. Jagau,  Yousung Jung,  
 A. Klamt,  Jing Kong,  D. S. Lambrecht,  WanZhen Liang,  N. J. Mayhall,  
 C. W. McCurdy,  J. B. Neaton,  C. Ochsenfeld,  J. A. Parkhill,  R. Peverati,  
 V. A. Rassolov,  Yihan Shao,  L. V. Slipchenko,  T. Stauch,  R. P. Steele,  
 J. E. Subotnik,  A. J. W. Thom,  A. Tkatchenko,  D. G. Truhlar,  
 T. Van Voorhis,  T. A. Wesolowski,  K. B. Whaley,  H. L. Woodcock III,  
 P. M. Zimmerman,  S. Faraji,  P. M. W. Gill,  M. Head-Gordon,  
 J. M. Herbert,  A. I. Krylov

 Contributors to earlier versions of Q-Chem not listed above: 
 R. D. Adamson,  B. Austin,  R. Baer,  J. Baker,  G. J. O. Beran,  
 K. Brandhorst,  S. T. Brown,  E. F. C. Byrd,  A. K. Chakraborty,  
 G. K. L. Chan,  Chun-Min Chang,  Yunqing Chen,  C.-L. Cheng,  
 Siu Hung Chien,  D. M. Chipman,  D. L. Crittenden,  H. Dachsel,  
 R. J. Doerksen,  A. D. Dutoi,  R. G. Edgar,  J. Fosso-Tande,  
 L. Fusti-Molnar,  D. Ghosh,  A. Ghysels,  A. Golubeva-Zadorozhnaya,  
 J. Gonthier,  M. S. Gordon,  S. R. Gwaltney,  G. Hawkins,  J. E. Herr,  
 A. Heyden,  S. Hirata,  E. G. Hohenstein,  G. Kedziora,  F. J. Keil,  
 C. Kelley,  Jihan Kim,  R. A. King,  R. Z. Khaliullin,  P. P. Korambath,  
 W. Kurlancheek,  A. Laurent,  A. M. Lee,  M. S. Lee,  S. V. Levchenko,  
 Ching Yeh Lin,  D. Liotard,  E. Livshits,  R. C. Lochan,  I. Lotan,  
 L. A. Martinez-Martinez,  P. E. Maslen,  N. Nair,  D. P. O'Neill,  
 D. Neuhauser,  E. Neuscamman,  C. M. Oana,  R. Olivares-Amaya,  R. Olson,  
 T. M. Perrine,  B. Peters,  P. A. Pieniazek,  A. Prociuk,  Y. M. Rhee,  
 J. Ritchie,  M. A. Rohrdanz,  E. Rosta,  N. J. Russ,  H. F. Schaefer III,  
 M. W. Schmidt,  N. E. Schultz,  S. Sharma,  N. Shenvi,  C. D. Sherrill,  
 A. C. Simmonett,  A. Sodt,  T. Stein,  D. Stuck,  K. S. Thanthiriwatte,  
 V. Vanovschi,  L. Vogt,  Tao Wang,  A. Warshel,  M. A. Watson,  
 C. F. Williams,  Q. Wu,  X. Xu,  Jun Yang,  W. Zhang,  Yan Zhao

 Please cite Q-Chem as follows:
 Y. Shao et al., Mol. Phys. 113, 184-215 (2015)
 DOI: 10.1080/00268976.2014.952696

 Q-Chem 5.4.0 for Intel X86 EM64T Linux

 Parts of Q-Chem use Armadillo 9.800.1 (Horizon Scraper).
 http://arma.sourceforge.net/

 Q-Chem begins on Tue Jun 11 17:42:42 2024  

 Host: 
0

     Scratch files written to /expanse/lustre/scratch/selhajj/temp_project/qcscratch/31246352/qchem4155087//
 May1621 |scratch|qcdevops|jenkins|workspace|build_RNUM    
 Processing $rem in /cm/shared/apps/spack/cpu/opt/spack/linux-centos8-zen2/gcc-10.2.0/qchem-5.4-akfmr7b3t57bfs6qan3padb2wnb2i7cl/config/preferences:
 Processing $rem in /home/selhajj/.qchemrc:
 Symmetry turned off for PCM/SM12/SMD calculation

 Checking the input file for inconsistencies... 	...done.

--------------------------------------------------------------
User input:
--------------------------------------------------------------
$molecule
-1 2
C                  0.7272750000      1.1554440000     -1.5000130000
C                 -0.6748540000      0.9011160000     -1.7756280000
C                 -1.4724310000      0.1767610000     -0.9330790000
C                 -0.9997780000     -0.3938880000      0.3222070000
C                  0.4060460000     -0.1524890000      0.5903700000
C                  1.2070120000      0.5601150000     -0.2589520000
O                  1.4355300000      1.8481060000     -2.2657370000
O                 -1.7270150000     -1.0206110000      1.1260020000
S                  2.9488190000      0.7257370000      0.1910910000
C                  3.2368070000      2.5058600000      0.3860650000
C                  3.5720730000      3.2785850000     -0.7232170000
C                  3.1507930000      3.0583940000      1.6620700000
C                  3.3998930000      4.4193980000      1.8290030000
C                  3.8222420000      4.6375400000     -0.5424160000
C                  3.7357970000      5.2073050000      0.7280330000
O                  3.8050980000      0.2486640000     -0.9014650000
O                  3.1076650000      0.1391480000      1.5357660000
H                  3.6083430000      2.8175030000     -1.7002450000
H                  2.9057020000      2.4216430000      2.5028830000
H                  4.0802790000      5.2521150000     -1.3978340000
H                  3.3370410000      4.8609150000      2.8176480000
H                  3.9286590000      6.2668590000      0.8601650000
S                 -3.1828620000     -0.0978800000     -1.4458820000
C                 -4.2082470000      0.6782360000     -0.1667660000
C                 -4.6584090000      1.9803870000     -0.3734080000
C                 -4.5573670000     -0.0428190000      0.9726470000
C                 -5.3741450000      0.5633450000      1.9252580000
C                 -5.4718150000      2.5765290000      0.5884920000
C                 -5.8294110000      1.8683240000      1.7358020000
H                 -1.0768190000      1.3170370000     -2.6915980000
H                  0.8066530000     -0.5636650000      1.5090700000
H                 -4.3813600000      2.5022410000     -1.2808300000
H                 -4.1712750000     -1.0435140000      1.1068820000
H                 -5.6504220000      0.0151960000      2.8192550000
H                 -5.8293100000      3.5894360000      0.4384070000
H                 -6.4621620000      2.3346600000      2.4837770000
O                 -3.4873530000     -1.5337340000     -1.4563590000
O                 -3.3998820000      0.6905740000     -2.6741540000
$end
$rem
MAX_SCF_CYCLES=200
BASIS  =  6-311++G(d,p)
GUI  =  2
JOB_TYPE  =  SP
METHOD  =  B3LYP
SOLVENT_METHOD = PCM
$end
$pcm
theory = CPCM
$end
$solvent
dielectric 37.219
opticaldielectric 1.43
$end





--------------------------------------------------------------
 ----------------------------------------------------------------
             Standard Nuclear Orientation (Angstroms)
    I     Atom           X                Y                Z
 ----------------------------------------------------------------
    1      C       0.7272750000     1.1554440000    -1.5000130000
    2      C      -0.6748540000     0.9011160000    -1.7756280000
    3      C      -1.4724310000     0.1767610000    -0.9330790000
    4      C      -0.9997780000    -0.3938880000     0.3222070000
    5      C       0.4060460000    -0.1524890000     0.5903700000
    6      C       1.2070120000     0.5601150000    -0.2589520000
    7      O       1.4355300000     1.8481060000    -2.2657370000
    8      O      -1.7270150000    -1.0206110000     1.1260020000
    9      S       2.9488190000     0.7257370000     0.1910910000
   10      C       3.2368070000     2.5058600000     0.3860650000
   11      C       3.5720730000     3.2785850000    -0.7232170000
   12      C       3.1507930000     3.0583940000     1.6620700000
   13      C       3.3998930000     4.4193980000     1.8290030000
   14      C       3.8222420000     4.6375400000    -0.5424160000
   15      C       3.7357970000     5.2073050000     0.7280330000
   16      O       3.8050980000     0.2486640000    -0.9014650000
   17      O       3.1076650000     0.1391480000     1.5357660000
   18      H       3.6083430000     2.8175030000    -1.7002450000
   19      H       2.9057020000     2.4216430000     2.5028830000
   20      H       4.0802790000     5.2521150000    -1.3978340000
   21      H       3.3370410000     4.8609150000     2.8176480000
   22      H       3.9286590000     6.2668590000     0.8601650000
   23      S      -3.1828620000    -0.0978800000    -1.4458820000
   24      C      -4.2082470000     0.6782360000    -0.1667660000
   25      C      -4.6584090000     1.9803870000    -0.3734080000
   26      C      -4.5573670000    -0.0428190000     0.9726470000
   27      C      -5.3741450000     0.5633450000     1.9252580000
   28      C      -5.4718150000     2.5765290000     0.5884920000
   29      C      -5.8294110000     1.8683240000     1.7358020000
   30      H      -1.0768190000     1.3170370000    -2.6915980000
   31      H       0.8066530000    -0.5636650000     1.5090700000
   32      H      -4.3813600000     2.5022410000    -1.2808300000
   33      H      -4.1712750000    -1.0435140000     1.1068820000
   34      H      -5.6504220000     0.0151960000     2.8192550000
   35      H      -5.8293100000     3.5894360000     0.4384070000
   36      H      -6.4621620000     2.3346600000     2.4837770000
   37      O      -3.4873530000    -1.5337340000    -1.4563590000
   38      O      -3.3998820000     0.6905740000    -2.6741540000
 ----------------------------------------------------------------
 Nuclear Repulsion Energy =        2604.39242647 hartrees
 There are      101 alpha and      100 beta electrons
 Requested basis set is 6-311++G(d,p)
 There are 230 shells and 672 basis functions

 Total QAlloc Memory Limit   8000 MB
 Mega-Array Size       188 MB
 MEM_STATIC part       192 MB
 Discretize the solute cavity surface with Lebedev spheres
	Using 110 Lebedev grid points for each H atom
	Using 194 Lebedev grid points for other atoms
	Atomic van der Waals radii will be scaled by 1.20
 Remove points where switching function is < 1.0e-08
 Keep 2628 surface tesserae and discard 3736 interior tesserae
 Molecular Surface Area = 379.213 Angst**2
 A cutoff of  1.0D-08 yielded  15298 shell pairs
 There are    135852 function pairs (    144731 Cartesian)
 Smallest overlap matrix eigenvalue = 3.48E-07

 Q-Chem warning in module stvman/mkSTV.C, line 323:

 Overlap eigenvalue is smaller than square root of threshold
 Use THRESH >= 12 to get rid of this warning

 Linear dependence detected in AO basis
 Tighter screening thresholds may be required for diffuse basis sets
 Use S2THRESH > 14 and THRESH = 14 in case of SCF convergence issues
 Number of orthogonalized atomic orbitals = 668
 Maximum deviation from orthogonality = 9.223E-11

 Scale SEOQF with 1.000000e-02/1.000000e-02/1.000000e-01

 Standard Electronic Orientation quadrupole field applied
 Nucleus-field energy     =    -0.0000000248 hartrees
 Guess from superposition of atomic densities
 Warning:  Energy on first SCF cycle will be non-variational
 SAD guess density has 200.000000 electrons

 -----------------------------------------------------------------------
  General SCF calculation program by
  Eric Jon Sundstrom, Paul Horn, Yuezhi Mao, Dmitri Zuev, Alec White,
  David Stuck, Shaama M.S., Shane Yost, Joonho Lee, David Small,
  Daniel Levine, Susi Lehtola, Hugh Burton, Evgeny Epifanovsky,
  Bang C. Huynh
 -----------------------------------------------------------------------
 Exchange:     0.2000 Hartree-Fock + 0.0800 Slater + 0.7200 B88
 Correlation:  0.1900 VWN1RPA + 0.8100 LYP
 Using SG-1 standard quadrature grid
 using 8 threads for integral computing
 -------------------------------------------------------
 OpenMP Integral computing Module                
 Release: version 1.0, May 2013, Q-Chem Inc. Pittsburgh 
 -------------------------------------------------------
 A unrestricted SCF calculation will be
 performed using DIIS
 SCF converges when DIIS error is below 1.0e-05
 ---------------------------------------
  Cycle       Energy         DIIS error
 ---------------------------------------
    1   -1947.6640223110      1.32e-02  
    2   -1940.5078214599      2.03e-03  
    3   -1939.0446507726      3.65e-03  
    4   -1941.1792462866      5.44e-04  
    5   -1941.2406773523      1.83e-04  
    6   -1941.2464933700      7.03e-05  
    7   -1941.2472423194      2.90e-05  
    8   -1941.2473860595      6.65e-06  Convergence criterion met
 ---------------------------------------
 SCF time:   CPU 918.59s  wall 126.00s 
<S^2> =          0.760267272

************** Final PCM Free Energy Summary **************
 G_electrostatic  =      -0.09654205 hartree =     -60.58104943 kcal/mol
 G_cavitation     =       0.00000000 hartree =       0.00000000 kcal/mol
 G_dispersion     =       0.00000000 hartree =       0.00000000 kcal/mol
 G_repulsion      =       0.00000000 hartree =       0.00000000 kcal/mol
 --------------------------------------------------
 Non-electrostatic Free Energy =       0.00000000 hartree =       0.00000000 kcal/mol
 Total                         =      -0.09654205 hartree =     -60.58104943 kcal/mol
 --------------------------------------------------
 SCF Energy (H0 + V/2)                       =   -1941.24738606 
 Solute Internal Energy (H0)                 =   -1941.15084401 
 Total Free Energy (H0 + V/2 + non-elec)     =   -1941.24738606 hartree
                                             = -1218151.12030633 kcal/mol
***********************************************************

 SCF   energy in the final basis set =    -1941.2473860595
 Total energy in the final basis set =    -1941.2473860595
 
 --------------------------------------------------------------
 
                    Orbital Energies (a.u.)
 --------------------------------------------------------------
 
 Alpha MOs
 -- Occupied --
-89.0604 -89.0603 -19.1280 -19.1279 -19.1256 -19.1256 -19.1047 -19.1046
-10.2574 -10.2574 -10.2197 -10.2197 -10.2152 -10.2151 -10.2012 -10.2011
-10.1950 -10.1950 -10.1927 -10.1926 -10.1897 -10.1897 -10.1878 -10.1878
-10.1871 -10.1871  -8.1242  -8.1242  -6.0871  -6.0871  -6.0859  -6.0859
 -6.0852  -6.0851  -1.1202  -1.1201  -1.0338  -1.0316  -1.0163  -1.0161
 -0.8787  -0.8786  -0.8644  -0.8081  -0.7831  -0.7757  -0.7646  -0.7646
 -0.7259  -0.7116  -0.6695  -0.6328  -0.6239  -0.6236  -0.6215  -0.6005
 -0.5758  -0.5492  -0.5408  -0.5168  -0.5132  -0.5117  -0.4891  -0.4868
 -0.4808  -0.4775  -0.4633  -0.4591  -0.4569  -0.4566  -0.4545  -0.4409
 -0.4408  -0.4391  -0.4345  -0.4311  -0.4074  -0.4014  -0.3882  -0.3878
 -0.3822  -0.3815  -0.3610  -0.3609  -0.3532  -0.3519  -0.3388  -0.3382
 -0.3251  -0.3234  -0.3141  -0.3133  -0.3095  -0.3001  -0.2798  -0.2763
 -0.2733  -0.2723  -0.2663  -0.2592  -0.1931
 -- Virtual --
 -0.0702  -0.0436  -0.0311  -0.0266  -0.0265  -0.0079  -0.0049   0.0011
  0.0107   0.0133   0.0187   0.0197   0.0253   0.0291   0.0345   0.0362
  0.0386   0.0389   0.0415   0.0540   0.0557   0.0559   0.0585   0.0600
  0.0657   0.0668   0.0696   0.0699   0.0715   0.0758   0.0842   0.0874
  0.0878   0.0885   0.0896   0.0947   0.1007   0.1022   0.1037   0.1088
  0.1095   0.1155   0.1159   0.1171   0.1214   0.1219   0.1237   0.1238
  0.1278   0.1283   0.1308   0.1311   0.1339   0.1344   0.1405   0.1441
  0.1453   0.1455   0.1496   0.1525   0.1538   0.1556   0.1565   0.1614
  0.1660   0.1663   0.1678   0.1701   0.1764   0.1768   0.1793   0.1839
  0.1862   0.1866   0.1892   0.1984   0.1994   0.2009   0.2030   0.2073
  0.2101   0.2113   0.2140   0.2186   0.2200   0.2280   0.2295   0.2298
  0.2314   0.2339   0.2345   0.2407   0.2437   0.2443   0.2490   0.2544
  0.2557   0.2577   0.2600   0.2610   0.2675   0.2698   0.2719   0.2759
  0.2761   0.2792   0.2802   0.2832   0.2889   0.2907   0.2945   0.2962
  0.2991   0.2998   0.3036   0.3086   0.3087   0.3124   0.3225   0.3254
  0.3265   0.3303   0.3346   0.3414   0.3431   0.3453   0.3484   0.3493
  0.3551   0.3566   0.3580   0.3595   0.3621   0.3650   0.3675   0.3736
  0.3751   0.3787   0.3789   0.3822   0.3895   0.3996   0.4025   0.4027
  0.4106   0.4150   0.4218   0.4271   0.4290   0.4335   0.4410   0.4493
  0.4507   0.4627   0.4691   0.4790   0.4801   0.4834   0.4864   0.4960
  0.4967   0.5088   0.5129   0.5200   0.5207   0.5379   0.5420   0.5469
  0.5511   0.5527   0.5528   0.5538   0.5585   0.5646   0.5692   0.5716
  0.5720   0.5769   0.5780   0.5854   0.5880   0.5938   0.5998   0.6050
  0.6211   0.6251   0.6254   0.6396   0.6540   0.6576   0.6708   0.6722
  0.6772   0.6809   0.6835   0.6943   0.6990   0.7121   0.7125   0.7151
  0.7238   0.7253   0.7276   0.7298   0.7319   0.7421   0.7478   0.7504
  0.7531   0.7537   0.7644   0.7663   0.7839   0.8049   0.8118   0.8123
  0.8175   0.8286   0.8297   0.8479   0.8487   0.8537   0.8603   0.8605
  0.8658   0.8684   0.8726   0.8755   0.8782   0.8851   0.8861   0.8874
  0.8951   0.9031   0.9093   0.9151   0.9257   0.9300   0.9332   0.9425
  0.9427   0.9545   0.9633   0.9655   0.9715   0.9874   0.9941   1.0042
  1.0119   1.0152   1.0196   1.0277   1.0277   1.0393   1.0419   1.0501
  1.0595   1.0629   1.0650   1.0712   1.0818   1.0903   1.1050   1.1102
  1.1193   1.1273   1.1283   1.1382   1.1419   1.1560   1.1598   1.1637
  1.1674   1.1809   1.1934   1.1979   1.2036   1.2072   1.2138   1.2223
  1.2324   1.2376   1.2426   1.2486   1.2559   1.2652   1.2660   1.2810
  1.2853   1.2923   1.2976   1.2997   1.3021   1.3121   1.3221   1.3473
  1.3621   1.3837   1.3891   1.4135   1.4238   1.4878   1.5004   1.5098
  1.5183   1.5207   1.5235   1.5309   1.5335   1.5472   1.5487   1.5631
  1.5654   1.5695   1.5699   1.5761   1.5806   1.5857   1.6294   1.6335
  1.6375   1.6416   1.6431   1.6507   1.6539   1.6737   1.6888   1.6907
  1.7033   1.7056   1.7128   1.7322   1.7417   1.7423   1.7479   1.7564
  1.7703   1.7777   1.7864   1.7931   1.7962   1.8122   1.8206   1.8288
  1.8336   1.8478   1.8517   1.8610   1.8808   1.8857   1.9064   1.9150
  1.9155   1.9231   1.9279   1.9421   1.9464   1.9483   1.9488   1.9562
  1.9593   1.9646   1.9778   1.9789   1.9970   2.0094   2.0095   2.0134
  2.0306   2.0377   2.0422   2.0593   2.0633   2.0653   2.0788   2.0887
  2.0947   2.1011   2.1140   2.1227   2.1478   2.1634   2.1830   2.1917
  2.2336   2.2439   2.2696   2.2952   2.3047   2.3292   2.3302   2.3574
  2.3600   2.4057   2.4265   2.4271   2.4557   2.4568   2.4688   2.4703
  2.4772   2.5192   2.5206   2.5514   2.6108   2.6249   2.6252   2.6354
  2.6549   2.6674   2.6794   2.6898   2.7020   2.7047   2.7202   2.7260
  2.7270   2.7296   2.7328   2.7370   2.7470   2.7551   2.7594   2.7610
  2.7667   2.7868   2.7912   2.8000   2.8049   2.8067   2.8139   2.8223
  2.8253   2.8293   2.8334   2.8359   2.8389   2.8460   2.8500   2.8630
  2.8651   2.8693   2.8783   2.8806   2.8900   2.9007   2.9066   2.9154
  2.9211   2.9238   2.9274   2.9465   2.9516   2.9531   2.9710   2.9715
  2.9738   2.9970   3.0096   3.0296   3.0413   3.0559   3.0758   3.0788
  3.0993   3.1083   3.1302   3.1617   3.1859   3.1901   3.1941   3.2183
  3.2453   3.2644   3.2700   3.3169   3.3372   3.3529   3.3585   3.3734
  3.3757   3.3966   3.4544   3.4907   3.4923   3.5002   3.5004   3.5312
  3.5344   3.5410   3.5636   3.5964   3.6020   3.6032   3.6409   3.6412
  3.7219   3.7953   3.7984   3.8011   3.8762   3.9996   3.9999   4.0409
  4.0415   4.1350   4.1423   4.1485   4.1587   4.1647   4.1656   4.2399
  4.7598   4.8347   4.8351   5.0738   5.0783   5.0840   5.0889   5.0947
  5.1146   5.1184   5.1238   5.1391   5.1508   5.1715   5.1736   5.2735
  5.2960   5.3229   5.3277   5.7387   5.8325   8.2035   8.2197  17.4083
 17.4212  17.4504  17.4659  17.5743  17.6032  23.5648  23.5922  23.6039
 23.7992  23.8958  23.9357  23.9462  23.9510  23.9678  23.9705  24.0669
 24.0671  24.0882  24.0885  24.0946  24.1437  24.1833  24.1834  49.8996
 49.8999  49.9385  49.9399  50.0196  50.0511 189.3256 189.3420
 
 Beta MOs
 -- Occupied --
-89.0604 -89.0604 -19.1279 -19.1279 -19.1256 -19.1256 -19.0979 -19.0978
-10.2564 -10.2564 -10.2190 -10.2190 -10.2152 -10.2151 -10.1992 -10.1992
-10.1950 -10.1950 -10.1927 -10.1926 -10.1897 -10.1897 -10.1878 -10.1878
-10.1871 -10.1871  -8.1242  -8.1242  -6.0871  -6.0871  -6.0860  -6.0859
 -6.0852  -6.0851  -1.1201  -1.1200  -1.0223  -1.0203  -1.0160  -1.0153
 -0.8786  -0.8786  -0.8584  -0.8060  -0.7829  -0.7749  -0.7646  -0.7645
 -0.7169  -0.7100  -0.6674  -0.6314  -0.6239  -0.6235  -0.6174  -0.5999
 -0.5746  -0.5487  -0.5396  -0.5152  -0.5109  -0.5104  -0.4887  -0.4866
 -0.4807  -0.4773  -0.4607  -0.4587  -0.4567  -0.4562  -0.4540  -0.4395
 -0.4394  -0.4330  -0.4259  -0.4212  -0.3983  -0.3928  -0.3874  -0.3823
 -0.3809  -0.3749  -0.3609  -0.3607  -0.3527  -0.3509  -0.3382  -0.3375
 -0.3237  -0.3218  -0.3127  -0.3091  -0.2946  -0.2852  -0.2777  -0.2739
 -0.2712  -0.2704  -0.2620  -0.2543
 -- Virtual --
 -0.1217  -0.0606  -0.0426  -0.0265  -0.0263  -0.0248  -0.0048   0.0011
  0.0081   0.0108   0.0165   0.0193   0.0199   0.0263   0.0293   0.0361
  0.0370   0.0389   0.0391   0.0417   0.0550   0.0565   0.0567   0.0588
  0.0604   0.0661   0.0671   0.0702   0.0717   0.0721   0.0761   0.0848
  0.0879   0.0880   0.0890   0.0899   0.0956   0.1013   0.1031   0.1043
  0.1094   0.1103   0.1158   0.1161   0.1174   0.1225   0.1227   0.1238
  0.1240   0.1285   0.1287   0.1312   0.1314   0.1341   0.1347   0.1415
  0.1443   0.1458   0.1463   0.1502   0.1528   0.1540   0.1558   0.1567
  0.1615   0.1666   0.1667   0.1685   0.1743   0.1767   0.1770   0.1797
  0.1858   0.1863   0.1873   0.1900   0.1985   0.1999   0.2015   0.2031
  0.2078   0.2103   0.2119   0.2146   0.2192   0.2202   0.2284   0.2299
  0.2301   0.2325   0.2350   0.2352   0.2409   0.2441   0.2451   0.2490
  0.2549   0.2561   0.2581   0.2604   0.2615   0.2680   0.2706   0.2723
  0.2762   0.2768   0.2798   0.2807   0.2838   0.2894   0.2915   0.2950
  0.2963   0.2996   0.3005   0.3042   0.3088   0.3091   0.3132   0.3245
  0.3257   0.3272   0.3308   0.3359   0.3419   0.3435   0.3457   0.3491
  0.3504   0.3555   0.3571   0.3589   0.3602   0.3626   0.3658   0.3680
  0.3742   0.3766   0.3792   0.3793   0.3833   0.3925   0.4001   0.4034
  0.4041   0.4118   0.4158   0.4226   0.4275   0.4292   0.4342   0.4415
  0.4502   0.4519   0.4634   0.4697   0.4794   0.4806   0.4838   0.4867
  0.4967   0.4971   0.5092   0.5132   0.5209   0.5216   0.5381   0.5421
  0.5474   0.5512   0.5532   0.5536   0.5541   0.5587   0.5659   0.5698
  0.5722   0.5727   0.5783   0.5784   0.5865   0.5892   0.5950   0.6032
  0.6058   0.6219   0.6255   0.6274   0.6425   0.6562   0.6600   0.6718
  0.6726   0.6792   0.6813   0.6847   0.6955   0.7002   0.7128   0.7129
  0.7164   0.7245   0.7257   0.7282   0.7313   0.7328   0.7427   0.7486
  0.7507   0.7536   0.7543   0.7652   0.7675   0.7856   0.8055   0.8124
  0.8129   0.8181   0.8291   0.8303   0.8483   0.8490   0.8542   0.8609
  0.8616   0.8660   0.8690   0.8743   0.8758   0.8803   0.8855   0.8867
  0.8880   0.8960   0.9042   0.9098   0.9155   0.9259   0.9308   0.9339
  0.9434   0.9446   0.9556   0.9638   0.9665   0.9721   0.9884   0.9946
  1.0060   1.0122   1.0161   1.0214   1.0282   1.0294   1.0403   1.0436
  1.0508   1.0601   1.0640   1.0673   1.0723   1.0821   1.0930   1.1062
  1.1117   1.1251   1.1280   1.1287   1.1411   1.1450   1.1573   1.1617
  1.1699   1.1707   1.1825   1.1949   1.1987   1.2051   1.2085   1.2162
  1.2240   1.2331   1.2380   1.2473   1.2532   1.2590   1.2666   1.2673
  1.2855   1.2859   1.2941   1.2996   1.3022   1.3031   1.3132   1.3251
  1.3494   1.3639   1.3851   1.3898   1.4149   1.4257   1.4902   1.5014
  1.5103   1.5184   1.5209   1.5236   1.5323   1.5341   1.5486   1.5493
  1.5633   1.5654   1.5701   1.5707   1.5766   1.5818   1.5886   1.6303
  1.6339   1.6380   1.6420   1.6438   1.6515   1.6545   1.6756   1.6913
  1.6918   1.7041   1.7067   1.7157   1.7334   1.7422   1.7424   1.7502
  1.7574   1.7709   1.7786   1.7867   1.7944   1.7984   1.8135   1.8238
  1.8310   1.8386   1.8509   1.8524   1.8639   1.8812   1.8867   1.9118
  1.9153   1.9159   1.9233   1.9284   1.9423   1.9468   1.9492   1.9508
  1.9568   1.9609   1.9648   1.9792   1.9794   1.9981   2.0101   2.0108
  2.0144   2.0316   2.0384   2.0428   2.0601   2.0654   2.0663   2.0791
  2.0893   2.0954   2.1020   2.1160   2.1236   2.1498   2.1666   2.1844
  2.1927   2.2403   2.2463   2.2732   2.2954   2.3050   2.3293   2.3302
  2.3576   2.3609   2.4067   2.4266   2.4272   2.4557   2.4569   2.4689
  2.4706   2.4786   2.5197   2.5206   2.5548   2.6121   2.6251   2.6262
  2.6403   2.6551   2.6690   2.6802   2.6898   2.7021   2.7048   2.7214
  2.7261   2.7287   2.7299   2.7344   2.7384   2.7482   2.7552   2.7599
  2.7633   2.7709   2.7878   2.7965   2.8006   2.8053   2.8094   2.8142
  2.8228   2.8257   2.8295   2.8337   2.8370   2.8395   2.8465   2.8516
  2.8651   2.8683   2.8749   2.8796   2.8812   2.8937   2.9013   2.9110
  2.9170   2.9219   2.9272   2.9314   2.9479   2.9532   2.9608   2.9802
  2.9820   2.9861   2.9976   3.0103   3.0322   3.0435   3.0596   3.0793
  3.0820   3.0998   3.1090   3.1328   3.1634   3.1863   3.1909   3.1944
  3.2228   3.2466   3.2663   3.2706   3.3310   3.3449   3.3553   3.3676
  3.3739   3.3759   3.3976   3.4570   3.4916   3.4932   3.5006   3.5006
  3.5313   3.5345   3.5429   3.5669   3.5995   3.6033   3.6033   3.6410
  3.6413   3.7265   3.7968   3.7985   3.8034   3.8809   3.9997   4.0000
  4.0410   4.0415   4.1370   4.1447   4.1497   4.1596   4.1655   4.1669
  4.2438   4.7651   4.8347   4.8352   5.0755   5.0814   5.0931   5.1017
  5.1108   5.1148   5.1236   5.1314   5.1405   5.1509   5.1718   5.1739
  5.2778   5.2987   5.3236   5.3303   5.7443   5.8379   8.2035   8.2197
 17.4083  17.4212  17.4503  17.4659  17.5743  17.6032  23.5652  23.5922
 23.6049  23.8007  23.8971  23.9370  23.9463  23.9510  23.9678  23.9705
 24.0669  24.0671  24.0883  24.0885  24.0962  24.1453  24.1833  24.1834
 49.8996  49.8999  49.9387  49.9400  50.0262  50.0579 189.3255 189.3420
 --------------------------------------------------------------
 
          Ground-State Mulliken Net Atomic Charges

     Atom                 Charge (a.u.)    Spin (a.u.)
  --------------------------------------------------------
      1 C                    -0.478152       0.056328
      2 C                    -0.410249       0.116304
      3 C                     0.367788       0.090176
      4 C                    -0.473481       0.056363
      5 C                    -0.407535       0.116436
      6 C                     0.374648       0.089920
      7 O                    -0.369373       0.258148
      8 O                    -0.370137       0.258253
      9 S                     0.391960      -0.030334
     10 C                     0.329136       0.002876
     11 C                    -0.249489       0.019320
     12 C                     0.114510      -0.000557
     13 C                    -0.519331      -0.000722
     14 C                    -0.425619      -0.003697
     15 C                    -0.328443       0.001119
     16 O                    -0.185154       0.005196
     17 O                    -0.245189      -0.002567
     18 H                     0.284169      -0.001084
     19 H                     0.262364       0.000650
     20 H                     0.231390       0.000009
     21 H                     0.227398       0.000017
     22 H                     0.208941      -0.000094
     23 S                     0.402412      -0.030290
     24 C                     0.331370       0.002888
     25 C                     0.110045      -0.000568
     26 C                    -0.247617       0.019371
     27 C                    -0.428968      -0.003757
     28 C                    -0.517013      -0.000730
     29 C                    -0.329833       0.001129
     30 H                     0.284301      -0.011107
     31 H                     0.284176      -0.011111
     32 H                     0.262420       0.000664
     33 H                     0.284491      -0.001091
     34 H                     0.231361       0.000010
     35 H                     0.227377       0.000017
     36 H                     0.209096      -0.000094
     37 O                    -0.187240       0.005177
     38 O                    -0.246541      -0.002569
  --------------------------------------------------------
  Sum of atomic charges =    -1.000010
  Sum of spin   charges =     1.000000

 -----------------------------------------------------------------
                    Cartesian Multipole Moments
 -----------------------------------------------------------------
    Charge (ESU x 10^10)
                -4.8033
    Dipole Moment (Debye)
         X      -1.7899      Y       6.6417      Z       7.7143
       Tot      10.3357
    Quadrupole Moments (Debye-Ang)
        XX    -204.4694     XY      -8.5601     YY    -151.7152
        XZ     -16.5214     YZ      11.1678     ZZ    -186.6861
    Octopole Moments (Debye-Ang^2)
       XXX      59.1955    XXY     -71.1471    XYY     125.7139
       YYY    -467.9978    XXZ     143.7016    XYZ      15.1165
       YYZ      52.6962    XZZ      73.4018    YZZ    -194.7771
       ZZZ     122.0190
    Hexadecapole Moments (Debye-Ang^3)
      XXXX  -12110.6364   XXXY   -1359.8563   XXYY   -2257.9893
      XYYY    -669.7477   YYYY   -3758.7117   XXXZ    -744.9577
      XXYZ       8.2559   XYYZ     -30.0262   YYYZ     -60.7604
      XXZZ   -2329.5192   XYZZ    -305.1748   YYZZ   -1017.0399
      XZZZ    -275.0546   YZZZ     -47.7328   ZZZZ   -2031.0326
 -----------------------------------------------------------------
 Total job time:  128.85s(wall), 927.14s(cpu) 
 Tue Jun 11 17:44:51 2024

        *************************************************************
        *                                                           *
        *  Thank you very much for using Q-Chem.  Have a nice day.  *
        *                                                           *
        *************************************************************


