
Running Job 1 of 1 213-an-CPCM.in
qchem 213-an-CPCM.in_382001.0 /expanse/lustre/scratch/selhajj/temp_project/qcscratch/31251413/qchem382001/ 0
/cm/shared/apps/spack/cpu/opt/spack/linux-centos8-zen2/gcc-10.2.0/qchem-5.4-akfmr7b3t57bfs6qan3padb2wnb2i7cl/exe/qcprog.exe_s 213-an-CPCM.in_382001.0 /expanse/lustre/scratch/selhajj/temp_project/qcscratch/31251413/qchem382001/
                  Welcome to Q-Chem
     A Quantum Leap Into The Future Of Chemistry


 Q-Chem 5.4, Q-Chem, Inc., Pleasanton, CA (2021)

 License issued to: University of California, San Diego (site)

 E. Epifanovsky,  A. T. B. Gilbert,  Xintian Feng,  Joonho Lee,  Yuezhi Mao,  
 N. Mardirossian,  P. Pokhilko,  A. White,  M. Wormit,  M. P. Coons,  
 A. L. Dempwolff,  Zhengting Gan,  D. Hait,  P. R. Horn,  L. D. Jacobson,  
 I. Kaliman,  J. Kussmann,  A. W. Lange,  Ka Un Lao,  D. S. Levine,  Jie Liu,  
 S. C. McKenzie,  A. F. Morrison,  K. Nanda,  F. Plasser,  D. R. Rehn,  
 M. L. Vidal,  Zhi-Qiang You,  Ying Zhu,  B. Alam,  B. Albrecht,  
 A. Aldossary,  E. Alguire,  J. H. Andersen,  D. Barton,  K. Begam,  A. Behn,  
 Y. A. Bernard,  E. J. Berquist,  H. Burton,  A. Carreras,  K. Carter-Fenk,  
 R. Chakraborty,  A. D. Chien,  K. D. Closser,  V. Cofer-Shabica,  
 S. Dasgupta,  Jia Deng,  M. de Wergifosse,  M. Diedenhofen,  Hainam Do,  
 S. Ehlert,  Po-Tung Fang,  S. Fatehi,  Qingguo Feng,  J. Gayvert,  
 Qinghui Ge,  G. Gidofalvi,  M. Goldey,  J. Gomes,  C. Gonzalez-Espinoza,  
 S. Gulania,  A. Gunina,  M. W. D. Hanson-Heine,  P. H. P. Harbach,  
 A. W. Hauser,  M. F. Herbst,  M. Hernandez Vera,  M. Hodecker,  
 Z. C. Holden,  S. Houck,  Xunkun Huang,  Kerwin Hui,  B. C. Huynh,  
 M. Ivanov,  Hyunjun Ji,  Hanjie Jiang,  B. Kaduk,  S. Kaehler,  
 K. Khistyaev,  Jaehoon Kim,  P. Klunzinger,  Z. Koczor-Benda,  
 Joong Hoon Koh,  D. Kosenkov,  L. Koulias,  T. Kowalczyk,  C. M. Krauter,  
 K. Kue,  A. Kunitsa,  T. Kus,  A. Landau,  K. V. Lawler,  D. Lefrancois,  
 S. Lehtola,  Rain Li,  Yi-Pei Li,  Jiashu Liang,  M. Liebenthal,  
 Hung-Hsuan Lin,  You-Sheng Lin,  Fenglai Liu,  Kuan-Yu Liu,  
 M. Loipersberger,  A. Luenser,  A. Manjanath,  P. Manohar,  E. Mansoor,  
 S. F. Manzer,  Shan-Ping Mao,  A. V. Marenich,  T. Markovich,  S. Mason,  
 S. A. Maurer,  P. F. McLaughlin,  M. F. S. J. Menger,  J.-M. Mewes,  
 S. A. Mewes,  P. Morgante,  J. W. Mullinax,  T. S. Nguyen-Beck,  
 K. J. Oosterbaan,  G. Paran,  Alexander C. Paul,  Suranjan K. Paul,  
 F. Pavosevic,  Zheng Pei,  S. Prager,  E. I. Proynov,  E. Ramos,  B. Rana,  
 A. E. Rask,  A. Rettig,  R. M. Richard,  F. Rob,  E. Rossomme,  T. Scheele,  
 M. Scheurer,  M. Schneider,  N. Sergueev,  S. M. Sharada,  W. Skomorowski,  
 D. W. Small,  C. J. Stein,  Yu-Chuan Su,  E. J. Sundstrom,  Zhen Tao,  
 J. Thirman,  T. Tsuchimochi,  N. M. Tubman,  S. P. Veccham,  O. Vydrov,  
 J. Wenzel,  J. Witte,  A. Yamada,  Kun Yao,  S. Yeganeh,  S. R. Yost,  
 A. Zech,  Igor Ying Zhang,  Xing Zhang,  Yu Zhang,  D. Zuev,  
 A. Aspuru-Guzik,  A. T. Bell,  N. A. Besley,  K. B. Bravaya,  B. R. Brooks,  
 D. Casanova,  Jeng-Da Chai,  S. Coriani,  C. J. Cramer,  
 A. E. DePrince, III,  R. A. DiStasio Jr.,  A. Dreuw,  B. D. Dunietz,  
 T. R. Furlani,  W. A. Goddard III,  S. Grimme,  S. Hammes-Schiffer,  
 T. Head-Gordon,  W. J. Hehre,  Chao-Ping Hsu,  T.-C. Jagau,  Yousung Jung,  
 A. Klamt,  Jing Kong,  D. S. Lambrecht,  WanZhen Liang,  N. J. Mayhall,  
 C. W. McCurdy,  J. B. Neaton,  C. Ochsenfeld,  J. A. Parkhill,  R. Peverati,  
 V. A. Rassolov,  Yihan Shao,  L. V. Slipchenko,  T. Stauch,  R. P. Steele,  
 J. E. Subotnik,  A. J. W. Thom,  A. Tkatchenko,  D. G. Truhlar,  
 T. Van Voorhis,  T. A. Wesolowski,  K. B. Whaley,  H. L. Woodcock III,  
 P. M. Zimmerman,  S. Faraji,  P. M. W. Gill,  M. Head-Gordon,  
 J. M. Herbert,  A. I. Krylov

 Contributors to earlier versions of Q-Chem not listed above: 
 R. D. Adamson,  B. Austin,  R. Baer,  J. Baker,  G. J. O. Beran,  
 K. Brandhorst,  S. T. Brown,  E. F. C. Byrd,  A. K. Chakraborty,  
 G. K. L. Chan,  Chun-Min Chang,  Yunqing Chen,  C.-L. Cheng,  
 Siu Hung Chien,  D. M. Chipman,  D. L. Crittenden,  H. Dachsel,  
 R. J. Doerksen,  A. D. Dutoi,  R. G. Edgar,  J. Fosso-Tande,  
 L. Fusti-Molnar,  D. Ghosh,  A. Ghysels,  A. Golubeva-Zadorozhnaya,  
 J. Gonthier,  M. S. Gordon,  S. R. Gwaltney,  G. Hawkins,  J. E. Herr,  
 A. Heyden,  S. Hirata,  E. G. Hohenstein,  G. Kedziora,  F. J. Keil,  
 C. Kelley,  Jihan Kim,  R. A. King,  R. Z. Khaliullin,  P. P. Korambath,  
 W. Kurlancheek,  A. Laurent,  A. M. Lee,  M. S. Lee,  S. V. Levchenko,  
 Ching Yeh Lin,  D. Liotard,  E. Livshits,  R. C. Lochan,  I. Lotan,  
 L. A. Martinez-Martinez,  P. E. Maslen,  N. Nair,  D. P. O'Neill,  
 D. Neuhauser,  E. Neuscamman,  C. M. Oana,  R. Olivares-Amaya,  R. Olson,  
 T. M. Perrine,  B. Peters,  P. A. Pieniazek,  A. Prociuk,  Y. M. Rhee,  
 J. Ritchie,  M. A. Rohrdanz,  E. Rosta,  N. J. Russ,  H. F. Schaefer III,  
 M. W. Schmidt,  N. E. Schultz,  S. Sharma,  N. Shenvi,  C. D. Sherrill,  
 A. C. Simmonett,  A. Sodt,  T. Stein,  D. Stuck,  K. S. Thanthiriwatte,  
 V. Vanovschi,  L. Vogt,  Tao Wang,  A. Warshel,  M. A. Watson,  
 C. F. Williams,  Q. Wu,  X. Xu,  Jun Yang,  W. Zhang,  Yan Zhao

 Please cite Q-Chem as follows:
 Y. Shao et al., Mol. Phys. 113, 184-215 (2015)
 DOI: 10.1080/00268976.2014.952696

 Q-Chem 5.4.0 for Intel X86 EM64T Linux

 Parts of Q-Chem use Armadillo 9.800.1 (Horizon Scraper).
 http://arma.sourceforge.net/

 Q-Chem begins on Tue Jun 11 20:20:38 2024  

 Host: 
0

     Scratch files written to /expanse/lustre/scratch/selhajj/temp_project/qcscratch/31251413/qchem382001//
 May1621 |scratch|qcdevops|jenkins|workspace|build_RNUM    
 Processing $rem in /cm/shared/apps/spack/cpu/opt/spack/linux-centos8-zen2/gcc-10.2.0/qchem-5.4-akfmr7b3t57bfs6qan3padb2wnb2i7cl/config/preferences:
 Processing $rem in /home/selhajj/.qchemrc:
 Symmetry turned off for PCM/SM12/SMD calculation

 Checking the input file for inconsistencies... 	...done.

--------------------------------------------------------------
User input:
--------------------------------------------------------------
$molecule
-2 1
O                  3.3774340000      2.7276870000      1.0856770000
C                  3.0325240000      1.5449610000      0.7611040000
C                  4.0027210000      0.4863900000      0.5244950000
C                  5.3829330000      0.7704080000      0.6521740000
C                  6.3519320000     -0.1899390000      0.4375440000
C                  5.9642560000     -1.5080800000      0.0761230000
C                  4.6251940000     -1.8158260000     -0.0547420000
C                  3.6079350000     -0.8532600000      0.1604370000
C                  2.2166310000     -1.2446830000      0.0058750000
O                  1.8716330000     -2.4299380000     -0.3149110000
C                  1.2489350000     -0.1852470000      0.2408260000
C                 -0.1320620000     -0.4768290000      0.0918240000
C                 -1.1205730000      0.4685570000      0.3081940000
C                 -0.7177370000      1.7872860000      0.6849750000
C                  0.6170330000      2.0972370000      0.8181200000
C                  1.6436170000      1.1481750000      0.6022280000
N                 -2.5160230000      0.1832540000      0.2182740000
C                 -2.9365650000     -1.2062470000      0.1074020000
C                 -4.3724610000     -1.3813910000      0.6537070000
C                 -5.2325010000     -0.1211910000      0.4296150000
C                 -4.7450140000      0.6073530000     -0.8210630000
C                 -3.2946500000      1.0940200000     -0.6366780000
H                  5.6458970000      1.7867020000      0.9281710000
H                  7.4055570000      0.0596470000      0.5436480000
H                  6.7209580000     -2.2709310000     -0.0954400000
H                  4.2985540000     -2.8137650000     -0.3291470000
H                 -0.3623900000     -1.4917440000     -0.2072000000
H                 -1.4697570000      2.5428720000      0.8880450000
H                  0.9274790000      3.0957060000      1.1089010000
H                 -2.8780560000     -1.5722390000     -0.9352890000
H                 -2.2468550000     -1.8208690000      0.6842340000
H                 -4.3348720000     -1.6183080000      1.7222120000
H                 -4.8364700000     -2.2426320000      0.1548710000
H                 -6.2949960000     -0.3822920000      0.3494230000
H                 -5.1385570000      0.5487140000      1.2910560000
H                 -4.8077070000     -0.0753520000     -1.6774740000
H                 -5.3882400000      1.4588840000     -1.0683210000
H                 -3.3035280000      2.0847010000     -0.1740120000
H                 -2.8122090000      1.2082080000     -1.6249910000
$end
$rem
MAX_SCF_CYCLES=200
BASIS  =  6-311++G(d,p)
GUI  =  2
JOB_TYPE  =  SP
METHOD  =  B3LYP
SOLVENT_METHOD = PCM
$end
$pcm
theory = CPCM
$end
$solvent
dielectric 37.219
opticaldielectric 1.43
$end






--------------------------------------------------------------
 ----------------------------------------------------------------
             Standard Nuclear Orientation (Angstroms)
    I     Atom           X                Y                Z
 ----------------------------------------------------------------
    1      O       3.3774340000     2.7276870000     1.0856770000
    2      C       3.0325240000     1.5449610000     0.7611040000
    3      C       4.0027210000     0.4863900000     0.5244950000
    4      C       5.3829330000     0.7704080000     0.6521740000
    5      C       6.3519320000    -0.1899390000     0.4375440000
    6      C       5.9642560000    -1.5080800000     0.0761230000
    7      C       4.6251940000    -1.8158260000    -0.0547420000
    8      C       3.6079350000    -0.8532600000     0.1604370000
    9      C       2.2166310000    -1.2446830000     0.0058750000
   10      O       1.8716330000    -2.4299380000    -0.3149110000
   11      C       1.2489350000    -0.1852470000     0.2408260000
   12      C      -0.1320620000    -0.4768290000     0.0918240000
   13      C      -1.1205730000     0.4685570000     0.3081940000
   14      C      -0.7177370000     1.7872860000     0.6849750000
   15      C       0.6170330000     2.0972370000     0.8181200000
   16      C       1.6436170000     1.1481750000     0.6022280000
   17      N      -2.5160230000     0.1832540000     0.2182740000
   18      C      -2.9365650000    -1.2062470000     0.1074020000
   19      C      -4.3724610000    -1.3813910000     0.6537070000
   20      C      -5.2325010000    -0.1211910000     0.4296150000
   21      C      -4.7450140000     0.6073530000    -0.8210630000
   22      C      -3.2946500000     1.0940200000    -0.6366780000
   23      H       5.6458970000     1.7867020000     0.9281710000
   24      H       7.4055570000     0.0596470000     0.5436480000
   25      H       6.7209580000    -2.2709310000    -0.0954400000
   26      H       4.2985540000    -2.8137650000    -0.3291470000
   27      H      -0.3623900000    -1.4917440000    -0.2072000000
   28      H      -1.4697570000     2.5428720000     0.8880450000
   29      H       0.9274790000     3.0957060000     1.1089010000
   30      H      -2.8780560000    -1.5722390000    -0.9352890000
   31      H      -2.2468550000    -1.8208690000     0.6842340000
   32      H      -4.3348720000    -1.6183080000     1.7222120000
   33      H      -4.8364700000    -2.2426320000     0.1548710000
   34      H      -6.2949960000    -0.3822920000     0.3494230000
   35      H      -5.1385570000     0.5487140000     1.2910560000
   36      H      -4.8077070000    -0.0753520000    -1.6774740000
   37      H      -5.3882400000     1.4588840000    -1.0683210000
   38      H      -3.3035280000     2.0847010000    -0.1740120000
   39      H      -2.8122090000     1.2082080000    -1.6249910000
 ----------------------------------------------------------------
 Nuclear Repulsion Energy =        1658.84257631 hartrees
 There are       78 alpha and       78 beta electrons
 Requested basis set is 6-311++G(d,p)
 There are 217 shells and 603 basis functions

 Total QAlloc Memory Limit   8000 MB
 Mega-Array Size       188 MB
 MEM_STATIC part       192 MB
 Discretize the solute cavity surface with Lebedev spheres
	Using 110 Lebedev grid points for each H atom
	Using 194 Lebedev grid points for other atoms
	Atomic van der Waals radii will be scaled by 1.20
 Remove points where switching function is < 1.0e-08
 Keep 2445 surface tesserae and discard 3693 interior tesserae
 Molecular Surface Area = 323.839 Angst**2
 A cutoff of  1.0D-08 yielded  14738 shell pairs
 There are    116216 function pairs (    123724 Cartesian)
 Smallest overlap matrix eigenvalue = 3.61E-08

 Q-Chem warning in module stvman/mkSTV.C, line 323:

 Overlap eigenvalue is smaller than square root of threshold
 Use THRESH >= 12 to get rid of this warning

 Linear dependence detected in AO basis
 Tighter screening thresholds may be required for diffuse basis sets
 Use S2THRESH > 14 and THRESH = 14 in case of SCF convergence issues
 Number of orthogonalized atomic orbitals = 595
 Maximum deviation from orthogonality = 1.715E-10

 Scale SEOQF with 1.000000e-02/1.000000e-01/1.000000e-01

 Standard Electronic Orientation quadrupole field applied
 Nucleus-field energy     =     0.0000000241 hartrees
 Guess from superposition of atomic densities
 Warning:  Energy on first SCF cycle will be non-variational
 SAD guess density has 154.000000 electrons

 -----------------------------------------------------------------------
  General SCF calculation program by
  Eric Jon Sundstrom, Paul Horn, Yuezhi Mao, Dmitri Zuev, Alec White,
  David Stuck, Shaama M.S., Shane Yost, Joonho Lee, David Small,
  Daniel Levine, Susi Lehtola, Hugh Burton, Evgeny Epifanovsky,
  Bang C. Huynh
 -----------------------------------------------------------------------
 Exchange:     0.2000 Hartree-Fock + 0.0800 Slater + 0.7200 B88
 Correlation:  0.1900 VWN1RPA + 0.8100 LYP
 Using SG-1 standard quadrature grid
 using 8 threads for integral computing
 -------------------------------------------------------
 OpenMP Integral computing Module                
 Release: version 1.0, May 2013, Q-Chem Inc. Pittsburgh 
 -------------------------------------------------------
 A restricted SCF calculation will be
 performed using DIIS
 SCF converges when DIIS error is below 1.0e-05
 ---------------------------------------
  Cycle       Energy         DIIS error
 ---------------------------------------
    1    -944.8631021879      2.67e-02  
    2    -939.4508324397      3.35e-03  
    3    -938.4815465500      5.63e-03  
    4    -939.8585808902      1.59e-03  
    5    -939.9512994586      2.99e-04  
    6    -939.9551061233      1.29e-04  
    7    -939.9556689821      5.76e-05  
    8    -939.9557850115      2.12e-05  
    9    -939.9557921675      9.23e-06  Convergence criterion met
 ---------------------------------------
 SCF time:   CPU 738.33s  wall 103.00s 

************** Final PCM Free Energy Summary **************
 G_electrostatic  =      -0.29665183 hartree =    -186.15183196 kcal/mol
 G_cavitation     =       0.00000000 hartree =       0.00000000 kcal/mol
 G_dispersion     =       0.00000000 hartree =       0.00000000 kcal/mol
 G_repulsion      =       0.00000000 hartree =       0.00000000 kcal/mol
 --------------------------------------------------
 Non-electrostatic Free Energy =       0.00000000 hartree =       0.00000000 kcal/mol
 Total                         =      -0.29665183 hartree =    -186.15183196 kcal/mol
 --------------------------------------------------
 SCF Energy (H0 + V/2)                       =    -939.95579217 
 Solute Internal Energy (H0)                 =    -939.65914034 
 Total Free Energy (H0 + V/2 + non-elec)     =    -939.95579217 hartree
                                             = -589831.16190640 kcal/mol
***********************************************************

 SCF   energy in the final basis set =     -939.9557921675
 Total energy in the final basis set =     -939.9557921675
 
 --------------------------------------------------------------
 
                    Orbital Energies (a.u.)
 --------------------------------------------------------------
 
 Alpha MOs
 -- Occupied --
-19.0234 -19.0196 -14.3035 -10.1850 -10.1841 -10.1817 -10.1747 -10.1696
-10.1578 -10.1558 -10.1554 -10.1470 -10.1469 -10.1457 -10.1456 -10.1447
-10.1437 -10.1366 -10.1334 -10.1329 -10.1324 -10.1313  -0.9469  -0.9420
 -0.9255  -0.8260  -0.8197  -0.7842  -0.7465  -0.7424  -0.7212  -0.7186
 -0.7034  -0.6442  -0.6322  -0.6176  -0.6005  -0.5801  -0.5585  -0.5305
 -0.5257  -0.5083  -0.5009  -0.4817  -0.4672  -0.4518  -0.4364  -0.4281
 -0.4221  -0.4148  -0.4040  -0.4008  -0.3978  -0.3925  -0.3810  -0.3763
 -0.3722  -0.3674  -0.3663  -0.3568  -0.3498  -0.3416  -0.3290  -0.3270
 -0.3225  -0.3181  -0.3082  -0.3073  -0.3023  -0.2977  -0.2470  -0.2318
 -0.2251  -0.2207  -0.2054  -0.1966  -0.1847  -0.1014
 -- Virtual --
 -0.0244  -0.0017   0.0051   0.0075   0.0128   0.0166   0.0180   0.0212
  0.0236   0.0322   0.0351   0.0400   0.0432   0.0457   0.0510   0.0557
  0.0583   0.0593   0.0645   0.0716   0.0758   0.0784   0.0841   0.0863
  0.0880   0.0888   0.0966   0.1008   0.1022   0.1050   0.1116   0.1148
  0.1163   0.1198   0.1211   0.1239   0.1254   0.1274   0.1305   0.1320
  0.1340   0.1364   0.1389   0.1414   0.1442   0.1448   0.1471   0.1490
  0.1511   0.1552   0.1585   0.1603   0.1620   0.1626   0.1659   0.1695
  0.1738   0.1742   0.1788   0.1800   0.1845   0.1863   0.1933   0.1972
  0.1985   0.2003   0.2033   0.2062   0.2084   0.2113   0.2147   0.2189
  0.2217   0.2219   0.2255   0.2333   0.2350   0.2407   0.2452   0.2491
  0.2530   0.2537   0.2587   0.2600   0.2627   0.2656   0.2664   0.2694
  0.2723   0.2759   0.2772   0.2807   0.2821   0.2843   0.2877   0.2913
  0.2965   0.2991   0.3037   0.3090   0.3128   0.3166   0.3179   0.3190
  0.3238   0.3274   0.3316   0.3334   0.3341   0.3370   0.3403   0.3428
  0.3451   0.3491   0.3529   0.3569   0.3575   0.3579   0.3654   0.3686
  0.3723   0.3748   0.3789   0.3824   0.3842   0.3945   0.3969   0.4003
  0.4064   0.4195   0.4233   0.4282   0.4317   0.4485   0.4505   0.4599
  0.4647   0.4720   0.4830   0.5020   0.5033   0.5125   0.5196   0.5312
  0.5443   0.5486   0.5512   0.5627   0.5663   0.5760   0.5772   0.5803
  0.5895   0.5932   0.5985   0.6046   0.6096   0.6113   0.6156   0.6202
  0.6262   0.6352   0.6451   0.6479   0.6549   0.6579   0.6630   0.6682
  0.6727   0.6747   0.6789   0.6833   0.6869   0.6946   0.6970   0.6985
  0.7008   0.7134   0.7166   0.7216   0.7314   0.7336   0.7475   0.7502
  0.7567   0.7597   0.7646   0.7688   0.7692   0.7751   0.7778   0.7793
  0.7845   0.7918   0.8010   0.8052   0.8072   0.8131   0.8179   0.8231
  0.8314   0.8340   0.8386   0.8511   0.8596   0.8617   0.8804   0.8879
  0.8984   0.9057   0.9141   0.9318   0.9337   0.9448   0.9559   0.9590
  0.9605   0.9660   0.9760   0.9844   0.9881   0.9974   1.0050   1.0116
  1.0203   1.0281   1.0311   1.0375   1.0503   1.0543   1.0675   1.0723
  1.0804   1.0850   1.0985   1.1147   1.1173   1.1225   1.1289   1.1333
  1.1561   1.1673   1.1755   1.1820   1.1966   1.2017   1.2096   1.2327
  1.2423   1.2486   1.2595   1.2694   1.2768   1.2787   1.2961   1.3027
  1.3236   1.3339   1.3405   1.3519   1.3692   1.3733   1.3783   1.4011
  1.4129   1.4180   1.4471   1.4811   1.5062   1.5157   1.5243   1.5276
  1.5301   1.5353   1.5513   1.5549   1.5588   1.5648   1.5713   1.5752
  1.5853   1.5874   1.5910   1.5965   1.6036   1.6179   1.6267   1.6297
  1.6406   1.6453   1.6530   1.6562   1.6677   1.6821   1.6937   1.6983
  1.7095   1.7168   1.7297   1.7384   1.7396   1.7426   1.7488   1.7597
  1.7678   1.7708   1.7782   1.7841   1.8090   1.8144   1.8157   1.8199
  1.8319   1.8405   1.8488   1.8506   1.8533   1.8657   1.8755   1.8874
  1.9080   1.9243   1.9269   1.9322   1.9339   1.9509   1.9585   1.9653
  1.9715   1.9861   1.9963   2.0004   2.0024   2.0093   2.0208   2.0244
  2.0369   2.0413   2.0493   2.0752   2.0774   2.0857   2.1002   2.1065
  2.1204   2.1334   2.1417   2.1575   2.1845   2.1970   2.2213   2.2338
  2.2396   2.2575   2.2635   2.2668   2.2809   2.2890   2.3040   2.3194
  2.3274   2.3446   2.3515   2.3651   2.3832   2.3866   2.4026   2.4220
  2.4335   2.4461   2.4635   2.4769   2.4921   2.5039   2.5124   2.5177
  2.5380   2.5508   2.5703   2.5805   2.5927   2.6045   2.6343   2.6498
  2.6553   2.6722   2.6750   2.6975   2.7014   2.7099   2.7137   2.7372
  2.7403   2.7474   2.7557   2.7682   2.7705   2.7798   2.7803   2.7868
  2.7915   2.8006   2.8064   2.8087   2.8158   2.8328   2.8371   2.8460
  2.8625   2.8650   2.8684   2.8750   2.8819   2.8920   2.8970   2.9183
  2.9222   2.9256   2.9345   2.9413   2.9490   2.9764   2.9856   2.9896
  2.9967   3.0054   3.0198   3.0302   3.0363   3.0636   3.0792   3.0951
  3.1350   3.1493   3.1552   3.1869   3.1997   3.2086   3.2499   3.2839
  3.2934   3.3107   3.3128   3.3614   3.3688   3.3731   3.3915   3.4081
  3.4224   3.4608   3.4710   3.5129   3.5443   3.5600   3.5705   3.5762
  3.5940   3.5963   3.6158   3.6339   3.6764   3.7044   3.7137   3.7903
  3.8220   3.8515   3.8875   3.9123   3.9261   3.9700   4.0163   4.0688
  4.0900   4.1026   4.1277   4.1932   4.2166   4.2254   4.2578   4.2991
  4.3341   4.3555   4.3715   4.5476   4.8580   4.8637   4.8904   4.9199
  5.0887   5.1352   5.1507   5.3222   5.3478   5.8027   5.8773  23.5804
 23.7527  23.8565  23.8959  23.9287  23.9413  23.9526  23.9560  23.9749
 23.9831  23.9950  24.0043  24.0144  24.0312  24.0723  24.1471  24.1532
 24.2113  24.2127  35.6475  50.1075  50.1662
 --------------------------------------------------------------
 
          Ground-State Mulliken Net Atomic Charges

     Atom                 Charge (a.u.)
  ----------------------------------------
      1 O                    -0.669748
      2 C                    -0.594976
      3 C                     0.107496
      4 C                     0.013091
      5 C                    -0.521740
      6 C                    -0.540047
      7 C                    -0.037456
      8 C                     0.367518
      9 C                    -0.595947
     10 O                    -0.687668
     11 C                     0.342589
     12 C                    -0.109538
     13 C                    -0.381027
     14 C                    -0.144050
     15 C                    -0.019403
     16 C                     0.087734
     17 N                     0.255632
     18 C                    -0.163903
     19 C                    -0.462499
     20 C                    -0.295007
     21 C                    -0.451514
     22 C                    -0.176267
     23 H                     0.142341
     24 H                     0.168396
     25 H                     0.170636
     26 H                     0.140316
     27 H                     0.141073
     28 H                     0.190231
     29 H                     0.157086
     30 H                     0.154358
     31 H                     0.154579
     32 H                     0.156473
     33 H                     0.147088
     34 H                     0.183811
     35 H                     0.146260
     36 H                     0.157694
     37 H                     0.179767
     38 H                     0.137608
     39 H                     0.148990
  ----------------------------------------
  Sum of atomic charges =    -2.000021

 -----------------------------------------------------------------
                    Cartesian Multipole Moments
 -----------------------------------------------------------------
    Charge (ESU x 10^10)
                -9.6065
    Dipole Moment (Debye)
         X     -27.0435      Y      -1.1540      Z      -4.2715
       Tot      27.4031
    Quadrupole Moments (Debye-Ang)
        XX    -222.9793     XY     -12.3447     YY    -185.8269
        XZ     -10.2679     YZ     -12.6685     ZZ    -148.8336
    Octopole Moments (Debye-Ang^2)
       XXX    -705.1161    XXY     -67.6590    XYY    -251.5141
       YYY     -41.3994    XXZ     -96.0729    XYZ     -34.3795
       YYZ     -57.8751    XZZ    -141.7134    YZZ     -18.6839
       ZZZ    -119.7558
    Hexadecapole Moments (Debye-Ang^3)
      XXXX  -12525.9754   XXXY    -156.2318   XXYY   -2543.0445
      XYYY    -103.3468   YYYY   -2191.0072   XXXZ    -440.8840
      XXYZ    -141.5553   XYYZ    -197.2339   YYYZ    -226.9160
      XXZZ   -2126.0438   XYZZ       5.5145   YYZZ    -433.9593
      XZZZ    -331.8120   YZZZ    -164.8212   ZZZZ    -488.8305
 -----------------------------------------------------------------
 Total job time:  129.45s(wall), 746.74s(cpu) 
 Tue Jun 11 20:22:47 2024

        *************************************************************
        *                                                           *
        *  Thank you very much for using Q-Chem.  Have a nice day.  *
        *                                                           *
        *************************************************************


