 Entering Gaussian System, Link 0=g16
 Input=096.com
 Output=096.log
 Initial command:
 /sysapps/ubuntu-applications/gaussian/Gaussian/AVX2/g16/l1.exe "/scratch/selhajj1/4406530/Gau-453700.inp" -scrdir="/scratch/selhajj1/4406530/"
 Entering Link 1 = /sysapps/ubuntu-applications/gaussian/Gaussian/AVX2/g16/l1.exe PID=    453702.
  
 Copyright (c) 1988,1990,1992,1993,1995,1998,2003,2009,2016,
            Gaussian, Inc.  All Rights Reserved.
  
 This is part of the Gaussian(R) 16 program.  It is based on
 the Gaussian(R) 09 system (copyright 2009, Gaussian, Inc.),
 the Gaussian(R) 03 system (copyright 2003, Gaussian, Inc.),
 the Gaussian(R) 98 system (copyright 1998, Gaussian, Inc.),
 the Gaussian(R) 94 system (copyright 1995, Gaussian, Inc.),
 the Gaussian 92(TM) system (copyright 1992, Gaussian, Inc.),
 the Gaussian 90(TM) system (copyright 1990, Gaussian, Inc.),
 the Gaussian 88(TM) system (copyright 1988, Gaussian, Inc.),
 the Gaussian 86(TM) system (copyright 1986, Carnegie Mellon
 University), and the Gaussian 82(TM) system (copyright 1983,
 Carnegie Mellon University). Gaussian is a federally registered
 trademark of Gaussian, Inc.
  
 This software contains proprietary and confidential information,
 including trade secrets, belonging to Gaussian, Inc.
  
 This software is provided under written license and may be
 used, copied, transmitted, or stored only in accord with that
 written license.
  
 The following legend is applicable only to US Government
 contracts under FAR:
  
                    RESTRICTED RIGHTS LEGEND
  
 Use, reproduction and disclosure by the US Government is
 subject to restrictions as set forth in subparagraphs (a)
 and (c) of the Commercial Computer Software - Restricted
 Rights clause in FAR 52.227-19.
  
 Gaussian, Inc.
 340 Quinnipiac St., Bldg. 40, Wallingford CT 06492
  
  
 ---------------------------------------------------------------
 Warning -- This program may not be used in any manner that
 competes with the business of Gaussian, Inc. or will provide
 assistance to any competitor of Gaussian, Inc.  The licensee
 of this program is prohibited from giving any competitor of
 Gaussian, Inc. access to this program.  By using this program,
 the user acknowledges that Gaussian, Inc. is engaged in the
 business of creating and licensing software in the field of
 computational chemistry and represents and warrants to the
 licensee that it is not a competitor of Gaussian, Inc. and that
 it will not use this program in any manner prohibited above.
 ---------------------------------------------------------------
  

 Cite this work as:
 Gaussian 16, Revision A.03,
 M. J. Frisch, G. W. Trucks, H. B. Schlegel, G. E. Scuseria, 
 M. A. Robb, J. R. Cheeseman, G. Scalmani, V. Barone, 
 G. A. Petersson, H. Nakatsuji, X. Li, M. Caricato, A. V. Marenich, 
 J. Bloino, B. G. Janesko, R. Gomperts, B. Mennucci, H. P. Hratchian, 
 J. V. Ortiz, A. F. Izmaylov, J. L. Sonnenberg, D. Williams-Young, 
 F. Ding, F. Lipparini, F. Egidi, J. Goings, B. Peng, A. Petrone, 
 T. Henderson, D. Ranasinghe, V. G. Zakrzewski, J. Gao, N. Rega, 
 G. Zheng, W. Liang, M. Hada, M. Ehara, K. Toyota, R. Fukuda, 
 J. Hasegawa, M. Ishida, T. Nakajima, Y. Honda, O. Kitao, H. Nakai, 
 T. Vreven, K. Throssell, J. A. Montgomery, Jr., J. E. Peralta, 
 F. Ogliaro, M. J. Bearpark, J. J. Heyd, E. N. Brothers, K. N. Kudin, 
 V. N. Staroverov, T. A. Keith, R. Kobayashi, J. Normand, 
 K. Raghavachari, A. P. Rendell, J. C. Burant, S. S. Iyengar, 
 J. Tomasi, M. Cossi, J. M. Millam, M. Klene, C. Adamo, R. Cammi, 
 J. W. Ochterski, R. L. Martin, K. Morokuma, O. Farkas, 
 J. B. Foresman, and D. J. Fox, Gaussian, Inc., Wallingford CT, 2016.
 
 ******************************************
 Gaussian 16:  ES64L-G16RevA.03 25-Dec-2016
                10-Feb-2024 
 ******************************************
 %chk=096.chk
 %nproc=8
 Will use up to    8 processors via shared memory.
 %mem=30GB
 ----------------------------------------------------------------------
 #P UB3LYP/6-311++G(d,p) nosym opt freq SCRF=(PCM,Solvent=n,n-DiMethylF
 ormamide)
 ----------------------------------------------------------------------
 1/18=20,19=15,26=3,38=1/1,3;
 2/9=110,12=2,15=1,17=6,18=5,40=1/2;
 3/5=4,6=6,7=1111,11=2,25=1,30=1,70=2201,71=1,72=148,74=-5,116=2/1,2,3;
 4//1;
 5/5=2,38=5,53=148/2;
 6/7=2,8=2,9=2,10=2,28=1/1;
 7/30=1/1,2,3,16;
 1/18=20,19=15,26=3/3(2);
 2/9=110,15=1/2;
 99//99;
 2/9=110,15=1/2;
 3/5=4,6=6,7=1111,11=2,25=1,30=1,70=2205,71=1,72=148,74=-5,116=2/1,2,3;
 4/5=5,16=3,69=1/1;
 5/5=2,38=5,53=148/2;
 7/30=1/1,2,3,16;
 1/18=20,19=15,26=3/3(-5);
 2/9=110,15=1/2;
 6/7=2,8=2,9=2,10=2,19=2,28=1/1;
 99/9=1/99;
 Leave Link    1 at Sat Feb 10 10:32:19 2024, MaxMem=  4026531840 cpu:               0.7 elap:               0.1
 (Enter /sysapps/ubuntu-applications/gaussian/Gaussian/AVX2/g16/l101.exe)
 --------
 Oxidized
 --------
 Symbolic Z-matrix:
 Charge =  0 Multiplicity = 1
 C                     1.88746   3.92821   5.52221 
 C                     2.80701   3.46021   4.45377 
 C                     2.48731   2.45006   3.63503 
 C                     1.19513   1.73662   3.76973 
 C                     0.2911    2.16302   4.86795 
 C                     0.61746   3.15431   5.71257 
 O                     2.13908   4.92273   6.17405 
 O                     0.88173   0.83202   3.01433 
 H                     3.73552   4.0135    4.36629 
 H                     3.13932   2.11285   2.83693 
 H                    -0.639     1.61293   4.95622 
 C                    -0.23545   3.48973   6.90135 
 O                     0.18191   3.52552   8.02913 
 O                    -1.51485   3.69867   6.54789 
 C                    -2.42495   3.99074   7.63129 
 H                    -3.39151   4.14811   7.15931 
 H                    -2.10142   4.88661   8.16162 
 H                    -2.46482   3.15202   8.32715 
 
 ITRead=  0  0  0  0  0  0  0  0  0  0  0  0  0  0  0  0  0  0
 MicOpt= -1 -1 -1 -1 -1 -1 -1 -1 -1 -1 -1 -1 -1 -1 -1 -1 -1 -1
 NAtoms=     18 NQM=       18 NQMF=       0 NMMI=      0 NMMIF=      0
                NMic=       0 NMicF=      0.
                    Isotopes and Nuclear Properties:
 (Nuclear quadrupole moments (NQMom) in fm**2, nuclear magnetic moments (NMagM)
  in nuclear magnetons)

  Atom         1           2           3           4           5           6           7           8           9          10
 IAtWgt=          12          12          12          12          12          12          16          16           1           1
 AtmWgt=  12.0000000  12.0000000  12.0000000  12.0000000  12.0000000  12.0000000  15.9949146  15.9949146   1.0078250   1.0078250
 NucSpn=           0           0           0           0           0           0           0           0           1           1
 AtZEff=  -0.0000000  -0.0000000  -0.0000000  -0.0000000  -0.0000000  -0.0000000  -0.0000000  -0.0000000  -0.0000000  -0.0000000
 NQMom=    0.0000000   0.0000000   0.0000000   0.0000000   0.0000000   0.0000000   0.0000000   0.0000000   0.0000000   0.0000000
 NMagM=    0.0000000   0.0000000   0.0000000   0.0000000   0.0000000   0.0000000   0.0000000   0.0000000   2.7928460   2.7928460
 AtZNuc=   6.0000000   6.0000000   6.0000000   6.0000000   6.0000000   6.0000000   8.0000000   8.0000000   1.0000000   1.0000000

  Atom        11          12          13          14          15          16          17          18
 IAtWgt=           1          12          16          16          12           1           1           1
 AtmWgt=   1.0078250  12.0000000  15.9949146  15.9949146  12.0000000   1.0078250   1.0078250   1.0078250
 NucSpn=           1           0           0           0           0           1           1           1
 AtZEff=  -0.0000000  -0.0000000  -0.0000000  -0.0000000  -0.0000000  -0.0000000  -0.0000000  -0.0000000
 NQMom=    0.0000000   0.0000000   0.0000000   0.0000000   0.0000000   0.0000000   0.0000000   0.0000000
 NMagM=    2.7928460   0.0000000   0.0000000   0.0000000   0.0000000   2.7928460   2.7928460   2.7928460
 AtZNuc=   1.0000000   6.0000000   8.0000000   8.0000000   6.0000000   1.0000000   1.0000000   1.0000000
 Leave Link  101 at Sat Feb 10 10:32:20 2024, MaxMem=  4026531840 cpu:               2.2 elap:               0.5
 (Enter /sysapps/ubuntu-applications/gaussian/Gaussian/AVX2/g16/l103.exe)

 GradGradGradGradGradGradGradGradGradGradGradGradGradGradGradGradGradGrad
 Berny optimization.
 Initialization pass.
                           ----------------------------
                           !    Initial Parameters    !
                           ! (Angstroms and Degrees)  !
 --------------------------                            --------------------------
 ! Name  Definition              Value          Derivative Info.                !
 --------------------------------------------------------------------------------
 ! R1    R(1,2)                  1.4853         estimate D2E/DX2                !
 ! R2    R(1,6)                  1.4993         estimate D2E/DX2                !
 ! R3    R(1,7)                  1.2154         estimate D2E/DX2                !
 ! R4    R(2,3)                  1.339          estimate D2E/DX2                !
 ! R5    R(2,9)                  1.0844         estimate D2E/DX2                !
 ! R6    R(3,4)                  1.4822         estimate D2E/DX2                !
 ! R7    R(3,10)                 1.0843         estimate D2E/DX2                !
 ! R8    R(4,5)                  1.485          estimate D2E/DX2                !
 ! R9    R(4,8)                  1.2195         estimate D2E/DX2                !
 ! R10   R(5,6)                  1.3426         estimate D2E/DX2                !
 ! R11   R(5,11)                 1.0842         estimate D2E/DX2                !
 ! R12   R(6,12)                 1.5011         estimate D2E/DX2                !
 ! R13   R(12,13)                1.2031         estimate D2E/DX2                !
 ! R14   R(12,14)                1.3437         estimate D2E/DX2                !
 ! R15   R(14,15)                1.4448         estimate D2E/DX2                !
 ! R16   R(15,16)                1.0871         estimate D2E/DX2                !
 ! R17   R(15,17)                1.0902         estimate D2E/DX2                !
 ! R18   R(15,18)                1.0905         estimate D2E/DX2                !
 ! A1    A(2,1,6)              116.942          estimate D2E/DX2                !
 ! A2    A(2,1,7)              121.0263         estimate D2E/DX2                !
 ! A3    A(6,1,7)              121.9788         estimate D2E/DX2                !
 ! A4    A(1,2,3)              121.987          estimate D2E/DX2                !
 ! A5    A(1,2,9)              115.3003         estimate D2E/DX2                !
 ! A6    A(3,2,9)              122.6853         estimate D2E/DX2                !
 ! A7    A(2,3,4)              121.0446         estimate D2E/DX2                !
 ! A8    A(2,3,10)             122.7572         estimate D2E/DX2                !
 ! A9    A(4,3,10)             116.1948         estimate D2E/DX2                !
 ! A10   A(3,4,5)              117.3705         estimate D2E/DX2                !
 ! A11   A(3,4,8)              121.6553         estimate D2E/DX2                !
 ! A12   A(5,4,8)              120.9739         estimate D2E/DX2                !
 ! A13   A(4,5,6)              121.9562         estimate D2E/DX2                !
 ! A14   A(4,5,11)             115.8991         estimate D2E/DX2                !
 ! A15   A(6,5,11)             122.1356         estimate D2E/DX2                !
 ! A16   A(1,6,5)              120.4726         estimate D2E/DX2                !
 ! A17   A(1,6,12)             117.8076         estimate D2E/DX2                !
 ! A18   A(5,6,12)             121.6741         estimate D2E/DX2                !
 ! A19   A(6,12,13)            123.5003         estimate D2E/DX2                !
 ! A20   A(6,12,14)            111.5581         estimate D2E/DX2                !
 ! A21   A(13,12,14)           124.9097         estimate D2E/DX2                !
 ! A22   A(12,14,15)           115.72           estimate D2E/DX2                !
 ! A23   A(14,15,16)           105.2941         estimate D2E/DX2                !
 ! A24   A(14,15,17)           110.1191         estimate D2E/DX2                !
 ! A25   A(14,15,18)           110.2456         estimate D2E/DX2                !
 ! A26   A(16,15,17)           110.8611         estimate D2E/DX2                !
 ! A27   A(16,15,18)           110.8465         estimate D2E/DX2                !
 ! A28   A(17,15,18)           109.418          estimate D2E/DX2                !
 ! D1    D(6,1,2,3)              4.2795         estimate D2E/DX2                !
 ! D2    D(6,1,2,9)           -177.5766         estimate D2E/DX2                !
 ! D3    D(7,1,2,3)           -173.1263         estimate D2E/DX2                !
 ! D4    D(7,1,2,9)              5.0176         estimate D2E/DX2                !
 ! D5    D(2,1,6,5)             -5.757          estimate D2E/DX2                !
 ! D6    D(2,1,6,12)           171.8227         estimate D2E/DX2                !
 ! D7    D(7,1,6,5)            171.6222         estimate D2E/DX2                !
 ! D8    D(7,1,6,12)           -10.7981         estimate D2E/DX2                !
 ! D9    D(1,2,3,4)             -0.7115         estimate D2E/DX2                !
 ! D10   D(1,2,3,10)           178.5905         estimate D2E/DX2                !
 ! D11   D(9,2,3,4)           -178.7177         estimate D2E/DX2                !
 ! D12   D(9,2,3,10)             0.5843         estimate D2E/DX2                !
 ! D13   D(2,3,4,5)             -1.5964         estimate D2E/DX2                !
 ! D14   D(2,3,4,8)            178.5897         estimate D2E/DX2                !
 ! D15   D(10,3,4,5)           179.0578         estimate D2E/DX2                !
 ! D16   D(10,3,4,8)            -0.7561         estimate D2E/DX2                !
 ! D17   D(3,4,5,6)              0.0373         estimate D2E/DX2                !
 ! D18   D(3,4,5,11)          -178.8862         estimate D2E/DX2                !
 ! D19   D(8,4,5,6)            179.8526         estimate D2E/DX2                !
 ! D20   D(8,4,5,11)             0.929          estimate D2E/DX2                !
 ! D21   D(4,5,6,1)              3.6767         estimate D2E/DX2                !
 ! D22   D(4,5,6,12)          -173.8077         estimate D2E/DX2                !
 ! D23   D(11,5,6,1)          -177.4668         estimate D2E/DX2                !
 ! D24   D(11,5,6,12)            5.0487         estimate D2E/DX2                !
 ! D25   D(1,6,12,13)          -52.6322         estimate D2E/DX2                !
 ! D26   D(1,6,12,14)          129.3355         estimate D2E/DX2                !
 ! D27   D(5,6,12,13)          124.9167         estimate D2E/DX2                !
 ! D28   D(5,6,12,14)          -53.1156         estimate D2E/DX2                !
 ! D29   D(6,12,14,15)         178.2743         estimate D2E/DX2                !
 ! D30   D(13,12,14,15)          0.2752         estimate D2E/DX2                !
 ! D31   D(12,14,15,16)        178.8504         estimate D2E/DX2                !
 ! D32   D(12,14,15,17)         59.2897         estimate D2E/DX2                !
 ! D33   D(12,14,15,18)        -61.5401         estimate D2E/DX2                !
 --------------------------------------------------------------------------------
 Trust Radius=3.00D-01 FncErr=1.00D-07 GrdErr=1.00D-06 EigMax=2.50D+02 EigMin=1.00D-04
 Number of steps in this run=     89 maximum allowed number of steps=    108.
 GradGradGradGradGradGradGradGradGradGradGradGradGradGradGradGradGradGrad

 Leave Link  103 at Sat Feb 10 10:32:20 2024, MaxMem=  4026531840 cpu:               0.3 elap:               0.1
 (Enter /sysapps/ubuntu-applications/gaussian/Gaussian/AVX2/g16/l202.exe)
                          Input orientation:                          
 ---------------------------------------------------------------------
 Center     Atomic      Atomic             Coordinates (Angstroms)
 Number     Number       Type             X           Y           Z
 ---------------------------------------------------------------------
      1          6           0        1.887455    3.928212    5.522209
      2          6           0        2.807009    3.460207    4.453772
      3          6           0        2.487311    2.450055    3.635030
      4          6           0        1.195129    1.736620    3.769732
      5          6           0        0.291098    2.163016    4.867947
      6          6           0        0.617460    3.154314    5.712572
      7          8           0        2.139080    4.922729    6.174053
      8          8           0        0.881727    0.832015    3.014333
      9          1           0        3.735518    4.013501    4.366288
     10          1           0        3.139323    2.112854    2.836929
     11          1           0       -0.639000    1.612928    4.956223
     12          6           0       -0.235447    3.489727    6.901354
     13          8           0        0.181906    3.525517    8.029134
     14          8           0       -1.514851    3.698669    6.547894
     15          6           0       -2.424947    3.990741    7.631291
     16          1           0       -3.391505    4.148112    7.159308
     17          1           0       -2.101421    4.886611    8.161621
     18          1           0       -2.464823    3.152021    8.327148
 ---------------------------------------------------------------------
                    Distance matrix (angstroms):
                    1          2          3          4          5
     1  C    0.000000
     2  C    1.485317   0.000000
     3  C    2.471077   1.339012   0.000000
     4  C    2.890254   2.456994   1.482184   0.000000
     5  C    2.468265   2.860778   2.534922   1.484979   0.000000
     6  C    1.499348   2.544066   2.882448   2.473497   1.342600
     7  O    1.215434   2.354669   3.561182   4.101596   3.568889
     8  O    4.109424   3.561754   2.362460   1.219491   2.357179
     9  H    2.181459   1.084397   2.130052   3.463184   3.942079
    10  H    3.474684   2.130721   1.084338   2.188964   3.498562
    11  H    3.473306   3.942065   3.495734   2.187942   1.084192
    12  C    2.569246   3.904877   4.377579   3.863546   2.484382
    13  O    3.058714   4.436062   5.077367   4.729617   3.444043
    14  O    3.560956   4.808397   5.105009   4.348771   2.905495
    15  C    4.800932   6.144221   6.517215   5.753056   4.284104
    16  H    5.531353   6.798140   7.061474   6.192070   4.769959
    17  H    4.878130   6.314702   6.890812   6.330748   4.898000
    18  H    5.235693   6.549064   6.858014   6.014038   4.532031
                    6          7          8          9         10
     6  C    0.000000
     7  O    2.378147   0.000000
     8  O    3.569790   5.319653   0.000000
     9  H    3.503280   2.577465   4.482606   0.000000
    10  H    3.964058   4.475744   2.601684   2.511344   0.000000
    11  H    2.127587   4.489501   2.587155   5.024657   4.360855
    12  C    1.501051   2.867201   4.839467   4.740196   5.459341
    13  O    2.386202   3.037113   5.735236   5.126668   6.140108
    14  O    2.353898   3.871601   5.142698   5.694286   6.160147
    15  C    3.692876   4.880828   6.498303   6.972237   7.581126
    16  H    4.376355   5.670814   6.814531   7.655948   8.091783
    17  H    4.048581   4.683330   7.199548   7.016889   7.969408
    18  H    4.041841   5.382114   6.693865   7.407752   7.913838
                   11         12         13         14         15
    11  H    0.000000
    12  C    2.732904   0.000000
    13  O    3.711424   1.203060   0.000000
    14  O    2.766016   1.343676   2.258990   0.000000
    15  C    3.999949   2.361723   2.677759   1.444759   0.000000
    16  H    4.342468   3.234303   3.730079   2.024267   1.087092
    17  H    4.809392   2.649796   2.661524   2.087914   1.090184
    18  H    4.131050   2.667780   2.689514   2.089741   1.090531
                   16         17         18
    16  H    0.000000
    17  H    1.792855   0.000000
    18  H    1.792983   1.779961   0.000000
 Symmetry turned off by external request.
 Stoichiometry    C8H6O4
 Framework group  C1[X(C8H6O4)]
 Deg. of freedom    48
 Full point group                 C1      NOp   1
 Rotational constants (GHZ):           1.6200422           0.6598544           0.4983043
 Leave Link  202 at Sat Feb 10 10:32:20 2024, MaxMem=  4026531840 cpu:               0.5 elap:               0.1
 (Enter /sysapps/ubuntu-applications/gaussian/Gaussian/AVX2/g16/l301.exe)
 Standard basis: 6-311++G(d,p) (5D, 7F)
 Ernie: Thresh=  0.10000D-02 Tol=  0.10000D-05 Strict=F.
   306 basis functions,   486 primitive gaussians,   318 cartesian basis functions
    43 alpha electrons       43 beta electrons
       nuclear repulsion energy       655.4991410756 Hartrees.
 IExCor=  402 DFT=T Ex+Corr=B3LYP ExCW=0 ScaHFX=  0.200000
 ScaDFX=  0.800000  0.720000  1.000000  0.810000 ScalE2=  1.000000  1.000000
 IRadAn=      5 IRanWt=     -1 IRanGd=            0 ICorTp=0 IEmpDi=  4
 NAtoms=   18 NActive=   18 NUniq=   18 SFac= 1.00D+00 NAtFMM=   60 NAOKFM=F Big=F
 Integral buffers will be    131072 words long.
 Raffenetti 2 integral format.
 Two-electron integral symmetry is turned off.
 ------------------------------------------------------------------------------
 Polarizable Continuum Model (PCM)
 =================================
 Model                : PCM.
 Atomic radii         : UFF (Universal Force Field).
 Polarization charges : Total charges.
 Charge compensation  : None.
 Solution method      : On-the-fly selection.
 Cavity type          : Scaled VdW (van der Waals Surface) (Alpha=1.100).
 Cavity algorithm     : GePol (No added spheres)
                        Default sphere list used, NSphG=   18.
                        Lebedev-Laikov grids with approx.  5.0 points / Ang**2.
                        Smoothing algorithm: York/Karplus (Gamma=1.0000).
                        Polarization charges: spherical gaussians, with
                                              point-specific exponents (IZeta= 3).
                        Self-potential: point-specific (ISelfS= 7).
                        Self-field    : sphere-specific E.n sum rule (ISelfD= 2).
 1st derivatives      : Analytical E(r).r(x)/FMM algorithm (CHGder, D1EAlg=3).
                        Cavity 1st derivative terms included.
 Solvent              : n,n-DiMethylFormamide, Eps=  37.219000 Eps(inf)=   2.046330
 ------------------------------------------------------------------------------
 Spheres list:
 ISph  on   Nord     Re0    Alpha      Xe            Ye            Ze
    1   C      1    1.9255  1.100      1.887455      3.928212      5.522209
    2   C      2    1.9255  1.100      2.807009      3.460207      4.453772
    3   C      3    1.9255  1.100      2.487311      2.450055      3.635030
    4   C      4    1.9255  1.100      1.195129      1.736620      3.769732
    5   C      5    1.9255  1.100      0.291098      2.163016      4.867947
    6   C      6    1.9255  1.100      0.617460      3.154314      5.712572
    7   O      7    1.7500  1.100      2.139080      4.922729      6.174053
    8   O      8    1.7500  1.100      0.881727      0.832015      3.014333
    9   H      9    1.4430  1.100      3.735518      4.013501      4.366288
   10   H     10    1.4430  1.100      3.139323      2.112854      2.836929
   11   H     11    1.4430  1.100     -0.639000      1.612928      4.956223
   12   C     12    1.9255  1.100     -0.235447      3.489727      6.901354
   13   O     13    1.7500  1.100      0.181906      3.525517      8.029134
   14   O     14    1.7500  1.100     -1.514851      3.698669      6.547894
   15   C     15    1.9255  1.100     -2.424947      3.990741      7.631291
   16   H     16    1.4430  1.100     -3.391505      4.148112      7.159308
   17   H     17    1.4430  1.100     -2.101421      4.886611      8.161621
   18   H     18    1.4430  1.100     -2.464823      3.152021      8.327148
 ------------------------------------------------------------------------------
 GePol: Number of generator spheres                  =      18
 GePol: Total number of spheres                      =      18
 GePol: Number of exposed spheres                    =      18 (100.00%)
 GePol: Number of points                             =    1647
 GePol: Average weight of points                     =       0.13
 GePol: Minimum weight of points                     =   0.16D-11
 GePol: Maximum weight of points                     =    0.20577
 GePol: Number of points with low weight             =      76
 GePol: Fraction of low-weight points (<1% of avg)   =       4.61%
 GePol: Cavity surface area                          =    220.301 Ang**2
 GePol: Cavity volume                                =    220.386 Ang**3
 Leave Link  301 at Sat Feb 10 10:32:20 2024, MaxMem=  4026531840 cpu:               0.8 elap:               0.2
 (Enter /sysapps/ubuntu-applications/gaussian/Gaussian/AVX2/g16/l302.exe)
 NPDir=0 NMtPBC=     1 NCelOv=     1 NCel=       1 NClECP=     1 NCelD=      1
         NCelK=      1 NCelE2=     1 NClLst=     1 CellRange=     0.0.
 One-electron integrals computed using PRISM.
 NBasis=   306 RedAO= T EigKep=  2.17D-06  NBF=   306
 NBsUse=   306 1.00D-06 EigRej= -1.00D+00 NBFU=   306
 Precomputing XC quadrature grid using
 IXCGrd= 4 IRadAn=           5 IRanWt=          -1 IRanGd=           0 AccXCQ= 0.00D+00.
 Generated NRdTot=       0 NPtTot=           0 NUsed=           0 NTot=          32
 NSgBfM=   318   318   318   318   318 MxSgAt=    18 MxSgA2=    18.
 Leave Link  302 at Sat Feb 10 10:32:22 2024, MaxMem=  4026531840 cpu:               9.8 elap:               1.7
 (Enter /sysapps/ubuntu-applications/gaussian/Gaussian/AVX2/g16/l303.exe)
 DipDrv:  MaxL=1.
 Leave Link  303 at Sat Feb 10 10:32:22 2024, MaxMem=  4026531840 cpu:               0.5 elap:               0.1
 (Enter /sysapps/ubuntu-applications/gaussian/Gaussian/AVX2/g16/l401.exe)
 ExpMin= 3.60D-02 ExpMax= 8.59D+03 ExpMxC= 1.30D+03 IAcc=3 IRadAn=         5 AccDes= 0.00D+00
 Harris functional with IExCor=  402 and IRadAn=       5 diagonalized for initial guess.
 HarFok:  IExCor=  402 AccDes= 0.00D+00 IRadAn=         5 IDoV= 1 UseB2=F ITyADJ=14
 ICtDFT=  3500011 ScaDFX=  1.000000  1.000000  1.000000  1.000000
 FoFCou: FMM=F IPFlag=           0 FMFlag=      100000 FMFlg1=           0
         NFxFlg=           0 DoJE=T BraDBF=F KetDBF=T FulRan=T
         wScrn=  0.000000 ICntrl=       500 IOpCl=  0 I1Cent=   200000004 NGrid=           0
         NMat0=    1 NMatS0=      1 NMatT0=    0 NMatD0=    1 NMtDS0=    0 NMtDT0=    0
 Symmetry not used in FoFCou.
 Harris En= -609.523507648489    
 JPrj=0 DoOrth=F DoCkMO=F.
 Initial guess <Sx>= 0.0000 <Sy>= 0.0000 <Sz>= 0.0000 <S**2>=-0.0000 S=-0.0000
 Leave Link  401 at Sat Feb 10 10:32:24 2024, MaxMem=  4026531840 cpu:              10.4 elap:               1.3
 (Enter /sysapps/ubuntu-applications/gaussian/Gaussian/AVX2/g16/l502.exe)
 Two-electron integral symmetry not used.
 UHF open shell SCF:
 Using DIIS extrapolation, IDIIS=  1040.
 NGot=  4026531840 LenX=  4026324728 LenY=  4026223163
 Requested convergence on RMS density matrix=1.00D-08 within 128 cycles.
 Requested convergence on MAX density matrix=1.00D-06.
 Requested convergence on             energy=1.00D-06.
 No special actions if energy rises.
 Fock matrices will be formed incrementally for  20 cycles.

 Cycle   1  Pass 1  IDiag  1:
 FoFJK:  IHMeth= 1 ICntrl=       0 DoSepK=F KAlg= 0 I1Cent=           0 FoldK=F
 IRaf= 900000000 NMat=       1 IRICut=       1 DoRegI=T DoRafI=F ISym2E= 0 IDoP0=0 IntGTp=1.
 FoFCou: FMM=F IPFlag=           0 FMFlag=      100000 FMFlg1=           0
         NFxFlg=           0 DoJE=F BraDBF=F KetDBF=F FulRan=T
         wScrn=  0.000000 ICntrl=         0 IOpCl=  1 I1Cent=           0 NGrid=           0
         NMat0=    1 NMatS0=      1 NMatT0=    0 NMatD0=    1 NMtDS0=    0 NMtDT0=    0
 Symmetry not used in FoFCou.
 Inv3:  Mode=1 IEnd=     8137827.
 Iteration    1 A*A^-1 deviation from unit magnitude is 3.55D-15 for   1530.
 Iteration    1 A*A^-1 deviation from orthogonality  is 2.21D-15 for    487    106.
 Iteration    1 A^-1*A deviation from unit magnitude is 3.33D-15 for   1530.
 Iteration    1 A^-1*A deviation from orthogonality  is 2.19D-15 for   1263    304.
 E= -609.236889681812    
 DIIS: error= 2.27D-02 at cycle   1 NSaved=   1.
 NSaved= 1 IEnMin= 1 EnMin= -609.236889681812     IErMin= 1 ErrMin= 2.27D-02
 ErrMax= 2.27D-02  0.00D+00 EMaxC= 1.00D-01 BMatC= 1.57D+00 BMatP= 1.57D+00
 IDIUse=3 WtCom= 7.73D-01 WtEn= 2.27D-01
 Coeff-Com:  0.100D+01
 Coeff-En:   0.100D+01
 Coeff:      0.100D+01
 Gap=     0.099 Goal=   None    Shift=    0.000
 Gap=     0.099 Goal=   None    Shift=    0.000
 GapD=    0.099 DampG=0.500 DampE=0.500 DampFc=0.2500 IDamp=-1.
 Damping current iteration by 2.50D-01
 RMSDP=2.23D-02 MaxDP=2.34D+00              OVMax= 2.75D-01

 Cycle   2  Pass 1  IDiag  1:
 RMSU=  4.70D-03    CP:  1.07D+00
 E= -609.332240777316     Delta-E=       -0.095351095504 Rises=F Damp=T
 DIIS: error= 9.70D-03 at cycle   2 NSaved=   2.
 NSaved= 2 IEnMin= 2 EnMin= -609.332240777316     IErMin= 2 ErrMin= 9.70D-03
 ErrMax= 9.70D-03  0.00D+00 EMaxC= 1.00D-01 BMatC= 3.00D-01 BMatP= 1.57D+00
 IDIUse=3 WtCom= 9.03D-01 WtEn= 9.70D-02
 Coeff-Com: -0.500D+00 0.150D+01
 Coeff-En:   0.000D+00 0.100D+01
 Coeff:     -0.452D+00 0.145D+01
 Gap=     0.150 Goal=   None    Shift=    0.000
 Gap=     0.150 Goal=   None    Shift=    0.000
 RMSDP=5.34D-03 MaxDP=3.57D-01 DE=-9.54D-02 OVMax= 2.29D-01

 Cycle   3  Pass 1  IDiag  1:
 RMSU=  4.34D-03    CP:  9.97D-01  1.05D+00
 E= -609.471609942324     Delta-E=       -0.139369165007 Rises=F Damp=F
 DIIS: error= 1.05D-02 at cycle   3 NSaved=   3.
 NSaved= 3 IEnMin= 3 EnMin= -609.471609942324     IErMin= 2 ErrMin= 9.70D-03
 ErrMax= 1.05D-02  0.00D+00 EMaxC= 1.00D-01 BMatC= 1.77D-01 BMatP= 3.00D-01
 IDIUse=3 WtCom= 8.95D-01 WtEn= 1.05D-01
 Coeff-Com: -0.369D+00 0.869D+00 0.500D+00
 Coeff-En:   0.000D+00 0.000D+00 0.100D+01
 Coeff:     -0.330D+00 0.777D+00 0.553D+00
 Gap=     0.140 Goal=   None    Shift=    0.000
 Gap=     0.140 Goal=   None    Shift=    0.000
 RMSDP=3.96D-03 MaxDP=3.62D-01 DE=-1.39D-01 OVMax= 6.30D-02

 Cycle   4  Pass 1  IDiag  1:
 RMSU=  3.17D-03    CP:  1.03D+00  1.08D+00  5.58D-01
 E= -609.504407277002     Delta-E=       -0.032797334678 Rises=F Damp=F
 DIIS: error= 4.52D-03 at cycle   4 NSaved=   4.
 NSaved= 4 IEnMin= 4 EnMin= -609.504407277002     IErMin= 4 ErrMin= 4.52D-03
 ErrMax= 4.52D-03  0.00D+00 EMaxC= 1.00D-01 BMatC= 3.17D-02 BMatP= 1.77D-01
 IDIUse=3 WtCom= 9.55D-01 WtEn= 4.52D-02
 Coeff-Com: -0.979D-01 0.222D+00 0.325D+00 0.551D+00
 Coeff-En:   0.000D+00 0.000D+00 0.159D+00 0.841D+00
 Coeff:     -0.935D-01 0.212D+00 0.317D+00 0.564D+00
 Gap=     0.140 Goal=   None    Shift=    0.000
 Gap=     0.140 Goal=   None    Shift=    0.000
 RMSDP=1.62D-03 MaxDP=1.74D-01 DE=-3.28D-02 OVMax= 2.46D-02

 Cycle   5  Pass 1  IDiag  1:
 RMSU=  7.55D-04    CP:  1.01D+00  1.08D+00  6.71D-01  6.61D-01
 E= -609.510333602690     Delta-E=       -0.005926325689 Rises=F Damp=F
 DIIS: error= 1.17D-03 at cycle   5 NSaved=   5.
 NSaved= 5 IEnMin= 5 EnMin= -609.510333602690     IErMin= 5 ErrMin= 1.17D-03
 ErrMax= 1.17D-03  0.00D+00 EMaxC= 1.00D-01 BMatC= 2.45D-03 BMatP= 3.17D-02
 IDIUse=3 WtCom= 9.88D-01 WtEn= 1.17D-02
 Coeff-Com: -0.192D-01 0.418D-01 0.139D+00 0.334D+00 0.504D+00
 Coeff-En:   0.000D+00 0.000D+00 0.000D+00 0.000D+00 0.100D+01
 Coeff:     -0.190D-01 0.413D-01 0.137D+00 0.330D+00 0.510D+00
 Gap=     0.139 Goal=   None    Shift=    0.000
 Gap=     0.139 Goal=   None    Shift=    0.000
 RMSDP=5.42D-04 MaxDP=4.63D-02 DE=-5.93D-03 OVMax= 6.47D-03

 Cycle   6  Pass 1  IDiag  1:
 RMSU=  2.63D-04    CP:  1.00D+00  1.06D+00  6.82D-01  6.49D-01  7.14D-01
 E= -609.510758282209     Delta-E=       -0.000424679518 Rises=F Damp=F
 DIIS: error= 2.39D-04 at cycle   6 NSaved=   6.
 NSaved= 6 IEnMin= 6 EnMin= -609.510758282209     IErMin= 6 ErrMin= 2.39D-04
 ErrMax= 2.39D-04  0.00D+00 EMaxC= 1.00D-01 BMatC= 1.57D-04 BMatP= 2.45D-03
 IDIUse=3 WtCom= 9.98D-01 WtEn= 2.39D-03
 Coeff-Com: -0.131D-02 0.194D-02 0.440D-01 0.122D+00 0.271D+00 0.563D+00
 Coeff-En:   0.000D+00 0.000D+00 0.000D+00 0.000D+00 0.000D+00 0.100D+01
 Coeff:     -0.131D-02 0.193D-02 0.438D-01 0.122D+00 0.270D+00 0.564D+00
 Gap=     0.139 Goal=   None    Shift=    0.000
 Gap=     0.139 Goal=   None    Shift=    0.000
 RMSDP=9.39D-05 MaxDP=1.23D-02 DE=-4.25D-04 OVMax= 1.38D-03

 Cycle   7  Pass 1  IDiag  1:
 RMSU=  5.60D-05    CP:  1.00D+00  1.05D+00  6.84D-01  6.61D-01  7.21D-01
                    CP:  8.40D-01
 E= -609.510784390296     Delta-E=       -0.000026108087 Rises=F Damp=F
 DIIS: error= 8.72D-05 at cycle   7 NSaved=   7.
 NSaved= 7 IEnMin= 7 EnMin= -609.510784390296     IErMin= 7 ErrMin= 8.72D-05
 ErrMax= 8.72D-05  0.00D+00 EMaxC= 1.00D-01 BMatC= 1.88D-05 BMatP= 1.57D-04
 IDIUse=1 WtCom= 1.00D+00 WtEn= 0.00D+00
 Coeff-Com:  0.110D-02-0.264D-02 0.143D-01 0.439D-01 0.120D+00 0.334D+00
 Coeff-Com:  0.489D+00
 Coeff:      0.110D-02-0.264D-02 0.143D-01 0.439D-01 0.120D+00 0.334D+00
 Coeff:      0.489D+00
 Gap=     0.140 Goal=   None    Shift=    0.000
 Gap=     0.140 Goal=   None    Shift=    0.000
 RMSDP=3.36D-05 MaxDP=3.33D-03 DE=-2.61D-05 OVMax= 4.63D-04

 Cycle   8  Pass 1  IDiag  1:
 RMSU=  2.10D-05    CP:  1.00D+00  1.05D+00  6.85D-01  6.64D-01  7.27D-01
                    CP:  8.10D-01  7.89D-01
 E= -609.510787571261     Delta-E=       -0.000003180965 Rises=F Damp=F
 DIIS: error= 3.12D-05 at cycle   8 NSaved=   8.
 NSaved= 8 IEnMin= 8 EnMin= -609.510787571261     IErMin= 8 ErrMin= 3.12D-05
 ErrMax= 3.12D-05  0.00D+00 EMaxC= 1.00D-01 BMatC= 2.42D-06 BMatP= 1.88D-05
 IDIUse=1 WtCom= 1.00D+00 WtEn= 0.00D+00
 Coeff-Com:  0.785D-03-0.164D-02 0.354D-02 0.116D-01 0.413D-01 0.138D+00
 Coeff-Com:  0.304D+00 0.502D+00
 Coeff:      0.785D-03-0.164D-02 0.354D-02 0.116D-01 0.413D-01 0.138D+00
 Coeff:      0.304D+00 0.502D+00
 Gap=     0.140 Goal=   None    Shift=    0.000
 Gap=     0.140 Goal=   None    Shift=    0.000
 RMSDP=1.17D-05 MaxDP=1.14D-03 DE=-3.18D-06 OVMax= 1.64D-04

 Cycle   9  Pass 1  IDiag  1:
 RMSU=  6.91D-06    CP:  1.00D+00  1.05D+00  6.86D-01  6.65D-01  7.24D-01
                    CP:  7.97D-01  8.12D-01  8.67D-01
 E= -609.510787991413     Delta-E=       -0.000000420152 Rises=F Damp=F
 DIIS: error= 7.47D-06 at cycle   9 NSaved=   9.
 NSaved= 9 IEnMin= 9 EnMin= -609.510787991413     IErMin= 9 ErrMin= 7.47D-06
 ErrMax= 7.47D-06  0.00D+00 EMaxC= 1.00D-01 BMatC= 1.41D-07 BMatP= 2.42D-06
 IDIUse=1 WtCom= 1.00D+00 WtEn= 0.00D+00
 Coeff-Com:  0.288D-03-0.523D-03-0.294D-04 0.769D-04 0.485D-02 0.223D-01
 Coeff-Com:  0.727D-01 0.233D+00 0.667D+00
 Coeff:      0.288D-03-0.523D-03-0.294D-04 0.769D-04 0.485D-02 0.223D-01
 Coeff:      0.727D-01 0.233D+00 0.667D+00
 Gap=     0.140 Goal=   None    Shift=    0.000
 Gap=     0.140 Goal=   None    Shift=    0.000
 RMSDP=6.24D-06 MaxDP=8.07D-04 DE=-4.20D-07 OVMax= 7.90D-05

 Cycle  10  Pass 1  IDiag  1:
 RMSU=  2.29D-06    CP:  1.00D+00  1.05D+00  6.86D-01  6.64D-01  7.27D-01
                    CP:  8.04D-01  8.20D-01  8.90D-01  9.44D-01
 E= -609.510788013150     Delta-E=       -0.000000021738 Rises=F Damp=F
 DIIS: error= 4.65D-06 at cycle  10 NSaved=  10.
 NSaved=10 IEnMin=10 EnMin= -609.510788013150     IErMin=10 ErrMin= 4.65D-06
 ErrMax= 4.65D-06  0.00D+00 EMaxC= 1.00D-01 BMatC= 3.34D-08 BMatP= 1.41D-07
 IDIUse=1 WtCom= 1.00D+00 WtEn= 0.00D+00
 Coeff-Com:  0.131D-03-0.228D-03-0.210D-03-0.629D-03 0.423D-03 0.475D-02
 Coeff-Com:  0.239D-01 0.111D+00 0.423D+00 0.438D+00
 Coeff:      0.131D-03-0.228D-03-0.210D-03-0.629D-03 0.423D-03 0.475D-02
 Coeff:      0.239D-01 0.111D+00 0.423D+00 0.438D+00
 Gap=     0.140 Goal=   None    Shift=    0.000
 Gap=     0.140 Goal=   None    Shift=    0.000
 RMSDP=1.30D-06 MaxDP=9.05D-05 DE=-2.17D-08 OVMax= 4.24D-05

 Cycle  11  Pass 1  IDiag  1:
 RMSU=  6.31D-07    CP:  1.00D+00  1.05D+00  6.86D-01  6.64D-01  7.26D-01
                    CP:  8.04D-01  8.18D-01  8.87D-01  9.55D-01  7.00D-01
 E= -609.510788021321     Delta-E=       -0.000000008171 Rises=F Damp=F
 DIIS: error= 1.26D-06 at cycle  11 NSaved=  11.
 NSaved=11 IEnMin=11 EnMin= -609.510788021321     IErMin=11 ErrMin= 1.26D-06
 ErrMax= 1.26D-06  0.00D+00 EMaxC= 1.00D-01 BMatC= 1.43D-09 BMatP= 3.34D-08
 IDIUse=1 WtCom= 1.00D+00 WtEn= 0.00D+00
 Coeff-Com:  0.997D-05-0.136D-04-0.976D-04-0.344D-03-0.701D-03-0.156D-02
 Coeff-Com: -0.139D-02 0.141D-01 0.861D-01 0.194D+00 0.710D+00
 Coeff:      0.997D-05-0.136D-04-0.976D-04-0.344D-03-0.701D-03-0.156D-02
 Coeff:     -0.139D-02 0.141D-01 0.861D-01 0.194D+00 0.710D+00
 Gap=     0.140 Goal=   None    Shift=    0.000
 Gap=     0.140 Goal=   None    Shift=    0.000
 RMSDP=6.70D-07 MaxDP=9.59D-05 DE=-8.17D-09 OVMax= 1.04D-05

 Cycle  12  Pass 1  IDiag  1:
 RMSU=  1.89D-07    CP:  1.00D+00  1.05D+00  6.86D-01  6.64D-01  7.26D-01
                    CP:  8.03D-01  8.21D-01  8.96D-01  9.68D-01  6.82D-01
                    CP:  9.35D-01
 E= -609.510788021635     Delta-E=       -0.000000000314 Rises=F Damp=F
 DIIS: error= 5.35D-07 at cycle  12 NSaved=  12.
 NSaved=12 IEnMin=12 EnMin= -609.510788021635     IErMin=12 ErrMin= 5.35D-07
 ErrMax= 5.35D-07  0.00D+00 EMaxC= 1.00D-01 BMatC= 2.70D-10 BMatP= 1.43D-09
 IDIUse=1 WtCom= 1.00D+00 WtEn= 0.00D+00
 Coeff-Com:  0.996D-06 0.144D-06-0.455D-04-0.167D-03-0.415D-03-0.104D-02
 Coeff-Com: -0.177D-02 0.379D-02 0.306D-01 0.851D-01 0.409D+00 0.475D+00
 Coeff:      0.996D-06 0.144D-06-0.455D-04-0.167D-03-0.415D-03-0.104D-02
 Coeff:     -0.177D-02 0.379D-02 0.306D-01 0.851D-01 0.409D+00 0.475D+00
 Gap=     0.140 Goal=   None    Shift=    0.000
 Gap=     0.140 Goal=   None    Shift=    0.000
 RMSDP=1.13D-07 MaxDP=8.85D-06 DE=-3.14D-10 OVMax= 4.40D-06

 Cycle  13  Pass 1  IDiag  1:
 RMSU=  7.09D-08    CP:  1.00D+00  1.05D+00  6.86D-01  6.64D-01  7.26D-01
                    CP:  8.03D-01  8.21D-01  8.97D-01  9.66D-01  6.92D-01
                    CP:  9.50D-01  8.44D-01
 E= -609.510788021695     Delta-E=       -0.000000000060 Rises=F Damp=F
 DIIS: error= 2.25D-07 at cycle  13 NSaved=  13.
 NSaved=13 IEnMin=13 EnMin= -609.510788021695     IErMin=13 ErrMin= 2.25D-07
 ErrMax= 2.25D-07  0.00D+00 EMaxC= 1.00D-01 BMatC= 4.89D-11 BMatP= 2.70D-10
 IDIUse=1 WtCom= 1.00D+00 WtEn= 0.00D+00
 Coeff-Com: -0.179D-05 0.330D-05-0.644D-05-0.300D-04-0.119D-03-0.330D-03
 Coeff-Com: -0.902D-03-0.849D-03-0.150D-02 0.390D-02 0.973D-01 0.311D+00
 Coeff-Com:  0.592D+00
 Coeff:     -0.179D-05 0.330D-05-0.644D-05-0.300D-04-0.119D-03-0.330D-03
 Coeff:     -0.902D-03-0.849D-03-0.150D-02 0.390D-02 0.973D-01 0.311D+00
 Coeff:      0.592D+00
 Gap=     0.140 Goal=   None    Shift=    0.000
 Gap=     0.140 Goal=   None    Shift=    0.000
 RMSDP=3.62D-08 MaxDP=2.09D-06 DE=-6.01D-11 OVMax= 1.10D-06

 Cycle  14  Pass 1  IDiag  1:
 RMSU=  2.18D-08    CP:  1.00D+00  1.05D+00  6.86D-01  6.64D-01  7.26D-01
                    CP:  8.03D-01  8.21D-01  8.96D-01  9.66D-01  6.92D-01
                    CP:  9.71D-01  8.70D-01  8.04D-01
 E= -609.510788021699     Delta-E=       -0.000000000004 Rises=F Damp=F
 DIIS: error= 6.23D-08 at cycle  14 NSaved=  14.
 NSaved=14 IEnMin=14 EnMin= -609.510788021699     IErMin=14 ErrMin= 6.23D-08
 ErrMax= 6.23D-08  0.00D+00 EMaxC= 1.00D-01 BMatC= 5.81D-12 BMatP= 4.89D-11
 IDIUse=1 WtCom= 1.00D+00 WtEn= 0.00D+00
 Coeff-Com: -0.110D-05 0.185D-05 0.162D-05 0.119D-05-0.263D-04-0.873D-04
 Coeff-Com: -0.387D-03-0.105D-02-0.465D-02-0.850D-02 0.154D-01 0.150D+00
 Coeff-Com:  0.362D+00 0.487D+00
 Coeff:     -0.110D-05 0.185D-05 0.162D-05 0.119D-05-0.263D-04-0.873D-04
 Coeff:     -0.387D-03-0.105D-02-0.465D-02-0.850D-02 0.154D-01 0.150D+00
 Coeff:      0.362D+00 0.487D+00
 Gap=     0.140 Goal=   None    Shift=    0.000
 Gap=     0.140 Goal=   None    Shift=    0.000
 RMSDP=1.46D-08 MaxDP=8.30D-07 DE=-3.98D-12 OVMax= 2.86D-07

 Cycle  15  Pass 1  IDiag  1:
 RMSU=  8.57D-09    CP:  1.00D+00  1.05D+00  6.86D-01  6.64D-01  7.26D-01
                    CP:  8.03D-01  8.21D-01  8.96D-01  9.66D-01  6.92D-01
                    CP:  9.77D-01  8.95D-01  8.08D-01  7.59D-01
 E= -609.510788021694     Delta-E=        0.000000000005 Rises=F Damp=F
 DIIS: error= 1.33D-08 at cycle  15 NSaved=  15.
 NSaved=15 IEnMin=14 EnMin= -609.510788021699     IErMin=15 ErrMin= 1.33D-08
 ErrMax= 1.33D-08  0.00D+00 EMaxC= 1.00D-01 BMatC= 4.02D-13 BMatP= 5.81D-12
 IDIUse=1 WtCom= 1.00D+00 WtEn= 0.00D+00
 Coeff-Com: -0.165D-06 0.317D-06 0.115D-05 0.233D-05-0.125D-05-0.690D-05
 Coeff-Com: -0.769D-04-0.345D-03-0.155D-02-0.428D-02-0.104D-02 0.412D-01
 Coeff-Com:  0.983D-01 0.228D+00 0.640D+00
 Coeff:     -0.165D-06 0.317D-06 0.115D-05 0.233D-05-0.125D-05-0.690D-05
 Coeff:     -0.769D-04-0.345D-03-0.155D-02-0.428D-02-0.104D-02 0.412D-01
 Coeff:      0.983D-01 0.228D+00 0.640D+00
 Gap=     0.140 Goal=   None    Shift=    0.000
 Gap=     0.140 Goal=   None    Shift=    0.000
 RMSDP=6.75D-09 MaxDP=8.20D-07 DE= 5.00D-12 OVMax= 1.98D-07

 Error on total polarization charges =  0.01267
 SCF Done:  E(UB3LYP) =  -609.510788022     A.U. after   15 cycles
            NFock= 15  Conv=0.67D-08     -V/T= 2.0037
 <Sx>= 0.0000 <Sy>= 0.0000 <Sz>= 0.0000 <S**2>=-0.0000 S=-0.0000
 <L.S>=  0.00000000000    
 KE= 6.072534276350D+02 PE=-2.737352333567D+03 EE= 8.650889768345D+02
 Annihilation of the first spin contaminant:
 S**2 before annihilation    -0.0000,   after    -0.0000
 Leave Link  502 at Sat Feb 10 10:33:46 2024, MaxMem=  4026531840 cpu:             648.9 elap:              81.9
 (Enter /sysapps/ubuntu-applications/gaussian/Gaussian/AVX2/g16/l601.exe)
 Copying SCF densities to generalized density rwf, IOpCl= 1 IROHF=0.

 **********************************************************************

            Population analysis using the SCF density.

 **********************************************************************

 Alpha  occ. eigenvalues --  -19.19280 -19.15519 -19.15422 -19.14171 -10.33360
 Alpha  occ. eigenvalues --  -10.30306 -10.29875 -10.23958 -10.23253 -10.22969
 Alpha  occ. eigenvalues --  -10.22194 -10.22068  -1.13572  -1.08771  -1.08346
 Alpha  occ. eigenvalues --   -1.05148  -0.88134  -0.81922  -0.75190  -0.72307
 Alpha  occ. eigenvalues --   -0.66724  -0.63204  -0.58500  -0.55148  -0.53839
 Alpha  occ. eigenvalues --   -0.51602  -0.50514  -0.49827  -0.48796  -0.46430
 Alpha  occ. eigenvalues --   -0.46246  -0.44925  -0.44173  -0.43278  -0.42479
 Alpha  occ. eigenvalues --   -0.41154  -0.38238  -0.33280  -0.33059  -0.32148
 Alpha  occ. eigenvalues --   -0.31016  -0.30372  -0.28814
 Alpha virt. eigenvalues --   -0.14860  -0.05912  -0.02415  -0.00553   0.00016
 Alpha virt. eigenvalues --    0.00573   0.01384   0.02310   0.03128   0.03366
 Alpha virt. eigenvalues --    0.04364   0.04860   0.05447   0.06255   0.06863
 Alpha virt. eigenvalues --    0.07811   0.08349   0.09470   0.09649   0.10830
 Alpha virt. eigenvalues --    0.10948   0.11238   0.11532   0.11787   0.12388
 Alpha virt. eigenvalues --    0.12464   0.12796   0.13602   0.13933   0.14226
 Alpha virt. eigenvalues --    0.14791   0.15204   0.16171   0.16461   0.17014
 Alpha virt. eigenvalues --    0.17436   0.17824   0.18232   0.19289   0.20102
 Alpha virt. eigenvalues --    0.20650   0.20945   0.21385   0.21913   0.22383
 Alpha virt. eigenvalues --    0.23961   0.24496   0.25063   0.25719   0.26277
 Alpha virt. eigenvalues --    0.27082   0.27869   0.28451   0.28947   0.29154
 Alpha virt. eigenvalues --    0.29537   0.30563   0.31102   0.31533   0.31964
 Alpha virt. eigenvalues --    0.32346   0.33443   0.33603   0.35105   0.35381
 Alpha virt. eigenvalues --    0.36022   0.36717   0.37122   0.37579   0.38382
 Alpha virt. eigenvalues --    0.39046   0.40221   0.40862   0.42532   0.47107
 Alpha virt. eigenvalues --    0.48930   0.50591   0.51463   0.51906   0.52685
 Alpha virt. eigenvalues --    0.54231   0.55995   0.57448   0.57785   0.58277
 Alpha virt. eigenvalues --    0.60074   0.60771   0.62415   0.63210   0.63866
 Alpha virt. eigenvalues --    0.64191   0.66030   0.66714   0.68061   0.68326
 Alpha virt. eigenvalues --    0.69397   0.71355   0.73033   0.75122   0.76434
 Alpha virt. eigenvalues --    0.78019   0.79726   0.82383   0.83513   0.84631
 Alpha virt. eigenvalues --    0.86631   0.88021   0.88452   0.90336   0.91201
 Alpha virt. eigenvalues --    0.95508   0.96872   0.97723   0.99005   1.01233
 Alpha virt. eigenvalues --    1.02771   1.04914   1.06211   1.07279   1.09221
 Alpha virt. eigenvalues --    1.11332   1.15084   1.16501   1.17246   1.17477
 Alpha virt. eigenvalues --    1.18099   1.20389   1.21237   1.23160   1.24441
 Alpha virt. eigenvalues --    1.26262   1.27428   1.29252   1.31621   1.33609
 Alpha virt. eigenvalues --    1.37489   1.41007   1.43212   1.43875   1.46075
 Alpha virt. eigenvalues --    1.47714   1.49104   1.52433   1.52931   1.55469
 Alpha virt. eigenvalues --    1.57249   1.59144   1.60810   1.62063   1.64159
 Alpha virt. eigenvalues --    1.65949   1.67813   1.68951   1.70459   1.72315
 Alpha virt. eigenvalues --    1.72960   1.74938   1.77100   1.78722   1.79617
 Alpha virt. eigenvalues --    1.80944   1.82205   1.88442   1.90612   1.91630
 Alpha virt. eigenvalues --    1.94461   1.94848   1.96636   1.99451   2.04665
 Alpha virt. eigenvalues --    2.07186   2.10349   2.10836   2.12761   2.15879
 Alpha virt. eigenvalues --    2.17039   2.20999   2.22617   2.23737   2.37813
 Alpha virt. eigenvalues --    2.44024   2.45446   2.48995   2.50125   2.51726
 Alpha virt. eigenvalues --    2.55100   2.56474   2.59144   2.61268   2.62080
 Alpha virt. eigenvalues --    2.66814   2.68074   2.70004   2.70930   2.71488
 Alpha virt. eigenvalues --    2.73407   2.79266   2.80174   2.81280   2.83105
 Alpha virt. eigenvalues --    2.86074   2.87395   2.88560   2.89798   2.91527
 Alpha virt. eigenvalues --    2.94163   2.98410   2.99314   3.02820   3.03580
 Alpha virt. eigenvalues --    3.07579   3.10187   3.15634   3.17232   3.17892
 Alpha virt. eigenvalues --    3.21805   3.27435   3.31094   3.33271   3.37253
 Alpha virt. eigenvalues --    3.40042   3.43620   3.51262   3.56135   3.57705
 Alpha virt. eigenvalues --    3.59361   3.63092   3.67784   3.75330   3.77157
 Alpha virt. eigenvalues --    3.83839   4.00201   4.01391   4.05219   4.08086
 Alpha virt. eigenvalues --    4.10665   4.15358   4.23704   4.66428   5.01248
 Alpha virt. eigenvalues --    5.02540   5.03415   5.06458   5.17030   5.18520
 Alpha virt. eigenvalues --    5.21631   5.34165   5.59481   5.67758   5.74922
 Alpha virt. eigenvalues --    5.82955  23.62319  23.73083  23.80550  23.84562
 Alpha virt. eigenvalues --   23.88048  23.92021  24.15882  24.21879  49.86511
 Alpha virt. eigenvalues --   49.96602  49.98702  50.00834
  Beta  occ. eigenvalues --  -19.19280 -19.15519 -19.15422 -19.14171 -10.33360
  Beta  occ. eigenvalues --  -10.30306 -10.29875 -10.23958 -10.23253 -10.22969
  Beta  occ. eigenvalues --  -10.22194 -10.22068  -1.13572  -1.08771  -1.08346
  Beta  occ. eigenvalues --   -1.05148  -0.88134  -0.81922  -0.75190  -0.72307
  Beta  occ. eigenvalues --   -0.66724  -0.63204  -0.58500  -0.55148  -0.53839
  Beta  occ. eigenvalues --   -0.51602  -0.50514  -0.49827  -0.48796  -0.46430
  Beta  occ. eigenvalues --   -0.46246  -0.44925  -0.44173  -0.43278  -0.42479
  Beta  occ. eigenvalues --   -0.41154  -0.38238  -0.33280  -0.33059  -0.32148
  Beta  occ. eigenvalues --   -0.31016  -0.30372  -0.28814
  Beta virt. eigenvalues --   -0.14860  -0.05912  -0.02415  -0.00553   0.00016
  Beta virt. eigenvalues --    0.00573   0.01384   0.02310   0.03128   0.03366
  Beta virt. eigenvalues --    0.04364   0.04860   0.05447   0.06255   0.06863
  Beta virt. eigenvalues --    0.07811   0.08349   0.09470   0.09649   0.10830
  Beta virt. eigenvalues --    0.10948   0.11238   0.11532   0.11787   0.12388
  Beta virt. eigenvalues --    0.12464   0.12796   0.13602   0.13933   0.14226
  Beta virt. eigenvalues --    0.14791   0.15204   0.16171   0.16461   0.17014
  Beta virt. eigenvalues --    0.17436   0.17824   0.18232   0.19289   0.20102
  Beta virt. eigenvalues --    0.20650   0.20945   0.21385   0.21913   0.22383
  Beta virt. eigenvalues --    0.23961   0.24496   0.25063   0.25719   0.26277
  Beta virt. eigenvalues --    0.27082   0.27869   0.28451   0.28947   0.29154
  Beta virt. eigenvalues --    0.29537   0.30563   0.31102   0.31533   0.31964
  Beta virt. eigenvalues --    0.32346   0.33443   0.33603   0.35105   0.35381
  Beta virt. eigenvalues --    0.36022   0.36717   0.37122   0.37579   0.38382
  Beta virt. eigenvalues --    0.39046   0.40221   0.40862   0.42532   0.47107
  Beta virt. eigenvalues --    0.48930   0.50591   0.51463   0.51906   0.52685
  Beta virt. eigenvalues --    0.54231   0.55995   0.57448   0.57785   0.58277
  Beta virt. eigenvalues --    0.60074   0.60771   0.62415   0.63210   0.63866
  Beta virt. eigenvalues --    0.64191   0.66030   0.66714   0.68061   0.68326
  Beta virt. eigenvalues --    0.69397   0.71355   0.73033   0.75122   0.76434
  Beta virt. eigenvalues --    0.78019   0.79726   0.82383   0.83513   0.84631
  Beta virt. eigenvalues --    0.86631   0.88021   0.88452   0.90336   0.91201
  Beta virt. eigenvalues --    0.95508   0.96872   0.97723   0.99005   1.01233
  Beta virt. eigenvalues --    1.02771   1.04914   1.06211   1.07279   1.09221
  Beta virt. eigenvalues --    1.11332   1.15084   1.16501   1.17246   1.17477
  Beta virt. eigenvalues --    1.18099   1.20389   1.21237   1.23160   1.24441
  Beta virt. eigenvalues --    1.26262   1.27428   1.29252   1.31621   1.33609
  Beta virt. eigenvalues --    1.37489   1.41007   1.43212   1.43875   1.46075
  Beta virt. eigenvalues --    1.47714   1.49104   1.52433   1.52931   1.55469
  Beta virt. eigenvalues --    1.57249   1.59144   1.60810   1.62063   1.64159
  Beta virt. eigenvalues --    1.65949   1.67813   1.68951   1.70459   1.72315
  Beta virt. eigenvalues --    1.72960   1.74938   1.77100   1.78722   1.79617
  Beta virt. eigenvalues --    1.80944   1.82205   1.88442   1.90612   1.91630
  Beta virt. eigenvalues --    1.94461   1.94848   1.96636   1.99451   2.04665
  Beta virt. eigenvalues --    2.07186   2.10349   2.10836   2.12761   2.15879
  Beta virt. eigenvalues --    2.17039   2.20999   2.22617   2.23737   2.37813
  Beta virt. eigenvalues --    2.44024   2.45446   2.48995   2.50125   2.51726
  Beta virt. eigenvalues --    2.55100   2.56474   2.59144   2.61268   2.62080
  Beta virt. eigenvalues --    2.66814   2.68074   2.70004   2.70930   2.71488
  Beta virt. eigenvalues --    2.73407   2.79266   2.80174   2.81280   2.83105
  Beta virt. eigenvalues --    2.86074   2.87395   2.88560   2.89798   2.91527
  Beta virt. eigenvalues --    2.94163   2.98410   2.99314   3.02820   3.03580
  Beta virt. eigenvalues --    3.07579   3.10187   3.15634   3.17232   3.17892
  Beta virt. eigenvalues --    3.21805   3.27435   3.31094   3.33271   3.37253
  Beta virt. eigenvalues --    3.40042   3.43620   3.51262   3.56135   3.57705
  Beta virt. eigenvalues --    3.59361   3.63092   3.67784   3.75330   3.77157
  Beta virt. eigenvalues --    3.83839   4.00201   4.01391   4.05219   4.08086
  Beta virt. eigenvalues --    4.10665   4.15358   4.23704   4.66428   5.01248
  Beta virt. eigenvalues --    5.02540   5.03415   5.06458   5.17030   5.18520
  Beta virt. eigenvalues --    5.21631   5.34165   5.59481   5.67758   5.74922
  Beta virt. eigenvalues --    5.82955  23.62319  23.73083  23.80550  23.84562
  Beta virt. eigenvalues --   23.88048  23.92021  24.15882  24.21879  49.86511
  Beta virt. eigenvalues --   49.96602  49.98702  50.00834
          Condensed to atoms (all electrons):
               1          2          3          4          5          6
     1  C   12.640980  -3.275816   1.600721  -1.328902  -0.246438  -2.197665
     2  C   -3.275816  10.061202  -2.287871   1.571856   0.144938   0.071230
     3  C    1.600721  -2.287871   8.632492  -1.324325  -0.752467  -0.830888
     4  C   -1.328902   1.571856  -1.324325   7.665826  -1.277075   1.093498
     5  C   -0.246438   0.144938  -0.752467  -1.277075  13.183785  -3.976035
     6  C   -2.197665   0.071230  -0.830888   1.093498  -3.976035  16.857948
     7  O    0.323476  -0.078410  -0.028584   0.015983  -0.107238  -0.025413
     8  O   -0.014174  -0.025633  -0.099513   0.429090  -0.122666  -0.038335
     9  H   -0.091268   0.447533  -0.047936   0.037614   0.039942  -0.027333
    10  H    0.041345  -0.027162   0.432354  -0.091649  -0.074348   0.046910
    11  H    0.101158  -0.005949  -0.051480  -0.167032   0.502532   0.053510
    12  C   -0.629152  -0.733695   0.517035  -0.263365  -0.889155  -5.656471
    13  O   -0.064993   0.017354  -0.001051   0.024819   0.047324   0.120287
    14  O   -0.046206   0.031323  -0.007654   0.051789   0.004593  -0.311968
    15  C    0.024051  -0.007480   0.009373  -0.006376  -0.009784  -0.412057
    16  H   -0.000253  -0.000876   0.000205   0.001361  -0.005600  -0.017803
    17  H   -0.027507   0.002332  -0.000345   0.001379   0.031509  -0.004451
    18  H    0.016287  -0.000608   0.000160  -0.000378  -0.036411   0.044028
               7          8          9         10         11         12
     1  C    0.323476  -0.014174  -0.091268   0.041345   0.101158  -0.629152
     2  C   -0.078410  -0.025633   0.447533  -0.027162  -0.005949  -0.733695
     3  C   -0.028584  -0.099513  -0.047936   0.432354  -0.051480   0.517035
     4  C    0.015983   0.429090   0.037614  -0.091649  -0.167032  -0.263365
     5  C   -0.107238  -0.122666   0.039942  -0.074348   0.502532  -0.889155
     6  C   -0.025413  -0.038335  -0.027333   0.046910   0.053510  -5.656471
     7  O    8.129056   0.000420  -0.014155   0.000532  -0.002071   0.042285
     8  O    0.000420   8.144943   0.000632  -0.011151  -0.011055   0.017680
     9  H   -0.014155   0.000632   0.449639  -0.014683   0.001781  -0.030475
    10  H    0.000532  -0.011151  -0.014683   0.452871  -0.002816  -0.003616
    11  H   -0.002071  -0.011055   0.001781  -0.002816   0.455677  -0.103330
    12  C    0.042285   0.017680  -0.030475  -0.003616  -0.103330  13.228872
    13  O   -0.002983   0.000086   0.000120   0.000036  -0.002126   0.249382
    14  O   -0.005390   0.000365   0.000119  -0.000189  -0.007102   0.114882
    15  C   -0.001138   0.000194  -0.000348  -0.000036  -0.006494   0.183594
    16  H   -0.000076  -0.000012  -0.000029  -0.000007  -0.001082   0.046677
    17  H   -0.000429   0.000014  -0.000000  -0.000003   0.000374  -0.019702
    18  H   -0.000239  -0.000019   0.000001   0.000014  -0.001464  -0.046444
              13         14         15         16         17         18
     1  C   -0.064993  -0.046206   0.024051  -0.000253  -0.027507   0.016287
     2  C    0.017354   0.031323  -0.007480  -0.000876   0.002332  -0.000608
     3  C   -0.001051  -0.007654   0.009373   0.000205  -0.000345   0.000160
     4  C    0.024819   0.051789  -0.006376   0.001361   0.001379  -0.000378
     5  C    0.047324   0.004593  -0.009784  -0.005600   0.031509  -0.036411
     6  C    0.120287  -0.311968  -0.412057  -0.017803  -0.004451   0.044028
     7  O   -0.002983  -0.005390  -0.001138  -0.000076  -0.000429  -0.000239
     8  O    0.000086   0.000365   0.000194  -0.000012   0.000014  -0.000019
     9  H    0.000120   0.000119  -0.000348  -0.000029  -0.000000   0.000001
    10  H    0.000036  -0.000189  -0.000036  -0.000007  -0.000003   0.000014
    11  H   -0.002126  -0.007102  -0.006494  -0.001082   0.000374  -0.001464
    12  C    0.249382   0.114882   0.183594   0.046677  -0.019702  -0.046444
    13  O    8.068034  -0.142338  -0.032040   0.003299  -0.010077  -0.005293
    14  O   -0.142338   8.250157   0.237320  -0.058704  -0.027072  -0.026456
    15  C   -0.032040   0.237320   5.072244   0.400144   0.408162   0.406863
    16  H    0.003299  -0.058704   0.400144   0.506234  -0.025142  -0.026363
    17  H   -0.010077  -0.027072   0.408162  -0.025142   0.533214  -0.049412
    18  H   -0.005293  -0.026456   0.406863  -0.026363  -0.049412   0.532687
          Atomic-Atomic Spin Densities.
               1          2          3          4          5          6
     1  C   -0.000000   0.000000  -0.000000   0.000000  -0.000000   0.000000
     2  C    0.000000  -0.000000   0.000000  -0.000000   0.000000  -0.000000
     3  C   -0.000000   0.000000  -0.000000   0.000000  -0.000000   0.000000
     4  C    0.000000  -0.000000   0.000000  -0.000000   0.000000  -0.000000
     5  C   -0.000000   0.000000  -0.000000   0.000000  -0.000000   0.000000
     6  C    0.000000  -0.000000   0.000000  -0.000000   0.000000  -0.000000
     7  O    0.000000  -0.000000   0.000000  -0.000000   0.000000  -0.000000
     8  O   -0.000000   0.000000  -0.000000   0.000000  -0.000000   0.000000
     9  H    0.000000  -0.000000   0.000000  -0.000000  -0.000000  -0.000000
    10  H    0.000000   0.000000  -0.000000   0.000000   0.000000   0.000000
    11  H    0.000000  -0.000000   0.000000  -0.000000  -0.000000   0.000000
    12  C   -0.000000   0.000000  -0.000000   0.000000   0.000000   0.000000
    13  O    0.000000   0.000000  -0.000000   0.000000  -0.000000   0.000000
    14  O   -0.000000   0.000000  -0.000000   0.000000  -0.000000   0.000000
    15  C   -0.000000   0.000000  -0.000000   0.000000  -0.000000   0.000000
    16  H    0.000000   0.000000  -0.000000  -0.000000   0.000000   0.000000
    17  H   -0.000000   0.000000  -0.000000   0.000000  -0.000000  -0.000000
    18  H    0.000000  -0.000000   0.000000  -0.000000   0.000000   0.000000
               7          8          9         10         11         12
     1  C    0.000000  -0.000000   0.000000   0.000000   0.000000  -0.000000
     2  C   -0.000000   0.000000  -0.000000   0.000000  -0.000000   0.000000
     3  C    0.000000  -0.000000   0.000000  -0.000000   0.000000  -0.000000
     4  C   -0.000000   0.000000  -0.000000   0.000000  -0.000000   0.000000
     5  C    0.000000  -0.000000  -0.000000   0.000000  -0.000000   0.000000
     6  C   -0.000000   0.000000  -0.000000   0.000000   0.000000   0.000000
     7  O   -0.000000   0.000000  -0.000000   0.000000   0.000000   0.000000
     8  O    0.000000  -0.000000   0.000000  -0.000000  -0.000000  -0.000000
     9  H   -0.000000   0.000000  -0.000000   0.000000  -0.000000   0.000000
    10  H    0.000000  -0.000000   0.000000  -0.000000   0.000000  -0.000000
    11  H    0.000000  -0.000000  -0.000000   0.000000  -0.000000   0.000000
    12  C    0.000000  -0.000000   0.000000  -0.000000   0.000000  -0.000000
    13  O    0.000000  -0.000000   0.000000  -0.000000  -0.000000   0.000000
    14  O    0.000000  -0.000000   0.000000  -0.000000  -0.000000   0.000000
    15  C    0.000000  -0.000000   0.000000  -0.000000   0.000000  -0.000000
    16  H    0.000000  -0.000000   0.000000  -0.000000   0.000000  -0.000000
    17  H    0.000000  -0.000000  -0.000000  -0.000000  -0.000000   0.000000
    18  H   -0.000000   0.000000   0.000000   0.000000   0.000000  -0.000000
              13         14         15         16         17         18
     1  C    0.000000  -0.000000  -0.000000   0.000000  -0.000000   0.000000
     2  C    0.000000   0.000000   0.000000   0.000000   0.000000  -0.000000
     3  C   -0.000000  -0.000000  -0.000000  -0.000000  -0.000000   0.000000
     4  C    0.000000   0.000000   0.000000  -0.000000   0.000000  -0.000000
     5  C   -0.000000  -0.000000  -0.000000   0.000000  -0.000000   0.000000
     6  C    0.000000   0.000000   0.000000   0.000000  -0.000000   0.000000
     7  O    0.000000   0.000000   0.000000   0.000000   0.000000  -0.000000
     8  O   -0.000000  -0.000000  -0.000000  -0.000000  -0.000000   0.000000
     9  H    0.000000   0.000000   0.000000   0.000000  -0.000000   0.000000
    10  H   -0.000000  -0.000000  -0.000000  -0.000000  -0.000000   0.000000
    11  H   -0.000000  -0.000000   0.000000   0.000000  -0.000000   0.000000
    12  C    0.000000   0.000000  -0.000000  -0.000000   0.000000  -0.000000
    13  O    0.000000   0.000000  -0.000000  -0.000000  -0.000000   0.000000
    14  O    0.000000  -0.000000   0.000000   0.000000  -0.000000   0.000000
    15  C   -0.000000   0.000000  -0.000000  -0.000000   0.000000  -0.000000
    16  H   -0.000000   0.000000  -0.000000  -0.000000   0.000000  -0.000000
    17  H   -0.000000  -0.000000   0.000000   0.000000  -0.000000   0.000000
    18  H    0.000000   0.000000  -0.000000  -0.000000   0.000000   0.000000
 Mulliken charges and spin densities:
               1          2
     1  C   -0.825644   0.000000
     2  C    0.095733   0.000000
     3  C    0.239776  -0.000000
     4  C   -0.434113   0.000000
     5  C   -0.457406  -0.000000
     6  C    1.211008   0.000000
     7  O   -0.245627   0.000000
     8  O   -0.270863   0.000000
     9  H    0.248847   0.000000
    10  H    0.251598  -0.000000
    11  H    0.246968   0.000000
    12  C   -0.025004   0.000000
    13  O   -0.269839  -0.000000
    14  O   -0.057469  -0.000000
    15  C   -0.266193  -0.000000
    16  H    0.178025  -0.000000
    17  H    0.187154   0.000000
    18  H    0.193047   0.000000
 Sum of Mulliken charges =  -0.00000   0.00000
 Mulliken charges and spin densities with hydrogens summed into heavy atoms:
               1          2
     1  C   -0.825644   0.000000
     2  C    0.344580   0.000000
     3  C    0.491374  -0.000000
     4  C   -0.434113   0.000000
     5  C   -0.210438  -0.000000
     6  C    1.211008   0.000000
     7  O   -0.245627   0.000000
     8  O   -0.270863   0.000000
    12  C   -0.025004   0.000000
    13  O   -0.269839  -0.000000
    14  O   -0.057469  -0.000000
    15  C    0.292034  -0.000000
 Electronic spatial extent (au):  <R**2>=          14925.7914
 Charge=             -0.0000 electrons
 Dipole moment (field-independent basis, Debye):
    X=             -1.5161    Y=             -0.1213    Z=             -1.2664  Tot=              1.9792
 Quadrupole moment (field-independent basis, Debye-Ang):
   XX=            -54.5103   YY=            -78.7544   ZZ=            -91.8336
   XY=             -9.8126   XZ=            -22.8703   YZ=            -13.4787
 Traceless Quadrupole moment (field-independent basis, Debye-Ang):
   XX=             20.5225   YY=             -3.7217   ZZ=            -16.8008
   XY=             -9.8126   XZ=            -22.8703   YZ=            -13.4787
 Octapole moment (field-independent basis, Debye-Ang**2):
  XXX=           -119.8135  YYY=           -724.2260  ZZZ=          -1414.0874  XYY=           -109.8962
  XXY=           -174.2122  XXZ=           -314.0684  XZZ=           -263.3635  YZZ=           -368.4501
  YYZ=           -484.5034  XYZ=           -114.4248
 Hexadecapole moment (field-independent basis, Debye-Ang**3):
 XXXX=          -1112.5244 YYYY=          -5085.7102 ZZZZ=         -16495.6625 XXXY=           -363.6642
 XXXZ=           -464.2592 YYYX=           -757.5521 YYYZ=          -4452.4417 ZZZX=          -2255.0797
 ZZZY=          -5241.0586 XXYY=           -883.5523 XXZZ=          -2133.1446 YYZZ=          -3921.4661
 XXYZ=          -1085.7063 YYXZ=           -738.2100 ZZXY=          -1135.8721
 N-N= 6.554991410756D+02 E-N=-2.737352334107D+03  KE= 6.072534276350D+02
                          Isotropic Fermi Contact Couplings
        Atom                 a.u.       MegaHertz       Gauss      10(-4) cm-1
     1  C(13)             -0.00000      -0.00000      -0.00000      -0.00000
     2  C(13)              0.00000       0.00000       0.00000       0.00000
     3  C(13)             -0.00000      -0.00000      -0.00000      -0.00000
     4  C(13)              0.00000       0.00000       0.00000       0.00000
     5  C(13)              0.00000       0.00000       0.00000       0.00000
     6  C(13)             -0.00000      -0.00000      -0.00000      -0.00000
     7  O(17)              0.00000      -0.00000      -0.00000      -0.00000
     8  O(17)              0.00000      -0.00000      -0.00000      -0.00000
     9  H(1)              -0.00000      -0.00000      -0.00000      -0.00000
    10  H(1)              -0.00000      -0.00000      -0.00000      -0.00000
    11  H(1)               0.00000       0.00000       0.00000       0.00000
    12  C(13)              0.00000       0.00000       0.00000       0.00000
    13  O(17)              0.00000      -0.00000      -0.00000      -0.00000
    14  O(17)              0.00000      -0.00000      -0.00000      -0.00000
    15  C(13)              0.00000       0.00000       0.00000       0.00000
    16  H(1)               0.00000       0.00000       0.00000       0.00000
    17  H(1)               0.00000       0.00000       0.00000       0.00000
    18  H(1)               0.00000       0.00000       0.00000       0.00000
 --------------------------------------------------------
       Center         ----  Spin Dipole Couplings  ----
                      3XX-RR        3YY-RR        3ZZ-RR
 --------------------------------------------------------
     1   Atom       -0.000000      0.000000     -0.000000
     2   Atom       -0.000000     -0.000000      0.000000
     3   Atom        0.000000     -0.000000     -0.000000
     4   Atom        0.000000     -0.000000      0.000000
     5   Atom        0.000000     -0.000000      0.000000
     6   Atom       -0.000000     -0.000000      0.000000
     7   Atom       -0.000000      0.000000     -0.000000
     8   Atom       -0.000000      0.000000     -0.000000
     9   Atom        0.000000     -0.000000     -0.000000
    10   Atom       -0.000000     -0.000000      0.000000
    11   Atom       -0.000000      0.000000      0.000000
    12   Atom        0.000000     -0.000000      0.000000
    13   Atom       -0.000000      0.000000      0.000000
    14   Atom       -0.000000      0.000000     -0.000000
    15   Atom       -0.000000      0.000000      0.000000
    16   Atom       -0.000000      0.000000      0.000000
    17   Atom       -0.000000      0.000000      0.000000
    18   Atom        0.000000     -0.000000     -0.000000
 --------------------------------------------------------
                        XY            XZ            YZ
 --------------------------------------------------------
     1   Atom        0.000000      0.000000      0.000000
     2   Atom       -0.000000      0.000000      0.000000
     3   Atom       -0.000000      0.000000      0.000000
     4   Atom       -0.000000     -0.000000     -0.000000
     5   Atom       -0.000000     -0.000000     -0.000000
     6   Atom        0.000000      0.000000     -0.000000
     7   Atom       -0.000000      0.000000      0.000000
     8   Atom       -0.000000     -0.000000      0.000000
     9   Atom        0.000000     -0.000000     -0.000000
    10   Atom       -0.000000     -0.000000      0.000000
    11   Atom       -0.000000      0.000000     -0.000000
    12   Atom        0.000000     -0.000000     -0.000000
    13   Atom       -0.000000     -0.000000      0.000000
    14   Atom       -0.000000      0.000000     -0.000000
    15   Atom        0.000000     -0.000000     -0.000000
    16   Atom        0.000000     -0.000000     -0.000000
    17   Atom        0.000000     -0.000000     -0.000000
    18   Atom       -0.000000      0.000000     -0.000000
 --------------------------------------------------------


 ---------------------------------------------------------------------------------
              Anisotropic Spin Dipole Couplings in Principal Axis System
 ---------------------------------------------------------------------------------

       Atom             a.u.   MegaHertz   Gauss  10(-4) cm-1        Axes

              Baa    -0.0000    -0.000    -0.000    -0.000  0.7026 -0.1321 -0.6993
     1 C(13)  Bbb    -0.0000    -0.000    -0.000    -0.000 -0.2603  0.8668 -0.4253
              Bcc     0.0000     0.000     0.000     0.000  0.6623  0.4808  0.5746
 
              Baa    -0.0000    -0.000    -0.000    -0.000  0.9206  0.3364 -0.1983
     2 C(13)  Bbb     0.0000     0.000     0.000     0.000 -0.3237  0.9415  0.0942
              Bcc     0.0000     0.000     0.000     0.000  0.2184 -0.0225  0.9756
 
              Baa    -0.0000    -0.000    -0.000    -0.000  0.3859  0.8602 -0.3335
     3 C(13)  Bbb    -0.0000    -0.000    -0.000    -0.000 -0.0519  0.3811  0.9231
              Bcc     0.0000     0.000     0.000     0.000  0.9211 -0.3389  0.1917
 
              Baa    -0.0000    -0.000    -0.000    -0.000  0.3577  0.8985  0.2545
     4 C(13)  Bbb     0.0000     0.000     0.000     0.000  0.9268 -0.3749  0.0211
              Bcc     0.0000     0.000     0.000     0.000 -0.1143 -0.2283  0.9669
 
              Baa    -0.0000    -0.000    -0.000    -0.000  0.3579  0.9199  0.1606
     5 C(13)  Bbb     0.0000     0.000     0.000     0.000 -0.0499 -0.1529  0.9870
              Bcc     0.0000     0.000     0.000     0.000  0.9324 -0.3613 -0.0088
 
              Baa    -0.0000    -0.000    -0.000    -0.000  0.8815 -0.3217 -0.3457
     6 C(13)  Bbb     0.0000     0.000     0.000     0.000  0.3967  0.9015  0.1726
              Bcc     0.0000     0.000     0.000     0.000  0.2562 -0.2894  0.9223
 
              Baa    -0.0000     0.000     0.000     0.000  0.9107  0.1415 -0.3882
     7 O(17)  Bbb     0.0000    -0.000    -0.000    -0.000  0.3747  0.1130  0.9202
              Bcc     0.0000    -0.000    -0.000    -0.000 -0.1741  0.9835 -0.0499
 
              Baa    -0.0000     0.000     0.000     0.000  0.1401 -0.5309  0.8358
     8 O(17)  Bbb    -0.0000     0.000     0.000     0.000  0.9003  0.4197  0.1157
              Bcc     0.0000    -0.000    -0.000    -0.000 -0.4121  0.7362  0.5368
 
              Baa    -0.0000    -0.000    -0.000    -0.000 -0.0707  0.3051  0.9497
     9 H(1)   Bbb    -0.0000    -0.000    -0.000    -0.000 -0.4885  0.8195 -0.2997
              Bcc     0.0000     0.000     0.000     0.000  0.8697  0.4851 -0.0911
 
              Baa    -0.0000    -0.000    -0.000    -0.000  0.6229  0.7546 -0.2064
    10 H(1)   Bbb     0.0000     0.000     0.000     0.000  0.6415 -0.3417  0.6868
              Bcc     0.0000     0.000     0.000     0.000 -0.4478  0.5603  0.6969
 
              Baa    -0.0000    -0.000    -0.000    -0.000  0.9768  0.2116 -0.0341
    11 H(1)   Bbb     0.0000     0.000     0.000     0.000 -0.0663  0.4495  0.8908
              Bcc     0.0000     0.000     0.000     0.000 -0.2039  0.8678 -0.4531
 
              Baa    -0.0000    -0.000    -0.000    -0.000 -0.2042  0.8780  0.4329
    12 C(13)  Bbb    -0.0000    -0.000    -0.000    -0.000  0.7372 -0.1530  0.6581
              Bcc     0.0000     0.000     0.000     0.000  0.6440  0.4535 -0.6161
 
              Baa    -0.0000     0.000     0.000     0.000  0.9014  0.3716  0.2221
    13 O(17)  Bbb     0.0000    -0.000    -0.000    -0.000 -0.3036  0.9083 -0.2876
              Bcc     0.0000    -0.000    -0.000    -0.000 -0.3086  0.1918  0.9316
 
              Baa    -0.0000     0.000     0.000     0.000 -0.5096 -0.0006  0.8604
    14 O(17)  Bbb     0.0000    -0.000    -0.000    -0.000  0.8086  0.3414  0.4792
              Bcc     0.0000    -0.000    -0.000    -0.000 -0.2940  0.9399 -0.1735
 
              Baa    -0.0000    -0.000    -0.000    -0.000  0.8190 -0.4356  0.3736
    15 C(13)  Bbb     0.0000     0.000     0.000     0.000  0.1555  0.7951  0.5862
              Bcc     0.0000     0.000     0.000     0.000 -0.5524 -0.4220  0.7189
 
              Baa    -0.0000    -0.000    -0.000    -0.000  0.8937 -0.1232  0.4315
    16 H(1)   Bbb     0.0000     0.000     0.000     0.000 -0.2263  0.7066  0.6704
              Bcc     0.0000     0.000     0.000     0.000  0.3875  0.6968 -0.6036
 
              Baa    -0.0000    -0.000    -0.000    -0.000  0.9773 -0.1906  0.0923
    17 H(1)   Bbb     0.0000     0.000     0.000     0.000  0.1344  0.8951  0.4251
              Bcc     0.0000     0.000     0.000     0.000 -0.1636 -0.4031  0.9004
 
              Baa    -0.0000    -0.000    -0.000    -0.000  0.0826  0.7678  0.6353
    18 H(1)   Bbb    -0.0000    -0.000    -0.000    -0.000 -0.4540 -0.5385  0.7098
              Bcc     0.0000     0.000     0.000     0.000  0.8871 -0.3471  0.3041
 

 ---------------------------------------------------------------------------------

 No NMR shielding tensors so no spin-rotation constants.
 Leave Link  601 at Sat Feb 10 10:33:47 2024, MaxMem=  4026531840 cpu:               4.8 elap:               1.3
 (Enter /sysapps/ubuntu-applications/gaussian/Gaussian/AVX2/g16/l701.exe)
 ... and contract with generalized density number  0.
 Compute integral first derivatives.
 D1PCM: PCM CHGder 1st derivatives, ID1Alg=3 FixD1E=F DoIter=F DoCFld=F I1PDM=0.
 GePol: Maximum number of non-zero 1st derivatives   =     222
 Leave Link  701 at Sat Feb 10 10:33:50 2024, MaxMem=  4026531840 cpu:              19.6 elap:               3.5
 (Enter /sysapps/ubuntu-applications/gaussian/Gaussian/AVX2/g16/l702.exe)
 L702 exits ... SP integral derivatives will be done elsewhere.
 Leave Link  702 at Sat Feb 10 10:33:51 2024, MaxMem=  4026531840 cpu:               0.3 elap:               0.1
 (Enter /sysapps/ubuntu-applications/gaussian/Gaussian/AVX2/g16/l703.exe)
 Integral derivatives from FoFJK, PRISM(SPDF).
 Compute integral first derivatives, UseDBF=F ICtDFT=           0.
 Calling FoFJK, ICntrl=      2127 FMM=F ISym2X=0 I1Cent= 0 IOpClX= 1 NMat=1 NMatS=1 NMatT=0.
 FoFJK:  IHMeth= 1 ICntrl=    2127 DoSepK=F KAlg= 0 I1Cent=           0 FoldK=F
 IRaf=         0 NMat=       1 IRICut=       1 DoRegI=T DoRafI=F ISym2E= 0 IDoP0=0 IntGTp=1.
 FoFCou: FMM=F IPFlag=           0 FMFlag=      100000 FMFlg1=         800
         NFxFlg=           0 DoJE=F BraDBF=F KetDBF=F FulRan=T
         wScrn=  0.000000 ICntrl=      2127 IOpCl=  1 I1Cent=           0 NGrid=           0
         NMat0=    1 NMatS0=      1 NMatT0=    0 NMatD0=    1 NMtDS0=    0 NMtDT0=    0
 Symmetry not used in FoFCou.
 Leave Link  703 at Sat Feb 10 10:34:06 2024, MaxMem=  4026531840 cpu:             117.0 elap:              15.9
 (Enter /sysapps/ubuntu-applications/gaussian/Gaussian/AVX2/g16/l716.exe)
 Dipole        =-5.96490182D-01-4.77422022D-02-4.98240144D-01
 -------------------------------------------------------------------
 Center     Atomic                   Forces (Hartrees/Bohr)
 Number     Number              X              Y              Z
 -------------------------------------------------------------------
      1        6          -0.000903800   -0.005968662   -0.005227480
      2        6          -0.000254255    0.000932429    0.000866997
      3        6          -0.000652574   -0.001018006   -0.000453233
      4        6           0.002973200    0.005028161    0.002952931
      5        6          -0.001401460   -0.000265740    0.000182437
      6        6           0.000883200    0.000254187    0.000356339
      7        8           0.000956798    0.004025879    0.003745590
      8        8          -0.001461494   -0.003010966   -0.002185158
      9        1          -0.000016910   -0.000562115   -0.000568601
     10        1           0.000372685    0.000614729    0.000419682
     11        1           0.000079203    0.000073251    0.000583673
     12        6          -0.007743946   -0.000952375   -0.009909917
     13        8           0.003034611    0.001087553    0.006716010
     14        8           0.006979507   -0.000655742    0.001366424
     15        6          -0.002487646    0.000383082    0.002025478
     16        1           0.000323627   -0.000030916    0.000524367
     17        1          -0.000360027    0.000237843   -0.000640215
     18        1          -0.000320717   -0.000172595   -0.000755324
 -------------------------------------------------------------------
 Cartesian Forces:  Max     0.009909917 RMS     0.002852953
 Leave Link  716 at Sat Feb 10 10:34:07 2024, MaxMem=  4026531840 cpu:               0.4 elap:               0.1
 (Enter /sysapps/ubuntu-applications/gaussian/Gaussian/AVX2/g16/l103.exe)

 GradGradGradGradGradGradGradGradGradGradGradGradGradGradGradGradGradGrad
 Berny optimization.
 FormGI is forming the generalized inverse of G from B-inverse, IUseBI=4.
 Internal  Forces:  Max     0.007380701 RMS     0.001430602
 Search for a local minimum.
 Step number   1 out of a maximum of   89
 All quantities printed in internal units (Hartrees-Bohrs-Radians)
 RMS Force = .14306D-02 SwitMx=.10000D-02 MixMth= 1
 Mixed Optimization -- RFO/linear search
 Second derivative matrix not updated -- first step.
 ITU=  0
     Eigenvalues ---    0.00752   0.00869   0.00936   0.00983   0.01100
     Eigenvalues ---    0.01332   0.01421   0.01628   0.01829   0.01976
     Eigenvalues ---    0.02193   0.02274   0.02437   0.10193   0.10646
     Eigenvalues ---    0.15992   0.15997   0.15999   0.16000   0.16000
     Eigenvalues ---    0.16000   0.22321   0.23426   0.24557   0.24964
     Eigenvalues ---    0.24982   0.24991   0.25000   0.25000   0.25000
     Eigenvalues ---    0.31690   0.32267   0.32806   0.33913   0.33985
     Eigenvalues ---    0.34751   0.34791   0.35151   0.35468   0.35475
     Eigenvalues ---    0.35493   0.38940   0.53379   0.56389   0.57064
     Eigenvalues ---    0.95609   0.97435   1.03301
 RFO step:  Lambda=-4.54976215D-04 EMin= 7.52041417D-03
 Linear search not attempted -- first point.
 Iteration  1 RMS(Cart)=  0.02524500 RMS(Int)=  0.00041051
 Iteration  2 RMS(Cart)=  0.00042227 RMS(Int)=  0.00005246
 Iteration  3 RMS(Cart)=  0.00000013 RMS(Int)=  0.00005246
 ITry= 1 IFail=0 DXMaxC= 1.23D-01 DCOld= 1.00D+10 DXMaxT= 3.00D-01 DXLimC= 3.00D+00 Rises=F
 Variable       Old X    -DE/DX   Delta X   Delta X   Delta X     New X
                                 (Linear)    (Quad)   (Total)
    R1        2.80684  -0.00096   0.00000  -0.00292  -0.00289   2.80395
    R2        2.83336  -0.00048   0.00000  -0.00155  -0.00153   2.83183
    R3        2.29684   0.00550   0.00000   0.00565   0.00565   2.30248
    R4        2.53037  -0.00080   0.00000  -0.00140  -0.00140   2.52896
    R5        2.04921  -0.00025   0.00000  -0.00071  -0.00071   2.04850
    R6        2.80092  -0.00080   0.00000  -0.00227  -0.00229   2.79863
    R7        2.04910  -0.00028   0.00000  -0.00078  -0.00078   2.04832
    R8        2.80620   0.00021   0.00000   0.00070   0.00067   2.80687
    R9        2.30450   0.00396   0.00000   0.00414   0.00414   2.30865
   R10        2.53715  -0.00118   0.00000  -0.00206  -0.00206   2.53508
   R11        2.04883  -0.00006   0.00000  -0.00017  -0.00017   2.04866
   R12        2.83658  -0.00023   0.00000  -0.00071  -0.00071   2.83586
   R13        2.27345   0.00738   0.00000   0.00714   0.00714   2.28059
   R14        2.53918  -0.00464   0.00000  -0.00821  -0.00821   2.53097
   R15        2.73020   0.00274   0.00000   0.00703   0.00703   2.73723
   R16        2.05431  -0.00052   0.00000  -0.00148  -0.00148   2.05283
   R17        2.06015  -0.00023   0.00000  -0.00065  -0.00065   2.05950
   R18        2.06081  -0.00033   0.00000  -0.00096  -0.00096   2.05985
    A1        2.04102   0.00097   0.00000   0.00421   0.00411   2.04513
    A2        2.11231   0.00022   0.00000   0.00140   0.00118   2.11348
    A3        2.12893  -0.00117   0.00000  -0.00418  -0.00441   2.12452
    A4        2.12907  -0.00050   0.00000  -0.00222  -0.00217   2.12690
    A5        2.01237   0.00102   0.00000   0.00597   0.00594   2.01831
    A6        2.14126  -0.00052   0.00000  -0.00361  -0.00364   2.13763
    A7        2.11263  -0.00045   0.00000  -0.00179  -0.00179   2.11084
    A8        2.14252  -0.00058   0.00000  -0.00412  -0.00413   2.13839
    A9        2.02798   0.00103   0.00000   0.00595   0.00595   2.03393
   A10        2.04850   0.00109   0.00000   0.00472   0.00469   2.05319
   A11        2.12329   0.00005   0.00000   0.00003   0.00004   2.12332
   A12        2.11139  -0.00114   0.00000  -0.00476  -0.00475   2.10665
   A13        2.12854  -0.00098   0.00000  -0.00410  -0.00410   2.12444
   A14        2.02282   0.00098   0.00000   0.00513   0.00512   2.02794
[...]
 4,-0.7225073,-0.3084206,-0.1403777,-0.2740074,-1.2248775,-0.6803776,-0
 .1161691,-0.6584002,-1.0986828,0.0092561,-0.0562213,0.0435999,-0.05962
 54,0.0966478,-0.0330531,0.0397945,-0.0227217,0.117533,0.0518712,0.0000
 068,0.0788732,-0.0019113,0.1171104,-0.0518213,0.0744629,-0.0564794,0.0
 595069,0.0387369,-0.0530607,0.0330782,-0.0562158,0.1177588,-0.0056537,
 0.0420067,-0.0147475,0.1107767,2.3019008,-0.5076304,-0.1498494,-0.2914
 111,0.5304582,0.3897966,0.4596751,0.2743368,1.9214862,-0.917636,0.1450
 86,0.0011377,0.0405185,-0.5006123,-0.215075,-0.4546935,-0.1987891,-1.4
 911845,-1.9708354,0.3536764,0.2701953,0.2516898,-0.419542,-0.1395654,0
 .0935485,-0.1082469,-0.8339168,0.7324511,-0.1009676,-0.2752711,-0.1145
 286,0.3789275,0.0829275,-0.3660412,0.0925836,0.5677196,-0.0830658,0.02
 78556,-0.0112723,0.0113233,0.1127335,-0.0102104,-0.0729784,-0.0080715,
 0.0213875,0.0078394,-0.073192,0.0085668,-0.0025135,-0.0602713,-0.08030
 89,0.0909174,-0.0611709,0.0293249,0.0206669,0.0689803,0.0154517,0.0152
 685,-0.0386386,0.097375,0.1052656,0.0473928,-0.0232785\Polar=130.63871
 22,20.9083674,144.1549669,-2.12909,59.7561304,151.658715\Quadrupole=16
 .0319742,-3.1770061,-12.8549682,-8.2997293,-18.3535424,-12.058693\PG=C
 01 [X(C8H6O4)]\NImag=0\\0.45203669,0.14971391,0.61063631,-0.04174036,0
 .29238636,0.48793367,-0.16102467,0.00585262,0.06225973,0.57028440,0.00
 161941,-0.07877711,-0.00880596,0.23173789,0.52838945,0.05976821,-0.008
 54874,-0.12437070,-0.05938745,0.28018261,0.44482606,0.01056909,0.01082
 360,0.00693202,-0.13633780,-0.09549615,-0.04095302,0.50520566,0.001300
 57,-0.01443128,-0.01477838,-0.10127017,-0.30289534,-0.20770225,0.12594
 847,0.49585577,-0.00638400,-0.02255715,-0.01944825,-0.04786298,-0.2127
 1397,-0.24164176,-0.12362399,0.32894984,0.54752710,0.01947172,0.006436
 32,-0.01748678,-0.00642561,-0.01287493,-0.00868011,-0.18900549,-0.0287
 7319,0.04560379,0.49340425,0.00647372,-0.00773947,0.00311845,-0.023574
 61,-0.01863635,-0.00459452,-0.03004123,-0.08662249,0.00590988,0.170878
 84,0.55209944,-0.01638686,0.00324013,0.00048323,-0.02175311,-0.0118890
 0,0.00124265,0.04336470,0.00421544,-0.09742055,-0.01799824,0.29178563,
 0.52062237,-0.00471167,-0.02309940,-0.02187501,-0.00042785,0.00080052,
 0.00317382,-0.01877853,0.00410627,0.02556480,-0.16103393,0.00159350,0.
 06166545,0.57104277,-0.01196708,-0.01790674,-0.01136544,0.00057710,0.0
 0010089,-0.00398841,-0.00743736,0.01596442,0.00805521,0.00169203,-0.08
 009006,-0.00445233,0.22925221,0.50289519,-0.00916227,-0.00504525,0.003
 45267,0.00321585,-0.00395350,-0.00328777,0.01287647,0.00122818,0.00492
 107,0.06184516,-0.00747955,-0.12200825,-0.06174976,0.27125958,0.461658
 41,-0.15601393,-0.01743619,0.04400807,-0.01861492,-0.00731243,0.013307
 24,-0.00372427,-0.00461172,0.00016177,0.01036326,0.01179249,0.00377780
 ,-0.13808304,-0.09319429,-0.04522130,0.46907567,-0.02424709,-0.0793680
 3,0.00508798,0.00253901,0.01366756,0.00056103,-0.00318102,-0.00104489,
 -0.00149554,-0.00273782,-0.01030432,-0.01614153,-0.09531476,-0.2846335
 1,-0.19757222,0.14786493,0.46067412,0.03570655,-0.00080064,-0.10376778
 ,0.02562470,0.00915968,0.00579860,-0.00026843,-0.00181352,0.00165213,-
 0.00834083,-0.02002212,-0.01985622,-0.04852593,-0.20241004,-0.23678668
 ,-0.05824204,0.27944413,0.51359200,-0.12520177,-0.12130431,-0.06643717
 ,0.02332990,0.01422785,0.01205542,-0.00062754,0.00297077,0.00486177,-0
 .00617002,-0.00071938,0.00499184,-0.00648900,-0.00189668,0.00372642,-0
 .00862256,-0.04622635,-0.02486198,0.11859638,-0.11893350,-0.43825687,-
 0.26161345,0.00044233,-0.03008497,-0.04711137,0.00648970,0.00570417,-0
 .00022901,0.00014233,0.00263607,0.00122129,-0.00529420,0.00365473,0.00
 567968,-0.03811544,-0.03495393,-0.02378868,0.15356367,0.49960849,-0.06
 407387,-0.26297702,-0.25413061,-0.00076458,-0.05560846,-0.03097495,0.0
 0677410,0.00149065,-0.00134562,0.00575728,0.00064764,-0.00022243,0.001
 40424,0.00300987,0.00412811,-0.01819754,-0.01869301,0.01307809,0.07281
 943,0.32929327,0.27649208,-0.00673719,-0.00076090,0.00557622,-0.006284
 47,-0.00187539,0.00300615,-0.01162390,-0.04852785,-0.03292457,-0.13893
 241,-0.12622967,-0.08658280,0.02342510,0.01124483,0.00998105,-0.000506
 29,0.00415977,0.00543482,0.00190658,-0.00065438,-0.00206009,0.13346758
 ,-0.00111379,0.00258712,0.00141875,-0.00433716,0.00414622,0.00536077,-
 0.03589675,-0.03029417,-0.03175762,-0.12726482,-0.37359934,-0.26373512
 ,0.00005358,-0.02182259,-0.04620592,0.00579492,0.00406937,-0.00072433,
 -0.00025821,-0.00204038,-0.00150370,0.16034634,0.42042463,0.00485596,0
 .00122990,0.00007463,0.00046006,0.00371661,0.00548720,-0.01835182,-0.0
 2309057,0.00671952,-0.08813886,-0.26428015,-0.29355498,-0.00216104,-0.
 05442297,-0.03867617,0.00785972,0.00153110,-0.00207105,-0.00164564,-0.
 00169262,-0.00064856,0.10372182,0.33425777,0.32398039,-0.01335855,-0.0
 1109779,-0.00038134,-0.27321264,-0.12214727,0.02720832,-0.00020775,-0.
 00323548,0.00269574,0.00362801,-0.00304642,0.00364680,0.00022427,0.000
 78135,-0.00094177,-0.00068048,0.00138870,0.00322919,0.00247562,0.00117
 492,-0.00131819,-0.00074034,0.00032404,-0.00105978,0.28286606,0.009982
 68,0.00635462,-0.00286798,-0.12332285,-0.11275324,0.00548360,-0.022337
 60,-0.00435265,0.00113037,-0.00108485,0.00525977,-0.00813435,0.0003858
 7,-0.00118613,0.00100095,0.00086485,-0.00000781,-0.00230088,-0.0001247
 0,0.00068258,0.00194203,-0.00113203,-0.00269441,0.00075596,0.13445684,
 0.11045964,0.02139085,0.01074006,-0.00022757,0.02732261,0.00554676,-0.
 05049846,-0.01826916,-0.01234354,0.00773591,0.00499391,-0.00722640,0.0
 0280016,-0.00107885,0.00088100,-0.00082585,0.00213489,-0.00249749,-0.0
 0290360,-0.00283076,0.00122728,0.00153655,-0.00234033,-0.00006137,-0.0
 0134340,-0.03079109,-0.00013859,0.04521021,0.00077140,-0.00543397,0.00
 263867,0.01165467,-0.00522128,-0.00785226,-0.15558501,0.04941409,0.130
 14294,-0.01264215,0.01052739,0.02176120,-0.00371304,-0.00376717,-0.000
 52261,0.00032323,0.00066014,-0.00100774,0.00017029,0.00012953,-0.00162
 457,0.00311597,0.00075597,-0.00215793,-0.00056966,0.00230527,-0.001756
 66,0.15692895,-0.00701386,0.00469051,-0.00529206,0.01354371,-0.0016653
 3,-0.01999199,0.04970258,-0.07684691,-0.07379427,-0.00999838,0.0066399
 4,0.01079409,-0.00291352,-0.00067175,-0.00082637,0.00080273,-0.0009975
 7,0.00077818,0.00159141,-0.00238469,-0.00032079,0.00237278,0.00054229,
 0.00046670,0.00210478,-0.00243254,0.00356009,-0.04985708,0.07250639,0.
 00099527,-0.00589709,0.00644495,0.01325944,-0.00632861,-0.00715412,0.1
 3041329,-0.07386908,-0.20475796,-0.00076454,-0.00288600,0.00012702,0.0
 0016362,-0.00037244,0.00135271,-0.00062973,0.00072255,-0.00103186,-0.0
 0024338,-0.00033107,-0.00263404,-0.00035010,0.00161285,0.00066223,-0.0
 0213695,0.00325405,-0.00211342,-0.14088950,0.08424763,0.20888491,0.003
 35148,-0.00261542,0.00321775,0.00014771,0.00060560,-0.00095345,-0.0002
 9530,0.00156823,0.00280243,-0.01264521,-0.01083663,-0.00029942,-0.2727
 4684,-0.12440370,0.02635268,0.00044164,-0.00346922,0.00227296,-0.00084
 967,0.00013302,-0.00095610,0.00234040,0.00122490,-0.00124183,-0.000035
 77,-0.00009906,-0.00006439,-0.00053562,-0.00056108,0.00019075,0.282673
 40,-0.00131949,0.00529293,-0.00780829,0.00055311,-0.00104611,0.0009830
 0,0.00081616,-0.00006100,-0.00204834,0.00894366,0.00680322,-0.00300304
 ,-0.12364128,-0.11266618,0.00567251,-0.02308618,-0.00469773,0.00036077
 ,-0.00068703,-0.00261444,0.00097805,-0.00005997,0.00038798,0.00202291,
 -0.00008074,0.00002385,0.00010150,0.00029350,0.00062670,-0.00029160,0.
 13582730,0.11011362,0.00515389,-0.00655563,0.00146393,-0.00101649,0.00
 074167,-0.00063337,0.00212387,-0.00279724,-0.00305117,0.02159163,0.011
 23133,0.00106011,0.02673704,0.00649929,-0.05245965,-0.01613184,-0.0120
 7993,0.00739188,-0.00261701,-0.00042144,-0.00090685,-0.00281180,0.0010
 3716,0.00169269,-0.00004322,0.00008931,0.00010288,0.00118782,0.0003195
 2,0.00026545,-0.03065351,-0.00031257,0.04698252,-0.02116814,0.00532413
 ,0.02240039,-0.00106075,-0.00320290,-0.00139359,0.00150957,0.00175319,
 -0.00111479,-0.00603139,-0.00485785,0.01055580,0.02119609,-0.00065106,
 -0.00568731,-0.12679970,0.00940848,0.05932973,0.00544860,0.00377026,-0
 .00265089,0.00137074,-0.00302151,-0.00660119,0.00010628,-0.00002717,0.
 00068739,0.00027570,0.00014369,-0.00018090,-0.00231523,0.00137300,-0.0
 0425241,0.58570998,-0.00197957,0.01446643,0.01677146,-0.00441843,-0.00
 137964,-0.00081437,0.00018121,-0.00164403,0.00102507,-0.00575200,0.004
 17115,-0.00873057,0.01338233,-0.00244777,-0.02423760,-0.00024500,-0.09
 387892,-0.01864828,0.00064622,-0.00406523,-0.00246955,0.00130339,-0.00
 138201,0.00093824,-0.00106094,0.00098927,0.00043723,0.00011254,-0.0000
 7577,0.00022834,0.00255303,-0.00348288,0.00336266,-0.01321784,0.240003
 20,0.01625897,0.01457663,0.00766372,-0.00387399,-0.00115868,0.00230620
 ,-0.00256067,-0.00025402,-0.00046177,0.00722800,-0.00752723,-0.0004198
 0,0.00285644,-0.01202880,-0.01625078,0.04965471,-0.02143392,-0.1294268
 8,-0.00137714,-0.00686890,-0.00867995,-0.00184611,0.00370221,0.0025009
 6,-0.00072773,-0.00008921,0.00112036,-0.00028835,-0.00003677,0.0001269
 5,-0.00101009,0.00238133,-0.00129990,0.10438757,0.11264376,0.87188715,
 -0.00097441,-0.00412191,-0.00400299,0.00031452,0.00045915,0.00010102,-
 0.00022716,-0.00022053,0.00026927,0.00155219,0.00054901,-0.00306219,-0
 .00339024,0.00123190,0.00408624,0.01878370,0.00206630,0.00631490,-0.00
 254717,0.00001233,0.00540770,-0.00014248,0.00091983,0.00172506,0.00001
 495,-0.00000881,-0.00007381,-0.00007395,0.00001351,0.00005271,0.000301
 93,-0.00012348,0.00038802,-0.16040239,-0.02008452,-0.17330308,0.195502
 58,-0.00139550,-0.00420126,-0.00353377,0.00062719,0.00049195,0.0000507
 5,0.00027972,0.00057289,-0.00026516,-0.00010438,-0.00123671,0.00338613
 ,0.00060647,0.00012208,0.00094387,0.00192138,0.01674891,-0.01723635,-0
 .00203064,0.00091374,0.00385072,0.00001859,0.00001285,-0.00098980,0.00
 021980,-0.00020050,-0.00001835,0.00005962,0.00005061,-0.00002851,-0.00
 049332,0.00085059,-0.00105650,-0.02381342,-0.08357244,-0.07286646,0.02
 407054,0.04444841,-0.00651462,-0.00489206,-0.00187873,0.00135692,0.000
 14879,-0.00065149,0.00103901,0.00080436,-0.00050273,-0.00407962,-0.000
 90735,0.00626791,0.01156174,0.00040220,-0.00325604,-0.01049141,-0.0135
 1031,-0.05220213,0.00166649,0.00357075,0.00234918,0.00095903,-0.002353
 66,-0.00409729,0.00042206,-0.00014081,-0.00018720,0.00026053,0.0001016
 5,-0.00015393,-0.00082647,0.00132995,-0.00095613,-0.16983593,-0.070737
 12,-0.61767809,0.24303319,0.08605576,0.70604854,0.00358365,0.00689242,
 0.00418739,-0.00225785,-0.00102777,0.00068421,-0.00099301,-0.00051395,
 -0.00001224,0.00436017,-0.00251745,-0.00448311,-0.00707905,-0.00079455
 ,0.00153192,-0.04325208,0.00739906,0.00644425,-0.00174897,-0.00289463,
 -0.00015747,-0.00061773,0.00260103,0.00300477,-0.00050204,0.00014001,0
 .00061068,-0.00015107,0.00003821,0.00013357,0.00012666,0.00062344,0.00
 029104,-0.24860589,0.01661721,-0.03168250,-0.05672915,0.00077412,-0.07
 486405,0.49652250,-0.00146135,-0.00263297,-0.00220591,0.00082364,0.000
 20977,-0.00000519,0.00033692,0.00011328,-0.00016512,-0.00037865,0.0011
 1766,0.00165997,0.00109564,-0.00147810,-0.00129010,0.01357432,0.008356
 48,-0.00157732,0.00040754,0.00115346,0.00031767,-0.00003375,-0.0006043
 7,-0.00065942,0.00016426,-0.00008010,-0.00016150,0.00005029,0.00002824
 ,-0.00005741,0.00072966,0.00018724,-0.00003827,0.02004927,-0.06883418,
 -0.00666971,-0.00223381,0.02950640,0.00006199,-0.05365543,0.09261710,-
 0.00003401,-0.00495814,-0.00429554,0.00140270,0.00103128,-0.00044293,0
 .00054257,-0.00002316,0.00002015,-0.00168167,0.00234504,0.00127747,0.0
 0235367,-0.00132525,-0.00232495,0.03064734,-0.00337114,0.00570376,0.00
 007826,0.00114616,0.00183300,0.00025301,-0.00122487,-0.00096969,0.0002
 6093,-0.00000825,-0.00045291,0.00012266,-0.00000286,-0.00003641,0.0012
 5704,-0.00040844,0.00042269,-0.01294183,-0.00976539,-0.11764468,-0.072
 79598,-0.00001952,-0.03192817,-0.01330246,0.04355032,0.33198649,-0.001
 09316,-0.00000177,0.00020705,0.00019734,-0.00018386,-0.00018468,0.0002
 9477,0.00014747,-0.00020895,-0.00053557,0.00053787,0.00142979,0.001182
 20,-0.00073650,-0.00076683,-0.00134390,-0.00030691,-0.00254436,0.00054
 487,0.00040691,-0.00021403,0.00005866,-0.00053015,-0.00068658,0.000054
 32,-0.00001587,-0.00000363,0.00006635,0.00003291,-0.00002994,0.0001021
 8,0.00062548,0.00020503,-0.05984654,0.01107735,0.02301817,0.00919945,-
 0.00022755,0.01152722,-0.10247901,0.00864932,0.02674644,0.53550440,0.0
 0050657,-0.00053986,-0.00034787,0.00015279,0.00020617,0.00014555,-0.00
 021535,-0.00003166,-0.00003898,0.00101035,-0.00059394,-0.00031701,-0.0
 0124674,0.00015836,0.00090212,0.00105210,0.00702065,-0.00051752,-0.000
 21332,-0.00004158,-0.00000555,-0.00019564,0.00036261,0.00030552,0.0000
 3917,-0.00005878,-0.00002763,-0.00003580,-0.00001053,0.00000076,-0.000
 16285,0.00025823,-0.00002258,0.00991388,-0.00054845,-0.00108687,-0.002
 94966,-0.00530435,-0.00143379,0.01112291,-0.06880482,-0.01506280,0.022
 01548,0.58390625,0.00073128,0.00092283,0.00116503,-0.00054359,-0.00018
 072,0.00008588,-0.00018639,-0.00006985,0.00009259,0.00064052,-0.000537
 98,-0.00102348,-0.00064335,0.00024800,0.00066109,-0.00469998,-0.000502
 47,0.00058887,-0.00044055,-0.00048469,-0.00000338,-0.00008957,0.000534
 38,0.00064706,-0.00012745,0.00003701,0.00012346,-0.00004736,-0.0000061
 8,0.00003669,-0.00012692,-0.00005852,-0.00021076,0.01918663,0.00058674
 ,0.01637362,-0.00982310,0.00104275,-0.00776536,0.04997856,-0.01844987,
 -0.14458860,0.10549064,-0.02589366,0.49837423,0.00016797,0.00034688,0.
 00028050,-0.00013150,-0.00007003,0.00002701,-0.00005172,-0.00002177,0.
 00001029,0.00023410,-0.00016880,-0.00024993,-0.00019016,0.00000045,0.0
 0020174,-0.00092726,-0.00003843,-0.00041660,-0.00009799,-0.00012734,-0
 .00004412,-0.00003364,0.00015363,0.00017131,-0.00002770,0.00000801,0.0
 0003556,-0.00001276,0.00000154,0.00000717,-0.00003045,0.00002010,-0.00
 003797,0.00206391,0.00047952,0.00462587,-0.00007290,-0.00003472,-0.000
 93789,-0.02883253,0.00307408,-0.00296573,-0.26435320,0.00899128,-0.113
 08402,0.29354606,-0.00001241,-0.00011102,-0.00013463,0.00004807,0.0000
 2599,0.00000359,-0.00000330,0.00000644,-0.00000252,-0.00000049,0.00000
 308,0.00003369,0.00003751,0.00002697,0.00003679,0.00036973,0.00025274,
 -0.00002123,0.00000421,0.00002745,0.00001706,-0.00000447,-0.00001761,-
 0.00002252,0.00001094,-0.00000673,-0.00001028,0.00000011,-0.00000164,-
 0.00000134,-0.00000522,0.00000013,-0.00000924,-0.00020916,0.00001438,-
 0.00150209,-0.00014093,0.00044301,0.00040494,0.00900091,-0.00083747,0.
 00142431,0.00697841,-0.05168430,0.00515416,-0.01269211,0.04718158,-0.0
 0006922,-0.00031156,-0.00034138,0.00011941,0.00006690,-0.00000442,0.00
 002240,0.00000988,0.00000646,-0.00016231,0.00012672,0.00009446,0.00007
 041,0.00007554,-0.00011673,0.00118222,0.00000693,0.00049914,0.00003384
 ,0.00008749,0.00008617,0.00002687,-0.00009567,-0.00008884,0.00002312,-
 0.00000401,-0.00003447,0.00000579,-0.00000237,-0.00000496,0.00001384,-
 0.00006634,0.00004213,0.00104183,-0.00129605,-0.00651697,-0.00115363,0
 .00048113,0.00253611,0.03689966,-0.00336017,0.00709326,-0.12681246,0.0
 0676607,-0.10980563,0.11652581,-0.00356591,0.11747384,0.00010032,0.000
 37183,0.00020422,-0.00011908,-0.00005208,0.00002109,-0.00003706,-0.000
 01990,0.00002418,0.00005676,-0.00010603,-0.00020699,-0.00003286,0.0000
 3397,-0.00003115,-0.00050452,-0.00129703,0.00015350,-0.00004599,-0.000
 15044,-0.00003190,-0.00000060,0.00007879,0.00010213,-0.00003025,0.0000
 1736,0.00002272,-0.00000850,-0.00000052,0.00000540,0.00000338,-0.00009
 812,-0.00006558,0.00425742,0.00182549,0.00394924,-0.00063945,0.0000662
 7,-0.00206407,-0.00251519,0.02555930,0.01698252,-0.06717689,-0.0648735
 1,-0.03165169,-0.00341718,-0.02477497,-0.01027698,0.06878468,-0.000085
 15,-0.00010825,-0.00007327,0.00002848,0.00001229,-0.00000793,0.0000135
 1,-0.00000143,-0.00000589,-0.00002419,0.00005543,0.00002569,0.00004303
 ,0.00000506,-0.00000652,0.00023989,-0.00022749,0.00003826,0.00001887,0
 .00004997,0.00003935,0.00000659,-0.00003015,-0.00002347,0.00000496,-0.
 00000023,-0.00000864,0.00000350,0.00000122,-0.00000191,0.00001119,0.00
 002741,0.00003066,-0.00338898,0.00056176,-0.00250892,-0.00020918,0.000
 38561,0.00196529,0.00668415,-0.00072614,-0.00525502,-0.05782559,-0.257
 82822,-0.09792678,0.00012877,0.00382861,0.00245508,0.06102894,0.272286
 67,-0.00024219,-0.00034619,-0.00015940,0.00011615,0.00004588,-0.000025
 97,0.00004268,0.00001357,-0.00003264,-0.00005929,0.00011266,0.00022614
 ,0.00012327,-0.00003206,-0.00005138,0.00054006,0.00048306,-0.00019452,
 0.00011074,0.00017512,0.00002453,0.00000586,-0.00010845,-0.00013571,0.
 00002683,-0.00001078,-0.00002655,0.00001270,0.00000275,-0.00000763,0.0
 0000983,0.00012487,0.00007337,-0.00620802,0.00014781,-0.00162723,0.001
 43440,-0.00003958,0.00186898,0.00745251,-0.02429708,-0.02016508,-0.027
 49835,-0.09385818,-0.09345288,-0.00339344,-0.01185283,-0.00417838,0.02
 318508,0.11110140,0.10643062,0.00023119,0.00010992,0.00001165,-0.00003
 141,0.00001366,0.00005204,-0.00008455,-0.00001451,-0.00000545,0.000351
 34,-0.00025476,-0.00017074,-0.00039421,0.00003455,0.00026546,0.0000854
 5,0.00133223,-0.00030268,-0.00007154,-0.00009504,-0.00006940,-0.000065
 98,0.00016934,0.00014383,-0.00000432,-0.00000796,0.00001008,-0.0000147
 8,-0.00000343,0.00000381,-0.00003469,0.00002055,-0.00004849,0.00429174
 ,-0.00141997,0.00469070,-0.00047002,-0.00054419,-0.00221214,-0.0088293
 9,-0.01675124,0.02307453,-0.05037627,0.01508835,-0.01456365,0.00216695
 ,0.02139314,-0.01749062,0.00132502,-0.00667879,0.00434118,0.05192549,-
 0.00006808,0.00004492,0.00004402,-0.00000272,-0.00001221,-0.00000614,0
 .00001688,0.00000889,0.00000319,-0.00010983,0.00003693,0.00004089,0.00
 015298,-0.00002486,-0.00010664,-0.00027610,-0.00067562,0.00007988,0.00
 003009,0.00001142,-0.00000821,0.00002177,-0.00004803,-0.00004319,-0.00
 000113,0.00000339,-0.00000015,0.00000333,0.00000085,-0.00000112,-0.000
 00646,-0.00000356,-0.00001821,0.00065398,0.00110514,0.00072767,0.00077
 027,-0.00003179,-0.00087055,-0.00048969,0.01070851,-0.00807227,0.00935
 701,-0.20646577,0.13558483,-0.00005109,0.00084839,-0.00137367,0.002390
 64,-0.01829214,0.01833804,-0.01239186,0.21278553,-0.00025357,-0.000206
 43,-0.00006188,0.00006461,-0.00000129,-0.00006066,0.00008239,0.0000296
 7,-0.00001246,-0.00026804,0.00018394,0.00030420,0.00035943,-0.00003294
 ,-0.00012982,0.00034002,-0.00053924,-0.00006374,0.00010941,0.00014021,
 0.00001868,0.00004056,-0.00015319,-0.00017900,0.00001452,0.00000159,-0
 .00001610,0.00001467,0.00000307,-0.00000658,0.00001489,0.00004225,0.00
 002020,-0.00672249,0.00055761,-0.00197291,0.00140227,0.00024291,0.0021
 8659,0.01328327,0.01334712,-0.02548784,-0.00967453,0.13049242,-0.16129
 845,-0.00075557,0.01004806,-0.00673979,-0.00032173,-0.00983738,0.01143
 372,0.00226988,-0.14431836,0.18206582\\-0.00002216,0.00004263,0.000028
 47,-0.00001284,-0.00002010,-0.00003268,0.00001722,0.00001475,-0.000004
 18,-0.00001504,-0.00004140,0.00000650,0.00001174,-0.00000906,-0.000002
 31,0.00004341,0.00003172,0.00001169,-0.00001427,-0.00001854,-0.0000308
 4,0.00000623,-0.00000033,0.00002074,-0.00000745,0.00001462,-0.00001069
 ,-0.00000180,-0.00000298,-0.00000005,-0.00000013,-0.00000578,0.0000096
 8,-0.00006385,0.00000435,-0.00000611,0.00002245,0.00000793,-0.00000976
 ,0.00005173,-0.00001579,-0.00002242,-0.00004364,0.00000825,0.00003368,
 0.00000765,-0.00001202,0.00000222,0.00000606,-0.00000273,-0.00000134,0
 .00001467,0.00000448,0.00000738\\\@


 ADVERTISING--  HE WHO HAS SOMETHING TO SELL AND GOES AND WHISPERS
                IN A WELL, IS NOT SO APT TO GET THE DOLLARS AS HE
                WHO CLIMBS A TREE AND HOLLERS.

                   -- FROM THE BACK OF A SUGAR PACKET
 Job cpu time:       0 days  1 hours 17 minutes 42.1 seconds.
 Elapsed time:       0 days  0 hours 10 minutes  7.2 seconds.
 File lengths (MBytes):  RWF=    409 Int=      0 D2E=      0 Chk=     18 Scr=      1
 Normal termination of Gaussian 16 at Sat Feb 10 10:59:40 2024.
