 Entering Gaussian System, Link 0=g16
 Input=342.com
 Output=342.log
 Initial command:
 /sysapps/ubuntu-applications/gaussian/Gaussian/AVX2/g16/l1.exe "/scratch/selhajj1/4255390/Gau-2312142.inp" -scrdir="/scratch/selhajj1/4255390/"
 Entering Link 1 = /sysapps/ubuntu-applications/gaussian/Gaussian/AVX2/g16/l1.exe PID=   2312144.
  
 Copyright (c) 1988,1990,1992,1993,1995,1998,2003,2009,2016,
            Gaussian, Inc.  All Rights Reserved.
  
 This is part of the Gaussian(R) 16 program.  It is based on
 the Gaussian(R) 09 system (copyright 2009, Gaussian, Inc.),
 the Gaussian(R) 03 system (copyright 2003, Gaussian, Inc.),
 the Gaussian(R) 98 system (copyright 1998, Gaussian, Inc.),
 the Gaussian(R) 94 system (copyright 1995, Gaussian, Inc.),
 the Gaussian 92(TM) system (copyright 1992, Gaussian, Inc.),
 the Gaussian 90(TM) system (copyright 1990, Gaussian, Inc.),
 the Gaussian 88(TM) system (copyright 1988, Gaussian, Inc.),
 the Gaussian 86(TM) system (copyright 1986, Carnegie Mellon
 University), and the Gaussian 82(TM) system (copyright 1983,
 Carnegie Mellon University). Gaussian is a federally registered
 trademark of Gaussian, Inc.
  
 This software contains proprietary and confidential information,
 including trade secrets, belonging to Gaussian, Inc.
  
 This software is provided under written license and may be
 used, copied, transmitted, or stored only in accord with that
 written license.
  
 The following legend is applicable only to US Government
 contracts under FAR:
  
                    RESTRICTED RIGHTS LEGEND
  
 Use, reproduction and disclosure by the US Government is
 subject to restrictions as set forth in subparagraphs (a)
 and (c) of the Commercial Computer Software - Restricted
 Rights clause in FAR 52.227-19.
  
 Gaussian, Inc.
 340 Quinnipiac St., Bldg. 40, Wallingford CT 06492
  
  
 ---------------------------------------------------------------
 Warning -- This program may not be used in any manner that
 competes with the business of Gaussian, Inc. or will provide
 assistance to any competitor of Gaussian, Inc.  The licensee
 of this program is prohibited from giving any competitor of
 Gaussian, Inc. access to this program.  By using this program,
 the user acknowledges that Gaussian, Inc. is engaged in the
 business of creating and licensing software in the field of
 computational chemistry and represents and warrants to the
 licensee that it is not a competitor of Gaussian, Inc. and that
 it will not use this program in any manner prohibited above.
 ---------------------------------------------------------------
  

 Cite this work as:
 Gaussian 16, Revision A.03,
 M. J. Frisch, G. W. Trucks, H. B. Schlegel, G. E. Scuseria, 
 M. A. Robb, J. R. Cheeseman, G. Scalmani, V. Barone, 
 G. A. Petersson, H. Nakatsuji, X. Li, M. Caricato, A. V. Marenich, 
 J. Bloino, B. G. Janesko, R. Gomperts, B. Mennucci, H. P. Hratchian, 
 J. V. Ortiz, A. F. Izmaylov, J. L. Sonnenberg, D. Williams-Young, 
 F. Ding, F. Lipparini, F. Egidi, J. Goings, B. Peng, A. Petrone, 
 T. Henderson, D. Ranasinghe, V. G. Zakrzewski, J. Gao, N. Rega, 
 G. Zheng, W. Liang, M. Hada, M. Ehara, K. Toyota, R. Fukuda, 
 J. Hasegawa, M. Ishida, T. Nakajima, Y. Honda, O. Kitao, H. Nakai, 
 T. Vreven, K. Throssell, J. A. Montgomery, Jr., J. E. Peralta, 
 F. Ogliaro, M. J. Bearpark, J. J. Heyd, E. N. Brothers, K. N. Kudin, 
 V. N. Staroverov, T. A. Keith, R. Kobayashi, J. Normand, 
 K. Raghavachari, A. P. Rendell, J. C. Burant, S. S. Iyengar, 
 J. Tomasi, M. Cossi, J. M. Millam, M. Klene, C. Adamo, R. Cammi, 
 J. W. Ochterski, R. L. Martin, K. Morokuma, O. Farkas, 
 J. B. Foresman, and D. J. Fox, Gaussian, Inc., Wallingford CT, 2016.
 
 ******************************************
 Gaussian 16:  ES64L-G16RevA.03 25-Dec-2016
                 6-Jan-2024 
 ******************************************
 %chk=342.chk
 %nproc=8
 Will use up to    8 processors via shared memory.
 %mem=30GB
 --------------------------------------
 #P UB3LYP/6-311++G(d,p) nosym opt freq
 --------------------------------------
 1/18=20,19=15,26=3,38=1/1,3;
 2/9=110,12=2,15=1,17=6,18=5,40=1/2;
 3/5=4,6=6,7=1111,11=2,25=1,30=1,71=1,74=-5,116=2/1,2,3;
 4//1;
 5/5=2,38=5/2;
 6/7=2,8=2,9=2,10=2,28=1/1;
 7/30=1/1,2,3,16;
 1/18=20,19=15,26=3/3(2);
 2/9=110,15=1/2;
 99//99;
 2/9=110,15=1/2;
 3/5=4,6=6,7=1111,11=2,25=1,30=1,71=1,74=-5,116=2/1,2,3;
 4/5=5,16=3,69=1/1;
 5/5=2,38=5/2;
 7/30=1/1,2,3,16;
 1/18=20,19=15,26=3/3(-5);
 2/9=110,15=1/2;
 6/7=2,8=2,9=2,10=2,19=2,28=1/1;
 99/9=1/99;
 Leave Link    1 at Sat Jan  6 01:36:59 2024, MaxMem=  4026531840 cpu:               1.2 elap:               0.2
 (Enter /sysapps/ubuntu-applications/gaussian/Gaussian/AVX2/g16/l101.exe)
 --------
 Oxidized
 --------
 Symbolic Z-matrix:
 Charge = -1 Multiplicity = 1
 C                    -3.46851   2.42565   1.11519 
 C                    -4.22402   2.29464   2.27685 
 C                    -3.85553   1.35319   3.22782 
 C                    -2.33999   1.61531   0.8968 
 C                    -1.95069   0.65876   1.84179 
 C                    -2.73442   0.54708   3.01325 
 C                    -1.58261   1.80717  -0.35573 
 C                    -0.39891   0.96523  -0.62346 
 C                     0.01849  -0.00358   0.30651 
 C                    -0.72313  -0.23999   1.63099 
 C                     0.29487   1.15992  -1.82804 
 C                     1.42275   0.38859  -2.10568 
 C                     1.85671  -0.58287  -1.20815 
 C                     1.16186  -0.7725   -0.01392 
 O                    -1.94568   2.66456  -1.15496 
 S                     2.31024   0.60705  -3.66831 
 O                     1.26065   1.03666  -4.58682 
 O                     3.29615   1.62012  -3.30609 
 O                     2.84481  -0.72855  -3.92514 
 C                     0.26867   0.01795   2.79419 
 C                    -1.19461  -1.71679   1.66647 
 H                    -3.75895   3.1653    0.37055 
 H                    -5.09367   2.92642   2.43356 
 H                    -4.43809   1.24293   4.13868 
 H                    -2.4788   -0.17771   3.78347 
 H                    -0.03042   1.90599  -2.55094 
 H                     2.73244  -1.18269  -1.44546 
 H                     1.53343  -1.53786   0.66306 
 H                     0.61697   1.05854   2.79065 
 H                     1.15514  -0.62317   2.73583 
 H                    -0.18114  -0.1724    3.77488 
 H                    -0.36291  -2.42291   1.56753 
 H                    -1.89868  -1.92439   0.8508 
 H                    -1.69846  -1.97121   2.6054 
 
 ITRead=  0  0  0  0  0  0  0  0  0  0  0  0  0  0  0  0  0  0  0  0
 ITRead=  0  0  0  0  0  0  0  0  0  0  0  0  0  0
 MicOpt= -1 -1 -1 -1 -1 -1 -1 -1 -1 -1 -1 -1 -1 -1 -1 -1 -1 -1 -1 -1
 MicOpt= -1 -1 -1 -1 -1 -1 -1 -1 -1 -1 -1 -1 -1 -1
 NAtoms=     34 NQM=       34 NQMF=       0 NMMI=      0 NMMIF=      0
                NMic=       0 NMicF=      0.
                    Isotopes and Nuclear Properties:
 (Nuclear quadrupole moments (NQMom) in fm**2, nuclear magnetic moments (NMagM)
  in nuclear magnetons)

  Atom         1           2           3           4           5           6           7           8           9          10
 IAtWgt=          12          12          12          12          12          12          12          12          12          12
 AtmWgt=  12.0000000  12.0000000  12.0000000  12.0000000  12.0000000  12.0000000  12.0000000  12.0000000  12.0000000  12.0000000
 NucSpn=           0           0           0           0           0           0           0           0           0           0
 AtZEff=  -0.0000000  -0.0000000  -0.0000000  -0.0000000  -0.0000000  -0.0000000  -0.0000000  -0.0000000  -0.0000000  -0.0000000
 NQMom=    0.0000000   0.0000000   0.0000000   0.0000000   0.0000000   0.0000000   0.0000000   0.0000000   0.0000000   0.0000000
 NMagM=    0.0000000   0.0000000   0.0000000   0.0000000   0.0000000   0.0000000   0.0000000   0.0000000   0.0000000   0.0000000
 AtZNuc=   6.0000000   6.0000000   6.0000000   6.0000000   6.0000000   6.0000000   6.0000000   6.0000000   6.0000000   6.0000000

  Atom        11          12          13          14          15          16          17          18          19          20
 IAtWgt=          12          12          12          12          16          32          16          16          16          12
 AtmWgt=  12.0000000  12.0000000  12.0000000  12.0000000  15.9949146  31.9720718  15.9949146  15.9949146  15.9949146  12.0000000
 NucSpn=           0           0           0           0           0           0           0           0           0           0
 AtZEff=  -0.0000000  -0.0000000  -0.0000000  -0.0000000  -0.0000000  -0.0000000  -0.0000000  -0.0000000  -0.0000000  -0.0000000
 NQMom=    0.0000000   0.0000000   0.0000000   0.0000000   0.0000000   0.0000000   0.0000000   0.0000000   0.0000000   0.0000000
 NMagM=    0.0000000   0.0000000   0.0000000   0.0000000   0.0000000   0.0000000   0.0000000   0.0000000   0.0000000   0.0000000
 AtZNuc=   6.0000000   6.0000000   6.0000000   6.0000000   8.0000000  16.0000000   8.0000000   8.0000000   8.0000000   6.0000000

  Atom        21          22          23          24          25          26          27          28          29          30
 IAtWgt=          12           1           1           1           1           1           1           1           1           1
 AtmWgt=  12.0000000   1.0078250   1.0078250   1.0078250   1.0078250   1.0078250   1.0078250   1.0078250   1.0078250   1.0078250
 NucSpn=           0           1           1           1           1           1           1           1           1           1
 AtZEff=  -0.0000000  -0.0000000  -0.0000000  -0.0000000  -0.0000000  -0.0000000  -0.0000000  -0.0000000  -0.0000000  -0.0000000
 NQMom=    0.0000000   0.0000000   0.0000000   0.0000000   0.0000000   0.0000000   0.0000000   0.0000000   0.0000000   0.0000000
 NMagM=    0.0000000   2.7928460   2.7928460   2.7928460   2.7928460   2.7928460   2.7928460   2.7928460   2.7928460   2.7928460
 AtZNuc=   6.0000000   1.0000000   1.0000000   1.0000000   1.0000000   1.0000000   1.0000000   1.0000000   1.0000000   1.0000000

  Atom        31          32          33          34
 IAtWgt=           1           1           1           1
 AtmWgt=   1.0078250   1.0078250   1.0078250   1.0078250
 NucSpn=           1           1           1           1
 AtZEff=  -0.0000000  -0.0000000  -0.0000000  -0.0000000
 NQMom=    0.0000000   0.0000000   0.0000000   0.0000000
 NMagM=    2.7928460   2.7928460   2.7928460   2.7928460
 AtZNuc=   1.0000000   1.0000000   1.0000000   1.0000000
 Leave Link  101 at Sat Jan  6 01:37:00 2024, MaxMem=  4026531840 cpu:               3.9 elap:               0.6
 (Enter /sysapps/ubuntu-applications/gaussian/Gaussian/AVX2/g16/l103.exe)

 GradGradGradGradGradGradGradGradGradGradGradGradGradGradGradGradGradGrad
 Berny optimization.
 Initialization pass.
                           ----------------------------
                           !    Initial Parameters    !
                           ! (Angstroms and Degrees)  !
 --------------------------                            --------------------------
 ! Name  Definition              Value          Derivative Info.                !
 --------------------------------------------------------------------------------
 ! R1    R(1,2)                  1.3919         estimate D2E/DX2                !
 ! R2    R(1,4)                  1.4064         estimate D2E/DX2                !
 ! R3    R(1,22)                 1.089          estimate D2E/DX2                !
 ! R4    R(2,3)                  1.388          estimate D2E/DX2                !
 ! R5    R(2,23)                 1.0863         estimate D2E/DX2                !
 ! R6    R(3,6)                  1.3974         estimate D2E/DX2                !
 ! R7    R(3,24)                 1.0868         estimate D2E/DX2                !
 ! R8    R(4,5)                  1.3998         estimate D2E/DX2                !
 ! R9    R(4,7)                  1.4762         estimate D2E/DX2                !
 ! R10   R(5,6)                  1.4139         estimate D2E/DX2                !
 ! R11   R(5,10)                 1.5359         estimate D2E/DX2                !
 ! R12   R(6,25)                 1.0881         estimate D2E/DX2                !
 ! R13   R(7,8)                  1.4771         estimate D2E/DX2                !
 ! R14   R(7,15)                 1.2271         estimate D2E/DX2                !
 ! R15   R(8,9)                  1.4063         estimate D2E/DX2                !
 ! R16   R(8,11)                 1.4037         estimate D2E/DX2                !
 ! R17   R(9,10)                 1.5363         estimate D2E/DX2                !
 ! R18   R(9,14)                 1.4146         estimate D2E/DX2                !
 ! R19   R(10,20)                1.5502         estimate D2E/DX2                !
 ! R20   R(10,21)                1.5506         estimate D2E/DX2                !
 ! R21   R(11,12)                1.3943         estimate D2E/DX2                !
 ! R22   R(11,26)                1.0886         estimate D2E/DX2                !
 ! R23   R(12,13)                1.392          estimate D2E/DX2                !
 ! R24   R(12,16)                1.8103         estimate D2E/DX2                !
 ! R25   R(13,14)                1.3946         estimate D2E/DX2                !
 ! R26   R(13,27)                1.0877         estimate D2E/DX2                !
 ! R27   R(14,28)                1.0873         estimate D2E/DX2                !
 ! R28   R(16,17)                1.4594         estimate D2E/DX2                !
 ! R29   R(16,18)                1.4593         estimate D2E/DX2                !
 ! R30   R(16,19)                1.4614         estimate D2E/DX2                !
 ! R31   R(20,29)                1.0973         estimate D2E/DX2                !
 ! R32   R(20,30)                1.0956         estimate D2E/DX2                !
 ! R33   R(20,31)                1.0956         estimate D2E/DX2                !
 ! R34   R(21,32)                1.0955         estimate D2E/DX2                !
 ! R35   R(21,33)                1.0973         estimate D2E/DX2                !
 ! R36   R(21,34)                1.0955         estimate D2E/DX2                !
 ! A1    A(2,1,4)              120.7247         estimate D2E/DX2                !
 ! A2    A(2,1,22)             119.3298         estimate D2E/DX2                !
 ! A3    A(4,1,22)             119.9455         estimate D2E/DX2                !
 ! A4    A(1,2,3)              119.4427         estimate D2E/DX2                !
 ! A5    A(1,2,23)             120.0133         estimate D2E/DX2                !
 ! A6    A(3,2,23)             120.5439         estimate D2E/DX2                !
 ! A7    A(2,3,6)              119.9387         estimate D2E/DX2                !
 ! A8    A(2,3,24)             120.048          estimate D2E/DX2                !
 ! A9    A(6,3,24)             120.0133         estimate D2E/DX2                !
 ! A10   A(1,4,5)              120.8009         estimate D2E/DX2                !
 ! A11   A(1,4,7)              117.9405         estimate D2E/DX2                !
 ! A12   A(5,4,7)              121.2586         estimate D2E/DX2                !
 ! A13   A(4,5,6)              117.3321         estimate D2E/DX2                !
 ! A14   A(4,5,10)             121.9694         estimate D2E/DX2                !
 ! A15   A(6,5,10)             120.6984         estimate D2E/DX2                !
 ! A16   A(3,6,5)              121.7608         estimate D2E/DX2                !
 ! A17   A(3,6,25)             117.6485         estimate D2E/DX2                !
 ! A18   A(5,6,25)             120.5907         estimate D2E/DX2                !
 ! A19   A(4,7,8)              119.3973         estimate D2E/DX2                !
 ! A20   A(4,7,15)             119.4483         estimate D2E/DX2                !
 ! A21   A(8,7,15)             121.1542         estimate D2E/DX2                !
 ! A22   A(7,8,9)              120.7093         estimate D2E/DX2                !
 ! A23   A(7,8,11)             118.2027         estimate D2E/DX2                !
 ! A24   A(9,8,11)             121.088          estimate D2E/DX2                !
 ! A25   A(8,9,10)             122.1987         estimate D2E/DX2                !
 ! A26   A(8,9,14)             117.6816         estimate D2E/DX2                !
 ! A27   A(10,9,14)            120.1197         estimate D2E/DX2                !
 ! A28   A(5,10,9)             114.4625         estimate D2E/DX2                !
 ! A29   A(5,10,20)            108.1184         estimate D2E/DX2                !
 ! A30   A(5,10,21)            108.1276         estimate D2E/DX2                !
 ! A31   A(9,10,20)            108.2067         estimate D2E/DX2                !
 ! A32   A(9,10,21)            108.2439         estimate D2E/DX2                !
 ! A33   A(20,10,21)           109.6225         estimate D2E/DX2                !
 ! A34   A(8,11,12)            119.6017         estimate D2E/DX2                !
 ! A35   A(8,11,26)            121.1482         estimate D2E/DX2                !
 ! A36   A(12,11,26)           119.2499         estimate D2E/DX2                !
 ! A37   A(11,12,13)           120.6547         estimate D2E/DX2                !
 ! A38   A(11,12,16)           120.1115         estimate D2E/DX2                !
 ! A39   A(13,12,16)           119.2062         estimate D2E/DX2                !
 ! A40   A(12,13,14)           119.4527         estimate D2E/DX2                !
 ! A41   A(12,13,27)           119.6832         estimate D2E/DX2                !
 ! A42   A(14,13,27)           120.8641         estimate D2E/DX2                !
 ! A43   A(9,14,13)            121.517          estimate D2E/DX2                !
 ! A44   A(9,14,28)            121.1846         estimate D2E/DX2                !
 ! A45   A(13,14,28)           117.2983         estimate D2E/DX2                !
 ! A46   A(12,16,17)           103.0742         estimate D2E/DX2                !
 ! A47   A(12,16,18)           101.5798         estimate D2E/DX2                !
 ! A48   A(12,16,19)           102.7529         estimate D2E/DX2                !
 ! A49   A(17,16,18)           115.9605         estimate D2E/DX2                !
 ! A50   A(17,16,19)           114.9302         estimate D2E/DX2                !
 ! A51   A(18,16,19)           115.5287         estimate D2E/DX2                !
 ! A52   A(10,20,29)           111.0037         estimate D2E/DX2                !
 ! A53   A(10,20,30)           112.354          estimate D2E/DX2                !
 ! A54   A(10,20,31)           112.338          estimate D2E/DX2                !
 ! A55   A(29,20,30)           107.3335         estimate D2E/DX2                !
 ! A56   A(29,20,31)           107.3351         estimate D2E/DX2                !
 ! A57   A(30,20,31)           106.1537         estimate D2E/DX2                !
 ! A58   A(10,21,32)           112.3935         estimate D2E/DX2                !
 ! A59   A(10,21,33)           110.9932         estimate D2E/DX2                !
 ! A60   A(10,21,34)           112.3724         estimate D2E/DX2                !
 ! A61   A(32,21,33)           107.34           estimate D2E/DX2                !
 ! A62   A(32,21,34)           106.0741         estimate D2E/DX2                !
 ! A63   A(33,21,34)           107.3401         estimate D2E/DX2                !
 ! D1    D(4,1,2,3)              0.0381         estimate D2E/DX2                !
 ! D2    D(4,1,2,23)          -179.9851         estimate D2E/DX2                !
 ! D3    D(22,1,2,3)          -179.9647         estimate D2E/DX2                !
 ! D4    D(22,1,2,23)            0.0121         estimate D2E/DX2                !
 ! D5    D(2,1,4,5)              0.0088         estimate D2E/DX2                !
 ! D6    D(2,1,4,7)           -179.9353         estimate D2E/DX2                !
 ! D7    D(22,1,4,5)          -179.9883         estimate D2E/DX2                !
 ! D8    D(22,1,4,7)             0.0676         estimate D2E/DX2                !
 ! D9    D(1,2,3,6)             -0.022          estimate D2E/DX2                !
 ! D10   D(1,2,3,24)           179.9676         estimate D2E/DX2                !
 ! D11   D(23,2,3,6)          -179.9987         estimate D2E/DX2                !
 ! D12   D(23,2,3,24)           -0.009          estimate D2E/DX2                !
 ! D13   D(2,3,6,5)             -0.0412         estimate D2E/DX2                !
 ! D14   D(2,3,6,25)           179.9395         estimate D2E/DX2                !
 ! D15   D(24,3,6,5)           179.9691         estimate D2E/DX2                !
 ! D16   D(24,3,6,25)           -0.0502         estimate D2E/DX2                !
 ! D17   D(1,4,5,6)             -0.0688         estimate D2E/DX2                !
 ! D18   D(1,4,5,10)          -179.9862         estimate D2E/DX2                !
 ! D19   D(7,4,5,6)            179.8734         estimate D2E/DX2                !
 ! D20   D(7,4,5,10)            -0.044          estimate D2E/DX2                !
 ! D21   D(1,4,7,8)           -179.4638         estimate D2E/DX2                !
 ! D22   D(1,4,7,15)             0.6673         estimate D2E/DX2                !
 ! D23   D(5,4,7,8)              0.5923         estimate D2E/DX2                !
 ! D24   D(5,4,7,15)          -179.2765         estimate D2E/DX2                !
 ! D25   D(4,5,6,3)              0.0856         estimate D2E/DX2                !
 ! D26   D(4,5,6,25)          -179.8945         estimate D2E/DX2                !
 ! D27   D(10,5,6,3)          -179.9959         estimate D2E/DX2                !
 ! D28   D(10,5,6,25)            0.024          estimate D2E/DX2                !
 ! D29   D(4,5,10,9)            -0.4217         estimate D2E/DX2                !
 ! D30   D(4,5,10,20)          120.2438         estimate D2E/DX2                !
 ! D31   D(4,5,10,21)         -121.1414         estimate D2E/DX2                !
 ! D32   D(6,5,10,9)           179.6636         estimate D2E/DX2                !
 ! D33   D(6,5,10,20)          -59.6708         estimate D2E/DX2                !
 ! D34   D(6,5,10,21)           58.9439         estimate D2E/DX2                !
 ! D35   D(4,7,8,9)             -0.646          estimate D2E/DX2                !
 ! D36   D(4,7,8,11)           179.3844         estimate D2E/DX2                !
 ! D37   D(15,7,8,9)           179.2205         estimate D2E/DX2                !
 ! D38   D(15,7,8,11)           -0.7491         estimate D2E/DX2                !
 ! D39   D(7,8,9,10)             0.1546         estimate D2E/DX2                !
 ! D40   D(7,8,9,14)          -179.8825         estimate D2E/DX2                !
 ! D41   D(11,8,9,10)         -179.8767         estimate D2E/DX2                !
 ! D42   D(11,8,9,14)            0.0862         estimate D2E/DX2                !
 ! D43   D(7,8,11,12)          179.4834         estimate D2E/DX2                !
 ! D44   D(7,8,11,26)           -0.3535         estimate D2E/DX2                !
 ! D45   D(9,8,11,12)           -0.4861         estimate D2E/DX2                !
 ! D46   D(9,8,11,26)          179.677          estimate D2E/DX2                !
 ! D47   D(8,9,10,5)             0.3656         estimate D2E/DX2                !
 ! D48   D(8,9,10,20)         -120.2511         estimate D2E/DX2                !
 ! D49   D(8,9,10,21)          121.0209         estimate D2E/DX2                !
 ! D50   D(14,9,10,5)         -179.5965         estimate D2E/DX2                !
 ! D51   D(14,9,10,20)          59.7869         estimate D2E/DX2                !
 ! D52   D(14,9,10,21)         -58.9411         estimate D2E/DX2                !
 ! D53   D(8,9,14,13)           -0.0001         estimate D2E/DX2                !
 ! D54   D(8,9,14,28)         -179.9125         estimate D2E/DX2                !
 ! D55   D(10,9,14,13)         179.9636         estimate D2E/DX2                !
 ! D56   D(10,9,14,28)           0.0512         estimate D2E/DX2                !
 ! D57   D(5,10,20,29)         -62.3151         estimate D2E/DX2                !
 ! D58   D(5,10,20,30)         177.489          estimate D2E/DX2                !
 ! D59   D(5,10,20,31)          57.8718         estimate D2E/DX2                !
 ! D60   D(9,10,20,29)          62.1766         estimate D2E/DX2                !
 ! D61   D(9,10,20,30)         -58.0193         estimate D2E/DX2                !
 ! D62   D(9,10,20,31)        -177.6365         estimate D2E/DX2                !
 ! D63   D(21,10,20,29)       -179.9741         estimate D2E/DX2                !
 ! D64   D(21,10,20,30)         59.83           estimate D2E/DX2                !
 ! D65   D(21,10,20,31)        -59.7873         estimate D2E/DX2                !
 ! D66   D(5,10,21,32)        -177.4107         estimate D2E/DX2                !
 ! D67   D(5,10,21,33)          62.3655         estimate D2E/DX2                !
 ! D68   D(5,10,21,34)         -57.844          estimate D2E/DX2                !
 ! D69   D(9,10,21,32)          58.0687         estimate D2E/DX2                !
 ! D70   D(9,10,21,33)         -62.1551         estimate D2E/DX2                !
 ! D71   D(9,10,21,34)         177.6354         estimate D2E/DX2                !
 ! D72   D(20,10,21,32)        -59.7574         estimate D2E/DX2                !
 ! D73   D(20,10,21,33)       -179.9812         estimate D2E/DX2                !
 ! D74   D(20,10,21,34)         59.8093         estimate D2E/DX2                !
 ! D75   D(8,11,12,13)           0.8064         estimate D2E/DX2                !
 ! D76   D(8,11,12,16)         178.8806         estimate D2E/DX2                !
 ! D77   D(26,11,12,13)       -179.3536         estimate D2E/DX2                !
 ! D78   D(26,11,12,16)         -1.2793         estimate D2E/DX2                !
 ! D79   D(11,12,13,14)         -0.7207         estimate D2E/DX2                !
 ! D80   D(11,12,13,27)        179.361          estimate D2E/DX2                !
 ! D81   D(16,12,13,14)       -178.8122         estimate D2E/DX2                !
 ! D82   D(16,12,13,27)          1.2695         estimate D2E/DX2                !
 ! D83   D(11,12,16,17)        -29.585          estimate D2E/DX2                !
 ! D84   D(11,12,16,18)         90.8342         estimate D2E/DX2                !
 ! D85   D(11,12,16,19)       -149.3364         estimate D2E/DX2                !
 ! D86   D(13,12,16,17)        148.5171         estimate D2E/DX2                !
 ! D87   D(13,12,16,18)        -91.0637         estimate D2E/DX2                !
 ! D88   D(13,12,16,19)         28.7657         estimate D2E/DX2                !
 ! D89   D(12,13,14,9)           0.3144         estimate D2E/DX2                !
 ! D90   D(12,13,14,28)       -179.77           estimate D2E/DX2                !
 ! D91   D(27,13,14,9)        -179.7683         estimate D2E/DX2                !
 ! D92   D(27,13,14,28)          0.1474         estimate D2E/DX2                !
 --------------------------------------------------------------------------------
 Trust Radius=3.00D-01 FncErr=1.00D-07 GrdErr=1.00D-06 EigMax=2.50D+02 EigMin=1.00D-04
 Number of steps in this run=    201 maximum allowed number of steps=    204.
 GradGradGradGradGradGradGradGradGradGradGradGradGradGradGradGradGradGrad

 Leave Link  103 at Sat Jan  6 01:37:00 2024, MaxMem=  4026531840 cpu:               0.4 elap:               0.2
 (Enter /sysapps/ubuntu-applications/gaussian/Gaussian/AVX2/g16/l202.exe)
                          Input orientation:                          
 ---------------------------------------------------------------------
 Center     Atomic      Atomic             Coordinates (Angstroms)
 Number     Number       Type             X           Y           Z
 ---------------------------------------------------------------------
      1          6           0       -3.468510    2.425650    1.115190
      2          6           0       -4.224020    2.294640    2.276850
      3          6           0       -3.855530    1.353190    3.227820
      4          6           0       -2.339990    1.615310    0.896800
      5          6           0       -1.950690    0.658760    1.841790
      6          6           0       -2.734420    0.547080    3.013250
      7          6           0       -1.582610    1.807170   -0.355730
      8          6           0       -0.398910    0.965230   -0.623460
      9          6           0        0.018490   -0.003580    0.306510
     10          6           0       -0.723130   -0.239990    1.630990
     11          6           0        0.294870    1.159920   -1.828040
     12          6           0        1.422750    0.388590   -2.105680
     13          6           0        1.856710   -0.582870   -1.208150
     14          6           0        1.161860   -0.772500   -0.013920
     15          8           0       -1.945680    2.664560   -1.154960
     16         16           0        2.310240    0.607050   -3.668310
     17          8           0        1.260650    1.036660   -4.586820
     18          8           0        3.296150    1.620120   -3.306090
     19          8           0        2.844810   -0.728550   -3.925140
     20          6           0        0.268670    0.017950    2.794190
     21          6           0       -1.194610   -1.716790    1.666470
     22          1           0       -3.758950    3.165300    0.370550
     23          1           0       -5.093670    2.926420    2.433560
     24          1           0       -4.438090    1.242930    4.138680
     25          1           0       -2.478800   -0.177710    3.783470
     26          1           0       -0.030420    1.905990   -2.550940
     27          1           0        2.732440   -1.182690   -1.445460
     28          1           0        1.533430   -1.537860    0.663060
     29          1           0        0.616970    1.058540    2.790650
     30          1           0        1.155140   -0.623170    2.735830
     31          1           0       -0.181140   -0.172400    3.774880
     32          1           0       -0.362910   -2.422910    1.567530
     33          1           0       -1.898680   -1.924390    0.850800
     34          1           0       -1.698460   -1.971210    2.605400
 ---------------------------------------------------------------------
                    Distance matrix (angstroms):
                    1          2          3          4          5
     1  C    0.000000
     2  C    1.391910   0.000000
     3  C    2.400658   1.387969   0.000000
     4  C    1.406379   2.432200   2.792709   0.000000
     5  C    2.440005   2.834327   2.455958   1.399839   0.000000
     6  C    2.769575   2.411464   1.397405   2.403342   1.413868
     7  C    2.470373   3.761004   4.267797   1.476234   2.506676
     8  C    3.818138   4.981024   5.189518   2.549821   2.929062
     9  C    4.326002   5.211808   5.038145   2.920903   2.583302
    10  C    3.861191   4.370093   3.860054   2.568153   1.535934
    11  C    4.942439   6.209515   6.544073   3.817672   4.331438
    12  C    6.200648   7.397676   7.565508   4.967690   5.199578
    13  C    6.542711   7.576316   7.487045   5.184120   5.033893
    14  C    5.739632   6.607774   6.340476   4.335205   3.896169
    15  O    2.744024   4.135818   4.957417   2.337975   3.606074
    16  S    7.719011   8.993856   9.280628   6.594047   6.965587
    17  O    7.537053   8.875477   9.345806   6.585555   7.196009
    18  O    8.121405   9.390269   9.690705   7.030674   7.413111
    19  O    8.672480   9.877890  10.019632   7.458347   7.627511
    20  C    4.752113   5.063124   4.356596   3.599549   2.498652
    21  C    4.757556   5.063740   4.352366   3.606547   2.499126
    22  H    1.089002   2.146699   3.384828   2.166300   3.423024
    23  H    2.151747   1.086276   2.153809   3.415171   3.920561
    24  H    3.388274   2.149030   1.086830   3.879494   3.435712
    25  H    3.857036   3.380564   2.132554   3.401037   2.179152
    26  H    5.052823   6.406628   6.952059   4.159990   4.953695
    27  H    7.617665   8.622050   8.465907   6.248562   6.010712
    28  H    6.397909   7.102155   6.631520   5.000050   4.284114
    29  H    4.622478   5.022660   4.503464   3.555316   2.766412
    30  H    5.770608   6.136745   5.408777   4.539687   3.476900
    31  H    4.962924   4.967420   4.015948   4.017448   2.749358
    32  H    5.775630   6.137311   5.404987   4.545981   3.477492
    33  H    4.632183   5.024046   4.496890   3.567401   2.767206
    34  H    4.968519   4.968287   4.011483   4.024177   2.750175
                    6          7          8          9         10
     6  C    0.000000
     7  C    3.776840   0.000000
     8  C    4.342248   1.477054   0.000000
     9  C    3.899767   2.506172   1.406293   0.000000
    10  C    2.564256   2.979367   2.576862   1.536274   0.000000
    11  C    5.743715   2.472157   1.403655   2.446717   3.867940
    12  C    6.596258   3.755913   2.418250   2.818582   4.354609
    13  C    6.338413   4.274089   2.797552   2.451290   3.851475
    14  C    5.107450   3.782016   2.413969   1.414641   2.557828
    15  O    4.741287   1.227072   2.358540   3.621164   4.206252
    16  S    8.372302   5.250500   4.091320   4.628626   6.164527
    17  O    8.600078   5.155573   4.297379   5.154584   6.650292
    18  O    8.800753   5.704552   4.612901   5.141044   6.632449
    19  O    8.994237   6.226766   4.928661   5.140090   6.621138
    20  C    3.057207   4.068236   3.608786   2.500321   1.550237
    21  C    3.051219   4.081437   3.615266   2.501238   1.550642
    22  H    3.858575   2.666169   4.137419   4.931020   4.732960
    23  H    3.400494   4.621731   5.935689   6.264457   5.456362
    24  H    2.157149   5.354611   6.250606   6.008362   4.721069
    25  H    1.088072   4.677166   5.005326   4.284394   2.778386
    26  H    6.333914   2.690354   2.176234   3.437131   4.751170
    27  H    7.263522   5.361570   3.885177   3.438782   4.721673
    28  H    5.299520   4.683681   3.413873   2.185449   2.777304
    29  H    3.397493   3.911305   3.563266   2.767170   2.197011
    30  H    4.071256   4.791615   4.027768   2.752719   2.212554
    31  H    2.759886   4.790068   4.548299   3.478210   2.212371
    32  H    4.066326   4.804183   4.035000   2.754777   2.213352
    33  H    3.388630   3.934483   3.573885   2.767906   2.197230
    34  H    2.753423   4.801861   4.553795   3.479135   2.213112
                   11         12         13         14         15
    11  C    0.000000
    12  C    1.394327   0.000000
    13  C    2.420935   1.391983   0.000000
    14  C    2.788718   2.406585   1.394619   0.000000
    15  O    2.781554   4.174953   5.000680   4.772018   0.000000
    16  S    2.784596   1.810297   2.770196   4.071425   5.353796
    17  O    2.925541   2.569499   3.793887   4.918763   4.970742
    18  O    3.376995   2.543084   3.365487   4.595455   5.761510
    19  O    3.803464   2.565286   2.894754   4.258156   6.491216
    20  C    4.761281   5.047574   4.347595   3.050915   5.244395
    21  C    4.765041   5.050972   4.342783   3.044396   5.265055
    22  H    5.028797   6.379016   6.933737   6.314147   2.421956
    23  H    7.093527   8.337206   8.595636   7.668365   4.780783
    24  H    7.616400   8.606473   8.458525   7.257099   6.021276
    25  H    6.400902   7.086951   6.623977   5.294181   5.722832
    26  H    1.088586   2.147664   3.399819   3.877152   2.488455
    27  H    3.402343   2.149442   1.087659   2.164321   6.063871
    28  H    3.875258   3.374816   2.125545   1.087264   5.750629
    29  H    4.631018   5.007211   4.496842   3.393409   4.971349
    30  H    4.974775   4.953331   4.006096   2.753810   5.963430
    31  H    5.778787   6.121124   5.399251   4.064330   5.955272
    32  H    4.979884   4.958385   4.002107   2.747683   5.983265
    33  H    4.636897   5.012240   4.487973   3.382528   5.008367
    34  H    5.782104   6.124123   5.395358   4.059455   5.974261
                   16         17         18         19         20
    16  S    0.000000
    17  O    1.459406   0.000000
    18  O    1.459292   2.474663   0.000000
    19  O    1.461354   2.462387   2.470462   0.000000
    20  C    6.802864   7.516722   6.996142   7.234857   0.000000
    21  C    6.792944   7.260401   7.485202   6.968474   2.534219
    22  H    7.726066   7.369058   8.104301   8.787757   5.656993
    23  H    9.870673   9.655792  10.248858  10.807929   6.110969
    24  H   10.338926  10.423653  10.741757  11.043213   5.045971
    25  H    8.892681   9.247699   9.319018   9.384397   2.926696
    26  H    2.900767   2.562695   3.423162   4.134752   5.676668
    27  H    2.884872   4.118231   3.411079   2.523427   5.048399
    28  H    4.895390   5.853529   5.369746   4.840070   2.926069
    29  H    6.692471   7.405529   6.683084   7.297862   1.097339
    30  H    6.622742   7.509152   6.791250   6.872744   1.095568
    31  H    7.887686   8.570800   8.089797   8.291923   1.095589
    32  H    6.613653   7.244349   7.313480   6.582533   2.803816
    33  H    6.674245   6.951035   7.538537   6.836690   3.499551
    34  H    7.878867   8.338564   8.531676   8.051923   2.803926
                   21         22         23         24         25
    21  C    0.000000
    22  H    5.664808   0.000000
    23  H    6.111505   2.468715   0.000000
    24  H    5.039040   4.284337   2.484222   0.000000
    25  H    2.915407   4.945960   4.277315   2.446060   0.000000
    26  H    5.680354   4.901316   7.177954   8.038546   7.103599
    27  H    5.038958   8.021288   9.652957   9.406527   7.450417
    28  H    2.912224   7.086223   8.184309   7.447938   5.261650
    29  H    3.499723   5.426232   6.018962   5.234961   3.478189
    30  H    2.803723   6.640432   7.192954   6.060903   3.808084
    31  H    2.803151   5.960741   5.961105   4.500792   2.297682
    32  H    1.095500   6.647852   7.193430   6.054444   3.798461
    33  H    1.097329   5.440238   6.020253   5.224048   3.462367
    34  H    1.095529   5.968577   5.961859   4.493019   2.283292
                   26         27         28         29         30
    26  H    0.000000
    27  H    4.288989   0.000000
    28  H    4.963419   2.451454   0.000000
    29  H    5.447006   5.238602   3.479631   0.000000
    30  H    5.979309   4.503790   2.296984   1.766573   0.000000
    31  H    6.660212   6.063133   3.806265   1.766607   1.751703
    32  H    5.984289   4.494157   2.279799   3.817942   2.628396
    33  H    5.452893   5.222088   3.458906   4.357681   3.817372
    34  H    6.663549   6.055089   3.795470   3.817711   3.158680
                   31         32         33         34
    31  H    0.000000
    32  H    3.157567   0.000000
    33  H    3.817022   1.766582   0.000000
    34  H    2.627862   1.750686   1.766607   0.000000
 Symmetry turned off by external request.
 Stoichiometry    C16H13O4S(1-)
 Framework group  C1[X(C16H13O4S)]
 Deg. of freedom    96
 Full point group                 C1      NOp   1
 Rotational constants (GHZ):           0.6951780           0.1608250           0.1380406
 Leave Link  202 at Sat Jan  6 01:37:00 2024, MaxMem=  4026531840 cpu:               0.4 elap:               0.2
 (Enter /sysapps/ubuntu-applications/gaussian/Gaussian/AVX2/g16/l301.exe)
 Standard basis: 6-311++G(d,p) (5D, 7F)
 Ernie: Thresh=  0.10000D-02 Tol=  0.10000D-05 Strict=F.
   561 basis functions,   887 primitive gaussians,   582 cartesian basis functions
    79 alpha electrons       79 beta electrons
       nuclear repulsion energy      1777.6003276027 Hartrees.
 IExCor=  402 DFT=T Ex+Corr=B3LYP ExCW=0 ScaHFX=  0.200000
 ScaDFX=  0.800000  0.720000  1.000000  0.810000 ScalE2=  1.000000  1.000000
 IRadAn=      5 IRanWt=     -1 IRanGd=            0 ICorTp=0 IEmpDi=  4
 NAtoms=   34 NActive=   34 NUniq=   34 SFac= 1.00D+00 NAtFMM=   60 NAOKFM=F Big=F
 Integral buffers will be    131072 words long.
 Raffenetti 2 integral format.
 Two-electron integral symmetry is turned off.
 Leave Link  301 at Sat Jan  6 01:37:01 2024, MaxMem=  4026531840 cpu:               0.9 elap:               0.4
 (Enter /sysapps/ubuntu-applications/gaussian/Gaussian/AVX2/g16/l302.exe)
 NPDir=0 NMtPBC=     1 NCelOv=     1 NCel=       1 NClECP=     1 NCelD=      1
         NCelK=      1 NCelE2=     1 NClLst=     1 CellRange=     0.0.
 One-electron integrals computed using PRISM.
 NBasis=   561 RedAO= T EigKep=  1.20D-06  NBF=   561
 NBsUse=   553 1.00D-06 EigRej=  6.42D-07 NBFU=   553
 Precomputing XC quadrature grid using
 IXCGrd= 4 IRadAn=           5 IRanWt=          -1 IRanGd=           0 AccXCQ= 0.00D+00.
 Generated NRdTot=       0 NPtTot=           0 NUsed=           0 NTot=          32
 NSgBfM=   577   577   577   577   577 MxSgAt=    34 MxSgA2=    34.
 Leave Link  302 at Sat Jan  6 01:37:03 2024, MaxMem=  4026531840 cpu:              11.9 elap:               1.8
 (Enter /sysapps/ubuntu-applications/gaussian/Gaussian/AVX2/g16/l303.exe)
 DipDrv:  MaxL=1.
 Leave Link  303 at Sat Jan  6 01:37:03 2024, MaxMem=  4026531840 cpu:               1.3 elap:               0.3
 (Enter /sysapps/ubuntu-applications/gaussian/Gaussian/AVX2/g16/l401.exe)
 ExpMin= 3.60D-02 ExpMax= 9.34D+04 ExpMxC= 3.17D+03 IAcc=3 IRadAn=         5 AccDes= 0.00D+00
 Harris functional with IExCor=  402 and IRadAn=       5 diagonalized for initial guess.
 HarFok:  IExCor=  402 AccDes= 0.00D+00 IRadAn=         5 IDoV= 1 UseB2=F ITyADJ=14
 ICtDFT=  3500011 ScaDFX=  1.000000  1.000000  1.000000  1.000000
 FoFCou: FMM=F IPFlag=           0 FMFlag=      100000 FMFlg1=           0
         NFxFlg=           0 DoJE=T BraDBF=F KetDBF=T FulRan=T
         wScrn=  0.000000 ICntrl=       500 IOpCl=  0 I1Cent=   200000004 NGrid=           0
         NMat0=    1 NMatS0=      1 NMatT0=    0 NMatD0=    1 NMtDS0=    0 NMtDT0=    0
 Symmetry not used in FoFCou.
 Harris En= -1317.15976874653    
 JPrj=0 DoOrth=F DoCkMO=F.
 Initial guess <Sx>= 0.0000 <Sy>= 0.0000 <Sz>= 0.0000 <S**2>=-0.0000 S=-0.0000
 Leave Link  401 at Sat Jan  6 01:37:09 2024, MaxMem=  4026531840 cpu:              46.6 elap:               6.1
 (Enter /sysapps/ubuntu-applications/gaussian/Gaussian/AVX2/g16/l502.exe)
 Two-electron integral symmetry not used.
 UHF open shell SCF:
 Using DIIS extrapolation, IDIIS=  1040.
 NGot=  4026531840 LenX=  4025845600 LenY=  4025506294
 Requested convergence on RMS density matrix=1.00D-08 within 128 cycles.
 Requested convergence on MAX density matrix=1.00D-06.
 Requested convergence on             energy=1.00D-06.
 No special actions if energy rises.
 Fock matrices will be formed incrementally for  20 cycles.

 Cycle   1  Pass 1  IDiag  1:
 FoFJK:  IHMeth= 1 ICntrl=       0 DoSepK=F KAlg= 0 I1Cent=           0 FoldK=F
 IRaf= 840000000 NMat=       1 IRICut=       1 DoRegI=T DoRafI=F ISym2E= 0 IDoP0=0 IntGTp=1.
 FoFCou: FMM=F IPFlag=           0 FMFlag=      100000 FMFlg1=           0
         NFxFlg=           0 DoJE=F BraDBF=F KetDBF=F FulRan=T
         wScrn=  0.000000 ICntrl=         0 IOpCl=  1 I1Cent=           0 NGrid=           0
         NMat0=    1 NMatS0=      1 NMatT0=    0 NMatD0=    1 NMtDS0=    0 NMtDT0=    0
 Symmetry not used in FoFCou.
 E= -1316.19013129359    
 DIIS: error= 3.54D-02 at cycle   1 NSaved=   1.
 NSaved= 1 IEnMin= 1 EnMin= -1316.19013129359     IErMin= 1 ErrMin= 3.54D-02
 ErrMax= 3.54D-02  0.00D+00 EMaxC= 1.00D-01 BMatC= 3.93D+00 BMatP= 3.93D+00
 IDIUse=3 WtCom= 6.46D-01 WtEn= 3.54D-01
 Coeff-Com:  0.100D+01
 Coeff-En:   0.100D+01
 Coeff:      0.100D+01
 Gap=     0.135 Goal=   None    Shift=    0.000
 Gap=     0.135 Goal=   None    Shift=    0.000
 GapD=    0.135 DampG=1.000 DampE=0.500 DampFc=0.5000 IDamp=-1.
 Damping current iteration by 5.00D-01
 RMSDP=5.37D-01 MaxDP=3.20D+01              OVMax= 9.96D-01

 Cycle   2  Pass 1  IDiag  1:
 RMSU=  2.60D-01    CP:  1.73D+00
 E= -1316.06600142620     Delta-E=        0.124129867393 Rises=F Damp=T
 DIIS: error= 2.31D-02 at cycle   2 NSaved=   2.
 NSaved= 2 IEnMin= 1 EnMin= -1316.19013129359     IErMin= 2 ErrMin= 2.31D-02
 ErrMax= 2.31D-02  0.00D+00 EMaxC= 1.00D-01 BMatC= 8.79D-01 BMatP= 3.93D+00
 IDIUse=3 WtCom= 7.69D-01 WtEn= 2.31D-01
 Coeff-Com:  0.275D+00 0.725D+00
 Coeff-En:   0.561D+00 0.439D+00
 Coeff:      0.341D+00 0.659D+00
 Gap=     0.009 Goal=   None    Shift=    0.000
 Gap=     0.009 Goal=   None    Shift=    0.000
 RMSDP=2.61D-01 MaxDP=1.53D+01 DE= 1.24D-01 OVMax= 7.37D-01

 Cycle   3  Pass 1  IDiag  1:
 RMSU=  1.41D-02    CP:  1.36D+00  6.95D-03
 E= -1316.76440594115     Delta-E=       -0.698404514956 Rises=F Damp=F
 DIIS: error= 1.58D-02 at cycle   3 NSaved=   3.
 NSaved= 3 IEnMin= 3 EnMin= -1316.76440594115     IErMin= 3 ErrMin= 1.58D-02
 ErrMax= 1.58D-02  0.00D+00 EMaxC= 1.00D-01 BMatC= 5.90D-01 BMatP= 8.79D-01
 IDIUse=3 WtCom= 8.42D-01 WtEn= 1.58D-01
 Coeff-Com:  0.118D+00 0.441D+00 0.441D+00
 Coeff-En:   0.000D+00 0.000D+00 0.100D+01
 Coeff:      0.997D-01 0.371D+00 0.530D+00
 Gap=     0.199 Goal=   None    Shift=    0.000
 Gap=     0.199 Goal=   None    Shift=    0.000
 RMSDP=9.27D-03 MaxDP=1.05D+00 DE=-6.98D-01 OVMax= 1.21D-01

 Cycle   4  Pass 1  IDiag  1:
 RMSU=  5.50D-03    CP:  1.44D+00  5.11D-03  1.00D+00
 E= -1316.90998019566     Delta-E=       -0.145574254504 Rises=F Damp=F
 DIIS: error= 4.73D-03 at cycle   4 NSaved=   4.
 NSaved= 4 IEnMin= 4 EnMin= -1316.90998019566     IErMin= 4 ErrMin= 4.73D-03
 ErrMax= 4.73D-03  0.00D+00 EMaxC= 1.00D-01 BMatC= 7.19D-02 BMatP= 5.90D-01
 IDIUse=3 WtCom= 9.53D-01 WtEn= 4.73D-02
 Coeff-Com:  0.824D-02 0.171D+00 0.249D+00 0.572D+00
 Coeff-En:   0.000D+00 0.000D+00 0.000D+00 0.100D+01
 Coeff:      0.785D-02 0.163D+00 0.237D+00 0.592D+00
 Gap=     0.111 Goal=   None    Shift=    0.000
 Gap=     0.111 Goal=   None    Shift=    0.000
 RMSDP=8.49D-03 MaxDP=5.07D-01 DE=-1.46D-01 OVMax= 4.14D-02

 Cycle   5  Pass 1  IDiag  1:
 RMSU=  4.56D-03    CP:  1.52D+00  9.62D-04  1.10D+00  1.17D+00
 E= -1316.92017933993     Delta-E=       -0.010199144275 Rises=F Damp=F
 DIIS: error= 5.32D-03 at cycle   5 NSaved=   5.
 NSaved= 5 IEnMin= 5 EnMin= -1316.92017933993     IErMin= 4 ErrMin= 4.73D-03
 ErrMax= 5.32D-03  0.00D+00 EMaxC= 1.00D-01 BMatC= 3.72D-02 BMatP= 7.19D-02
 IDIUse=3 WtCom= 9.47D-01 WtEn= 5.32D-02
 Coeff-Com: -0.161D-01 0.818D-01 0.924D-01 0.408D+00 0.434D+00
 Coeff-En:   0.000D+00 0.000D+00 0.000D+00 0.312D+00 0.688D+00
 Coeff:     -0.153D-01 0.775D-01 0.874D-01 0.403D+00 0.448D+00
 Gap=     0.110 Goal=   None    Shift=    0.000
 Gap=     0.110 Goal=   None    Shift=    0.000
 RMSDP=1.87D-03 MaxDP=1.89D-01 DE=-1.02D-02 OVMax= 3.30D-02

 Cycle   6  Pass 1  IDiag  1:
 RMSU=  9.29D-04    CP:  1.54D+00  8.08D-04  1.11D+00  1.26D+00  9.54D-01
 E= -1316.92850037073     Delta-E=       -0.008321030801 Rises=F Damp=F
 DIIS: error= 1.20D-03 at cycle   6 NSaved=   6.
 NSaved= 6 IEnMin= 6 EnMin= -1316.92850037073     IErMin= 6 ErrMin= 1.20D-03
 ErrMax= 1.20D-03  0.00D+00 EMaxC= 1.00D-01 BMatC= 3.23D-03 BMatP= 3.72D-02
 IDIUse=3 WtCom= 9.88D-01 WtEn= 1.20D-02
 Coeff-Com: -0.101D-01 0.202D-01-0.119D-01 0.828D-01 0.261D+00 0.658D+00
 Coeff-En:   0.000D+00 0.000D+00 0.000D+00 0.000D+00 0.124D-03 0.100D+01
 Coeff:     -0.100D-01 0.200D-01-0.118D-01 0.818D-01 0.258D+00 0.662D+00
 Gap=     0.107 Goal=   None    Shift=    0.000
 Gap=     0.107 Goal=   None    Shift=    0.000
 RMSDP=2.84D-03 MaxDP=1.94D-01 DE=-8.32D-03 OVMax= 6.23D-03

 Cycle   7  Pass 1  IDiag  1:
 RMSU=  3.53D-04    CP:  1.57D+00  5.34D-05  1.15D+00  1.36D+00  1.12D+00
                    CP:  8.82D-01
 E= -1316.92910407166     Delta-E=       -0.000603700931 Rises=F Damp=F
 DIIS: error= 4.76D-04 at cycle   7 NSaved=   7.
 NSaved= 7 IEnMin= 7 EnMin= -1316.92910407166     IErMin= 7 ErrMin= 4.76D-04
 ErrMax= 4.76D-04  0.00D+00 EMaxC= 1.00D-01 BMatC= 4.66D-04 BMatP= 3.23D-03
 IDIUse=3 WtCom= 9.95D-01 WtEn= 4.76D-03
 Coeff-Com: -0.368D-02 0.493D-02-0.192D-01-0.655D-02 0.989D-01 0.405D+00
 Coeff-Com:  0.520D+00
 Coeff-En:   0.000D+00 0.000D+00 0.000D+00 0.000D+00 0.000D+00 0.154D-01
 Coeff-En:   0.985D+00
 Coeff:     -0.366D-02 0.490D-02-0.192D-01-0.652D-02 0.984D-01 0.403D+00
 Coeff:      0.523D+00
 Gap=     0.106 Goal=   None    Shift=    0.000
 Gap=     0.106 Goal=   None    Shift=    0.000
 RMSDP=1.62D-04 MaxDP=1.17D-02 DE=-6.04D-04 OVMax= 3.79D-03

 Cycle   8  Pass 1  IDiag  1:
 RMSU=  1.15D-04    CP:  1.57D+00  1.85D-05  1.15D+00  1.37D+00  1.12D+00
                    CP:  9.73D-01  9.19D-01
 E= -1316.92920569943     Delta-E=       -0.000101627767 Rises=F Damp=F
 DIIS: error= 2.43D-04 at cycle   8 NSaved=   8.
 NSaved= 8 IEnMin= 8 EnMin= -1316.92920569943     IErMin= 8 ErrMin= 2.43D-04
 ErrMax= 2.43D-04  0.00D+00 EMaxC= 1.00D-01 BMatC= 5.06D-05 BMatP= 4.66D-04
 IDIUse=3 WtCom= 9.98D-01 WtEn= 2.43D-03
 Coeff-Com: -0.717D-03 0.503D-03-0.874D-02-0.126D-01 0.192D-01 0.128D+00
 Coeff-Com:  0.299D+00 0.575D+00
 Coeff-En:   0.000D+00 0.000D+00 0.000D+00 0.000D+00 0.000D+00 0.000D+00
 Coeff-En:   0.712D-01 0.929D+00
 Coeff:     -0.715D-03 0.502D-03-0.872D-02-0.126D-01 0.191D-01 0.128D+00
 Coeff:      0.298D+00 0.576D+00
 Gap=     0.106 Goal=   None    Shift=    0.000
 Gap=     0.106 Goal=   None    Shift=    0.000
 RMSDP=5.96D-05 MaxDP=3.98D-03 DE=-1.02D-04 OVMax= 2.04D-03

 Cycle   9  Pass 1  IDiag  1:
 RMSU=  4.24D-05    CP:  1.57D+00 -8.09D-06  1.15D+00  1.37D+00  1.13D+00
                    CP:  9.96D-01  8.94D-01  8.56D-01
 E= -1316.92921862653     Delta-E=       -0.000012927101 Rises=F Damp=F
 DIIS: error= 8.78D-05 at cycle   9 NSaved=   9.
 NSaved= 9 IEnMin= 9 EnMin= -1316.92921862653     IErMin= 9 ErrMin= 8.78D-05
 ErrMax= 8.78D-05  0.00D+00 EMaxC= 1.00D-01 BMatC= 8.60D-06 BMatP= 5.06D-05
 IDIUse=1 WtCom= 1.00D+00 WtEn= 0.00D+00
 Coeff-Com: -0.937D-05 0.238D-03-0.269D-02-0.595D-02 0.994D-03 0.299D-01
 Coeff-Com:  0.117D+00 0.348D+00 0.513D+00
 Coeff:     -0.937D-05 0.238D-03-0.269D-02-0.595D-02 0.994D-03 0.299D-01
 Coeff:      0.117D+00 0.348D+00 0.513D+00
 Gap=     0.106 Goal=   None    Shift=    0.000
 Gap=     0.106 Goal=   None    Shift=    0.000
 RMSDP=5.60D-05 MaxDP=4.21D-03 DE=-1.29D-05 OVMax= 5.01D-04

 Cycle  10  Pass 1  IDiag  1:
 RMSU=  1.45D-05    CP:  1.57D+00 -1.09D-05  1.15D+00  1.37D+00  1.13D+00
                    CP:  9.88D-01  9.22D-01  9.02D-01  7.00D-01
 E= -1316.92922076483     Delta-E=       -0.000002138301 Rises=F Damp=F
 DIIS: error= 1.83D-05 at cycle  10 NSaved=  10.
 NSaved=10 IEnMin=10 EnMin= -1316.92922076483     IErMin=10 ErrMin= 1.83D-05
 ErrMax= 1.83D-05  0.00D+00 EMaxC= 1.00D-01 BMatC= 6.83D-07 BMatP= 8.60D-06
 IDIUse=1 WtCom= 1.00D+00 WtEn= 0.00D+00
 Coeff-Com:  0.420D-04 0.112D-03-0.586D-03-0.181D-02-0.105D-02 0.180D-02
 Coeff-Com:  0.304D-01 0.126D+00 0.271D+00 0.574D+00
 Coeff:      0.420D-04 0.112D-03-0.586D-03-0.181D-02-0.105D-02 0.180D-02
 Coeff:      0.304D-01 0.126D+00 0.271D+00 0.574D+00
 Gap=     0.106 Goal=   None    Shift=    0.000
 Gap=     0.106 Goal=   None    Shift=    0.000
 RMSDP=1.60D-05 MaxDP=2.31D-03 DE=-2.14D-06 OVMax= 1.63D-04

 Cycle  11  Pass 1  IDiag  1:
 RMSU=  7.37D-06    CP:  1.57D+00 -3.89D-06  1.15D+00  1.37D+00  1.13D+00
                    CP:  9.93D-01  9.18D-01  8.90D-01  7.17D-01  5.74D-01
 E= -1316.92922089564     Delta-E=       -0.000000130810 Rises=F Damp=F
 DIIS: error= 7.73D-06 at cycle  11 NSaved=  11.
 NSaved=11 IEnMin=11 EnMin= -1316.92922089564     IErMin=11 ErrMin= 7.73D-06
 ErrMax= 7.73D-06  0.00D+00 EMaxC= 1.00D-01 BMatC= 1.60D-07 BMatP= 6.83D-07
 IDIUse=1 WtCom= 1.00D+00 WtEn= 0.00D+00
 Coeff-Com:  0.283D-05 0.381D-04 0.573D-05-0.112D-03-0.448D-03-0.334D-02
 Coeff-Com:  0.642D-03 0.233D-01 0.889D-01 0.366D+00 0.525D+00
 Coeff:      0.283D-05 0.381D-04 0.573D-05-0.112D-03-0.448D-03-0.334D-02
 Coeff:      0.642D-03 0.233D-01 0.889D-01 0.366D+00 0.525D+00
 Gap=     0.106 Goal=   None    Shift=    0.000
 Gap=     0.106 Goal=   None    Shift=    0.000
 RMSDP=8.89D-06 MaxDP=1.30D-03 DE=-1.31D-07 OVMax= 8.60D-05

 Cycle  12  Pass 1  IDiag  1:
 RMSU=  2.12D-06    CP:  1.57D+00 -6.75D-06  1.15D+00  1.37D+00  1.13D+00
                    CP:  9.89D-01  9.22D-01  9.03D-01  7.60D-01  7.66D-01
                    CP:  4.35D-01
 E= -1316.92922093441     Delta-E=       -0.000000038766 Rises=F Damp=F
 DIIS: error= 2.73D-06 at cycle  12 NSaved=  12.
 NSaved=12 IEnMin=12 EnMin= -1316.92922093441     IErMin=12 ErrMin= 2.73D-06
 ErrMax= 2.73D-06  0.00D+00 EMaxC= 1.00D-01 BMatC= 1.62D-08 BMatP= 1.60D-07
 IDIUse=1 WtCom= 1.00D+00 WtEn= 0.00D+00
 Coeff-Com: -0.453D-05 0.114D-04 0.348D-04 0.478D-04-0.186D-03-0.218D-02
 Coeff-Com: -0.215D-02 0.367D-02 0.297D-01 0.166D+00 0.321D+00 0.485D+00
 Coeff:     -0.453D-05 0.114D-04 0.348D-04 0.478D-04-0.186D-03-0.218D-02
 Coeff:     -0.215D-02 0.367D-02 0.297D-01 0.166D+00 0.321D+00 0.485D+00
 Gap=     0.106 Goal=   None    Shift=    0.000
 Gap=     0.106 Goal=   None    Shift=    0.000
 RMSDP=3.04D-06 MaxDP=5.20D-04 DE=-3.88D-08 OVMax= 1.29D-05

 Cycle  13  Pass 1  IDiag  1:
 RMSU=  7.73D-07    CP:  1.57D+00 -5.88D-06  1.15D+00  1.37D+00  1.13D+00
                    CP:  9.90D-01  9.21D-01  9.00D-01  7.46D-01  7.09D-01
                    CP:  6.31D-01  6.43D-01
 E= -1316.92922093781     Delta-E=       -0.000000003397 Rises=F Damp=F
 DIIS: error= 6.06D-07 at cycle  13 NSaved=  13.
 NSaved=13 IEnMin=13 EnMin= -1316.92922093781     IErMin=13 ErrMin= 6.06D-07
 ErrMax= 6.06D-07  0.00D+00 EMaxC= 1.00D-01 BMatC= 1.25D-09 BMatP= 1.62D-08
 IDIUse=1 WtCom= 1.00D+00 WtEn= 0.00D+00
 Coeff-Com: -0.299D-05 0.325D-05 0.206D-04 0.397D-04-0.524D-04-0.775D-03
 Coeff-Com: -0.136D-02-0.124D-02 0.330D-02 0.356D-01 0.105D+00 0.257D+00
 Coeff-Com:  0.602D+00
 Coeff:     -0.299D-05 0.325D-05 0.206D-04 0.397D-04-0.524D-04-0.775D-03
 Coeff:     -0.136D-02-0.124D-02 0.330D-02 0.356D-01 0.105D+00 0.257D+00
 Coeff:      0.602D+00
 Gap=     0.106 Goal=   None    Shift=    0.000
 Gap=     0.106 Goal=   None    Shift=    0.000
 RMSDP=7.46D-07 MaxDP=8.81D-05 DE=-3.40D-09 OVMax= 3.87D-06

 Cycle  14  Pass 1  IDiag  1:
 RMSU=  2.05D-07    CP:  1.57D+00 -5.93D-06  1.15D+00  1.37D+00  1.13D+00
                    CP:  9.90D-01  9.22D-01  9.00D-01  7.53D-01  7.26D-01
                    CP:  5.91D-01  7.37D-01  5.96D-01
 E= -1316.92922093801     Delta-E=       -0.000000000201 Rises=F Damp=F
 DIIS: error= 2.84D-07 at cycle  14 NSaved=  14.
 NSaved=14 IEnMin=14 EnMin= -1316.92922093801     IErMin=14 ErrMin= 2.84D-07
 ErrMax= 2.84D-07  0.00D+00 EMaxC= 1.00D-01 BMatC= 1.88D-10 BMatP= 1.25D-09
 IDIUse=1 WtCom= 1.00D+00 WtEn= 0.00D+00
 Coeff-Com: -0.127D-05 0.164D-05 0.928D-05 0.182D-04-0.121D-04-0.255D-03
 Coeff-Com: -0.581D-03-0.933D-03-0.731D-03 0.521D-02 0.318D-01 0.100D+00
 Coeff-Com:  0.345D+00 0.521D+00
 Coeff:     -0.127D-05 0.164D-05 0.928D-05 0.182D-04-0.121D-04-0.255D-03
 Coeff:     -0.581D-03-0.933D-03-0.731D-03 0.521D-02 0.318D-01 0.100D+00
 Coeff:      0.345D+00 0.521D+00
 Gap=     0.106 Goal=   None    Shift=    0.000
 Gap=     0.106 Goal=   None    Shift=    0.000
 RMSDP=4.21D-07 MaxDP=6.55D-05 DE=-2.01D-10 OVMax= 2.29D-06

 Cycle  15  Pass 1  IDiag  1:
 RMSU=  7.10D-08    CP:  1.57D+00 -5.64D-06  1.15D+00  1.37D+00  1.13D+00
                    CP:  9.90D-01  9.21D-01  9.00D-01  7.52D-01  7.22D-01
                    CP:  6.12D-01  7.12D-01  7.73D-01  6.20D-01
 E= -1316.92922093804     Delta-E=       -0.000000000038 Rises=F Damp=F
 DIIS: error= 8.57D-08 at cycle  15 NSaved=  15.
 NSaved=15 IEnMin=15 EnMin= -1316.92922093804     IErMin=15 ErrMin= 8.57D-08
 ErrMax= 8.57D-08  0.00D+00 EMaxC= 1.00D-01 BMatC= 2.39D-11 BMatP= 1.88D-10
 IDIUse=1 WtCom= 1.00D+00 WtEn= 0.00D+00
 Coeff-Com: -0.769D-07 0.281D-06 0.142D-05 0.105D-05 0.116D-05-0.188D-04
 Coeff-Com: -0.102D-03-0.300D-03-0.966D-03-0.322D-02 0.325D-03 0.125D-01
 Coeff-Com:  0.904D-01 0.296D+00 0.606D+00
 Coeff:     -0.769D-07 0.281D-06 0.142D-05 0.105D-05 0.116D-05-0.188D-04
 Coeff:     -0.102D-03-0.300D-03-0.966D-03-0.322D-02 0.325D-03 0.125D-01
 Coeff:      0.904D-01 0.296D+00 0.606D+00
 Gap=     0.106 Goal=   None    Shift=    0.000
 Gap=     0.106 Goal=   None    Shift=    0.000
 RMSDP=1.22D-07 MaxDP=1.70D-05 DE=-3.77D-11 OVMax= 6.51D-07

 Cycle  16  Pass 1  IDiag  1:
 RMSU=  2.40D-08    CP:  1.57D+00 -5.70D-06  1.15D+00  1.37D+00  1.13D+00
                    CP:  9.90D-01  9.21D-01  9.00D-01  7.52D-01  7.23D-01
                    CP:  6.08D-01  7.25D-01  7.14D-01  7.78D-01  6.73D-01
 E= -1316.92922093806     Delta-E=       -0.000000000015 Rises=F Damp=F
 DIIS: error= 2.40D-08 at cycle  16 NSaved=  16.
 NSaved=16 IEnMin=16 EnMin= -1316.92922093806     IErMin=16 ErrMin= 2.40D-08
 ErrMax= 2.40D-08  0.00D+00 EMaxC= 1.00D-01 BMatC= 2.10D-12 BMatP= 2.39D-11
 IDIUse=1 WtCom= 1.00D+00 WtEn= 0.00D+00
 Coeff-Com:  0.749D-07-0.155D-06 0.291D-07-0.864D-06 0.176D-05 0.824D-05
 Coeff-Com: -0.112D-04-0.917D-04-0.449D-03-0.210D-02-0.234D-02-0.159D-02
 Coeff-Com:  0.176D-01 0.113D+00 0.327D+00 0.549D+00
 Coeff:      0.749D-07-0.155D-06 0.291D-07-0.864D-06 0.176D-05 0.824D-05
 Coeff:     -0.112D-04-0.917D-04-0.449D-03-0.210D-02-0.234D-02-0.159D-02
 Coeff:      0.176D-01 0.113D+00 0.327D+00 0.549D+00
 Gap=     0.106 Goal=   None    Shift=    0.000
 Gap=     0.106 Goal=   None    Shift=    0.000
 RMSDP=2.61D-08 MaxDP=4.05D-06 DE=-1.55D-11 OVMax= 2.02D-07

 Cycle  17  Pass 1  IDiag  1:
 RMSU=  7.27D-09    CP:  1.57D+00 -5.69D-06  1.15D+00  1.37D+00  1.13D+00
                    CP:  9.90D-01  9.21D-01  9.00D-01  7.52D-01  7.23D-01
                    CP:  6.09D-01  7.24D-01  7.33D-01  7.56D-01  7.61D-01
                    CP:  7.49D-01
 E= -1316.92922093805     Delta-E=        0.000000000008 Rises=F Damp=F
 DIIS: error= 9.75D-09 at cycle  17 NSaved=  17.
 NSaved=17 IEnMin=16 EnMin= -1316.92922093806     IErMin=17 ErrMin= 9.75D-09
 ErrMax= 9.75D-09  0.00D+00 EMaxC= 1.00D-01 BMatC= 2.75D-13 BMatP= 2.10D-12
 IDIUse=1 WtCom= 1.00D+00 WtEn= 0.00D+00
 Coeff-Com:  0.697D-07-0.891D-07-0.710D-07-0.579D-06 0.928D-06 0.688D-05
 Coeff-Com:  0.770D-05-0.954D-05-0.118D-03-0.763D-03-0.134D-02-0.248D-02
 Coeff-Com: -0.258D-02 0.245D-01 0.108D+00 0.307D+00 0.568D+00
 Coeff:      0.697D-07-0.891D-07-0.710D-07-0.579D-06 0.928D-06 0.688D-05
 Coeff:      0.770D-05-0.954D-05-0.118D-03-0.763D-03-0.134D-02-0.248D-02
 Coeff:     -0.258D-02 0.245D-01 0.108D+00 0.307D+00 0.568D+00
 Gap=     0.106 Goal=   None    Shift=    0.000
 Gap=     0.106 Goal=   None    Shift=    0.000
 RMSDP=2.10D-08 MaxDP=1.82D-06 DE= 8.19D-12 OVMax= 9.28D-08

 Cycle  18  Pass 1  IDiag  1:
 RMSU=  3.39D-09    CP:  1.57D+00 -5.68D-06  1.15D+00  1.37D+00  1.13D+00
                    CP:  9.90D-01  9.21D-01  9.00D-01  7.52D-01  7.23D-01
                    CP:  6.09D-01  7.25D-01  7.29D-01  7.74D-01  7.47D-01
                    CP:  8.43D-01  7.53D-01
 E= -1316.92922093804     Delta-E=        0.000000000013 Rises=F Damp=F
 DIIS: error= 4.28D-09 at cycle  18 NSaved=  18.
 NSaved=18 IEnMin=16 EnMin= -1316.92922093806     IErMin=18 ErrMin= 4.28D-09
 ErrMax= 4.28D-09  0.00D+00 EMaxC= 1.00D-01 BMatC= 3.90D-14 BMatP= 2.75D-13
 IDIUse=1 WtCom= 1.00D+00 WtEn= 0.00D+00
 Coeff-Com:  0.318D-07-0.325D-07-0.274D-07-0.213D-06 0.450D-06 0.322D-05
 Coeff-Com:  0.550D-05 0.335D-05-0.240D-04-0.222D-03-0.490D-03-0.118D-02
 Coeff-Com: -0.325D-02 0.267D-02 0.298D-01 0.121D+00 0.330D+00 0.521D+00
 Coeff:      0.318D-07-0.325D-07-0.274D-07-0.213D-06 0.450D-06 0.322D-05
 Coeff:      0.550D-05 0.335D-05-0.240D-04-0.222D-03-0.490D-03-0.118D-02
 Coeff:     -0.325D-02 0.267D-02 0.298D-01 0.121D+00 0.330D+00 0.521D+00
 Gap=     0.106 Goal=   None    Shift=    0.000
 Gap=     0.106 Goal=   None    Shift=    0.000
 RMSDP=4.88D-09 MaxDP=5.86D-07 DE= 1.32D-11 OVMax= 3.55D-08

 SCF Done:  E(UB3LYP) =  -1316.92922094     A.U. after   18 cycles
            NFock= 18  Conv=0.49D-08     -V/T= 2.0031
 <Sx>= 0.0000 <Sy>= 0.0000 <Sz>= 0.0000 <S**2>=-0.0000 S=-0.0000
 <L.S>=  0.00000000000    
 KE= 1.312799255073D+03 PE=-6.664495193530D+03 EE= 2.257166389917D+03
 Annihilation of the first spin contaminant:
 S**2 before annihilation    -0.0000,   after    -0.0000
 Leave Link  502 at Sat Jan  6 01:51:32 2024, MaxMem=  4026531840 cpu:            5052.3 elap:             863.3
 (Enter /sysapps/ubuntu-applications/gaussian/Gaussian/AVX2/g16/l601.exe)
 Copying SCF densities to generalized density rwf, IOpCl= 1 IROHF=0.

 **********************************************************************

            Population analysis using the SCF density.

 **********************************************************************

 Alpha  occ. eigenvalues --  -88.88737 -19.01165 -18.93278 -18.93202 -18.93180
 Alpha  occ. eigenvalues --  -10.16667 -10.13442 -10.12699 -10.11984 -10.11656
 Alpha  occ. eigenvalues --  -10.11295 -10.11169 -10.11077 -10.10343 -10.09742
 Alpha  occ. eigenvalues --  -10.09736 -10.08827 -10.08502 -10.07895 -10.07354
 Alpha  occ. eigenvalues --  -10.07169  -7.94711  -5.90958  -5.90946  -5.90936
 Alpha  occ. eigenvalues --   -0.96797  -0.94691  -0.82753  -0.82747  -0.80784
 Alpha  occ. eigenvalues --   -0.77526  -0.73858  -0.70079  -0.67813  -0.66473
 Alpha  occ. eigenvalues --   -0.64485  -0.62351  -0.57463  -0.56524  -0.53936
 Alpha  occ. eigenvalues --   -0.51969  -0.48722  -0.47410  -0.45949  -0.42352
 Alpha  occ. eigenvalues --   -0.41300  -0.39012  -0.38081  -0.37458  -0.36698
 Alpha  occ. eigenvalues --   -0.36578  -0.36195  -0.34273  -0.33586  -0.33258
 Alpha  occ. eigenvalues --   -0.33145  -0.32491  -0.31995  -0.30768  -0.29842
 Alpha  occ. eigenvalues --   -0.29594  -0.29342  -0.29097  -0.28371  -0.27182
 Alpha  occ. eigenvalues --   -0.25768  -0.25591  -0.24325  -0.19096  -0.18829
 Alpha  occ. eigenvalues --   -0.18187  -0.18106  -0.17481  -0.16736  -0.16055
 Alpha  occ. eigenvalues --   -0.14436  -0.13629  -0.12509  -0.09831
 Alpha virt. eigenvalues --    0.00772   0.04569   0.04613   0.05992   0.06785
 Alpha virt. eigenvalues --    0.07309   0.07746   0.08134   0.08731   0.09268
 Alpha virt. eigenvalues --    0.10335   0.11291   0.11757   0.11780   0.12584
 Alpha virt. eigenvalues --    0.13005   0.13604   0.13674   0.13749   0.15071
 Alpha virt. eigenvalues --    0.15617   0.15760   0.16062   0.16584   0.17139
 Alpha virt. eigenvalues --    0.17389   0.17593   0.18371   0.18590   0.18752
 Alpha virt. eigenvalues --    0.18894   0.19189   0.19392   0.19846   0.20116
 Alpha virt. eigenvalues --    0.20211   0.20321   0.20762   0.21028   0.21504
 Alpha virt. eigenvalues --    0.21849   0.22055   0.22313   0.22994   0.23050
 Alpha virt. eigenvalues --    0.23723   0.23782   0.24673   0.24877   0.25053
 Alpha virt. eigenvalues --    0.25281   0.25646   0.25961   0.26224   0.26303
 Alpha virt. eigenvalues --    0.26441   0.26684   0.26910   0.27333   0.27567
 Alpha virt. eigenvalues --    0.27937   0.28069   0.28217   0.28998   0.29455
 Alpha virt. eigenvalues --    0.30077   0.30307   0.30433   0.30618   0.31152
 Alpha virt. eigenvalues --    0.31551   0.31767   0.32076   0.32494   0.32885
 Alpha virt. eigenvalues --    0.33476   0.33582   0.34013   0.34722   0.34977
 Alpha virt. eigenvalues --    0.35121   0.35709   0.36075   0.36453   0.36718
 Alpha virt. eigenvalues --    0.37021   0.37287   0.37506   0.37874   0.38665
 Alpha virt. eigenvalues --    0.38952   0.39423   0.39497   0.39665   0.40345
 Alpha virt. eigenvalues --    0.40728   0.40981   0.41251   0.41580   0.41893
 Alpha virt. eigenvalues --    0.41939   0.42812   0.43197   0.43352   0.44110
 Alpha virt. eigenvalues --    0.44523   0.44614   0.45633   0.46137   0.46581
 Alpha virt. eigenvalues --    0.46706   0.46961   0.47198   0.47574   0.48713
 Alpha virt. eigenvalues --    0.49116   0.49809   0.50152   0.50688   0.51750
 Alpha virt. eigenvalues --    0.52127   0.52753   0.53406   0.54326   0.54802
 Alpha virt. eigenvalues --    0.55087   0.55880   0.56628   0.56907   0.57485
 Alpha virt. eigenvalues --    0.58327   0.60004   0.60130   0.61384   0.62279
 Alpha virt. eigenvalues --    0.62362   0.63003   0.63269   0.63823   0.64643
 Alpha virt. eigenvalues --    0.64893   0.65462   0.65676   0.67103   0.67529
 Alpha virt. eigenvalues --    0.68825   0.68970   0.70025   0.70540   0.71158
 Alpha virt. eigenvalues --    0.71212   0.71680   0.72705   0.73072   0.73703
 Alpha virt. eigenvalues --    0.74660   0.75130   0.76083   0.76800   0.77197
 Alpha virt. eigenvalues --    0.77630   0.78152   0.78873   0.79107   0.79512
 Alpha virt. eigenvalues --    0.80344   0.80759   0.81144   0.81291   0.83946
 Alpha virt. eigenvalues --    0.84107   0.84469   0.84781   0.84934   0.85273
 Alpha virt. eigenvalues --    0.86512   0.86712   0.88241   0.88422   0.89609
 Alpha virt. eigenvalues --    0.90474   0.91104   0.92351   0.93205   0.94069
 Alpha virt. eigenvalues --    0.95302   0.96277   0.97440   0.99054   0.99635
 Alpha virt. eigenvalues --    1.01202   1.01588   1.01917   1.02268   1.02940
 Alpha virt. eigenvalues --    1.03429   1.04351   1.05348   1.06166   1.07102
 Alpha virt. eigenvalues --    1.07817   1.09173   1.09480   1.09785   1.11007
 Alpha virt. eigenvalues --    1.11608   1.12643   1.13629   1.13987   1.14887
 Alpha virt. eigenvalues --    1.15478   1.16786   1.17286   1.18627   1.18943
 Alpha virt. eigenvalues --    1.20755   1.21739   1.23132   1.23595   1.24268
 Alpha virt. eigenvalues --    1.25607   1.26427   1.27979   1.29676   1.30792
 Alpha virt. eigenvalues --    1.31547   1.32594   1.33543   1.33837   1.34443
 Alpha virt. eigenvalues --    1.35045   1.35892   1.36399   1.36529   1.37419
 Alpha virt. eigenvalues --    1.39418   1.39925   1.40749   1.41416   1.44164
 Alpha virt. eigenvalues --    1.44840   1.47000   1.48560   1.49890   1.50673
 Alpha virt. eigenvalues --    1.51007   1.53334   1.55752   1.56288   1.57262
 Alpha virt. eigenvalues --    1.57432   1.60098   1.60856   1.61779   1.62001
 Alpha virt. eigenvalues --    1.64038   1.64258   1.64808   1.65510   1.66941
 Alpha virt. eigenvalues --    1.67238   1.69317   1.70209   1.70503   1.71369
 Alpha virt. eigenvalues --    1.71722   1.73902   1.74161   1.74606   1.74898
 Alpha virt. eigenvalues --    1.75979   1.76594   1.77553   1.79843   1.80145
 Alpha virt. eigenvalues --    1.80555   1.80918   1.81698   1.83026   1.83276
 Alpha virt. eigenvalues --    1.86262   1.86835   1.87306   1.88290   1.89533
 Alpha virt. eigenvalues --    1.91404   1.92241   1.94555   1.95501   1.96641
 Alpha virt. eigenvalues --    1.97140   1.98231   1.99198   1.99623   2.01494
 Alpha virt. eigenvalues --    2.02027   2.02915   2.04089   2.04560   2.05286
 Alpha virt. eigenvalues --    2.05625   2.05982   2.06682   2.08419   2.09154
 Alpha virt. eigenvalues --    2.10548   2.13028   2.13409   2.15241   2.15923
 Alpha virt. eigenvalues --    2.16810   2.17574   2.18357   2.20089   2.21854
 Alpha virt. eigenvalues --    2.22571   2.24089   2.27023   2.28893   2.29039
 Alpha virt. eigenvalues --    2.31015   2.33433   2.33888   2.36499   2.38073
 Alpha virt. eigenvalues --    2.40160   2.41234   2.46499   2.47057   2.48282
 Alpha virt. eigenvalues --    2.50120   2.52183   2.53491   2.54673   2.56115
 Alpha virt. eigenvalues --    2.57301   2.58722   2.61221   2.61715   2.62024
 Alpha virt. eigenvalues --    2.64178   2.68175   2.68902   2.70466   2.70917
 Alpha virt. eigenvalues --    2.73791   2.75384   2.76615   2.77696   2.78836
 Alpha virt. eigenvalues --    2.79049   2.79909   2.80895   2.82018   2.82826
 Alpha virt. eigenvalues --    2.83178   2.83783   2.84977   2.85938   2.86185
 Alpha virt. eigenvalues --    2.88791   2.89021   2.90404   2.90911   2.91416
 Alpha virt. eigenvalues --    2.93300   2.93871   2.94275   2.95780   2.96524
 Alpha virt. eigenvalues --    2.97567   2.99431   3.00037   3.00919   3.01119
 Alpha virt. eigenvalues --    3.01878   3.02444   3.03620   3.04780   3.05784
 Alpha virt. eigenvalues --    3.06492   3.06695   3.08854   3.10279   3.10774
 Alpha virt. eigenvalues --    3.11336   3.16052   3.16863   3.19007   3.19784
 Alpha virt. eigenvalues --    3.21599   3.22354   3.24171   3.28533   3.30419
 Alpha virt. eigenvalues --    3.31843   3.32947   3.34424   3.34879   3.38158
 Alpha virt. eigenvalues --    3.39750   3.43446   3.44956   3.45690   3.49113
 Alpha virt. eigenvalues --    3.50678   3.56106   3.58915   3.61709   3.62715
 Alpha virt. eigenvalues --    3.63496   3.66176   3.67428   3.69832   3.73124
 Alpha virt. eigenvalues --    3.78016   3.79511   3.82770   3.85097   3.88551
 Alpha virt. eigenvalues --    3.91006   3.92085   3.92606   3.94643   3.99645
 Alpha virt. eigenvalues --    4.10676   4.14489   4.18532   4.25742   4.29982
 Alpha virt. eigenvalues --    4.32509   4.34167   4.36216   4.56074   4.78739
 Alpha virt. eigenvalues --    4.91517   4.96128   5.16826   5.20676   5.21215
 Alpha virt. eigenvalues --    5.23769   5.25451   5.25573   5.27849   5.28754
 Alpha virt. eigenvalues --    5.37063   5.48946   5.49847   5.88765   8.40274
 Alpha virt. eigenvalues --   17.57203  17.61383  17.68537  23.61884  23.73599
 Alpha virt. eigenvalues --   23.92570  24.00372  24.01134  24.02692  24.02917
 Alpha virt. eigenvalues --   24.04350  24.06555  24.11572  24.12756  24.14382
 Alpha virt. eigenvalues --   24.17727  24.18581  24.25079  24.27234  50.06469
 Alpha virt. eigenvalues --   50.06566  50.13157  50.16479 189.49823
  Beta  occ. eigenvalues --  -88.88737 -19.01165 -18.93278 -18.93202 -18.93180
  Beta  occ. eigenvalues --  -10.16667 -10.13442 -10.12699 -10.11984 -10.11656
  Beta  occ. eigenvalues --  -10.11295 -10.11169 -10.11077 -10.10343 -10.09742
  Beta  occ. eigenvalues --  -10.09736 -10.08827 -10.08502 -10.07895 -10.07354
  Beta  occ. eigenvalues --  -10.07169  -7.94711  -5.90958  -5.90946  -5.90936
  Beta  occ. eigenvalues --   -0.96797  -0.94691  -0.82753  -0.82747  -0.80784
  Beta  occ. eigenvalues --   -0.77526  -0.73858  -0.70079  -0.67813  -0.66473
  Beta  occ. eigenvalues --   -0.64485  -0.62351  -0.57463  -0.56524  -0.53936
  Beta  occ. eigenvalues --   -0.51969  -0.48722  -0.47410  -0.45949  -0.42352
  Beta  occ. eigenvalues --   -0.41300  -0.39012  -0.38081  -0.37458  -0.36698
  Beta  occ. eigenvalues --   -0.36578  -0.36195  -0.34273  -0.33586  -0.33258
  Beta  occ. eigenvalues --   -0.33145  -0.32491  -0.31995  -0.30768  -0.29842
  Beta  occ. eigenvalues --   -0.29594  -0.29342  -0.29097  -0.28371  -0.27182
  Beta  occ. eigenvalues --   -0.25768  -0.25591  -0.24325  -0.19096  -0.18829
  Beta  occ. eigenvalues --   -0.18187  -0.18106  -0.17481  -0.16736  -0.16055
  Beta  occ. eigenvalues --   -0.14436  -0.13629  -0.12509  -0.09831
  Beta virt. eigenvalues --    0.00772   0.04569   0.04613   0.05992   0.06785
  Beta virt. eigenvalues --    0.07309   0.07746   0.08134   0.08731   0.09268
  Beta virt. eigenvalues --    0.10335   0.11291   0.11757   0.11780   0.12584
  Beta virt. eigenvalues --    0.13005   0.13604   0.13674   0.13749   0.15071
  Beta virt. eigenvalues --    0.15617   0.15760   0.16062   0.16584   0.17139
  Beta virt. eigenvalues --    0.17389   0.17593   0.18371   0.18590   0.18752
  Beta virt. eigenvalues --    0.18894   0.19189   0.19392   0.19846   0.20116
  Beta virt. eigenvalues --    0.20211   0.20321   0.20762   0.21028   0.21504
  Beta virt. eigenvalues --    0.21849   0.22055   0.22313   0.22994   0.23050
  Beta virt. eigenvalues --    0.23723   0.23782   0.24673   0.24877   0.25053
  Beta virt. eigenvalues --    0.25281   0.25646   0.25961   0.26224   0.26303
  Beta virt. eigenvalues --    0.26441   0.26684   0.26910   0.27333   0.27567
  Beta virt. eigenvalues --    0.27937   0.28069   0.28217   0.28998   0.29455
  Beta virt. eigenvalues --    0.30077   0.30307   0.30433   0.30618   0.31152
  Beta virt. eigenvalues --    0.31551   0.31767   0.32076   0.32494   0.32885
  Beta virt. eigenvalues --    0.33476   0.33582   0.34013   0.34722   0.34977
  Beta virt. eigenvalues --    0.35121   0.35709   0.36075   0.36453   0.36718
  Beta virt. eigenvalues --    0.37021   0.37287   0.37506   0.37874   0.38665
  Beta virt. eigenvalues --    0.38952   0.39423   0.39497   0.39665   0.40345
  Beta virt. eigenvalues --    0.40728   0.40981   0.41251   0.41580   0.41893
  Beta virt. eigenvalues --    0.41939   0.42812   0.43197   0.43352   0.44110
  Beta virt. eigenvalues --    0.44523   0.44614   0.45633   0.46137   0.46581
  Beta virt. eigenvalues --    0.46706   0.46961   0.47198   0.47574   0.48713
  Beta virt. eigenvalues --    0.49116   0.49809   0.50152   0.50688   0.51750
  Beta virt. eigenvalues --    0.52127   0.52753   0.53406   0.54326   0.54802
  Beta virt. eigenvalues --    0.55087   0.55880   0.56628   0.56907   0.57485
  Beta virt. eigenvalues --    0.58327   0.60004   0.60130   0.61384   0.62279
  Beta virt. eigenvalues --    0.62362   0.63003   0.63269   0.63823   0.64643
  Beta virt. eigenvalues --    0.64893   0.65462   0.65676   0.67103   0.67529
  Beta virt. eigenvalues --    0.68825   0.68970   0.70025   0.70540   0.71158
  Beta virt. eigenvalues --    0.71212   0.71680   0.72705   0.73072   0.73703
  Beta virt. eigenvalues --    0.74660   0.75130   0.76083   0.76800   0.77197
  Beta virt. eigenvalues --    0.77630   0.78152   0.78873   0.79107   0.79512
  Beta virt. eigenvalues --    0.80344   0.80759   0.81144   0.81291   0.83946
  Beta virt. eigenvalues --    0.84107   0.84469   0.84781   0.84934   0.85273
  Beta virt. eigenvalues --    0.86512   0.86712   0.88241   0.88422   0.89609
  Beta virt. eigenvalues --    0.90474   0.91104   0.92351   0.93205   0.94069
  Beta virt. eigenvalues --    0.95302   0.96277   0.97440   0.99054   0.99635
  Beta virt. eigenvalues --    1.01202   1.01588   1.01917   1.02268   1.02940
  Beta virt. eigenvalues --    1.03429   1.04351   1.05348   1.06166   1.07102
  Beta virt. eigenvalues --    1.07817   1.09173   1.09480   1.09785   1.11007
  Beta virt. eigenvalues --    1.11608   1.12643   1.13629   1.13987   1.14887
  Beta virt. eigenvalues --    1.15478   1.16786   1.17286   1.18627   1.18943
  Beta virt. eigenvalues --    1.20755   1.21739   1.23132   1.23595   1.24268
  Beta virt. eigenvalues --    1.25607   1.26427   1.27979   1.29676   1.30792
  Beta virt. eigenvalues --    1.31547   1.32594   1.33543   1.33837   1.34443
  Beta virt. eigenvalues --    1.35045   1.35892   1.36399   1.36529   1.37419
  Beta virt. eigenvalues --    1.39418   1.39925   1.40749   1.41416   1.44164
  Beta virt. eigenvalues --    1.44840   1.47000   1.48560   1.49890   1.50673
  Beta virt. eigenvalues --    1.51007   1.53334   1.55752   1.56288   1.57262
  Beta virt. eigenvalues --    1.57432   1.60098   1.60856   1.61779   1.62001
  Beta virt. eigenvalues --    1.64038   1.64258   1.64808   1.65510   1.66941
  Beta virt. eigenvalues --    1.67238   1.69317   1.70209   1.70503   1.71369
  Beta virt. eigenvalues --    1.71722   1.73902   1.74161   1.74606   1.74898
  Beta virt. eigenvalues --    1.75979   1.76594   1.77553   1.79843   1.80145
  Beta virt. eigenvalues --    1.80555   1.80918   1.81698   1.83026   1.83276
  Beta virt. eigenvalues --    1.86262   1.86835   1.87306   1.88290   1.89533
  Beta virt. eigenvalues --    1.91404   1.92241   1.94555   1.95501   1.96641
  Beta virt. eigenvalues --    1.97140   1.98231   1.99198   1.99623   2.01494
  Beta virt. eigenvalues --    2.02027   2.02915   2.04089   2.04560   2.05286
  Beta virt. eigenvalues --    2.05625   2.05982   2.06682   2.08419   2.09154
  Beta virt. eigenvalues --    2.10548   2.13028   2.13409   2.15241   2.15923
  Beta virt. eigenvalues --    2.16810   2.17574   2.18357   2.20089   2.21854
  Beta virt. eigenvalues --    2.22571   2.24089   2.27023   2.28893   2.29039
  Beta virt. eigenvalues --    2.31015   2.33433   2.33888   2.36499   2.38073
  Beta virt. eigenvalues --    2.40160   2.41234   2.46499   2.47057   2.48282
  Beta virt. eigenvalues --    2.50120   2.52183   2.53491   2.54673   2.56115
  Beta virt. eigenvalues --    2.57301   2.58722   2.61221   2.61715   2.62024
  Beta virt. eigenvalues --    2.64178   2.68175   2.68902   2.70466   2.70917
  Beta virt. eigenvalues --    2.73791   2.75384   2.76615   2.77696   2.78836
  Beta virt. eigenvalues --    2.79049   2.79909   2.80895   2.82018   2.82826
  Beta virt. eigenvalues --    2.83178   2.83783   2.84977   2.85938   2.86185
  Beta virt. eigenvalues --    2.88791   2.89021   2.90404   2.90911   2.91416
  Beta virt. eigenvalues --    2.93300   2.93871   2.94275   2.95780   2.96524
  Beta virt. eigenvalues --    2.97567   2.99431   3.00037   3.00919   3.01119
  Beta virt. eigenvalues --    3.01878   3.02444   3.03620   3.04780   3.05784
  Beta virt. eigenvalues --    3.06492   3.06695   3.08854   3.10279   3.10774
  Beta virt. eigenvalues --    3.11336   3.16052   3.16863   3.19007   3.19784
  Beta virt. eigenvalues --    3.21599   3.22354   3.24171   3.28533   3.30419
  Beta virt. eigenvalues --    3.31843   3.32947   3.34424   3.34879   3.38158
  Beta virt. eigenvalues --    3.39750   3.43446   3.44956   3.45690   3.49113
  Beta virt. eigenvalues --    3.50678   3.56106   3.58915   3.61709   3.62715
  Beta virt. eigenvalues --    3.63496   3.66176   3.67428   3.69832   3.73124
  Beta virt. eigenvalues --    3.78016   3.79511   3.82770   3.85097   3.88551
  Beta virt. eigenvalues --    3.91006   3.92085   3.92606   3.94643   3.99645
  Beta virt. eigenvalues --    4.10676   4.14489   4.18532   4.25742   4.29982
  Beta virt. eigenvalues --    4.32509   4.34167   4.36216   4.56074   4.78739
  Beta virt. eigenvalues --    4.91517   4.96128   5.16826   5.20676   5.21215
  Beta virt. eigenvalues --    5.23769   5.25451   5.25573   5.27849   5.28754
  Beta virt. eigenvalues --    5.37063   5.48946   5.49847   5.88765   8.40274
  Beta virt. eigenvalues --   17.57203  17.61383  17.68537  23.61884  23.73599
  Beta virt. eigenvalues --   23.92570  24.00372  24.01134  24.02692  24.02917
  Beta virt. eigenvalues --   24.04350  24.06555  24.11572  24.12756  24.14382
  Beta virt. eigenvalues --   24.17727  24.18581  24.25079  24.27234  50.06469
  Beta virt. eigenvalues --   50.06566  50.13157  50.16479 189.49823
          Condensed to atoms (all electrons):
               1          2          3          4          5          6
     1  C   19.942792  -5.786338   0.224869  -8.489978  -5.524213   5.200953
     2  C   -5.786338  11.517957  -1.143187   2.077183   2.162657  -2.018338
     3  C    0.224869  -1.143187   9.684017   0.747001  -1.722325   0.485105
     4  C   -8.489978   2.077183   0.747001  21.477414   3.556505  -3.265133
     5  C   -5.524213   2.162657  -1.722325   3.556505  14.803427  -3.560121
     6  C    5.200953  -2.018338   0.485105  -3.265133  -3.560121  11.289799
     7  C    1.612245  -1.974912   0.607735  -6.638656   0.689748   0.283902
     8  C    1.071154   0.041617  -0.451711  -7.244144  -0.113498   0.006614
     9  C    0.629673  -0.621189  -0.540002  -3.308737  -2.602848   0.455340
    10  C   -0.511872   0.220420  -0.787448  -0.550371   1.320347  -0.574181
    11  C   -1.354071   1.142896  -0.756527   4.612782  -1.287925  -0.838945
    12  C   -0.749416   0.405060  -0.139398   3.568529  -1.081376  -0.476964
    13  C   -0.628725   0.015352   0.007286  -0.069437   0.126253  -0.514225
    14  C   -0.190103  -0.114320  -0.164680  -0.101944  -0.836274  -0.616779
    15  O    0.122952   0.147880  -0.025229  -0.294833  -0.028126  -0.011502
    16  S   -0.002702   0.002006  -0.004319   0.082925  -0.078479  -0.013627
    17  O   -0.000324   0.000051  -0.000001  -0.000835   0.000745  -0.000101
    18  O   -0.001447  -0.000034  -0.000039   0.002151  -0.002363  -0.000074
    19  O    0.000521   0.000028  -0.000016  -0.000882  -0.003433  -0.000289
    20  C   -0.156354  -0.003983   0.162491  -0.091503   0.363998  -0.060452
    21  C    0.143781  -0.045444   0.055256  -0.342689  -0.555075   0.098599
    22  H    0.708339  -0.288755   0.006745  -0.320645  -0.029006   0.085021
    23  H   -0.253132   0.611141  -0.119014   0.014083   0.059534  -0.003211
    24  H   -0.041002  -0.075937   0.489870   0.051301   0.033900  -0.119879
    25  H    0.229713  -0.020037  -0.216684  -0.119346  -0.325473   0.626092
    26  H   -0.018525   0.018840   0.000839  -0.073806  -0.010895  -0.020459
[...]
 01973,0.00002686,0.00001887,-0.00000062,0.00006404,0.00005480,0.000040
 64,0.00001730,0.00003981,0.00000627,-0.07489304,-0.28716308,0.00687496
 ,-0.00096824,0.00080185,-0.00140842,-0.00002412,0.00000977,0.00000397,
 0.00000277,0.00001698,0.00000165,-0.00001375,-0.00000674,0.00000454,0.
 00003402,0.00004787,-0.00008134,0.00000385,-0.00000144,-0.00001350,-0.
 00000608,-0.00001739,-0.00000751,-0.00017480,0.00011950,-0.00003803,0.
 08277018,0.31010316,-0.00012879,0.00006466,-0.00000136,0.00005794,0.00
 000869,-0.00013279,0.00004568,-0.00030676,0.00010393,0.00006121,0.0000
 4176,0.00000838,0.00098282,-0.00069927,0.00056290,-0.00002510,0.000421
 52,-0.00025752,-0.00030496,0.00018524,0.00007320,0.00011427,0.00020568
 ,-0.00015347,-0.00031255,-0.00093895,0.00156126,-0.00696674,-0.0227398
 6,-0.00087191,-0.00007917,0.00003231,-0.00001127,0.00004444,-0.0000441
 5,0.00002449,0.00006450,0.00002197,-0.00006312,0.00028752,0.00000105,0
 .00005516,0.00010423,-0.00008379,-0.00000804,0.00007247,-0.00002092,-0
 .00022066,0.00001036,-0.00002302,0.00007853,-0.00005943,-0.00001255,0.
 00007256,-0.00004125,0.00006604,0.00006570,0.00341032,0.00847532,-0.04
 676337,-0.00340733,-0.00028218,-0.00390421,-0.00002135,-0.00000082,0.0
 0001144,0.00002369,0.00000634,0.00001136,-0.00000315,0.00001765,-0.000
 00491,-0.00002367,0.00004366,0.00013988,-0.00001069,-0.00000590,-0.000
 01163,-0.00000488,-0.00000566,-0.00001310,-0.00011999,0.00002254,-0.00
 000803,0.00045332,-0.00728107,0.04987862,-0.00025540,0.00051261,0.0001
 7110,-0.00009519,0.00031015,-0.00040272,0.00035596,-0.00033840,-0.0000
 2402,-0.00041468,-0.00017060,0.00018668,-0.00154895,-0.00111189,-0.003
 81628,-0.00041103,0.00031867,-0.00020141,-0.00080750,0.00002177,0.0007
 4299,0.00039646,0.00016610,-0.00036469,-0.00020422,-0.00040046,0.00138
 561,-0.01693892,0.01197826,0.00164492,-0.00025494,0.00000784,0.0003619
 7,0.00017279,-0.00037886,0.00018852,0.00046751,-0.00001464,-0.00017147
 ,-0.00010436,0.00077706,0.00092956,0.00024419,0.00001301,-0.00033612,0
 .00005337,0.00000674,-0.00011382,0.00002139,-0.00003659,0.00005674,-0.
 00004294,-0.00002274,0.00001735,0.00000040,-0.00001312,0.00001791,-0.2
 1516567,0.12466977,0.02018468,0.00058925,0.00108072,0.00095940,-0.0000
 5916,0.00009547,0.00006479,-0.00002209,0.00001857,-0.00000818,-0.00005
 289,-0.00000181,0.00003773,0.00021438,0.00010939,0.00003605,-0.0000302
 9,0.00000248,-0.00000653,0.00003356,0.00004492,-0.00000751,0.00054441,
 -0.00050009,0.00062935,0.00897145,-0.00596574,-0.00107125,0.23441029,-
 0.00001863,0.00007493,-0.00002956,-0.00001074,0.00002505,-0.00003294,-
 0.00000107,-0.00007989,-0.00002245,-0.00019956,0.00038993,0.00007471,-
 0.00048494,0.00061642,-0.00074661,-0.00022296,0.00016887,0.00028877,0.
 00029514,-0.00014487,-0.00029330,-0.00013228,0.00013983,0.00023819,0.0
 0076057,-0.00025948,-0.00017007,-0.00522501,0.00215371,0.00085903,0.00
 007246,0.00000586,-0.00013312,-0.00005409,0.00019270,0.00001846,-0.000
 23381,-0.00018601,0.00013529,-0.00036436,-0.00025591,-0.00087147,-0.00
 013208,0.00004822,0.00008940,0.00007201,0.00003771,0.00007675,-0.00003
 401,0.00000864,-0.00004089,-0.00003823,-0.00001770,-0.00004084,-0.0000
 2364,-0.00000643,-0.00001949,0.12490580,-0.13952557,-0.01430385,-0.000
 49954,0.00076615,0.00030118,0.00000469,0.00001010,-0.00000010,0.000010
 70,0.00000456,0.00000258,0.00000029,-0.00002196,-0.00001465,0.00007281
 ,0.00002831,-0.00004230,-0.00000652,-0.00001948,-0.00000141,-0.0000191
 0,-0.00000500,0.00000717,0.00013343,0.00040204,-0.00094580,0.02509775,
 -0.01709624,-0.00348288,-0.13756177,0.14860145,0.00025623,0.00031326,0
 .00002389,-0.00020187,0.00002594,0.00001633,0.00013749,0.00024506,0.00
 024590,-0.00057997,0.00053980,0.00007130,-0.00165646,-0.00162073,-0.00
 398708,0.00023217,0.00032118,0.00009137,-0.00079121,0.00002157,0.00064
 621,0.00037822,0.00001505,-0.00018917,-0.00059789,0.00059531,0.0012932
 0,-0.02033444,0.01380026,0.00025031,-0.00025429,-0.00007578,0.00027580
 ,0.00017070,-0.00025725,0.00020510,0.00038452,-0.00006153,-0.00024292,
 -0.00035615,0.00043071,-0.00115621,0.00021983,-0.00001398,-0.00024683,
 0.00020206,0.00003111,-0.00032701,0.00001007,-0.00006359,0.00015304,-0
 .00010956,-0.00005298,0.00005795,-0.00005998,0.00005550,0.00011494,0.0
 2266532,-0.01578837,-0.04795302,0.00087223,0.00103695,0.00107110,-0.00
 007856,0.00006207,0.00002536,-0.00003378,-0.00006167,-0.00000811,-0.00
 002743,0.00001687,0.00001925,-0.00028367,-0.00047105,0.00018355,-0.000
 02084,0.00001031,0.00000202,-0.00000704,-0.00000840,-0.00004220,0.0003
 0120,-0.00106605,-0.00146230,-0.00099644,0.00108280,-0.00076530,-0.021
 91602,0.01912300,0.05368682,0.00011936,-0.00015134,-0.00010321,0.00009
 086,-0.00010189,0.00018871,-0.00021677,0.00008477,0.00010432,0.0000021
 0,0.00018294,0.00009749,0.00106018,0.00009269,0.00000614,-0.00125254,0
 .00025472,-0.00076342,0.00031160,-0.00030564,-0.00020848,0.00034158,0.
 00016058,-0.00051044,-0.00295271,-0.00025243,-0.00205323,0.00730328,0.
 00324971,-0.01919645,0.00012169,0.00024938,0.00004346,-0.00000660,-0.0
 0012500,-0.00006613,0.00031165,0.00021832,-0.00005620,0.00025522,0.000
 30517,0.00029658,-0.00011804,0.00008898,0.00001501,-0.00003751,-0.0000
 4601,-0.00002391,0.00000652,0.00000483,0.00001954,0.00001532,0.0000138
 5,0.00001759,0.00001803,-0.00000587,0.00000838,-0.09488486,-0.02087908
 ,0.10069042,0.00117130,0.00083903,0.00038941,0.00001037,-0.00001674,-0
 .00001612,0.00001612,-0.00001870,0.00002374,-0.00001397,-0.00001560,-0
 .00003202,-0.00196756,0.00011956,-0.00018149,0.00004932,0.00001981,-0.
 00004810,0.00001650,-0.00000184,-0.00002023,-0.00001703,-0.00054805,-0
 .00003985,-0.00472772,-0.00053838,0.00765808,-0.01055110,-0.00616151,0
 .02212737,0.10554144,-0.00008704,0.00008315,0.00002335,0.00006137,0.00
 004400,-0.00008720,0.00009652,-0.00022313,-0.00007704,0.00018507,-0.00
 001995,-0.00003310,-0.00038938,-0.00004685,0.00074731,-0.00002370,-0.0
 0014070,-0.00011308,-0.00024488,0.00008260,0.00014782,0.00021111,-0.00
 002116,-0.00024394,-0.00042653,0.00077066,-0.00081263,0.00294634,-0.00
 047196,-0.00460826,0.00004884,0.00006533,-0.00016700,-0.00009641,0.000
 14930,-0.00009530,-0.00021316,-0.00018302,0.00015853,0.00029719,-0.000
 04759,-0.00042266,0.00007341,-0.00003227,-0.00006753,-0.00003502,0.000
 01967,-0.00001119,0.00001732,-0.00001081,0.00000589,0.00001786,0.00000
 931,0.00002277,-0.00000500,0.00000560,0.00001061,-0.02051464,-0.056417
 38,0.04152102,0.00059165,0.00039903,-0.00058748,-0.00001309,-0.0000127
 2,-0.00000015,0.00000425,0.00002253,-0.00000185,0.00001053,0.00001090,
 0.00000636,0.00007632,0.00055337,-0.00000440,0.00002760,0.00001976,0.0
 0000861,-0.00001411,-0.00002040,-0.00000031,-0.00001380,0.00029473,0.0
 0008778,-0.01316111,-0.00413209,0.02768414,0.00739736,0.00375408,-0.01
 769630,0.02335802,0.05548451,0.00045879,-0.00028812,-0.00015498,-0.000
 05479,-0.00037235,0.00040653,-0.00038556,0.00037389,0.00055102,-0.0004
 2701,0.00052749,0.00008906,0.00160344,-0.00100033,0.00016912,0.0011231
 7,0.00057351,-0.00027638,0.00118134,-0.00081378,-0.00055931,-0.0000883
 2,-0.00054127,-0.00009738,-0.00427507,-0.00072191,-0.00258377,0.009969
 32,0.00464252,-0.02121495,0.00069811,0.00025926,-0.00060549,-0.0004824
 4,0.00046358,-0.00032243,-0.00005908,-0.00007518,0.00038869,-0.0002004
 8,0.00032822,-0.00038149,-0.00051027,0.00039174,0.00006006,-0.00041988
 ,-0.00004483,0.00066782,0.00000795,0.00009696,-0.00026835,0.00027340,0
 .00011269,-0.00014181,0.00015881,-0.00017315,-0.00021589,0.09841279,0.
 04183548,-0.24749620,0.00130053,0.00098948,0.00071475,0.00002160,-0.00
 000713,-0.00004929,-0.00001308,-0.00007901,0.00003940,-0.00000062,0.00
 005912,0.00000764,-0.00012176,-0.00068448,0.00085055,0.00013484,0.0000
 4752,-0.00002513,0.00002834,-0.00001267,-0.00002769,0.00006441,-0.0000
 1197,0.00013112,-0.00006623,0.00027102,0.00005516,0.00115814,0.0000216
 4,-0.00212863,-0.10866844,-0.04542651,0.27156584,-0.00006039,0.0001156
 6,0.00016998,0.00002801,0.00000732,-0.00015164,0.00020951,0.00002306,0
 .00000851,0.00063086,-0.00026142,0.00020877,-0.00041237,-0.00136102,0.
 00050048,0.00030626,0.00026106,-0.00006851,-0.00020263,-0.00000037,0.0
 0008158,0.00017654,0.00008248,-0.00011585,0.00008604,0.00034374,0.0003
 0417,0.00681939,-0.00710417,-0.00177926,-0.00007338,-0.00003846,0.0000
 3728,0.00013619,0.00000660,0.00003107,-0.00006574,-0.00009013,-0.00019
 683,-0.00084628,-0.00129053,0.00059954,0.00007632,-0.00002872,-0.00005
 711,-0.00005620,0.00007959,0.00014020,0.00000687,-0.00001142,-0.000035
 44,0.00004385,-0.00000083,-0.00003397,0.00002661,-0.00007755,-0.000046
 01,0.00090447,0.00011784,0.00009868,-0.20966980,0.12781819,0.02144590,
 0.00000726,-0.00001824,0.00000210,-0.00002611,0.00000082,-0.00002100,-
 0.00001577,-0.00000556,0.00000559,-0.00012544,-0.00008641,-0.00025488,
 -0.00000519,-0.00000166,-0.00000899,-0.00001545,-0.00002593,-0.0000188
 5,-0.00091052,-0.00098706,0.00107273,0.00015162,0.00006291,0.00013133,
 0.00016611,-0.00005582,0.00005583,-0.00006319,0.00006077,-0.00009873,0
 .22914401,0.00056800,0.00002428,0.00023210,0.00012118,-0.00035516,0.00
 025378,-0.00015068,0.00037901,0.00003459,0.00044527,-0.00042439,-0.000
 34864,-0.00349920,-0.00491880,0.00109796,0.00035220,-0.00023640,0.0002
 4383,0.00090942,-0.00030578,-0.00116922,-0.00029293,0.00017396,0.00060
 828,0.00118546,0.00072859,-0.00141894,0.02326551,-0.02026925,-0.003035
 98,0.00031612,-0.00000912,-0.00048460,-0.00031877,0.00036209,-0.000326
 17,-0.00036717,0.00035316,0.00047122,0.00084945,-0.00026074,0.00034759
 ,-0.00032264,0.00001281,0.00043036,-0.00019998,-0.00006407,0.00025348,
 -0.00001106,0.00007956,-0.00014740,0.00008204,0.00004821,-0.00003943,0
 .00004251,-0.00002946,-0.00008591,0.00151818,0.00157952,0.00051467,0.1
 2548500,-0.14295480,-0.01698852,0.00015506,-0.00003992,-0.00002113,-0.
 00001136,-0.00003715,-0.00002580,0.00004825,-0.00002228,-0.00005049,-0
 .00008580,0.00008850,-0.00020824,0.00001512,-0.00003420,-0.00001003,0.
 00000496,0.00000259,0.00005228,-0.00125671,0.00032992,-0.00009186,-0.0
 0017981,0.00033846,0.00026726,-0.00084253,0.00011927,-0.00043516,-0.00
 016232,-0.00006245,-0.00007741,-0.13689698,0.15752110,0.00022113,-0.00
 021069,-0.00011861,-0.00001952,-0.00009369,0.00027842,-0.00042213,-0.0
 0001092,-0.00006957,-0.00011769,0.00008842,-0.00016167,0.00071159,-0.0
 0002353,0.00041305,0.00022397,-0.00038244,-0.00020981,-0.00025544,0.00
 009137,0.00020720,0.00020006,-0.00005219,-0.00001769,-0.00092314,0.000
 47857,0.00005637,-0.00068071,0.00150669,-0.00100797,-0.00000520,0.0000
 2313,0.00011932,0.00006332,-0.00007752,0.00002566,0.00006883,-0.000013
 91,-0.00020561,0.00029739,0.00036479,-0.00046181,0.00008494,-0.0000528
 8,-0.00004223,0.00011455,0.00008992,-0.00015444,-0.00000194,-0.0000406
 1,0.00007446,-0.00007719,-0.00005070,0.00001994,-0.00003999,-0.0000176
 8,0.00006498,0.00047350,-0.00045944,-0.00006315,0.02235983,-0.01833804
 ,-0.05005966,0.00001396,0.00002682,0.00001001,0.00003629,0.00001256,0.
 00003663,-0.00001743,-0.00000737,-0.00001837,0.00012326,0.00017351,0.0
 0045426,-0.00001341,-0.00000848,-0.00001097,0.00002836,0.00002046,0.00
 000421,0.00081432,0.00051981,0.00005541,-0.00004951,0.00019756,-0.0000
 5221,-0.00027466,-0.00021720,0.00019162,0.00011059,-0.00009719,-0.0000
 3621,-0.02614232,0.01885549,0.04998245,0.00005030,-0.00010867,0.000001
 74,-0.00000380,-0.00005832,0.00011103,-0.00023443,0.00005676,-0.000155
 52,0.00012199,-0.00010607,0.00001565,0.00015361,0.00074658,0.00072515,
 0.00032521,-0.00016813,0.00007044,0.00030093,-0.00010832,-0.00022925,-
 0.00007526,-0.00008037,0.00039601,0.00057197,0.00026135,-0.00078407,-0
 .00673384,-0.00136196,-0.00581363,0.00008485,-0.00007312,-0.00002611,-
 0.00011689,0.00004996,0.00001924,0.00003370,-0.00010881,0.00020235,-0.
 00040314,0.00059991,0.00004760,-0.00008312,0.00001305,0.00009608,-0.00
 007833,-0.00009905,0.00001469,0.00001809,0.00002885,-0.00000468,0.0000
 6067,0.00004569,0.00001090,0.00003804,0.00004136,-0.00000021,0.0000062
 9,-0.00240414,0.00066776,-0.15760005,-0.02950379,-0.12614899,0.0000249
 7,-0.00001419,-0.00001582,0.00001175,0.00001612,0.00000941,0.00001154,
 -0.00000284,-0.00000184,0.00009052,0.00003560,-0.00000047,-0.00000243,
 -0.00001084,0.00000325,-0.00001671,-0.00001093,-0.00001212,0.00013960,
 -0.00023374,-0.00003750,-0.00009147,-0.00026304,-0.00071868,0.00042254
 ,0.00011888,0.00022044,0.00001642,0.00009536,-0.00016311,-0.01573683,-
 0.00496049,-0.01892247,0.16823649,0.00005736,-0.00012221,0.00000758,-0
 .00004222,-0.00000141,0.00003826,-0.00001472,-0.00000384,-0.00010142,0
 .00021099,-0.00002187,0.00015219,-0.00138399,0.00145595,-0.00056653,0.
 00033041,0.00010784,0.00002092,-0.00006558,-0.00009178,0.00016882,0.00
 009772,0.00000950,0.00022642,0.00062099,0.00115509,-0.00147061,-0.0194
 0628,-0.00681216,-0.02220702,-0.00003426,-0.00008916,0.00008161,0.0000
 6202,-0.00006938,-0.00001817,-0.00013007,0.00006580,-0.00021568,0.0001
 0699,-0.00000449,0.00038899,0.00001645,0.00002660,-0.00005733,-0.00008
 780,0.00001595,0.00014558,0.00001230,0.00000661,-0.00004709,0.00006916
 ,0.00002946,-0.00002722,0.00003303,-0.00004623,-0.00005027,-0.00147784
 ,-0.00651430,0.00099212,-0.02851671,-0.05354797,-0.03292941,-0.0000033
 4,-0.00001458,-0.00001105,0.00000015,0.00000995,0.00001209,-0.00000027
 ,-0.00001754,0.00000183,-0.00004432,-0.00001264,0.00004913,-0.00002427
 ,-0.00001090,0.00000430,-0.00000366,-0.00000883,0.00001562,0.00000698,
 0.00005884,0.00002018,-0.00148826,-0.00024755,-0.00155688,-0.00010533,
 0.00010904,0.00014958,0.00026673,0.00004501,0.00006358,0.01203574,0.00
 372962,0.01552097,0.03415487,0.06046088,-0.00004985,-0.00002280,0.0000
 5628,0.00007159,-0.00000458,-0.00007192,0.00014026,-0.00012939,0.00014
 416,0.00028266,-0.00020739,0.00009419,-0.00025896,0.00017924,0.0004463
 8,0.00023558,0.00028563,-0.00055789,-0.00028227,0.00015671,0.00010817,
 -0.00002445,-0.00003906,0.00011462,0.00082242,0.00012405,0.00067111,0.
 00195138,0.00032301,0.00057826,-0.00005582,-0.00005723,0.00006537,0.00
 006870,-0.00005995,0.00006066,-0.00003777,-0.00003359,-0.00016958,-0.0
 0013051,0.00004225,0.00021937,0.00011809,-0.00009185,0.00000926,0.0000
 7412,0.00001344,-0.00012510,0.00000400,-0.00001958,0.00005822,-0.00003
 952,-0.00001846,0.00002975,-0.00002615,0.00003292,0.00003887,0.0002877
 1,-0.00011914,0.00064706,-0.12690450,-0.03434733,-0.19229886,-0.000003
 29,-0.00001021,0.00000580,0.00000641,-0.00001689,0.00000610,-0.0000131
 4,-0.00001104,-0.00002067,-0.00014594,-0.00008687,0.00016589,-0.000015
 34,0.00000479,0.00001070,-0.00000215,0.00000085,0.00000124,0.00003587,
 0.00003017,0.00006120,-0.00017260,0.00001680,0.00033593,0.00001000,0.0
 0010487,-0.00009400,0.00009159,0.00020277,0.00039538,0.00337990,0.0014
 2848,0.00312939,0.13903076,0.03694062,0.20552283,-0.00007788,0.0000869
 4,0.00005999,-0.00005442,0.00004152,-0.00012317,0.00009221,0.00007164,
 -0.00014625,0.00016913,-0.00007171,0.00009101,-0.00015980,0.00056571,-
 0.00070323,-0.00022473,0.00077376,0.00053421,-0.00034470,0.00018710,0.
 00005968,-0.00031235,-0.00002088,-0.00015881,0.00013095,-0.00198187,0.
 00021808,-0.00496924,-0.00092406,0.00798911,-0.00026035,0.00000753,0.0
 0051398,0.00033918,-0.00036093,0.00022734,0.00005219,-0.00005653,-0.00
 052149,-0.00031220,-0.00032162,0.00042112,0.00015403,-0.00015049,0.000
 02476,0.00026143,0.00002342,-0.00029927,-0.00002916,-0.00004849,0.0001
 4366,-0.00013595,-0.00005308,0.00004935,-0.00007756,0.00008376,0.00010
 835,0.00006423,0.00041932,0.00084710,-0.09812003,-0.02270388,0.1000168
 8,-0.00001541,-0.00001408,0.00000569,-0.00000454,0.00000041,-0.0000200
 9,0.00004050,0.00001939,0.00002001,0.00008171,0.00078381,0.00005172,0.
 00000480,0.00006404,0.00004698,-0.00002363,-0.00000654,-0.00001156,0.0
 0039755,0.00008412,0.00017367,0.00015412,0.00018946,-0.00022319,-0.000
 10469,-0.00006487,0.00007193,0.00003075,-0.00033904,-0.00056012,-0.010
 63464,-0.00580530,0.02201686,0.01045682,0.00474702,-0.01844881,0.10343
 170,-0.00045395,0.00020719,0.00012209,-0.00005540,0.00028462,-0.000417
 87,0.00059408,-0.00009389,-0.00027967,0.00052246,-0.00015935,0.0000607
 1,-0.00098599,0.00149455,0.00057119,0.00015034,-0.00075168,0.00065416,
 -0.00116694,0.00050053,0.00036341,-0.00046017,-0.00009092,0.00024913,-
 0.00049520,-0.00578613,-0.00093278,-0.01361739,-0.00762577,0.02638771,
 -0.00005518,0.00021036,0.00067986,0.00018065,-0.00032003,0.00014752,0.
 00011448,0.00026845,0.00008063,0.00035432,0.00004439,0.00028793,0.0004
 0704,-0.00030529,-0.00004973,0.00019983,-0.00004110,-0.00043235,-0.000
 00046,-0.00004313,0.00015220,-0.00018091,-0.00006224,0.00009852,-0.000
 08494,0.00012979,0.00012477,0.00081860,0.00174510,0.00112363,-0.021403
 94,-0.05526634,0.04256141,-0.00004172,-0.00000698,0.00002717,-0.000031
 19,0.00003162,-0.00006226,0.00001120,-0.00002395,0.00002043,0.00045287
 ,-0.00104577,-0.00127802,-0.00003503,0.00006068,0.00011185,-0.00003404
 ,0.00000218,0.00002829,-0.00035016,0.00007853,-0.00028654,0.00037831,0
 .00009555,-0.00008119,-0.00006632,-0.00003831,-0.00020346,-0.00017868,
 0.00002894,-0.00072762,0.00732650,0.00415329,-0.01781557,0.00341251,0.
 00035071,-0.00461123,0.02477442,0.06197439,0.00024626,-0.00019023,-0.0
 0008374,0.00001960,-0.00004355,0.00031473,-0.00049166,-0.00003111,0.00
 010382,-0.00033799,0.00029752,0.00005266,0.00091254,-0.00036452,-0.000
 18199,0.00005025,-0.00123136,-0.00067392,0.00072189,-0.00040006,-0.000
 32856,0.00002847,0.00005585,0.00063054,0.00036360,0.00073371,0.0008910
 5,-0.00061044,-0.00010571,-0.00171433,0.00026892,-0.00009244,-0.000351
 95,-0.00025688,0.00023008,-0.00012009,-0.00007351,-0.00005599,0.000164
 54,-0.00013233,0.00043449,0.00010123,-0.00030853,0.00020675,0.00006460
 ,-0.00026193,-0.00005599,0.00040134,0.00001237,0.00007147,-0.00017177,
 0.00017784,0.00008297,-0.00008288,0.00009995,-0.00007853,-0.00013929,-
 0.00031191,-0.00025054,0.00047401,0.09964010,0.04446437,-0.24540243,0.
 00000727,0.00000068,-0.00002934,0.00002893,0.00000513,0.00004940,-0.00
 003849,-0.00000909,-0.00001210,0.00060812,-0.00109143,0.00044833,0.000
 00613,-0.00003694,-0.00002291,0.00000743,-0.00000688,-0.00001439,-0.00
 008142,-0.00006987,-0.00005646,0.00000272,0.00007960,0.00020443,-0.000
 06881,0.00006791,-0.00002228,0.00009931,-0.00007382,0.00049325,0.00075
 575,-0.00012645,-0.00243340,0.01139193,0.00425828,-0.01963821,-0.11247
 549,-0.04667431,0.26708611\\0.00000679,-0.00000489,0.00000173,-0.00000
 114,-0.00000838,0.00001331,-0.00001103,0.00001215,-0.00000303,0.000000
 61,0.00000482,0.00000449,-0.00000025,-0.00000482,0.00000152,0.00000650
 ,0.00000125,-0.00000825,-0.00000268,-0.00000153,-0.00001933,-0.0000128
 4,0.00001180,-0.00000871,0.00000784,-0.00000495,0.00001180,0.00000061,
 0.00000555,-0.00000175,0.00000157,-0.00000174,0.00000130,-0.00000285,-
 0.00001289,0.00002491,0.00000573,0.00000859,-0.00002435,-0.00001424,0.
 00000252,0.00000669,0.00000776,-0.00000750,0.00001027,0.00000966,-0.00
 000765,0.00000354,-0.00001433,0.00001091,-0.00001380,0.00000346,0.0000
 0064,-0.00000112,0.00000109,-0.00000086,0.00000095,-0.00000056,-0.0000
 0188,0.00000078,0.00000107,-0.00000297,-0.00000023,-0.00000170,0.00000
 418,-0.00000500,0.00000032,0.00000080,0.00000014,0.00000087,-0.0000013
 1,0.00000134,0.00000092,-0.00000389,0.00000590,-0.00000565,0.00000644,
 -0.00000282,0.00000326,-0.00000295,0.00000348,0.00000397,-0.00000440,0
 .00000186,0.00000019,0.00000238,-0.00000132,0.00000131,-0.00000106,0.0
 0000020,-0.00000054,-0.00000062,-0.00000145,0.00000384,-0.00000047,-0.
 00000123,-0.00000089,0.00000083,-0.00000179,0.00000135,0.00000190,0.00
 000001\\\@


 It is also a good rule not to put too much confidence in
 experimental results until they have been confirmed by
 Theory.
                             -- Sir Arthur Eddington
 Job cpu time:       1 days  0 hours  9 minutes 30.5 seconds.
 Elapsed time:       0 days  3 hours  6 minutes 34.5 seconds.
 File lengths (MBytes):  RWF=   2026 Int=      0 D2E=      0 Chk=     36 Scr=      1
 Normal termination of Gaussian 16 at Sat Jan  6 07:04:07 2024.
