 Entering Gaussian System, Link 0=g16
 Input=070-rad-PCM.com
 Output=070-rad-PCM.log
 Initial command:
 /sysapps/ubuntu-applications/gaussian/Gaussian/AVX2/g16/l1.exe "/scratch/selhajj1/4332871/Gau-2593083.inp" -scrdir="/scratch/selhajj1/4332871/"
 Entering Link 1 = /sysapps/ubuntu-applications/gaussian/Gaussian/AVX2/g16/l1.exe PID=   2593087.
  
 Copyright (c) 1988,1990,1992,1993,1995,1998,2003,2009,2016,
            Gaussian, Inc.  All Rights Reserved.
  
 This is part of the Gaussian(R) 16 program.  It is based on
 the Gaussian(R) 09 system (copyright 2009, Gaussian, Inc.),
 the Gaussian(R) 03 system (copyright 2003, Gaussian, Inc.),
 the Gaussian(R) 98 system (copyright 1998, Gaussian, Inc.),
 the Gaussian(R) 94 system (copyright 1995, Gaussian, Inc.),
 the Gaussian 92(TM) system (copyright 1992, Gaussian, Inc.),
 the Gaussian 90(TM) system (copyright 1990, Gaussian, Inc.),
 the Gaussian 88(TM) system (copyright 1988, Gaussian, Inc.),
 the Gaussian 86(TM) system (copyright 1986, Carnegie Mellon
 University), and the Gaussian 82(TM) system (copyright 1983,
 Carnegie Mellon University). Gaussian is a federally registered
 trademark of Gaussian, Inc.
  
 This software contains proprietary and confidential information,
 including trade secrets, belonging to Gaussian, Inc.
  
 This software is provided under written license and may be
 used, copied, transmitted, or stored only in accord with that
 written license.
  
 The following legend is applicable only to US Government
 contracts under FAR:
  
                    RESTRICTED RIGHTS LEGEND
  
 Use, reproduction and disclosure by the US Government is
 subject to restrictions as set forth in subparagraphs (a)
 and (c) of the Commercial Computer Software - Restricted
 Rights clause in FAR 52.227-19.
  
 Gaussian, Inc.
 340 Quinnipiac St., Bldg. 40, Wallingford CT 06492
  
  
 ---------------------------------------------------------------
 Warning -- This program may not be used in any manner that
 competes with the business of Gaussian, Inc. or will provide
 assistance to any competitor of Gaussian, Inc.  The licensee
 of this program is prohibited from giving any competitor of
 Gaussian, Inc. access to this program.  By using this program,
 the user acknowledges that Gaussian, Inc. is engaged in the
 business of creating and licensing software in the field of
 computational chemistry and represents and warrants to the
 licensee that it is not a competitor of Gaussian, Inc. and that
 it will not use this program in any manner prohibited above.
 ---------------------------------------------------------------
  

 Cite this work as:
 Gaussian 16, Revision A.03,
 M. J. Frisch, G. W. Trucks, H. B. Schlegel, G. E. Scuseria, 
 M. A. Robb, J. R. Cheeseman, G. Scalmani, V. Barone, 
 G. A. Petersson, H. Nakatsuji, X. Li, M. Caricato, A. V. Marenich, 
 J. Bloino, B. G. Janesko, R. Gomperts, B. Mennucci, H. P. Hratchian, 
 J. V. Ortiz, A. F. Izmaylov, J. L. Sonnenberg, D. Williams-Young, 
 F. Ding, F. Lipparini, F. Egidi, J. Goings, B. Peng, A. Petrone, 
 T. Henderson, D. Ranasinghe, V. G. Zakrzewski, J. Gao, N. Rega, 
 G. Zheng, W. Liang, M. Hada, M. Ehara, K. Toyota, R. Fukuda, 
 J. Hasegawa, M. Ishida, T. Nakajima, Y. Honda, O. Kitao, H. Nakai, 
 T. Vreven, K. Throssell, J. A. Montgomery, Jr., J. E. Peralta, 
 F. Ogliaro, M. J. Bearpark, J. J. Heyd, E. N. Brothers, K. N. Kudin, 
 V. N. Staroverov, T. A. Keith, R. Kobayashi, J. Normand, 
 K. Raghavachari, A. P. Rendell, J. C. Burant, S. S. Iyengar, 
 J. Tomasi, M. Cossi, J. M. Millam, M. Klene, C. Adamo, R. Cammi, 
 J. W. Ochterski, R. L. Martin, K. Morokuma, O. Farkas, 
 J. B. Foresman, and D. J. Fox, Gaussian, Inc., Wallingford CT, 2016.
 
 ******************************************
 Gaussian 16:  ES64L-G16RevA.03 25-Dec-2016
                24-Jan-2024 
 ******************************************
 %chk=070-rad-PCM.chk
 %nproc=8
 Will use up to    8 processors via shared memory.
 %mem=30GB
 ----------------------------------------------------------------
 #P UB3LYP/6-311++G(d,p) SCRF=(PCM,Solvent=n,n-DiMethylFormamide)
 ----------------------------------------------------------------
 1/38=1,172=1/1;
 2/12=2,17=6,18=5,40=1/2;
 3/5=4,6=6,7=1111,11=2,25=1,30=1,70=2201,72=148,74=-5,116=2/1,2,3;
 4//1;
 5/5=2,38=5,53=148/2;
 6/7=2,8=2,9=2,10=2,28=1/1;
 99/5=1,9=1/99;
 Leave Link    1 at Wed Jan 24 22:47:47 2024, MaxMem=  4026531840 cpu:               0.6 elap:               0.1
 (Enter /sysapps/ubuntu-applications/gaussian/Gaussian/AVX2/g16/l101.exe)
 ------------------
 Radical PCM in DMF
 ------------------
 Symbolic Z-matrix:
 Charge = -1 Multiplicity = 2
 C                     1.0773    1.71411  -0.60193 
 C                    -0.15699   1.23086   0.02936 
 C                    -0.45298  -0.10712   0.12654 
 C                     0.4528   -1.13371  -0.39779 
 C                     1.65857  -0.66366  -1.03037 
 C                     1.9413    0.67762  -1.13299 
 O                     1.36225   2.9365   -0.65455 
 O                     0.1978   -2.36676  -0.30507 
 S                     3.44414   1.14407  -1.99858 
 C                     4.47641   2.01426  -0.78186 
 C                     4.30536   3.38121  -0.57442 
 C                     5.45413   1.29268  -0.10047 
 C                     6.27438   1.95316   0.81281 
 C                     5.1337    4.03146   0.33866 
 C                     6.11489   3.32166   1.03171 
 O                     3.15954   2.09002  -3.08781 
 O                     4.17439  -0.10057  -2.31848 
 H                     3.5204    3.90133  -1.10518 
 H                     5.56881   0.23476  -0.30128 
 H                     5.00811   5.09498   0.51166 
 H                     2.33912  -1.40363  -1.43259 
 H                     7.03956   1.40032   1.34741 
 C                    -1.72197  -0.58587   0.78487 
 C                    -1.08709   2.28432   0.57783 
 H                     6.75408   3.8344    1.74329 
 H                    -1.78191  -0.25809   1.82973 
 H                    -1.75654  -1.67501   0.75628 
 H                    -2.61087  -0.19076   0.27858 
 H                    -0.6735    3.27355   0.38277 
 H                    -1.22957   2.17172   1.65957 
 H                    -2.08086   2.21986   0.11905 
 
 ITRead=  0  0  0  0  0  0  0  0  0  0  0  0  0  0  0  0  0  0  0  0
 ITRead=  0  0  0  0  0  0  0  0  0  0  0
 MicOpt= -1 -1 -1 -1 -1 -1 -1 -1 -1 -1 -1 -1 -1 -1 -1 -1 -1 -1 -1 -1
 MicOpt= -1 -1 -1 -1 -1 -1 -1 -1 -1 -1 -1
 NAtoms=     31 NQM=       31 NQMF=       0 NMMI=      0 NMMIF=      0
                NMic=       0 NMicF=      0.
                    Isotopes and Nuclear Properties:
 (Nuclear quadrupole moments (NQMom) in fm**2, nuclear magnetic moments (NMagM)
  in nuclear magnetons)

  Atom         1           2           3           4           5           6           7           8           9          10
 IAtWgt=          12          12          12          12          12          12          16          16          32          12
 AtmWgt=  12.0000000  12.0000000  12.0000000  12.0000000  12.0000000  12.0000000  15.9949146  15.9949146  31.9720718  12.0000000
 NucSpn=           0           0           0           0           0           0           0           0           0           0
 AtZEff=  -0.0000000  -0.0000000  -0.0000000  -0.0000000  -0.0000000  -0.0000000  -0.0000000  -0.0000000  -0.0000000  -0.0000000
 NQMom=    0.0000000   0.0000000   0.0000000   0.0000000   0.0000000   0.0000000   0.0000000   0.0000000   0.0000000   0.0000000
 NMagM=    0.0000000   0.0000000   0.0000000   0.0000000   0.0000000   0.0000000   0.0000000   0.0000000   0.0000000   0.0000000
 AtZNuc=   6.0000000   6.0000000   6.0000000   6.0000000   6.0000000   6.0000000   8.0000000   8.0000000  16.0000000   6.0000000

  Atom        11          12          13          14          15          16          17          18          19          20
 IAtWgt=          12          12          12          12          12          16          16           1           1           1
 AtmWgt=  12.0000000  12.0000000  12.0000000  12.0000000  12.0000000  15.9949146  15.9949146   1.0078250   1.0078250   1.0078250
 NucSpn=           0           0           0           0           0           0           0           1           1           1
 AtZEff=  -0.0000000  -0.0000000  -0.0000000  -0.0000000  -0.0000000  -0.0000000  -0.0000000  -0.0000000  -0.0000000  -0.0000000
 NQMom=    0.0000000   0.0000000   0.0000000   0.0000000   0.0000000   0.0000000   0.0000000   0.0000000   0.0000000   0.0000000
 NMagM=    0.0000000   0.0000000   0.0000000   0.0000000   0.0000000   0.0000000   0.0000000   2.7928460   2.7928460   2.7928460
 AtZNuc=   6.0000000   6.0000000   6.0000000   6.0000000   6.0000000   8.0000000   8.0000000   1.0000000   1.0000000   1.0000000

  Atom        21          22          23          24          25          26          27          28          29          30
 IAtWgt=           1           1          12          12           1           1           1           1           1           1
 AtmWgt=   1.0078250   1.0078250  12.0000000  12.0000000   1.0078250   1.0078250   1.0078250   1.0078250   1.0078250   1.0078250
 NucSpn=           1           1           0           0           1           1           1           1           1           1
 AtZEff=  -0.0000000  -0.0000000  -0.0000000  -0.0000000  -0.0000000  -0.0000000  -0.0000000  -0.0000000  -0.0000000  -0.0000000
 NQMom=    0.0000000   0.0000000   0.0000000   0.0000000   0.0000000   0.0000000   0.0000000   0.0000000   0.0000000   0.0000000
 NMagM=    2.7928460   2.7928460   0.0000000   0.0000000   2.7928460   2.7928460   2.7928460   2.7928460   2.7928460   2.7928460
 AtZNuc=   1.0000000   1.0000000   6.0000000   6.0000000   1.0000000   1.0000000   1.0000000   1.0000000   1.0000000   1.0000000

  Atom        31
 IAtWgt=           1
 AtmWgt=   1.0078250
 NucSpn=           1
 AtZEff=  -0.0000000
 NQMom=    0.0000000
 NMagM=    2.7928460
 AtZNuc=   1.0000000
 Leave Link  101 at Wed Jan 24 22:47:47 2024, MaxMem=  4026531840 cpu:               1.0 elap:               0.3
 (Enter /sysapps/ubuntu-applications/gaussian/Gaussian/AVX2/g16/l202.exe)
                          Input orientation:                          
 ---------------------------------------------------------------------
 Center     Atomic      Atomic             Coordinates (Angstroms)
 Number     Number       Type             X           Y           Z
 ---------------------------------------------------------------------
      1          6           0        1.077295    1.714106   -0.601928
      2          6           0       -0.156985    1.230860    0.029363
      3          6           0       -0.452976   -0.107119    0.126538
      4          6           0        0.452802   -1.133706   -0.397788
      5          6           0        1.658573   -0.663658   -1.030369
      6          6           0        1.941297    0.677618   -1.132986
      7          8           0        1.362246    2.936498   -0.654545
      8          8           0        0.197799   -2.366759   -0.305074
      9         16           0        3.444135    1.144065   -1.998582
     10          6           0        4.476405    2.014263   -0.781863
     11          6           0        4.305363    3.381211   -0.574417
     12          6           0        5.454125    1.292682   -0.100473
     13          6           0        6.274379    1.953164    0.812812
     14          6           0        5.133697    4.031465    0.338663
     15          6           0        6.114885    3.321656    1.031708
     16          8           0        3.159543    2.090020   -3.087814
     17          8           0        4.174394   -0.100571   -2.318475
     18          1           0        3.520396    3.901334   -1.105184
     19          1           0        5.568805    0.234760   -0.301280
     20          1           0        5.008106    5.094978    0.511660
     21          1           0        2.339119   -1.403629   -1.432590
     22          1           0        7.039564    1.400323    1.347407
     23          6           0       -1.721966   -0.585867    0.784874
     24          6           0       -1.087093    2.284318    0.577829
     25          1           0        6.754080    3.834402    1.743290
     26          1           0       -1.781905   -0.258086    1.829733
     27          1           0       -1.756536   -1.675005    0.756283
     28          1           0       -2.610867   -0.190759    0.278580
     29          1           0       -0.673502    3.273546    0.382768
     30          1           0       -1.229570    2.171721    1.659571
     31          1           0       -2.080857    2.219859    0.119049
 ---------------------------------------------------------------------
                    Distance matrix (angstroms):
                    1          2          3          4          5
     1  C    0.000000
     2  C    1.468163   0.000000
     3  C    2.487821   1.373769   0.000000
     4  C    2.922618   2.479006   1.466026   0.000000
     5  C    2.484996   2.829926   2.471196   1.440482   0.000000
     6  C    1.450114   2.461690   2.816870   2.457036   1.374585
     7  O    1.256267   2.384323   3.628874   4.178465   3.631828
     8  O    4.185104   3.630507   2.390768   1.262554   2.358064
     9  S    2.806692   4.133783   4.611840   4.086423   2.719105
    10  C    3.417078   4.768659   5.442816   5.123144   3.895278
    11  C    3.633238   4.990101   5.941513   5.937836   4.855343
    12  C    4.425573   5.612952   6.074934   5.566775   4.370147
    13  C    5.391504   6.519046   7.069161   6.699633   5.617004
    14  C    4.765424   5.994195   6.955846   7.009431   5.999576
    15  C    5.534464   6.686739   7.464089   7.345263   6.324050
    16  O    3.264460   4.631879   5.311287   4.995508   3.750831
    17  O    3.978895   5.103518   5.233611   4.313543   2.881951
    18  H    3.317525   4.684203   5.776895   5.938196   4.930632
    19  H    4.738409   5.821186   6.046632   5.296744   4.077823
    20  H    5.302985   6.468553   7.552056   7.770096   6.838064
    21  H    3.464458   3.912592   3.450741   2.168379   1.082812
    22  H    6.280686   7.318215   7.739577   7.269969   6.234493
    23  C    3.879299   2.514052   1.507628   2.535435   3.837864
    24  C    2.530127   1.508539   2.514903   3.873757   4.337689
    25  H    6.497814   7.581477   8.372045   8.304963   7.340975
    26  H    4.239993   2.845814   2.165575   3.274519   4.492389
    27  H    4.621840   3.395737   2.134037   2.550698   3.984710
    28  H    4.243388   2.846866   2.164857   3.276079   4.490557
    29  H    2.542984   2.136411   3.397526   4.615376   4.789270
    30  H    3.262731   2.166388   2.854190   4.241338   4.859683
    31  H    3.278646   2.165051   2.839873   4.234731   4.859956
                    6          7          8          9         10
     6  C    0.000000
     7  O    2.380493   0.000000
     8  O    3.604644   5.440827   0.000000
     9  S    1.795926   3.058351   5.072726   0.000000
    10  C    2.887331   3.250341   6.142243   1.817479   0.000000
    11  C    3.634587   2.977604   7.069921   2.788330   1.393139
    12  C    3.712728   4.444390   6.407990   2.768567   1.393165
    13  C    4.918206   5.220070   7.538981   4.070486   2.404045
    14  C    4.858545   4.050834   8.106464   4.080982   2.399316
    15  C    5.394041   5.057605   8.316066   4.588841   2.771810
    16  O    2.701917   3.141274   6.031455   1.470459   2.656553
    17  O    2.645314   4.461012   5.000270   1.478083   2.631522
    18  H    3.589801   2.406573   7.139245   2.899398   2.139983
    19  H    3.747889   5.011918   5.967882   2.867384   2.142645
    20  H    5.623455   4.394470   8.915359   4.935285   3.383299
    21  H    2.140003   4.516230   2.604643   2.834105   4.083310
    22  H    5.715503   6.212856   7.983192   4.918172   3.388288
    23  C    4.323665   4.898096   2.836382   6.117916   6.901822
    24  C    3.831386   2.818394   4.905403   5.335738   5.733603
    25  H    6.434371   5.968896   9.253919   5.674086   3.857085
    26  H    4.849276   5.124714   3.594876   6.628236   7.151954
    27  H    4.772645   5.743100   2.329040   6.525597   7.404468
    28  H    4.844460   5.141603   3.600588   6.605321   7.497739
    29  H    3.984159   2.309521   5.748507   5.211569   5.428048
    30  H    4.481642   3.557742   5.147331   6.023427   6.208345
    31  H    4.485958   3.600969   5.138990   6.013920   6.622054
                   11         12         13         14         15
    11  C    0.000000
    12  C    2.430274   0.000000
    13  C    2.800133   1.393966   0.000000
    14  C    1.393801   2.792212   2.417707   0.000000
    15  C    2.420238   2.415610   1.395036   1.395303   0.000000
    16  O    3.049138   3.850333   4.993577   4.405365   5.217417
    17  O    3.896370   2.915201   4.293335   5.005434   5.167288
    18  H    1.080932   3.399091   3.880528   2.168956   3.410822
    19  H    3.401624   1.082901   2.166090   3.874766   3.406463
    20  H    2.147186   3.876996   3.400755   1.084786   2.154085
    21  H    5.243784   4.329883   5.638808   6.362959   6.531270
    22  H    3.884994   2.149781   1.084865   3.401882   2.155509
    23  C    7.342620   7.470547   8.389815   8.277619   8.760474
    24  C    5.622226   6.650637   7.372662   6.465907   7.290443
    25  H    3.401965   3.398483   2.152895   2.153474   1.085278
    26  H    7.488608   7.647922   8.415906   8.273396   8.706933
    27  H    8.005167   7.844414   8.812627   8.956200   9.327473
    28  H    7.830761   8.209042   9.155840   8.820944   9.436260
    29  H    5.071182   6.457953   7.085294   5.856616   6.819504
    30  H    6.090078   6.967226   7.554735   6.759779   7.460401
    31  H    6.527897   7.594985   8.388230   7.441770   8.319681
                   16         17         18         19         20
    16  O    0.000000
    17  O    2.533869   0.000000
    18  H    2.709593   4.232615   0.000000
    19  H    4.124476   2.475056   4.276214   0.000000
    20  H    5.040156   5.974820   2.500450   4.959534   0.000000
    21  H    3.952018   2.418881   5.444744   3.794081   7.289410
    22  H    5.933079   4.888821   4.965360   2.497967   4.298345
    23  C    6.781387   6.680819   7.154694   7.416772   8.811386
    24  C    5.613253   6.462160   5.164904   7.019580   6.712350
    25  H    6.269221   6.215845   4.309872   4.306108   2.480804
    26  H    7.356207   7.260161   7.350436   7.669228   8.746248
    27  H    7.288369   6.863593   7.899787   7.643707   9.573552
    28  H    7.059192   7.265851   7.500161   8.211232   9.275888
    29  H    5.304518   6.494881   4.494096   6.976284   5.967822
    30  H    6.465961   7.084560   5.761737   7.335847   6.983676
    31  H    6.145130   7.103104   5.974959   7.914204   7.659886
                   21         22         23         24         25
    21  H    0.000000
    22  H    6.138788   0.000000
    23  C    4.698754   9.001433   0.000000
    24  C    5.420486   8.210740   2.946845   0.000000
    25  H    7.550832   2.482532   9.607325   8.077441   0.000000
    26  H    5.379392   8.988953   1.096706   2.917849   9.466730
    27  H    4.651795   9.336940   1.090062   4.019482  10.186183
    28  H    5.376013   9.838941   1.096626   2.921890  10.298035
    29  H    5.852126   7.995679   4.019457   1.089807   7.571958
    30  H    5.922848   8.310901   2.934594   1.096879   8.155378
    31  H    5.922283   9.239187   2.905895   1.096449   9.126939
                   26         27         28         29         30
    26  H    0.000000
    27  H    1.777807   0.000000
    28  H    1.760053   1.777939   0.000000
    29  H    3.974253   5.079432   3.970598   0.000000
    30  H    2.497597   3.986342   3.065360   1.775797   0.000000
    31  H    3.025892   3.959952   2.473346   1.777766   1.760743
                   31
    31  H    0.000000
 Stoichiometry    C14H12O4S(1-,2)
 Framework group  C1[X(C14H12O4S)]
 Deg. of freedom    87
 Full point group                 C1      NOp   1
 Largest Abelian subgroup         C1      NOp   1
 Largest concise Abelian subgroup C1      NOp   1
                         Standard orientation:                         
 ---------------------------------------------------------------------
 Center     Atomic      Atomic             Coordinates (Angstroms)
 Number     Number       Type             X           Y           Z
 ---------------------------------------------------------------------
      1          6           0        0.986523    0.857241    0.572849
      2          6           0        2.342786    1.205246    0.131324
      3          6           0        3.185707    0.281880   -0.437992
      4          6           0        2.775507   -1.111313   -0.637947
      5          6           0        1.450534   -1.460609   -0.193619
      6          6           0        0.617877   -0.532618    0.385171
      7          8           0        0.205361    1.713313    1.057755
      8          8           0        3.536456   -1.966924   -1.169859
      9         16           0       -0.987042   -1.101188    0.956411
     10          6           0       -2.220583   -0.172411   -0.002223
     11          6           0       -2.636834    1.084467    0.431170
     12          6           0       -2.757057   -0.761345   -1.145140
     13          6           0       -3.727087   -0.074145   -1.873111
     14          6           0       -3.609813    1.760548   -0.302935
     15          6           0       -4.153770    1.185503   -1.451979
     16          8           0       -1.195207   -0.771249    2.374176
     17          8           0       -1.134215   -2.509114    0.531190
     18          1           0       -2.179969    1.517694    1.309807
     19          1           0       -2.421224   -1.747440   -1.440957
     20          1           0       -3.939760    2.741444    0.022242
     21          1           0        1.128508   -2.486232   -0.323532
     22          1           0       -4.151932   -0.524881   -2.763772
     23          6           0        4.572932    0.658689   -0.892484
     24          6           0        2.764877    2.640172    0.327579
     25          1           0       -4.908858    1.719400   -2.019979
     26          1           0        4.546866    1.449139   -1.652269
     27          1           0        5.066625   -0.217000   -1.313994
     28          1           0        5.178301    1.039656   -0.061232
     29          1           0        1.958816    3.195324    0.806902
     30          1           0        3.003088    3.123902   -0.627619
     31          1           0        3.663462    2.711949    0.951753
 ---------------------------------------------------------------------
 Rotational constants (GHZ):           0.6000375           0.2329376           0.2089298
 Leave Link  202 at Wed Jan 24 22:47:47 2024, MaxMem=  4026531840 cpu:               0.5 elap:               0.1
 (Enter /sysapps/ubuntu-applications/gaussian/Gaussian/AVX2/g16/l301.exe)
 Standard basis: 6-311++G(d,p) (5D, 7F)
 Ernie: Thresh=  0.10000D-02 Tol=  0.10000D-05 Strict=F.
 There are   529 symmetry adapted cartesian basis functions of A   symmetry.
 There are   510 symmetry adapted basis functions of A   symmetry.
   510 basis functions,   806 primitive gaussians,   529 cartesian basis functions
    73 alpha electrons       72 beta electrons
       nuclear repulsion energy      1561.0802247452 Hartrees.
 IExCor=  402 DFT=T Ex+Corr=B3LYP ExCW=0 ScaHFX=  0.200000
 ScaDFX=  0.800000  0.720000  1.000000  0.810000 ScalE2=  1.000000  1.000000
 IRadAn=      5 IRanWt=     -1 IRanGd=            0 ICorTp=0 IEmpDi=  4
 NAtoms=   31 NActive=   31 NUniq=   31 SFac= 1.00D+00 NAtFMM=   60 NAOKFM=F Big=F
 Integral buffers will be    131072 words long.
 Raffenetti 2 integral format.
 Two-electron integral symmetry is turned on.
 ------------------------------------------------------------------------------
 Polarizable Continuum Model (PCM)
 =================================
 Model                : PCM.
 Atomic radii         : UFF (Universal Force Field).
 Polarization charges : Total charges.
 Charge compensation  : None.
 Solution method      : On-the-fly selection.
 Cavity type          : Scaled VdW (van der Waals Surface) (Alpha=1.100).
 Cavity algorithm     : GePol (No added spheres)
                        Default sphere list used, NSphG=   31.
                        Lebedev-Laikov grids with approx.  5.0 points / Ang**2.
                        Smoothing algorithm: York/Karplus (Gamma=1.0000).
                        Polarization charges: spherical gaussians, with
                                              point-specific exponents (IZeta= 3).
                        Self-potential: point-specific (ISelfS= 7).
                        Self-field    : sphere-specific E.n sum rule (ISelfD= 2).
 Solvent              : n,n-DiMethylFormamide, Eps=  37.219000 Eps(inf)=   2.046330
 ------------------------------------------------------------------------------
 GePol: Number of generator spheres                  =      31
 GePol: Total number of spheres                      =      31
 GePol: Number of exposed spheres                    =      31 (100.00%)
 GePol: Number of points                             =    2493
 GePol: Average weight of points                     =       0.13
 GePol: Minimum weight of points                     =   0.49D-10
 GePol: Maximum weight of points                     =    0.20577
 GePol: Number of points with low weight             =     170
 GePol: Fraction of low-weight points (<1% of avg)   =       6.82%
 GePol: Cavity surface area                          =    323.592 Ang**2
 GePol: Cavity volume                                =    354.646 Ang**3
 Leave Link  301 at Wed Jan 24 22:47:47 2024, MaxMem=  4026531840 cpu:               0.9 elap:               0.2
 (Enter /sysapps/ubuntu-applications/gaussian/Gaussian/AVX2/g16/l302.exe)
 NPDir=0 NMtPBC=     1 NCelOv=     1 NCel=       1 NClECP=     1 NCelD=      1
         NCelK=      1 NCelE2=     1 NClLst=     1 CellRange=     0.0.
 One-electron integrals computed using PRISM.
 One-electron integral symmetry used in STVInt
 NBasis=   510 RedAO= T EigKep=  1.05D-06  NBF=   510
 NBsUse=   507 1.00D-06 EigRej=  6.79D-07 NBFU=   507
 Precomputing XC quadrature grid using
 IXCGrd= 4 IRadAn=           5 IRanWt=          -1 IRanGd=           0 AccXCQ= 0.00D+00.
 Generated NRdTot=       0 NPtTot=           0 NUsed=           0 NTot=          32
 NSgBfM=   525   525   525   525   525 MxSgAt=    31 MxSgA2=    31.
 Leave Link  302 at Wed Jan 24 22:47:49 2024, MaxMem=  4026531840 cpu:              14.0 elap:               2.2
 (Enter /sysapps/ubuntu-applications/gaussian/Gaussian/AVX2/g16/l303.exe)
 DipDrv:  MaxL=1.
 Leave Link  303 at Wed Jan 24 22:47:50 2024, MaxMem=  4026531840 cpu:               1.5 elap:               0.4
 (Enter /sysapps/ubuntu-applications/gaussian/Gaussian/AVX2/g16/l401.exe)
 ExpMin= 3.60D-02 ExpMax= 9.34D+04 ExpMxC= 3.17D+03 IAcc=3 IRadAn=         5 AccDes= 0.00D+00
 Harris functional with IExCor=  402 and IRadAn=       5 diagonalized for initial guess.
 HarFok:  IExCor=  402 AccDes= 0.00D+00 IRadAn=         5 IDoV= 1 UseB2=F ITyADJ=14
 ICtDFT=  3500011 ScaDFX=  1.000000  1.000000  1.000000  1.000000
 FoFCou: FMM=F IPFlag=           0 FMFlag=      100000 FMFlg1=           0
         NFxFlg=           0 DoJE=T BraDBF=F KetDBF=T FulRan=T
         wScrn=  0.000000 ICntrl=       500 IOpCl=  0 I1Cent=   200000004 NGrid=           0
         NMat0=    1 NMatS0=      1 NMatT0=    0 NMatD0=    1 NMtDS0=    0 NMtDT0=    0
 Petite list used in FoFCou.
 Harris En= -1240.29921948504    
 JPrj=0 DoOrth=F DoCkMO=F.
 Initial guess <Sx>= 0.0000 <Sy>= 0.0000 <Sz>= 0.5000 <S**2>= 0.7500 S= 0.5000
 Leave Link  401 at Wed Jan 24 22:47:55 2024, MaxMem=  4026531840 cpu:              40.9 elap:               5.2
 (Enter /sysapps/ubuntu-applications/gaussian/Gaussian/AVX2/g16/l502.exe)
 Integral symmetry usage will be decided dynamically.
 UHF open shell SCF:
 Using DIIS extrapolation, IDIIS=  1040.
 NGot=  4026531840 LenX=  4025962928 LenY=  4025682558
 Requested convergence on RMS density matrix=1.00D-08 within 128 cycles.
 Requested convergence on MAX density matrix=1.00D-06.
 Requested convergence on             energy=1.00D-06.
 No special actions if energy rises.
 Fock matrices will be formed incrementally for  20 cycles.

 Cycle   1  Pass 1  IDiag  1:
 FoFJK:  IHMeth= 1 ICntrl=       0 DoSepK=F KAlg= 0 I1Cent=           0 FoldK=F
 IRaf= 840000000 NMat=       1 IRICut=       1 DoRegI=T DoRafI=F ISym2E= 0 IDoP0=0 IntGTp=1.
 FoFCou: FMM=F IPFlag=           0 FMFlag=      100000 FMFlg1=           0
         NFxFlg=           0 DoJE=F BraDBF=F KetDBF=F FulRan=T
         wScrn=  0.000000 ICntrl=         0 IOpCl=  1 I1Cent=           0 NGrid=           0
         NMat0=    1 NMatS0=      1 NMatT0=    0 NMatD0=    1 NMtDS0=    0 NMtDT0=    0
 Symmetry not used in FoFCou.
 Inv3:  Mode=1 IEnd=    18645147.
 Iteration    1 A*A^-1 deviation from unit magnitude is 2.89D-15 for   1358.
 Iteration    1 A*A^-1 deviation from orthogonality  is 1.70D-15 for   1454    401.
 Iteration    1 A^-1*A deviation from unit magnitude is 2.66D-15 for    576.
 Iteration    1 A^-1*A deviation from orthogonality  is 2.54D-15 for   1614   1467.
 E= -1239.40660546054    
 DIIS: error= 2.72D-02 at cycle   1 NSaved=   1.
 NSaved= 1 IEnMin= 1 EnMin= -1239.40660546054     IErMin= 1 ErrMin= 2.72D-02
 ErrMax= 2.72D-02  0.00D+00 EMaxC= 1.00D-01 BMatC= 3.78D+00 BMatP= 3.78D+00
 IDIUse=3 WtCom= 7.28D-01 WtEn= 2.72D-01
 Coeff-Com:  0.100D+01
 Coeff-En:   0.100D+01
 Coeff:      0.100D+01
 Gap=     0.109 Goal=   None    Shift=    0.000
 Gap=     0.146 Goal=   None    Shift=    0.000
 GapD=    0.109 DampG=1.000 DampE=0.500 DampFc=0.5000 IDamp=-1.
 Damping current iteration by 5.00D-01
 RMSDP=3.52D-01 MaxDP=3.92D+01              OVMax= 3.47D-01

 Cycle   2  Pass 1  IDiag  1:
 RMSU=  8.84D-02    CP:  2.13D+00
 E= -1239.53330510111     Delta-E=       -0.126699640568 Rises=F Damp=T
 DIIS: error= 1.46D-02 at cycle   2 NSaved=   2.
 NSaved= 2 IEnMin= 2 EnMin= -1239.53330510111     IErMin= 2 ErrMin= 1.46D-02
 ErrMax= 1.46D-02  0.00D+00 EMaxC= 1.00D-01 BMatC= 6.93D-01 BMatP= 3.78D+00
 IDIUse=3 WtCom= 8.54D-01 WtEn= 1.46D-01
 Coeff-Com:  0.252D+00 0.748D+00
 Coeff-En:   0.416D+00 0.584D+00
 Coeff:      0.276D+00 0.724D+00
 Gap=     0.160 Goal=   None    Shift=    0.000
 Gap=     0.199 Goal=   None    Shift=    0.000
 RMSDP=1.49D-01 MaxDP=1.65D+01 DE=-1.27D-01 OVMax= 3.21D-01

 Cycle   3  Pass 1  IDiag  1:
 RMSU=  1.26D-02    CP:  1.16D+00  2.01D-01
 E= -1240.03962587296     Delta-E=       -0.506320771844 Rises=F Damp=F
 DIIS: error= 1.53D-02 at cycle   3 NSaved=   3.
 NSaved= 3 IEnMin= 3 EnMin= -1240.03962587296     IErMin= 2 ErrMin= 1.46D-02
 ErrMax= 1.53D-02  0.00D+00 EMaxC= 1.00D-01 BMatC= 4.01D-01 BMatP= 6.93D-01
 IDIUse=3 WtCom= 8.47D-01 WtEn= 1.53D-01
 Coeff-Com:  0.791D-01 0.436D+00 0.485D+00
 Coeff-En:   0.000D+00 0.000D+00 0.100D+01
 Coeff:      0.670D-01 0.369D+00 0.564D+00
 Gap=     0.123 Goal=   None    Shift=    0.000
 Gap=     0.155 Goal=   None    Shift=    0.000
 RMSDP=4.46D-02 MaxDP=5.57D+00 DE=-5.06D-01 OVMax= 1.24D-01

 Cycle   4  Pass 1  IDiag  1:
 RMSU=  1.46D-02    CP:  1.44D+00  3.92D-01  7.80D-01
 E= -1240.11417401786     Delta-E=       -0.074548144904 Rises=F Damp=F
 DIIS: error= 7.67D-03 at cycle   4 NSaved=   4.
 NSaved= 4 IEnMin= 4 EnMin= -1240.11417401786     IErMin= 4 ErrMin= 7.67D-03
 ErrMax= 7.67D-03  0.00D+00 EMaxC= 1.00D-01 BMatC= 1.01D-01 BMatP= 4.01D-01
 IDIUse=3 WtCom= 9.23D-01 WtEn= 7.67D-02
 Coeff-Com:  0.131D-01 0.900D-01 0.346D+00 0.551D+00
 Coeff-En:   0.000D+00 0.000D+00 0.227D+00 0.773D+00
 Coeff:      0.121D-01 0.831D-01 0.337D+00 0.568D+00
 Gap=     0.125 Goal=   None    Shift=    0.000
 Gap=     0.143 Goal=   None    Shift=    0.000
 RMSDP=1.04D-02 MaxDP=1.57D+00 DE=-7.45D-02 OVMax= 4.97D-02

 Cycle   5  Pass 1  IDiag  1:
 RMSU=  2.74D-03    CP:  1.39D+00  3.62D-01  9.23D-01  6.45D-01
 E= -1240.13637824700     Delta-E=       -0.022204229138 Rises=F Damp=F
 DIIS: error= 2.11D-03 at cycle   5 NSaved=   5.
 NSaved= 5 IEnMin= 5 EnMin= -1240.13637824700     IErMin= 5 ErrMin= 2.11D-03
 ErrMax= 2.11D-03  0.00D+00 EMaxC= 1.00D-01 BMatC= 5.82D-03 BMatP= 1.01D-01
 IDIUse=3 WtCom= 9.79D-01 WtEn= 2.11D-02
 Coeff-Com: -0.206D-03 0.129D-01 0.149D+00 0.320D+00 0.518D+00
 Coeff-En:   0.000D+00 0.000D+00 0.000D+00 0.000D+00 0.100D+01
 Coeff:     -0.202D-03 0.126D-01 0.146D+00 0.313D+00 0.529D+00
 Gap=     0.123 Goal=   None    Shift=    0.000
 Gap=     0.137 Goal=   None    Shift=    0.000
 RMSDP=3.96D-03 MaxDP=4.22D-01 DE=-2.22D-02 OVMax= 1.83D-02

 Cycle   6  Pass 1  IDiag  1:
 RMSU=  4.92D-04    CP:  1.36D+00  3.47D-01  9.02D-01  6.31D-01  8.39D-01
 E= -1240.13742569328     Delta-E=       -0.001047446281 Rises=F Damp=F
 DIIS: error= 1.05D-03 at cycle   6 NSaved=   6.
 NSaved= 6 IEnMin= 6 EnMin= -1240.13742569328     IErMin= 6 ErrMin= 1.05D-03
 ErrMax= 1.05D-03  0.00D+00 EMaxC= 1.00D-01 BMatC= 1.13D-03 BMatP= 5.82D-03
 IDIUse=3 WtCom= 9.90D-01 WtEn= 1.05D-02
 Coeff-Com: -0.123D-02-0.288D-02 0.495D-01 0.124D+00 0.342D+00 0.489D+00
 Coeff-En:   0.000D+00 0.000D+00 0.000D+00 0.000D+00 0.133D+00 0.867D+00
 Coeff:     -0.122D-02-0.285D-02 0.489D-01 0.123D+00 0.339D+00 0.493D+00
 Gap=     0.124 Goal=   None    Shift=    0.000
 Gap=     0.136 Goal=   None    Shift=    0.000
 RMSDP=7.12D-04 MaxDP=1.17D-01 DE=-1.05D-03 OVMax= 7.24D-03

 Cycle   7  Pass 1  IDiag  1:
 RMSU=  4.08D-04    CP:  1.36D+00  3.49D-01  9.03D-01  6.63D-01  7.77D-01
                    CP:  7.04D-01
 E= -1240.13764426530     Delta-E=       -0.000218572015 Rises=F Damp=F
 DIIS: error= 2.34D-04 at cycle   7 NSaved=   7.
 NSaved= 7 IEnMin= 7 EnMin= -1240.13764426530     IErMin= 7 ErrMin= 2.34D-04
 ErrMax= 2.34D-04  0.00D+00 EMaxC= 1.00D-01 BMatC= 8.93D-05 BMatP= 1.13D-03
 IDIUse=3 WtCom= 9.98D-01 WtEn= 2.34D-03
 Coeff-Com: -0.192D-03-0.383D-02 0.424D-02 0.159D-01 0.105D+00 0.252D+00
 Coeff-Com:  0.627D+00
 Coeff-En:   0.000D+00 0.000D+00 0.000D+00 0.000D+00 0.000D+00 0.000D+00
 Coeff-En:   0.100D+01
 Coeff:     -0.191D-03-0.382D-02 0.423D-02 0.159D-01 0.105D+00 0.251D+00
 Coeff:      0.628D+00
 Gap=     0.125 Goal=   None    Shift=    0.000
 Gap=     0.136 Goal=   None    Shift=    0.000
 RMSDP=1.47D-04 MaxDP=1.92D-02 DE=-2.19D-04 OVMax= 2.77D-03

 Cycle   8  Pass 1  IDiag  1:
 RMSU=  8.52D-05    CP:  1.36D+00  3.49D-01  9.05D-01  6.61D-01  7.87D-01
                    CP:  7.39D-01  9.62D-01
 E= -1240.13766707256     Delta-E=       -0.000022807267 Rises=F Damp=F
 DIIS: error= 1.18D-04 at cycle   8 NSaved=   8.
 NSaved= 8 IEnMin= 8 EnMin= -1240.13766707256     IErMin= 8 ErrMin= 1.18D-04
 ErrMax= 1.18D-04  0.00D+00 EMaxC= 1.00D-01 BMatC= 2.06D-05 BMatP= 8.93D-05
 IDIUse=3 WtCom= 9.99D-01 WtEn= 1.18D-03
 Coeff-Com:  0.286D-03-0.142D-02-0.669D-02-0.161D-01-0.814D-02 0.249D-01
 Coeff-Com:  0.329D+00 0.678D+00
 Coeff-En:   0.000D+00 0.000D+00 0.000D+00 0.000D+00 0.000D+00 0.000D+00
 Coeff-En:   0.000D+00 0.100D+01
 Coeff:      0.286D-03-0.142D-02-0.668D-02-0.160D-01-0.813D-02 0.249D-01
 Coeff:      0.329D+00 0.678D+00
 Gap=     0.125 Goal=   None    Shift=    0.000
 Gap=     0.136 Goal=   None    Shift=    0.000
 RMSDP=1.15D-04 MaxDP=1.43D-02 DE=-2.28D-05 OVMax= 1.21D-03

 Cycle   9  Pass 1  IDiag  1:
 RMSU=  6.82D-05    CP:  1.36D+00  3.48D-01  9.04D-01  6.60D-01  8.03D-01
                    CP:  7.41D-01  9.20D-01  7.00D-01
 E= -1240.13767316245     Delta-E=       -0.000006089888 Rises=F Damp=F
 DIIS: error= 8.46D-05 at cycle   9 NSaved=   9.
 NSaved= 9 IEnMin= 9 EnMin= -1240.13767316245     IErMin= 9 ErrMin= 8.46D-05
 ErrMax= 8.46D-05  0.00D+00 EMaxC= 1.00D-01 BMatC= 7.53D-06 BMatP= 2.06D-05
 IDIUse=1 WtCom= 1.00D+00 WtEn= 0.00D+00
 Coeff-Com:  0.254D-03 0.315D-03-0.572D-02-0.166D-01-0.418D-01-0.837D-01
 Coeff-Com: -0.735D-02 0.454D+00 0.701D+00
 Coeff:      0.254D-03 0.315D-03-0.572D-02-0.166D-01-0.418D-01-0.837D-01
 Coeff:     -0.735D-02 0.454D+00 0.701D+00
 Gap=     0.125 Goal=   None    Shift=    0.000
 Gap=     0.136 Goal=   None    Shift=    0.000
 RMSDP=5.27D-05 MaxDP=6.89D-03 DE=-6.09D-06 OVMax= 1.05D-03

 Cycle  10  Pass 1  IDiag  1:
 RMSU=  2.67D-05    CP:  1.36D+00  3.48D-01  9.04D-01  6.60D-01  8.01D-01
                    CP:  7.50D-01  9.84D-01  8.90D-01  8.87D-01
 E= -1240.13767582397     Delta-E=       -0.000002661524 Rises=F Damp=F
 DIIS: error= 2.70D-05 at cycle  10 NSaved=  10.
 NSaved=10 IEnMin=10 EnMin= -1240.13767582397     IErMin=10 ErrMin= 2.70D-05
 ErrMax= 2.70D-05  0.00D+00 EMaxC= 1.00D-01 BMatC= 7.34D-07 BMatP= 7.53D-06
 IDIUse=1 WtCom= 1.00D+00 WtEn= 0.00D+00
 Coeff-Com:  0.343D-04 0.337D-03-0.122D-02-0.435D-02-0.166D-01-0.429D-01
 Coeff-Com: -0.510D-01 0.800D-01 0.297D+00 0.739D+00
 Coeff:      0.343D-04 0.337D-03-0.122D-02-0.435D-02-0.166D-01-0.429D-01
 Coeff:     -0.510D-01 0.800D-01 0.297D+00 0.739D+00
 Gap=     0.125 Goal=   None    Shift=    0.000
 Gap=     0.136 Goal=   None    Shift=    0.000
 RMSDP=3.59D-05 MaxDP=4.02D-03 DE=-2.66D-06 OVMax= 3.84D-04

 Cycle  11  Pass 1  IDiag  1:
 RMSU=  1.08D-05    CP:  1.36D+00  3.48D-01  9.04D-01  6.60D-01  8.00D-01
                    CP:  7.46D-01  1.00D+00  9.15D-01  9.25D-01  8.90D-01
 E= -1240.13767604299     Delta-E=       -0.000000219019 Rises=F Damp=F
 DIIS: error= 1.79D-05 at cycle  11 NSaved=  11.
 NSaved=11 IEnMin=11 EnMin= -1240.13767604299     IErMin=11 ErrMin= 1.79D-05
 ErrMax= 1.79D-05  0.00D+00 EMaxC= 1.00D-01 BMatC= 4.28D-07 BMatP= 7.34D-07
 IDIUse=1 WtCom= 1.00D+00 WtEn= 0.00D+00
 Coeff-Com: -0.291D-04 0.178D-03 0.350D-03 0.455D-03-0.295D-02-0.133D-01
 Coeff-Com: -0.327D-01-0.421D-01 0.520D-01 0.517D+00 0.521D+00
 Coeff:     -0.291D-04 0.178D-03 0.350D-03 0.455D-03-0.295D-02-0.133D-01
 Coeff:     -0.327D-01-0.421D-01 0.520D-01 0.517D+00 0.521D+00
 Gap=     0.125 Goal=   None    Shift=    0.000
 Gap=     0.136 Goal=   None    Shift=    0.000
 RMSDP=1.82D-05 MaxDP=2.46D-03 DE=-2.19D-07 OVMax= 2.00D-04

 Cycle  12  Pass 1  IDiag  1:
 RMSU=  4.41D-06    CP:  1.36D+00  3.48D-01  9.04D-01  6.60D-01  7.99D-01
                    CP:  7.44D-01  1.00D+00  9.38D-01  9.56D-01  1.00D+00
                    CP:  7.08D-01
 E= -1240.13767616281     Delta-E=       -0.000000119820 Rises=F Damp=F
 DIIS: error= 4.69D-06 at cycle  12 NSaved=  12.
 NSaved=12 IEnMin=12 EnMin= -1240.13767616281     IErMin=12 ErrMin= 4.69D-06
 ErrMax= 4.69D-06  0.00D+00 EMaxC= 1.00D-01 BMatC= 2.26D-08 BMatP= 4.28D-07
 IDIUse=1 WtCom= 1.00D+00 WtEn= 0.00D+00
 Coeff-Com: -0.144D-04 0.415D-04 0.280D-03 0.628D-03 0.394D-03-0.174D-02
 Coeff-Com: -0.823D-02-0.280D-01-0.539D-02 0.154D+00 0.234D+00 0.654D+00
 Coeff:     -0.144D-04 0.415D-04 0.280D-03 0.628D-03 0.394D-03-0.174D-02
 Coeff:     -0.823D-02-0.280D-01-0.539D-02 0.154D+00 0.234D+00 0.654D+00
 Gap=     0.125 Goal=   None    Shift=    0.000
 Gap=     0.136 Goal=   None    Shift=    0.000
 RMSDP=2.94D-06 MaxDP=3.78D-04 DE=-1.20D-07 OVMax= 5.12D-05

 Cycle  13  Pass 1  IDiag  1:
 RMSU=  1.41D-06    CP:  1.36D+00  3.48D-01  9.04D-01  6.60D-01  7.99D-01
                    CP:  7.43D-01  1.00D+00  9.30D-01  9.53D-01  1.00D+00
                    CP:  8.13D-01  9.28D-01
 E= -1240.13767616996     Delta-E=       -0.000000007144 Rises=F Damp=F
 DIIS: error= 2.45D-06 at cycle  13 NSaved=  13.
 NSaved=13 IEnMin=13 EnMin= -1240.13767616996     IErMin=13 ErrMin= 2.45D-06
 ErrMax= 2.45D-06  0.00D+00 EMaxC= 1.00D-01 BMatC= 7.67D-09 BMatP= 2.26D-08
 IDIUse=1 WtCom= 1.00D+00 WtEn= 0.00D+00
 Coeff-Com:  0.851D-06-0.279D-04 0.800D-04 0.266D-03 0.117D-02 0.260D-02
 Coeff-Com:  0.423D-02-0.648D-02-0.167D-01-0.547D-01-0.557D-02 0.380D+00
 Coeff-Com:  0.695D+00
 Coeff:      0.851D-06-0.279D-04 0.800D-04 0.266D-03 0.117D-02 0.260D-02
 Coeff:      0.423D-02-0.648D-02-0.167D-01-0.547D-01-0.557D-02 0.380D+00
 Coeff:      0.695D+00
 Gap=     0.125 Goal=   None    Shift=    0.000
 Gap=     0.136 Goal=   None    Shift=    0.000
 RMSDP=1.42D-06 MaxDP=2.01D-04 DE=-7.14D-09 OVMax= 4.10D-05

 Cycle  14  Pass 1  IDiag  1:
 RMSU=  9.17D-07    CP:  1.36D+00  3.48D-01  9.04D-01  6.60D-01  7.99D-01
                    CP:  7.43D-01  1.00D+00  9.27D-01  9.59D-01  1.02D+00
                    CP:  7.88D-01  1.06D+00  1.06D+00
 E= -1240.13767617317     Delta-E=       -0.000000003208 Rises=F Damp=F
 DIIS: error= 1.40D-06 at cycle  14 NSaved=  14.
 NSaved=14 IEnMin=14 EnMin= -1240.13767617317     IErMin=14 ErrMin= 1.40D-06
 ErrMax= 1.40D-06  0.00D+00 EMaxC= 1.00D-01 BMatC= 1.27D-09 BMatP= 7.67D-09
 IDIUse=1 WtCom= 1.00D+00 WtEn= 0.00D+00
 Coeff-Com:  0.365D-05-0.194D-04-0.187D-04-0.155D-04 0.460D-03 0.133D-02
 Coeff-Com:  0.346D-02 0.237D-02-0.395D-02-0.543D-01-0.438D-01 0.244D-01
 Coeff-Com:  0.291D+00 0.779D+00
 Coeff:      0.365D-05-0.194D-04-0.187D-04-0.155D-04 0.460D-03 0.133D-02
 Coeff:      0.346D-02 0.237D-02-0.395D-02-0.543D-01-0.438D-01 0.244D-01
 Coeff:      0.291D+00 0.779D+00
 Gap=     0.125 Goal=   None    Shift=    0.000
 Gap=     0.136 Goal=   None    Shift=    0.000
 RMSDP=9.95D-07 MaxDP=1.48D-04 DE=-3.21D-09 OVMax= 2.03D-05

 Cycle  15  Pass 1  IDiag  1:
 RMSU=  3.32D-07    CP:  1.36D+00  3.48D-01  9.04D-01  6.60D-01  7.99D-01
                    CP:  7.42D-01  1.00D+00  9.24D-01  9.59D-01  1.01D+00
                    CP:  8.18D-01  1.07D+00  1.20D+00  9.41D-01
 E= -1240.13767617382     Delta-E=       -0.000000000651 Rises=F Damp=F
 DIIS: error= 6.68D-07 at cycle  15 NSaved=  15.
 NSaved=15 IEnMin=15 EnMin= -1240.13767617382     IErMin=15 ErrMin= 6.68D-07
 ErrMax= 6.68D-07  0.00D+00 EMaxC= 1.00D-01 BMatC= 4.95D-10 BMatP= 1.27D-09
 IDIUse=1 WtCom= 1.00D+00 WtEn= 0.00D+00
 Coeff-Com:  0.188D-05-0.262D-05-0.364D-04-0.952D-04-0.623D-04 0.966D-05
 Coeff-Com:  0.935D-03 0.338D-02 0.312D-02-0.192D-01-0.240D-01-0.107D+00
 Coeff-Com: -0.290D-01 0.482D+00 0.690D+00
 Coeff:      0.188D-05-0.262D-05-0.364D-04-0.952D-04-0.623D-04 0.966D-05
 Coeff:      0.935D-03 0.338D-02 0.312D-02-0.192D-01-0.240D-01-0.107D+00
 Coeff:     -0.290D-01 0.482D+00 0.690D+00
 Gap=     0.125 Goal=   None    Shift=    0.000
 Gap=     0.136 Goal=   None    Shift=    0.000
 RMSDP=4.15D-07 MaxDP=3.70D-05 DE=-6.51D-10 OVMax= 1.38D-05

 Cycle  16  Pass 1  IDiag  1:
 RMSU=  2.48D-07    CP:  1.36D+00  3.48D-01  9.04D-01  6.60D-01  7.99D-01
                    CP:  7.42D-01  1.00D+00  9.25D-01  9.58D-01  1.01D+00
                    CP:  8.24D-01  1.08D+00  1.31D+00  1.04D+00  1.17D+00
 E= -1240.13767617402     Delta-E=       -0.000000000203 Rises=F Damp=F
 DIIS: error= 3.01D-07 at cycle  16 NSaved=  16.
 NSaved=16 IEnMin=16 EnMin= -1240.13767617402     IErMin=16 ErrMin= 3.01D-07
 ErrMax= 3.01D-07  0.00D+00 EMaxC= 1.00D-01 BMatC= 6.61D-11 BMatP= 4.95D-10
 IDIUse=1 WtCom= 1.00D+00 WtEn= 0.00D+00
 Coeff-Com: -0.252D-06 0.258D-05-0.134D-04-0.409D-04-0.117D-03-0.264D-03
 Coeff-Com: -0.188D-03 0.891D-03 0.207D-02 0.177D-02-0.491D-04-0.493D-01
 Coeff-Com: -0.650D-01 0.415D-01 0.272D+00 0.797D+00
 Coeff:     -0.252D-06 0.258D-05-0.134D-04-0.409D-04-0.117D-03-0.264D-03
 Coeff:     -0.188D-03 0.891D-03 0.207D-02 0.177D-02-0.491D-04-0.493D-01
 Coeff:     -0.650D-01 0.415D-01 0.272D+00 0.797D+00
 Gap=     0.125 Goal=   None    Shift=    0.000
 Gap=     0.136 Goal=   None    Shift=    0.000
 RMSDP=3.51D-07 MaxDP=3.42D-05 DE=-2.03D-10 OVMax= 5.87D-06

 Cycle  17  Pass 1  IDiag  1:
 RMSU=  1.15D-07    CP:  1.36D+00  3.48D-01  9.04D-01  6.60D-01  7.99D-01
                    CP:  7.42D-01  1.00D+00  9.24D-01  9.61D-01  1.01D+00
                    CP:  8.24D-01  1.09D+00  1.30D+00  1.13D+00  1.31D+00
                    CP:  5.05D-01
 E= -1240.13767617410     Delta-E=       -0.000000000081 Rises=F Damp=F
 DIIS: error= 1.28D-07 at cycle  17 NSaved=  17.
 NSaved=17 IEnMin=17 EnMin= -1240.13767617410     IErMin=17 ErrMin= 1.28D-07
 ErrMax= 1.28D-07  0.00D+00 EMaxC= 1.00D-01 BMatC= 2.84D-11 BMatP= 6.61D-11
 IDIUse=1 WtCom= 1.00D+00 WtEn= 0.00D+00
 Coeff-Com: -0.732D-06 0.231D-05 0.148D-05-0.896D-07-0.549D-04-0.169D-03
 Coeff-Com: -0.334D-03-0.360D-03 0.523D-03 0.606D-02 0.670D-02-0.503D-02
 Coeff-Com: -0.340D-01-0.991D-01-0.776D-02 0.500D+00 0.633D+00
 Coeff:     -0.732D-06 0.231D-05 0.148D-05-0.896D-07-0.549D-04-0.169D-03
 Coeff:     -0.334D-03-0.360D-03 0.523D-03 0.606D-02 0.670D-02-0.503D-02
 Coeff:     -0.340D-01-0.991D-01-0.776D-02 0.500D+00 0.633D+00
 Gap=     0.125 Goal=   None    Shift=    0.000
 Gap=     0.136 Goal=   None    Shift=    0.000
 RMSDP=2.57D-07 MaxDP=3.10D-05 DE=-8.07D-11 OVMax= 2.89D-06

 Cycle  18  Pass 1  IDiag  1:
 RMSU=  8.77D-08    CP:  1.36D+00  3.48D-01  9.04D-01  6.60D-01  7.99D-01
                    CP:  7.42D-01  1.00D+00  9.24D-01  9.60D-01  1.01D+00
                    CP:  8.22D-01  1.08D+00  1.35D+00  1.15D+00  1.35D+00
                    CP:  9.00D-01  6.77D-01
 E= -1240.13767617411     Delta-E=       -0.000000000006 Rises=F Damp=F
 DIIS: error= 5.11D-08 at cycle  18 NSaved=  18.
 NSaved=18 IEnMin=18 EnMin= -1240.13767617411     IErMin=18 ErrMin= 5.11D-08
 ErrMax= 5.11D-08  0.00D+00 EMaxC= 1.00D-01 BMatC= 4.07D-12 BMatP= 2.84D-11
 IDIUse=1 WtCom= 1.00D+00 WtEn= 0.00D+00
 Coeff-Com: -0.237D-06 0.562D-06 0.311D-05 0.700D-05-0.469D-05-0.358D-04
 Coeff-Com: -0.114D-03-0.365D-03-0.120D-03 0.244D-02 0.323D-02 0.736D-02
 Coeff-Com: -0.226D-02-0.544D-01-0.592D-01 0.587D-01 0.297D+00 0.748D+00
 Coeff:     -0.237D-06 0.562D-06 0.311D-05 0.700D-05-0.469D-05-0.358D-04
 Coeff:     -0.114D-03-0.365D-03-0.120D-03 0.244D-02 0.323D-02 0.736D-02
 Coeff:     -0.226D-02-0.544D-01-0.592D-01 0.587D-01 0.297D+00 0.748D+00
 Gap=     0.125 Goal=   None    Shift=    0.000
 Gap=     0.136 Goal=   None    Shift=    0.000
 RMSDP=1.28D-07 MaxDP=1.17D-05 DE=-6.14D-12 OVMax= 1.34D-06

 Cycle  19  Pass 1  IDiag  1:
 RMSU=  2.42D-08    CP:  1.36D+00  3.48D-01  9.04D-01  6.60D-01  7.99D-01
                    CP:  7.42D-01  1.00D+00  9.24D-01  9.60D-01  1.01D+00
                    CP:  8.26D-01  1.08D+00  1.33D+00  1.14D+00  1.39D+00
                    CP:  7.86D-01  9.45D-01  4.39D-01
 E= -1240.13767617410     Delta-E=        0.000000000003 Rises=F Damp=F
 DIIS: error= 3.12D-08 at cycle  19 NSaved=  19.
 NSaved=19 IEnMin=18 EnMin= -1240.13767617411     IErMin=19 ErrMin= 3.12D-08
 ErrMax= 3.12D-08  0.00D+00 EMaxC= 1.00D-01 BMatC= 1.91D-12 BMatP= 4.07D-12
 IDIUse=1 WtCom= 1.00D+00 WtEn= 0.00D+00
 Coeff-Com:  0.274D-07-0.149D-06 0.187D-05 0.481D-05 0.970D-05 0.109D-04
 Coeff-Com: -0.139D-05-0.175D-03-0.190D-03 0.318D-03 0.672D-03 0.613D-02
 Coeff-Com:  0.596D-02-0.156D-01-0.380D-01-0.717D-01 0.633D-01 0.509D+00
 Coeff-Com:  0.540D+00
 Coeff:      0.274D-07-0.149D-06 0.187D-05 0.481D-05 0.970D-05 0.109D-04
 Coeff:     -0.139D-05-0.175D-03-0.190D-03 0.318D-03 0.672D-03 0.613D-02
 Coeff:      0.596D-02-0.156D-01-0.380D-01-0.717D-01 0.633D-01 0.509D+00
 Coeff:      0.540D+00
 Gap=     0.125 Goal=   None    Shift=    0.000
 Gap=     0.136 Goal=   None    Shift=    0.000
 RMSDP=8.23D-08 MaxDP=7.37D-06 DE= 3.41D-12 OVMax= 6.28D-07

 Cycle  20  Pass 1  IDiag  1:
 RMSU=  1.13D-08    CP:  1.36D+00  3.48D-01  9.04D-01  6.60D-01  7.99D-01
                    CP:  7.42D-01  1.00D+00  9.24D-01  9.60D-01  1.01D+00
                    CP:  8.24D-01  1.08D+00  1.34D+00  1.15D+00  1.40D+00
                    CP:  8.71D-01  8.47D-01  8.64D-01  7.30D-01
 E= -1240.13767617409     Delta-E=        0.000000000014 Rises=F Damp=F
 DIIS: error= 1.45D-08 at cycle  20 NSaved=  20.
 NSaved=20 IEnMin=18 EnMin= -1240.13767617411     IErMin=20 ErrMin= 1.45D-08
 ErrMax= 1.45D-08  0.00D+00 EMaxC= 1.00D-01 BMatC= 2.52D-13 BMatP= 1.91D-12
 IDIUse=1 WtCom= 1.00D+00 WtEn= 0.00D+00
 Coeff-Com:  0.937D-07-0.257D-06 0.140D-06 0.507D-06 0.758D-05 0.149D-04
 Coeff-Com:  0.350D-04 0.181D-04-0.549D-04-0.574D-03-0.679D-03 0.736D-03
 Coeff-Com:  0.355D-02 0.845D-02 0.107D-02-0.495D-01-0.574D-01 0.282D-01
 Coeff-Com:  0.240D+00 0.826D+00
 Coeff:      0.937D-07-0.257D-06 0.140D-06 0.507D-06 0.758D-05 0.149D-04
 Coeff:      0.350D-04 0.181D-04-0.549D-04-0.574D-03-0.679D-03 0.736D-03
 Coeff:      0.355D-02 0.845D-02 0.107D-02-0.495D-01-0.574D-01 0.282D-01
 Coeff:      0.240D+00 0.826D+00
 Gap=     0.125 Goal=   None    Shift=    0.000
 Gap=     0.136 Goal=   None    Shift=    0.000
 RMSDP=2.36D-08 MaxDP=1.87D-06 DE= 1.41D-11 OVMax= 5.42D-07

 Cycle  21  Pass 1  IDiag  1:
 Restarting incremental Fock formation.
 E= -1240.13767617411     Delta-E=       -0.000000000025 Rises=F Damp=F
 DIIS: error= 8.42D-09 at cycle  21 NSaved=  20.
 NSaved=20 IEnMin=20 EnMin= -1240.13767617411     IErMin=20 ErrMin= 8.42D-09
 ErrMax= 8.42D-09  0.00D+00 EMaxC= 1.00D-01 BMatC= 8.40D-14 BMatP= 2.52D-13
 IDIUse=1 WtCom= 1.00D+00 WtEn= 0.00D+00
 Coeff-Com: -0.862D-07-0.201D-06-0.458D-06 0.156D-05 0.226D-05 0.103D-04
 Coeff-Com:  0.290D-04 0.126D-04-0.203D-03-0.322D-03-0.871D-03 0.156D-03
 Coeff-Com:  0.551D-02 0.849D-02-0.552D-02-0.423D-01-0.105D+00-0.164D-01
 Coeff-Com:  0.438D+00 0.719D+00
 Coeff:     -0.862D-07-0.201D-06-0.458D-06 0.156D-05 0.226D-05 0.103D-04
 Coeff:      0.290D-04 0.126D-04-0.203D-03-0.322D-03-0.871D-03 0.156D-03
 Coeff:      0.551D-02 0.849D-02-0.552D-02-0.423D-01-0.105D+00-0.164D-01
 Coeff:      0.438D+00 0.719D+00
 Gap=     0.125 Goal=   None    Shift=    0.000
 Gap=     0.136 Goal=   None    Shift=    0.000
 RMSDP=3.30D-08 MaxDP=6.55D-06 DE=-2.52D-11 OVMax= 2.84D-07

 Cycle  22  Pass 1  IDiag  1:
 RMSU=  2.71D-08    CP:  1.00D+00
 E= -1240.13767617411     Delta-E=        0.000000000005 Rises=F Damp=F
 DIIS: error= 4.18D-09 at cycle  22 NSaved=  20.
 NSaved=20 IEnMin=19 EnMin= -1240.13767617411     IErMin=20 ErrMin= 4.18D-09
 ErrMax= 4.18D-09  0.00D+00 EMaxC= 1.00D-01 BMatC= 1.97D-14 BMatP= 8.40D-14
 IDIUse=1 WtCom= 1.00D+00 WtEn= 0.00D+00
 Coeff-Com: -0.339D-06-0.792D-06-0.777D-06-0.225D-06 0.763D-05 0.279D-04
 Coeff-Com:  0.163D-04-0.112D-03-0.150D-03-0.750D-03-0.225D-03 0.225D-02
 Coeff-Com:  0.506D-02 0.553D-02-0.119D-01-0.556D-01-0.692D-01-0.250D-01
 Coeff-Com:  0.339D+00 0.811D+00
 Coeff:     -0.339D-06-0.792D-06-0.777D-06-0.225D-06 0.763D-05 0.279D-04
 Coeff:      0.163D-04-0.112D-03-0.150D-03-0.750D-03-0.225D-03 0.225D-02
 Coeff:      0.506D-02 0.553D-02-0.119D-01-0.556D-01-0.692D-01-0.250D-01
 Coeff:      0.339D+00 0.811D+00
 Gap=     0.125 Goal=   None    Shift=    0.000
 Gap=     0.136 Goal=   None    Shift=    0.000
 RMSDP=1.85D-08 MaxDP=3.76D-06 DE= 5.23D-12 OVMax= 1.75D-07

 Cycle  23  Pass 1  IDiag  1:
 RMSU=  7.87D-09    CP:  1.00D+00  1.59D+00
 E= -1240.13767617414     Delta-E=       -0.000000000027 Rises=F Damp=F
 DIIS: error= 1.31D-09 at cycle  23 NSaved=  20.
 NSaved=20 IEnMin=20 EnMin= -1240.13767617414     IErMin=20 ErrMin= 1.31D-09
 ErrMax= 1.31D-09  0.00D+00 EMaxC= 1.00D-01 BMatC= 2.11D-15 BMatP= 1.97D-14
 IDIUse=1 WtCom= 1.00D+00 WtEn= 0.00D+00
 Large coefficients: NSaved= 20 BigCof=    0.00 CofMax=   10.00 Det=-9.81D-15
 Inversion failed.  Reducing to 19 matrices.
 Large coefficients: NSaved= 19 BigCof=    0.00 CofMax=   10.00 Det=-9.87D-15
 Inversion failed.  Reducing to 18 matrices.
 Coeff-Com:  0.255D-06 0.174D-05 0.176D-05-0.166D-05-0.106D-04-0.981D-06
 Coeff-Com: -0.216D-04 0.102D-03-0.168D-03 0.602D-05 0.765D-03 0.168D-02
 Coeff-Com:  0.473D-02-0.101D-01-0.644D-01-0.259D-01 0.168D+00 0.926D+00
 Coeff:      0.255D-06 0.174D-05 0.176D-05-0.166D-05-0.106D-04-0.981D-06
 Coeff:     -0.216D-04 0.102D-03-0.168D-03 0.602D-05 0.765D-03 0.168D-02
 Coeff:      0.473D-02-0.101D-01-0.644D-01-0.259D-01 0.168D+00 0.926D+00
 Gap=     0.125 Goal=   None    Shift=    0.000
 Gap=     0.136 Goal=   None    Shift=    0.000
 RMSDP=3.95D-09 MaxDP=8.87D-07 DE=-2.71D-11 OVMax= 5.62D-08

 Error on total polarization charges =  0.02065
 SCF Done:  E(UB3LYP) =  -1240.13767617     A.U. after   23 cycles
            NFock= 23  Conv=0.40D-08     -V/T= 2.0032
 <Sx>= 0.0000 <Sy>= 0.0000 <Sz>= 0.5000 <S**2>= 0.7600 S= 0.5050
 <L.S>=  0.00000000000    
 KE= 1.236164969991D+03 PE=-6.054183674510D+03 EE= 2.016800803600D+03
 Annihilation of the first spin contaminant:
 S**2 before annihilation     0.7600,   after     0.7500
 Leave Link  502 at Wed Jan 24 22:57:46 2024, MaxMem=  4026531840 cpu:            4695.7 elap:             590.5
 (Enter /sysapps/ubuntu-applications/gaussian/Gaussian/AVX2/g16/l601.exe)
 Copying SCF densities to generalized density rwf, IOpCl= 1 IROHF=0.

 **********************************************************************

            Population analysis using the SCF density.

 **********************************************************************

 Orbital symmetries:
 Alpha Orbitals:
       Occupied  (A) (A) (A) (A) (A) (A) (A) (A) (A) (A) (A) (A)
                 (A) (A) (A) (A) (A) (A) (A) (A) (A) (A) (A) (A)
                 (A) (A) (A) (A) (A) (A) (A) (A) (A) (A) (A) (A)
                 (A) (A) (A) (A) (A) (A) (A) (A) (A) (A) (A) (A)
                 (A) (A) (A) (A) (A) (A) (A) (A) (A) (A) (A) (A)
                 (A) (A) (A) (A) (A) (A) (A) (A) (A) (A) (A) (A)
                 (A)
       Virtual   (A) (A) (A) (A) (A) (A) (A) (A) (A) (A) (A) (A)
                 (A) (A) (A) (A) (A) (A) (A) (A) (A) (A) (A) (A)
                 (A) (A) (A) (A) (A) (A) (A) (A) (A) (A) (A) (A)
                 (A) (A) (A) (A) (A) (A) (A) (A) (A) (A) (A) (A)
                 (A) (A) (A) (A) (A) (A) (A) (A) (A) (A) (A) (A)
                 (A) (A) (A) (A) (A) (A) (A) (A) (A) (A) (A) (A)
                 (A) (A) (A) (A) (A) (A) (A) (A) (A) (A) (A) (A)
                 (A) (A) (A) (A) (A) (A) (A) (A) (A) (A) (A) (A)
                 (A) (A) (A) (A) (A) (A) (A) (A) (A) (A) (A) (A)
                 (A) (A) (A) (A) (A) (A) (A) (A) (A) (A) (A) (A)
                 (A) (A) (A) (A) (A) (A) (A) (A) (A) (A) (A) (A)
                 (A) (A) (A) (A) (A) (A) (A) (A) (A) (A) (A) (A)
                 (A) (A) (A) (A) (A) (A) (A) (A) (A) (A) (A) (A)
                 (A) (A) (A) (A) (A) (A) (A) (A) (A) (A) (A) (A)
                 (A) (A) (A) (A) (A) (A) (A) (A) (A) (A) (A) (A)
                 (A) (A) (A) (A) (A) (A) (A) (A) (A) (A) (A) (A)
                 (A) (A) (A) (A) (A) (A) (A) (A) (A) (A) (A) (A)
                 (A) (A) (A) (A) (A) (A) (A) (A) (A) (A) (A) (A)
                 (A) (A) (A) (A) (A) (A) (A) (A) (A) (A) (A) (A)
                 (A) (A) (A) (A) (A) (A) (A) (A) (A) (A) (A) (A)
                 (A) (A) (A) (A) (A) (A) (A) (A) (A) (A) (A) (A)
                 (A) (A) (A) (A) (A) (A) (A) (A) (A) (A) (A) (A)
                 (A) (A) (A) (A) (A) (A) (A) (A) (A) (A) (A) (A)
                 (A) (A) (A) (A) (A) (A) (A) (A) (A) (A) (A) (A)
                 (A) (A) (A) (A) (A) (A) (A) (A) (A) (A) (A) (A)
                 (A) (A) (A) (A) (A) (A) (A) (A) (A) (A) (A) (A)
                 (A) (A) (A) (A) (A) (A) (A) (A) (A) (A) (A) (A)
                 (A) (A) (A) (A) (A) (A) (A) (A) (A) (A) (A) (A)
                 (A) (A) (A) (A) (A) (A) (A) (A) (A) (A) (A) (A)
                 (A) (A) (A) (A) (A) (A) (A) (A) (A) (A) (A) (A)
                 (A) (A) (A) (A) (A) (A) (A) (A) (A) (A) (A) (A)
                 (A) (A) (A) (A) (A) (A) (A) (A) (A) (A) (A) (A)
                 (A) (A) (A) (A) (A) (A) (A) (A) (A) (A) (A) (A)
                 (A) (A) (A) (A) (A) (A) (A) (A) (A) (A) (A) (A)
                 (A) (A) (A) (A) (A) (A) (A) (A) (A) (A) (A) (A)
                 (A) (A) (A) (A) (A) (A) (A) (A) (A) (A) (A) (A)
                 (A) (A)
 Beta  Orbitals:
       Occupied  (A) (A) (A) (A) (A) (A) (A) (A) (A) (A) (A) (A)
                 (A) (A) (A) (A) (A) (A) (A) (A) (A) (A) (A) (A)
                 (A) (A) (A) (A) (A) (A) (A) (A) (A) (A) (A) (A)
                 (A) (A) (A) (A) (A) (A) (A) (A) (A) (A) (A) (A)
                 (A) (A) (A) (A) (A) (A) (A) (A) (A) (A) (A) (A)
                 (A) (A) (A) (A) (A) (A) (A) (A) (A) (A) (A) (A)
       Virtual   (A) (A) (A) (A) (A) (A) (A) (A) (A) (A) (A) (A)
                 (A) (A) (A) (A) (A) (A) (A) (A) (A) (A) (A) (A)
                 (A) (A) (A) (A) (A) (A) (A) (A) (A) (A) (A) (A)
                 (A) (A) (A) (A) (A) (A) (A) (A) (A) (A) (A) (A)
                 (A) (A) (A) (A) (A) (A) (A) (A) (A) (A) (A) (A)
                 (A) (A) (A) (A) (A) (A) (A) (A) (A) (A) (A) (A)
                 (A) (A) (A) (A) (A) (A) (A) (A) (A) (A) (A) (A)
                 (A) (A) (A) (A) (A) (A) (A) (A) (A) (A) (A) (A)
                 (A) (A) (A) (A) (A) (A) (A) (A) (A) (A) (A) (A)
                 (A) (A) (A) (A) (A) (A) (A) (A) (A) (A) (A) (A)
                 (A) (A) (A) (A) (A) (A) (A) (A) (A) (A) (A) (A)
                 (A) (A) (A) (A) (A) (A) (A) (A) (A) (A) (A) (A)
                 (A) (A) (A) (A) (A) (A) (A) (A) (A) (A) (A) (A)
                 (A) (A) (A) (A) (A) (A) (A) (A) (A) (A) (A) (A)
                 (A) (A) (A) (A) (A) (A) (A) (A) (A) (A) (A) (A)
                 (A) (A) (A) (A) (A) (A) (A) (A) (A) (A) (A) (A)
                 (A) (A) (A) (A) (A) (A) (A) (A) (A) (A) (A) (A)
                 (A) (A) (A) (A) (A) (A) (A) (A) (A) (A) (A) (A)
                 (A) (A) (A) (A) (A) (A) (A) (A) (A) (A) (A) (A)
                 (A) (A) (A) (A) (A) (A) (A) (A) (A) (A) (A) (A)
                 (A) (A) (A) (A) (A) (A) (A) (A) (A) (A) (A) (A)
                 (A) (A) (A) (A) (A) (A) (A) (A) (A) (A) (A) (A)
                 (A) (A) (A) (A) (A) (A) (A) (A) (A) (A) (A) (A)
                 (A) (A) (A) (A) (A) (A) (A) (A) (A) (A) (A) (A)
                 (A) (A) (A) (A) (A) (A) (A) (A) (A) (A) (A) (A)
                 (A) (A) (A) (A) (A) (A) (A) (A) (A) (A) (A) (A)
                 (A) (A) (A) (A) (A) (A) (A) (A) (A) (A) (A) (A)
                 (A) (A) (A) (A) (A) (A) (A) (A) (A) (A) (A) (A)
                 (A) (A) (A) (A) (A) (A) (A) (A) (A) (A) (A) (A)
                 (A) (A) (A) (A) (A) (A) (A) (A) (A) (A) (A) (A)
                 (A) (A) (A) (A) (A) (A) (A) (A) (A) (A) (A) (A)
                 (A) (A) (A) (A) (A) (A) (A) (A) (A) (A) (A) (A)
                 (A) (A) (A) (A) (A) (A) (A) (A) (A) (A) (A) (A)
                 (A) (A) (A) (A) (A) (A) (A) (A) (A) (A) (A) (A)
                 (A) (A) (A) (A) (A) (A) (A) (A) (A) (A) (A) (A)
                 (A) (A) (A) (A) (A) (A) (A) (A) (A) (A) (A) (A)
                 (A) (A) (A)
 The electronic state is 2-A.
 Alpha  occ. eigenvalues --  -89.05121 -19.11883 -19.11689 -19.08619 -19.08617
 Alpha  occ. eigenvalues --  -10.23816 -10.22828 -10.21189 -10.20039 -10.19384
 Alpha  occ. eigenvalues --  -10.19066 -10.18945 -10.18787 -10.18698 -10.18182
 Alpha  occ. eigenvalues --  -10.17838 -10.17774 -10.15724 -10.15717  -8.11503
 Alpha  occ. eigenvalues --   -6.07796  -6.07676  -6.07589  -1.11032  -1.01463
 Alpha  occ. eigenvalues --   -1.00818  -1.00570  -0.87668  -0.84368  -0.79853
 Alpha  occ. eigenvalues --   -0.77592  -0.76352  -0.72996  -0.70829  -0.67465
 Alpha  occ. eigenvalues --   -0.65444  -0.62299  -0.60706  -0.57231  -0.56473
 Alpha  occ. eigenvalues --   -0.53691  -0.50597  -0.49839  -0.48380  -0.47554
 Alpha  occ. eigenvalues --   -0.45878  -0.45343  -0.45075  -0.44033  -0.43761
 Alpha  occ. eigenvalues --   -0.42459  -0.41250  -0.40241  -0.39860  -0.39852
 Alpha  occ. eigenvalues --   -0.38873  -0.38695  -0.38052  -0.37482  -0.36297
 Alpha  occ. eigenvalues --   -0.36014  -0.35391  -0.34197  -0.32873  -0.31388
 Alpha  occ. eigenvalues --   -0.30283  -0.29608  -0.27620  -0.27115  -0.25439
 Alpha  occ. eigenvalues --   -0.25096  -0.24318  -0.17330
 Alpha virt. eigenvalues --   -0.04843  -0.02574  -0.01980  -0.00582   0.00079
 Alpha virt. eigenvalues --    0.01012   0.01326   0.01867   0.02260   0.02981
 Alpha virt. eigenvalues --    0.03275   0.03575   0.03824   0.04326   0.04661
 Alpha virt. eigenvalues --    0.05668   0.05875   0.06242   0.06490   0.06858
 Alpha virt. eigenvalues --    0.07093   0.07560   0.08254   0.08427   0.08776
 Alpha virt. eigenvalues --    0.08924   0.09427   0.09693   0.10246   0.10724
 Alpha virt. eigenvalues --    0.10986   0.11284   0.11667   0.11906   0.12073
 Alpha virt. eigenvalues --    0.12322   0.12591   0.12752   0.12906   0.13575
 Alpha virt. eigenvalues --    0.14124   0.14228   0.14392   0.14667   0.14743
 Alpha virt. eigenvalues --    0.14993   0.15641   0.15830   0.16031   0.16304
 Alpha virt. eigenvalues --    0.16746   0.16977   0.17261   0.17475   0.17936
 Alpha virt. eigenvalues --    0.18562   0.18658   0.18892   0.19351   0.19567
 Alpha virt. eigenvalues --    0.19838   0.20211   0.20955   0.21255   0.21578
 Alpha virt. eigenvalues --    0.21785   0.21969   0.22829   0.22911   0.23003
 Alpha virt. eigenvalues --    0.23446   0.23929   0.24299   0.25009   0.25290
 Alpha virt. eigenvalues --    0.25699   0.26029   0.26411   0.26618   0.27028
 Alpha virt. eigenvalues --    0.27504   0.27840   0.28232   0.28618   0.29136
 Alpha virt. eigenvalues --    0.29493   0.29740   0.30001   0.30518   0.30930
 Alpha virt. eigenvalues --    0.31224   0.31774   0.32196   0.32927   0.33240
 Alpha virt. eigenvalues --    0.33636   0.34217   0.34679   0.35000   0.35133
 Alpha virt. eigenvalues --    0.35575   0.35930   0.36557   0.36980   0.37357
 Alpha virt. eigenvalues --    0.38272   0.38795   0.39245   0.39537   0.40094
 Alpha virt. eigenvalues --    0.40935   0.41511   0.42236   0.43121   0.43952
 Alpha virt. eigenvalues --    0.44679   0.45178   0.46550   0.46739   0.48225
 Alpha virt. eigenvalues --    0.48601   0.48983   0.49498   0.50195   0.50463
 Alpha virt. eigenvalues --    0.51427   0.53209   0.54046   0.55057   0.55168
 Alpha virt. eigenvalues --    0.55547   0.56798   0.57533   0.57700   0.57852
 Alpha virt. eigenvalues --    0.58158   0.58783   0.59881   0.60243   0.60778
 Alpha virt. eigenvalues --    0.62146   0.62486   0.63398   0.63862   0.65081
 Alpha virt. eigenvalues --    0.65766   0.66362   0.67421   0.68322   0.68441
 Alpha virt. eigenvalues --    0.69221   0.69785   0.70472   0.70797   0.71712
 Alpha virt. eigenvalues --    0.71758   0.72533   0.73810   0.73917   0.74332
 Alpha virt. eigenvalues --    0.75229   0.75772   0.76388   0.76871   0.77151
 Alpha virt. eigenvalues --    0.79421   0.80526   0.81772   0.82091   0.84007
 Alpha virt. eigenvalues --    0.85049   0.85688   0.86568   0.86948   0.87806
 Alpha virt. eigenvalues --    0.88214   0.88712   0.89814   0.90365   0.91484
 Alpha virt. eigenvalues --    0.92685   0.93118   0.94198   0.95433   0.96394
 Alpha virt. eigenvalues --    0.96942   0.98966   0.99946   1.00721   1.01820
 Alpha virt. eigenvalues --    1.02183   1.02316   1.03092   1.04473   1.04732
 Alpha virt. eigenvalues --    1.05434   1.06081   1.07225   1.08551   1.09267
 Alpha virt. eigenvalues --    1.10943   1.12263   1.13418   1.15140   1.16163
 Alpha virt. eigenvalues --    1.17008   1.18173   1.19395   1.21026   1.21179
 Alpha virt. eigenvalues --    1.22205   1.23602   1.24349   1.24910   1.25821
 Alpha virt. eigenvalues --    1.26670   1.27143   1.29588   1.29770   1.31022
 Alpha virt. eigenvalues --    1.32375   1.33440   1.35657   1.36247   1.37135
 Alpha virt. eigenvalues --    1.38607   1.39583   1.43163   1.46713   1.47902
 Alpha virt. eigenvalues --    1.48377   1.49983   1.51576   1.52251   1.52444
 Alpha virt. eigenvalues --    1.54752   1.55816   1.56278   1.56564   1.57658
 Alpha virt. eigenvalues --    1.58455   1.58723   1.59906   1.61503   1.61960
 Alpha virt. eigenvalues --    1.63748   1.64233   1.65041   1.65763   1.66325
 Alpha virt. eigenvalues --    1.69011   1.70318   1.70803   1.72128   1.73363
 Alpha virt. eigenvalues --    1.73978   1.74724   1.76388   1.77574   1.79042
 Alpha virt. eigenvalues --    1.79207   1.82130   1.82741   1.83189   1.84649
 Alpha virt. eigenvalues --    1.86005   1.86550   1.86765   1.87675   1.89078
 Alpha virt. eigenvalues --    1.89978   1.91392   1.91789   1.92626   1.93393
 Alpha virt. eigenvalues --    1.94819   1.95680   1.96244   1.97891   1.99678
 Alpha virt. eigenvalues --    2.00874   2.02272   2.02990   2.04170   2.05748
 Alpha virt. eigenvalues --    2.07421   2.09160   2.10385   2.12318   2.12726
 Alpha virt. eigenvalues --    2.13606   2.18174   2.18472   2.21597   2.22883
 Alpha virt. eigenvalues --    2.23790   2.25845   2.29369   2.31090   2.32848
 Alpha virt. eigenvalues --    2.33713   2.36207   2.37268   2.40087   2.42725
 Alpha virt. eigenvalues --    2.45569   2.46549   2.47622   2.49574   2.50462
 Alpha virt. eigenvalues --    2.52148   2.53034   2.54663   2.58890   2.59456
 Alpha virt. eigenvalues --    2.62212   2.63084   2.65018   2.65531   2.65958
 Alpha virt. eigenvalues --    2.66512   2.66721   2.68450   2.70099   2.70724
 Alpha virt. eigenvalues --    2.72469   2.73314   2.74253   2.75157   2.75977
 Alpha virt. eigenvalues --    2.76592   2.78397   2.79911   2.80913   2.81483
 Alpha virt. eigenvalues --    2.82557   2.83144   2.84400   2.85444   2.86601
 Alpha virt. eigenvalues --    2.87788   2.88320   2.88686   2.90549   2.91538
 Alpha virt. eigenvalues --    2.92630   2.93476   2.94355   2.95866   2.96679
 Alpha virt. eigenvalues --    2.96868   2.97375   2.99338   3.01127   3.04645
 Alpha virt. eigenvalues --    3.07537   3.09495   3.10668   3.11669   3.16481
 Alpha virt. eigenvalues --    3.18166   3.19296   3.19794   3.23243   3.25906
 Alpha virt. eigenvalues --    3.28465   3.32276   3.34286   3.35071   3.36178
 Alpha virt. eigenvalues --    3.37593   3.40757   3.47381   3.50098   3.51032
 Alpha virt. eigenvalues --    3.52284   3.53265   3.57429   3.60379   3.61051
 Alpha virt. eigenvalues --    3.64107   3.74332   3.75409   3.79055   3.80045
 Alpha virt. eigenvalues --    3.82868   3.88647   3.91505   3.93950   4.00000
 Alpha virt. eigenvalues --    4.04035   4.14659   4.16037   4.16846   4.24995
 Alpha virt. eigenvalues --    4.29226   4.37527   4.80584   4.83671   5.07222
 Alpha virt. eigenvalues --    5.08962   5.10473   5.12087   5.12579   5.14965
 Alpha virt. eigenvalues --    5.17878   5.25356   5.31530   5.35500   5.74085
 Alpha virt. eigenvalues --    5.83050   8.22287  17.42536  17.47142  17.59735
 Alpha virt. eigenvalues --   23.57290  23.61428  23.81048  23.90872  23.93994
 Alpha virt. eigenvalues --   23.94922  23.96940  23.97322  23.99406  24.06759
 Alpha virt. eigenvalues --   24.08856  24.11337  24.14630  24.18347  49.91106
 Alpha virt. eigenvalues --   49.94960  50.03112  50.07605 189.34581
  Beta  occ. eigenvalues --  -89.05123 -19.11873 -19.11694 -19.08009 -19.07860
  Beta  occ. eigenvalues --  -10.23706 -10.22715 -10.21189 -10.19926 -10.19379
  Beta  occ. eigenvalues --  -10.19062 -10.18941 -10.18789 -10.18700 -10.17908
  Beta  occ. eigenvalues --  -10.17789 -10.17719 -10.15730 -10.15721  -8.11505
  Beta  occ. eigenvalues --   -6.07797  -6.07677  -6.07593  -1.11015  -1.00706
  Beta  occ. eigenvalues --   -1.00284  -0.99473  -0.87660  -0.83801  -0.79663
  Beta  occ. eigenvalues --   -0.77508  -0.76346  -0.72688  -0.70481  -0.67000
  Beta  occ. eigenvalues --   -0.65125  -0.62294  -0.60569  -0.56881  -0.56297
  Beta  occ. eigenvalues --   -0.53576  -0.50422  -0.49609  -0.48317  -0.47531
  Beta  occ. eigenvalues --   -0.45734  -0.45272  -0.44883  -0.43747  -0.43422
  Beta  occ. eigenvalues --   -0.41980  -0.40785  -0.39679  -0.39623  -0.39102
  Beta  occ. eigenvalues --   -0.38807  -0.38359  -0.37694  -0.36213  -0.35977
  Beta  occ. eigenvalues --   -0.35226  -0.35153  -0.34087  -0.32810  -0.31223
  Beta  occ. eigenvalues --   -0.30190  -0.28016  -0.27143  -0.26224  -0.24819
  Beta  occ. eigenvalues --   -0.24092  -0.23732
  Beta virt. eigenvalues --   -0.10125  -0.04446  -0.02550  -0.00825  -0.00565
  Beta virt. eigenvalues --    0.00091   0.01062   0.01630   0.02269   0.02962
  Beta virt. eigenvalues --    0.03101   0.03319   0.03694   0.03896   0.04612
  Beta virt. eigenvalues --    0.04745   0.05686   0.05932   0.06320   0.06524
  Beta virt. eigenvalues --    0.06886   0.07188   0.07590   0.08337   0.08476
  Beta virt. eigenvalues --    0.08909   0.09116   0.09453   0.09737   0.10367
  Beta virt. eigenvalues --    0.10800   0.11043   0.11365   0.11714   0.11928
  Beta virt. eigenvalues --    0.12162   0.12402   0.12641   0.12820   0.12947
  Beta virt. eigenvalues --    0.13598   0.14183   0.14254   0.14423   0.14707
  Beta virt. eigenvalues --    0.14830   0.15024   0.15678   0.15928   0.16169
  Beta virt. eigenvalues --    0.16443   0.16774   0.17185   0.17486   0.17504
  Beta virt. eigenvalues --    0.17969   0.18627   0.18702   0.18961   0.19384
  Beta virt. eigenvalues --    0.19598   0.19916   0.20267   0.21017   0.21302
  Beta virt. eigenvalues --    0.21621   0.21828   0.21999   0.22876   0.23002
  Beta virt. eigenvalues --    0.23040   0.23509   0.23984   0.24330   0.25170
  Beta virt. eigenvalues --    0.25372   0.25787   0.26100   0.26499   0.26691
  Beta virt. eigenvalues --    0.27089   0.27568   0.27866   0.28307   0.28717
  Beta virt. eigenvalues --    0.29212   0.29576   0.29855   0.30136   0.30598
  Beta virt. eigenvalues --    0.31132   0.31430   0.31967   0.32303   0.32995
  Beta virt. eigenvalues --    0.33397   0.33741   0.34286   0.34757   0.35060
  Beta virt. eigenvalues --    0.35277   0.35689   0.36003   0.36615   0.37076
  Beta virt. eigenvalues --    0.37422   0.38349   0.38856   0.39318   0.39669
  Beta virt. eigenvalues --    0.40305   0.41002   0.41590   0.42355   0.43253
  Beta virt. eigenvalues --    0.44043   0.44809   0.45281   0.46667   0.46795
  Beta virt. eigenvalues --    0.48291   0.48714   0.49050   0.49547   0.50286
  Beta virt. eigenvalues --    0.50538   0.51500   0.53311   0.54075   0.55081
  Beta virt. eigenvalues --    0.55216   0.55608   0.56846   0.57660   0.57748
  Beta virt. eigenvalues --    0.57981   0.58444   0.58840   0.59923   0.60337
  Beta virt. eigenvalues --    0.60909   0.62332   0.62832   0.63562   0.63999
  Beta virt. eigenvalues --    0.65272   0.66052   0.66601   0.67476   0.68434
  Beta virt. eigenvalues --    0.68552   0.69308   0.69959   0.70669   0.70926
  Beta virt. eigenvalues --    0.71793   0.71867   0.72606   0.73900   0.74050
  Beta virt. eigenvalues --    0.74408   0.75306   0.75834   0.76533   0.76980
  Beta virt. eigenvalues --    0.77299   0.79455   0.80573   0.81826   0.82135
  Beta virt. eigenvalues --    0.84146   0.85105   0.85754   0.86616   0.87010
  Beta virt. eigenvalues --    0.87886   0.88314   0.88791   0.89889   0.90827
  Beta virt. eigenvalues --    0.91558   0.92765   0.93284   0.94313   0.95642
  Beta virt. eigenvalues --    0.96529   0.97046   0.99063   1.00167   1.00858
  Beta virt. eigenvalues --    1.01958   1.02392   1.02428   1.03150   1.04650
  Beta virt. eigenvalues --    1.04902   1.05587   1.06209   1.07485   1.08639
  Beta virt. eigenvalues --    1.09525   1.11570   1.12619   1.13475   1.15781
  Beta virt. eigenvalues --    1.16860   1.17342   1.18431   1.19512   1.21197
  Beta virt. eigenvalues --    1.21437   1.22354   1.23712   1.24565   1.25550
  Beta virt. eigenvalues --    1.26097   1.26885   1.27662   1.29848   1.29976
  Beta virt. eigenvalues --    1.31144   1.32606   1.33841   1.35871   1.36392
  Beta virt. eigenvalues --    1.37269   1.38922   1.39763   1.43321   1.46735
  Beta virt. eigenvalues --    1.47936   1.48587   1.50315   1.51593   1.52289
  Beta virt. eigenvalues --    1.52487   1.54853   1.55989   1.56311   1.56602
  Beta virt. eigenvalues --    1.57784   1.58537   1.58837   1.59954   1.61583
  Beta virt. eigenvalues --    1.62199   1.63774   1.64267   1.65212   1.66062
  Beta virt. eigenvalues --    1.66482   1.69099   1.70380   1.70856   1.72495
  Beta virt. eigenvalues --    1.73471   1.73993   1.74885   1.76454   1.77851
  Beta virt. eigenvalues --    1.79167   1.79270   1.82411   1.83013   1.83488
  Beta virt. eigenvalues --    1.84786   1.86156   1.86750   1.86974   1.87823
  Beta virt. eigenvalues --    1.89455   1.90418   1.91524   1.91974   1.92679
  Beta virt. eigenvalues --    1.93537   1.94879   1.95815   1.96287   1.97941
  Beta virt. eigenvalues --    1.99908   2.01006   2.02443   2.03153   2.04321
  Beta virt. eigenvalues --    2.05931   2.07544   2.09310   2.10618   2.12426
  Beta virt. eigenvalues --    2.12883   2.13708   2.18417   2.18607   2.21825
  Beta virt. eigenvalues --    2.23038   2.24395   2.25920   2.29419   2.31280
  Beta virt. eigenvalues --    2.32909   2.33764   2.36419   2.37312   2.40388
  Beta virt. eigenvalues --    2.42735   2.45575   2.46584   2.47708   2.49632
  Beta virt. eigenvalues --    2.50675   2.52170   2.53069   2.54717   2.59007
  Beta virt. eigenvalues --    2.59515   2.62243   2.63160   2.65244   2.65671
  Beta virt. eigenvalues --    2.66139   2.66580   2.67155   2.68586   2.70115
  Beta virt. eigenvalues --    2.70821   2.72477   2.73366   2.74294   2.75217
  Beta virt. eigenvalues --    2.76159   2.76651   2.79192   2.80255   2.81051
  Beta virt. eigenvalues --    2.82191   2.82602   2.83216   2.84495   2.85522
  Beta virt. eigenvalues --    2.86733   2.87918   2.88737   2.89402   2.90614
  Beta virt. eigenvalues --    2.92321   2.92908   2.93871   2.94812   2.96874
  Beta virt. eigenvalues --    2.96992   2.97878   2.98566   3.00302   3.01213
  Beta virt. eigenvalues --    3.04832   3.07766   3.10008   3.10804   3.11900
  Beta virt. eigenvalues --    3.16655   3.18237   3.19347   3.19897   3.23836
  Beta virt. eigenvalues --    3.26057   3.28596   3.33737   3.35090   3.35356
  Beta virt. eigenvalues --    3.37129   3.37676   3.40874   3.47613   3.50107
  Beta virt. eigenvalues --    3.51130   3.52590   3.53280   3.57810   3.60691
  Beta virt. eigenvalues --    3.61099   3.64116   3.74765   3.75428   3.79282
  Beta virt. eigenvalues --    3.80057   3.82887   3.88996   3.91560   3.94195
  Beta virt. eigenvalues --    4.00007   4.04039   4.14696   4.16199   4.17173
  Beta virt. eigenvalues --    4.25346   4.29508   4.37628   4.81075   4.83692
  Beta virt. eigenvalues --    5.08948   5.10349   5.11362   5.12550   5.13522
  Beta virt. eigenvalues --    5.15208   5.17918   5.25967   5.31638   5.35892
  Beta virt. eigenvalues --    5.74671   5.83583   8.22290  17.42537  17.47140
  Beta virt. eigenvalues --   17.59735  23.57322  23.61525  23.81177  23.91018
  Beta virt. eigenvalues --   23.94130  23.94930  23.96943  23.97336  23.99411
  Beta virt. eigenvalues --   24.06762  24.08858  24.11491  24.14764  24.18350
  Beta virt. eigenvalues --   49.91110  49.94973  50.03832  50.08244 189.34580
          Condensed to atoms (all electrons):
               1          2          3          4          5          6
     1  C   58.256922   3.976899 -14.012755   4.015154 -28.794984 -17.760391
     2  C    3.976899  24.471129  -3.355832  -2.960265  -3.741808 -10.861644
     3  C  -14.012755  -3.355832  20.098433  -0.451126   2.356593   2.897981
     4  C    4.015154  -2.960265  -0.451126  15.349528  -7.332458  -3.394817
     5  C  -28.794984  -3.741808   2.356593  -7.332458  48.409969  -6.433717
     6  C  -17.760391 -10.861644   2.897981  -3.394817  -6.433717  64.402833
     7  O   -0.011671  -0.685199   0.095233  -0.055763   0.169688   0.614483
     8  O   -0.052466   0.001963   0.007763   0.492377  -0.382334   0.001727
     9  S    0.283750  -0.957354  -1.550111   1.175910  -0.386902 -15.163217
    10  C   -0.255741  -2.119776   0.112153   0.737973   3.812309  -9.510307
    11  C   -1.336628   4.255142   0.909493  -0.981960   1.441979   0.119279
    12  C    1.717530  -3.207524  -0.586298   1.140445  -3.176614   3.692041
    13  C   -1.231874  -0.220441   0.120019  -0.020789   0.527779   1.768619
    14  C    0.539735   1.019322   0.058134  -0.164429  -0.147544  -0.196857
    15  C    0.218923  -0.003863  -0.000893   0.030861  -0.126872   0.260674
    16  O   -0.170201  -0.477410  -0.033629   0.236439   0.089743  -0.903882
    17  O    1.227822   0.323645  -0.055032   0.009320  -0.892571  -0.603230
    18  H   -0.281153  -0.112434   0.033699   0.017014   0.100830   0.218343
    19  H    0.197033  -0.012728   0.008198   0.091040  -0.166461  -0.148100
    20  H    0.026154   0.016012  -0.001584  -0.000620  -0.003728  -0.051859
    21  H    0.086918   0.209505  -0.244988  -0.570458   0.784554   0.360214
    22  H   -0.009248   0.003910   0.000293  -0.004592   0.007789  -0.000382
    23  C   -0.715866  -0.500865  -0.009393  -0.509853  -0.767544  -0.046710
    24  C    1.054996   0.760755  -1.308713   0.127699   0.282437  -2.984727
    25  H    0.001340  -0.003033   0.000331   0.000908  -0.000192   0.006916
    26  H   -0.047807  -0.066944   0.042038  -0.017452   0.067170  -0.023738
    27  H    0.094133   0.139791  -0.152810   0.063081  -0.181499  -0.024729
    28  H   -0.058875  -0.040360   0.061646  -0.026822   0.033424  -0.003184
    29  H   -0.090081   0.088806   0.067143  -0.000692   0.035710  -0.188169
    30  H    0.086871   0.021302  -0.077429  -0.016925  -0.024695   0.060664
    31  H    0.094116  -0.097705  -0.025436   0.004694  -0.020709   0.026581
               7          8          9         10         11         12
     1  C   -0.011671  -0.052466   0.283750  -0.255741  -1.336628   1.717530
     2  C   -0.685199   0.001963  -0.957354  -2.119776   4.255142  -3.207524
     3  C    0.095233   0.007763  -1.550111   0.112153   0.909493  -0.586298
     4  C   -0.055763   0.492377   1.175910   0.737973  -0.981960   1.140445
     5  C    0.169688  -0.382334  -0.386902   3.812309   1.441979  -3.176614
     6  C    0.614483   0.001727 -15.163217  -9.510307   0.119279   3.692041
     7  O    8.384153   0.000110   0.101247   0.212028  -0.438546   0.245766
     8  O    0.000110   8.443558  -0.012201   0.006011   0.001376  -0.002730
     9  S    0.101247  -0.012201  37.892458  -2.896747  -4.820810   3.527291
    10  C    0.212028   0.006011  -2.896747  47.733165  -6.058078 -14.468786
    11  C   -0.438546   0.001376  -4.820810  -6.058078  51.563982 -39.426157
    12  C    0.245766  -0.002730   3.527291 -14.468786 -39.426157  57.748076
    13  C    0.034368  -0.000557  -0.920468  -4.030065   2.182648  -2.118440
    14  C   -0.087460   0.000333  -0.568392  -5.348565   1.516744  -1.201498
    15  C   -0.022817   0.000003  -0.195956  -2.970573  -2.339933   1.715164
    16  O   -0.029500  -0.000256   1.307866   0.596505  -2.497337   1.945768
    17  O   -0.018024   0.001815   0.095773   0.387894   1.439206  -1.993453
    18  H   -0.008517  -0.000117  -0.087385   0.193855   0.583126  -0.059345
    19  H   -0.002450   0.000448  -0.126282  -0.188455  -0.290995   1.046841
    20  H   -0.000545   0.000003   0.022218  -0.052795  -0.085313  -0.004321
    21  H   -0.002458  -0.019653  -0.319779  -0.046532   0.152350  -0.184149
    22  H    0.000094  -0.000006   0.002245   0.148435   0.167218  -0.352782
    23  C    0.001719  -0.044637  -0.542955   0.031050   0.002703   0.027452
    24  C   -0.115096   0.005759  -0.162968  -0.355021   0.246936  -0.138356
    25  H    0.000090   0.000002  -0.023722   0.025334  -0.053822   0.043574
    26  H    0.000477   0.002092  -0.006963  -0.002977   0.001717  -0.000719
    27  H   -0.000837   0.004577  -0.002165   0.002977  -0.001460   0.001490
    28  H    0.000533   0.002310  -0.006656   0.001780  -0.000109  -0.000243
    29  H   -0.006401   0.000418  -0.034032  -0.044491   0.064353  -0.038822
    30  H    0.001645  -0.000115   0.017578   0.003690  -0.015970   0.010084
    31  H    0.004859   0.000360  -0.007046   0.001223  -0.002844   0.002983
              13         14         15         16         17         18
     1  C   -1.231874   0.539735   0.218923  -0.170201   1.227822  -0.281153
     2  C   -0.220441   1.019322  -0.003863  -0.477410   0.323645  -0.112434
     3  C    0.120019   0.058134  -0.000893  -0.033629  -0.055032   0.033699
     4  C   -0.020789  -0.164429   0.030861   0.236439   0.009320   0.017014
     5  C    0.527779  -0.147544  -0.126872   0.089743  -0.892571   0.100830
     6  C    1.768619  -0.196857   0.260674  -0.903882  -0.603230   0.218343
     7  O    0.034368  -0.087460  -0.022817  -0.029500  -0.018024  -0.008517
     8  O   -0.000557   0.000333   0.000003  -0.000256   0.001815  -0.000117
     9  S   -0.920468  -0.568392  -0.195956   1.307866   0.095773  -0.087385
[...]
     8  O   -0.457932   0.270846
     9  S    0.365777  -0.024996
    10  C    0.342527   0.003238
    11  C   -0.298292   0.016557
    12  C    0.095731   0.007530
    13  C   -0.451937  -0.001653
    14  C   -0.386468  -0.005553
    15  C   -0.356424   0.004027
    16  O   -0.190603   0.005570
    17  O   -0.242213  -0.002579
    18  H    0.279112  -0.000758
    19  H    0.245004   0.000925
    20  H    0.212887   0.000080
    21  H    0.254122  -0.016548
    22  H    0.209679   0.000063
    23  C   -0.420549   0.010273
    24  C   -0.444864  -0.009949
    25  H    0.190068  -0.000221
    26  H    0.158139   0.001163
    27  H    0.185377  -0.002196
    28  H    0.158947   0.001214
    29  H    0.189031  -0.001404
    30  H    0.156050   0.002186
    31  H    0.156166   0.002163
 Sum of Mulliken charges =  -1.00000   1.00000
 Mulliken charges and spin densities with hydrogens summed into heavy atoms:
               1          2
     1  C   -1.048553   0.048129
     2  C    0.137005   0.003284
     3  C    0.996882   0.071538
     4  C   -0.983421   0.085824
     5  C    0.714780   0.172236
     6  C   -0.130694   0.116347
     7  O   -0.381210   0.226113
     8  O   -0.457932   0.270846
     9  S    0.365777  -0.024996
    10  C    0.342527   0.003238
    11  C   -0.019179   0.015800
    12  C    0.340734   0.008455
    13  C   -0.242259  -0.001590
    14  C   -0.173581  -0.005473
    15  C   -0.166356   0.003806
    16  O   -0.190603   0.005570
    17  O   -0.242213  -0.002579
    23  C    0.081913   0.010454
    24  C    0.056383  -0.007004
 Electronic spatial extent (au):  <R**2>=           5589.3762
 Charge=             -1.0000 electrons
 Dipole moment (field-independent basis, Debye):
    X=             -5.4540    Y=              6.7322    Z=             -4.7267  Tot=              9.8697
 Quadrupole moment (field-independent basis, Debye-Ang):
   XX=           -137.2284   YY=           -142.6790   ZZ=           -134.8023
   XY=              9.0467   XZ=             20.2691   YZ=             -2.9950
 Traceless Quadrupole moment (field-independent basis, Debye-Ang):
   XX=              1.0082   YY=             -4.4424   ZZ=              3.4343
   XY=              9.0467   XZ=             20.2691   YZ=             -2.9950
 Octapole moment (field-independent basis, Debye-Ang**2):
  XXX=           -113.7749  YYY=             41.2929  ZZZ=            -26.5380  XYY=            -35.6903
  XXY=             98.5588  XXZ=              2.2170  XZZ=            -15.7568  YZZ=              8.5263
  YYZ=             -1.6529  XYZ=            -31.7759
 Hexadecapole moment (field-independent basis, Debye-Ang**3):
 XXXX=          -5470.8315 YYYY=          -1719.8545 ZZZZ=           -968.6594 XXXY=            156.8210
 XXXZ=            269.4565 YYYX=             12.7312 YYYZ=            -17.6664 ZZZX=             78.0870
 ZZZY=             12.5364 XXYY=          -1219.4210 XXZZ=          -1013.5869 YYZZ=           -438.9469
 XXYZ=            -82.1073 YYXZ=             58.4928 ZZXY=             25.1369
 N-N= 1.561080224745D+03 E-N=-6.054183674590D+03  KE= 1.236164969991D+03
                          Isotropic Fermi Contact Couplings
        Atom                 a.u.       MegaHertz       Gauss      10(-4) cm-1
     1  C(13)             -0.00625      -7.02457      -2.50654      -2.34314
     2  C(13)             -0.00133      -1.49603      -0.53382      -0.49902
     3  C(13)             -0.00399      -4.48264      -1.59952      -1.49525
     4  C(13)             -0.00981     -11.02477      -3.93391      -3.67747
     5  C(13)              0.00410       4.61439       1.64653       1.53920
     6  C(13)             -0.00326      -3.66286      -1.30700      -1.22180
     7  O(17)              0.02161     -13.09985      -4.67435      -4.36964
     8  O(17)              0.02778     -16.84089      -6.00925      -5.61752
     9  S(33)             -0.00597      -2.05153      -0.73204      -0.68432
    10  C(13)              0.00108       1.21605       0.43392       0.40563
    11  C(13)              0.00033       0.37192       0.13271       0.12406
    12  C(13)              0.00021       0.23780       0.08485       0.07932
    13  C(13)             -0.00019      -0.21396      -0.07635      -0.07137
    14  C(13)             -0.00017      -0.19643      -0.07009      -0.06552
    15  C(13)              0.00023       0.25466       0.09087       0.08495
    16  O(17)              0.00212      -1.28648      -0.45905      -0.42912
    17  O(17)             -0.00018       0.10741       0.03833       0.03583
    18  H(1)               0.00006       0.27506       0.09815       0.09175
    19  H(1)              -0.00003      -0.14573      -0.05200      -0.04861
    20  H(1)               0.00002       0.10075       0.03595       0.03361
    21  H(1)              -0.00301     -13.43391      -4.79355      -4.48107
    22  H(1)               0.00002       0.07848       0.02800       0.02618
    23  C(13)             -0.00156      -1.75755      -0.62714      -0.58626
    24  C(13)             -0.00224      -2.51729      -0.89823      -0.83968
    25  H(1)              -0.00005      -0.23522      -0.08393      -0.07846
    26  H(1)               0.00061       2.71742       0.96964       0.90643
    27  H(1)              -0.00001      -0.03641      -0.01299      -0.01215
    28  H(1)               0.00061       2.72902       0.97378       0.91030
    29  H(1)               0.00001       0.03366       0.01201       0.01123
    30  H(1)               0.00116       5.18430       1.84989       1.72930
    31  H(1)               0.00115       5.14129       1.83454       1.71495
 --------------------------------------------------------
       Center         ----  Spin Dipole Couplings  ----
                      3XX-RR        3YY-RR        3ZZ-RR
 --------------------------------------------------------
     1   Atom       -0.038464     -0.044429      0.082893
     2   Atom       -0.018041     -0.026274      0.044315
     3   Atom       -0.011010     -0.012742      0.023751
     4   Atom       -0.032791     -0.052358      0.085150
     5   Atom       -0.068894     -0.099417      0.168311
     6   Atom       -0.032360     -0.044021      0.076381
     7   Atom       -0.305727     -0.411325      0.717052
     8   Atom       -0.348673     -0.484222      0.832895
     9   Atom       -0.005427      0.001765      0.003663
    10   Atom        0.001225     -0.000019     -0.001206
    11   Atom        0.003298     -0.001864     -0.001434
    12   Atom        0.002271     -0.001619     -0.000652
    13   Atom        0.001072     -0.000461     -0.000611
    14   Atom        0.001015     -0.000406     -0.000609
    15   Atom        0.002209     -0.001493     -0.000716
    16   Atom        0.003731     -0.007438      0.003706
    17   Atom       -0.000254      0.001715     -0.001461
    18   Atom        0.005158     -0.002538     -0.002620
    19   Atom        0.001424     -0.000514     -0.000910
    20   Atom        0.001057     -0.000450     -0.000607
    21   Atom       -0.006385      0.012651     -0.006266
    22   Atom        0.000609     -0.000416     -0.000193
    23   Atom        0.001092      0.001432     -0.002524
    24   Atom        0.000715      0.001457     -0.002172
    25   Atom        0.000664     -0.000422     -0.000242
    26   Atom        0.000358      0.001103     -0.001462
    27   Atom        0.003354      0.000241     -0.003594
    28   Atom        0.001741      0.000296     -0.002036
    29   Atom       -0.000120      0.003573     -0.003453
    30   Atom       -0.000251      0.001853     -0.001602
    31   Atom        0.001006      0.000896     -0.001902
 --------------------------------------------------------
                        XY            XZ            YZ
 --------------------------------------------------------
     1   Atom       -0.023324      0.048223     -0.026439
     2   Atom       -0.007070      0.032406     -0.019614
     3   Atom       -0.003019      0.017300     -0.011270
     4   Atom       -0.028368      0.053352     -0.033104
     5   Atom       -0.030642      0.113974     -0.075838
     6   Atom       -0.017490      0.050641     -0.032170
     7   Atom       -0.091214      0.439728     -0.258803
     8   Atom       -0.145726      0.574437     -0.374383
     9   Atom       -0.002616      0.001223     -0.000320
    10   Atom       -0.001151      0.002927     -0.000458
    11   Atom        0.001370     -0.001547     -0.001573
    12   Atom        0.002136     -0.001390     -0.001228
    13   Atom       -0.000678      0.001435      0.000690
    14   Atom       -0.001102      0.001417      0.000274
    15   Atom        0.001652     -0.001845     -0.001461
    16   Atom       -0.004125     -0.013977      0.003197
    17   Atom       -0.000156     -0.003535      0.002318
    18   Atom       -0.000133     -0.001477      0.000307
    19   Atom        0.000688      0.000732      0.000617
    20   Atom       -0.000690      0.000285     -0.000025
    21   Atom        0.012085      0.004074     -0.000166
    22   Atom        0.000006      0.000578      0.000074
    23   Atom        0.003578     -0.000548     -0.000331
    24   Atom        0.003145     -0.000153     -0.000443
    25   Atom       -0.000306      0.000481     -0.000271
    26   Atom        0.001993     -0.001481     -0.000939
    27   Atom        0.004458     -0.001803     -0.000617
    28   Atom        0.002153      0.000159      0.000685
    29   Atom        0.003648     -0.000408      0.000538
    30   Atom        0.001901     -0.001161     -0.000925
    31   Atom        0.002224      0.000390      0.000962
 --------------------------------------------------------


 ---------------------------------------------------------------------------------
              Anisotropic Spin Dipole Couplings in Principal Axis System
 ---------------------------------------------------------------------------------

       Atom             a.u.   MegaHertz   Gauss  10(-4) cm-1        Axes

              Baa    -0.0666    -8.932    -3.187    -2.979  0.7563  0.6410 -0.1306
     1 C(13)  Bbb    -0.0403    -5.402    -1.928    -1.802 -0.5599  0.7376  0.3776
              Bcc     0.1068    14.334     5.115     4.781  0.3384 -0.2124  0.9167
 
              Baa    -0.0327    -4.385    -1.565    -1.463  0.6879 -0.5794 -0.4371
     2 C(13)  Bbb    -0.0303    -4.064    -1.450    -1.356  0.6192  0.7827 -0.0632
              Bcc     0.0630     8.449     3.015     2.818  0.3788 -0.2272  0.8972
 
              Baa    -0.0188    -2.526    -0.901    -0.843  0.8047 -0.4049 -0.4342
     3 C(13)  Bbb    -0.0149    -2.006    -0.716    -0.669  0.4692  0.8819  0.0471
              Bcc     0.0338     4.532     1.617     1.512  0.3638 -0.2416  0.8996
 
              Baa    -0.0728    -9.763    -3.484    -3.257  0.6160  0.7865 -0.0432
     4 C(13)  Bbb    -0.0431    -5.778    -2.062    -1.927  0.6964 -0.5694 -0.4368
              Bcc     0.1158    15.541     5.546     5.184  0.3682 -0.2390  0.8985
 
              Baa    -0.1195   -16.032    -5.721    -5.348  0.1083  0.9710  0.2130
     5 C(13)  Bbb    -0.1148   -15.402    -5.496    -5.138  0.9256 -0.0203 -0.3781
              Bcc     0.2342    31.434    11.216    10.485  0.3628 -0.2381  0.9009
 
              Baa    -0.0570    -7.644    -2.727    -2.550  0.6976  0.7103 -0.0936
     6 C(13)  Bbb    -0.0482    -6.469    -2.308    -2.158 -0.6182  0.6628  0.4224
              Bcc     0.1052    14.113     5.036     4.708  0.3621 -0.2368  0.9016
 
              Baa    -0.4724    34.185    12.198    11.403  0.6755 -0.6280 -0.3864
     7 O(17)  Bbb    -0.4636    33.542    11.969    11.189  0.6542  0.7522 -0.0788
              Bcc     0.9360   -67.727   -24.167   -22.591  0.3401 -0.1995  0.9190
 
              Baa    -0.5877    42.523    15.173    14.184 -0.5855  0.6936  0.4196
     8 O(17)  Bbb    -0.5764    41.705    14.881    13.911  0.7240  0.6803 -0.1144
              Bcc     1.1640   -84.228   -30.055   -28.096  0.3648 -0.2368  0.9005
 
              Baa    -0.0064    -0.262    -0.093    -0.087  0.9481  0.2999 -0.1058
     9 S(33)  Bbb     0.0023     0.094     0.034     0.031 -0.2319  0.8796  0.4155
              Bcc     0.0041     0.168     0.060     0.056  0.2176 -0.3694  0.9034
 
              Baa    -0.0032    -0.427    -0.152    -0.142 -0.5669 -0.0877  0.8191
    10 C(13)  Bbb    -0.0004    -0.054    -0.019    -0.018  0.2163  0.9436  0.2507
              Bcc     0.0036     0.481     0.172     0.161  0.7949 -0.3193  0.5159
 
              Baa    -0.0032    -0.434    -0.155    -0.145 -0.0029  0.7547  0.6561
    11 C(13)  Bbb    -0.0010    -0.140    -0.050    -0.047  0.4297 -0.5915  0.6823
              Bcc     0.0043     0.574     0.205     0.192  0.9030  0.2839 -0.3225
 
              Baa    -0.0028    -0.371    -0.132    -0.124 -0.2894  0.8978  0.3319
    12 C(13)  Bbb    -0.0011    -0.154    -0.055    -0.051  0.4619 -0.1727  0.8699
              Bcc     0.0039     0.524     0.187     0.175  0.8384  0.4050 -0.3647
 
              Baa    -0.0020    -0.269    -0.096    -0.090 -0.4523 -0.5215  0.7235
    13 C(13)  Bbb     0.0001     0.011     0.004     0.004 -0.1600  0.8455  0.5095
              Bcc     0.0019     0.258     0.092     0.086  0.8774 -0.1147  0.4659
 
              Baa    -0.0019    -0.255    -0.091    -0.085 -0.5240 -0.5106  0.6817
    14 C(13)  Bbb    -0.0002    -0.029    -0.010    -0.010  0.0139  0.7951  0.6063
              Bcc     0.0021     0.284     0.101     0.095  0.8516 -0.3272  0.4095
 
              Baa    -0.0026    -0.353    -0.126    -0.118 -0.0655  0.8225  0.5650
    15 C(13)  Bbb    -0.0013    -0.176    -0.063    -0.059  0.5695 -0.4341  0.6980
              Bcc     0.0039     0.529     0.189     0.176  0.8194  0.3675 -0.4399
 
              Baa    -0.0105     0.757     0.270     0.253  0.7121  0.3002  0.6347
    16 O(17)  Bbb    -0.0083     0.597     0.213     0.199 -0.0839  0.9339 -0.3476
              Bcc     0.0187    -1.355    -0.483    -0.452  0.6970 -0.1943 -0.6902
 
              Baa    -0.0049     0.354     0.126     0.118  0.5805 -0.2574  0.7725
    17 O(17)  Bbb     0.0009    -0.062    -0.022    -0.021  0.6347  0.7373 -0.2313
              Bcc     0.0040    -0.292    -0.104    -0.097 -0.5100  0.6246  0.5913
 
              Baa    -0.0030    -1.624    -0.580    -0.542  0.1474 -0.4840  0.8626
    18 H(1)   Bbb    -0.0024    -1.275    -0.455    -0.425  0.1079  0.8748  0.4724
              Bcc     0.0054     2.899     1.034     0.967  0.9832 -0.0234 -0.1812
 
              Baa    -0.0014    -0.735    -0.262    -0.245 -0.0899 -0.5308  0.8427
    19 H(1)   Bbb    -0.0005    -0.292    -0.104    -0.098 -0.4378  0.7810  0.4453
              Bcc     0.0019     1.027     0.366     0.343  0.8946  0.3289  0.3027
 
              Baa    -0.0008    -0.410    -0.146    -0.137  0.3705  0.7603 -0.5335
    20 H(1)   Bbb    -0.0006    -0.317    -0.113    -0.106  0.0837  0.5447  0.8344
              Bcc     0.0014     0.727     0.260     0.243  0.9251 -0.3538  0.1381
 
              Baa    -0.0141    -7.502    -2.677    -2.503  0.8189 -0.3732 -0.4360
    21 H(1)   Bbb    -0.0046    -2.435    -0.869    -0.812  0.3650 -0.2476  0.8975
              Bcc     0.0186     9.937     3.546     3.315  0.4429  0.8941  0.0665
 
              Baa    -0.0005    -0.283    -0.101    -0.094 -0.3936 -0.4857  0.7805
    22 H(1)   Bbb    -0.0004    -0.204    -0.073    -0.068 -0.2491  0.8736  0.4180
              Bcc     0.0009     0.487     0.174     0.162  0.8849  0.0299  0.4648
 
              Baa    -0.0027    -0.357    -0.127    -0.119  0.3726 -0.2538  0.8926
    23 C(13)  Bbb    -0.0022    -0.300    -0.107    -0.100 -0.6215  0.6460  0.4431
              Bcc     0.0049     0.657     0.234     0.219  0.6891  0.7199 -0.0830
 
              Baa    -0.0023    -0.313    -0.112    -0.104 -0.4020  0.4285  0.8092
    24 C(13)  Bbb    -0.0020    -0.262    -0.093    -0.087  0.6331 -0.5083  0.5838
              Bcc     0.0043     0.575     0.205     0.192  0.6615  0.7470 -0.0670
 
              Baa    -0.0006    -0.330    -0.118    -0.110 -0.0461  0.7825  0.6210
    25 H(1)   Bbb    -0.0004    -0.193    -0.069    -0.064 -0.4829 -0.5616  0.6718
              Bcc     0.0010     0.523     0.187     0.174  0.8744 -0.2689  0.4038
 
              Baa    -0.0023    -1.228    -0.438    -0.410  0.5277 -0.0757  0.8461
    26 H(1)   Bbb    -0.0010    -0.557    -0.199    -0.186 -0.5677  0.7095  0.4176
              Bcc     0.0033     1.785     0.637     0.595  0.6319  0.7006 -0.3314
 
              Baa    -0.0041    -2.212    -0.789    -0.738  0.3577 -0.2365  0.9034
    27 H(1)   Bbb    -0.0027    -1.437    -0.513    -0.479 -0.4671  0.7923  0.3924
              Bcc     0.0068     3.650     1.302     1.217  0.8086  0.5624 -0.1730
 
              Baa    -0.0023    -1.223    -0.437    -0.408  0.1667 -0.3795  0.9100
    28 H(1)   Bbb    -0.0010    -0.559    -0.200    -0.187 -0.5735  0.7134  0.4026
              Bcc     0.0033     1.783     0.636     0.595  0.8020  0.5891  0.0987
 
              Baa    -0.0037    -1.998    -0.713    -0.667  0.3406 -0.2366  0.9100
    29 H(1)   Bbb    -0.0021    -1.108    -0.395    -0.369  0.7822 -0.4657 -0.4138
              Bcc     0.0058     3.106     1.108     1.036  0.5217  0.8527  0.0265
 
              Baa    -0.0023    -1.216    -0.434    -0.406  0.5371 -0.0586  0.8415
    30 H(1)   Bbb    -0.0011    -0.580    -0.207    -0.193  0.6683 -0.5791 -0.4669
              Bcc     0.0034     1.796     0.641     0.599  0.5147  0.8132 -0.2718
 
              Baa    -0.0022    -1.198    -0.428    -0.400  0.1570 -0.3890  0.9077
    31 H(1)   Bbb    -0.0011    -0.588    -0.210    -0.196  0.7038 -0.6008 -0.3792
              Bcc     0.0033     1.787     0.638     0.596  0.6929  0.6984  0.1794
 

 ---------------------------------------------------------------------------------

 No NMR shielding tensors so no spin-rotation constants.
 Leave Link  601 at Wed Jan 24 22:57:46 2024, MaxMem=  4026531840 cpu:               3.7 elap:               0.6
 (Enter /sysapps/ubuntu-applications/gaussian/Gaussian/AVX2/g16/l9999.exe)
 1\1\GINC-ACIDSGN008\SP\UB3LYP\6-311++G(d,p)\C14H12O4S1(1-,2)\SELHAJJ1\
 24-Jan-2024\0\\#P UB3LYP/6-311++G(d,p) SCRF=(PCM,Solvent=n,n-DiMethylF
 ormamide)\\Radical PCM in DMF\\-1,2\C,0,1.077295,1.714106,-0.601928\C,
 0,-0.156985,1.23086,0.029363\C,0,-0.452976,-0.107119,0.126538\C,0,0.45
 2802,-1.133706,-0.397788\C,0,1.658573,-0.663658,-1.030369\C,0,1.941297
 ,0.677618,-1.132986\O,0,1.362246,2.936498,-0.654545\O,0,0.197799,-2.36
 6759,-0.305074\S,0,3.444135,1.144065,-1.998582\C,0,4.476405,2.014263,-
 0.781863\C,0,4.305363,3.381211,-0.574417\C,0,5.454125,1.292682,-0.1004
 73\C,0,6.274379,1.953164,0.812812\C,0,5.133697,4.031465,0.338663\C,0,6
 .114885,3.321656,1.031708\O,0,3.159543,2.09002,-3.087814\O,0,4.174394,
 -0.100571,-2.318475\H,0,3.520396,3.901334,-1.105184\H,0,5.568805,0.234
 76,-0.30128\H,0,5.008106,5.094978,0.51166\H,0,2.339119,-1.403629,-1.43
 259\H,0,7.039564,1.400323,1.347407\C,0,-1.721966,-0.585867,0.784874\C,
 0,-1.087093,2.284318,0.577829\H,0,6.75408,3.834402,1.74329\H,0,-1.7819
 05,-0.258086,1.829733\H,0,-1.756536,-1.675005,0.756283\H,0,-2.610867,-
 0.190759,0.27858\H,0,-0.673502,3.273546,0.382768\H,0,-1.22957,2.171721
 ,1.659571\H,0,-2.080857,2.219859,0.119049\\Version=ES64L-G16RevA.03\St
 ate=2-A\HF=-1240.1376762\S2=0.759986\S2-1=0.\S2A=0.750044\RMSD=3.954e-
 09\Dipole=1.4845069,2.2622887,2.7850027\Quadrupole=11.0752372,-13.0041
 688,1.9289315,-6.2246021,9.2573854,3.7543117\PG=C01 [X(C14H12O4S1)]\\@


 QUHEN THE CAUSS IS TAKEN AWAY THE EFFECT WANISHETH.
 -- PROVERBS AND REASONS OF THE YEAR 1585
           AS REPRINTED IN PAISLEY MAGAZINE 1828.
 Job cpu time:       0 days  1 hours 19 minutes 20.0 seconds.
 Elapsed time:       0 days  0 hours  9 minutes 59.8 seconds.
 File lengths (MBytes):  RWF=    355 Int=      0 D2E=      0 Chk=     20 Scr=      1
 Normal termination of Gaussian 16 at Wed Jan 24 22:57:47 2024.
