
Running Job 1 of 1 021-an-COSMO.in
qchem 021-an-COSMO.in_2239012.0 /expanse/lustre/scratch/selhajj/temp_project/qcscratch/28868497/qchem2239012/ 0
/cm/shared/apps/spack/cpu/opt/spack/linux-centos8-zen2/gcc-10.2.0/qchem-5.4-akfmr7b3t57bfs6qan3padb2wnb2i7cl/exe/qcprog.exe_s 021-an-COSMO.in_2239012.0 /expanse/lustre/scratch/selhajj/temp_project/qcscratch/28868497/qchem2239012/
                  Welcome to Q-Chem
     A Quantum Leap Into The Future Of Chemistry


 Q-Chem 5.4, Q-Chem, Inc., Pleasanton, CA (2021)

 License issued to: University of California, San Diego (site)

 E. Epifanovsky,  A. T. B. Gilbert,  Xintian Feng,  Joonho Lee,  Yuezhi Mao,  
 N. Mardirossian,  P. Pokhilko,  A. White,  M. Wormit,  M. P. Coons,  
 A. L. Dempwolff,  Zhengting Gan,  D. Hait,  P. R. Horn,  L. D. Jacobson,  
 I. Kaliman,  J. Kussmann,  A. W. Lange,  Ka Un Lao,  D. S. Levine,  Jie Liu,  
 S. C. McKenzie,  A. F. Morrison,  K. Nanda,  F. Plasser,  D. R. Rehn,  
 M. L. Vidal,  Zhi-Qiang You,  Ying Zhu,  B. Alam,  B. Albrecht,  
 A. Aldossary,  E. Alguire,  J. H. Andersen,  D. Barton,  K. Begam,  A. Behn,  
 Y. A. Bernard,  E. J. Berquist,  H. Burton,  A. Carreras,  K. Carter-Fenk,  
 R. Chakraborty,  A. D. Chien,  K. D. Closser,  V. Cofer-Shabica,  
 S. Dasgupta,  Jia Deng,  M. de Wergifosse,  M. Diedenhofen,  Hainam Do,  
 S. Ehlert,  Po-Tung Fang,  S. Fatehi,  Qingguo Feng,  J. Gayvert,  
 Qinghui Ge,  G. Gidofalvi,  M. Goldey,  J. Gomes,  C. Gonzalez-Espinoza,  
 S. Gulania,  A. Gunina,  M. W. D. Hanson-Heine,  P. H. P. Harbach,  
 A. W. Hauser,  M. F. Herbst,  M. Hernandez Vera,  M. Hodecker,  
 Z. C. Holden,  S. Houck,  Xunkun Huang,  Kerwin Hui,  B. C. Huynh,  
 M. Ivanov,  Hyunjun Ji,  Hanjie Jiang,  B. Kaduk,  S. Kaehler,  
 K. Khistyaev,  Jaehoon Kim,  P. Klunzinger,  Z. Koczor-Benda,  
 Joong Hoon Koh,  D. Kosenkov,  L. Koulias,  T. Kowalczyk,  C. M. Krauter,  
 K. Kue,  A. Kunitsa,  T. Kus,  A. Landau,  K. V. Lawler,  D. Lefrancois,  
 S. Lehtola,  Rain Li,  Yi-Pei Li,  Jiashu Liang,  M. Liebenthal,  
 Hung-Hsuan Lin,  You-Sheng Lin,  Fenglai Liu,  Kuan-Yu Liu,  
 M. Loipersberger,  A. Luenser,  A. Manjanath,  P. Manohar,  E. Mansoor,  
 S. F. Manzer,  Shan-Ping Mao,  A. V. Marenich,  T. Markovich,  S. Mason,  
 S. A. Maurer,  P. F. McLaughlin,  M. F. S. J. Menger,  J.-M. Mewes,  
 S. A. Mewes,  P. Morgante,  J. W. Mullinax,  T. S. Nguyen-Beck,  
 K. J. Oosterbaan,  G. Paran,  Alexander C. Paul,  Suranjan K. Paul,  
 F. Pavosevic,  Zheng Pei,  S. Prager,  E. I. Proynov,  E. Ramos,  B. Rana,  
 A. E. Rask,  A. Rettig,  R. M. Richard,  F. Rob,  E. Rossomme,  T. Scheele,  
 M. Scheurer,  M. Schneider,  N. Sergueev,  S. M. Sharada,  W. Skomorowski,  
 D. W. Small,  C. J. Stein,  Yu-Chuan Su,  E. J. Sundstrom,  Zhen Tao,  
 J. Thirman,  T. Tsuchimochi,  N. M. Tubman,  S. P. Veccham,  O. Vydrov,  
 J. Wenzel,  J. Witte,  A. Yamada,  Kun Yao,  S. Yeganeh,  S. R. Yost,  
 A. Zech,  Igor Ying Zhang,  Xing Zhang,  Yu Zhang,  D. Zuev,  
 A. Aspuru-Guzik,  A. T. Bell,  N. A. Besley,  K. B. Bravaya,  B. R. Brooks,  
 D. Casanova,  Jeng-Da Chai,  S. Coriani,  C. J. Cramer,  
 A. E. DePrince, III,  R. A. DiStasio Jr.,  A. Dreuw,  B. D. Dunietz,  
 T. R. Furlani,  W. A. Goddard III,  S. Grimme,  S. Hammes-Schiffer,  
 T. Head-Gordon,  W. J. Hehre,  Chao-Ping Hsu,  T.-C. Jagau,  Yousung Jung,  
 A. Klamt,  Jing Kong,  D. S. Lambrecht,  WanZhen Liang,  N. J. Mayhall,  
 C. W. McCurdy,  J. B. Neaton,  C. Ochsenfeld,  J. A. Parkhill,  R. Peverati,  
 V. A. Rassolov,  Yihan Shao,  L. V. Slipchenko,  T. Stauch,  R. P. Steele,  
 J. E. Subotnik,  A. J. W. Thom,  A. Tkatchenko,  D. G. Truhlar,  
 T. Van Voorhis,  T. A. Wesolowski,  K. B. Whaley,  H. L. Woodcock III,  
 P. M. Zimmerman,  S. Faraji,  P. M. W. Gill,  M. Head-Gordon,  
 J. M. Herbert,  A. I. Krylov

 Contributors to earlier versions of Q-Chem not listed above: 
 R. D. Adamson,  B. Austin,  R. Baer,  J. Baker,  G. J. O. Beran,  
 K. Brandhorst,  S. T. Brown,  E. F. C. Byrd,  A. K. Chakraborty,  
 G. K. L. Chan,  Chun-Min Chang,  Yunqing Chen,  C.-L. Cheng,  
 Siu Hung Chien,  D. M. Chipman,  D. L. Crittenden,  H. Dachsel,  
 R. J. Doerksen,  A. D. Dutoi,  R. G. Edgar,  J. Fosso-Tande,  
 L. Fusti-Molnar,  D. Ghosh,  A. Ghysels,  A. Golubeva-Zadorozhnaya,  
 J. Gonthier,  M. S. Gordon,  S. R. Gwaltney,  G. Hawkins,  J. E. Herr,  
 A. Heyden,  S. Hirata,  E. G. Hohenstein,  G. Kedziora,  F. J. Keil,  
 C. Kelley,  Jihan Kim,  R. A. King,  R. Z. Khaliullin,  P. P. Korambath,  
 W. Kurlancheek,  A. Laurent,  A. M. Lee,  M. S. Lee,  S. V. Levchenko,  
 Ching Yeh Lin,  D. Liotard,  E. Livshits,  R. C. Lochan,  I. Lotan,  
 L. A. Martinez-Martinez,  P. E. Maslen,  N. Nair,  D. P. O'Neill,  
 D. Neuhauser,  E. Neuscamman,  C. M. Oana,  R. Olivares-Amaya,  R. Olson,  
 T. M. Perrine,  B. Peters,  P. A. Pieniazek,  A. Prociuk,  Y. M. Rhee,  
 J. Ritchie,  M. A. Rohrdanz,  E. Rosta,  N. J. Russ,  H. F. Schaefer III,  
 M. W. Schmidt,  N. E. Schultz,  S. Sharma,  N. Shenvi,  C. D. Sherrill,  
 A. C. Simmonett,  A. Sodt,  T. Stein,  D. Stuck,  K. S. Thanthiriwatte,  
 V. Vanovschi,  L. Vogt,  Tao Wang,  A. Warshel,  M. A. Watson,  
 C. F. Williams,  Q. Wu,  X. Xu,  Jun Yang,  W. Zhang,  Yan Zhao

 Please cite Q-Chem as follows:
 Y. Shao et al., Mol. Phys. 113, 184-215 (2015)
 DOI: 10.1080/00268976.2014.952696

 Q-Chem 5.4.0 for Intel X86 EM64T Linux

 Parts of Q-Chem use Armadillo 9.800.1 (Horizon Scraper).
 http://arma.sourceforge.net/

 Q-Chem begins on Thu Feb 22 02:56:57 2024  

 Host: 
0

     Scratch files written to /expanse/lustre/scratch/selhajj/temp_project/qcscratch/28868497/qchem2239012//
 May1621 |scratch|qcdevops|jenkins|workspace|build_RNUM    
 Processing $rem in /cm/shared/apps/spack/cpu/opt/spack/linux-centos8-zen2/gcc-10.2.0/qchem-5.4-akfmr7b3t57bfs6qan3padb2wnb2i7cl/config/preferences:
 Processing $rem in /home/selhajj/.qchemrc:

 Checking the input file for inconsistencies... 
 Q-Chem warning in module libgen/CheckREMs.C, line 172:

 Found a $solvent section, which is only used for PCM and Kirkwood-Onsager solvation models

	...done.

--------------------------------------------------------------
User input:
--------------------------------------------------------------
$molecule
-2 1
Br                -1.6318400000      2.7103350000      1.0572520000
C                 -0.7019160000      1.1321790000      0.3168440000
C                 -1.4354630000      0.0849210000     -0.2620900000
C                 -0.7406460000     -0.9475960000     -1.0374030000
O                 -1.3569590000     -1.8524960000     -1.6906570000
C                  0.6833050000     -0.8388920000     -0.9555310000
C                  1.4191400000      0.1728560000     -0.3190680000
C                  0.7182180000      1.3035250000      0.2973410000
O                  1.3278130000      2.3136660000      0.7804540000
C                  2.8910130000      0.1546230000     -0.1846290000
C                  3.6621240000      1.3172990000     -0.3927440000
C                  5.0462590000      1.3071720000     -0.2383150000
C                  5.7160070000      0.1447760000      0.1544420000
C                  4.9663670000     -1.0100150000      0.3911560000
C                  3.5834840000     -1.0020790000      0.2259370000
Br                 1.5980050000     -2.1739440000     -2.0889860000
C                 -2.8958910000     -0.0786630000     -0.1029310000
C                 -3.7174030000     -0.4401420000     -1.1911280000
C                 -5.0893370000     -0.6226090000     -1.0352610000
C                 -5.6949600000     -0.4771870000      0.2161600000
C                 -4.8935200000     -0.1454950000      1.3112430000
C                 -3.5233710000      0.0475540000      1.1525950000
H                  3.1463140000      2.2305690000     -0.6525440000
H                  5.6082840000      2.2210560000     -0.4173240000
H                  6.7954740000      0.1415920000      0.2824560000
H                  5.4607210000     -1.9237440000      0.7126650000
H                  3.0187790000     -1.9042920000      0.4230020000
H                 -3.2491150000     -0.5985090000     -2.1519810000
H                 -5.6919670000     -0.8914840000     -1.8999240000
H                 -6.7646340000     -0.6284070000      0.3369160000
H                 -5.3368440000     -0.0414960000      2.2988160000
H                 -2.9174400000      0.2949240000      2.0147840000
$end
$rem
MAX_SCF_CYCLES=200
BASIS  =  6-311++G(d,p)
GUI  =  2
JOB_TYPE  =  SP
METHOD  =  B3LYP
SOLVENT_METHOD = COSMO
$end
$solvent
dielectric 37.219
opticaldielectric 1.43
$end





--------------------------------------------------------------
 ----------------------------------------------------------------
             Standard Nuclear Orientation (Angstroms)
    I     Atom           X                Y                Z
 ----------------------------------------------------------------
    1      Br     -2.0876792689    -2.5863838805     0.3049309362
    2      C      -0.8830023821    -1.0375280375     0.0739803164
    3      C      -1.4033860849     0.2655670692     0.0400828110
    4      C      -0.4959217092     1.4135098969     0.1333991433
    5      O      -0.9103227168     2.6150326941     0.2336053573
    6      C       0.8828471360     1.0372422115     0.0736067116
    7      C       1.4032615225    -0.2659087086     0.0398597285
    8      C       0.4959152547    -1.4137910968     0.1334164807
    9      O       0.9102452544    -2.6153428459     0.2333820769
   10      C       2.8392776238    -0.5705698109    -0.1329285371
   11      C       3.4744315390    -1.5731188313     0.6294456979
   12      C       4.8206567358    -1.8798983561     0.4468406237
   13      C       5.5827060901    -1.2180640818    -0.5202380082
   14      C       4.9643256398    -0.2404892404    -1.3034933620
   15      C       3.6208822789     0.0734585563    -1.1129089800
   16      Br      2.0876529449     2.5859941523     0.3050598567
   17      C      -2.8393980495     0.5704811732    -0.1326547996
   18      C      -3.4742394288     1.5732133707     0.6297271963
   19      C      -4.8203009577     1.8806094095     0.4469222077
   20      C      -5.5824517097     1.2191610321    -0.5203386520
   21      C      -4.9643771254     0.2413696259    -1.3035628902
   22      C      -3.6210998596    -0.0731946500    -1.1127727175
   23      H       2.8802087054    -2.1199222565     1.3474452294
   24      H       5.2783012280    -2.6524835722     1.0606597264
   25      H       6.6311140076    -1.4651713788    -0.6666126929
   26      H       5.5302218878     0.2786810028    -2.0734792677
   27      H       3.1569829037     0.8274156893    -1.7358541300
   28      H      -2.8798438102     2.1198065876     1.3477396955
   29      H      -5.2777148128     2.6533816749     1.0606765373
   30      H      -6.6307176227     1.4667588793    -0.6669191689
   31      H      -5.5303766015    -0.2774695789    -2.0736946088
   32      H      -3.1573939268    -0.8271725396    -1.7358363702
 ----------------------------------------------------------------
 Molecular Point Group                 C1    NOp =  1
 Largest Abelian Subgroup              C1    NOp =  1
 Nuclear Repulsion Energy =        2552.81725574 hartrees
 There are      103 alpha and      103 beta electrons
 Requested basis set is 6-311++G(d,p)
 There are 208 shells and 606 basis functions

 Total QAlloc Memory Limit   8000 MB
 Mega-Array Size       188 MB
 MEM_STATIC part       192 MB
 A cutoff of  1.0D-08 yielded  12647 shell pairs
 There are    114394 function pairs (    122903 Cartesian)
 Smallest overlap matrix eigenvalue = 9.02E-08

 Q-Chem warning in module stvman/mkSTV.C, line 323:

 Overlap eigenvalue is smaller than square root of threshold
 Use THRESH >= 12 to get rid of this warning

 Linear dependence detected in AO basis
 Tighter screening thresholds may be required for diffuse basis sets
 Use S2THRESH > 14 and THRESH = 14 in case of SCF convergence issues
 Number of orthogonalized atomic orbitals = 601
 Maximum deviation from orthogonality = 2.711E-10

 Scale SEOQF with 1.000000e-02/1.000000e-01/1.000000e-01

 Standard Electronic Orientation quadrupole field applied
 Nucleus-field energy     =     0.0000000517 hartrees
 Guess from superposition of atomic densities
 Warning:  Energy on first SCF cycle will be non-variational
 SAD guess density has 204.000000 electrons

 -----------------------------------------------------------------------
  General SCF calculation program by
  Eric Jon Sundstrom, Paul Horn, Yuezhi Mao, Dmitri Zuev, Alec White,
  David Stuck, Shaama M.S., Shane Yost, Joonho Lee, David Small,
  Daniel Levine, Susi Lehtola, Hugh Burton, Evgeny Epifanovsky,
  Bang C. Huynh
 -----------------------------------------------------------------------
 Exchange:     0.2000 Hartree-Fock + 0.0800 Slater + 0.7200 B88
 Correlation:  0.1900 VWN1RPA + 0.8100 LYP
 Using SG-1 standard quadrature grid
 using 8 threads for integral computing
 -------------------------------------------------------
 OpenMP Integral computing Module                
 Release: version 1.0, May 2013, Q-Chem Inc. Pittsburgh 
 -------------------------------------------------------
 A restricted SCF calculation will be
 performed using DIIS
 SCF converges when DIIS error is below 1.0e-05
 ---------------------------------------
  Cycle       Energy         DIIS error
 ---------------------------------------
    1   -5995.7041319009      2.58e-02  
    2   -5990.3744380626      3.31e-03  
    3   -5979.8629119884      1.02e-02  
    4   -5990.3815513750      3.05e-03  
    5   -5990.8147805243      1.11e-03  
    6   -5990.8529584638      8.39e-04  
    7   -5990.8801134408      4.15e-04  
    8   -5990.8868846672      1.02e-04  
    9   -5990.8872297191      4.21e-05  
   10   -5990.8873118705      1.14e-05  
   11   -5990.8873138606      3.39e-06  Convergence criterion met
 ---------------------------------------
 SCF time:   CPU 646.31s  wall 84.00s 
 SCF   energy in the final basis set =    -5990.8873138606
 Total energy in the final basis set =    -5990.8873138606
 Exchange:     0.2000 Hartree-Fock + 0.0800 Slater + 0.7200 B88
 Correlation:  0.1900 VWN1RPA + 0.8100 LYP
 Using SG-1 standard quadrature grid
 in get_qchem_info
 IBasis=      401111
 IBasis=      401111
 USING 1082 GRID
 MICHARGE=          -2
 Set epsilon to    37.2190017700195     
==== cosmo data ====
outfile: 021-an-COSMO.out.cosmo.0
phsran:    0.00000D+00
ampran:    0.10000D-04
volume:   2466.5464045
area:   1147.6605305
routf:      0.8500000
rsolv [a.u]:      2.4566438
disex:     10.0000000
disex2:   4993.5022395
fepsi:      0.9731320
eps :    37.2190018
lcavity:     1
nppa:  1082
nspa:    92
nsph:    32
maxnps:  2344
natoms:    32
Atom   Radius [a.u.] nuc. charge
    1      4.0818081   35
    2      3.7794520    6
    3      3.7794520    6
    4      3.7794520    6
    5      3.2503287    8
    6      3.7794520    6
    7      3.7794520    6
    8      3.7794520    6
    9      3.2503287    8
   10      3.7794520    6
   11      3.7794520    6
   12      3.7794520    6
   13      3.7794520    6
   14      3.7794520    6
   15      3.7794520    6
   16      4.0818081   35
   17      3.7794520    6
   18      3.7794520    6
   19      3.7794520    6
   20      3.7794520    6
   21      3.7794520    6
   22      3.7794520    6
   23      2.4566438    1
   24      2.4566438    1
   25      2.4566438    1
   26      2.4566438    1
   27      2.4566438    1
   28      2.4566438    1
   29      2.4566438    1
   30      2.4566438    1
   31      2.4566438    1
   32      2.4566438    1
=== end cosmo data ===
 number of segments:         1292
 f_epsilon=  0.973132003749614     
Ediel:   -0.2398156
 A restricted SCF calculation will be
 performed using Roothaan-Hall, DIIS
 SCF converges when DIIS error is below 1.0e-05
 ---------------------------------------
  Cycle       Energy         DIIS error
 ---------------------------------------
 number of segments:         1292
 f_epsilon=  0.973132003749614     
Ediel:   -0.2884744
    1   -5991.1271339123      3.07e-04  Roothaan Step
 ---------------------------------------
  Cycle       Energy         DIIS error
 ---------------------------------------
 number of segments:         1292
 f_epsilon=  0.973132003749614     
Ediel:   -0.2642869
    1   -5991.1384781151      3.33e-04  
 number of segments:         1292
 f_epsilon=  0.973132003749614     
Ediel:   -0.2787865
    2   -5991.1286493400      5.82e-04  
 number of segments:         1292
 f_epsilon=  0.973132003749614     
Ediel:   -0.2798031
    3   -5991.1442649955      5.40e-05  
 number of segments:         1292
 f_epsilon=  0.973132003749614     
Ediel:   -0.2798739
    4   -5991.1443767463      2.07e-05  
 number of segments:         1292
 f_epsilon=  0.973132003749614     
Ediel:   -0.2800264
    5   -5991.1444000054      1.05e-05  
    6   -5991.1444107044      2.91e-06  Convergence criterion met
 ---------------------------------------
 SCF time:   CPU 443.84s  wall 58.00s 
before final oc correction, ETot:     -5991.1444107044
 number of outlayer segments:          548
SCF energy after oc correction:     -5991.1574805122
 SCF   energy in the final basis set =    -5991.1574805122
 Total energy in the final basis set =    -5991.1444107044
 
 --------------------------------------------------------------
 
                    Orbital Energies (a.u.)
 --------------------------------------------------------------
 
 Alpha MOs
 -- Occupied --
********-482.8031 -62.4561 -62.4560 -56.2763 -56.2762 -56.2730 -56.2729
-56.2726 -56.2726 -19.0319 -19.0319 -10.1989 -10.1989 -10.1909 -10.1909
-10.1736 -10.1736 -10.1645 -10.1645 -10.1639 -10.1639 -10.1633 -10.1633
-10.1615 -10.1615 -10.1609 -10.1609 -10.1582 -10.1582  -8.6648  -8.6647
 -6.4952  -6.4951  -6.4842  -6.4842  -6.4832  -6.4832  -2.6063  -2.6062
 -2.6033  -2.6032  -2.6026  -2.6026  -2.5939  -2.5938  -2.5938  -2.5937
 -0.9608  -0.9572  -0.8499  -0.8486  -0.8173  -0.7913  -0.7543  -0.7518
 -0.7352  -0.7350  -0.7317  -0.6831  -0.6528  -0.6181  -0.5946  -0.5940
 -0.5803  -0.5500  -0.5292  -0.5074  -0.4938  -0.4723  -0.4535  -0.4490
 -0.4408  -0.4310  -0.4219  -0.4133  -0.4085  -0.4084  -0.3901  -0.3836
 -0.3734  -0.3708  -0.3606  -0.3599  -0.3464  -0.3415  -0.3349  -0.3341
 -0.3310  -0.3288  -0.3015  -0.2849  -0.2752  -0.2720  -0.2546  -0.2542
 -0.2467  -0.2447  -0.2273  -0.2117  -0.2069  -0.2042  -0.1348
 -- Virtual --
 -0.0343  -0.0121  -0.0045  -0.0021  -0.0010   0.0014   0.0064   0.0077
  0.0203   0.0206   0.0224   0.0342   0.0355   0.0367   0.0392   0.0480
  0.0488   0.0533   0.0551   0.0592   0.0614   0.0652   0.0688   0.0716
  0.0790   0.0801   0.0854   0.0857   0.0920   0.0929   0.0986   0.1065
  0.1077   0.1128   0.1152   0.1166   0.1169   0.1277   0.1278   0.1303
  0.1304   0.1331   0.1358   0.1363   0.1378   0.1391   0.1434   0.1447
  0.1455   0.1468   0.1508   0.1519   0.1571   0.1598   0.1601   0.1693
  0.1742   0.1755   0.1806   0.1815   0.1849   0.1877   0.1891   0.1953
  0.1981   0.2023   0.2051   0.2094   0.2104   0.2138   0.2156   0.2202
  0.2212   0.2297   0.2316   0.2325   0.2390   0.2424   0.2449   0.2458
  0.2500   0.2502   0.2554   0.2626   0.2634   0.2715   0.2715   0.2720
  0.2757   0.2826   0.2861   0.2914   0.2926   0.2949   0.2966   0.3011
  0.3034   0.3088   0.3089   0.3135   0.3142   0.3145   0.3227   0.3245
  0.3297   0.3303   0.3411   0.3454   0.3456   0.3492   0.3517   0.3520
  0.3589   0.3591   0.3633   0.3747   0.3759   0.3771   0.3805   0.3862
  0.3893   0.3946   0.4082   0.4098   0.4187   0.4239   0.4337   0.4453
  0.4583   0.4601   0.4669   0.4729   0.4768   0.4797   0.5053   0.5253
  0.5337   0.5338   0.5487   0.5529   0.5537   0.5610   0.5628   0.5670
  0.5713   0.5741   0.5754   0.5781   0.5820   0.5831   0.5932   0.5940
  0.6047   0.6075   0.6077   0.6087   0.6219   0.6350   0.6362   0.6365
  0.6442   0.6455   0.6617   0.6676   0.6706   0.6749   0.6920   0.6923
  0.6987   0.7048   0.7052   0.7074   0.7100   0.7284   0.7285   0.7323
  0.7329   0.7369   0.7383   0.7444   0.7477   0.7497   0.7633   0.7693
  0.7733   0.7734   0.7852   0.7906   0.7954   0.7972   0.8030   0.8135
  0.8140   0.8198   0.8227   0.8466   0.8483   0.8619   0.8671   0.8685
  0.8718   0.8788   0.8889   0.8914   0.8920   0.9058   0.9072   0.9197
  0.9225   0.9306   0.9326   0.9452   0.9584   0.9606   0.9661   0.9710
  0.9877   0.9953   0.9968   1.0101   1.0214   1.0223   1.0275   1.0412
  1.0415   1.0467   1.0504   1.0558   1.0709   1.0756   1.0899   1.0971
  1.1111   1.1147   1.1191   1.1213   1.1421   1.1600   1.1648   1.1811
  1.1841   1.1914   1.2273   1.2380   1.2452   1.2595   1.2709   1.2755
  1.2922   1.3022   1.3249   1.3344   1.3497   1.3608   1.3824   1.3856
  1.3997   1.4239   1.4347   1.4729   1.5046   1.5131   1.5218   1.5291
  1.5440   1.5461   1.5536   1.5610   1.5675   1.5706   1.5815   1.5844
  1.5872   1.5909   1.6008   1.6059   1.6414   1.6543   1.6632   1.6675
  1.6707   1.6713   1.6828   1.6984   1.7196   1.7262   1.7472   1.7583
  1.7617   1.7687   1.7804   1.8017   1.8020   1.8059   1.8322   1.8501
  1.8568   1.8698   1.8725   1.8777   1.8800   1.8832   1.8998   1.9053
  1.9296   1.9296   1.9402   1.9472   1.9557   1.9653   1.9738   1.9741
  1.9767   1.9825   1.9907   1.9988   2.0251   2.0298   2.0300   2.0539
  2.0553   2.0599   2.0738   2.0983   2.1051   2.1067   2.1078   2.1320
  2.1464   2.1773   2.1961   2.2034   2.2283   2.2481   2.2615   2.2651
  2.2813   2.3068   2.3216   2.3330   2.3579   2.3750   2.3959   2.4081
  2.4279   2.4377   2.4641   2.4652   2.4836   2.4869   2.4878   2.4923
  2.4950   2.5013   2.5572   2.6616   2.6635   2.6750   2.6751   2.6883
  2.7020   2.7080   2.7084   2.7247   2.7256   2.7369   2.7483   2.7620
  2.7636   2.7732   2.7824   2.7996   2.8094   2.8137   2.8211   2.8282
  2.8336   2.8356   2.8427   2.8576   2.8753   2.8825   2.8926   2.9134
  2.9239   2.9482   2.9514   2.9622   2.9680   2.9706   2.9803   2.9868
  2.9906   3.0193   3.0237   3.0663   3.0776   3.1117   3.1202   3.1260
  3.1790   3.1813   3.2114   3.2143   3.2258   3.2478   3.2605   3.2877
  3.3578   3.3673   3.3752   3.3810   3.3851   3.3922   3.4530   3.4973
  3.5085   3.5237   3.5350   3.5504   3.5621   3.5766   3.5918   3.6331
  3.6359   3.7246   3.7568   3.8752   3.9322   4.0144   4.0151   4.0497
  4.0592   4.0887   4.0943   4.0962   4.1163   4.1348   4.1348   4.1593
  4.1733   4.1738   4.1791   4.1864   4.2625   4.3022   4.3053   4.3838
  4.4704   4.4734   4.5674   4.8042   4.8544   4.8631   5.1536   5.1567
  5.3172   5.3367   5.7754   5.8576   6.8457   6.8540   7.6268   7.6362
  7.7292   7.7576   7.7852   7.8041  23.5162  23.6837  23.7331  23.8417
 23.9350  23.9733  23.9778  23.9789  23.9883  23.9889  24.0347  24.0501
 24.0805  24.0868  24.1138  24.1147  24.1983  24.1987  48.0994  48.1030
 50.0889  50.1241 289.8261 289.8351 289.9263 289.9570 290.0068 290.0234
********1020.9329
 --------------------------------------------------------------
 
          Ground-State Mulliken Net Atomic Charges

     Atom                 Charge (a.u.)
  ----------------------------------------
      1 Br                   -0.267584
      2 C                    -0.389519
      3 C                     1.158715
      4 C                    -1.580038
      5 O                    -0.561589
      6 C                    -0.391970
      7 C                     1.155063
      8 C                    -1.581375
      9 O                    -0.561612
     10 C                     1.549523
     11 C                     0.095751
     12 C                    -0.291410
     13 C                    -0.397412
     14 C                    -0.532387
     15 C                    -0.797628
     16 Br                   -0.267824
     17 C                     1.546592
     18 C                     0.096402
     19 C                    -0.291670
     20 C                    -0.398225
     21 C                    -0.530576
     22 C                    -0.799244
     23 H                     0.216646
     24 H                     0.204656
     25 H                     0.192648
     26 H                     0.201653
     27 H                     0.203465
     28 H                     0.216613
     29 H                     0.204656
     30 H                     0.192669
     31 H                     0.201682
     32 H                     0.203294
  ----------------------------------------
  Sum of atomic charges =    -2.000035

 -----------------------------------------------------------------
                    Cartesian Multipole Moments
 -----------------------------------------------------------------
    Charge (ESU x 10^10)
                -9.6066
    Dipole Moment (Debye)
         X      -0.0001      Y       0.0016      Z      -1.8805
       Tot       1.8805
    Quadrupole Moments (Debye-Ang)
        XX    -185.3308     XY       4.3392     YY    -222.1635
        XZ       0.0078     YZ      -0.0032     ZZ    -160.1885
    Octopole Moments (Debye-Ang^2)
       XXX      -0.0017    XXY       0.0302    XYY      -0.0057
       YYY       0.0122    XXZ     -18.6893    XYZ     -30.4932
       YYZ       7.2881    XZZ      -0.0039    YZZ      -0.0058
       ZZZ      17.8546
    Hexadecapole Moments (Debye-Ang^3)
      XXXX   -9501.1544   XXXY     177.0578   XXYY   -2197.2968
      XYYY     426.2401   YYYY   -3627.0568   XXXZ       0.2507
      XXYZ      -0.0624   XYYZ       0.0113   YYYZ       0.0035
      XXZZ   -1712.4095   XYZZ     140.2422   YYZZ    -628.2444
      XZZZ       0.0343   YZZZ       0.0017   ZZZZ    -572.4472
 -----------------------------------------------------------------
 Total job time:  145.41s(wall), 1101.09s(cpu) 
 Thu Feb 22 02:59:23 2024

        *************************************************************
        *                                                           *
        *  Thank you very much for using Q-Chem.  Have a nice day.  *
        *                                                           *
        *************************************************************


