
Running Job 1 of 1 241-an-COSMO.in
qchem 241-an-COSMO.in_219520.0 /expanse/lustre/scratch/selhajj/temp_project/qcscratch/28872221/qchem219520/ 0
/cm/shared/apps/spack/cpu/opt/spack/linux-centos8-zen2/gcc-10.2.0/qchem-5.4-akfmr7b3t57bfs6qan3padb2wnb2i7cl/exe/qcprog.exe_s 241-an-COSMO.in_219520.0 /expanse/lustre/scratch/selhajj/temp_project/qcscratch/28872221/qchem219520/
                  Welcome to Q-Chem
     A Quantum Leap Into The Future Of Chemistry


 Q-Chem 5.4, Q-Chem, Inc., Pleasanton, CA (2021)

 License issued to: University of California, San Diego (site)

 E. Epifanovsky,  A. T. B. Gilbert,  Xintian Feng,  Joonho Lee,  Yuezhi Mao,  
 N. Mardirossian,  P. Pokhilko,  A. White,  M. Wormit,  M. P. Coons,  
 A. L. Dempwolff,  Zhengting Gan,  D. Hait,  P. R. Horn,  L. D. Jacobson,  
 I. Kaliman,  J. Kussmann,  A. W. Lange,  Ka Un Lao,  D. S. Levine,  Jie Liu,  
 S. C. McKenzie,  A. F. Morrison,  K. Nanda,  F. Plasser,  D. R. Rehn,  
 M. L. Vidal,  Zhi-Qiang You,  Ying Zhu,  B. Alam,  B. Albrecht,  
 A. Aldossary,  E. Alguire,  J. H. Andersen,  D. Barton,  K. Begam,  A. Behn,  
 Y. A. Bernard,  E. J. Berquist,  H. Burton,  A. Carreras,  K. Carter-Fenk,  
 R. Chakraborty,  A. D. Chien,  K. D. Closser,  V. Cofer-Shabica,  
 S. Dasgupta,  Jia Deng,  M. de Wergifosse,  M. Diedenhofen,  Hainam Do,  
 S. Ehlert,  Po-Tung Fang,  S. Fatehi,  Qingguo Feng,  J. Gayvert,  
 Qinghui Ge,  G. Gidofalvi,  M. Goldey,  J. Gomes,  C. Gonzalez-Espinoza,  
 S. Gulania,  A. Gunina,  M. W. D. Hanson-Heine,  P. H. P. Harbach,  
 A. W. Hauser,  M. F. Herbst,  M. Hernandez Vera,  M. Hodecker,  
 Z. C. Holden,  S. Houck,  Xunkun Huang,  Kerwin Hui,  B. C. Huynh,  
 M. Ivanov,  Hyunjun Ji,  Hanjie Jiang,  B. Kaduk,  S. Kaehler,  
 K. Khistyaev,  Jaehoon Kim,  P. Klunzinger,  Z. Koczor-Benda,  
 Joong Hoon Koh,  D. Kosenkov,  L. Koulias,  T. Kowalczyk,  C. M. Krauter,  
 K. Kue,  A. Kunitsa,  T. Kus,  A. Landau,  K. V. Lawler,  D. Lefrancois,  
 S. Lehtola,  Rain Li,  Yi-Pei Li,  Jiashu Liang,  M. Liebenthal,  
 Hung-Hsuan Lin,  You-Sheng Lin,  Fenglai Liu,  Kuan-Yu Liu,  
 M. Loipersberger,  A. Luenser,  A. Manjanath,  P. Manohar,  E. Mansoor,  
 S. F. Manzer,  Shan-Ping Mao,  A. V. Marenich,  T. Markovich,  S. Mason,  
 S. A. Maurer,  P. F. McLaughlin,  M. F. S. J. Menger,  J.-M. Mewes,  
 S. A. Mewes,  P. Morgante,  J. W. Mullinax,  T. S. Nguyen-Beck,  
 K. J. Oosterbaan,  G. Paran,  Alexander C. Paul,  Suranjan K. Paul,  
 F. Pavosevic,  Zheng Pei,  S. Prager,  E. I. Proynov,  E. Ramos,  B. Rana,  
 A. E. Rask,  A. Rettig,  R. M. Richard,  F. Rob,  E. Rossomme,  T. Scheele,  
 M. Scheurer,  M. Schneider,  N. Sergueev,  S. M. Sharada,  W. Skomorowski,  
 D. W. Small,  C. J. Stein,  Yu-Chuan Su,  E. J. Sundstrom,  Zhen Tao,  
 J. Thirman,  T. Tsuchimochi,  N. M. Tubman,  S. P. Veccham,  O. Vydrov,  
 J. Wenzel,  J. Witte,  A. Yamada,  Kun Yao,  S. Yeganeh,  S. R. Yost,  
 A. Zech,  Igor Ying Zhang,  Xing Zhang,  Yu Zhang,  D. Zuev,  
 A. Aspuru-Guzik,  A. T. Bell,  N. A. Besley,  K. B. Bravaya,  B. R. Brooks,  
 D. Casanova,  Jeng-Da Chai,  S. Coriani,  C. J. Cramer,  
 A. E. DePrince, III,  R. A. DiStasio Jr.,  A. Dreuw,  B. D. Dunietz,  
 T. R. Furlani,  W. A. Goddard III,  S. Grimme,  S. Hammes-Schiffer,  
 T. Head-Gordon,  W. J. Hehre,  Chao-Ping Hsu,  T.-C. Jagau,  Yousung Jung,  
 A. Klamt,  Jing Kong,  D. S. Lambrecht,  WanZhen Liang,  N. J. Mayhall,  
 C. W. McCurdy,  J. B. Neaton,  C. Ochsenfeld,  J. A. Parkhill,  R. Peverati,  
 V. A. Rassolov,  Yihan Shao,  L. V. Slipchenko,  T. Stauch,  R. P. Steele,  
 J. E. Subotnik,  A. J. W. Thom,  A. Tkatchenko,  D. G. Truhlar,  
 T. Van Voorhis,  T. A. Wesolowski,  K. B. Whaley,  H. L. Woodcock III,  
 P. M. Zimmerman,  S. Faraji,  P. M. W. Gill,  M. Head-Gordon,  
 J. M. Herbert,  A. I. Krylov

 Contributors to earlier versions of Q-Chem not listed above: 
 R. D. Adamson,  B. Austin,  R. Baer,  J. Baker,  G. J. O. Beran,  
 K. Brandhorst,  S. T. Brown,  E. F. C. Byrd,  A. K. Chakraborty,  
 G. K. L. Chan,  Chun-Min Chang,  Yunqing Chen,  C.-L. Cheng,  
 Siu Hung Chien,  D. M. Chipman,  D. L. Crittenden,  H. Dachsel,  
 R. J. Doerksen,  A. D. Dutoi,  R. G. Edgar,  J. Fosso-Tande,  
 L. Fusti-Molnar,  D. Ghosh,  A. Ghysels,  A. Golubeva-Zadorozhnaya,  
 J. Gonthier,  M. S. Gordon,  S. R. Gwaltney,  G. Hawkins,  J. E. Herr,  
 A. Heyden,  S. Hirata,  E. G. Hohenstein,  G. Kedziora,  F. J. Keil,  
 C. Kelley,  Jihan Kim,  R. A. King,  R. Z. Khaliullin,  P. P. Korambath,  
 W. Kurlancheek,  A. Laurent,  A. M. Lee,  M. S. Lee,  S. V. Levchenko,  
 Ching Yeh Lin,  D. Liotard,  E. Livshits,  R. C. Lochan,  I. Lotan,  
 L. A. Martinez-Martinez,  P. E. Maslen,  N. Nair,  D. P. O'Neill,  
 D. Neuhauser,  E. Neuscamman,  C. M. Oana,  R. Olivares-Amaya,  R. Olson,  
 T. M. Perrine,  B. Peters,  P. A. Pieniazek,  A. Prociuk,  Y. M. Rhee,  
 J. Ritchie,  M. A. Rohrdanz,  E. Rosta,  N. J. Russ,  H. F. Schaefer III,  
 M. W. Schmidt,  N. E. Schultz,  S. Sharma,  N. Shenvi,  C. D. Sherrill,  
 A. C. Simmonett,  A. Sodt,  T. Stein,  D. Stuck,  K. S. Thanthiriwatte,  
 V. Vanovschi,  L. Vogt,  Tao Wang,  A. Warshel,  M. A. Watson,  
 C. F. Williams,  Q. Wu,  X. Xu,  Jun Yang,  W. Zhang,  Yan Zhao

 Please cite Q-Chem as follows:
 Y. Shao et al., Mol. Phys. 113, 184-215 (2015)
 DOI: 10.1080/00268976.2014.952696

 Q-Chem 5.4.0 for Intel X86 EM64T Linux

 Parts of Q-Chem use Armadillo 9.800.1 (Horizon Scraper).
 http://arma.sourceforge.net/

 Q-Chem begins on Thu Feb 22 07:56:11 2024  

 Host: 
0

     Scratch files written to /expanse/lustre/scratch/selhajj/temp_project/qcscratch/28872221/qchem219520//
 May1621 |scratch|qcdevops|jenkins|workspace|build_RNUM    
 Processing $rem in /cm/shared/apps/spack/cpu/opt/spack/linux-centos8-zen2/gcc-10.2.0/qchem-5.4-akfmr7b3t57bfs6qan3padb2wnb2i7cl/config/preferences:
 Processing $rem in /home/selhajj/.qchemrc:

 Checking the input file for inconsistencies... 
 Q-Chem warning in module libgen/CheckREMs.C, line 172:

 Found a $solvent section, which is only used for PCM and Kirkwood-Onsager solvation models

	...done.

--------------------------------------------------------------
User input:
--------------------------------------------------------------
$molecule
-2 1
C                 -2.4010860000      1.9051610000     -0.0312620000
C                 -1.2424200000      0.9349060000     -0.0133570000
C                 -1.4798560000     -0.4555920000      0.1425560000
C                 -2.8930220000     -0.9729020000      0.2824780000
C                 -0.4355010000     -1.4298260000      0.1778210000
O                 -0.6463740000     -2.7000890000      0.3225510000
C                  0.9087740000     -0.8880540000      0.0303050000
C                  2.0221950000     -1.7616350000      0.0321180000
C                  3.3211290000     -1.3013640000     -0.0940250000
C                  3.5595100000      0.0897280000     -0.2324550000
C                  2.4895060000      0.9671630000     -0.2462100000
C                  1.1501550000      0.5255050000     -0.1279990000
C                  0.0635260000      1.4953080000     -0.1601380000
O                  0.2858030000      2.7635570000     -0.3055150000
H                 -3.0813960000      1.7389180000     -0.8832480000
H                 -3.0235970000      1.8350410000      0.8750750000
H                 -1.9960500000      2.9175040000     -0.1057660000
H                 -2.8524730000     -2.0637650000      0.3356050000
H                 -3.5348550000     -0.6799250000     -0.5637550000
H                 -3.3945170000     -0.5986360000      1.1906460000
H                  1.8052810000     -2.8200740000      0.1407840000
H                  4.1582150000     -1.9990650000     -0.0846140000
H                  4.5796570000      0.4603770000     -0.3299690000
H                  2.6373950000      2.0377560000     -0.3516270000
$end
$rem
MAX_SCF_CYCLES=200
BASIS  =  6-311++G(d,p)
GUI  =  2
JOB_TYPE  =  SP
METHOD  =  B3LYP
SOLVENT_METHOD = COSMO
$end
$solvent
dielectric 37.219
opticaldielectric 1.43
$end





--------------------------------------------------------------
 ----------------------------------------------------------------
             Standard Nuclear Orientation (Angstroms)
    I     Atom           X                Y                Z
 ----------------------------------------------------------------
    1      C       2.9271193416    -1.4682694708     0.0036242189
    2      C       1.6199978395    -0.7095604067    -0.0003992643
    3      C       1.6199573480     0.7096537168     0.0004228649
    4      C       2.9270981045     1.4683319804    -0.0036120834
    5      C       0.4254127345     1.4932905056     0.0058471050
    6      O       0.4195487948     2.7890282021     0.0092706035
    7      C      -0.8100715144     0.7213440512     0.0003254753
    8      C      -2.0566848555     1.3911439832    -0.0129637206
    9      C      -3.2606861438     0.7089780689    -0.0083215804
   10      C      -3.2606563139    -0.7090656016     0.0083357376
   11      C      -2.0566451204    -1.3912133898     0.0129595984
   12      C      -0.8100283366    -0.7213872391    -0.0003164325
   13      C       0.4254824856    -1.4932655712    -0.0058124735
   14      O       0.4197483732    -2.7890092679    -0.0093416772
   15      H       3.5278175211    -1.2846294227    -0.9028947303
   16      H       3.5696868096    -1.1963281386     0.8562897324
   17      H       2.7005652232    -2.5361140117     0.0567714193
   18      H       2.7006971459     2.5361996927    -0.0569969056
   19      H       3.5697712494     1.1962085036    -0.8561468069
   20      H       3.5276879931     1.2848015381     0.9030023619
   21      H      -2.0215911668     2.4764023147    -0.0246207524
   22      H      -4.2046234738     1.2535270245    -0.0144023465
   23      H      -4.2045853893    -1.2536298382     0.0144394872
   24      H      -2.0215766707    -2.4764728974     0.0245904587
 ----------------------------------------------------------------
 Molecular Point Group                 C1    NOp =  1
 Largest Abelian Subgroup              C1    NOp =  1
 Nuclear Repulsion Energy =         827.48654621 hartrees
 There are       50 alpha and       50 beta electrons
 Requested basis set is 6-311++G(d,p)
 There are 134 shells and 378 basis functions

 Total QAlloc Memory Limit   8000 MB
 Mega-Array Size       188 MB
 MEM_STATIC part       192 MB
 A cutoff of  1.0D-08 yielded   6841 shell pairs
 There are     56626 function pairs (     60634 Cartesian)
 Smallest overlap matrix eigenvalue = 9.68E-08

 Q-Chem warning in module stvman/mkSTV.C, line 323:

 Overlap eigenvalue is smaller than square root of threshold
 Use THRESH >= 12 to get rid of this warning

 Linear dependence detected in AO basis
 Tighter screening thresholds may be required for diffuse basis sets
 Use S2THRESH > 14 and THRESH = 14 in case of SCF convergence issues
 Number of orthogonalized atomic orbitals = 374
 Maximum deviation from orthogonality = 4.565E-10

 Scale SEOQF with 1.000000e-01/1.000000e-01/1.000000e-01

 Standard Electronic Orientation quadrupole field applied
 Nucleus-field energy     =     0.0000000332 hartrees
 Guess from superposition of atomic densities
 Warning:  Energy on first SCF cycle will be non-variational
 SAD guess density has 98.000000 electrons

 -----------------------------------------------------------------------
  General SCF calculation program by
  Eric Jon Sundstrom, Paul Horn, Yuezhi Mao, Dmitri Zuev, Alec White,
  David Stuck, Shaama M.S., Shane Yost, Joonho Lee, David Small,
  Daniel Levine, Susi Lehtola, Hugh Burton, Evgeny Epifanovsky,
  Bang C. Huynh
 -----------------------------------------------------------------------
 Exchange:     0.2000 Hartree-Fock + 0.0800 Slater + 0.7200 B88
 Correlation:  0.1900 VWN1RPA + 0.8100 LYP
 Using SG-1 standard quadrature grid
 using 8 threads for integral computing
 -------------------------------------------------------
 OpenMP Integral computing Module                
 Release: version 1.0, May 2013, Q-Chem Inc. Pittsburgh 
 -------------------------------------------------------
 A restricted SCF calculation will be
 performed using DIIS
 SCF converges when DIIS error is below 1.0e-05
 ---------------------------------------
  Cycle       Energy         DIIS error
 ---------------------------------------
    1    -616.8664728304      3.29e-02  
    2    -613.4160256625      4.99e-03  
    3    -604.4672584310      1.55e-02  
    4    -613.5072706315      4.41e-03  
    5    -613.8274478956      1.53e-03  
    6    -613.8684256024      8.53e-04  
    7    -613.8791971599      4.15e-04  
    8    -613.8818404205      1.50e-04  
    9    -613.8821842252      3.44e-05  
   10    -613.8822046638      1.16e-05  
   11    -613.8822084156      6.60e-06  Convergence criterion met
 ---------------------------------------
 SCF time:   CPU 170.03s  wall 21.00s 
 SCF   energy in the final basis set =     -613.8822084156
 Total energy in the final basis set =     -613.8822084156
 Exchange:     0.2000 Hartree-Fock + 0.0800 Slater + 0.7200 B88
 Correlation:  0.1900 VWN1RPA + 0.8100 LYP
 Using SG-1 standard quadrature grid
 in get_qchem_info
 IBasis=      401111
 IBasis=      401111
 USING 1082 GRID
 MICHARGE=          -2
 Set epsilon to    37.2190017700195     
==== cosmo data ====
outfile: 241-an-COSMO.out.cosmo.0
phsran:    0.00000D+00
ampran:    0.10000D-04
volume:   1517.0702967
area:    758.9413231
routf:      0.8500000
rsolv [a.u]:      2.4566438
disex:     10.0000000
disex2:   4467.3389077
fepsi:      0.9731320
eps :    37.2190018
lcavity:     1
nppa:  1082
nspa:    92
nsph:    32
maxnps:  1608
natoms:    24
Atom   Radius [a.u.] nuc. charge
    1      3.7794520    6
    2      3.7794520    6
    3      3.7794520    6
    4      3.7794520    6
    5      3.7794520    6
    6      3.2503287    8
    7      3.7794520    6
    8      3.7794520    6
    9      3.7794520    6
   10      3.7794520    6
   11      3.7794520    6
   12      3.7794520    6
   13      3.7794520    6
   14      3.2503287    8
   15      2.4566438    1
   16      2.4566438    1
   17      2.4566438    1
   18      2.4566438    1
   19      2.4566438    1
   20      2.4566438    1
   21      2.4566438    1
   22      2.4566438    1
   23      2.4566438    1
   24      2.4566438    1
=== end cosmo data ===
 number of segments:          927
 f_epsilon=  0.973132003749614     
Ediel:   -0.2724472
 A restricted SCF calculation will be
 performed using Roothaan-Hall, DIIS
 SCF converges when DIIS error is below 1.0e-05
 ---------------------------------------
  Cycle       Energy         DIIS error
 ---------------------------------------
 number of segments:          927
 f_epsilon=  0.973132003749614     
Ediel:   -0.3092392
    1    -614.1546573576      4.50e-04  Roothaan Step
 ---------------------------------------
  Cycle       Energy         DIIS error
 ---------------------------------------
 number of segments:          927
 f_epsilon=  0.973132003749614     
Ediel:   -0.2934820
    1    -614.1649244183      4.67e-04  
 number of segments:          927
 f_epsilon=  0.973132003749614     
Ediel:   -0.3029902
    2    -614.1581131072      8.23e-04  
 number of segments:          927
 f_epsilon=  0.973132003749614     
Ediel:   -0.3037973
    3    -614.1689966353      9.07e-05  
 number of segments:          927
 f_epsilon=  0.973132003749614     
Ediel:   -0.3038495
    4    -614.1691299722      3.08e-05  
 number of segments:          927
 f_epsilon=  0.973132003749614     
Ediel:   -0.3039789
    5    -614.1691426223      1.49e-05  
    6    -614.1691468938      2.50e-06  Convergence criterion met
 ---------------------------------------
 SCF time:   CPU 120.08s  wall 16.00s 
before final oc correction, ETot:      -614.1691468938
 number of outlayer segments:          416
SCF energy after oc correction:      -614.1841776742
 SCF   energy in the final basis set =     -614.1841776742
 Total energy in the final basis set =     -614.1691468938
 
 --------------------------------------------------------------
 
                    Orbital Energies (a.u.)
 --------------------------------------------------------------
 
 Alpha MOs
 -- Occupied --
-19.0176 -19.0175 -10.1670 -10.1670 -10.1483 -10.1478 -10.1444 -10.1444
-10.1359 -10.1355 -10.1331 -10.1331 -10.1256 -10.1252  -0.9340  -0.9307
 -0.8237  -0.7772  -0.7245  -0.7209  -0.6955  -0.6426  -0.6216  -0.5675
 -0.5551  -0.5180  -0.4776  -0.4581  -0.4298  -0.4215  -0.4045  -0.3982
 -0.3804  -0.3707  -0.3700  -0.3623  -0.3590  -0.3510  -0.3503  -0.3255
 -0.3154  -0.3101  -0.3046  -0.2991  -0.2293  -0.2245  -0.2030  -0.2016
 -0.1932  -0.1119
 -- Virtual --
 -0.0051   0.0006   0.0105   0.0125   0.0179   0.0310   0.0323   0.0380
  0.0478   0.0551   0.0601   0.0613   0.0637   0.0739   0.0807   0.0860
  0.0943   0.0948   0.0961   0.1010   0.1065   0.1165   0.1220   0.1240
  0.1253   0.1277   0.1327   0.1393   0.1430   0.1433   0.1438   0.1470
  0.1506   0.1642   0.1660   0.1696   0.1751   0.1751   0.1800   0.1836
  0.1866   0.1950   0.1958   0.2006   0.2037   0.2076   0.2105   0.2139
  0.2356   0.2375   0.2438   0.2478   0.2524   0.2535   0.2535   0.2702
  0.2746   0.2777   0.2842   0.2856   0.2904   0.2911   0.2953   0.3074
  0.3085   0.3144   0.3160   0.3216   0.3296   0.3311   0.3392   0.3393
  0.3516   0.3545   0.3617   0.3629   0.3663   0.3757   0.3882   0.3932
  0.4137   0.4199   0.4237   0.4419   0.4507   0.4681   0.4743   0.4964
  0.4989   0.5059   0.5299   0.5419   0.5591   0.5602   0.5680   0.5826
  0.5833   0.5859   0.6041   0.6127   0.6154   0.6178   0.6220   0.6492
  0.6586   0.6612   0.6664   0.6704   0.6734   0.6837   0.6919   0.6963
  0.6981   0.7076   0.7213   0.7418   0.7518   0.7533   0.7572   0.7622
  0.7715   0.7865   0.7934   0.7957   0.8033   0.8292   0.8506   0.8562
  0.8783   0.8816   0.8958   0.9117   0.9341   0.9364   0.9554   0.9590
  0.9753   0.9965   1.0082   1.0147   1.0197   1.0286   1.0367   1.0473
  1.0791   1.0797   1.0890   1.0901   1.0982   1.1207   1.1373   1.1559
  1.1678   1.1885   1.1931   1.2046   1.2693   1.2699   1.2721   1.2959
  1.2968   1.3288   1.3470   1.3488   1.3851   1.3871   1.4225   1.4263
  1.4758   1.4826   1.4938   1.5132   1.5389   1.5470   1.5481   1.5488
  1.5733   1.5876   1.6024   1.6117   1.6150   1.6269   1.6538   1.6581
  1.6816   1.6848   1.6991   1.7051   1.7150   1.7328   1.7348   1.7596
  1.7680   1.7956   1.7979   1.8370   1.8499   1.8656   1.8692   1.8733
  1.8826   1.9219   1.9328   1.9470   1.9515   1.9710   1.9807   1.9821
  2.0002   2.0003   2.0077   2.0479   2.0523   2.0705   2.1025   2.1207
  2.1383   2.1711   2.2047   2.2249   2.2401   2.2825   2.2830   2.3023
  2.3254   2.3364   2.3620   2.4030   2.4154   2.4461   2.4697   2.4870
  2.5101   2.5134   2.5395   2.5415   2.5464   2.5659   2.6130   2.6617
  2.6704   2.6716   2.6771   2.6786   2.6961   2.7187   2.7389   2.7571
  2.7689   2.7700   2.7886   2.7983   2.8031   2.8128   2.8520   2.8647
  2.8773   2.9002   2.9218   2.9234   2.9244   2.9594   2.9607   2.9891
  3.0126   3.0172   3.0279   3.1098   3.1139   3.1481   3.1912   3.2272
  3.2324   3.2459   3.2871   3.3353   3.3481   3.3620   3.3709   3.3717
  3.4524   3.5069   3.5158   3.5313   3.5666   3.5986   3.6058   3.6482
  3.7574   3.7760   3.8266   3.8731   3.8841   3.9459   3.9802   4.0654
  4.1044   4.2242   4.3049   4.3482   4.3938   4.4515   4.8601   4.8847
  5.1348   5.1553   5.3177   5.3440   5.7797   5.8502  23.5783  23.8135
 23.9489  23.9587  23.9719  23.9937  23.9956  24.0351  24.0440  24.1150
 24.1378  24.2041  50.0909  50.1476
 --------------------------------------------------------------
 
          Ground-State Mulliken Net Atomic Charges

     Atom                 Charge (a.u.)
  ----------------------------------------
      1 C                    -0.510581
      2 C                     0.795317
      3 C                     0.797045
      4 C                    -0.510850
      5 C                    -1.138587
      6 O                    -0.745794
      7 C                     0.564734
      8 C                    -0.210196
      9 C                    -0.532847
     10 C                    -0.532670
     11 C                    -0.210658
     12 C                     0.562243
     13 C                    -1.137202
     14 O                    -0.745806
     15 H                     0.140338
     16 H                     0.134434
     17 H                     0.169085
     18 H                     0.169113
     19 H                     0.134374
     20 H                     0.140312
     21 H                     0.156547
     22 H                     0.177524
     23 H                     0.177540
     24 H                     0.156583
  ----------------------------------------
  Sum of atomic charges =    -2.000000

 -----------------------------------------------------------------
                    Cartesian Multipole Moments
 -----------------------------------------------------------------
    Charge (ESU x 10^10)
                -9.6064
    Dipole Moment (Debye)
         X      -1.4981      Y       0.0005      Z      -0.0006
       Tot       1.4981
    Quadrupole Moments (Debye-Ang)
        XX    -100.8138     XY       0.0014     YY    -152.4835
        XZ       0.0048     YZ      -0.2819     ZZ     -94.0283
    Octopole Moments (Debye-Ang^2)
       XXX      -4.5658    XXY       0.0101    XYY     -32.6993
       YYY      -0.0006    XXZ      -0.0112    XYZ       0.1629
       YYZ      -0.0016    XZZ      10.5196    YZZ       0.0009
       ZZZ      -0.0023
    Hexadecapole Moments (Debye-Ang^3)
      XXXX   -2456.7255   XXXY       0.0127   XXYY    -668.8447
      XYYY       0.0187   YYYY   -2013.8833   XXXZ       0.0459
      XXYZ       0.0561   XYYZ       0.0082   YYYZ      -3.1777
      XXZZ    -453.1533   XYZZ      -0.0040   YYZZ    -282.3795
      XZZZ       0.0142   YZZZ       0.2503   ZZZZ    -134.4418
 -----------------------------------------------------------------
 Total job time:  39.11s(wall), 296.19s(cpu) 
 Thu Feb 22 07:56:50 2024

        *************************************************************
        *                                                           *
        *  Thank you very much for using Q-Chem.  Have a nice day.  *
        *                                                           *
        *************************************************************


