 Entering Gaussian System, Link 0=g16
 Input=285-an-PCM.com
 Output=285-an-PCM.log
 Initial command:
 /sysapps/ubuntu-applications/gaussian/Gaussian/AVX2/g16/l1.exe "/scratch/selhajj1/4304590/Gau-3439955.inp" -scrdir="/scratch/selhajj1/4304590/"
 Entering Link 1 = /sysapps/ubuntu-applications/gaussian/Gaussian/AVX2/g16/l1.exe PID=   3439959.
  
 Copyright (c) 1988,1990,1992,1993,1995,1998,2003,2009,2016,
            Gaussian, Inc.  All Rights Reserved.
  
 This is part of the Gaussian(R) 16 program.  It is based on
 the Gaussian(R) 09 system (copyright 2009, Gaussian, Inc.),
 the Gaussian(R) 03 system (copyright 2003, Gaussian, Inc.),
 the Gaussian(R) 98 system (copyright 1998, Gaussian, Inc.),
 the Gaussian(R) 94 system (copyright 1995, Gaussian, Inc.),
 the Gaussian 92(TM) system (copyright 1992, Gaussian, Inc.),
 the Gaussian 90(TM) system (copyright 1990, Gaussian, Inc.),
 the Gaussian 88(TM) system (copyright 1988, Gaussian, Inc.),
 the Gaussian 86(TM) system (copyright 1986, Carnegie Mellon
 University), and the Gaussian 82(TM) system (copyright 1983,
 Carnegie Mellon University). Gaussian is a federally registered
 trademark of Gaussian, Inc.
  
 This software contains proprietary and confidential information,
 including trade secrets, belonging to Gaussian, Inc.
  
 This software is provided under written license and may be
 used, copied, transmitted, or stored only in accord with that
 written license.
  
 The following legend is applicable only to US Government
 contracts under FAR:
  
                    RESTRICTED RIGHTS LEGEND
  
 Use, reproduction and disclosure by the US Government is
 subject to restrictions as set forth in subparagraphs (a)
 and (c) of the Commercial Computer Software - Restricted
 Rights clause in FAR 52.227-19.
  
 Gaussian, Inc.
 340 Quinnipiac St., Bldg. 40, Wallingford CT 06492
  
  
 ---------------------------------------------------------------
 Warning -- This program may not be used in any manner that
 competes with the business of Gaussian, Inc. or will provide
 assistance to any competitor of Gaussian, Inc.  The licensee
 of this program is prohibited from giving any competitor of
 Gaussian, Inc. access to this program.  By using this program,
 the user acknowledges that Gaussian, Inc. is engaged in the
 business of creating and licensing software in the field of
 computational chemistry and represents and warrants to the
 licensee that it is not a competitor of Gaussian, Inc. and that
 it will not use this program in any manner prohibited above.
 ---------------------------------------------------------------
  

 Cite this work as:
 Gaussian 16, Revision A.03,
 M. J. Frisch, G. W. Trucks, H. B. Schlegel, G. E. Scuseria, 
 M. A. Robb, J. R. Cheeseman, G. Scalmani, V. Barone, 
 G. A. Petersson, H. Nakatsuji, X. Li, M. Caricato, A. V. Marenich, 
 J. Bloino, B. G. Janesko, R. Gomperts, B. Mennucci, H. P. Hratchian, 
 J. V. Ortiz, A. F. Izmaylov, J. L. Sonnenberg, D. Williams-Young, 
 F. Ding, F. Lipparini, F. Egidi, J. Goings, B. Peng, A. Petrone, 
 T. Henderson, D. Ranasinghe, V. G. Zakrzewski, J. Gao, N. Rega, 
 G. Zheng, W. Liang, M. Hada, M. Ehara, K. Toyota, R. Fukuda, 
 J. Hasegawa, M. Ishida, T. Nakajima, Y. Honda, O. Kitao, H. Nakai, 
 T. Vreven, K. Throssell, J. A. Montgomery, Jr., J. E. Peralta, 
 F. Ogliaro, M. J. Bearpark, J. J. Heyd, E. N. Brothers, K. N. Kudin, 
 V. N. Staroverov, T. A. Keith, R. Kobayashi, J. Normand, 
 K. Raghavachari, A. P. Rendell, J. C. Burant, S. S. Iyengar, 
 J. Tomasi, M. Cossi, J. M. Millam, M. Klene, C. Adamo, R. Cammi, 
 J. W. Ochterski, R. L. Martin, K. Morokuma, O. Farkas, 
 J. B. Foresman, and D. J. Fox, Gaussian, Inc., Wallingford CT, 2016.
 
 ******************************************
 Gaussian 16:  ES64L-G16RevA.03 25-Dec-2016
                21-Jan-2024 
 ******************************************
 %chk=285-an-PCM.chk
 %nproc=8
 Will use up to    8 processors via shared memory.
 %mem=30GB
 ----------------------------------------------------------------
 #P UB3LYP/6-311++G(d,p) SCRF=(PCM,Solvent=n,n-DiMethylFormamide)
 ----------------------------------------------------------------
 1/38=1,172=1/1;
 2/12=2,17=6,18=5,40=1/2;
 3/5=4,6=6,7=1111,11=2,25=1,30=1,70=2201,72=148,74=-5,116=2/1,2,3;
 4//1;
 5/5=2,38=5,53=148/2;
 6/7=2,8=2,9=2,10=2,28=1/1;
 99/5=1,9=1/99;
 Leave Link    1 at Sun Jan 21 09:06:02 2024, MaxMem=  4026531840 cpu:               0.8 elap:               0.1
 (Enter /sysapps/ubuntu-applications/gaussian/Gaussian/AVX2/g16/l101.exe)
 -------
 Reduced
 -------
 Symbolic Z-matrix:
 Charge = -2 Multiplicity = 1
 C                    -0.06181   3.89102   0.17003 
 C                    -0.47049   3.52611   1.43776 
 C                    -0.02458   2.30434   2.00189 
 C                     0.80326   3.06867  -0.5969 
 C                     1.25934   1.8247   -0.02255 
 C                     0.8226    1.48482   1.2714 
 C                     1.21825   3.45713  -1.9114 
 C                     2.08977   2.54543  -2.58472 
 C                     2.54766   1.3358   -2.07054 
 C                     2.15483   0.91685  -0.74982 
 O                     0.87478   4.54484  -2.53455 
 O                     2.55314  -0.18271  -0.23918 
 H                    -0.39092   4.82173  -0.28137 
 H                    -1.1344    4.17623   2.00444 
 H                    -0.34419   2.01408   3.00012 
 H                     1.18292   0.54382   1.67535 
 O                     2.44698   2.97787  -3.84182 
 C                     3.45198   0.43763  -2.87683 
 C                     4.95534   0.65955  -2.61085 
 C                     5.8595   -0.28351  -3.41649 
 C                     7.36063  -0.0727   -3.17868 
 C                     8.26282  -1.00887  -3.99559 
 H                     1.95016   3.83236  -3.87305 
 H                     3.259     0.5839   -3.94621 
 H                     3.21184  -0.60038  -2.61935 
 H                     5.13813   0.52029  -1.53973 
 H                     5.20922   1.70007  -2.84795 
 H                     5.64637  -0.16005  -4.48799 
 H                     5.59966  -1.32298  -3.17334 
 H                     7.57696  -0.20503  -2.11014 
 H                     7.61902   0.96918  -3.41211 
 H                     8.04769  -0.87637  -5.06451 
 H                     8.00586  -2.05133  -3.7643 
 C                     9.76402  -0.79917  -3.75786 
 C                     10.65887  -1.7345   -4.57798 
 H                     9.98063  -0.93381  -2.69026 
 H                     10.02204   0.24283  -3.98727 
 H                     10.45835  -2.7869   -4.34588 
 H                     11.72327  -1.55932  -4.38638 
 H                     10.49913  -1.60039  -5.65419 
 
 ITRead=  0  0  0  0  0  0  0  0  0  0  0  0  0  0  0  0  0  0  0  0
 ITRead=  0  0  0  0  0  0  0  0  0  0  0  0  0  0  0  0  0  0  0  0
 MicOpt= -1 -1 -1 -1 -1 -1 -1 -1 -1 -1 -1 -1 -1 -1 -1 -1 -1 -1 -1 -1
 MicOpt= -1 -1 -1 -1 -1 -1 -1 -1 -1 -1 -1 -1 -1 -1 -1 -1 -1 -1 -1 -1
 NAtoms=     40 NQM=       40 NQMF=       0 NMMI=      0 NMMIF=      0
                NMic=       0 NMicF=      0.
                    Isotopes and Nuclear Properties:
 (Nuclear quadrupole moments (NQMom) in fm**2, nuclear magnetic moments (NMagM)
  in nuclear magnetons)

  Atom         1           2           3           4           5           6           7           8           9          10
 IAtWgt=          12          12          12          12          12          12          12          12          12          12
 AtmWgt=  12.0000000  12.0000000  12.0000000  12.0000000  12.0000000  12.0000000  12.0000000  12.0000000  12.0000000  12.0000000
 NucSpn=           0           0           0           0           0           0           0           0           0           0
 AtZEff=  -0.0000000  -0.0000000  -0.0000000  -0.0000000  -0.0000000  -0.0000000  -0.0000000  -0.0000000  -0.0000000  -0.0000000
 NQMom=    0.0000000   0.0000000   0.0000000   0.0000000   0.0000000   0.0000000   0.0000000   0.0000000   0.0000000   0.0000000
 NMagM=    0.0000000   0.0000000   0.0000000   0.0000000   0.0000000   0.0000000   0.0000000   0.0000000   0.0000000   0.0000000
 AtZNuc=   6.0000000   6.0000000   6.0000000   6.0000000   6.0000000   6.0000000   6.0000000   6.0000000   6.0000000   6.0000000

  Atom        11          12          13          14          15          16          17          18          19          20
 IAtWgt=          16          16           1           1           1           1          16          12          12          12
 AtmWgt=  15.9949146  15.9949146   1.0078250   1.0078250   1.0078250   1.0078250  15.9949146  12.0000000  12.0000000  12.0000000
 NucSpn=           0           0           1           1           1           1           0           0           0           0
 AtZEff=  -0.0000000  -0.0000000  -0.0000000  -0.0000000  -0.0000000  -0.0000000  -0.0000000  -0.0000000  -0.0000000  -0.0000000
 NQMom=    0.0000000   0.0000000   0.0000000   0.0000000   0.0000000   0.0000000   0.0000000   0.0000000   0.0000000   0.0000000
 NMagM=    0.0000000   0.0000000   2.7928460   2.7928460   2.7928460   2.7928460   0.0000000   0.0000000   0.0000000   0.0000000
 AtZNuc=   8.0000000   8.0000000   1.0000000   1.0000000   1.0000000   1.0000000   8.0000000   6.0000000   6.0000000   6.0000000

  Atom        21          22          23          24          25          26          27          28          29          30
 IAtWgt=          12          12           1           1           1           1           1           1           1           1
 AtmWgt=  12.0000000  12.0000000   1.0078250   1.0078250   1.0078250   1.0078250   1.0078250   1.0078250   1.0078250   1.0078250
 NucSpn=           0           0           1           1           1           1           1           1           1           1
 AtZEff=  -0.0000000  -0.0000000  -0.0000000  -0.0000000  -0.0000000  -0.0000000  -0.0000000  -0.0000000  -0.0000000  -0.0000000
 NQMom=    0.0000000   0.0000000   0.0000000   0.0000000   0.0000000   0.0000000   0.0000000   0.0000000   0.0000000   0.0000000
 NMagM=    0.0000000   0.0000000   2.7928460   2.7928460   2.7928460   2.7928460   2.7928460   2.7928460   2.7928460   2.7928460
 AtZNuc=   6.0000000   6.0000000   1.0000000   1.0000000   1.0000000   1.0000000   1.0000000   1.0000000   1.0000000   1.0000000

  Atom        31          32          33          34          35          36          37          38          39          40
 IAtWgt=           1           1           1          12          12           1           1           1           1           1
 AtmWgt=   1.0078250   1.0078250   1.0078250  12.0000000  12.0000000   1.0078250   1.0078250   1.0078250   1.0078250   1.0078250
 NucSpn=           1           1           1           0           0           1           1           1           1           1
 AtZEff=  -0.0000000  -0.0000000  -0.0000000  -0.0000000  -0.0000000  -0.0000000  -0.0000000  -0.0000000  -0.0000000  -0.0000000
 NQMom=    0.0000000   0.0000000   0.0000000   0.0000000   0.0000000   0.0000000   0.0000000   0.0000000   0.0000000   0.0000000
 NMagM=    2.7928460   2.7928460   2.7928460   0.0000000   0.0000000   2.7928460   2.7928460   2.7928460   2.7928460   2.7928460
 AtZNuc=   1.0000000   1.0000000   1.0000000   6.0000000   6.0000000   1.0000000   1.0000000   1.0000000   1.0000000   1.0000000
 Leave Link  101 at Sun Jan 21 09:06:02 2024, MaxMem=  4026531840 cpu:               1.8 elap:               0.3
 (Enter /sysapps/ubuntu-applications/gaussian/Gaussian/AVX2/g16/l202.exe)
                          Input orientation:                          
 ---------------------------------------------------------------------
 Center     Atomic      Atomic             Coordinates (Angstroms)
 Number     Number       Type             X           Y           Z
 ---------------------------------------------------------------------
      1          6           0       -0.061810    3.891015    0.170034
      2          6           0       -0.470486    3.526105    1.437764
      3          6           0       -0.024582    2.304337    2.001894
      4          6           0        0.803256    3.068666   -0.596900
      5          6           0        1.259338    1.824695   -0.022553
      6          6           0        0.822604    1.484821    1.271402
      7          6           0        1.218254    3.457134   -1.911400
      8          6           0        2.089768    2.545433   -2.584721
      9          6           0        2.547661    1.335801   -2.070540
     10          6           0        2.154831    0.916850   -0.749816
     11          8           0        0.874775    4.544837   -2.534554
     12          8           0        2.553139   -0.182714   -0.239181
     13          1           0       -0.390915    4.821726   -0.281368
     14          1           0       -1.134397    4.176227    2.004436
     15          1           0       -0.344190    2.014083    3.000116
     16          1           0        1.182924    0.543824    1.675352
     17          8           0        2.446975    2.977873   -3.841822
     18          6           0        3.451980    0.437626   -2.876825
     19          6           0        4.955343    0.659548   -2.610848
     20          6           0        5.859497   -0.283506   -3.416489
     21          6           0        7.360629   -0.072696   -3.178675
     22          6           0        8.262817   -1.008874   -3.995587
     23          1           0        1.950161    3.832359   -3.873048
     24          1           0        3.259003    0.583898   -3.946210
     25          1           0        3.211837   -0.600375   -2.619347
     26          1           0        5.138132    0.520287   -1.539727
     27          1           0        5.209215    1.700071   -2.847948
     28          1           0        5.646372   -0.160047   -4.487986
     29          1           0        5.599657   -1.322983   -3.173341
     30          1           0        7.576960   -0.205025   -2.110141
     31          1           0        7.619018    0.969177   -3.412113
     32          1           0        8.047688   -0.876374   -5.064513
     33          1           0        8.005860   -2.051333   -3.764304
     34          6           0        9.764015   -0.799172   -3.757858
     35          6           0       10.658871   -1.734501   -4.577981
     36          1           0        9.980629   -0.933805   -2.690260
     37          1           0       10.022043    0.242828   -3.987272
     38          1           0       10.458350   -2.786903   -4.345879
     39          1           0       11.723269   -1.559323   -4.386380
     40          1           0       10.499129   -1.600389   -5.654190
 ---------------------------------------------------------------------
                    Distance matrix (angstroms):
                    1          2          3          4          5
     1  C    0.000000
     2  C    1.381056   0.000000
     3  C    2.423767   1.417671   0.000000
     4  C    1.418726   2.443671   2.832533   0.000000
     5  C    2.460122   2.831892   2.444768   1.444074   0.000000
     6  C    2.790156   2.422106   1.386704   2.449386   1.407327
     7  C    2.481770   3.751466   4.264675   1.432146   2.496856
     8  C    3.745471   4.867957   5.056248   2.424937   2.788150
     9  C    4.284697   5.120043   4.913167   2.866598   2.468409
    10  C    3.821685   4.299536   3.774503   2.545673   1.467992
    11  O    2.935894   4.315884   5.138876   2.436945   3.722527
    12  O    4.858053   5.070482   4.225220   3.709653   2.398028
    13  H    1.085494   2.154154   3.418294   2.144487   3.431110
    14  H    2.144019   1.088372   2.176159   3.427556   3.920249
    15  H    3.407635   2.177867   1.087586   3.920115   3.426908
    16  H    3.875440   3.418218   2.159654   3.417909   2.128227
    17  O    4.819006   6.056911   6.380538   3.638623   4.162585
    18  C    5.792751   6.598494   6.274790   4.374491   3.857267
    19  C    6.583882   7.351736   6.984438   5.205734   4.660181
    20  C    8.084037   8.840000   8.407032   6.689747   6.093010
    21  C    9.056349   9.776975   9.328983   7.715754   7.126496
    22  C   10.519540  11.240904  10.753052   9.155460   8.535973
    23  H    4.516412   5.844489   6.383526   3.554119   4.397074
    24  H    6.237651   7.180031   7.008693   4.839694   4.575295
    25  H    6.218520   6.859117   6.345678   4.832537   4.054202
    26  H    6.428412   7.025453   6.509956   5.116083   4.364440
    27  H    6.456946   7.345797   7.160917   5.133492   4.857975
    28  H    8.407829   9.279988   8.963897   7.001493   6.566990
    29  H    8.391433   9.034522   8.460057   6.995005   6.218819
    30  H    8.962564   9.553552   8.999398   7.673983   6.956302
    31  H    8.964599   9.772372   9.461435   7.667326   7.257173
    32  H   10.765335  11.585366  11.189842   9.381082   8.876871
    33  H   10.764656  11.402533  10.803189   9.387457   8.633647
    34  C   11.574672  12.265705  11.773833  10.258997   9.652291
    35  C   13.004733  13.701305  13.181166  11.664157  11.034991
    36  H   11.502641  12.089549  11.515473  10.228690   9.528216
    37  H   11.501154  12.259857  11.876641  10.220862   9.747117
    38  H   13.253748  13.883229  13.270524  11.898041  11.161532
    39  H   13.760639  14.438486  13.919408  12.450909  11.831670
    40  H   13.251813  14.032434  13.587163  11.890593  11.349902
                    6          7          8          9         10
     6  C    0.000000
     7  C    3.765207   0.000000
     8  C    4.195270   1.429719   0.000000
     9  C    3.763855   2.508526   1.391854   0.000000
    10  C    2.486512   2.946099   2.454260   1.440190   0.000000
    11  O    4.883822   1.299768   2.340158   3.648530   4.241005
    12  O    2.838536   4.222171   3.627541   2.379032   1.276103
    13  H    3.875391   2.666185   4.079305   4.897759   4.684904
    14  H    3.407471   4.624482   5.840813   6.183122   5.387807
    15  H    2.151739   5.352253   6.115300   5.876599   4.637997
    16  H    1.085579   4.620975   4.793436   4.064658   2.639165
    17  O    5.568918   2.337943   1.376555   2.417432   3.727421
    18  C    5.021755   3.878016   2.526618   1.508180   2.537010
    19  C    5.729963   4.720334   3.430563   2.558551   3.372316
    20  C    7.104477   6.148074   4.785979   3.924537   4.719804
    21  C    8.060696   7.196837   5.915180   5.135805   5.829141
    22  C    9.450738   8.597379   7.261555   6.470418   7.179898
    23  H    5.766081   2.127098   1.826323   3.136693   4.277460
    24  H    5.828480   4.069471   2.658643   2.142313   3.398086
    25  H    5.019403   4.575909   3.340112   2.119221   2.629521
    26  H    5.239900   4.912093   3.806015   2.767195   3.111480
    27  H    6.021439   4.460063   3.242665   2.796592   3.787460
    28  H    7.690571   6.271445   4.857105   4.205189   5.227282
    29  H    7.103502   6.605960   5.256466   4.195233   4.770446
    30  H    7.740267   7.340575   6.156259   5.260186   5.701629
    31  H    8.269972   7.029356   5.808766   5.258602   6.078479
    32  H    9.895499   8.681162   7.304447   6.641377   7.520507
    33  H    9.458429   8.935774   7.584314   6.643301   7.220235
    34  C   10.509943   9.723969   8.453206   7.712387   8.360187
    35  C   11.888291  11.099053   9.783683   9.028053   9.695525
    36  H   10.267129   9.831896   8.624496   7.796421   8.272446
    37  H   10.668921   9.599360   8.377955   7.793256   8.533959
    38  H   11.943579  11.414642  10.078127   9.206131   9.777417
    39  H   12.653134  11.901500  10.625410   9.896294  10.531431
    40  H   12.292985  11.212567   9.865436   9.202695  10.000834
                   11         12         13         14         15
    11  O    0.000000
    12  O    5.516827   0.000000
    13  H    2.599132   5.806346   0.000000
    14  H    4.977457   6.134501   2.488842   0.000000
    15  H    6.206703   4.869649   4.318933   2.508121   0.000000
    16  H    5.816044   2.463896   4.960460   4.321183   2.499748
    17  O    2.576070   4.793705   4.912255   6.959958   7.451953
    18  C    4.860897   2.854803   6.381581   7.670639   7.171789
    19  C    5.634920   3.479194   7.164683   8.411469   7.835990
    20  C    6.995581   4.586660   8.657946   9.909097   9.216153
    21  C    7.987666   5.636017   9.614374  10.820511  10.094372
    22  C    9.357430   6.884297  11.076028  12.296064  11.496030
    23  H    1.858937   5.448796   4.399960   6.646620   7.470646
    24  H    4.833876   3.850714   6.686715   8.222954   7.954865
    25  H    5.651748   2.504698   6.917019   7.942610   7.145564
    26  H    5.946671   2.977888   7.117317   8.079085   7.273064
    27  H    5.194062   4.171964   6.906049   8.361722   8.070859
    28  H    6.979969   5.255564   8.886086  10.340872   9.832871
    29  H    7.560679   4.380728   9.055822  10.119198   9.196570
    30  H    8.225606   5.360948   9.596857  10.583613   9.684203
    31  H    7.683767   6.087486   9.423520  10.781765  10.277217
    32  H    9.340284   7.345411  11.249748  12.641578  11.992356
    33  H    9.791533   6.756508  11.396298  12.474180  11.489487
    34  C   10.443826   8.047226  12.116232  13.294134  12.480402
    35  C   11.803991   9.323954  13.547796  14.742662  13.876123
    36  H   10.628092   7.857451  12.103628  13.103297  12.152050
    37  H   10.212257   8.367425  11.963684  13.260405  12.626152
    38  H   12.201648   9.281117  13.860665  14.939995  13.917901
    39  H   12.584906  10.158031  14.294137  15.461521  14.592913
    40  H   11.837403   9.719613  13.736951  15.078553  14.336631
                   16         17         18         19         20
    16  H    0.000000
    17  O    6.161301   0.000000
    18  C    5.087456   2.897259   0.000000
    19  C    5.711046   3.630680   1.542755   0.000000
    20  C    6.962877   4.739494   2.570488   1.534895   0.000000
    21  C    7.880718   5.821489   3.953363   2.577598   1.534403
    22  C    9.203005   7.052788   5.146663   3.954810   2.576327
    23  H    6.495218   0.988911   3.843453   4.548736   5.694884
    24  H    5.992801   2.530099   1.096458   2.160205   2.792054
    25  H    4.885706   3.857890   1.096088   2.151114   2.783154
    26  H    5.097152   4.310649   2.153549   1.095493   2.165337
    27  H    6.165077   3.201645   2.163903   1.096976   2.163489
    28  H    7.642286   4.527716   2.787187   2.161690   1.099441
    29  H    6.819261   5.374350   2.792881   2.159159   1.098704
    30  H    7.468228   6.280629   4.244557   2.805543   2.159255
    31  H    8.215019   5.565028   4.234771   2.798760   2.159895
    32  H    9.724594   6.907835   5.256720   4.235815   2.802794
    33  H    9.103689   7.496674   5.265013   4.240871   2.802331
    34  C   10.244927   8.234816   6.492124   5.154301   3.953189
    35  C   11.579659   9.496506   7.716952   6.490864   5.146692
    36  H    9.931846   8.566403   6.673746   5.272436   4.234858
    37  H   10.501711   8.055016   6.666091   5.266844   4.234337
    38  H   11.549134   9.882755   7.851428   6.720970   5.317914
    39  H   12.339639  10.340809   8.641804   7.340349   6.078834
    40  H   12.046224   9.438344   7.844079   6.715862   5.316735
                   21         22         23         24         25
    21  C    0.000000
    22  C    1.535486   0.000000
    23  H    6.708560   7.956267   0.000000
    24  H    4.224164   5.251430   3.502987   0.000000
    25  H    4.219451   5.251029   4.776267   1.779127   0.000000
    26  H    2.824407   4.258314   5.155324   3.053904   2.476303
    27  H    2.807252   4.240276   4.027271   2.501069   3.055132
    28  H    2.158843   2.794414   5.475347   2.558614   3.100429
    29  H    2.159692   2.804848   6.354995   3.116438   2.555534
    30  H    1.098214   2.161361   7.146270   4.757972   4.412470
    31  H    1.098525   2.160464   6.367591   4.409471   4.745020
    32  H    2.162021   1.098380   7.795614   5.129766   5.425907
    33  H    2.162010   1.098289   8.444001   5.432328   5.137982
    34  C    2.576720   1.534303   9.084088   6.653085   6.653327
    35  C    3.949437   2.570368  10.359946   7.780241   7.783367
    36  H    2.800796   2.158794   9.412955   7.004362   6.777370
    37  H    2.799377   2.159098   8.834764   6.771759   6.997222
    38  H    4.280790   2.846833  10.790157   7.959437   7.763618
    39  H    4.764582   3.525683  11.173513   8.742479   8.745654
    40  H    4.279276   2.846392  10.284555   7.752918   7.957068
                   26         27         28         29         30
    26  H    0.000000
    27  H    1.763061   0.000000
    28  H    3.068125   2.518108   0.000000
    29  H    2.505862   3.065482   1.755817   0.000000
    30  H    2.607553   3.127294   3.063224   2.507978   0.000000
    31  H    3.140402   2.580628   2.514753   3.064120   1.753753
    32  H    4.779152   4.428110   2.571347   3.125515   3.066041
    33  H    4.448127   4.768015   3.109319   2.582546   2.515763
    34  C    5.297157   5.274500   4.230432   4.237678   2.801998
    35  C    6.692803   6.669936   5.254727   5.266688   4.234112
    36  H    5.185353   5.452390   4.755660   4.424674   2.577845
    37  H    5.469922   5.156058   4.422615   4.761486   3.114904
    38  H    6.864162   7.066127   5.484132   5.208148   4.468448
    39  H    7.469420   7.444684   6.236744   6.247075   4.920088
    40  H    7.082822   6.837486   5.194600   5.498763   4.800666
                   31         32         33         34         35
    31  H    0.000000
    32  H    2.514009   0.000000
    33  H    3.065480   1.752947   0.000000
    34  C    2.801359   2.158492   2.158485   0.000000
    35  C    4.232001   2.791303   2.793013   1.532387   0.000000
    36  H    3.117630   3.062129   2.510409   1.097640   2.159772
    37  H    2.575446   2.512198   3.062333   1.097713   2.159703
    38  H    4.800194   3.158773   2.625643   2.186080   1.096189
    39  H    4.918067   3.799497   3.801076   2.193524   1.095601
    40  H    4.463700   2.623257   3.160919   2.185959   1.096234
                   36         37         38         39         40
    36  H    0.000000
    37  H    1.751691   0.000000
    38  H    2.530467   3.081920   0.000000
    39  H    2.510954   2.510220   1.763126   0.000000
    40  H    3.081892   2.530548   1.766679   1.762824   0.000000
 Stoichiometry    C17H20O3(2-)
 Framework group  C1[X(C17H20O3)]
 Deg. of freedom   114
 Full point group                 C1      NOp   1
 Largest Abelian subgroup         C1      NOp   1
 Largest concise Abelian subgroup C1      NOp   1
                         Standard orientation:                         
 ---------------------------------------------------------------------
 Center     Atomic      Atomic             Coordinates (Angstroms)
 Number     Number       Type             X           Y           Z
 ---------------------------------------------------------------------
      1          6           0        4.828364    0.285779   -0.719235
      2          6           0        5.528716   -0.900342   -0.818932
      3          6           0        4.906298   -2.123039   -0.462004
      4          6           0        3.485195    0.319166   -0.263641
      5          6           0        2.849726   -0.925932    0.098657
      6          6           0        3.593542   -2.115186   -0.015284
      7          6           0        2.770212    1.555947   -0.162576
      8          6           0        1.424030    1.460849    0.309489
      9          6           0        0.776567    0.283963    0.674166
     10          6           0        1.463724   -0.978183    0.579564
     11          8           0        3.231921    2.735402   -0.454306
     12          8           0        0.907215   -2.080616    0.901088
     13          1           0        5.285128    1.233386   -0.987011
     14          1           0        6.558254   -0.897176   -1.171911
     15          1           0        5.454807   -3.058962   -0.539649
     16          1           0        3.088013   -3.034277    0.264350
     17          8           0        0.796957    2.683952    0.385003
     18          6           0       -0.644328    0.299526    1.179559
     19          6           0       -1.703047    0.068679    0.081417
     20          6           0       -3.141000    0.056985    0.618126
     21          6           0       -4.213344   -0.157833   -0.458129
     22          6           0       -5.651455   -0.156252    0.079973
     23          1           0        1.530065    3.268345    0.070387
     24          1           0       -0.850685    1.257874    1.670687
     25          1           0       -0.746187   -0.500303    1.922061
     26          1           0       -1.484803   -0.885846   -0.409865
     27          1           0       -1.603551    0.852399   -0.679660
     28          1           0       -3.340307    1.005440    1.137240
     29          1           0       -3.232729   -0.730328    1.378965
     30          1           0       -4.021328   -1.109541   -0.971410
     31          1           0       -4.115629    0.623321   -1.224293
     32          1           0       -5.844560    0.795748    0.592657
     33          1           0       -5.751443   -0.936183    0.846752
     34          6           0       -6.724318   -0.371670   -0.995501
     35          6           0       -8.157272   -0.366287   -0.452526
     36          1           0       -6.533804   -1.324034   -1.506891
     37          1           0       -6.624659    0.406391   -1.763396
     38          1           0       -8.307742   -1.158481    0.290050
     39          1           0       -8.898535   -0.521581   -1.244204
     40          1           0       -8.398704    0.586899    0.032114
 ---------------------------------------------------------------------
 Rotational constants (GHZ):           0.7664093           0.1143340           0.1039684
 Leave Link  202 at Sun Jan 21 09:06:02 2024, MaxMem=  4026531840 cpu:               0.4 elap:               0.1
 (Enter /sysapps/ubuntu-applications/gaussian/Gaussian/AVX2/g16/l301.exe)
 Standard basis: 6-311++G(d,p) (5D, 7F)
 Ernie: Thresh=  0.10000D-02 Tol=  0.10000D-05 Strict=F.
 There are   600 symmetry adapted cartesian basis functions of A   symmetry.
 There are   580 symmetry adapted basis functions of A   symmetry.
   580 basis functions,   900 primitive gaussians,   600 cartesian basis functions
    74 alpha electrons       74 beta electrons
       nuclear repulsion energy      1433.1291327544 Hartrees.
 IExCor=  402 DFT=T Ex+Corr=B3LYP ExCW=0 ScaHFX=  0.200000
 ScaDFX=  0.800000  0.720000  1.000000  0.810000 ScalE2=  1.000000  1.000000
 IRadAn=      5 IRanWt=     -1 IRanGd=            0 ICorTp=0 IEmpDi=  4
 NAtoms=   40 NActive=   40 NUniq=   40 SFac= 1.00D+00 NAtFMM=   60 NAOKFM=F Big=F
 Integral buffers will be    131072 words long.
 Raffenetti 2 integral format.
 Two-electron integral symmetry is turned on.
 ------------------------------------------------------------------------------
 Polarizable Continuum Model (PCM)
 =================================
 Model                : PCM.
 Atomic radii         : UFF (Universal Force Field).
 Polarization charges : Total charges.
 Charge compensation  : None.
 Solution method      : On-the-fly selection.
 Cavity type          : Scaled VdW (van der Waals Surface) (Alpha=1.100).
 Cavity algorithm     : GePol (No added spheres)
                        Default sphere list used, NSphG=   40.
                        Lebedev-Laikov grids with approx.  5.0 points / Ang**2.
                        Smoothing algorithm: York/Karplus (Gamma=1.0000).
                        Polarization charges: spherical gaussians, with
                                              point-specific exponents (IZeta= 3).
                        Self-potential: point-specific (ISelfS= 7).
                        Self-field    : sphere-specific E.n sum rule (ISelfD= 2).
 Solvent              : n,n-DiMethylFormamide, Eps=  37.219000 Eps(inf)=   2.046330
 ------------------------------------------------------------------------------
 GePol: Number of generator spheres                  =      40
 GePol: Total number of spheres                      =      40
 GePol: Number of exposed spheres                    =      40 (100.00%)
 GePol: Number of points                             =    2973
 GePol: Average weight of points                     =       0.13
 GePol: Minimum weight of points                     =   0.11D-10
 GePol: Maximum weight of points                     =    0.20577
 GePol: Number of points with low weight             =     225
 GePol: Fraction of low-weight points (<1% of avg)   =       7.57%
 GePol: Cavity surface area                          =    379.889 Ang**2
 GePol: Cavity volume                                =    404.643 Ang**3
 Leave Link  301 at Sun Jan 21 09:06:03 2024, MaxMem=  4026531840 cpu:               0.9 elap:               0.2
 (Enter /sysapps/ubuntu-applications/gaussian/Gaussian/AVX2/g16/l302.exe)
 NPDir=0 NMtPBC=     1 NCelOv=     1 NCel=       1 NClECP=     1 NCelD=      1
         NCelK=      1 NCelE2=     1 NClLst=     1 CellRange=     0.0.
 One-electron integrals computed using PRISM.
 One-electron integral symmetry used in STVInt
 NBasis=   580 RedAO= T EigKep=  1.16D-06  NBF=   580
 NBsUse=   576 1.00D-06 EigRej=  6.32D-07 NBFU=   576
 Precomputing XC quadrature grid using
 IXCGrd= 4 IRadAn=           5 IRanWt=          -1 IRanGd=           0 AccXCQ= 0.00D+00.
 Generated NRdTot=       0 NPtTot=           0 NUsed=           0 NTot=          32
 NSgBfM=   589   589   589   589   589 MxSgAt=    40 MxSgA2=    40.
 Leave Link  302 at Sun Jan 21 09:06:03 2024, MaxMem=  4026531840 cpu:               5.6 elap:               0.8
 (Enter /sysapps/ubuntu-applications/gaussian/Gaussian/AVX2/g16/l303.exe)
 DipDrv:  MaxL=1.
 Leave Link  303 at Sun Jan 21 09:06:04 2024, MaxMem=  4026531840 cpu:               0.9 elap:               0.2
 (Enter /sysapps/ubuntu-applications/gaussian/Gaussian/AVX2/g16/l401.exe)
 ExpMin= 3.60D-02 ExpMax= 8.59D+03 ExpMxC= 1.30D+03 IAcc=3 IRadAn=         5 AccDes= 0.00D+00
 Harris functional with IExCor=  402 and IRadAn=       5 diagonalized for initial guess.
 HarFok:  IExCor=  402 AccDes= 0.00D+00 IRadAn=         5 IDoV= 1 UseB2=F ITyADJ=14
 ICtDFT=  3500011 ScaDFX=  1.000000  1.000000  1.000000  1.000000
 FoFCou: FMM=F IPFlag=           0 FMFlag=      100000 FMFlg1=           0
         NFxFlg=           0 DoJE=T BraDBF=F KetDBF=T FulRan=T
         wScrn=  0.000000 ICntrl=       500 IOpCl=  0 I1Cent=   200000004 NGrid=           0
         NMat0=    1 NMatS0=      1 NMatT0=    0 NMatD0=    1 NMtDS0=    0 NMtDT0=    0
 Petite list used in FoFCou.
 Harris En= -886.338047065524    
 JPrj=0 DoOrth=F DoCkMO=F.
 Initial guess <Sx>= 0.0000 <Sy>= 0.0000 <Sz>= 0.0000 <S**2>=-0.0000 S=-0.0000
 Leave Link  401 at Sun Jan 21 09:06:07 2024, MaxMem=  4026531840 cpu:              26.0 elap:               3.3
 (Enter /sysapps/ubuntu-applications/gaussian/Gaussian/AVX2/g16/l502.exe)
 Integral symmetry usage will be decided dynamically.
 UHF open shell SCF:
 Using DIIS extrapolation, IDIIS=  1040.
 NGot=  4026531840 LenX=  4025801228 LenY=  4025440628
 Requested convergence on RMS density matrix=1.00D-08 within 128 cycles.
 Requested convergence on MAX density matrix=1.00D-06.
 Requested convergence on             energy=1.00D-06.
 No special actions if energy rises.
 Fock matrices will be formed incrementally for  20 cycles.

 Cycle   1  Pass 1  IDiag  1:
 FoFJK:  IHMeth= 1 ICntrl=       0 DoSepK=F KAlg= 0 I1Cent=           0 FoldK=F
 IRaf= 770000000 NMat=       1 IRICut=       1 DoRegI=T DoRafI=F ISym2E= 0 IDoP0=0 IntGTp=1.
 FoFCou: FMM=F IPFlag=           0 FMFlag=      100000 FMFlg1=           0
         NFxFlg=           0 DoJE=F BraDBF=F KetDBF=F FulRan=T
         wScrn=  0.000000 ICntrl=         0 IOpCl=  1 I1Cent=           0 NGrid=           0
         NMat0=    1 NMatS0=      1 NMatT0=    0 NMatD0=    1 NMtDS0=    0 NMtDT0=    0
 Symmetry not used in FoFCou.
 Inv3:  Mode=1 IEnd=    26516187.
 Iteration    1 A*A^-1 deviation from unit magnitude is 3.44D-15 for    366.
 Iteration    1 A*A^-1 deviation from orthogonality  is 1.53D-15 for   2571    525.
 Iteration    1 A^-1*A deviation from unit magnitude is 3.11D-15 for    428.
 Iteration    1 A^-1*A deviation from orthogonality  is 1.66D-15 for    616    293.
 E= -885.288290872106    
 DIIS: error= 3.40D-02 at cycle   1 NSaved=   1.
 NSaved= 1 IEnMin= 1 EnMin= -885.288290872106     IErMin= 1 ErrMin= 3.40D-02
 ErrMax= 3.40D-02  0.00D+00 EMaxC= 1.00D-01 BMatC= 3.24D+00 BMatP= 3.24D+00
 IDIUse=3 WtCom= 6.60D-01 WtEn= 3.40D-01
 Coeff-Com:  0.100D+01
 Coeff-En:   0.100D+01
 Coeff:      0.100D+01
 Gap=     0.094 Goal=   None    Shift=    0.000
 Gap=     0.094 Goal=   None    Shift=    0.000
 GapD=    0.094 DampG=0.500 DampE=0.500 DampFc=0.2500 IDamp=-1.
 Damping current iteration by 2.50D-01
 RMSDP=5.19D-01 MaxDP=3.31D+01              OVMax= 9.91D-01

 Cycle   2  Pass 1  IDiag  1:
 RMSU=  1.24D-01    CP:  1.74D+00
 E= -885.513697628379     Delta-E=       -0.225406756273 Rises=F Damp=T
 DIIS: error= 1.59D-02 at cycle   2 NSaved=   2.
 NSaved= 2 IEnMin= 2 EnMin= -885.513697628379     IErMin= 2 ErrMin= 1.59D-02
 ErrMax= 1.59D-02  0.00D+00 EMaxC= 1.00D-01 BMatC= 6.38D-01 BMatP= 3.24D+00
 IDIUse=3 WtCom= 8.41D-01 WtEn= 1.59D-01
 Coeff-Com: -0.531D+00 0.153D+01
 Coeff-En:   0.000D+00 0.100D+01
 Coeff:     -0.447D+00 0.145D+01
 Gap=     0.005 Goal=   None    Shift=    0.000
 Gap=     0.005 Goal=   None    Shift=    0.000
 RMSDP=1.32D-01 MaxDP=8.55D+00 DE=-2.25D-01 OVMax= 8.77D-01

 Cycle   3  Pass 1  IDiag  1:
 RMSU=  7.17D-03    CP:  9.39D-01 -1.07D-02
 E= -885.878149447615     Delta-E=       -0.364451819237 Rises=F Damp=F
 DIIS: error= 2.29D-02 at cycle   3 NSaved=   3.
 NSaved= 3 IEnMin= 3 EnMin= -885.878149447615     IErMin= 2 ErrMin= 1.59D-02
 ErrMax= 2.29D-02  0.00D+00 EMaxC= 1.00D-01 BMatC= 7.70D-01 BMatP= 6.38D-01
 IDIUse=2 WtCom= 0.00D+00 WtEn= 1.00D+00
 Coeff-En:   0.000D+00 0.000D+00 0.100D+01
 Coeff:      0.000D+00 0.000D+00 0.100D+01
 Gap=     0.063 Goal=   None    Shift=    0.000
 Gap=     0.063 Goal=   None    Shift=    0.000
 RMSDP=6.10D-02 MaxDP=1.45D+01 DE=-3.64D-01 OVMax= 5.84D-01

 Cycle   4  Pass 1  IDiag  1:
 RMSU=  5.59D-02    CP:  1.35D+00  8.40D-02  8.32D-01
 E= -884.937522243365     Delta-E=        0.940627204251 Rises=F Damp=F
 DIIS: error= 4.80D-02 at cycle   4 NSaved=   4.
 NSaved= 4 IEnMin= 3 EnMin= -885.878149447615     IErMin= 2 ErrMin= 1.59D-02
 ErrMax= 4.80D-02  0.00D+00 EMaxC= 1.00D-01 BMatC= 4.97D+00 BMatP= 6.38D-01
 IDIUse=2 WtCom= 0.00D+00 WtEn= 1.00D+00
 Coeff-En:   0.000D+00 0.000D+00 0.825D+00 0.175D+00
 Coeff:      0.000D+00 0.000D+00 0.825D+00 0.175D+00
 Gap=     0.055 Goal=   None    Shift=    0.000
 Gap=     0.055 Goal=   None    Shift=    0.000
 RMSDP=5.33D-02 MaxDP=1.38D+01 DE= 9.41D-01 OVMax= 4.27D-01

 Cycle   5  Pass 1  IDiag  1:
 RMSU=  7.23D-03    CP:  8.33D-01  1.22D-02  5.71D-01  2.04D-01
 E= -885.953804898877     Delta-E=       -1.016282655513 Rises=F Damp=F
 DIIS: error= 1.64D-02 at cycle   5 NSaved=   5.
 NSaved= 5 IEnMin= 5 EnMin= -885.953804898877     IErMin= 2 ErrMin= 1.59D-02
 ErrMax= 1.64D-02  0.00D+00 EMaxC= 1.00D-01 BMatC= 4.28D-01 BMatP= 6.38D-01
 IDIUse=3 WtCom= 8.36D-01 WtEn= 1.64D-01
 Coeff-Com: -0.531D-01 0.126D+00 0.391D+00-0.275D-01 0.563D+00
 Coeff-En:   0.000D+00 0.000D+00 0.378D+00 0.000D+00 0.622D+00
 Coeff:     -0.444D-01 0.106D+00 0.389D+00-0.230D-01 0.573D+00
 Gap=     0.100 Goal=   None    Shift=    0.000
 Gap=     0.100 Goal=   None    Shift=    0.000
 RMSDP=7.28D-03 MaxDP=1.17D+00 DE=-1.02D+00 OVMax= 7.67D-02

 Cycle   6  Pass 1  IDiag  1:
 RMSU=  2.16D-03    CP:  7.88D-01  2.38D-03  5.98D-01  9.84D-02  6.45D-01
 E= -886.035259791640     Delta-E=       -0.081454892762 Rises=F Damp=F
 DIIS: error= 2.46D-03 at cycle   6 NSaved=   6.
 NSaved= 6 IEnMin= 6 EnMin= -886.035259791640     IErMin= 6 ErrMin= 2.46D-03
 ErrMax= 2.46D-03  0.00D+00 EMaxC= 1.00D-01 BMatC= 1.40D-02 BMatP= 4.28D-01
 IDIUse=3 WtCom= 9.75D-01 WtEn= 2.46D-02
 Coeff-Com: -0.305D-01 0.611D-01 0.213D+00-0.352D-01 0.392D+00 0.399D+00
 Coeff-En:   0.000D+00 0.000D+00 0.000D+00 0.000D+00 0.000D+00 0.100D+01
 Coeff:     -0.298D-01 0.596D-01 0.208D+00-0.343D-01 0.383D+00 0.414D+00
 Gap=     0.100 Goal=   None    Shift=    0.000
 Gap=     0.100 Goal=   None    Shift=    0.000
 RMSDP=1.12D-03 MaxDP=1.74D-01 DE=-8.15D-02 OVMax= 3.14D-02

 Cycle   7  Pass 1  IDiag  1:
 RMSU=  5.58D-04    CP:  7.86D-01  1.94D-03  6.19D-01  9.56D-02  7.31D-01
                    CP:  6.78D-01
 E= -886.038417890840     Delta-E=       -0.003158099201 Rises=F Damp=F
 DIIS: error= 5.32D-04 at cycle   7 NSaved=   7.
 NSaved= 7 IEnMin= 7 EnMin= -886.038417890840     IErMin= 7 ErrMin= 5.32D-04
 ErrMax= 5.32D-04  0.00D+00 EMaxC= 1.00D-01 BMatC= 6.20D-04 BMatP= 1.40D-02
 IDIUse=3 WtCom= 9.95D-01 WtEn= 5.32D-03
 Coeff-Com: -0.529D-02 0.863D-02 0.534D-01-0.122D-01 0.103D+00 0.186D+00
 Coeff-Com:  0.666D+00
 Coeff-En:   0.000D+00 0.000D+00 0.000D+00 0.000D+00 0.000D+00 0.000D+00
 Coeff-En:   0.100D+01
 Coeff:     -0.526D-02 0.858D-02 0.531D-01-0.121D-01 0.103D+00 0.185D+00
 Coeff:      0.668D+00
 Gap=     0.100 Goal=   None    Shift=    0.000
 Gap=     0.100 Goal=   None    Shift=    0.000
 RMSDP=3.88D-04 MaxDP=4.32D-02 DE=-3.16D-03 OVMax= 6.20D-03

 Cycle   8  Pass 1  IDiag  1:
 RMSU=  1.73D-04    CP:  7.81D-01  1.61D-03  6.13D-01  9.44D-02  7.28D-01
                    CP:  7.72D-01  9.66D-01
 E= -886.038512861818     Delta-E=       -0.000094970977 Rises=F Damp=F
 DIIS: error= 2.46D-04 at cycle   8 NSaved=   8.
 NSaved= 8 IEnMin= 8 EnMin= -886.038512861818     IErMin= 8 ErrMin= 2.46D-04
 ErrMax= 2.46D-04  0.00D+00 EMaxC= 1.00D-01 BMatC= 1.57D-04 BMatP= 6.20D-04
 IDIUse=3 WtCom= 9.98D-01 WtEn= 2.46D-03
 Coeff-Com:  0.176D-02-0.339D-02 0.344D-02-0.683D-03-0.797D-03 0.417D-01
 Coeff-Com:  0.398D+00 0.560D+00
 Coeff-En:   0.000D+00 0.000D+00 0.000D+00 0.000D+00 0.000D+00 0.000D+00
 Coeff-En:   0.191D+00 0.809D+00
 Coeff:      0.176D-02-0.338D-02 0.343D-02-0.681D-03-0.795D-03 0.416D-01
 Coeff:      0.397D+00 0.561D+00
 Gap=     0.100 Goal=   None    Shift=    0.000
 Gap=     0.100 Goal=   None    Shift=    0.000
 RMSDP=1.26D-04 MaxDP=2.23D-02 DE=-9.50D-05 OVMax= 3.38D-03

 Cycle   9  Pass 1  IDiag  1:
 RMSU=  7.84D-05    CP:  7.79D-01  1.63D-03  6.12D-01  9.35D-02  7.27D-01
                    CP:  7.59D-01  1.02D+00  8.91D-01
 E= -886.038546985049     Delta-E=       -0.000034123232 Rises=F Damp=F
 DIIS: error= 6.85D-05 at cycle   9 NSaved=   9.
 NSaved= 9 IEnMin= 9 EnMin= -886.038546985049     IErMin= 9 ErrMin= 6.85D-05
 ErrMax= 6.85D-05  0.00D+00 EMaxC= 1.00D-01 BMatC= 1.92D-05 BMatP= 1.57D-04
 IDIUse=1 WtCom= 1.00D+00 WtEn= 0.00D+00
 Coeff-Com:  0.131D-02-0.214D-02 0.247D-03 0.924D-04-0.488D-02 0.205D-01
 Coeff-Com:  0.225D+00 0.364D+00 0.396D+00
 Coeff:      0.131D-02-0.214D-02 0.247D-03 0.924D-04-0.488D-02 0.205D-01
 Coeff:      0.225D+00 0.364D+00 0.396D+00
 Gap=     0.100 Goal=   None    Shift=    0.000
 Gap=     0.100 Goal=   None    Shift=    0.000
 RMSDP=4.92D-05 MaxDP=6.52D-03 DE=-3.41D-05 OVMax= 1.21D-03

 Cycle  10  Pass 1  IDiag  1:
 RMSU=  2.00D-05    CP:  7.80D-01  1.55D-03  6.13D-01  9.30D-02  7.26D-01
                    CP:  7.63D-01  1.02D+00  9.28D-01  7.79D-01
 E= -886.038551665320     Delta-E=       -0.000004680271 Rises=F Damp=F
 DIIS: error= 1.33D-05 at cycle  10 NSaved=  10.
 NSaved=10 IEnMin=10 EnMin= -886.038551665320     IErMin=10 ErrMin= 1.33D-05
 ErrMax= 1.33D-05  0.00D+00 EMaxC= 1.00D-01 BMatC= 5.74D-07 BMatP= 1.92D-05
 IDIUse=1 WtCom= 1.00D+00 WtEn= 0.00D+00
 Coeff-Com:  0.492D-03-0.614D-03-0.487D-03 0.648D-04-0.205D-02 0.552D-02
 Coeff-Com:  0.481D-01 0.823D-01 0.141D+00 0.726D+00
 Coeff:      0.492D-03-0.614D-03-0.487D-03 0.648D-04-0.205D-02 0.552D-02
 Coeff:      0.481D-01 0.823D-01 0.141D+00 0.726D+00
 Gap=     0.100 Goal=   None    Shift=    0.000
 Gap=     0.100 Goal=   None    Shift=    0.000
 RMSDP=1.28D-05 MaxDP=2.00D-03 DE=-4.68D-06 OVMax= 2.25D-04

 Cycle  11  Pass 1  IDiag  1:
 RMSU=  7.15D-06    CP:  7.80D-01  1.56D-03  6.13D-01  9.30D-02  7.24D-01
                    CP:  7.64D-01  1.03D+00  9.36D-01  8.52D-01  1.01D+00
 E= -886.038551801292     Delta-E=       -0.000000135972 Rises=F Damp=F
 DIIS: error= 4.11D-06 at cycle  11 NSaved=  11.
 NSaved=11 IEnMin=11 EnMin= -886.038551801292     IErMin=11 ErrMin= 4.11D-06
 ErrMax= 4.11D-06  0.00D+00 EMaxC= 1.00D-01 BMatC= 1.06D-07 BMatP= 5.74D-07
 IDIUse=1 WtCom= 1.00D+00 WtEn= 0.00D+00
 Coeff-Com:  0.220D-03-0.270D-03-0.275D-03 0.929D-05-0.684D-03 0.193D-02
 Coeff-Com:  0.124D-01 0.200D-01 0.416D-01 0.388D+00 0.537D+00
 Coeff:      0.220D-03-0.270D-03-0.275D-03 0.929D-05-0.684D-03 0.193D-02
 Coeff:      0.124D-01 0.200D-01 0.416D-01 0.388D+00 0.537D+00
 Gap=     0.100 Goal=   None    Shift=    0.000
 Gap=     0.100 Goal=   None    Shift=    0.000
 RMSDP=3.88D-06 MaxDP=3.53D-04 DE=-1.36D-07 OVMax= 4.90D-05

 Cycle  12  Pass 1  IDiag  1:
 RMSU=  1.67D-06    CP:  7.80D-01  1.56D-03  6.13D-01  9.29D-02  7.24D-01
                    CP:  7.65D-01  1.03D+00  9.45D-01  8.63D-01  1.04D+00
                    CP:  1.07D+00
 E= -886.038551826767     Delta-E=       -0.000000025476 Rises=F Damp=F
 DIIS: error= 1.53D-06 at cycle  12 NSaved=  12.
 NSaved=12 IEnMin=12 EnMin= -886.038551826767     IErMin=12 ErrMin= 1.53D-06
 ErrMax= 1.53D-06  0.00D+00 EMaxC= 1.00D-01 BMatC= 6.98D-09 BMatP= 1.06D-07
 IDIUse=1 WtCom= 1.00D+00 WtEn= 0.00D+00
 Coeff-Com:  0.536D-04-0.747D-04-0.515D-04-0.143D-05-0.477D-04 0.228D-03
 Coeff-Com:  0.250D-03-0.970D-03 0.638D-03 0.863D-01 0.240D+00 0.674D+00
 Coeff:      0.536D-04-0.747D-04-0.515D-04-0.143D-05-0.477D-04 0.228D-03
 Coeff:      0.250D-03-0.970D-03 0.638D-03 0.863D-01 0.240D+00 0.674D+00
 Gap=     0.100 Goal=   None    Shift=    0.000
 Gap=     0.100 Goal=   None    Shift=    0.000
 RMSDP=1.60D-06 MaxDP=2.25D-04 DE=-2.55D-08 OVMax= 1.83D-05

 Cycle  13  Pass 1  IDiag  1:
 RMSU=  7.43D-07    CP:  7.80D-01  1.56D-03  6.13D-01  9.29D-02  7.24D-01
                    CP:  7.65D-01  1.03D+00  9.48D-01  8.69D-01  1.05D+00
                    CP:  1.12D+00  1.04D+00
 E= -886.038551828308     Delta-E=       -0.000000001541 Rises=F Damp=F
 DIIS: error= 7.15D-07 at cycle  13 NSaved=  13.
 NSaved=13 IEnMin=13 EnMin= -886.038551828308     IErMin=13 ErrMin= 7.15D-07
 ErrMax= 7.15D-07  0.00D+00 EMaxC= 1.00D-01 BMatC= 1.37D-09 BMatP= 6.98D-09
 IDIUse=1 WtCom= 1.00D+00 WtEn= 0.00D+00
 Coeff-Com:  0.480D-05-0.734D-05 0.133D-05-0.386D-05 0.436D-04-0.625D-04
 Coeff-Com: -0.972D-03-0.260D-02-0.350D-02 0.123D-01 0.868D-01 0.377D+00
 Coeff-Com:  0.531D+00
 Coeff:      0.480D-05-0.734D-05 0.133D-05-0.386D-05 0.436D-04-0.625D-04
 Coeff:     -0.972D-03-0.260D-02-0.350D-02 0.123D-01 0.868D-01 0.377D+00
 Coeff:      0.531D+00
 Gap=     0.100 Goal=   None    Shift=    0.000
 Gap=     0.100 Goal=   None    Shift=    0.000
 RMSDP=4.56D-07 MaxDP=6.35D-05 DE=-1.54D-09 OVMax= 7.78D-06

 Cycle  14  Pass 1  IDiag  1:
 RMSU=  1.90D-07    CP:  7.80D-01  1.56D-03  6.13D-01  9.29D-02  7.24D-01
                    CP:  7.65D-01  1.03D+00  9.48D-01  8.71D-01  1.06D+00
                    CP:  1.14D+00  1.10D+00  9.86D-01
 E= -886.038551828668     Delta-E=       -0.000000000360 Rises=F Damp=F
 DIIS: error= 2.16D-07 at cycle  14 NSaved=  14.
 NSaved=14 IEnMin=14 EnMin= -886.038551828668     IErMin=14 ErrMin= 2.16D-07
 ErrMax= 2.16D-07  0.00D+00 EMaxC= 1.00D-01 BMatC= 1.39D-10 BMatP= 1.37D-09
 IDIUse=1 WtCom= 1.00D+00 WtEn= 0.00D+00
 Coeff-Com: -0.317D-05 0.307D-05 0.240D-05-0.994D-06 0.109D-04-0.580D-04
 Coeff-Com: -0.233D-03-0.703D-03-0.102D-02-0.454D-02 0.872D-02 0.814D-01
 Coeff-Com:  0.268D+00 0.648D+00
 Coeff:     -0.317D-05 0.307D-05 0.240D-05-0.994D-06 0.109D-04-0.580D-04
 Coeff:     -0.233D-03-0.703D-03-0.102D-02-0.454D-02 0.872D-02 0.814D-01
 Coeff:      0.268D+00 0.648D+00
 Gap=     0.100 Goal=   None    Shift=    0.000
 Gap=     0.100 Goal=   None    Shift=    0.000
 RMSDP=2.34D-07 MaxDP=3.01D-05 DE=-3.60D-10 OVMax= 2.68D-06

 Cycle  15  Pass 1  IDiag  1:
 RMSU=  8.99D-08    CP:  7.80D-01  1.56D-03  6.13D-01  9.29D-02  7.24D-01
                    CP:  7.65D-01  1.03D+00  9.49D-01  8.72D-01  1.06D+00
                    CP:  1.15D+00  1.13D+00  9.98D-01  9.54D-01
 E= -886.038551828690     Delta-E=       -0.000000000022 Rises=F Damp=F
 DIIS: error= 5.60D-08 at cycle  15 NSaved=  15.
 NSaved=15 IEnMin=15 EnMin= -886.038551828690     IErMin=15 ErrMin= 5.60D-08
 ErrMax= 5.60D-08  0.00D+00 EMaxC= 1.00D-01 BMatC= 1.29D-11 BMatP= 1.39D-10
 IDIUse=1 WtCom= 1.00D+00 WtEn= 0.00D+00
 Coeff-Com: -0.247D-05 0.291D-05 0.770D-06-0.275D-06 0.328D-05-0.282D-04
 Coeff-Com: -0.842D-04-0.242D-03-0.315D-03-0.284D-02-0.597D-04 0.210D-01
 Coeff-Com:  0.110D+00 0.339D+00 0.534D+00
 Coeff:     -0.247D-05 0.291D-05 0.770D-06-0.275D-06 0.328D-05-0.282D-04
 Coeff:     -0.842D-04-0.242D-03-0.315D-03-0.284D-02-0.597D-04 0.210D-01
 Coeff:      0.110D+00 0.339D+00 0.534D+00
 Gap=     0.100 Goal=   None    Shift=    0.000
 Gap=     0.100 Goal=   None    Shift=    0.000
 RMSDP=4.75D-08 MaxDP=3.85D-06 DE=-2.16D-11 OVMax= 7.27D-07

 Cycle  16  Pass 1  IDiag  1:
 RMSU=  2.08D-08    CP:  7.80D-01  1.56D-03  6.13D-01  9.29D-02  7.24D-01
                    CP:  7.65D-01  1.03D+00  9.49D-01  8.72D-01  1.06D+00
                    CP:  1.15D+00  1.13D+00  1.01D+00  1.03D+00  1.12D+00
 E= -886.038551828697     Delta-E=       -0.000000000008 Rises=F Damp=F
 DIIS: error= 2.73D-08 at cycle  16 NSaved=  16.
 NSaved=16 IEnMin=16 EnMin= -886.038551828697     IErMin=16 ErrMin= 2.73D-08
 ErrMax= 2.73D-08  0.00D+00 EMaxC= 1.00D-01 BMatC= 1.37D-12 BMatP= 1.29D-11
 IDIUse=1 WtCom= 1.00D+00 WtEn= 0.00D+00
 Coeff-Com: -0.698D-06 0.962D-06-0.778D-06 0.154D-06-0.104D-05-0.284D-05
 Coeff-Com: -0.810D-05 0.102D-04 0.427D-04-0.194D-03-0.119D-02-0.408D-02
 Coeff-Com:  0.171D-02 0.366D-01 0.223D+00 0.744D+00
 Coeff:     -0.698D-06 0.962D-06-0.778D-06 0.154D-06-0.104D-05-0.284D-05
 Coeff:     -0.810D-05 0.102D-04 0.427D-04-0.194D-03-0.119D-02-0.408D-02
 Coeff:      0.171D-02 0.366D-01 0.223D+00 0.744D+00
 Gap=     0.100 Goal=   None    Shift=    0.000
 Gap=     0.100 Goal=   None    Shift=    0.000
 RMSDP=2.89D-08 MaxDP=3.70D-06 DE=-7.50D-12 OVMax= 5.32D-07

 Cycle  17  Pass 1  IDiag  1:
 RMSU=  9.26D-09    CP:  7.80D-01  1.56D-03  6.13D-01  9.29D-02  7.24D-01
                    CP:  7.65D-01  1.03D+00  9.49D-01  8.72D-01  1.06D+00
                    CP:  1.15D+00  1.14D+00  1.02D+00  1.06D+00  1.24D+00
                    CP:  1.13D+00
 E= -886.038551828708     Delta-E=       -0.000000000011 Rises=F Damp=F
 DIIS: error= 6.43D-09 at cycle  17 NSaved=  17.
 NSaved=17 IEnMin=17 EnMin= -886.038551828708     IErMin=17 ErrMin= 6.43D-09
 ErrMax= 6.43D-09  0.00D+00 EMaxC= 1.00D-01 BMatC= 1.15D-13 BMatP= 1.37D-12
 IDIUse=1 WtCom= 1.00D+00 WtEn= 0.00D+00
 Coeff-Com: -0.179D-06 0.259D-06-0.428D-06 0.873D-07-0.541D-06-0.500D-07
 Coeff-Com: -0.123D-05 0.136D-04 0.328D-04 0.957D-04-0.420D-03-0.236D-02
 Coeff-Com: -0.492D-02-0.302D-02 0.504D-01 0.288D+00 0.672D+00
 Coeff:     -0.179D-06 0.259D-06-0.428D-06 0.873D-07-0.541D-06-0.500D-07
 Coeff:     -0.123D-05 0.136D-04 0.328D-04 0.957D-04-0.420D-03-0.236D-02
 Coeff:     -0.492D-02-0.302D-02 0.504D-01 0.288D+00 0.672D+00
 Gap=     0.100 Goal=   None    Shift=    0.000
 Gap=     0.100 Goal=   None    Shift=    0.000
 RMSDP=1.03D-08 MaxDP=7.42D-07 DE=-1.07D-11 OVMax= 1.45D-07

 Cycle  18  Pass 1  IDiag  1:
 RMSU=  2.70D-09    CP:  7.80D-01  1.56D-03  6.13D-01  9.29D-02  7.24D-01
                    CP:  7.65D-01  1.03D+00  9.49D-01  8.72D-01  1.06D+00
                    CP:  1.15D+00  1.14D+00  1.02D+00  1.07D+00  1.28D+00
                    CP:  1.27D+00  1.14D+00
 E= -886.038551828718     Delta-E=       -0.000000000010 Rises=F Damp=F
 DIIS: error= 2.97D-09 at cycle  18 NSaved=  18.
 NSaved=18 IEnMin=18 EnMin= -886.038551828718     IErMin=18 ErrMin= 2.97D-09
 ErrMax= 2.97D-09  0.00D+00 EMaxC= 1.00D-01 BMatC= 2.84D-14 BMatP= 1.15D-13
 IDIUse=1 WtCom= 1.00D+00 WtEn= 0.00D+00
 Coeff-Com:  0.918D-08-0.113D-08-0.789D-07 0.151D-07-0.362D-07 0.221D-06
 Coeff-Com: -0.334D-06 0.347D-05 0.803D-05 0.830D-04-0.675D-05-0.410D-03
 Coeff-Com: -0.300D-02-0.830D-02-0.195D-01 0.106D-01 0.395D+00 0.626D+00
 Coeff:      0.918D-08-0.113D-08-0.789D-07 0.151D-07-0.362D-07 0.221D-06
 Coeff:     -0.334D-06 0.347D-05 0.803D-05 0.830D-04-0.675D-05-0.410D-03
 Coeff:     -0.300D-02-0.830D-02-0.195D-01 0.106D-01 0.395D+00 0.626D+00
 Gap=     0.100 Goal=   None    Shift=    0.000
 Gap=     0.100 Goal=   None    Shift=    0.000
 RMSDP=3.82D-09 MaxDP=2.83D-07 DE=-1.02D-11 OVMax= 7.27D-08

 Error on total polarization charges =  0.03159
 SCF Done:  E(UB3LYP) =  -886.038551829     A.U. after   18 cycles
            NFock= 18  Conv=0.38D-08     -V/T= 2.0044
 <Sx>= 0.0000 <Sy>= 0.0000 <Sz>= 0.0000 <S**2>=-0.0000 S=-0.0000
 <L.S>=  0.00000000000    
 KE= 8.821650218917D+02 PE=-4.970332804600D+03 EE= 1.769000098125D+03
 Annihilation of the first spin contaminant:
 S**2 before annihilation    -0.0000,   after    -0.0000
 Leave Link  502 at Sun Jan 21 09:13:07 2024, MaxMem=  4026531840 cpu:            3351.0 elap:             420.2
 (Enter /sysapps/ubuntu-applications/gaussian/Gaussian/AVX2/g16/l601.exe)
 Copying SCF densities to generalized density rwf, IOpCl= 1 IROHF=0.

 **********************************************************************

            Population analysis using the SCF density.

 **********************************************************************

 Orbital symmetries:
 Alpha Orbitals:
       Occupied  (A) (A) (A) (A) (A) (A) (A) (A) (A) (A) (A) (A)
                 (A) (A) (A) (A) (A) (A) (A) (A) (A) (A) (A) (A)
                 (A) (A) (A) (A) (A) (A) (A) (A) (A) (A) (A) (A)
                 (A) (A) (A) (A) (A) (A) (A) (A) (A) (A) (A) (A)
                 (A) (A) (A) (A) (A) (A) (A) (A) (A) (A) (A) (A)
                 (A) (A) (A) (A) (A) (A) (A) (A) (A) (A) (A) (A)
                 (A) (A)
       Virtual   (A) (A) (A) (A) (A) (A) (A) (A) (A) (A) (A) (A)
                 (A) (A) (A) (A) (A) (A) (A) (A) (A) (A) (A) (A)
                 (A) (A) (A) (A) (A) (A) (A) (A) (A) (A) (A) (A)
                 (A) (A) (A) (A) (A) (A) (A) (A) (A) (A) (A) (A)
                 (A) (A) (A) (A) (A) (A) (A) (A) (A) (A) (A) (A)
                 (A) (A) (A) (A) (A) (A) (A) (A) (A) (A) (A) (A)
                 (A) (A) (A) (A) (A) (A) (A) (A) (A) (A) (A) (A)
                 (A) (A) (A) (A) (A) (A) (A) (A) (A) (A) (A) (A)
                 (A) (A) (A) (A) (A) (A) (A) (A) (A) (A) (A) (A)
                 (A) (A) (A) (A) (A) (A) (A) (A) (A) (A) (A) (A)
                 (A) (A) (A) (A) (A) (A) (A) (A) (A) (A) (A) (A)
                 (A) (A) (A) (A) (A) (A) (A) (A) (A) (A) (A) (A)
                 (A) (A) (A) (A) (A) (A) (A) (A) (A) (A) (A) (A)
                 (A) (A) (A) (A) (A) (A) (A) (A) (A) (A) (A) (A)
                 (A) (A) (A) (A) (A) (A) (A) (A) (A) (A) (A) (A)
                 (A) (A) (A) (A) (A) (A) (A) (A) (A) (A) (A) (A)
                 (A) (A) (A) (A) (A) (A) (A) (A) (A) (A) (A) (A)
                 (A) (A) (A) (A) (A) (A) (A) (A) (A) (A) (A) (A)
                 (A) (A) (A) (A) (A) (A) (A) (A) (A) (A) (A) (A)
                 (A) (A) (A) (A) (A) (A) (A) (A) (A) (A) (A) (A)
                 (A) (A) (A) (A) (A) (A) (A) (A) (A) (A) (A) (A)
                 (A) (A) (A) (A) (A) (A) (A) (A) (A) (A) (A) (A)
                 (A) (A) (A) (A) (A) (A) (A) (A) (A) (A) (A) (A)
                 (A) (A) (A) (A) (A) (A) (A) (A) (A) (A) (A) (A)
                 (A) (A) (A) (A) (A) (A) (A) (A) (A) (A) (A) (A)
                 (A) (A) (A) (A) (A) (A) (A) (A) (A) (A) (A) (A)
                 (A) (A) (A) (A) (A) (A) (A) (A) (A) (A) (A) (A)
                 (A) (A) (A) (A) (A) (A) (A) (A) (A) (A) (A) (A)
                 (A) (A) (A) (A) (A) (A) (A) (A) (A) (A) (A) (A)
                 (A) (A) (A) (A) (A) (A) (A) (A) (A) (A) (A) (A)
                 (A) (A) (A) (A) (A) (A) (A) (A) (A) (A) (A) (A)
                 (A) (A) (A) (A) (A) (A) (A) (A) (A) (A) (A) (A)
                 (A) (A) (A) (A) (A) (A) (A) (A) (A) (A) (A) (A)
                 (A) (A) (A) (A) (A) (A) (A) (A) (A) (A) (A) (A)
                 (A) (A) (A) (A) (A) (A) (A) (A) (A) (A) (A) (A)
                 (A) (A) (A) (A) (A) (A) (A) (A) (A) (A) (A) (A)
                 (A) (A) (A) (A) (A) (A) (A) (A) (A) (A) (A) (A)
                 (A) (A) (A) (A) (A) (A) (A) (A) (A) (A) (A) (A)
                 (A) (A) (A) (A) (A) (A) (A) (A) (A) (A) (A) (A)
                 (A) (A) (A) (A) (A) (A) (A) (A) (A) (A) (A) (A)
                 (A) (A) (A) (A) (A) (A) (A) (A) (A) (A) (A) (A)
                 (A) (A) (A) (A) (A) (A) (A) (A) (A) (A)
 Beta  Orbitals:
       Occupied  (A) (A) (A) (A) (A) (A) (A) (A) (A) (A) (A) (A)
                 (A) (A) (A) (A) (A) (A) (A) (A) (A) (A) (A) (A)
                 (A) (A) (A) (A) (A) (A) (A) (A) (A) (A) (A) (A)
                 (A) (A) (A) (A) (A) (A) (A) (A) (A) (A) (A) (A)
                 (A) (A) (A) (A) (A) (A) (A) (A) (A) (A) (A) (A)
                 (A) (A) (A) (A) (A) (A) (A) (A) (A) (A) (A) (A)
                 (A) (A)
       Virtual   (A) (A) (A) (A) (A) (A) (A) (A) (A) (A) (A) (A)
                 (A) (A) (A) (A) (A) (A) (A) (A) (A) (A) (A) (A)
                 (A) (A) (A) (A) (A) (A) (A) (A) (A) (A) (A) (A)
                 (A) (A) (A) (A) (A) (A) (A) (A) (A) (A) (A) (A)
                 (A) (A) (A) (A) (A) (A) (A) (A) (A) (A) (A) (A)
                 (A) (A) (A) (A) (A) (A) (A) (A) (A) (A) (A) (A)
                 (A) (A) (A) (A) (A) (A) (A) (A) (A) (A) (A) (A)
                 (A) (A) (A) (A) (A) (A) (A) (A) (A) (A) (A) (A)
                 (A) (A) (A) (A) (A) (A) (A) (A) (A) (A) (A) (A)
                 (A) (A) (A) (A) (A) (A) (A) (A) (A) (A) (A) (A)
                 (A) (A) (A) (A) (A) (A) (A) (A) (A) (A) (A) (A)
                 (A) (A) (A) (A) (A) (A) (A) (A) (A) (A) (A) (A)
                 (A) (A) (A) (A) (A) (A) (A) (A) (A) (A) (A) (A)
                 (A) (A) (A) (A) (A) (A) (A) (A) (A) (A) (A) (A)
                 (A) (A) (A) (A) (A) (A) (A) (A) (A) (A) (A) (A)
                 (A) (A) (A) (A) (A) (A) (A) (A) (A) (A) (A) (A)
                 (A) (A) (A) (A) (A) (A) (A) (A) (A) (A) (A) (A)
                 (A) (A) (A) (A) (A) (A) (A) (A) (A) (A) (A) (A)
                 (A) (A) (A) (A) (A) (A) (A) (A) (A) (A) (A) (A)
                 (A) (A) (A) (A) (A) (A) (A) (A) (A) (A) (A) (A)
                 (A) (A) (A) (A) (A) (A) (A) (A) (A) (A) (A) (A)
                 (A) (A) (A) (A) (A) (A) (A) (A) (A) (A) (A) (A)
                 (A) (A) (A) (A) (A) (A) (A) (A) (A) (A) (A) (A)
                 (A) (A) (A) (A) (A) (A) (A) (A) (A) (A) (A) (A)
                 (A) (A) (A) (A) (A) (A) (A) (A) (A) (A) (A) (A)
                 (A) (A) (A) (A) (A) (A) (A) (A) (A) (A) (A) (A)
                 (A) (A) (A) (A) (A) (A) (A) (A) (A) (A) (A) (A)
                 (A) (A) (A) (A) (A) (A) (A) (A) (A) (A) (A) (A)
                 (A) (A) (A) (A) (A) (A) (A) (A) (A) (A) (A) (A)
                 (A) (A) (A) (A) (A) (A) (A) (A) (A) (A) (A) (A)
                 (A) (A) (A) (A) (A) (A) (A) (A) (A) (A) (A) (A)
                 (A) (A) (A) (A) (A) (A) (A) (A) (A) (A) (A) (A)
                 (A) (A) (A) (A) (A) (A) (A) (A) (A) (A) (A) (A)
                 (A) (A) (A) (A) (A) (A) (A) (A) (A) (A) (A) (A)
                 (A) (A) (A) (A) (A) (A) (A) (A) (A) (A) (A) (A)
                 (A) (A) (A) (A) (A) (A) (A) (A) (A) (A) (A) (A)
                 (A) (A) (A) (A) (A) (A) (A) (A) (A) (A) (A) (A)
                 (A) (A) (A) (A) (A) (A) (A) (A) (A) (A) (A) (A)
                 (A) (A) (A) (A) (A) (A) (A) (A) (A) (A) (A) (A)
                 (A) (A) (A) (A) (A) (A) (A) (A) (A) (A) (A) (A)
                 (A) (A) (A) (A) (A) (A) (A) (A) (A) (A) (A) (A)
                 (A) (A) (A) (A) (A) (A) (A) (A) (A) (A)
 The electronic state is 1-A.
 Alpha  occ. eigenvalues --  -19.10803 -19.02184 -19.01402 -10.17189 -10.16874
 Alpha  occ. eigenvalues --  -10.15918 -10.15686 -10.15583 -10.15418 -10.15345
 Alpha  occ. eigenvalues --  -10.15096 -10.14555 -10.14492 -10.14162 -10.14126
 Alpha  occ. eigenvalues --  -10.14068 -10.13852 -10.13174 -10.12775 -10.11954
 Alpha  occ. eigenvalues --   -1.02205  -0.93654  -0.92715  -0.82032  -0.80051
 Alpha  occ. eigenvalues --   -0.77774  -0.75661  -0.72784  -0.71798  -0.69609
 Alpha  occ. eigenvalues --   -0.65910  -0.62793  -0.60497  -0.58025  -0.57154
 Alpha  occ. eigenvalues --   -0.56672  -0.55006  -0.53070  -0.49898  -0.47387
 Alpha  occ. eigenvalues --   -0.46703  -0.45022  -0.43882  -0.42668  -0.42354
 Alpha  occ. eigenvalues --   -0.41974  -0.40672  -0.40069  -0.39714  -0.39152
 Alpha  occ. eigenvalues --   -0.37977  -0.36769  -0.36682  -0.35926  -0.35229
 Alpha  occ. eigenvalues --   -0.34923  -0.34623  -0.34148  -0.32946  -0.32772
 Alpha  occ. eigenvalues --   -0.31941  -0.31679  -0.31511  -0.30851  -0.30745
 Alpha  occ. eigenvalues --   -0.30036  -0.29355  -0.29065  -0.22614  -0.22041
 Alpha  occ. eigenvalues --   -0.21042  -0.19217  -0.18785  -0.10285
 Alpha virt. eigenvalues --   -0.00243  -0.00084   0.00223   0.00995   0.01279
 Alpha virt. eigenvalues --    0.01360   0.02024   0.02321   0.02384   0.03117
 Alpha virt. eigenvalues --    0.03260   0.03995   0.04708   0.04835   0.05069
 Alpha virt. eigenvalues --    0.05315   0.05827   0.06217   0.06241   0.06621
 Alpha virt. eigenvalues --    0.07538   0.07692   0.08103   0.08201   0.08872
 Alpha virt. eigenvalues --    0.09407   0.09583   0.10022   0.10328   0.10845
 Alpha virt. eigenvalues --    0.10952   0.11210   0.11941   0.11991   0.12147
 Alpha virt. eigenvalues --    0.12483   0.12844   0.12945   0.13009   0.13366
 Alpha virt. eigenvalues --    0.13486   0.13524   0.13967   0.14233   0.14315
 Alpha virt. eigenvalues --    0.14422   0.14630   0.14934   0.15227   0.15449
 Alpha virt. eigenvalues --    0.15647   0.15987   0.16227   0.16486   0.16544
 Alpha virt. eigenvalues --    0.16798   0.17486   0.17574   0.17853   0.17959
 Alpha virt. eigenvalues --    0.18139   0.18342   0.18870   0.19375   0.19516
 Alpha virt. eigenvalues --    0.19822   0.20094   0.20562   0.20653   0.21025
 Alpha virt. eigenvalues --    0.21418   0.21562   0.21679   0.21898   0.22346
 Alpha virt. eigenvalues --    0.22659   0.22997   0.23345   0.23659   0.23897
 Alpha virt. eigenvalues --    0.24145   0.24434   0.24928   0.25550   0.26038
 Alpha virt. eigenvalues --    0.26297   0.26563   0.26886   0.27056   0.27237
 Alpha virt. eigenvalues --    0.27837   0.28155   0.28220   0.28474   0.28753
 Alpha virt. eigenvalues --    0.29602   0.29770   0.30376   0.30520   0.30883
 Alpha virt. eigenvalues --    0.31111   0.31225   0.31821   0.32074   0.32448
 Alpha virt. eigenvalues --    0.32638   0.32889   0.33274   0.33365   0.33781
 Alpha virt. eigenvalues --    0.34105   0.34398   0.34927   0.35311   0.35498
 Alpha virt. eigenvalues --    0.36203   0.36498   0.36691   0.37140   0.37418
 Alpha virt. eigenvalues --    0.37865   0.38101   0.38537   0.38944   0.39589
 Alpha virt. eigenvalues --    0.40767   0.41245   0.41421   0.42374   0.43285
 Alpha virt. eigenvalues --    0.43552   0.44162   0.44716   0.45349   0.45684
 Alpha virt. eigenvalues --    0.46115   0.46787   0.47632   0.48018   0.48880
 Alpha virt. eigenvalues --    0.50611   0.50861   0.53610   0.54092   0.54321
 Alpha virt. eigenvalues --    0.55090   0.55699   0.56717   0.57207   0.57393
 Alpha virt. eigenvalues --    0.58190   0.58784   0.59590   0.60522   0.61323
 Alpha virt. eigenvalues --    0.62069   0.62658   0.63385   0.63983   0.64518
 Alpha virt. eigenvalues --    0.65088   0.65840   0.66196   0.66429   0.66780
 Alpha virt. eigenvalues --    0.67035   0.67610   0.68175   0.68307   0.68801
 Alpha virt. eigenvalues --    0.69087   0.69504   0.70124   0.70533   0.70682
 Alpha virt. eigenvalues --    0.71342   0.71788   0.72365   0.73148   0.73339
 Alpha virt. eigenvalues --    0.74125   0.74544   0.75729   0.76123   0.76228
 Alpha virt. eigenvalues --    0.76474   0.76722   0.77457   0.77698   0.78068
 Alpha virt. eigenvalues --    0.78406   0.79260   0.79586   0.80495   0.80944
 Alpha virt. eigenvalues --    0.81571   0.82458   0.82754   0.84378   0.85085
 Alpha virt. eigenvalues --    0.86449   0.87218   0.87937   0.88420   0.89266
 Alpha virt. eigenvalues --    0.91322   0.92081   0.93583   0.94628   0.96418
 Alpha virt. eigenvalues --    0.96466   0.97086   0.97842   0.98360   0.99840
 Alpha virt. eigenvalues --    1.00815   1.01765   1.01894   1.02394   1.03713
 Alpha virt. eigenvalues --    1.04212   1.05048   1.06071   1.06620   1.08104
 Alpha virt. eigenvalues --    1.08430   1.09421   1.10354   1.11793   1.12159
 Alpha virt. eigenvalues --    1.13302   1.14464   1.15001   1.16122   1.17085
 Alpha virt. eigenvalues --    1.18858   1.20049   1.21908   1.22154   1.23997
 Alpha virt. eigenvalues --    1.25689   1.26053   1.26482   1.27444   1.28138
 Alpha virt. eigenvalues --    1.28526   1.28727   1.30003   1.31524   1.31805
 Alpha virt. eigenvalues --    1.32707   1.32786   1.33274   1.34243   1.36270
 Alpha virt. eigenvalues --    1.39956   1.41482   1.43504   1.46360   1.47006
 Alpha virt. eigenvalues --    1.48247   1.48906   1.50414   1.51105   1.52577
 Alpha virt. eigenvalues --    1.53747   1.54958   1.55344   1.55976   1.56808
 Alpha virt. eigenvalues --    1.57660   1.57682   1.58231   1.59167   1.59479
 Alpha virt. eigenvalues --    1.60143   1.61485   1.62352   1.63031   1.63991
 Alpha virt. eigenvalues --    1.64301   1.65513   1.66653   1.66987   1.67724
 Alpha virt. eigenvalues --    1.68162   1.68343   1.69484   1.69911   1.70281
 Alpha virt. eigenvalues --    1.71730   1.72343   1.74047   1.74693   1.75172
 Alpha virt. eigenvalues --    1.75297   1.75740   1.76209   1.77074   1.78702
 Alpha virt. eigenvalues --    1.78791   1.79236   1.80028   1.80402   1.82669
 Alpha virt. eigenvalues --    1.83739   1.84148   1.86084   1.86532   1.87780
 Alpha virt. eigenvalues --    1.88149   1.89435   1.90034   1.91736   1.92093
 Alpha virt. eigenvalues --    1.92565   1.94370   1.95007   1.96198   1.97126
 Alpha virt. eigenvalues --    1.97576   1.98736   1.99647   2.00764   2.01841
 Alpha virt. eigenvalues --    2.02725   2.03734   2.06067   2.06951   2.07767
 Alpha virt. eigenvalues --    2.09081   2.10560   2.11140   2.13689   2.14735
 Alpha virt. eigenvalues --    2.16295   2.17091   2.17296   2.20263   2.20686
 Alpha virt. eigenvalues --    2.22264   2.23243   2.24650   2.26325   2.27280
 Alpha virt. eigenvalues --    2.27739   2.29863   2.31513   2.33276   2.33896
 Alpha virt. eigenvalues --    2.34506   2.34813   2.35420   2.37827   2.40621
 Alpha virt. eigenvalues --    2.40716   2.41630   2.43324   2.44485   2.45320
 Alpha virt. eigenvalues --    2.47560   2.49115   2.49402   2.50506   2.50807
 Alpha virt. eigenvalues --    2.52959   2.54409   2.55333   2.55580   2.57590
 Alpha virt. eigenvalues --    2.58694   2.61133   2.61912   2.62268   2.62960
 Alpha virt. eigenvalues --    2.64941   2.66512   2.67307   2.67777   2.68889
 Alpha virt. eigenvalues --    2.70751   2.71966   2.72124   2.72580   2.73620
 Alpha virt. eigenvalues --    2.74824   2.75387   2.75879   2.76784   2.77427
 Alpha virt. eigenvalues --    2.79050   2.79388   2.79851   2.81020   2.82038
 Alpha virt. eigenvalues --    2.82220   2.83002   2.84560   2.85374   2.86918
 Alpha virt. eigenvalues --    2.87443   2.88916   2.89331   2.91356   2.93064
 Alpha virt. eigenvalues --    2.93354   2.93878   2.95180   2.96260   2.97067
 Alpha virt. eigenvalues --    2.97589   2.99016   2.99506   3.00153   3.03259
 Alpha virt. eigenvalues --    3.04150   3.04296   3.09184   3.10825   3.11363
 Alpha virt. eigenvalues --    3.12808   3.14188   3.16173   3.17656   3.20005
 Alpha virt. eigenvalues --    3.20361   3.21405   3.24942   3.26736   3.31631
 Alpha virt. eigenvalues --    3.33335   3.35249   3.36314   3.37427   3.39197
 Alpha virt. eigenvalues --    3.44128   3.46129   3.49423   3.50546   3.52172
 Alpha virt. eigenvalues --    3.54948   3.55256   3.58061   3.60223   3.64182
 Alpha virt. eigenvalues --    3.68367   3.78078   3.79149   3.80769   3.82432
 Alpha virt. eigenvalues --    3.83159   3.84124   3.86303   3.86673   3.89133
 Alpha virt. eigenvalues --    3.91231   3.94300   3.97447   4.06298   4.07094
 Alpha virt. eigenvalues --    4.09633   4.10973   4.15998   4.23358   4.24054
 Alpha virt. eigenvalues --    4.25487   4.32594   4.35909   4.37086   4.41497
 Alpha virt. eigenvalues --    4.48205   4.86671   4.88806   5.05752   5.15324
 Alpha virt. eigenvalues --    5.18285   5.34197   5.36521   5.56735   5.71787
 Alpha virt. eigenvalues --    5.82729   5.87955  23.59852  23.82882  23.87950
 Alpha virt. eigenvalues --   23.89509  23.91496  23.91851  23.93429  23.95703
 Alpha virt. eigenvalues --   23.97539  23.98416  23.98837  24.00444  24.02945
 Alpha virt. eigenvalues --   24.06173  24.14336  24.15022  24.21180  49.99000
 Alpha virt. eigenvalues --   50.10077  50.15815
  Beta  occ. eigenvalues --  -19.10803 -19.02184 -19.01402 -10.17189 -10.16874
  Beta  occ. eigenvalues --  -10.15918 -10.15686 -10.15583 -10.15418 -10.15345
  Beta  occ. eigenvalues --  -10.15096 -10.14555 -10.14492 -10.14162 -10.14126
  Beta  occ. eigenvalues --  -10.14068 -10.13852 -10.13174 -10.12775 -10.11954
  Beta  occ. eigenvalues --   -1.02205  -0.93654  -0.92715  -0.82032  -0.80051
  Beta  occ. eigenvalues --   -0.77774  -0.75661  -0.72784  -0.71798  -0.69609
  Beta  occ. eigenvalues --   -0.65910  -0.62793  -0.60497  -0.58025  -0.57154
  Beta  occ. eigenvalues --   -0.56672  -0.55006  -0.53070  -0.49898  -0.47387
  Beta  occ. eigenvalues --   -0.46703  -0.45022  -0.43882  -0.42668  -0.42354
  Beta  occ. eigenvalues --   -0.41974  -0.40672  -0.40069  -0.39714  -0.39152
  Beta  occ. eigenvalues --   -0.37977  -0.36769  -0.36682  -0.35926  -0.35229
  Beta  occ. eigenvalues --   -0.34923  -0.34623  -0.34148  -0.32946  -0.32772
  Beta  occ. eigenvalues --   -0.31941  -0.31679  -0.31511  -0.30851  -0.30745
  Beta  occ. eigenvalues --   -0.30036  -0.29355  -0.29065  -0.22614  -0.22041
  Beta  occ. eigenvalues --   -0.21042  -0.19217  -0.18785  -0.10285
  Beta virt. eigenvalues --   -0.00243  -0.00084   0.00223   0.00995   0.01279
  Beta virt. eigenvalues --    0.01360   0.02024   0.02321   0.02384   0.03117
  Beta virt. eigenvalues --    0.03260   0.03995   0.04708   0.04835   0.05069
  Beta virt. eigenvalues --    0.05315   0.05827   0.06217   0.06241   0.06621
  Beta virt. eigenvalues --    0.07538   0.07692   0.08103   0.08201   0.08872
  Beta virt. eigenvalues --    0.09407   0.09583   0.10022   0.10328   0.10845
  Beta virt. eigenvalues --    0.10952   0.11210   0.11941   0.11991   0.12147
  Beta virt. eigenvalues --    0.12483   0.12844   0.12945   0.13009   0.13366
  Beta virt. eigenvalues --    0.13486   0.13524   0.13967   0.14233   0.14315
  Beta virt. eigenvalues --    0.14422   0.14630   0.14934   0.15227   0.15449
  Beta virt. eigenvalues --    0.15647   0.15987   0.16227   0.16486   0.16544
  Beta virt. eigenvalues --    0.16798   0.17486   0.17574   0.17853   0.17959
  Beta virt. eigenvalues --    0.18139   0.18342   0.18870   0.19375   0.19516
  Beta virt. eigenvalues --    0.19822   0.20094   0.20562   0.20653   0.21025
  Beta virt. eigenvalues --    0.21418   0.21562   0.21679   0.21898   0.22346
  Beta virt. eigenvalues --    0.22659   0.22997   0.23345   0.23659   0.23897
  Beta virt. eigenvalues --    0.24145   0.24434   0.24928   0.25550   0.26038
  Beta virt. eigenvalues --    0.26297   0.26563   0.26886   0.27056   0.27237
  Beta virt. eigenvalues --    0.27837   0.28155   0.28220   0.28474   0.28753
  Beta virt. eigenvalues --    0.29602   0.29770   0.30376   0.30520   0.30883
  Beta virt. eigenvalues --    0.31111   0.31225   0.31821   0.32074   0.32448
  Beta virt. eigenvalues --    0.32638   0.32889   0.33274   0.33365   0.33781
  Beta virt. eigenvalues --    0.34105   0.34398   0.34927   0.35311   0.35498
  Beta virt. eigenvalues --    0.36203   0.36498   0.36691   0.37140   0.37418
  Beta virt. eigenvalues --    0.37865   0.38101   0.38537   0.38944   0.39589
  Beta virt. eigenvalues --    0.40767   0.41245   0.41421   0.42374   0.43285
  Beta virt. eigenvalues --    0.43552   0.44162   0.44716   0.45349   0.45684
  Beta virt. eigenvalues --    0.46115   0.46787   0.47632   0.48018   0.48880
  Beta virt. eigenvalues --    0.50611   0.50861   0.53610   0.54092   0.54321
  Beta virt. eigenvalues --    0.55090   0.55699   0.56717   0.57207   0.57393
  Beta virt. eigenvalues --    0.58190   0.58784   0.59590   0.60522   0.61323
  Beta virt. eigenvalues --    0.62069   0.62658   0.63385   0.63983   0.64518
  Beta virt. eigenvalues --    0.65088   0.65840   0.66196   0.66429   0.66780
  Beta virt. eigenvalues --    0.67035   0.67610   0.68175   0.68307   0.68801
  Beta virt. eigenvalues --    0.69087   0.69504   0.70124   0.70533   0.70682
  Beta virt. eigenvalues --    0.71342   0.71788   0.72365   0.73148   0.73339
  Beta virt. eigenvalues --    0.74125   0.74544   0.75729   0.76123   0.76228
  Beta virt. eigenvalues --    0.76474   0.76722   0.77457   0.77698   0.78068
  Beta virt. eigenvalues --    0.78406   0.79260   0.79586   0.80495   0.80944
  Beta virt. eigenvalues --    0.81571   0.82458   0.82754   0.84378   0.85085
  Beta virt. eigenvalues --    0.86449   0.87218   0.87937   0.88420   0.89266
  Beta virt. eigenvalues --    0.91322   0.92081   0.93583   0.94628   0.96418
  Beta virt. eigenvalues --    0.96466   0.97086   0.97842   0.98360   0.99840
  Beta virt. eigenvalues --    1.00815   1.01765   1.01894   1.02394   1.03713
  Beta virt. eigenvalues --    1.04212   1.05048   1.06071   1.06620   1.08104
  Beta virt. eigenvalues --    1.08430   1.09421   1.10354   1.11793   1.12159
  Beta virt. eigenvalues --    1.13302   1.14464   1.15001   1.16122   1.17085
  Beta virt. eigenvalues --    1.18858   1.20049   1.21908   1.22154   1.23997
  Beta virt. eigenvalues --    1.25689   1.26053   1.26482   1.27444   1.28138
  Beta virt. eigenvalues --    1.28526   1.28727   1.30003   1.31524   1.31805
  Beta virt. eigenvalues --    1.32707   1.32786   1.33274   1.34243   1.36270
  Beta virt. eigenvalues --    1.39956   1.41482   1.43504   1.46360   1.47006
  Beta virt. eigenvalues --    1.48247   1.48906   1.50414   1.51105   1.52577
  Beta virt. eigenvalues --    1.53747   1.54958   1.55344   1.55976   1.56808
  Beta virt. eigenvalues --    1.57660   1.57682   1.58231   1.59167   1.59479
  Beta virt. eigenvalues --    1.60143   1.61485   1.62352   1.63031   1.63991
  Beta virt. eigenvalues --    1.64301   1.65513   1.66653   1.66987   1.67724
  Beta virt. eigenvalues --    1.68162   1.68343   1.69484   1.69911   1.70281
  Beta virt. eigenvalues --    1.71730   1.72343   1.74047   1.74693   1.75172
  Beta virt. eigenvalues --    1.75297   1.75740   1.76209   1.77074   1.78702
  Beta virt. eigenvalues --    1.78791   1.79236   1.80028   1.80402   1.82669
  Beta virt. eigenvalues --    1.83739   1.84148   1.86084   1.86532   1.87780
  Beta virt. eigenvalues --    1.88149   1.89435   1.90034   1.91736   1.92093
  Beta virt. eigenvalues --    1.92565   1.94370   1.95007   1.96198   1.97126
  Beta virt. eigenvalues --    1.97576   1.98736   1.99647   2.00764   2.01841
  Beta virt. eigenvalues --    2.02725   2.03734   2.06067   2.06951   2.07767
  Beta virt. eigenvalues --    2.09081   2.10560   2.11140   2.13689   2.14735
  Beta virt. eigenvalues --    2.16295   2.17091   2.17296   2.20263   2.20686
  Beta virt. eigenvalues --    2.22264   2.23243   2.24650   2.26325   2.27280
  Beta virt. eigenvalues --    2.27739   2.29863   2.31513   2.33276   2.33896
  Beta virt. eigenvalues --    2.34506   2.34813   2.35420   2.37827   2.40621
  Beta virt. eigenvalues --    2.40716   2.41630   2.43324   2.44485   2.45320
  Beta virt. eigenvalues --    2.47560   2.49115   2.49402   2.50506   2.50807
  Beta virt. eigenvalues --    2.52959   2.54409   2.55333   2.55580   2.57590
  Beta virt. eigenvalues --    2.58694   2.61133   2.61912   2.62268   2.62960
  Beta virt. eigenvalues --    2.64941   2.66512   2.67307   2.67777   2.68889
  Beta virt. eigenvalues --    2.70751   2.71966   2.72124   2.72580   2.73620
  Beta virt. eigenvalues --    2.74824   2.75387   2.75879   2.76784   2.77427
  Beta virt. eigenvalues --    2.79050   2.79388   2.79851   2.81020   2.82038
  Beta virt. eigenvalues --    2.82220   2.83002   2.84560   2.85374   2.86918
  Beta virt. eigenvalues --    2.87443   2.88916   2.89331   2.91356   2.93064
  Beta virt. eigenvalues --    2.93354   2.93878   2.95180   2.96260   2.97067
  Beta virt. eigenvalues --    2.97589   2.99016   2.99506   3.00153   3.03259
  Beta virt. eigenvalues --    3.04150   3.04296   3.09184   3.10825   3.11363
  Beta virt. eigenvalues --    3.12808   3.14188   3.16173   3.17656   3.20005
  Beta virt. eigenvalues --    3.20361   3.21405   3.24942   3.26736   3.31631
  Beta virt. eigenvalues --    3.33335   3.35249   3.36314   3.37427   3.39197
  Beta virt. eigenvalues --    3.44128   3.46129   3.49423   3.50546   3.52172
  Beta virt. eigenvalues --    3.54948   3.55256   3.58061   3.60223   3.64182
  Beta virt. eigenvalues --    3.68367   3.78078   3.79149   3.80769   3.82432
  Beta virt. eigenvalues --    3.83159   3.84124   3.86303   3.86673   3.89133
  Beta virt. eigenvalues --    3.91231   3.94300   3.97447   4.06298   4.07094
  Beta virt. eigenvalues --    4.09633   4.10973   4.15998   4.23358   4.24054
  Beta virt. eigenvalues --    4.25487   4.32594   4.35909   4.37086   4.41497
  Beta virt. eigenvalues --    4.48205   4.86671   4.88806   5.05752   5.15324
  Beta virt. eigenvalues --    5.18285   5.34197   5.36521   5.56735   5.71787
  Beta virt. eigenvalues --    5.82729   5.87955  23.59852  23.82882  23.87950
  Beta virt. eigenvalues --   23.89509  23.91496  23.91851  23.93429  23.95703
  Beta virt. eigenvalues --   23.97539  23.98416  23.98837  24.00444  24.02945
  Beta virt. eigenvalues --   24.06173  24.14336  24.15022  24.21180  49.99000
  Beta virt. eigenvalues --   50.10077  50.15815
          Condensed to atoms (all electrons):
               1          2          3          4          5          6
     1  C    9.059718  -0.020799  -0.621422  -0.598166  -1.889145   1.044161
     2  C   -0.020799   6.669188   0.034715   0.278103  -0.037322  -0.150384
     3  C   -0.621422   0.034715   7.298638  -0.454084   0.524074  -0.598412
     4  C   -0.598166   0.278103  -0.454084  18.464707  -1.929669   0.396527
     5  C   -1.889145  -0.037322   0.524074  -1.929669  22.979062  -0.932203
     6  C    1.044161  -0.150384  -0.598412   0.396527  -0.932203   8.163012
     7  C   -0.469149  -0.445307   0.410455  -1.515669  -1.410259  -1.077255
     8  C   -0.736775   0.028865  -0.000019  -4.115631  -4.574678  -0.473906
     9  C   -0.539540  -0.077735  -0.383537  -1.882257  -5.802585   0.401820
    10  C    0.098323  -0.091653  -0.087995  -1.049973   0.052315  -1.252254
    11  O    0.247070   0.051613  -0.017780  -0.181470  -0.238254  -0.006432
    12  O   -0.007244  -0.017006   0.052674  -0.201026  -0.366522   0.105046
    13  H    0.419395  -0.125393   0.001424   0.011946   0.061947   0.024628
    14  H   -0.077428   0.434902  -0.056248   0.030688  -0.034012  -0.004415
    15  H   -0.012769  -0.057845   0.479199  -0.035337   0.033666  -0.116421
    16  H    0.030609   0.009738  -0.124223   0.047058  -0.125814   0.419371
    17  O    0.036380   0.005582  -0.000551  -0.162940  -0.111003  -0.015014
    18  C    0.126209  -0.098550   0.038313  -1.487779  -0.510046   0.091819
    19  C   -0.007327  -0.001929   0.004686  -0.056269   0.306067  -0.036144
    20  C   -0.008019  -0.002315   0.003521  -0.055801   0.007117   0.006254
    21  C    0.000566  -0.000563   0.000817  -0.019553   0.038929  -0.001212
[...]
    14  H(1)              -0.00000      -0.00000      -0.00000      -0.00000
    15  H(1)              -0.00000      -0.00000      -0.00000      -0.00000
    16  H(1)               0.00000       0.00000       0.00000       0.00000
    17  O(17)              0.00000      -0.00000      -0.00000      -0.00000
    18  C(13)              0.00000       0.00000       0.00000       0.00000
    19  C(13)              0.00000       0.00000       0.00000       0.00000
    20  C(13)              0.00000       0.00000       0.00000       0.00000
    21  C(13)             -0.00000      -0.00000      -0.00000      -0.00000
    22  C(13)             -0.00000      -0.00000      -0.00000      -0.00000
    23  H(1)              -0.00000      -0.00000      -0.00000      -0.00000
    24  H(1)               0.00000       0.00000       0.00000       0.00000
    25  H(1)              -0.00000      -0.00000      -0.00000      -0.00000
    26  H(1)               0.00000       0.00000       0.00000       0.00000
    27  H(1)               0.00000       0.00000       0.00000       0.00000
    28  H(1)               0.00000       0.00000       0.00000       0.00000
    29  H(1)               0.00000       0.00000       0.00000       0.00000
    30  H(1)               0.00000       0.00000       0.00000       0.00000
    31  H(1)               0.00000       0.00000       0.00000       0.00000
    32  H(1)               0.00000       0.00000       0.00000       0.00000
    33  H(1)               0.00000       0.00000       0.00000       0.00000
    34  C(13)             -0.00000      -0.00000      -0.00000      -0.00000
    35  C(13)             -0.00000      -0.00000      -0.00000      -0.00000
    36  H(1)              -0.00000      -0.00000      -0.00000      -0.00000
    37  H(1)              -0.00000      -0.00000      -0.00000      -0.00000
    38  H(1)               0.00000       0.00000       0.00000       0.00000
    39  H(1)               0.00000       0.00000       0.00000       0.00000
    40  H(1)               0.00000       0.00000       0.00000       0.00000
 --------------------------------------------------------
       Center         ----  Spin Dipole Couplings  ----
                      3XX-RR        3YY-RR        3ZZ-RR
 --------------------------------------------------------
     1   Atom        0.000000     -0.000000     -0.000000
     2   Atom        0.000000     -0.000000     -0.000000
     3   Atom        0.000000     -0.000000      0.000000
     4   Atom       -0.000000      0.000000      0.000000
     5   Atom        0.000000     -0.000000      0.000000
     6   Atom        0.000000     -0.000000      0.000000
     7   Atom       -0.000000      0.000000     -0.000000
     8   Atom        0.000000      0.000000     -0.000000
     9   Atom       -0.000000     -0.000000      0.000000
    10   Atom        0.000000     -0.000000      0.000000
    11   Atom       -0.000000     -0.000000      0.000000
    12   Atom       -0.000000      0.000000     -0.000000
    13   Atom        0.000000      0.000000     -0.000000
    14   Atom       -0.000000      0.000000      0.000000
    15   Atom        0.000000     -0.000000     -0.000000
    16   Atom       -0.000000      0.000000      0.000000
    17   Atom        0.000000     -0.000000      0.000000
    18   Atom       -0.000000      0.000000     -0.000000
    19   Atom        0.000000     -0.000000      0.000000
    20   Atom        0.000000     -0.000000      0.000000
    21   Atom       -0.000000      0.000000     -0.000000
    22   Atom       -0.000000      0.000000     -0.000000
    23   Atom       -0.000000      0.000000     -0.000000
    24   Atom       -0.000000     -0.000000      0.000000
    25   Atom       -0.000000      0.000000      0.000000
    26   Atom        0.000000      0.000000     -0.000000
    27   Atom        0.000000     -0.000000     -0.000000
    28   Atom        0.000000      0.000000     -0.000000
    29   Atom        0.000000      0.000000     -0.000000
    30   Atom       -0.000000      0.000000     -0.000000
    31   Atom       -0.000000      0.000000     -0.000000
    32   Atom       -0.000000      0.000000     -0.000000
    33   Atom        0.000000     -0.000000      0.000000
    34   Atom        0.000000      0.000000     -0.000000
    35   Atom       -0.000000      0.000000      0.000000
    36   Atom       -0.000000     -0.000000      0.000000
    37   Atom        0.000000     -0.000000      0.000000
    38   Atom       -0.000000     -0.000000      0.000000
    39   Atom        0.000000     -0.000000     -0.000000
    40   Atom       -0.000000      0.000000      0.000000
 --------------------------------------------------------
                        XY            XZ            YZ
 --------------------------------------------------------
     1   Atom       -0.000000     -0.000000      0.000000
     2   Atom       -0.000000     -0.000000      0.000000
     3   Atom       -0.000000     -0.000000      0.000000
     4   Atom       -0.000000      0.000000      0.000000
     5   Atom       -0.000000      0.000000      0.000000
     6   Atom        0.000000     -0.000000      0.000000
     7   Atom       -0.000000      0.000000     -0.000000
     8   Atom        0.000000     -0.000000     -0.000000
     9   Atom        0.000000     -0.000000     -0.000000
    10   Atom        0.000000     -0.000000      0.000000
    11   Atom       -0.000000     -0.000000      0.000000
    12   Atom       -0.000000      0.000000      0.000000
    13   Atom       -0.000000     -0.000000     -0.000000
    14   Atom        0.000000      0.000000      0.000000
    15   Atom       -0.000000      0.000000      0.000000
    16   Atom        0.000000      0.000000     -0.000000
    17   Atom        0.000000     -0.000000      0.000000
    18   Atom       -0.000000     -0.000000     -0.000000
    19   Atom        0.000000      0.000000      0.000000
    20   Atom        0.000000      0.000000      0.000000
    21   Atom       -0.000000      0.000000      0.000000
    22   Atom        0.000000     -0.000000     -0.000000
    23   Atom       -0.000000      0.000000     -0.000000
    24   Atom        0.000000      0.000000      0.000000
    25   Atom       -0.000000     -0.000000      0.000000
    26   Atom       -0.000000      0.000000      0.000000
    27   Atom        0.000000     -0.000000      0.000000
    28   Atom       -0.000000      0.000000      0.000000
    29   Atom        0.000000     -0.000000      0.000000
    30   Atom       -0.000000     -0.000000      0.000000
    31   Atom        0.000000     -0.000000     -0.000000
    32   Atom       -0.000000      0.000000      0.000000
    33   Atom        0.000000     -0.000000     -0.000000
    34   Atom       -0.000000     -0.000000     -0.000000
    35   Atom       -0.000000      0.000000      0.000000
    36   Atom        0.000000      0.000000      0.000000
    37   Atom       -0.000000      0.000000      0.000000
    38   Atom        0.000000     -0.000000     -0.000000
    39   Atom        0.000000      0.000000      0.000000
    40   Atom       -0.000000     -0.000000      0.000000
 --------------------------------------------------------


 ---------------------------------------------------------------------------------
              Anisotropic Spin Dipole Couplings in Principal Axis System
 ---------------------------------------------------------------------------------

       Atom             a.u.   MegaHertz   Gauss  10(-4) cm-1        Axes

              Baa    -0.0000    -0.000    -0.000    -0.000  0.3630  0.7833 -0.5047
     1 C(13)  Bbb    -0.0000    -0.000    -0.000    -0.000  0.6694  0.1575  0.7260
              Bcc     0.0000     0.000     0.000     0.000  0.6481 -0.6014 -0.4672
 
              Baa    -0.0000    -0.000    -0.000    -0.000  0.5470  0.8148 -0.1918
     2 C(13)  Bbb    -0.0000    -0.000    -0.000    -0.000  0.4203 -0.0692  0.9047
              Bcc     0.0000     0.000     0.000     0.000  0.7240 -0.5755 -0.3803
 
              Baa    -0.0000    -0.000    -0.000    -0.000  0.5133  0.8516 -0.1060
     3 C(13)  Bbb     0.0000     0.000     0.000     0.000  0.3585 -0.1005  0.9281
              Bcc     0.0000     0.000     0.000     0.000  0.7797 -0.5144 -0.3569
 
              Baa    -0.0000    -0.000    -0.000    -0.000  0.9498  0.2709 -0.1568
     4 C(13)  Bbb     0.0000     0.000     0.000     0.000 -0.2854  0.9552 -0.0780
              Bcc     0.0000     0.000     0.000     0.000  0.1286  0.1188  0.9845
 
              Baa    -0.0000    -0.000    -0.000    -0.000  0.2855  0.9034 -0.3199
     5 C(13)  Bbb     0.0000     0.000     0.000     0.000  0.2581  0.2490  0.9335
              Bcc     0.0000     0.000     0.000     0.000  0.9230 -0.3491 -0.1621
 
              Baa    -0.0000    -0.000    -0.000    -0.000 -0.1047  0.9938 -0.0373
     6 C(13)  Bbb     0.0000     0.000     0.000     0.000  0.4202  0.0782  0.9040
              Bcc     0.0000     0.000     0.000     0.000  0.9014  0.0790 -0.4258
 
              Baa    -0.0000    -0.000    -0.000    -0.000 -0.6396  0.1001  0.7622
     7 C(13)  Bbb     0.0000     0.000     0.000     0.000  0.4295  0.8688  0.2463
              Bcc     0.0000     0.000     0.000     0.000  0.6376 -0.4849  0.5987
 
              Baa    -0.0000    -0.000    -0.000    -0.000 -0.0166  0.1374  0.9904
     8 C(13)  Bbb    -0.0000    -0.000    -0.000    -0.000  0.9911 -0.1285  0.0344
              Bcc     0.0000     0.000     0.000     0.000  0.1320  0.9821 -0.1341
 
              Baa    -0.0000    -0.000    -0.000    -0.000  0.7459 -0.6658 -0.0207
     9 C(13)  Bbb     0.0000     0.000     0.000     0.000  0.5922  0.6486  0.4781
              Bcc     0.0000     0.000     0.000     0.000 -0.3049 -0.3689  0.8780
 
              Baa    -0.0000    -0.000    -0.000    -0.000 -0.6240  0.7779 -0.0733
    10 C(13)  Bbb     0.0000     0.000     0.000     0.000 -0.0585  0.0470  0.9972
              Bcc     0.0000     0.000     0.000     0.000  0.7792  0.6266  0.0161
 
              Baa    -0.0000     0.000     0.000     0.000  0.6908  0.6883 -0.2217
    11 O(17)  Bbb     0.0000    -0.000    -0.000    -0.000  0.4669 -0.1905  0.8635
              Bcc     0.0000    -0.000    -0.000    -0.000 -0.5521  0.7000  0.4530
 
              Baa    -0.0000     0.000     0.000     0.000  0.8045  0.3030 -0.5109
    12 O(17)  Bbb    -0.0000     0.000     0.000     0.000  0.4303  0.2957  0.8529
              Bcc     0.0000    -0.000    -0.000    -0.000 -0.4095  0.9059 -0.1075
 
              Baa    -0.0000    -0.000    -0.000    -0.000  0.3543  0.1679  0.9199
    13 H(1)   Bbb    -0.0000    -0.000    -0.000    -0.000  0.6988  0.6061 -0.3798
              Bcc     0.0000     0.000     0.000     0.000 -0.6214  0.7775  0.0974
 
              Baa    -0.0000    -0.000    -0.000    -0.000  0.9686 -0.1419 -0.2041
    14 H(1)   Bbb     0.0000     0.000     0.000     0.000  0.0631 -0.6538  0.7540
              Bcc     0.0000     0.000     0.000     0.000  0.2404  0.7432  0.6243
 
              Baa    -0.0000    -0.000    -0.000    -0.000  0.5271  0.7497 -0.4001
    15 H(1)   Bbb    -0.0000    -0.000    -0.000    -0.000  0.3829  0.2108  0.8994
              Bcc     0.0000     0.000     0.000     0.000  0.7587 -0.6273 -0.1760
 
              Baa    -0.0000    -0.000    -0.000    -0.000  0.9697 -0.2201 -0.1059
    16 H(1)   Bbb     0.0000     0.000     0.000     0.000  0.1691  0.2921  0.9413
              Bcc     0.0000     0.000     0.000     0.000  0.1763  0.9307 -0.3204
 
              Baa    -0.0000     0.000     0.000     0.000 -0.4768  0.8520 -0.2163
    17 O(17)  Bbb     0.0000    -0.000    -0.000    -0.000  0.1772  0.3342  0.9257
              Bcc     0.0000    -0.000    -0.000    -0.000  0.8610  0.4030 -0.3104
 
              Baa    -0.0000    -0.000    -0.000    -0.000  0.6161  0.4238  0.6639
    18 C(13)  Bbb    -0.0000    -0.000    -0.000    -0.000 -0.5625 -0.3534  0.7475
              Bcc     0.0000     0.000     0.000     0.000 -0.5514  0.8340 -0.0206
 
              Baa    -0.0000    -0.000    -0.000    -0.000  0.0096  0.9129 -0.4081
    19 C(13)  Bbb    -0.0000    -0.000    -0.000    -0.000  0.6805 -0.3050 -0.6662
              Bcc     0.0000     0.000     0.000     0.000  0.7327  0.2713  0.6242
 
              Baa    -0.0000    -0.000    -0.000    -0.000 -0.6257 -0.1300  0.7691
    20 C(13)  Bbb    -0.0000    -0.000    -0.000    -0.000 -0.1752  0.9842  0.0238
              Bcc     0.0000     0.000     0.000     0.000  0.7601  0.1199  0.6387
 
              Baa    -0.0000    -0.000    -0.000    -0.000 -0.4205 -0.1280  0.8982
    21 C(13)  Bbb     0.0000     0.000     0.000     0.000  0.8763  0.1992  0.4387
              Bcc     0.0000     0.000     0.000     0.000 -0.2351  0.9716  0.0284
 
              Baa    -0.0000    -0.000    -0.000    -0.000  0.2000  0.0511  0.9785
    22 C(13)  Bbb    -0.0000    -0.000    -0.000    -0.000  0.9755 -0.1033 -0.1940
              Bcc     0.0000     0.000     0.000     0.000  0.0912  0.9933 -0.0705
 
              Baa    -0.0000    -0.000    -0.000    -0.000  0.9523  0.2561 -0.1661
    23 H(1)   Bbb    -0.0000    -0.000    -0.000    -0.000  0.1484  0.0869  0.9851
              Bcc     0.0000     0.000     0.000     0.000 -0.2667  0.9627 -0.0448
 
              Baa    -0.0000    -0.000    -0.000    -0.000  0.4363  0.6685 -0.6023
    24 H(1)   Bbb    -0.0000    -0.000    -0.000    -0.000  0.7938 -0.6011 -0.0922
              Bcc     0.0000     0.000     0.000     0.000  0.4237  0.4379  0.7930
 
              Baa    -0.0000    -0.000    -0.000    -0.000  0.3477  0.7490 -0.5640
    25 H(1)   Bbb    -0.0000    -0.000    -0.000    -0.000  0.8424  0.0146  0.5387
              Bcc     0.0000     0.000     0.000     0.000 -0.4117  0.6624  0.6259
 
              Baa    -0.0000    -0.000    -0.000    -0.000 -0.6838 -0.2202  0.6957
    26 H(1)   Bbb     0.0000     0.000     0.000     0.000 -0.0623  0.9675  0.2450
              Bcc     0.0000     0.000     0.000     0.000  0.7270 -0.1242  0.6753
 
              Baa    -0.0000    -0.000    -0.000    -0.000 -0.1447  0.7177 -0.6812
    27 H(1)   Bbb     0.0000     0.000     0.000     0.000 -0.6033  0.4816  0.6357
              Bcc     0.0000     0.000     0.000     0.000  0.7843  0.5029  0.3633
 
              Baa    -0.0000    -0.000    -0.000    -0.000 -0.2258 -0.1994  0.9535
    28 H(1)   Bbb    -0.0000    -0.000    -0.000    -0.000  0.7892  0.5363  0.2991
              Bcc     0.0000     0.000     0.000     0.000 -0.5711  0.8201  0.0362
 
              Baa    -0.0000    -0.000    -0.000    -0.000  0.1657 -0.2609  0.9510
    29 H(1)   Bbb    -0.0000    -0.000    -0.000    -0.000 -0.5240  0.7937  0.3090
              Bcc     0.0000     0.000     0.000     0.000  0.8354  0.5496  0.0052
 
              Baa    -0.0000    -0.000    -0.000    -0.000  0.9514  0.3076  0.0171
    30 H(1)   Bbb    -0.0000    -0.000    -0.000    -0.000  0.0961 -0.3490  0.9322
              Bcc     0.0000     0.000     0.000     0.000 -0.2927  0.8852  0.3616
 
              Baa    -0.0000    -0.000    -0.000    -0.000  0.8038  0.2168  0.5540
    31 H(1)   Bbb    -0.0000    -0.000    -0.000    -0.000 -0.5702  0.5468  0.6132
              Bcc     0.0000     0.000     0.000     0.000  0.1700  0.8087 -0.5631
 
              Baa    -0.0000    -0.000    -0.000    -0.000 -0.3720 -0.5614  0.7392
    32 H(1)   Bbb    -0.0000    -0.000    -0.000    -0.000  0.8675  0.0730  0.4920
              Bcc     0.0000     0.000     0.000     0.000 -0.3302  0.8243  0.4599
 
              Baa    -0.0000    -0.000    -0.000    -0.000 -0.2247  0.8653  0.4481
    33 H(1)   Bbb     0.0000     0.000     0.000     0.000  0.9428  0.0768  0.3244
              Bcc     0.0000     0.000     0.000     0.000 -0.2462 -0.4954  0.8331
 
              Baa    -0.0000    -0.000    -0.000    -0.000  0.5035  0.2556  0.8253
    34 C(13)  Bbb     0.0000     0.000     0.000     0.000  0.1358  0.9200 -0.3677
              Bcc     0.0000     0.000     0.000     0.000  0.8532 -0.2972 -0.4285
 
              Baa    -0.0000    -0.000    -0.000    -0.000  0.8362  0.2439 -0.4911
    35 C(13)  Bbb     0.0000     0.000     0.000     0.000 -0.4851  0.7467 -0.4552
              Bcc     0.0000     0.000     0.000     0.000  0.2557  0.6189  0.7427
 
              Baa    -0.0000    -0.000    -0.000    -0.000 -0.5468  0.8346 -0.0673
    36 H(1)   Bbb     0.0000     0.000     0.000     0.000  0.7127  0.4218 -0.5604
              Bcc     0.0000     0.000     0.000     0.000  0.4393  0.3544  0.8255
 
              Baa    -0.0000    -0.000    -0.000    -0.000  0.4838  0.8135 -0.3226
    37 H(1)   Bbb     0.0000     0.000     0.000     0.000  0.7400 -0.1835  0.6471
              Bcc     0.0000     0.000     0.000     0.000 -0.4672  0.5518  0.6908
 
              Baa    -0.0000    -0.000    -0.000    -0.000 -0.1320  0.9770  0.1673
    38 H(1)   Bbb    -0.0000    -0.000    -0.000    -0.000  0.9474  0.0747  0.3113
              Bcc     0.0000     0.000     0.000     0.000 -0.2917 -0.1996  0.9355
 
              Baa    -0.0000    -0.000    -0.000    -0.000 -0.4141 -0.0541  0.9086
    39 H(1)   Bbb    -0.0000    -0.000    -0.000    -0.000 -0.1424  0.9898 -0.0059
              Bcc     0.0000     0.000     0.000     0.000  0.8990  0.1318  0.4175
 
              Baa    -0.0000    -0.000    -0.000    -0.000  0.4055  0.7459 -0.5284
    40 H(1)   Bbb    -0.0000    -0.000    -0.000    -0.000  0.8553 -0.1057  0.5072
              Bcc     0.0000     0.000     0.000     0.000 -0.3225  0.6576  0.6809
 

 ---------------------------------------------------------------------------------

 No NMR shielding tensors so no spin-rotation constants.
 Leave Link  601 at Sun Jan 21 09:13:08 2024, MaxMem=  4026531840 cpu:               3.6 elap:               0.5
 (Enter /sysapps/ubuntu-applications/gaussian/Gaussian/AVX2/g16/l9999.exe)
 1\1\GINC-ACIDSCN021\SP\UB3LYP\6-311++G(d,p)\C17H20O3(2-)\SELHAJJ1\21-J
 an-2024\0\\#P UB3LYP/6-311++G(d,p) SCRF=(PCM,Solvent=n,n-DiMethylForma
 mide)\\Reduced\\-2,1\C,0,-0.06181,3.891015,0.170034\C,0,-0.470486,3.52
 6105,1.437764\C,0,-0.024582,2.304337,2.001894\C,0,0.803256,3.068666,-0
 .5969\C,0,1.259338,1.824695,-0.022553\C,0,0.822604,1.484821,1.271402\C
 ,0,1.218254,3.457134,-1.9114\C,0,2.089768,2.545433,-2.584721\C,0,2.547
 661,1.335801,-2.07054\C,0,2.154831,0.91685,-0.749816\O,0,0.874775,4.54
 4837,-2.534554\O,0,2.553139,-0.182714,-0.239181\H,0,-0.390915,4.821726
 ,-0.281368\H,0,-1.134397,4.176227,2.004436\H,0,-0.34419,2.014083,3.000
 116\H,0,1.182924,0.543824,1.675352\O,0,2.446975,2.977873,-3.841822\C,0
 ,3.45198,0.437626,-2.876825\C,0,4.955343,0.659548,-2.610848\C,0,5.8594
 97,-0.283506,-3.416489\C,0,7.360629,-0.072696,-3.178675\C,0,8.262817,-
 1.008874,-3.995587\H,0,1.950161,3.832359,-3.873048\H,0,3.259003,0.5838
 98,-3.94621\H,0,3.211837,-0.600375,-2.619347\H,0,5.138132,0.520287,-1.
 539727\H,0,5.209215,1.700071,-2.847948\H,0,5.646372,-0.160047,-4.48798
 6\H,0,5.599657,-1.322983,-3.173341\H,0,7.57696,-0.205025,-2.110141\H,0
 ,7.619018,0.969177,-3.412113\H,0,8.047688,-0.876374,-5.064513\H,0,8.00
 586,-2.051333,-3.764304\C,0,9.764015,-0.799172,-3.757858\C,0,10.658871
 ,-1.734501,-4.577981\H,0,9.980629,-0.933805,-2.69026\H,0,10.022043,0.2
 42828,-3.987272\H,0,10.45835,-2.786903,-4.345879\H,0,11.723269,-1.5593
 23,-4.38638\H,0,10.499129,-1.600389,-5.65419\\Version=ES64L-G16RevA.03
 \State=1-A\HF=-886.0385518\S2=0.\S2-1=0.\S2A=0.\RMSD=3.824e-09\Dipole=
 7.3349842,-3.2435998,-2.2326223\Quadrupole=-6.7698214,-3.9536016,10.72
 3423,23.431668,10.0636914,6.663792\PG=C01 [X(C17H20O3)]\\@


 THE ONLY DIFFERENCE BETWEEN ECCENTRICS AND JOGGERS
 IS THAT JOGGERS WEAR SWEATBANDS WHEN THEY RUN IN THE RAIN.
 Job cpu time:       0 days  0 hours 56 minutes 32.2 seconds.
 Elapsed time:       0 days  0 hours  7 minutes  5.7 seconds.
 File lengths (MBytes):  RWF=    471 Int=      0 D2E=      0 Chk=     26 Scr=      1
 Normal termination of Gaussian 16 at Sun Jan 21 09:13:08 2024.
