
Running Job 1 of 1 118-CPCM.in
qchem 118-CPCM.in_1901965.0 /expanse/lustre/scratch/selhajj/temp_project/qcscratch/31248319/qchem1901965/ 0
/cm/shared/apps/spack/cpu/opt/spack/linux-centos8-zen2/gcc-10.2.0/qchem-5.4-akfmr7b3t57bfs6qan3padb2wnb2i7cl/exe/qcprog.exe_s 118-CPCM.in_1901965.0 /expanse/lustre/scratch/selhajj/temp_project/qcscratch/31248319/qchem1901965/
                  Welcome to Q-Chem
     A Quantum Leap Into The Future Of Chemistry


 Q-Chem 5.4, Q-Chem, Inc., Pleasanton, CA (2021)

 License issued to: University of California, San Diego (site)

 E. Epifanovsky,  A. T. B. Gilbert,  Xintian Feng,  Joonho Lee,  Yuezhi Mao,  
 N. Mardirossian,  P. Pokhilko,  A. White,  M. Wormit,  M. P. Coons,  
 A. L. Dempwolff,  Zhengting Gan,  D. Hait,  P. R. Horn,  L. D. Jacobson,  
 I. Kaliman,  J. Kussmann,  A. W. Lange,  Ka Un Lao,  D. S. Levine,  Jie Liu,  
 S. C. McKenzie,  A. F. Morrison,  K. Nanda,  F. Plasser,  D. R. Rehn,  
 M. L. Vidal,  Zhi-Qiang You,  Ying Zhu,  B. Alam,  B. Albrecht,  
 A. Aldossary,  E. Alguire,  J. H. Andersen,  D. Barton,  K. Begam,  A. Behn,  
 Y. A. Bernard,  E. J. Berquist,  H. Burton,  A. Carreras,  K. Carter-Fenk,  
 R. Chakraborty,  A. D. Chien,  K. D. Closser,  V. Cofer-Shabica,  
 S. Dasgupta,  Jia Deng,  M. de Wergifosse,  M. Diedenhofen,  Hainam Do,  
 S. Ehlert,  Po-Tung Fang,  S. Fatehi,  Qingguo Feng,  J. Gayvert,  
 Qinghui Ge,  G. Gidofalvi,  M. Goldey,  J. Gomes,  C. Gonzalez-Espinoza,  
 S. Gulania,  A. Gunina,  M. W. D. Hanson-Heine,  P. H. P. Harbach,  
 A. W. Hauser,  M. F. Herbst,  M. Hernandez Vera,  M. Hodecker,  
 Z. C. Holden,  S. Houck,  Xunkun Huang,  Kerwin Hui,  B. C. Huynh,  
 M. Ivanov,  Hyunjun Ji,  Hanjie Jiang,  B. Kaduk,  S. Kaehler,  
 K. Khistyaev,  Jaehoon Kim,  P. Klunzinger,  Z. Koczor-Benda,  
 Joong Hoon Koh,  D. Kosenkov,  L. Koulias,  T. Kowalczyk,  C. M. Krauter,  
 K. Kue,  A. Kunitsa,  T. Kus,  A. Landau,  K. V. Lawler,  D. Lefrancois,  
 S. Lehtola,  Rain Li,  Yi-Pei Li,  Jiashu Liang,  M. Liebenthal,  
 Hung-Hsuan Lin,  You-Sheng Lin,  Fenglai Liu,  Kuan-Yu Liu,  
 M. Loipersberger,  A. Luenser,  A. Manjanath,  P. Manohar,  E. Mansoor,  
 S. F. Manzer,  Shan-Ping Mao,  A. V. Marenich,  T. Markovich,  S. Mason,  
 S. A. Maurer,  P. F. McLaughlin,  M. F. S. J. Menger,  J.-M. Mewes,  
 S. A. Mewes,  P. Morgante,  J. W. Mullinax,  T. S. Nguyen-Beck,  
 K. J. Oosterbaan,  G. Paran,  Alexander C. Paul,  Suranjan K. Paul,  
 F. Pavosevic,  Zheng Pei,  S. Prager,  E. I. Proynov,  E. Ramos,  B. Rana,  
 A. E. Rask,  A. Rettig,  R. M. Richard,  F. Rob,  E. Rossomme,  T. Scheele,  
 M. Scheurer,  M. Schneider,  N. Sergueev,  S. M. Sharada,  W. Skomorowski,  
 D. W. Small,  C. J. Stein,  Yu-Chuan Su,  E. J. Sundstrom,  Zhen Tao,  
 J. Thirman,  T. Tsuchimochi,  N. M. Tubman,  S. P. Veccham,  O. Vydrov,  
 J. Wenzel,  J. Witte,  A. Yamada,  Kun Yao,  S. Yeganeh,  S. R. Yost,  
 A. Zech,  Igor Ying Zhang,  Xing Zhang,  Yu Zhang,  D. Zuev,  
 A. Aspuru-Guzik,  A. T. Bell,  N. A. Besley,  K. B. Bravaya,  B. R. Brooks,  
 D. Casanova,  Jeng-Da Chai,  S. Coriani,  C. J. Cramer,  
 A. E. DePrince, III,  R. A. DiStasio Jr.,  A. Dreuw,  B. D. Dunietz,  
 T. R. Furlani,  W. A. Goddard III,  S. Grimme,  S. Hammes-Schiffer,  
 T. Head-Gordon,  W. J. Hehre,  Chao-Ping Hsu,  T.-C. Jagau,  Yousung Jung,  
 A. Klamt,  Jing Kong,  D. S. Lambrecht,  WanZhen Liang,  N. J. Mayhall,  
 C. W. McCurdy,  J. B. Neaton,  C. Ochsenfeld,  J. A. Parkhill,  R. Peverati,  
 V. A. Rassolov,  Yihan Shao,  L. V. Slipchenko,  T. Stauch,  R. P. Steele,  
 J. E. Subotnik,  A. J. W. Thom,  A. Tkatchenko,  D. G. Truhlar,  
 T. Van Voorhis,  T. A. Wesolowski,  K. B. Whaley,  H. L. Woodcock III,  
 P. M. Zimmerman,  S. Faraji,  P. M. W. Gill,  M. Head-Gordon,  
 J. M. Herbert,  A. I. Krylov

 Contributors to earlier versions of Q-Chem not listed above: 
 R. D. Adamson,  B. Austin,  R. Baer,  J. Baker,  G. J. O. Beran,  
 K. Brandhorst,  S. T. Brown,  E. F. C. Byrd,  A. K. Chakraborty,  
 G. K. L. Chan,  Chun-Min Chang,  Yunqing Chen,  C.-L. Cheng,  
 Siu Hung Chien,  D. M. Chipman,  D. L. Crittenden,  H. Dachsel,  
 R. J. Doerksen,  A. D. Dutoi,  R. G. Edgar,  J. Fosso-Tande,  
 L. Fusti-Molnar,  D. Ghosh,  A. Ghysels,  A. Golubeva-Zadorozhnaya,  
 J. Gonthier,  M. S. Gordon,  S. R. Gwaltney,  G. Hawkins,  J. E. Herr,  
 A. Heyden,  S. Hirata,  E. G. Hohenstein,  G. Kedziora,  F. J. Keil,  
 C. Kelley,  Jihan Kim,  R. A. King,  R. Z. Khaliullin,  P. P. Korambath,  
 W. Kurlancheek,  A. Laurent,  A. M. Lee,  M. S. Lee,  S. V. Levchenko,  
 Ching Yeh Lin,  D. Liotard,  E. Livshits,  R. C. Lochan,  I. Lotan,  
 L. A. Martinez-Martinez,  P. E. Maslen,  N. Nair,  D. P. O'Neill,  
 D. Neuhauser,  E. Neuscamman,  C. M. Oana,  R. Olivares-Amaya,  R. Olson,  
 T. M. Perrine,  B. Peters,  P. A. Pieniazek,  A. Prociuk,  Y. M. Rhee,  
 J. Ritchie,  M. A. Rohrdanz,  E. Rosta,  N. J. Russ,  H. F. Schaefer III,  
 M. W. Schmidt,  N. E. Schultz,  S. Sharma,  N. Shenvi,  C. D. Sherrill,  
 A. C. Simmonett,  A. Sodt,  T. Stein,  D. Stuck,  K. S. Thanthiriwatte,  
 V. Vanovschi,  L. Vogt,  Tao Wang,  A. Warshel,  M. A. Watson,  
 C. F. Williams,  Q. Wu,  X. Xu,  Jun Yang,  W. Zhang,  Yan Zhao

 Please cite Q-Chem as follows:
 Y. Shao et al., Mol. Phys. 113, 184-215 (2015)
 DOI: 10.1080/00268976.2014.952696

 Q-Chem 5.4.0 for Intel X86 EM64T Linux

 Parts of Q-Chem use Armadillo 9.800.1 (Horizon Scraper).
 http://arma.sourceforge.net/

 Q-Chem begins on Tue Jun 11 17:55:29 2024  

 Host: 
0

     Scratch files written to /expanse/lustre/scratch/selhajj/temp_project/qcscratch/31248319/qchem1901965//
 May1621 |scratch|qcdevops|jenkins|workspace|build_RNUM    
 Processing $rem in /cm/shared/apps/spack/cpu/opt/spack/linux-centos8-zen2/gcc-10.2.0/qchem-5.4-akfmr7b3t57bfs6qan3padb2wnb2i7cl/config/preferences:
 Processing $rem in /home/selhajj/.qchemrc:
 Symmetry turned off for PCM/SM12/SMD calculation

 Checking the input file for inconsistencies... 	...done.

--------------------------------------------------------------
User input:
--------------------------------------------------------------
$molecule
0 1
Cl                 5.1912270000     -1.4819030000     -0.0055320000
C                  3.6604360000     -0.6412590000     -0.1514640000
C                  3.6574480000      0.7164180000     -0.4795430000
C                  2.4451320000      1.3816700000     -0.5949870000
C                  1.2389270000      0.7052110000     -0.3863190000
C                 -0.0451430000      1.4510250000     -0.5185150000
O                 -0.0606470000      2.6371060000     -0.8046400000
C                 -1.3078600000      0.6904430000     -0.2874110000
C                 -2.5313630000      1.3572180000     -0.4028380000
C                 -3.7226070000      0.6727020000     -0.1929590000
C                 -3.7029140000     -0.6859510000      0.1346570000
C                 -2.4918480000     -1.3574390000      0.2517490000
C                 -1.2881070000     -0.6771160000      0.0423700000
C                 -0.0042730000     -1.4236020000      0.1748240000
O                  0.0188150000     -2.6086060000      0.4604730000
C                  1.2606390000     -0.6604290000     -0.0570350000
C                  2.4779570000     -1.3353400000      0.0605420000
H                  4.5934410000      1.2359670000     -0.6401710000
H                  2.4124990000      2.4340840000     -0.8482220000
H                 -2.5236770000      2.4097510000     -0.6574960000
H                 -4.6685140000      1.1943980000     -0.2837230000
H                 -4.6333820000     -1.2176180000      0.2978870000
H                 -2.4533930000     -2.4097060000      0.5046940000
H                  2.4772080000     -2.3870250000      0.3147950000
$end
$rem
MAX_SCF_CYCLES=200
BASIS  =  6-311++G(d,p)
GUI  =  2
JOB_TYPE  =  SP
METHOD  =  B3LYP
SOLVENT_METHOD = PCM
$end
$pcm
theory = CPCM
$end
$solvent
dielectric 37.219
opticaldielectric 1.43
$end





--------------------------------------------------------------
 ----------------------------------------------------------------
             Standard Nuclear Orientation (Angstroms)
    I     Atom           X                Y                Z
 ----------------------------------------------------------------
    1      Cl      5.1912270000    -1.4819030000    -0.0055320000
    2      C       3.6604360000    -0.6412590000    -0.1514640000
    3      C       3.6574480000     0.7164180000    -0.4795430000
    4      C       2.4451320000     1.3816700000    -0.5949870000
    5      C       1.2389270000     0.7052110000    -0.3863190000
    6      C      -0.0451430000     1.4510250000    -0.5185150000
    7      O      -0.0606470000     2.6371060000    -0.8046400000
    8      C      -1.3078600000     0.6904430000    -0.2874110000
    9      C      -2.5313630000     1.3572180000    -0.4028380000
   10      C      -3.7226070000     0.6727020000    -0.1929590000
   11      C      -3.7029140000    -0.6859510000     0.1346570000
   12      C      -2.4918480000    -1.3574390000     0.2517490000
   13      C      -1.2881070000    -0.6771160000     0.0423700000
   14      C      -0.0042730000    -1.4236020000     0.1748240000
   15      O       0.0188150000    -2.6086060000     0.4604730000
   16      C       1.2606390000    -0.6604290000    -0.0570350000
   17      C       2.4779570000    -1.3353400000     0.0605420000
   18      H       4.5934410000     1.2359670000    -0.6401710000
   19      H       2.4124990000     2.4340840000    -0.8482220000
   20      H      -2.5236770000     2.4097510000    -0.6574960000
   21      H      -4.6685140000     1.1943980000    -0.2837230000
   22      H      -4.6333820000    -1.2176180000     0.2978870000
   23      H      -2.4533930000    -2.4097060000     0.5046940000
   24      H       2.4772080000    -2.3870250000     0.3147950000
 ----------------------------------------------------------------
 Nuclear Repulsion Energy =        1169.36438545 hartrees
 There are       62 alpha and       62 beta electrons
 Requested basis set is 6-311++G(d,p)
 There are 144 shells and 431 basis functions

 Total QAlloc Memory Limit   8000 MB
 Mega-Array Size       188 MB
 MEM_STATIC part       192 MB
 Discretize the solute cavity surface with Lebedev spheres
	Using 110 Lebedev grid points for each H atom
	Using 194 Lebedev grid points for other atoms
	Atomic van der Waals radii will be scaled by 1.20
 Remove points where switching function is < 1.0e-08
 Keep 1725 surface tesserae and discard 2343 interior tesserae
 Molecular Surface Area = 254.535 Angst**2
 A cutoff of  1.0D-08 yielded   7208 shell pairs
 There are     68853 function pairs (     73861 Cartesian)
 Smallest overlap matrix eigenvalue = 7.33E-08

 Q-Chem warning in module stvman/mkSTV.C, line 323:

 Overlap eigenvalue is smaller than square root of threshold
 Use THRESH >= 12 to get rid of this warning

 Linear dependence detected in AO basis
 Tighter screening thresholds may be required for diffuse basis sets
 Use S2THRESH > 14 and THRESH = 14 in case of SCF convergence issues
 Number of orthogonalized atomic orbitals = 424
 Maximum deviation from orthogonality = 1.529E-10

 Scale SEOQF with 1.000000e-02/1.000000e-01/1.000000e-01

 Standard Electronic Orientation quadrupole field applied
 Nucleus-field energy     =     0.0000000209 hartrees
 Guess from superposition of atomic densities
 Warning:  Energy on first SCF cycle will be non-variational
 SAD guess density has 124.000000 electrons

 -----------------------------------------------------------------------
  General SCF calculation program by
  Eric Jon Sundstrom, Paul Horn, Yuezhi Mao, Dmitri Zuev, Alec White,
  David Stuck, Shaama M.S., Shane Yost, Joonho Lee, David Small,
  Daniel Levine, Susi Lehtola, Hugh Burton, Evgeny Epifanovsky,
  Bang C. Huynh
 -----------------------------------------------------------------------
 Exchange:     0.2000 Hartree-Fock + 0.0800 Slater + 0.7200 B88
 Correlation:  0.1900 VWN1RPA + 0.8100 LYP
 Using SG-1 standard quadrature grid
 using 8 threads for integral computing
 -------------------------------------------------------
 OpenMP Integral computing Module                
 Release: version 1.0, May 2013, Q-Chem Inc. Pittsburgh 
 -------------------------------------------------------
 A restricted SCF calculation will be
 performed using DIIS
 SCF converges when DIIS error is below 1.0e-05
 ---------------------------------------
  Cycle       Energy         DIIS error
 ---------------------------------------
    1   -1152.7536945890      3.24e-02  
    2   -1148.3533680689      3.44e-03  
    3   -1148.0472769068      5.58e-03  
    4   -1148.5584375741      1.20e-03  
    5   -1148.5859426079      3.07e-04  
    6   -1148.5876967196      9.44e-05  
    7   -1148.5878732839      2.88e-05  
    8   -1148.5878880487      9.97e-06  Convergence criterion met
 ---------------------------------------
 SCF time:   CPU 272.81s  wall 35.00s 

************** Final PCM Free Energy Summary **************
 G_electrostatic  =      -0.01419913 hartree =      -8.91008947 kcal/mol
 G_cavitation     =       0.00000000 hartree =       0.00000000 kcal/mol
 G_dispersion     =       0.00000000 hartree =       0.00000000 kcal/mol
 G_repulsion      =       0.00000000 hartree =       0.00000000 kcal/mol
 --------------------------------------------------
 Non-electrostatic Free Energy =       0.00000000 hartree =       0.00000000 kcal/mol
 Total                         =      -0.01419913 hartree =      -8.91008947 kcal/mol
 --------------------------------------------------
 SCF Energy (H0 + V/2)                       =   -1148.58788805 
 Solute Internal Energy (H0)                 =   -1148.57368892 
 Total Free Energy (H0 + V/2 + non-elec)     =   -1148.58788805 hartree
                                             = -720749.77802646 kcal/mol
***********************************************************

 SCF   energy in the final basis set =    -1148.5878880487
 Total energy in the final basis set =    -1148.5878880487
 
 --------------------------------------------------------------
 
                    Orbital Energies (a.u.)
 --------------------------------------------------------------
 
 Alpha MOs
 -- Occupied --
******** -19.1365 -19.1347 -10.2886 -10.2869 -10.2626 -10.2180 -10.2138
-10.2108 -10.2102 -10.2088 -10.2086 -10.2059 -10.1986 -10.1983 -10.1979
-10.1977  -9.4851  -7.2496  -7.2401  -7.2394  -1.0721  -1.0693  -0.9178
 -0.8911  -0.8673  -0.8089  -0.7863  -0.7795  -0.7640  -0.6935  -0.6708
 -0.6440  -0.6237  -0.5912  -0.5658  -0.5569  -0.5129  -0.4973  -0.4919
 -0.4868  -0.4641  -0.4609  -0.4606  -0.4510  -0.4493  -0.4470  -0.4242
 -0.4138  -0.4100  -0.3874  -0.3818  -0.3815  -0.3689  -0.3502  -0.3335
 -0.2932  -0.2920  -0.2846  -0.2802  -0.2797  -0.2716
 -- Virtual --
 -0.1224  -0.0788  -0.0414  -0.0316  -0.0065   0.0028   0.0040   0.0121
  0.0207   0.0251   0.0261   0.0311   0.0396   0.0435   0.0460   0.0498
  0.0606   0.0613   0.0644   0.0740   0.0821   0.0828   0.0907   0.0920
  0.0951   0.1103   0.1109   0.1146   0.1151   0.1178   0.1196   0.1224
  0.1272   0.1276   0.1308   0.1353   0.1359   0.1392   0.1491   0.1497
  0.1553   0.1576   0.1628   0.1693   0.1771   0.1777   0.1799   0.1810
  0.1890   0.1909   0.1915   0.1969   0.2009   0.2038   0.2155   0.2185
  0.2219   0.2269   0.2288   0.2334   0.2377   0.2392   0.2476   0.2483
  0.2536   0.2584   0.2657   0.2711   0.2735   0.2776   0.2833   0.2909
  0.2943   0.2956   0.3000   0.3034   0.3049   0.3083   0.3104   0.3192
  0.3269   0.3379   0.3382   0.3446   0.3495   0.3535   0.3582   0.3713
  0.3755   0.3902   0.3937   0.3972   0.4060   0.4126   0.4356   0.4510
  0.4515   0.4572   0.4759   0.4826   0.5005   0.5119   0.5212   0.5266
  0.5311   0.5380   0.5393   0.5462   0.5595   0.5622   0.5700   0.5731
  0.5887   0.5907   0.5947   0.6045   0.6204   0.6253   0.6308   0.6321
  0.6345   0.6444   0.6493   0.6520   0.6566   0.6635   0.6727   0.6734
  0.7080   0.7111   0.7145   0.7178   0.7330   0.7370   0.7554   0.7680
  0.7702   0.7893   0.8090   0.8129   0.8232   0.8329   0.8482   0.8504
  0.8538   0.8603   0.8694   0.8755   0.8788   0.8961   0.9073   0.9098
  0.9176   0.9185   0.9245   0.9331   0.9451   0.9614   0.9651   0.9673
  0.9688   0.9845   0.9862   0.9900   0.9974   1.0136   1.0318   1.0380
  1.0513   1.0550   1.0708   1.0910   1.1051   1.1102   1.1146   1.1293
  1.1387   1.1417   1.1660   1.1932   1.2035   1.2170   1.2198   1.2378
  1.2444   1.2751   1.2761   1.3128   1.3234   1.3247   1.3353   1.3473
  1.4116   1.4420   1.4584   1.4712   1.4872   1.4899   1.4993   1.5017
  1.5093   1.5260   1.5448   1.5570   1.5602   1.5901   1.6047   1.6096
  1.6382   1.6531   1.6593   1.6757   1.6919   1.6953   1.7123   1.7156
  1.7195   1.7452   1.7473   1.7663   1.7871   1.8091   1.8257   1.8819
  1.8846   1.8947   1.8954   1.9006   1.9020   1.9104   1.9167   1.9347
  1.9480   1.9571   1.9640   1.9736   1.9830   2.0105   2.0219   2.0283
  2.0563   2.0639   2.0680   2.1212   2.1257   2.1432   2.1602   2.1947
  2.2390   2.2633   2.2778   2.2800   2.2930   2.3258   2.3343   2.3644
  2.3741   2.4177   2.4441   2.4566   2.4751   2.5203   2.5361   2.5603
  2.5937   2.5975   2.6258   2.6293   2.6549   2.6670   2.6867   2.7106
  2.7249   2.7279   2.7395   2.7457   2.7561   2.7583   2.7637   2.7659
  2.7720   2.7765   2.7838   2.8121   2.8281   2.8315   2.8483   2.8552
  2.8620   2.8621   2.8770   2.9186   2.9257   2.9280   2.9555   2.9933
  3.0503   3.0719   3.0808   3.0979   3.1644   3.1855   3.2009   3.2198
  3.2373   3.2963   3.3238   3.3321   3.3488   3.3501   3.3946   3.4158
  3.5117   3.5187   3.5364   3.5416   3.5561   3.5721   3.5861   3.6743
  3.7629   3.7791   3.8184   3.8442   4.0284   4.0404   4.0688   4.1623
  4.1960   4.2200   4.2504   4.4265   4.7331   4.8202   4.8397   5.0341
  5.0481   5.2303   5.2571   5.7189   5.7995   9.7765  23.4832  23.6216
 23.8582  23.8782  23.9200  23.9264  23.9394  23.9462  24.0167  24.0537
 24.0715  24.0813  24.1455  24.1702  25.8162  26.1502  26.6238  50.0253
 50.0751 215.7694
 --------------------------------------------------------------
 
          Ground-State Mulliken Net Atomic Charges

     Atom                 Charge (a.u.)
  ----------------------------------------
      1 Cl                    0.505719
      2 C                     0.562640
      3 C                    -0.469328
      4 C                     0.103177
      5 C                     0.079435
      6 C                    -0.663674
      7 O                    -0.284031
      8 C                     0.101735
      9 C                     0.215245
     10 C                    -0.427270
     11 C                    -0.426577
     12 C                     0.195912
     13 C                     0.217936
     14 C                    -0.715941
     15 O                    -0.278837
     16 C                    -0.043962
     17 C                    -0.204357
     18 H                     0.249344
     19 H                     0.208406
     20 H                     0.199644
     21 H                     0.225699
     22 H                     0.225826
     23 H                     0.198479
     24 H                     0.224782
  ----------------------------------------
  Sum of atomic charges =     0.000000

 -----------------------------------------------------------------
                    Cartesian Multipole Moments
 -----------------------------------------------------------------
    Charge (ESU x 10^10)
                -0.0000
    Dipole Moment (Debye)
         X      -2.1972      Y       0.9740      Z      -0.1535
       Tot       2.4083
    Quadrupole Moments (Debye-Ang)
        XX     -83.1264     XY       5.9613     YY    -116.4002
        XZ      -1.9215     YZ       2.1040     ZZ    -106.5262
    Octopole Moments (Debye-Ang^2)
       XXX    -263.9668    XXY      44.2593    XYY     -64.9612
       YYY      51.8861    XXZ       8.7746    XYZ      -0.8427
       YYZ      17.8126    XZZ     -59.2149    YZZ      16.2195
       ZZZ      48.6276
    Hexadecapole Moments (Debye-Ang^3)
      XXXX   -4852.7481   XXXY     397.5571   XXYY   -1000.2426
      XYYY     297.9727   YYYY   -1498.3139   XXXZ      24.4899
      XXYZ      -1.2729   XYYZ      13.2895   YYYZ     161.8084
      XXZZ    -943.1970   XYZZ      99.2040   YYZZ    -270.1208
      XZZZ      61.0817   YZZZ     134.1371   ZZZZ    -204.2161
 -----------------------------------------------------------------
 Total job time:  51.02s(wall), 280.28s(cpu) 
 Tue Jun 11 17:56:20 2024

        *************************************************************
        *                                                           *
        *  Thank you very much for using Q-Chem.  Have a nice day.  *
        *                                                           *
        *************************************************************


