
Running Job 1 of 1 218-rad-CPCM.in
qchem 218-rad-CPCM.in_1131417.0 /expanse/lustre/scratch/selhajj/temp_project/qcscratch/31251374/qchem1131417/ 0
/cm/shared/apps/spack/cpu/opt/spack/linux-centos8-zen2/gcc-10.2.0/qchem-5.4-akfmr7b3t57bfs6qan3padb2wnb2i7cl/exe/qcprog.exe_s 218-rad-CPCM.in_1131417.0 /expanse/lustre/scratch/selhajj/temp_project/qcscratch/31251374/qchem1131417/
                  Welcome to Q-Chem
     A Quantum Leap Into The Future Of Chemistry


 Q-Chem 5.4, Q-Chem, Inc., Pleasanton, CA (2021)

 License issued to: University of California, San Diego (site)

 E. Epifanovsky,  A. T. B. Gilbert,  Xintian Feng,  Joonho Lee,  Yuezhi Mao,  
 N. Mardirossian,  P. Pokhilko,  A. White,  M. Wormit,  M. P. Coons,  
 A. L. Dempwolff,  Zhengting Gan,  D. Hait,  P. R. Horn,  L. D. Jacobson,  
 I. Kaliman,  J. Kussmann,  A. W. Lange,  Ka Un Lao,  D. S. Levine,  Jie Liu,  
 S. C. McKenzie,  A. F. Morrison,  K. Nanda,  F. Plasser,  D. R. Rehn,  
 M. L. Vidal,  Zhi-Qiang You,  Ying Zhu,  B. Alam,  B. Albrecht,  
 A. Aldossary,  E. Alguire,  J. H. Andersen,  D. Barton,  K. Begam,  A. Behn,  
 Y. A. Bernard,  E. J. Berquist,  H. Burton,  A. Carreras,  K. Carter-Fenk,  
 R. Chakraborty,  A. D. Chien,  K. D. Closser,  V. Cofer-Shabica,  
 S. Dasgupta,  Jia Deng,  M. de Wergifosse,  M. Diedenhofen,  Hainam Do,  
 S. Ehlert,  Po-Tung Fang,  S. Fatehi,  Qingguo Feng,  J. Gayvert,  
 Qinghui Ge,  G. Gidofalvi,  M. Goldey,  J. Gomes,  C. Gonzalez-Espinoza,  
 S. Gulania,  A. Gunina,  M. W. D. Hanson-Heine,  P. H. P. Harbach,  
 A. W. Hauser,  M. F. Herbst,  M. Hernandez Vera,  M. Hodecker,  
 Z. C. Holden,  S. Houck,  Xunkun Huang,  Kerwin Hui,  B. C. Huynh,  
 M. Ivanov,  Hyunjun Ji,  Hanjie Jiang,  B. Kaduk,  S. Kaehler,  
 K. Khistyaev,  Jaehoon Kim,  P. Klunzinger,  Z. Koczor-Benda,  
 Joong Hoon Koh,  D. Kosenkov,  L. Koulias,  T. Kowalczyk,  C. M. Krauter,  
 K. Kue,  A. Kunitsa,  T. Kus,  A. Landau,  K. V. Lawler,  D. Lefrancois,  
 S. Lehtola,  Rain Li,  Yi-Pei Li,  Jiashu Liang,  M. Liebenthal,  
 Hung-Hsuan Lin,  You-Sheng Lin,  Fenglai Liu,  Kuan-Yu Liu,  
 M. Loipersberger,  A. Luenser,  A. Manjanath,  P. Manohar,  E. Mansoor,  
 S. F. Manzer,  Shan-Ping Mao,  A. V. Marenich,  T. Markovich,  S. Mason,  
 S. A. Maurer,  P. F. McLaughlin,  M. F. S. J. Menger,  J.-M. Mewes,  
 S. A. Mewes,  P. Morgante,  J. W. Mullinax,  T. S. Nguyen-Beck,  
 K. J. Oosterbaan,  G. Paran,  Alexander C. Paul,  Suranjan K. Paul,  
 F. Pavosevic,  Zheng Pei,  S. Prager,  E. I. Proynov,  E. Ramos,  B. Rana,  
 A. E. Rask,  A. Rettig,  R. M. Richard,  F. Rob,  E. Rossomme,  T. Scheele,  
 M. Scheurer,  M. Schneider,  N. Sergueev,  S. M. Sharada,  W. Skomorowski,  
 D. W. Small,  C. J. Stein,  Yu-Chuan Su,  E. J. Sundstrom,  Zhen Tao,  
 J. Thirman,  T. Tsuchimochi,  N. M. Tubman,  S. P. Veccham,  O. Vydrov,  
 J. Wenzel,  J. Witte,  A. Yamada,  Kun Yao,  S. Yeganeh,  S. R. Yost,  
 A. Zech,  Igor Ying Zhang,  Xing Zhang,  Yu Zhang,  D. Zuev,  
 A. Aspuru-Guzik,  A. T. Bell,  N. A. Besley,  K. B. Bravaya,  B. R. Brooks,  
 D. Casanova,  Jeng-Da Chai,  S. Coriani,  C. J. Cramer,  
 A. E. DePrince, III,  R. A. DiStasio Jr.,  A. Dreuw,  B. D. Dunietz,  
 T. R. Furlani,  W. A. Goddard III,  S. Grimme,  S. Hammes-Schiffer,  
 T. Head-Gordon,  W. J. Hehre,  Chao-Ping Hsu,  T.-C. Jagau,  Yousung Jung,  
 A. Klamt,  Jing Kong,  D. S. Lambrecht,  WanZhen Liang,  N. J. Mayhall,  
 C. W. McCurdy,  J. B. Neaton,  C. Ochsenfeld,  J. A. Parkhill,  R. Peverati,  
 V. A. Rassolov,  Yihan Shao,  L. V. Slipchenko,  T. Stauch,  R. P. Steele,  
 J. E. Subotnik,  A. J. W. Thom,  A. Tkatchenko,  D. G. Truhlar,  
 T. Van Voorhis,  T. A. Wesolowski,  K. B. Whaley,  H. L. Woodcock III,  
 P. M. Zimmerman,  S. Faraji,  P. M. W. Gill,  M. Head-Gordon,  
 J. M. Herbert,  A. I. Krylov

 Contributors to earlier versions of Q-Chem not listed above: 
 R. D. Adamson,  B. Austin,  R. Baer,  J. Baker,  G. J. O. Beran,  
 K. Brandhorst,  S. T. Brown,  E. F. C. Byrd,  A. K. Chakraborty,  
 G. K. L. Chan,  Chun-Min Chang,  Yunqing Chen,  C.-L. Cheng,  
 Siu Hung Chien,  D. M. Chipman,  D. L. Crittenden,  H. Dachsel,  
 R. J. Doerksen,  A. D. Dutoi,  R. G. Edgar,  J. Fosso-Tande,  
 L. Fusti-Molnar,  D. Ghosh,  A. Ghysels,  A. Golubeva-Zadorozhnaya,  
 J. Gonthier,  M. S. Gordon,  S. R. Gwaltney,  G. Hawkins,  J. E. Herr,  
 A. Heyden,  S. Hirata,  E. G. Hohenstein,  G. Kedziora,  F. J. Keil,  
 C. Kelley,  Jihan Kim,  R. A. King,  R. Z. Khaliullin,  P. P. Korambath,  
 W. Kurlancheek,  A. Laurent,  A. M. Lee,  M. S. Lee,  S. V. Levchenko,  
 Ching Yeh Lin,  D. Liotard,  E. Livshits,  R. C. Lochan,  I. Lotan,  
 L. A. Martinez-Martinez,  P. E. Maslen,  N. Nair,  D. P. O'Neill,  
 D. Neuhauser,  E. Neuscamman,  C. M. Oana,  R. Olivares-Amaya,  R. Olson,  
 T. M. Perrine,  B. Peters,  P. A. Pieniazek,  A. Prociuk,  Y. M. Rhee,  
 J. Ritchie,  M. A. Rohrdanz,  E. Rosta,  N. J. Russ,  H. F. Schaefer III,  
 M. W. Schmidt,  N. E. Schultz,  S. Sharma,  N. Shenvi,  C. D. Sherrill,  
 A. C. Simmonett,  A. Sodt,  T. Stein,  D. Stuck,  K. S. Thanthiriwatte,  
 V. Vanovschi,  L. Vogt,  Tao Wang,  A. Warshel,  M. A. Watson,  
 C. F. Williams,  Q. Wu,  X. Xu,  Jun Yang,  W. Zhang,  Yan Zhao

 Please cite Q-Chem as follows:
 Y. Shao et al., Mol. Phys. 113, 184-215 (2015)
 DOI: 10.1080/00268976.2014.952696

 Q-Chem 5.4.0 for Intel X86 EM64T Linux

 Parts of Q-Chem use Armadillo 9.800.1 (Horizon Scraper).
 http://arma.sourceforge.net/

 Q-Chem begins on Tue Jun 11 20:20:37 2024  

 Host: 
0

     Scratch files written to /expanse/lustre/scratch/selhajj/temp_project/qcscratch/31251374/qchem1131417//
 May1621 |scratch|qcdevops|jenkins|workspace|build_RNUM    
 Processing $rem in /cm/shared/apps/spack/cpu/opt/spack/linux-centos8-zen2/gcc-10.2.0/qchem-5.4-akfmr7b3t57bfs6qan3padb2wnb2i7cl/config/preferences:
 Processing $rem in /home/selhajj/.qchemrc:
 Symmetry turned off for PCM/SM12/SMD calculation

 Checking the input file for inconsistencies... 	...done.

--------------------------------------------------------------
User input:
--------------------------------------------------------------
$molecule
-1 2
C                  5.0468290000     -2.5047400000      0.0935290000
C                  5.7636650000     -1.5464220000     -0.5964450000
C                  5.0835700000     -0.5091140000     -1.2674090000
C                  3.6378420000     -2.4665720000      0.1399570000
C                  2.9513620000     -1.4214030000     -0.5363410000
C                  3.7040360000     -0.4527980000     -1.2345340000
C                  2.9206270000     -3.5100100000      0.8868300000
C                  1.4591400000     -3.4071550000      0.8855080000
C                  0.7723190000     -2.3524930000      0.2080130000
C                  1.4861850000     -1.3171480000     -0.5291280000
C                  0.7127900000     -4.3770990000      1.5800930000
C                 -0.6424910000     -2.3166390000      0.2562410000
C                 -1.3662540000     -3.2631880000      0.9417990000
O                  3.5230430000     -4.4247700000      1.4890620000
O                  0.8869010000     -0.3883340000     -1.1247950000
H                  5.5413550000     -3.3137270000      0.6185270000
H                 -2.4481750000     -3.2373520000      0.9692010000
H                  3.1562140000      0.3331610000     -1.7411080000
H                  1.2464770000     -5.1763480000      2.0791220000
H                 -1.1373430000     -1.5107870000     -0.2726890000
C                 -0.6660030000     -4.3010120000      1.6064410000
H                  5.6460130000      0.2446690000     -1.8101800000
H                  6.8481350000     -1.5905870000     -0.6231380000
S                 -1.5849650000     -5.4912260000      2.5492860000
O                 -0.7340650000     -6.6521460000      2.8334000000
O                 -2.9194380000     -5.6931710000      1.9736650000
N                 -1.8967380000     -4.6406680000      4.0066630000
H                 -1.0872690000     -4.7072380000      4.6186160000
H                 -2.7021250000     -5.0775320000      4.4486320000
$end
$rem
MAX_SCF_CYCLES=200
BASIS  =  6-311++G(d,p)
GUI  =  2
JOB_TYPE  =  SP
METHOD  =  B3LYP
SOLVENT_METHOD = PCM
$end
$pcm
theory = CPCM
$end
$solvent
dielectric 37.219
opticaldielectric 1.43
$end






--------------------------------------------------------------
 ----------------------------------------------------------------
             Standard Nuclear Orientation (Angstroms)
    I     Atom           X                Y                Z
 ----------------------------------------------------------------
    1      C       5.0468290000    -2.5047400000     0.0935290000
    2      C       5.7636650000    -1.5464220000    -0.5964450000
    3      C       5.0835700000    -0.5091140000    -1.2674090000
    4      C       3.6378420000    -2.4665720000     0.1399570000
    5      C       2.9513620000    -1.4214030000    -0.5363410000
    6      C       3.7040360000    -0.4527980000    -1.2345340000
    7      C       2.9206270000    -3.5100100000     0.8868300000
    8      C       1.4591400000    -3.4071550000     0.8855080000
    9      C       0.7723190000    -2.3524930000     0.2080130000
   10      C       1.4861850000    -1.3171480000    -0.5291280000
   11      C       0.7127900000    -4.3770990000     1.5800930000
   12      C      -0.6424910000    -2.3166390000     0.2562410000
   13      C      -1.3662540000    -3.2631880000     0.9417990000
   14      O       3.5230430000    -4.4247700000     1.4890620000
   15      O       0.8869010000    -0.3883340000    -1.1247950000
   16      H       5.5413550000    -3.3137270000     0.6185270000
   17      H      -2.4481750000    -3.2373520000     0.9692010000
   18      H       3.1562140000     0.3331610000    -1.7411080000
   19      H       1.2464770000    -5.1763480000     2.0791220000
   20      H      -1.1373430000    -1.5107870000    -0.2726890000
   21      C      -0.6660030000    -4.3010120000     1.6064410000
   22      H       5.6460130000     0.2446690000    -1.8101800000
   23      H       6.8481350000    -1.5905870000    -0.6231380000
   24      S      -1.5849650000    -5.4912260000     2.5492860000
   25      O      -0.7340650000    -6.6521460000     2.8334000000
   26      O      -2.9194380000    -5.6931710000     1.9736650000
   27      N      -1.8967380000    -4.6406680000     4.0066630000
   28      H      -1.0872690000    -4.7072380000     4.6186160000
   29      H      -2.7021250000    -5.0775320000     4.4486320000
 ----------------------------------------------------------------
 Nuclear Repulsion Energy =        1594.17395057 hartrees
 There are       75 alpha and       74 beta electrons
 Requested basis set is 6-311++G(d,p)
 There are 172 shells and 511 basis functions

 Total QAlloc Memory Limit   8000 MB
 Mega-Array Size       188 MB
 MEM_STATIC part       192 MB
 Discretize the solute cavity surface with Lebedev spheres
	Using 110 Lebedev grid points for each H atom
	Using 194 Lebedev grid points for other atoms
	Atomic van der Waals radii will be scaled by 1.20
 Remove points where switching function is < 1.0e-08
 Keep 2033 surface tesserae and discard 2837 interior tesserae
 Molecular Surface Area = 292.062 Angst**2
 A cutoff of  1.0D-08 yielded   9596 shell pairs
 There are     88730 function pairs (     94936 Cartesian)
 Smallest overlap matrix eigenvalue = 6.02E-08

 Q-Chem warning in module stvman/mkSTV.C, line 323:

 Overlap eigenvalue is smaller than square root of threshold
 Use THRESH >= 12 to get rid of this warning

 Linear dependence detected in AO basis
 Tighter screening thresholds may be required for diffuse basis sets
 Use S2THRESH > 14 and THRESH = 14 in case of SCF convergence issues
 Number of orthogonalized atomic orbitals = 504
 Maximum deviation from orthogonality = 1.530E-10

 Scale SEOQF with 1.000000e-02/1.000000e-02/1.000000e-01

 Standard Electronic Orientation quadrupole field applied
 Nucleus-field energy     =    -0.0000000302 hartrees
 Guess from superposition of atomic densities
 Warning:  Energy on first SCF cycle will be non-variational
 SAD guess density has 148.000000 electrons

 -----------------------------------------------------------------------
  General SCF calculation program by
  Eric Jon Sundstrom, Paul Horn, Yuezhi Mao, Dmitri Zuev, Alec White,
  David Stuck, Shaama M.S., Shane Yost, Joonho Lee, David Small,
  Daniel Levine, Susi Lehtola, Hugh Burton, Evgeny Epifanovsky,
  Bang C. Huynh
 -----------------------------------------------------------------------
 Exchange:     0.2000 Hartree-Fock + 0.0800 Slater + 0.7200 B88
 Correlation:  0.1900 VWN1RPA + 0.8100 LYP
 Using SG-1 standard quadrature grid
 using 8 threads for integral computing
 -------------------------------------------------------
 OpenMP Integral computing Module                
 Release: version 1.0, May 2013, Q-Chem Inc. Pittsburgh 
 -------------------------------------------------------
 A unrestricted SCF calculation will be
 performed using DIIS
 SCF converges when DIIS error is below 1.0e-05
 ---------------------------------------
  Cycle       Energy         DIIS error
 ---------------------------------------
    1   -1298.0280161743      1.53e-02  
    2   -1292.6240482441      2.21e-03  
    3   -1291.8535095010      3.70e-03  
    4   -1293.0886232571      6.06e-04  
    5   -1293.1287688416      1.97e-04  
    6   -1293.1324500164      6.63e-05  
    7   -1293.1328774829      2.49e-05  
    8   -1293.1329296191      8.98e-06  Convergence criterion met
 ---------------------------------------
 SCF time:   CPU 517.72s  wall 69.00s 
<S^2> =          0.758207625

************** Final PCM Free Energy Summary **************
 G_electrostatic  =      -0.09206760 hartree =     -57.77329224 kcal/mol
 G_cavitation     =       0.00000000 hartree =       0.00000000 kcal/mol
 G_dispersion     =       0.00000000 hartree =       0.00000000 kcal/mol
 G_repulsion      =       0.00000000 hartree =       0.00000000 kcal/mol
 --------------------------------------------------
 Non-electrostatic Free Energy =       0.00000000 hartree =       0.00000000 kcal/mol
 Total                         =      -0.09206760 hartree =     -57.77329224 kcal/mol
 --------------------------------------------------
 SCF Energy (H0 + V/2)                       =   -1293.13292962 
 Solute Internal Energy (H0)                 =   -1293.04086202 
 Total Free Energy (H0 + V/2 + non-elec)     =   -1293.13292962 hartree
                                             = -811453.16059798 kcal/mol
***********************************************************

 SCF   energy in the final basis set =    -1293.1329296191
 Total energy in the final basis set =    -1293.1329296191
 
 --------------------------------------------------------------
 
                    Orbital Energies (a.u.)
 --------------------------------------------------------------
 
 Alpha MOs
 -- Occupied --
-89.0761 -19.1303 -19.1302 -19.0873 -19.0842 -14.3400 -10.2377 -10.2323
-10.2161 -10.1959 -10.1914 -10.1863 -10.1858 -10.1828 -10.1808 -10.1803
-10.1770 -10.1763 -10.1746 -10.1738  -8.1379  -6.1007  -6.1005  -6.0986
 -1.1317  -1.0226  -1.0167  -1.0108  -0.9078  -0.8784  -0.8612  -0.8033
 -0.7732  -0.7560  -0.7552  -0.6971  -0.6696  -0.6402  -0.6160  -0.5977
 -0.5677  -0.5527  -0.5412  -0.5227  -0.5175  -0.4962  -0.4853  -0.4728
 -0.4664  -0.4600  -0.4427  -0.4322  -0.4296  -0.4263  -0.4228  -0.4164
 -0.4004  -0.3905  -0.3816  -0.3707  -0.3670  -0.3564  -0.3518  -0.3465
 -0.3418  -0.3331  -0.3227  -0.2999  -0.2778  -0.2744  -0.2614  -0.2582
 -0.2566  -0.2469  -0.1521
 -- Virtual --
 -0.0674  -0.0413  -0.0138  -0.0076   0.0021   0.0129   0.0177   0.0231
  0.0251   0.0324   0.0394   0.0425   0.0446   0.0482   0.0555   0.0584
  0.0616   0.0637   0.0687   0.0693   0.0720   0.0764   0.0827   0.0920
  0.0933   0.0967   0.0969   0.1002   0.1030   0.1096   0.1132   0.1149
  0.1173   0.1214   0.1264   0.1279   0.1331   0.1347   0.1372   0.1380
  0.1401   0.1510   0.1514   0.1531   0.1570   0.1614   0.1669   0.1739
  0.1764   0.1794   0.1830   0.1865   0.1914   0.1927   0.1957   0.1997
  0.2011   0.2073   0.2131   0.2140   0.2196   0.2274   0.2304   0.2326
  0.2351   0.2369   0.2433   0.2456   0.2475   0.2513   0.2573   0.2583
  0.2622   0.2662   0.2681   0.2749   0.2768   0.2780   0.2851   0.2904
  0.2931   0.2975   0.2985   0.3004   0.3087   0.3123   0.3151   0.3187
  0.3204   0.3228   0.3271   0.3279   0.3304   0.3330   0.3405   0.3447
  0.3488   0.3523   0.3602   0.3624   0.3673   0.3736   0.3769   0.3928
  0.3952   0.4007   0.4071   0.4141   0.4163   0.4205   0.4274   0.4421
  0.4480   0.4603   0.4644   0.4713   0.4930   0.4991   0.5016   0.5268
  0.5375   0.5430   0.5459   0.5527   0.5552   0.5638   0.5793   0.5807
  0.5836   0.5888   0.5952   0.6019   0.6077   0.6197   0.6297   0.6331
  0.6392   0.6452   0.6500   0.6542   0.6599   0.6627   0.6683   0.6755
  0.6810   0.6868   0.6962   0.7191   0.7260   0.7335   0.7402   0.7432
  0.7445   0.7500   0.7679   0.7760   0.7839   0.7878   0.8045   0.8141
  0.8320   0.8402   0.8433   0.8458   0.8621   0.8653   0.8710   0.8789
  0.8852   0.8928   0.9035   0.9149   0.9218   0.9245   0.9309   0.9413
  0.9480   0.9485   0.9530   0.9560   0.9836   0.9887   0.9943   1.0047
  1.0059   1.0085   1.0196   1.0208   1.0410   1.0418   1.0487   1.0667
  1.0732   1.0758   1.0894   1.0988   1.1069   1.1206   1.1350   1.1400
  1.1469   1.1545   1.1601   1.1726   1.1791   1.1839   1.1900   1.2034
  1.2227   1.2280   1.2344   1.2436   1.2498   1.2587   1.2626   1.2961
  1.3098   1.3201   1.3235   1.3396   1.3440   1.3590   1.3726   1.4370
  1.4657   1.4753   1.4819   1.4955   1.5102   1.5146   1.5235   1.5251
  1.5276   1.5402   1.5659   1.5706   1.5802   1.6046   1.6171   1.6292
  1.6364   1.6587   1.6651   1.6746   1.6796   1.6918   1.7045   1.7137
  1.7286   1.7407   1.7453   1.7490   1.7777   1.7808   1.7832   1.7918
  1.8208   1.8371   1.8466   1.8604   1.8919   1.8947   1.9102   1.9118
  1.9233   1.9275   1.9317   1.9343   1.9473   1.9539   1.9696   1.9754
  1.9783   1.9827   1.9916   2.0103   2.0248   2.0528   2.0559   2.0758
  2.0773   2.0823   2.1006   2.1429   2.1544   2.1734   2.1805   2.2060
  2.2360   2.2758   2.2791   2.3292   2.3369   2.3442   2.3812   2.3905
  2.4047   2.4395   2.4406   2.4627   2.4799   2.4936   2.5330   2.5587
  2.5635   2.5889   2.6254   2.6295   2.6368   2.6581   2.6716   2.6994
  2.7117   2.7233   2.7332   2.7411   2.7531   2.7579   2.7592   2.7698
  2.7778   2.7805   2.7846   2.7946   2.7969   2.8074   2.8144   2.8280
  2.8437   2.8495   2.8586   2.8630   2.8794   2.8835   2.8863   2.8927
  2.8970   2.9034   2.9178   2.9399   2.9528   2.9553   2.9608   2.9877
  2.9977   3.0152   3.0363   3.0765   3.0976   3.1049   3.1210   3.1283
  3.1536   3.1965   3.2168   3.2368   3.2569   3.2763   3.3294   3.3306
  3.3381   3.3532   3.3631   3.4313   3.4519   3.4754   3.5208   3.5382
  3.5482   3.5581   3.5709   3.5801   3.5856   3.5916   3.6805   3.7830
  3.7975   3.8476   3.8758   3.9458   4.0455   4.0639   4.0950   4.1877
  4.2168   4.2729   4.2781   4.3076   4.4799   4.6812   4.8036   4.8300
  4.8507   5.0175   5.0385   5.0701   5.0802   5.0840   5.0925   5.1452
  5.2702   5.2867   5.2979   5.7514   5.8318   8.1641  17.3413  17.4105
 17.5348  23.5163  23.6789  23.8958  23.9147  23.9345  23.9455  23.9583
 23.9653  24.0020  24.0427  24.1028  24.1169  24.1763  24.1905  35.5320
 49.8767  49.9068  50.0560  50.1110 189.2728
 
 Beta MOs
 -- Occupied --
-89.0761 -19.1302 -19.1302 -19.0826 -19.0787 -14.3400 -10.2362 -10.2305
-10.2154 -10.1962 -10.1904 -10.1853 -10.1844 -10.1828 -10.1803 -10.1797
-10.1768 -10.1759 -10.1746 -10.1737  -8.1379  -6.1007  -6.1005  -6.0986
 -1.1315  -1.0225  -1.0083  -1.0010  -0.9076  -0.8760  -0.8598  -0.7994
 -0.7710  -0.7540  -0.7536  -0.6934  -0.6647  -0.6382  -0.6141  -0.5970
 -0.5658  -0.5511  -0.5394  -0.5222  -0.5167  -0.4949  -0.4835  -0.4710
 -0.4652  -0.4595  -0.4424  -0.4286  -0.4249  -0.4194  -0.4182  -0.4144
 -0.3981  -0.3778  -0.3701  -0.3679  -0.3660  -0.3554  -0.3468  -0.3415
 -0.3401  -0.3326  -0.3223  -0.2975  -0.2689  -0.2591  -0.2544  -0.2520
 -0.2520  -0.2421
 -- Virtual --
 -0.0943  -0.0590  -0.0305  -0.0112  -0.0075   0.0021   0.0131   0.0180
  0.0241   0.0284   0.0348   0.0397   0.0430   0.0450   0.0509   0.0559
  0.0619   0.0641   0.0690   0.0700   0.0722   0.0729   0.0777   0.0841
  0.0924   0.0941   0.0971   0.0973   0.1006   0.1035   0.1105   0.1134
  0.1152   0.1189   0.1222   0.1266   0.1283   0.1338   0.1351   0.1378
  0.1397   0.1408   0.1512   0.1518   0.1533   0.1573   0.1616   0.1678
  0.1740   0.1766   0.1799   0.1848   0.1872   0.1918   0.1935   0.1963
  0.1999   0.2051   0.2081   0.2130   0.2144   0.2210   0.2283   0.2311
  0.2336   0.2355   0.2398   0.2438   0.2467   0.2486   0.2520   0.2590
  0.2595   0.2636   0.2666   0.2686   0.2754   0.2777   0.2784   0.2859
  0.2908   0.2937   0.2982   0.3003   0.3013   0.3111   0.3133   0.3165
  0.3197   0.3213   0.3237   0.3281   0.3288   0.3315   0.3338   0.3415
  0.3451   0.3497   0.3527   0.3612   0.3630   0.3682   0.3741   0.3772
  0.3937   0.3962   0.4014   0.4078   0.4147   0.4167   0.4228   0.4290
  0.4426   0.4489   0.4610   0.4650   0.4717   0.4943   0.5006   0.5029
  0.5283   0.5388   0.5440   0.5470   0.5561   0.5570   0.5645   0.5804
  0.5822   0.5847   0.5894   0.5968   0.6035   0.6086   0.6204   0.6306
  0.6348   0.6415   0.6472   0.6532   0.6557   0.6624   0.6650   0.6692
  0.6764   0.6827   0.6880   0.6995   0.7198   0.7277   0.7348   0.7412
  0.7443   0.7457   0.7519   0.7683   0.7764   0.7848   0.7903   0.8055
  0.8149   0.8324   0.8406   0.8439   0.8465   0.8628   0.8657   0.8716
  0.8799   0.8857   0.8944   0.9042   0.9157   0.9227   0.9266   0.9323
  0.9426   0.9486   0.9494   0.9550   0.9602   0.9853   0.9905   0.9963
  1.0055   1.0082   1.0101   1.0214   1.0224   1.0414   1.0452   1.0492
  1.0686   1.0745   1.0788   1.0930   1.0995   1.1136   1.1235   1.1377
  1.1421   1.1477   1.1571   1.1631   1.1759   1.1812   1.1858   1.1911
  1.2043   1.2247   1.2355   1.2376   1.2451   1.2561   1.2610   1.2648
  1.2973   1.3112   1.3209   1.3259   1.3414   1.3456   1.3596   1.3758
  1.4389   1.4662   1.4765   1.4865   1.4960   1.5108   1.5155   1.5256
  1.5271   1.5319   1.5410   1.5676   1.5714   1.5806   1.6068   1.6186
  1.6306   1.6374   1.6596   1.6657   1.6752   1.6803   1.6960   1.7067
  1.7147   1.7298   1.7428   1.7466   1.7500   1.7792   1.7830   1.7855
  1.7935   1.8240   1.8383   1.8479   1.8620   1.8936   1.8979   1.9119
  1.9150   1.9248   1.9297   1.9326   1.9352   1.9492   1.9568   1.9712
  1.9775   1.9807   1.9846   1.9929   2.0116   2.0262   2.0543   2.0571
  2.0774   2.0785   2.0837   2.1032   2.1437   2.1556   2.1747   2.1814
  2.2077   2.2393   2.2787   2.2815   2.3333   2.3403   2.3451   2.3823
  2.3941   2.4085   2.4401   2.4410   2.4631   2.4804   2.4937   2.5337
  2.5589   2.5640   2.5896   2.6292   2.6333   2.6377   2.6606   2.6734
  2.7018   2.7138   2.7237   2.7335   2.7414   2.7533   2.7587   2.7656
  2.7707   2.7782   2.7811   2.7850   2.7953   2.7990   2.8121   2.8147
  2.8307   2.8454   2.8512   2.8590   2.8704   2.8805   2.8854   2.8905
  2.8987   2.9014   2.9062   2.9193   2.9442   2.9587   2.9658   2.9690
  2.9942   3.0004   3.0161   3.0412   3.0771   3.1003   3.1097   3.1225
  3.1288   3.1568   3.2001   3.2183   3.2371   3.2585   3.2778   3.3318
  3.3386   3.3437   3.3641   3.3669   3.4321   3.4530   3.4758   3.5227
  3.5397   3.5495   3.5593   3.5715   3.5804   3.5879   3.5924   3.6818
  3.7842   3.7990   3.8515   3.8785   3.9459   4.0462   4.0650   4.0966
  4.1889   4.2179   4.2754   4.2784   4.3107   4.4831   4.6813   4.8082
  4.8316   4.8518   5.0177   5.0386   5.0806   5.0917   5.0924   5.1051
  5.1453   5.2743   5.2877   5.3013   5.7559   5.8363   8.1641  17.3413
 17.4105  17.5348  23.5171  23.6794  23.8969  23.9160  23.9356  23.9459
 23.9602  23.9661  24.0031  24.0434  24.1029  24.1171  24.1767  24.1908
 35.5320  49.8768  49.9068  50.0612  50.1161 189.2728
 --------------------------------------------------------------
 
          Ground-State Mulliken Net Atomic Charges

     Atom                 Charge (a.u.)    Spin (a.u.)
  --------------------------------------------------------
      1 C                     0.068215       0.017580
      2 C                    -0.469618       0.035190
      3 C                    -0.501200       0.019324
      4 C                     0.285646       0.021456
      5 C                     0.320577       0.006706
      6 C                     0.069664       0.036242
      7 C                    -0.680137       0.082373
      8 C                     0.309101       0.075896
      9 C                     0.651209       0.089098
     10 C                    -0.341284       0.105476
     11 C                    -0.103023      -0.016843
     12 C                    -0.140168       0.021235
     13 C                    -0.353127       0.085155
     14 O                    -0.439553       0.181464
     15 O                    -0.459741       0.211543
     16 H                     0.173789      -0.001330
     17 H                     0.273785      -0.004825
     18 H                     0.175755      -0.002344
     19 H                     0.234746       0.000746
     20 H                     0.176678      -0.000837
     21 C                    -0.507995       0.034143
     22 H                     0.202850      -0.001899
     23 H                     0.203929      -0.002732
     24 S                     0.295107       0.006201
     25 O                    -0.281103       0.002193
     26 O                    -0.346566      -0.002479
     27 N                    -0.478670       0.000328
     28 H                     0.319625      -0.000272
     29 H                     0.341502       0.001212
  --------------------------------------------------------
  Sum of atomic charges =    -1.000006
  Sum of spin   charges =     1.000000

 -----------------------------------------------------------------
                    Cartesian Multipole Moments
 -----------------------------------------------------------------
    Charge (ESU x 10^10)
                -4.8032
    Dipole Moment (Debye)
         X      -5.4009      Y      17.2385      Z      -0.4955
       Tot      18.0715
    Quadrupole Moments (Debye-Ang)
        XX    -150.3547     XY      16.2245     YY    -227.7864
        XZ     -10.9288     YZ      15.5712     ZZ    -120.0888
    Octopole Moments (Debye-Ang^2)
       XXX    -449.4855    XXY     558.1143    XYY    -190.5093
       YYY    1856.6519    XXZ    -156.4576    XYZ      41.0582
       YYZ    -238.7042    XZZ    -203.4746    YZZ     368.0378
       ZZZ    -213.1823
    Hexadecapole Moments (Debye-Ang^3)
      XXXX   -6036.0686   XXXY     476.8518   XXYY   -3591.4617
      XYYY     271.1753   YYYY  -14715.7078   XXXZ     385.0572
      XXYZ     790.0233   XYYZ      15.7564   YYYZ    3021.2140
      XXZZ   -1435.9451   XYZZ     369.5454   YYZZ   -2052.0217
      XZZZ     405.5650   YZZZ    1485.6626   ZZZZ   -1755.5037
 -----------------------------------------------------------------
 Total job time:  180.24s(wall), 526.92s(cpu) 
 Tue Jun 11 20:23:37 2024

        *************************************************************
        *                                                           *
        *  Thank you very much for using Q-Chem.  Have a nice day.  *
        *                                                           *
        *************************************************************


