 Entering Gaussian System, Link 0=g16
 Input=151-PCM.com
 Output=151-PCM.log
 Initial command:
 /sysapps/ubuntu-applications/gaussian/Gaussian/AVX2/g16/l1.exe "/scratch/selhajj1/4286519/Gau-1204304.inp" -scrdir="/scratch/selhajj1/4286519/"
 Entering Link 1 = /sysapps/ubuntu-applications/gaussian/Gaussian/AVX2/g16/l1.exe PID=   1204309.
  
 Copyright (c) 1988,1990,1992,1993,1995,1998,2003,2009,2016,
            Gaussian, Inc.  All Rights Reserved.
  
 This is part of the Gaussian(R) 16 program.  It is based on
 the Gaussian(R) 09 system (copyright 2009, Gaussian, Inc.),
 the Gaussian(R) 03 system (copyright 2003, Gaussian, Inc.),
 the Gaussian(R) 98 system (copyright 1998, Gaussian, Inc.),
 the Gaussian(R) 94 system (copyright 1995, Gaussian, Inc.),
 the Gaussian 92(TM) system (copyright 1992, Gaussian, Inc.),
 the Gaussian 90(TM) system (copyright 1990, Gaussian, Inc.),
 the Gaussian 88(TM) system (copyright 1988, Gaussian, Inc.),
 the Gaussian 86(TM) system (copyright 1986, Carnegie Mellon
 University), and the Gaussian 82(TM) system (copyright 1983,
 Carnegie Mellon University). Gaussian is a federally registered
 trademark of Gaussian, Inc.
  
 This software contains proprietary and confidential information,
 including trade secrets, belonging to Gaussian, Inc.
  
 This software is provided under written license and may be
 used, copied, transmitted, or stored only in accord with that
 written license.
  
 The following legend is applicable only to US Government
 contracts under FAR:
  
                    RESTRICTED RIGHTS LEGEND
  
 Use, reproduction and disclosure by the US Government is
 subject to restrictions as set forth in subparagraphs (a)
 and (c) of the Commercial Computer Software - Restricted
 Rights clause in FAR 52.227-19.
  
 Gaussian, Inc.
 340 Quinnipiac St., Bldg. 40, Wallingford CT 06492
  
  
 ---------------------------------------------------------------
 Warning -- This program may not be used in any manner that
 competes with the business of Gaussian, Inc. or will provide
 assistance to any competitor of Gaussian, Inc.  The licensee
 of this program is prohibited from giving any competitor of
 Gaussian, Inc. access to this program.  By using this program,
 the user acknowledges that Gaussian, Inc. is engaged in the
 business of creating and licensing software in the field of
 computational chemistry and represents and warrants to the
 licensee that it is not a competitor of Gaussian, Inc. and that
 it will not use this program in any manner prohibited above.
 ---------------------------------------------------------------
  

 Cite this work as:
 Gaussian 16, Revision A.03,
 M. J. Frisch, G. W. Trucks, H. B. Schlegel, G. E. Scuseria, 
 M. A. Robb, J. R. Cheeseman, G. Scalmani, V. Barone, 
 G. A. Petersson, H. Nakatsuji, X. Li, M. Caricato, A. V. Marenich, 
 J. Bloino, B. G. Janesko, R. Gomperts, B. Mennucci, H. P. Hratchian, 
 J. V. Ortiz, A. F. Izmaylov, J. L. Sonnenberg, D. Williams-Young, 
 F. Ding, F. Lipparini, F. Egidi, J. Goings, B. Peng, A. Petrone, 
 T. Henderson, D. Ranasinghe, V. G. Zakrzewski, J. Gao, N. Rega, 
 G. Zheng, W. Liang, M. Hada, M. Ehara, K. Toyota, R. Fukuda, 
 J. Hasegawa, M. Ishida, T. Nakajima, Y. Honda, O. Kitao, H. Nakai, 
 T. Vreven, K. Throssell, J. A. Montgomery, Jr., J. E. Peralta, 
 F. Ogliaro, M. J. Bearpark, J. J. Heyd, E. N. Brothers, K. N. Kudin, 
 V. N. Staroverov, T. A. Keith, R. Kobayashi, J. Normand, 
 K. Raghavachari, A. P. Rendell, J. C. Burant, S. S. Iyengar, 
 J. Tomasi, M. Cossi, J. M. Millam, M. Klene, C. Adamo, R. Cammi, 
 J. W. Ochterski, R. L. Martin, K. Morokuma, O. Farkas, 
 J. B. Foresman, and D. J. Fox, Gaussian, Inc., Wallingford CT, 2016.
 
 ******************************************
 Gaussian 16:  ES64L-G16RevA.03 25-Dec-2016
                14-Jan-2024 
 ******************************************
 %chk=151-PCM.chk
 %nproc=8
 Will use up to    8 processors via shared memory.
 %mem=30GB
 ----------------------------------------------------------------
 #P UB3LYP/6-311++G(d,p) SCRF=(PCM,Solvent=n,n-DiMethylFormamide)
 ----------------------------------------------------------------
 1/38=1,172=1/1;
 2/12=2,17=6,18=5,40=1/2;
 3/5=4,6=6,7=1111,11=2,25=1,30=1,70=2201,72=148,74=-5,116=2/1,2,3;
 4//1;
 5/5=2,38=5,53=148/2;
 6/7=2,8=2,9=2,10=2,28=1/1;
 99/5=1,9=1/99;
 Leave Link    1 at Sun Jan 14 00:59:42 2024, MaxMem=  4026531840 cpu:               0.7 elap:               0.1
 (Enter /sysapps/ubuntu-applications/gaussian/Gaussian/AVX2/g16/l101.exe)
 ------------------
 Quinone PCM in DMF
 ------------------
 Symbolic Z-matrix:
 Charge =  0 Multiplicity = 1
 N                    -4.51236  -0.88932  -0.77745 
 C                    -3.26824  -0.64087  -0.23232 
 C                    -3.06759  -0.7109    1.16174 
 C                    -1.8121   -0.50593   1.70208 
 C                    -0.70941  -0.22606   0.88334 
 C                     0.61935  -0.01199   1.49412 
 O                     0.79246  -0.0701    2.70403 
 C                     1.75954   0.28158   0.5703 
 C                     3.03274   0.48746   1.10865 
 C                     4.11001   0.762     0.27378 
 C                     3.92525   0.83402  -1.10968 
 C                     2.66295   0.63131  -1.65444 
 C                     1.57371   0.35422  -0.82185 
 C                     0.23032   0.1417   -1.43395 
 O                     0.06443   0.20886  -2.64145 
 C                    -0.90611  -0.15648  -0.50933 
 C                    -2.168    -0.36223  -1.05573 
 H                    -5.31546  -0.81921  -0.17283 
 H                    -4.67681  -0.59388  -1.72683 
 H                    -3.90859  -0.93088   1.81147 
 H                    -1.65649  -0.55775   2.77281 
 H                     3.15259   0.42708   2.18329 
 H                     5.09529   0.9204    0.69766 
 H                     4.76662   1.0481   -1.75898 
 H                     2.49585   0.68239  -2.72326 
 H                    -2.27995  -0.30354  -2.13249 
 
 ITRead=  0  0  0  0  0  0  0  0  0  0  0  0  0  0  0  0  0  0  0  0
 ITRead=  0  0  0  0  0  0
 MicOpt= -1 -1 -1 -1 -1 -1 -1 -1 -1 -1 -1 -1 -1 -1 -1 -1 -1 -1 -1 -1
 MicOpt= -1 -1 -1 -1 -1 -1
 NAtoms=     26 NQM=       26 NQMF=       0 NMMI=      0 NMMIF=      0
                NMic=       0 NMicF=      0.
                    Isotopes and Nuclear Properties:
 (Nuclear quadrupole moments (NQMom) in fm**2, nuclear magnetic moments (NMagM)
  in nuclear magnetons)

  Atom         1           2           3           4           5           6           7           8           9          10
 IAtWgt=          14          12          12          12          12          12          16          12          12          12
 AtmWgt=  14.0030740  12.0000000  12.0000000  12.0000000  12.0000000  12.0000000  15.9949146  12.0000000  12.0000000  12.0000000
 NucSpn=           2           0           0           0           0           0           0           0           0           0
 AtZEff=  -0.0000000  -0.0000000  -0.0000000  -0.0000000  -0.0000000  -0.0000000  -0.0000000  -0.0000000  -0.0000000  -0.0000000
 NQMom=    2.0440000   0.0000000   0.0000000   0.0000000   0.0000000   0.0000000   0.0000000   0.0000000   0.0000000   0.0000000
 NMagM=    0.4037610   0.0000000   0.0000000   0.0000000   0.0000000   0.0000000   0.0000000   0.0000000   0.0000000   0.0000000
 AtZNuc=   7.0000000   6.0000000   6.0000000   6.0000000   6.0000000   6.0000000   8.0000000   6.0000000   6.0000000   6.0000000

  Atom        11          12          13          14          15          16          17          18          19          20
 IAtWgt=          12          12          12          12          16          12          12           1           1           1
 AtmWgt=  12.0000000  12.0000000  12.0000000  12.0000000  15.9949146  12.0000000  12.0000000   1.0078250   1.0078250   1.0078250
 NucSpn=           0           0           0           0           0           0           0           1           1           1
 AtZEff=  -0.0000000  -0.0000000  -0.0000000  -0.0000000  -0.0000000  -0.0000000  -0.0000000  -0.0000000  -0.0000000  -0.0000000
 NQMom=    0.0000000   0.0000000   0.0000000   0.0000000   0.0000000   0.0000000   0.0000000   0.0000000   0.0000000   0.0000000
 NMagM=    0.0000000   0.0000000   0.0000000   0.0000000   0.0000000   0.0000000   0.0000000   2.7928460   2.7928460   2.7928460
 AtZNuc=   6.0000000   6.0000000   6.0000000   6.0000000   8.0000000   6.0000000   6.0000000   1.0000000   1.0000000   1.0000000

  Atom        21          22          23          24          25          26
 IAtWgt=           1           1           1           1           1           1
 AtmWgt=   1.0078250   1.0078250   1.0078250   1.0078250   1.0078250   1.0078250
 NucSpn=           1           1           1           1           1           1
 AtZEff=  -0.0000000  -0.0000000  -0.0000000  -0.0000000  -0.0000000  -0.0000000
 NQMom=    0.0000000   0.0000000   0.0000000   0.0000000   0.0000000   0.0000000
 NMagM=    2.7928460   2.7928460   2.7928460   2.7928460   2.7928460   2.7928460
 AtZNuc=   1.0000000   1.0000000   1.0000000   1.0000000   1.0000000   1.0000000
 Leave Link  101 at Sun Jan 14 00:59:43 2024, MaxMem=  4026531840 cpu:               1.9 elap:               0.3
 (Enter /sysapps/ubuntu-applications/gaussian/Gaussian/AVX2/g16/l202.exe)
                          Input orientation:                          
 ---------------------------------------------------------------------
 Center     Atomic      Atomic             Coordinates (Angstroms)
 Number     Number       Type             X           Y           Z
 ---------------------------------------------------------------------
      1          7           0       -4.512357   -0.889323   -0.777449
      2          6           0       -3.268240   -0.640872   -0.232324
      3          6           0       -3.067590   -0.710899    1.161737
      4          6           0       -1.812099   -0.505927    1.702080
      5          6           0       -0.709412   -0.226056    0.883338
      6          6           0        0.619350   -0.011990    1.494120
      7          8           0        0.792463   -0.070104    2.704030
      8          6           0        1.759541    0.281583    0.570300
      9          6           0        3.032740    0.487464    1.108650
     10          6           0        4.110010    0.762002    0.273777
     11          6           0        3.925246    0.834020   -1.109676
     12          6           0        2.662945    0.631309   -1.654439
     13          6           0        1.573705    0.354222   -0.821850
     14          6           0        0.230318    0.141697   -1.433954
     15          8           0        0.064426    0.208858   -2.641452
     16          6           0       -0.906112   -0.156479   -0.509328
     17          6           0       -2.168001   -0.362226   -1.055727
     18          1           0       -5.315455   -0.819208   -0.172827
     19          1           0       -4.676812   -0.593877   -1.726832
     20          1           0       -3.908585   -0.930877    1.811465
     21          1           0       -1.656489   -0.557745    2.772812
     22          1           0        3.152591    0.427077    2.183290
     23          1           0        5.095289    0.920402    0.697656
     24          1           0        4.766621    1.048101   -1.758977
     25          1           0        2.495854    0.682391   -2.723255
     26          1           0       -2.279947   -0.303542   -2.132493
 ---------------------------------------------------------------------
                    Distance matrix (angstroms):
                    1          2          3          4          5
     1  N    0.000000
     2  C    1.380839   0.000000
     3  C    2.424795   1.410167   0.000000
     4  C    3.685980   2.424969   1.382115   0.000000
     5  C    4.202443   2.822122   2.423547   1.401636   0.000000
     6  C    5.680155   4.299937   3.767291   2.489812   1.478001
     7  O    6.397885   5.043536   4.205864   2.824463   2.365348
     8  C    6.521055   5.174332   4.963468   3.828539   2.539964
     9  C    7.898190   6.540161   6.217147   4.981109   3.816226
    10  C    8.841785   7.527467   7.380776   6.222465   4.957283
    11  C    8.618203   7.395356   7.513045   6.528289   5.155184
    12  C    7.386907   6.230555   6.524676   5.708375   4.306760
    13  C    6.211966   4.978171   5.158558   4.309727   2.908094
    14  C    4.897649   3.781036   4.282608   3.798104   2.527484
    15  O    5.062356   4.199119   5.011958   4.785241   3.634848
    16  C    3.689709   2.427142   2.787800   2.415213   1.408208
    17  C    2.418941   1.402199   2.418260   2.784388   2.430226
    18  H    1.007696   2.055829   2.616427   3.985841   4.762662
    19  H    1.007801   2.054224   3.308643   4.468977   4.763249
    20  H    2.658711   2.161300   1.085269   2.141915   3.404835
    21  H    4.568400   3.411084   2.147143   1.083220   2.139412
    22  H    8.321677   6.942822   6.405405   5.074466   4.126927
    23  H    9.887260   8.558683   8.337212   7.124275   5.919746
    24  H    9.529766   8.351185   8.543975   7.594305   6.212265
    25  H    7.441201   6.417207   6.927217   6.289209   4.909839
    26  H    2.676367   2.168215   3.411491   3.868306   3.401150
                    6          7          8          9         10
     6  C    0.000000
     7  O    1.223613   0.000000
     8  C    1.496551   2.368908   0.000000
     9  C    2.494492   2.806236   1.397585   0.000000
    10  C    3.777963   4.195789   2.417319   1.390286   0.000000
    11  C    4.292369   5.017581   2.796030   2.416120   1.397593
    12  C    3.808351   4.794469   2.426502   2.791433   2.414352
    13  C    2.531526   3.636237   1.406376   2.423503   2.792763
    14  C    2.957800   4.181361   2.524901   3.799731   4.284056
    15  O    4.178477   5.402040   3.632362   4.790801   5.017099
    16  C    2.522244   3.635696   2.909158   4.306631   5.159297
    17  C    3.793904   4.794315   4.299307   5.696859   6.514974
    18  H    6.217091   6.792947   7.198580   8.546457   9.567605
    19  H    6.225950   7.058317   6.889839   8.285315   9.113127
    20  H    4.631118   4.861837   5.927748   7.119525   8.338357
    21  H    2.666898   2.497977   4.150276   5.084365   6.421792
    22  H    2.661775   2.467501   2.136233   1.082988   2.162190
    23  H    4.640877   4.849840   3.398753   2.147198   1.084223
    24  H    5.376457   6.079699   3.880156   3.397638   2.155245
    25  H    4.667942   5.737875   3.398574   3.874240   3.405002
    26  H    4.652230   5.734645   4.895398   6.273384   6.910649
                   11         12         13         14         15
    11  C    0.000000
    12  C    1.389699   0.000000
    13  C    2.417187   1.398723   0.000000
    14  C    3.773190   2.491186   1.491485   0.000000
    15  O    4.200369   2.811576   2.368545   1.220689   0.000000
    16  C    4.968252   3.830151   2.551074   1.495097   2.370942
    17  C    6.209797   4.968260   3.816852   2.479703   2.797211
    18  H    9.434056   8.243424   7.018454   5.767961   6.007841
    19  H    8.741577   7.441663   6.386458   4.970591   4.894921
    20  H    8.544989   7.591964   6.216215   5.367837   6.075548
    21  H    6.940208   6.298564   4.918072   4.663276   5.732668
    22  H    3.406791   3.874226   3.395446   4.658924   5.732584
    23  H    2.154742   3.395913   3.876985   5.368248   6.079928
    24  H    1.084128   2.147114   3.399175   4.637376   4.857338
    25  H    2.160970   1.083003   2.138550   2.662198   2.478461
    26  H    6.390980   5.053183   4.123236   2.643412   2.453096
                   16         17         18         19         20
    16  C    0.000000
    17  C    1.390413   0.000000
    18  H    4.471549   3.300729   0.000000
    19  H    3.986453   2.607331   1.695161   0.000000
    20  H    3.873063   3.402027   2.434988   3.636384   0.000000
    21  H    3.390652   3.867503   4.704592   5.419451   2.476964
    22  H    4.905487   6.278768   8.877630   8.810843   7.200174
    23  H    6.215569   7.581218  10.590919  10.181608   9.259457
    24  H    5.932330   7.111439  10.375499   9.585174   9.587680
    25  H    4.144701   5.061958   8.353205   7.353153   8.011439
    26  H    2.131599   1.084159   3.649728   2.448227   4.312866
                   21         22         23         24         25
    21  H    0.000000
    22  H    4.944154   0.000000
    23  H    7.216488   2.494906   0.000000
    24  H    8.023228   4.304908   2.481809   0.000000
    25  H    6.999046   4.956881   4.303062   2.493984   0.000000
    26  H    4.951296   6.976550   7.993866   7.184746   4.912162
                   26
    26  H    0.000000
 Stoichiometry    C14H9NO2
 Framework group  C1[X(C14H9NO2)]
 Deg. of freedom    72
 Full point group                 C1      NOp   1
 Largest Abelian subgroup         C1      NOp   1
 Largest concise Abelian subgroup C1      NOp   1
                         Standard orientation:                         
 ---------------------------------------------------------------------
 Center     Atomic      Atomic             Coordinates (Angstroms)
 Number     Number       Type             X           Y           Z
 ---------------------------------------------------------------------
      1          7           0        4.656494   -0.845926   -0.053014
      2          6           0        3.400063   -0.275142   -0.005039
      3          6           0        3.247275    1.126723   -0.004181
      4          6           0        1.987967    1.696266   -0.001294
      5          6           0        0.834339    0.900196   -0.000919
      6          6           0       -0.497056    1.541962    0.002335
      7          8           0       -0.629163    2.758417    0.005882
      8          6           0       -1.692420    0.641536    0.000852
      9          6           0       -2.969317    1.209671    0.001099
     10          6           0       -4.097337    0.396981   -0.000144
     11          6           0       -3.960284   -0.993876   -0.001264
     12          6           0       -2.694829   -1.568234   -0.000981
     13          6           0       -1.554626   -0.758073   -0.000127
     14          6           0       -0.209210   -1.401798    0.000814
     15          8           0       -0.085879   -2.616234    0.004930
     16          6           0        0.983370   -0.500102   -0.002862
     17          6           0        2.248970   -1.075859   -0.005756
     18          1           0        5.444033   -0.277452    0.215443
     19          1           0        4.740035   -1.819367    0.194161
     20          1           0        4.128934    1.759544   -0.008901
     21          1           0        1.868768    2.772905    0.001005
     22          1           0       -3.051700    2.289520    0.002133
     23          1           0       -5.085140    0.843951   -0.000295
     24          1           0       -4.841170   -1.625836   -0.002354
     25          1           0       -2.564183   -2.643328   -0.001663
     26          1           0        2.323880   -2.157418   -0.010128
 ---------------------------------------------------------------------
 Rotational constants (GHZ):           1.0571618           0.3375202           0.2558704
 Leave Link  202 at Sun Jan 14 00:59:43 2024, MaxMem=  4026531840 cpu:               0.5 elap:               0.1
 (Enter /sysapps/ubuntu-applications/gaussian/Gaussian/AVX2/g16/l301.exe)
 Standard basis: 6-311++G(d,p) (5D, 7F)
 Ernie: Thresh=  0.10000D-02 Tol=  0.10000D-05 Strict=F.
 There are   454 symmetry adapted cartesian basis functions of A   symmetry.
 There are   437 symmetry adapted basis functions of A   symmetry.
   437 basis functions,   693 primitive gaussians,   454 cartesian basis functions
    58 alpha electrons       58 beta electrons
       nuclear repulsion energy      1086.8338898375 Hartrees.
 IExCor=  402 DFT=T Ex+Corr=B3LYP ExCW=0 ScaHFX=  0.200000
 ScaDFX=  0.800000  0.720000  1.000000  0.810000 ScalE2=  1.000000  1.000000
 IRadAn=      5 IRanWt=     -1 IRanGd=            0 ICorTp=0 IEmpDi=  4
 NAtoms=   26 NActive=   26 NUniq=   26 SFac= 1.00D+00 NAtFMM=   60 NAOKFM=F Big=F
 Integral buffers will be    131072 words long.
 Raffenetti 2 integral format.
 Two-electron integral symmetry is turned on.
 ------------------------------------------------------------------------------
 Polarizable Continuum Model (PCM)
 =================================
 Model                : PCM.
 Atomic radii         : UFF (Universal Force Field).
 Polarization charges : Total charges.
 Charge compensation  : None.
 Solution method      : On-the-fly selection.
 Cavity type          : Scaled VdW (van der Waals Surface) (Alpha=1.100).
 Cavity algorithm     : GePol (No added spheres)
                        Default sphere list used, NSphG=   26.
                        Lebedev-Laikov grids with approx.  5.0 points / Ang**2.
                        Smoothing algorithm: York/Karplus (Gamma=1.0000).
                        Polarization charges: spherical gaussians, with
                                              point-specific exponents (IZeta= 3).
                        Self-potential: point-specific (ISelfS= 7).
                        Self-field    : sphere-specific E.n sum rule (ISelfD= 2).
 Solvent              : n,n-DiMethylFormamide, Eps=  37.219000 Eps(inf)=   2.046330
 ------------------------------------------------------------------------------
 GePol: Number of generator spheres                  =      26
 GePol: Total number of spheres                      =      26
 GePol: Number of exposed spheres                    =      26 (100.00%)
 GePol: Number of points                             =    2130
 GePol: Average weight of points                     =       0.13
 GePol: Minimum weight of points                     =   0.26D-11
 GePol: Maximum weight of points                     =    0.20577
 GePol: Number of points with low weight             =     137
 GePol: Fraction of low-weight points (<1% of avg)   =       6.43%
 GePol: Cavity surface area                          =    272.476 Ang**2
 GePol: Cavity volume                                =    295.126 Ang**3
 Leave Link  301 at Sun Jan 14 00:59:43 2024, MaxMem=  4026531840 cpu:               0.9 elap:               0.2
 (Enter /sysapps/ubuntu-applications/gaussian/Gaussian/AVX2/g16/l302.exe)
 NPDir=0 NMtPBC=     1 NCelOv=     1 NCel=       1 NClECP=     1 NCelD=      1
         NCelK=      1 NCelE2=     1 NClLst=     1 CellRange=     0.0.
 One-electron integrals computed using PRISM.
 One-electron integral symmetry used in STVInt
 NBasis=   437 RedAO= T EigKep=  1.78D-06  NBF=   437
 NBsUse=   430 1.00D-06 EigRej=  8.96D-07 NBFU=   430
 Precomputing XC quadrature grid using
 IXCGrd= 4 IRadAn=           5 IRanWt=          -1 IRanGd=           0 AccXCQ= 0.00D+00.
 Generated NRdTot=       0 NPtTot=           0 NUsed=           0 NTot=          32
 NSgBfM=   453   453   453   453   453 MxSgAt=    26 MxSgA2=    26.
 Leave Link  302 at Sun Jan 14 00:59:44 2024, MaxMem=  4026531840 cpu:               4.2 elap:               0.6
 (Enter /sysapps/ubuntu-applications/gaussian/Gaussian/AVX2/g16/l303.exe)
 DipDrv:  MaxL=1.
 Leave Link  303 at Sun Jan 14 00:59:44 2024, MaxMem=  4026531840 cpu:               2.0 elap:               0.4
 (Enter /sysapps/ubuntu-applications/gaussian/Gaussian/AVX2/g16/l401.exe)
 ExpMin= 3.60D-02 ExpMax= 8.59D+03 ExpMxC= 1.30D+03 IAcc=3 IRadAn=         5 AccDes= 0.00D+00
 Harris functional with IExCor=  402 and IRadAn=       5 diagonalized for initial guess.
 HarFok:  IExCor=  402 AccDes= 0.00D+00 IRadAn=         5 IDoV= 1 UseB2=F ITyADJ=14
 ICtDFT=  3500011 ScaDFX=  1.000000  1.000000  1.000000  1.000000
 FoFCou: FMM=F IPFlag=           0 FMFlag=      100000 FMFlg1=           0
         NFxFlg=           0 DoJE=T BraDBF=F KetDBF=T FulRan=T
         wScrn=  0.000000 ICntrl=       500 IOpCl=  0 I1Cent=   200000004 NGrid=           0
         NMat0=    1 NMatS0=      1 NMatT0=    0 NMatD0=    1 NMtDS0=    0 NMtDT0=    0
 Petite list used in FoFCou.
 Harris En= -744.354470123485    
 JPrj=0 DoOrth=F DoCkMO=F.
 Initial guess <Sx>= 0.0000 <Sy>= 0.0000 <Sz>= 0.0000 <S**2>=-0.0000 S=-0.0000
 Leave Link  401 at Sun Jan 14 00:59:47 2024, MaxMem=  4026531840 cpu:              26.8 elap:               3.4
 (Enter /sysapps/ubuntu-applications/gaussian/Gaussian/AVX2/g16/l502.exe)
 Integral symmetry usage will be decided dynamically.
 UHF open shell SCF:
 Using DIIS extrapolation, IDIIS=  1040.
 NGot=  4026531840 LenX=  4026111742 LenY=  4025905172
 Requested convergence on RMS density matrix=1.00D-08 within 128 cycles.
 Requested convergence on MAX density matrix=1.00D-06.
 Requested convergence on             energy=1.00D-06.
 No special actions if energy rises.
 Fock matrices will be formed incrementally for  20 cycles.

 Cycle   1  Pass 1  IDiag  1:
 FoFJK:  IHMeth= 1 ICntrl=       0 DoSepK=F KAlg= 0 I1Cent=           0 FoldK=F
 IRaf= 860000000 NMat=       1 IRICut=       1 DoRegI=T DoRafI=F ISym2E= 0 IDoP0=0 IntGTp=1.
 FoFCou: FMM=F IPFlag=           0 FMFlag=      100000 FMFlg1=           0
         NFxFlg=           0 DoJE=F BraDBF=F KetDBF=F FulRan=T
         wScrn=  0.000000 ICntrl=         0 IOpCl=  1 I1Cent=           0 NGrid=           0
         NMat0=    1 NMatS0=      1 NMatT0=    0 NMatD0=    1 NMtDS0=    0 NMtDT0=    0
 Symmetry not used in FoFCou.
 Inv3:  Mode=1 IEnd=    13610700.
 Iteration    1 A*A^-1 deviation from unit magnitude is 3.11D-15 for    924.
 Iteration    1 A*A^-1 deviation from orthogonality  is 1.78D-15 for   1474    522.
 Iteration    1 A^-1*A deviation from unit magnitude is 2.89D-15 for    924.
 Iteration    1 A^-1*A deviation from orthogonality  is 1.65D-15 for   1508    548.
 E= -743.977366978086    
 DIIS: error= 2.75D-02 at cycle   1 NSaved=   1.
 NSaved= 1 IEnMin= 1 EnMin= -743.977366978086     IErMin= 1 ErrMin= 2.75D-02
 ErrMax= 2.75D-02  0.00D+00 EMaxC= 1.00D-01 BMatC= 1.86D+00 BMatP= 1.86D+00
 IDIUse=3 WtCom= 7.25D-01 WtEn= 2.75D-01
 Coeff-Com:  0.100D+01
 Coeff-En:   0.100D+01
 Coeff:      0.100D+01
 Gap=     0.090 Goal=   None    Shift=    0.000
 Gap=     0.090 Goal=   None    Shift=    0.000
 GapD=    0.090 DampG=0.500 DampE=0.500 DampFc=0.2500 IDamp=-1.
 Damping current iteration by 2.50D-01
 RMSDP=1.04D-02 MaxDP=5.84D-01              OVMax= 2.65D-01

 Cycle   2  Pass 1  IDiag  1:
 RMSU=  2.60D-03    CP:  9.95D-01
 E= -744.107852699841     Delta-E=       -0.130485721755 Rises=F Damp=T
 DIIS: error= 1.58D-02 at cycle   2 NSaved=   2.
 NSaved= 2 IEnMin= 2 EnMin= -744.107852699841     IErMin= 2 ErrMin= 1.58D-02
 ErrMax= 1.58D-02  0.00D+00 EMaxC= 1.00D-01 BMatC= 4.49D-01 BMatP= 1.86D+00
 IDIUse=3 WtCom= 8.42D-01 WtEn= 1.58D-01
 Coeff-Com: -0.672D+00 0.167D+01
 Coeff-En:   0.000D+00 0.100D+01
 Coeff:     -0.566D+00 0.157D+01
 Gap=     0.112 Goal=   None    Shift=    0.000
 Gap=     0.112 Goal=   None    Shift=    0.000
 RMSDP=6.16D-03 MaxDP=4.13D-01 DE=-1.30D-01 OVMax= 2.49D-01

 Cycle   3  Pass 1  IDiag  1:
 RMSU=  5.80D-03    CP:  9.52D-01  1.09D+00
 E= -744.302977391124     Delta-E=       -0.195124691283 Rises=F Damp=F
 DIIS: error= 1.78D-02 at cycle   3 NSaved=   3.
 NSaved= 3 IEnMin= 3 EnMin= -744.302977391124     IErMin= 2 ErrMin= 1.58D-02
 ErrMax= 1.78D-02  0.00D+00 EMaxC= 1.00D-01 BMatC= 2.03D-01 BMatP= 4.49D-01
 IDIUse=3 WtCom= 8.22D-01 WtEn= 1.78D-01
 Coeff-Com: -0.444D+00 0.942D+00 0.502D+00
 Coeff-En:   0.000D+00 0.000D+00 0.100D+01
 Coeff:     -0.365D+00 0.774D+00 0.591D+00
 Gap=     0.122 Goal=   None    Shift=    0.000
 Gap=     0.122 Goal=   None    Shift=    0.000
 RMSDP=3.12D-03 MaxDP=1.47D-01 DE=-1.95D-01 OVMax= 8.73D-02

 Cycle   4  Pass 1  IDiag  1:
 RMSU=  1.95D-03    CP:  9.78D-01  1.47D+00  6.80D-01
 E= -744.332661860119     Delta-E=       -0.029684468995 Rises=F Damp=F
 DIIS: error= 1.27D-02 at cycle   4 NSaved=   4.
 NSaved= 4 IEnMin= 4 EnMin= -744.332661860119     IErMin= 4 ErrMin= 1.27D-02
 ErrMax= 1.27D-02  0.00D+00 EMaxC= 1.00D-01 BMatC= 7.52D-02 BMatP= 2.03D-01
 IDIUse=3 WtCom= 8.73D-01 WtEn= 1.27D-01
 Coeff-Com: -0.782D-01 0.180D+00 0.381D+00 0.517D+00
 Coeff-En:   0.000D+00 0.000D+00 0.301D+00 0.699D+00
 Coeff:     -0.682D-01 0.157D+00 0.370D+00 0.540D+00
 Gap=     0.115 Goal=   None    Shift=    0.000
 Gap=     0.115 Goal=   None    Shift=    0.000
 RMSDP=1.87D-03 MaxDP=1.26D-01 DE=-2.97D-02 OVMax= 3.39D-02

 Cycle   5  Pass 1  IDiag  1:
 RMSU=  5.19D-04    CP:  9.48D-01  1.32D+00  7.66D-01  5.13D-01
 E= -744.348296146817     Delta-E=       -0.015634286697 Rises=F Damp=F
 DIIS: error= 1.40D-03 at cycle   5 NSaved=   5.
 NSaved= 5 IEnMin= 5 EnMin= -744.348296146817     IErMin= 5 ErrMin= 1.40D-03
 ErrMax= 1.40D-03  0.00D+00 EMaxC= 1.00D-01 BMatC= 1.85D-03 BMatP= 7.52D-02
 IDIUse=3 WtCom= 9.86D-01 WtEn= 1.40D-02
 Coeff-Com: -0.435D-02 0.130D-01 0.145D+00 0.274D+00 0.572D+00
 Coeff-En:   0.000D+00 0.000D+00 0.000D+00 0.000D+00 0.100D+01
 Coeff:     -0.429D-02 0.128D-01 0.143D+00 0.270D+00 0.578D+00
 Gap=     0.119 Goal=   None    Shift=    0.000
 Gap=     0.119 Goal=   None    Shift=    0.000
 RMSDP=4.35D-04 MaxDP=4.02D-02 DE=-1.56D-02 OVMax= 6.01D-03

 Cycle   6  Pass 1  IDiag  1:
 RMSU=  2.28D-04    CP:  9.41D-01  1.29D+00  7.61D-01  5.43D-01  7.95D-01
 E= -744.348678770795     Delta-E=       -0.000382623979 Rises=F Damp=F
 DIIS: error= 2.84D-04 at cycle   6 NSaved=   6.
 NSaved= 6 IEnMin= 6 EnMin= -744.348678770795     IErMin= 6 ErrMin= 2.84D-04
 ErrMax= 2.84D-04  0.00D+00 EMaxC= 1.00D-01 BMatC= 1.05D-04 BMatP= 1.85D-03
 IDIUse=3 WtCom= 9.97D-01 WtEn= 2.84D-03
 Coeff-Com:  0.134D-02-0.226D-02 0.424D-01 0.915D-01 0.282D+00 0.585D+00
 Coeff-En:   0.000D+00 0.000D+00 0.000D+00 0.000D+00 0.000D+00 0.100D+01
 Coeff:      0.134D-02-0.225D-02 0.423D-01 0.912D-01 0.281D+00 0.587D+00
 Gap=     0.118 Goal=   None    Shift=    0.000
 Gap=     0.118 Goal=   None    Shift=    0.000
 RMSDP=1.17D-04 MaxDP=7.54D-03 DE=-3.83D-04 OVMax= 2.25D-03

 Cycle   7  Pass 1  IDiag  1:
 RMSU=  4.56D-05    CP:  9.43D-01  1.29D+00  7.69D-01  5.58D-01  7.89D-01
                    CP:  8.00D-01
 E= -744.348701535921     Delta-E=       -0.000022765125 Rises=F Damp=F
 DIIS: error= 1.26D-04 at cycle   7 NSaved=   7.
 NSaved= 7 IEnMin= 7 EnMin= -744.348701535921     IErMin= 7 ErrMin= 1.26D-04
 ErrMax= 1.26D-04  0.00D+00 EMaxC= 1.00D-01 BMatC= 1.65D-05 BMatP= 1.05D-04
 IDIUse=3 WtCom= 9.99D-01 WtEn= 1.26D-03
 Coeff-Com:  0.130D-02-0.264D-02 0.131D-01 0.316D-01 0.123D+00 0.347D+00
 Coeff-Com:  0.487D+00
 Coeff-En:   0.000D+00 0.000D+00 0.000D+00 0.000D+00 0.000D+00 0.794D-01
 Coeff-En:   0.921D+00
 Coeff:      0.130D-02-0.264D-02 0.131D-01 0.315D-01 0.123D+00 0.347D+00
 Coeff:      0.488D+00
 Gap=     0.118 Goal=   None    Shift=    0.000
 Gap=     0.118 Goal=   None    Shift=    0.000
 RMSDP=2.06D-05 MaxDP=1.10D-03 DE=-2.28D-05 OVMax= 7.17D-04

 Cycle   8  Pass 1  IDiag  1:
 RMSU=  1.47D-05    CP:  9.43D-01  1.29D+00  7.68D-01  5.55D-01  7.82D-01
                    CP:  8.22D-01  8.55D-01
 E= -744.348705573283     Delta-E=       -0.000004037362 Rises=F Damp=F
 DIIS: error= 2.61D-05 at cycle   8 NSaved=   8.
 NSaved= 8 IEnMin= 8 EnMin= -744.348705573283     IErMin= 8 ErrMin= 2.61D-05
 ErrMax= 2.61D-05  0.00D+00 EMaxC= 1.00D-01 BMatC= 5.14D-07 BMatP= 1.65D-05
 IDIUse=1 WtCom= 1.00D+00 WtEn= 0.00D+00
 Coeff-Com:  0.400D-03-0.789D-03 0.841D-03 0.304D-02 0.208D-01 0.731D-01
 Coeff-Com:  0.188D+00 0.714D+00
 Coeff:      0.400D-03-0.789D-03 0.841D-03 0.304D-02 0.208D-01 0.731D-01
 Coeff:      0.188D+00 0.714D+00
 Gap=     0.118 Goal=   None    Shift=    0.000
 Gap=     0.118 Goal=   None    Shift=    0.000
 RMSDP=1.45D-05 MaxDP=8.73D-04 DE=-4.04D-06 OVMax= 1.65D-04

 Cycle   9  Pass 1  IDiag  1:
 RMSU=  4.67D-06    CP:  9.43D-01  1.29D+00  7.69D-01  5.56D-01  7.91D-01
                    CP:  7.99D-01  8.41D-01  6.62D-01
 E= -744.348705664632     Delta-E=       -0.000000091350 Rises=F Damp=F
 DIIS: error= 1.30D-05 at cycle   9 NSaved=   9.
 NSaved= 9 IEnMin= 9 EnMin= -744.348705664632     IErMin= 9 ErrMin= 1.30D-05
 ErrMax= 1.30D-05  0.00D+00 EMaxC= 1.00D-01 BMatC= 1.42D-07 BMatP= 5.14D-07
 IDIUse=1 WtCom= 1.00D+00 WtEn= 0.00D+00
 Coeff-Com:  0.172D-03-0.331D-03-0.206D-03 0.405D-04 0.567D-02 0.231D-01
 Coeff-Com:  0.820D-01 0.431D+00 0.459D+00
 Coeff:      0.172D-03-0.331D-03-0.206D-03 0.405D-04 0.567D-02 0.231D-01
 Coeff:      0.820D-01 0.431D+00 0.459D+00
 Gap=     0.118 Goal=   None    Shift=    0.000
 Gap=     0.118 Goal=   None    Shift=    0.000
 RMSDP=1.94D-06 MaxDP=1.72D-04 DE=-9.13D-08 OVMax= 7.39D-05

 Cycle  10  Pass 1  IDiag  1:
 RMSU=  9.51D-07    CP:  9.43D-01  1.29D+00  7.69D-01  5.56D-01  7.90D-01
                    CP:  8.02D-01  8.48D-01  6.67D-01  8.57D-01
 E= -744.348705701170     Delta-E=       -0.000000036537 Rises=F Damp=F
 DIIS: error= 1.78D-06 at cycle  10 NSaved=  10.
 NSaved=10 IEnMin=10 EnMin= -744.348705701170     IErMin=10 ErrMin= 1.78D-06
 ErrMax= 1.78D-06  0.00D+00 EMaxC= 1.00D-01 BMatC= 5.86D-09 BMatP= 1.42D-07
 IDIUse=1 WtCom= 1.00D+00 WtEn= 0.00D+00
 Coeff-Com:  0.207D-04-0.401D-04-0.185D-03-0.365D-03 0.144D-03 0.154D-02
 Coeff-Com:  0.136D-01 0.105D+00 0.206D+00 0.674D+00
 Coeff:      0.207D-04-0.401D-04-0.185D-03-0.365D-03 0.144D-03 0.154D-02
 Coeff:      0.136D-01 0.105D+00 0.206D+00 0.674D+00
 Gap=     0.118 Goal=   None    Shift=    0.000
 Gap=     0.118 Goal=   None    Shift=    0.000
 RMSDP=6.34D-07 MaxDP=3.80D-05 DE=-3.65D-08 OVMax= 1.59D-05

 Cycle  11  Pass 1  IDiag  1:
 RMSU=  2.90D-07    CP:  9.43D-01  1.29D+00  7.69D-01  5.56D-01  7.90D-01
                    CP:  8.01D-01  8.51D-01  6.82D-01  9.08D-01  8.19D-01
 E= -744.348705702287     Delta-E=       -0.000000001117 Rises=F Damp=F
 DIIS: error= 1.18D-06 at cycle  11 NSaved=  11.
 NSaved=11 IEnMin=11 EnMin= -744.348705702287     IErMin=11 ErrMin= 1.18D-06
 ErrMax= 1.18D-06  0.00D+00 EMaxC= 1.00D-01 BMatC= 1.51D-09 BMatP= 5.86D-09
 IDIUse=1 WtCom= 1.00D+00 WtEn= 0.00D+00
 Coeff-Com: -0.123D-05 0.104D-05-0.923D-04-0.216D-03-0.294D-03-0.782D-03
 Coeff-Com:  0.190D-02 0.296D-01 0.912D-01 0.416D+00 0.463D+00
 Coeff:     -0.123D-05 0.104D-05-0.923D-04-0.216D-03-0.294D-03-0.782D-03
 Coeff:      0.190D-02 0.296D-01 0.912D-01 0.416D+00 0.463D+00
 Gap=     0.118 Goal=   None    Shift=    0.000
 Gap=     0.118 Goal=   None    Shift=    0.000
 RMSDP=1.44D-07 MaxDP=7.70D-06 DE=-1.12D-09 OVMax= 1.23D-05

 Cycle  12  Pass 1  IDiag  1:
 RMSU=  1.00D-07    CP:  9.43D-01  1.29D+00  7.69D-01  5.56D-01  7.90D-01
                    CP:  8.01D-01  8.52D-01  6.82D-01  9.01D-01  8.52D-01
                    CP:  8.41D-01
 E= -744.348705702661     Delta-E=       -0.000000000374 Rises=F Damp=F
 DIIS: error= 2.67D-07 at cycle  12 NSaved=  12.
 NSaved=12 IEnMin=12 EnMin= -744.348705702661     IErMin=12 ErrMin= 2.67D-07
 ErrMax= 2.67D-07  0.00D+00 EMaxC= 1.00D-01 BMatC= 7.50D-11 BMatP= 1.51D-09
 IDIUse=1 WtCom= 1.00D+00 WtEn= 0.00D+00
 Coeff-Com: -0.429D-05 0.645D-05-0.188D-04-0.513D-04-0.141D-03-0.536D-03
 Coeff-Com: -0.795D-03-0.293D-03 0.141D-01 0.880D-01 0.217D+00 0.683D+00
 Coeff:     -0.429D-05 0.645D-05-0.188D-04-0.513D-04-0.141D-03-0.536D-03
 Coeff:     -0.795D-03-0.293D-03 0.141D-01 0.880D-01 0.217D+00 0.683D+00
 Gap=     0.118 Goal=   None    Shift=    0.000
 Gap=     0.118 Goal=   None    Shift=    0.000
 RMSDP=1.22D-07 MaxDP=7.38D-06 DE=-3.74D-10 OVMax= 1.42D-06

 Cycle  13  Pass 1  IDiag  1:
 RMSU=  4.47D-08    CP:  9.43D-01  1.29D+00  7.69D-01  5.56D-01  7.90D-01
                    CP:  8.01D-01  8.52D-01  6.80D-01  9.10D-01  8.72D-01
                    CP:  9.11D-01  9.49D-01
 E= -744.348705702680     Delta-E=       -0.000000000019 Rises=F Damp=F
 DIIS: error= 1.43D-07 at cycle  13 NSaved=  13.
 NSaved=13 IEnMin=13 EnMin= -744.348705702680     IErMin=13 ErrMin= 1.43D-07
 ErrMax= 1.43D-07  0.00D+00 EMaxC= 1.00D-01 BMatC= 2.38D-11 BMatP= 7.50D-11
 IDIUse=1 WtCom= 1.00D+00 WtEn= 0.00D+00
 Coeff-Com: -0.295D-05 0.454D-05-0.208D-06-0.533D-05-0.573D-04-0.276D-03
 Coeff-Com: -0.829D-03-0.465D-02-0.339D-02-0.411D-03 0.922D-01 0.457D+00
 Coeff-Com:  0.461D+00
 Coeff:     -0.295D-05 0.454D-05-0.208D-06-0.533D-05-0.573D-04-0.276D-03
 Coeff:     -0.829D-03-0.465D-02-0.339D-02-0.411D-03 0.922D-01 0.457D+00
 Coeff:      0.461D+00
 Gap=     0.118 Goal=   None    Shift=    0.000
 Gap=     0.118 Goal=   None    Shift=    0.000
 RMSDP=5.12D-08 MaxDP=3.81D-06 DE=-1.89D-11 OVMax= 5.26D-07

 Cycle  14  Pass 1  IDiag  1:
 RMSU=  1.36D-08    CP:  9.43D-01  1.29D+00  7.69D-01  5.56D-01  7.90D-01
                    CP:  8.01D-01  8.52D-01  6.80D-01  9.13D-01  8.70D-01
                    CP:  9.15D-01  9.52D-01  6.76D-01
 E= -744.348705702680     Delta-E=        0.000000000000 Rises=F Damp=F
 DIIS: error= 3.45D-08 at cycle  14 NSaved=  14.
 NSaved=14 IEnMin=13 EnMin= -744.348705702680     IErMin=14 ErrMin= 3.45D-08
 ErrMax= 3.45D-08  0.00D+00 EMaxC= 1.00D-01 BMatC= 1.11D-12 BMatP= 2.38D-11
 IDIUse=1 WtCom= 1.00D+00 WtEn= 0.00D+00
 Coeff-Com: -0.654D-06 0.106D-05 0.183D-05 0.319D-05-0.834D-05-0.657D-04
 Coeff-Com: -0.241D-03-0.194D-02-0.284D-02-0.106D-01 0.200D-01 0.108D+00
 Coeff-Com:  0.196D+00 0.692D+00
 Coeff:     -0.654D-06 0.106D-05 0.183D-05 0.319D-05-0.834D-05-0.657D-04
 Coeff:     -0.241D-03-0.194D-02-0.284D-02-0.106D-01 0.200D-01 0.108D+00
 Coeff:      0.196D+00 0.692D+00
 Gap=     0.118 Goal=   None    Shift=    0.000
 Gap=     0.118 Goal=   None    Shift=    0.000
 RMSDP=8.94D-09 MaxDP=7.23D-07 DE= 0.00D+00 OVMax= 3.88D-07

 Error on total polarization charges =  0.01671
 SCF Done:  E(UB3LYP) =  -744.348705703     A.U. after   14 cycles
            NFock= 14  Conv=0.89D-08     -V/T= 2.0041
 <Sx>= 0.0000 <Sy>= 0.0000 <Sz>= 0.0000 <S**2>=-0.0000 S=-0.0000
 <L.S>=  0.00000000000    
 KE= 7.412821530525D+02 PE=-3.908569035554D+03 EE= 1.336104286961D+03
 Annihilation of the first spin contaminant:
 S**2 before annihilation    -0.0000,   after     0.0000
 Leave Link  502 at Sun Jan 14 01:03:52 2024, MaxMem=  4026531840 cpu:            1946.8 elap:             244.3
 (Enter /sysapps/ubuntu-applications/gaussian/Gaussian/AVX2/g16/l601.exe)
 Copying SCF densities to generalized density rwf, IOpCl= 1 IROHF=0.

 **********************************************************************

            Population analysis using the SCF density.

 **********************************************************************

 Orbital symmetries:
 Alpha Orbitals:
       Occupied  (A) (A) (A) (A) (A) (A) (A) (A) (A) (A) (A) (A)
                 (A) (A) (A) (A) (A) (A) (A) (A) (A) (A) (A) (A)
                 (A) (A) (A) (A) (A) (A) (A) (A) (A) (A) (A) (A)
                 (A) (A) (A) (A) (A) (A) (A) (A) (A) (A) (A) (A)
                 (A) (A) (A) (A) (A) (A) (A) (A) (A) (A)
       Virtual   (A) (A) (A) (A) (A) (A) (A) (A) (A) (A) (A) (A)
                 (A) (A) (A) (A) (A) (A) (A) (A) (A) (A) (A) (A)
                 (A) (A) (A) (A) (A) (A) (A) (A) (A) (A) (A) (A)
                 (A) (A) (A) (A) (A) (A) (A) (A) (A) (A) (A) (A)
                 (A) (A) (A) (A) (A) (A) (A) (A) (A) (A) (A) (A)
                 (A) (A) (A) (A) (A) (A) (A) (A) (A) (A) (A) (A)
                 (A) (A) (A) (A) (A) (A) (A) (A) (A) (A) (A) (A)
                 (A) (A) (A) (A) (A) (A) (A) (A) (A) (A) (A) (A)
                 (A) (A) (A) (A) (A) (A) (A) (A) (A) (A) (A) (A)
                 (A) (A) (A) (A) (A) (A) (A) (A) (A) (A) (A) (A)
                 (A) (A) (A) (A) (A) (A) (A) (A) (A) (A) (A) (A)
                 (A) (A) (A) (A) (A) (A) (A) (A) (A) (A) (A) (A)
                 (A) (A) (A) (A) (A) (A) (A) (A) (A) (A) (A) (A)
                 (A) (A) (A) (A) (A) (A) (A) (A) (A) (A) (A) (A)
                 (A) (A) (A) (A) (A) (A) (A) (A) (A) (A) (A) (A)
                 (A) (A) (A) (A) (A) (A) (A) (A) (A) (A) (A) (A)
                 (A) (A) (A) (A) (A) (A) (A) (A) (A) (A) (A) (A)
                 (A) (A) (A) (A) (A) (A) (A) (A) (A) (A) (A) (A)
                 (A) (A) (A) (A) (A) (A) (A) (A) (A) (A) (A) (A)
                 (A) (A) (A) (A) (A) (A) (A) (A) (A) (A) (A) (A)
                 (A) (A) (A) (A) (A) (A) (A) (A) (A) (A) (A) (A)
                 (A) (A) (A) (A) (A) (A) (A) (A) (A) (A) (A) (A)
                 (A) (A) (A) (A) (A) (A) (A) (A) (A) (A) (A) (A)
                 (A) (A) (A) (A) (A) (A) (A) (A) (A) (A) (A) (A)
                 (A) (A) (A) (A) (A) (A) (A) (A) (A) (A) (A) (A)
                 (A) (A) (A) (A) (A) (A) (A) (A) (A) (A) (A) (A)
                 (A) (A) (A) (A) (A) (A) (A) (A) (A) (A) (A) (A)
                 (A) (A) (A) (A) (A) (A) (A) (A) (A) (A) (A) (A)
                 (A) (A) (A) (A) (A) (A) (A) (A) (A) (A) (A) (A)
                 (A) (A) (A) (A) (A) (A) (A) (A) (A) (A) (A) (A)
                 (A) (A) (A) (A) (A) (A) (A) (A) (A) (A) (A) (A)
 Beta  Orbitals:
       Occupied  (A) (A) (A) (A) (A) (A) (A) (A) (A) (A) (A) (A)
                 (A) (A) (A) (A) (A) (A) (A) (A) (A) (A) (A) (A)
                 (A) (A) (A) (A) (A) (A) (A) (A) (A) (A) (A) (A)
                 (A) (A) (A) (A) (A) (A) (A) (A) (A) (A) (A) (A)
                 (A) (A) (A) (A) (A) (A) (A) (A) (A) (A)
       Virtual   (A) (A) (A) (A) (A) (A) (A) (A) (A) (A) (A) (A)
                 (A) (A) (A) (A) (A) (A) (A) (A) (A) (A) (A) (A)
                 (A) (A) (A) (A) (A) (A) (A) (A) (A) (A) (A) (A)
                 (A) (A) (A) (A) (A) (A) (A) (A) (A) (A) (A) (A)
                 (A) (A) (A) (A) (A) (A) (A) (A) (A) (A) (A) (A)
                 (A) (A) (A) (A) (A) (A) (A) (A) (A) (A) (A) (A)
                 (A) (A) (A) (A) (A) (A) (A) (A) (A) (A) (A) (A)
                 (A) (A) (A) (A) (A) (A) (A) (A) (A) (A) (A) (A)
                 (A) (A) (A) (A) (A) (A) (A) (A) (A) (A) (A) (A)
                 (A) (A) (A) (A) (A) (A) (A) (A) (A) (A) (A) (A)
                 (A) (A) (A) (A) (A) (A) (A) (A) (A) (A) (A) (A)
                 (A) (A) (A) (A) (A) (A) (A) (A) (A) (A) (A) (A)
                 (A) (A) (A) (A) (A) (A) (A) (A) (A) (A) (A) (A)
                 (A) (A) (A) (A) (A) (A) (A) (A) (A) (A) (A) (A)
                 (A) (A) (A) (A) (A) (A) (A) (A) (A) (A) (A) (A)
                 (A) (A) (A) (A) (A) (A) (A) (A) (A) (A) (A) (A)
                 (A) (A) (A) (A) (A) (A) (A) (A) (A) (A) (A) (A)
                 (A) (A) (A) (A) (A) (A) (A) (A) (A) (A) (A) (A)
                 (A) (A) (A) (A) (A) (A) (A) (A) (A) (A) (A) (A)
                 (A) (A) (A) (A) (A) (A) (A) (A) (A) (A) (A) (A)
                 (A) (A) (A) (A) (A) (A) (A) (A) (A) (A) (A) (A)
                 (A) (A) (A) (A) (A) (A) (A) (A) (A) (A) (A) (A)
                 (A) (A) (A) (A) (A) (A) (A) (A) (A) (A) (A) (A)
                 (A) (A) (A) (A) (A) (A) (A) (A) (A) (A) (A) (A)
                 (A) (A) (A) (A) (A) (A) (A) (A) (A) (A) (A) (A)
                 (A) (A) (A) (A) (A) (A) (A) (A) (A) (A) (A) (A)
                 (A) (A) (A) (A) (A) (A) (A) (A) (A) (A) (A) (A)
                 (A) (A) (A) (A) (A) (A) (A) (A) (A) (A) (A) (A)
                 (A) (A) (A) (A) (A) (A) (A) (A) (A) (A) (A) (A)
                 (A) (A) (A) (A) (A) (A) (A) (A) (A) (A) (A) (A)
                 (A) (A) (A) (A) (A) (A) (A) (A) (A) (A) (A) (A)
 The electronic state is 1-A.
 Alpha  occ. eigenvalues --  -19.13134 -19.12272 -14.33851 -10.28285 -10.27591
 Alpha  occ. eigenvalues --  -10.24411 -10.20767 -10.20729 -10.20672 -10.19812
 Alpha  occ. eigenvalues --  -10.19745 -10.19691 -10.19649 -10.19586 -10.19537
 Alpha  occ. eigenvalues --  -10.19216 -10.19153  -1.06594  -1.05734  -0.94397
 Alpha  occ. eigenvalues --   -0.88972  -0.87072  -0.80443  -0.77793  -0.77562
 Alpha  occ. eigenvalues --   -0.75803  -0.68776  -0.66667  -0.64188  -0.62069
 Alpha  occ. eigenvalues --   -0.58716  -0.56586  -0.56123  -0.53103  -0.51153
 Alpha  occ. eigenvalues --   -0.49874  -0.48508  -0.47160  -0.45693  -0.45372
 Alpha  occ. eigenvalues --   -0.45195  -0.44767  -0.44652  -0.43385  -0.41659
 Alpha  occ. eigenvalues --   -0.41294  -0.40487  -0.38162  -0.37762  -0.37398
 Alpha  occ. eigenvalues --   -0.36439  -0.33176  -0.28611  -0.28555  -0.27925
 Alpha  occ. eigenvalues --   -0.27655  -0.27254  -0.23252
 Alpha virt. eigenvalues --   -0.11447  -0.07035  -0.03128  -0.02292  -0.00802
 Alpha virt. eigenvalues --   -0.00101   0.00894   0.01503   0.01961   0.03291
 Alpha virt. eigenvalues --    0.03581   0.03722   0.03884   0.04031   0.04919
 Alpha virt. eigenvalues --    0.05887   0.06109   0.06268   0.06682   0.07067
 Alpha virt. eigenvalues --    0.08787   0.09015   0.09153   0.09216   0.09658
 Alpha virt. eigenvalues --    0.10406   0.11031   0.11281   0.11875   0.12074
 Alpha virt. eigenvalues --    0.12303   0.12565   0.12770   0.13127   0.13274
 Alpha virt. eigenvalues --    0.13362   0.13675   0.14813   0.14903   0.15094
 Alpha virt. eigenvalues --    0.15656   0.16106   0.16544   0.17123   0.17452
 Alpha virt. eigenvalues --    0.17761   0.17981   0.18697   0.18995   0.19043
 Alpha virt. eigenvalues --    0.19296   0.19315   0.20180   0.20417   0.21488
 Alpha virt. eigenvalues --    0.21880   0.22064   0.22639   0.23043   0.23242
 Alpha virt. eigenvalues --    0.23490   0.23798   0.24080   0.24523   0.24796
 Alpha virt. eigenvalues --    0.25512   0.26435   0.26489   0.26941   0.27176
 Alpha virt. eigenvalues --    0.27383   0.28046   0.28511   0.28982   0.29296
 Alpha virt. eigenvalues --    0.29707   0.29851   0.30487   0.31090   0.31274
 Alpha virt. eigenvalues --    0.31520   0.31996   0.32262   0.32889   0.33516
 Alpha virt. eigenvalues --    0.34010   0.34324   0.35276   0.35653   0.36604
 Alpha virt. eigenvalues --    0.36896   0.37567   0.38619   0.39520   0.40411
 Alpha virt. eigenvalues --    0.41063   0.41510   0.42255   0.45524   0.47191
 Alpha virt. eigenvalues --    0.47750   0.49635   0.51296   0.51928   0.52950
 Alpha virt. eigenvalues --    0.53510   0.53917   0.54282   0.54904   0.55747
 Alpha virt. eigenvalues --    0.56225   0.57561   0.57878   0.58939   0.59217
 Alpha virt. eigenvalues --    0.59457   0.60046   0.61844   0.62474   0.63000
 Alpha virt. eigenvalues --    0.63564   0.64183   0.64766   0.64798   0.65450
 Alpha virt. eigenvalues --    0.65578   0.65880   0.66597   0.67711   0.68240
 Alpha virt. eigenvalues --    0.70910   0.71798   0.71984   0.72129   0.72403
 Alpha virt. eigenvalues --    0.74278   0.75552   0.76792   0.77088   0.77140
 Alpha virt. eigenvalues --    0.78786   0.80571   0.81664   0.82862   0.83525
 Alpha virt. eigenvalues --    0.85162   0.85669   0.86317   0.87236   0.87639
 Alpha virt. eigenvalues --    0.88549   0.88828   0.90225   0.91373   0.91441
 Alpha virt. eigenvalues --    0.91689   0.92122   0.92885   0.93305   0.94836
 Alpha virt. eigenvalues --    0.96885   0.97155   0.97727   0.99169   0.99457
 Alpha virt. eigenvalues --    1.00085   1.00423   1.01151   1.03655   1.04380
 Alpha virt. eigenvalues --    1.04527   1.05866   1.07610   1.08706   1.11162
 Alpha virt. eigenvalues --    1.11690   1.13294   1.13626   1.13936   1.14972
 Alpha virt. eigenvalues --    1.15705   1.17358   1.20910   1.21168   1.22720
 Alpha virt. eigenvalues --    1.23019   1.27333   1.30056   1.31606   1.32015
 Alpha virt. eigenvalues --    1.33529   1.34017   1.38778   1.42008   1.43931
 Alpha virt. eigenvalues --    1.45829   1.46466   1.48552   1.49189   1.49582
 Alpha virt. eigenvalues --    1.50060   1.50662   1.51540   1.51942   1.54165
 Alpha virt. eigenvalues --    1.54833   1.55616   1.56653   1.58713   1.59809
 Alpha virt. eigenvalues --    1.60901   1.62348   1.64057   1.65875   1.66000
 Alpha virt. eigenvalues --    1.68779   1.69591   1.70211   1.70433   1.72111
 Alpha virt. eigenvalues --    1.72403   1.74744   1.74888   1.76921   1.78722
 Alpha virt. eigenvalues --    1.80915   1.83065   1.85934   1.87347   1.88507
 Alpha virt. eigenvalues --    1.89015   1.89406   1.90514   1.90844   1.91659
 Alpha virt. eigenvalues --    1.92367   1.92540   1.93389   1.95419   1.96632
 Alpha virt. eigenvalues --    1.97053   1.98220   1.99896   2.00679   2.03235
 Alpha virt. eigenvalues --    2.05661   2.06818   2.06938   2.07659   2.10567
 Alpha virt. eigenvalues --    2.12758   2.14507   2.14983   2.17142   2.22292
 Alpha virt. eigenvalues --    2.25310   2.25626   2.28780   2.31351   2.33260
 Alpha virt. eigenvalues --    2.35342   2.37248   2.38328   2.41855   2.45898
 Alpha virt. eigenvalues --    2.47091   2.48044   2.53492   2.53790   2.57786
 Alpha virt. eigenvalues --    2.59253   2.60010   2.60447   2.62907   2.64532
 Alpha virt. eigenvalues --    2.64882   2.69078   2.70408   2.71582   2.71861
 Alpha virt. eigenvalues --    2.73552   2.73574   2.74196   2.74839   2.75898
 Alpha virt. eigenvalues --    2.76411   2.77628   2.77726   2.78330   2.80023
 Alpha virt. eigenvalues --    2.82235   2.82926   2.83993   2.85000   2.86057
 Alpha virt. eigenvalues --    2.86492   2.86562   2.87749   2.88352   2.90569
 Alpha virt. eigenvalues --    2.92661   2.93539   2.93930   2.96400   3.00068
 Alpha virt. eigenvalues --    3.01971   3.06829   3.07864   3.08735   3.15298
 Alpha virt. eigenvalues --    3.17852   3.19271   3.21691   3.23145   3.29049
 Alpha virt. eigenvalues --    3.30974   3.32929   3.33836   3.35281   3.35470
 Alpha virt. eigenvalues --    3.39050   3.40090   3.46608   3.51658   3.52684
 Alpha virt. eigenvalues --    3.54205   3.54861   3.56408   3.57958   3.59290
 Alpha virt. eigenvalues --    3.68396   3.78026   3.81231   3.82759   3.86054
 Alpha virt. eigenvalues --    3.95993   4.02827   4.04641   4.07459   4.16766
 Alpha virt. eigenvalues --    4.19986   4.23420   4.26105   4.44169   4.74233
 Alpha virt. eigenvalues --    4.76503   4.82805   4.84859   5.02070   5.04072
 Alpha virt. eigenvalues --    5.05692   5.23930   5.26584   5.72833   5.80772
 Alpha virt. eigenvalues --   23.52015  23.64954  23.86742  23.92089  23.92360
 Alpha virt. eigenvalues --   23.92735  23.94466  23.94960  24.02127  24.05750
 Alpha virt. eigenvalues --   24.08239  24.09428  24.16402  24.17131  35.64561
 Alpha virt. eigenvalues --   50.03341  50.08292
  Beta  occ. eigenvalues --  -19.13134 -19.12272 -14.33851 -10.28285 -10.27591
  Beta  occ. eigenvalues --  -10.24411 -10.20767 -10.20729 -10.20672 -10.19812
  Beta  occ. eigenvalues --  -10.19745 -10.19691 -10.19649 -10.19586 -10.19537
  Beta  occ. eigenvalues --  -10.19216 -10.19153  -1.06594  -1.05734  -0.94397
  Beta  occ. eigenvalues --   -0.88972  -0.87072  -0.80443  -0.77793  -0.77562
  Beta  occ. eigenvalues --   -0.75803  -0.68776  -0.66667  -0.64188  -0.62069
  Beta  occ. eigenvalues --   -0.58716  -0.56586  -0.56123  -0.53103  -0.51153
  Beta  occ. eigenvalues --   -0.49874  -0.48508  -0.47160  -0.45693  -0.45372
  Beta  occ. eigenvalues --   -0.45195  -0.44767  -0.44652  -0.43385  -0.41659
  Beta  occ. eigenvalues --   -0.41294  -0.40487  -0.38162  -0.37762  -0.37398
  Beta  occ. eigenvalues --   -0.36439  -0.33176  -0.28611  -0.28555  -0.27925
  Beta  occ. eigenvalues --   -0.27655  -0.27254  -0.23252
  Beta virt. eigenvalues --   -0.11447  -0.07035  -0.03128  -0.02292  -0.00802
  Beta virt. eigenvalues --   -0.00101   0.00894   0.01503   0.01961   0.03291
  Beta virt. eigenvalues --    0.03581   0.03722   0.03884   0.04031   0.04919
  Beta virt. eigenvalues --    0.05887   0.06109   0.06268   0.06682   0.07067
  Beta virt. eigenvalues --    0.08787   0.09015   0.09153   0.09216   0.09658
  Beta virt. eigenvalues --    0.10406   0.11031   0.11281   0.11875   0.12074
  Beta virt. eigenvalues --    0.12303   0.12565   0.12770   0.13127   0.13274
  Beta virt. eigenvalues --    0.13362   0.13675   0.14813   0.14903   0.15094
  Beta virt. eigenvalues --    0.15656   0.16106   0.16544   0.17123   0.17452
  Beta virt. eigenvalues --    0.17761   0.17981   0.18697   0.18995   0.19043
  Beta virt. eigenvalues --    0.19296   0.19315   0.20180   0.20417   0.21488
  Beta virt. eigenvalues --    0.21880   0.22064   0.22639   0.23043   0.23242
  Beta virt. eigenvalues --    0.23490   0.23798   0.24080   0.24523   0.24796
  Beta virt. eigenvalues --    0.25512   0.26435   0.26489   0.26941   0.27176
  Beta virt. eigenvalues --    0.27383   0.28046   0.28511   0.28982   0.29296
  Beta virt. eigenvalues --    0.29707   0.29851   0.30487   0.31090   0.31274
  Beta virt. eigenvalues --    0.31520   0.31996   0.32262   0.32889   0.33516
  Beta virt. eigenvalues --    0.34010   0.34324   0.35276   0.35653   0.36604
  Beta virt. eigenvalues --    0.36896   0.37567   0.38619   0.39520   0.40411
  Beta virt. eigenvalues --    0.41063   0.41510   0.42255   0.45524   0.47191
  Beta virt. eigenvalues --    0.47750   0.49635   0.51296   0.51928   0.52950
  Beta virt. eigenvalues --    0.53510   0.53917   0.54282   0.54904   0.55747
  Beta virt. eigenvalues --    0.56225   0.57561   0.57878   0.58939   0.59217
  Beta virt. eigenvalues --    0.59457   0.60046   0.61844   0.62474   0.63000
  Beta virt. eigenvalues --    0.63564   0.64183   0.64766   0.64798   0.65450
  Beta virt. eigenvalues --    0.65578   0.65880   0.66597   0.67711   0.68240
  Beta virt. eigenvalues --    0.70910   0.71798   0.71984   0.72129   0.72403
  Beta virt. eigenvalues --    0.74278   0.75552   0.76792   0.77088   0.77140
  Beta virt. eigenvalues --    0.78786   0.80571   0.81664   0.82862   0.83525
  Beta virt. eigenvalues --    0.85162   0.85669   0.86317   0.87236   0.87639
  Beta virt. eigenvalues --    0.88549   0.88828   0.90225   0.91373   0.91441
  Beta virt. eigenvalues --    0.91689   0.92122   0.92885   0.93305   0.94836
  Beta virt. eigenvalues --    0.96885   0.97155   0.97727   0.99169   0.99457
  Beta virt. eigenvalues --    1.00085   1.00423   1.01151   1.03655   1.04380
  Beta virt. eigenvalues --    1.04527   1.05866   1.07610   1.08706   1.11162
  Beta virt. eigenvalues --    1.11690   1.13294   1.13626   1.13936   1.14972
  Beta virt. eigenvalues --    1.15705   1.17358   1.20910   1.21168   1.22720
  Beta virt. eigenvalues --    1.23019   1.27333   1.30056   1.31606   1.32015
  Beta virt. eigenvalues --    1.33529   1.34017   1.38778   1.42008   1.43931
  Beta virt. eigenvalues --    1.45829   1.46466   1.48552   1.49189   1.49582
  Beta virt. eigenvalues --    1.50060   1.50662   1.51540   1.51942   1.54165
  Beta virt. eigenvalues --    1.54833   1.55616   1.56653   1.58713   1.59809
  Beta virt. eigenvalues --    1.60901   1.62348   1.64057   1.65875   1.66000
  Beta virt. eigenvalues --    1.68779   1.69591   1.70211   1.70433   1.72111
  Beta virt. eigenvalues --    1.72403   1.74744   1.74888   1.76921   1.78722
  Beta virt. eigenvalues --    1.80915   1.83065   1.85934   1.87347   1.88507
  Beta virt. eigenvalues --    1.89015   1.89406   1.90514   1.90844   1.91659
  Beta virt. eigenvalues --    1.92367   1.92540   1.93389   1.95419   1.96632
  Beta virt. eigenvalues --    1.97053   1.98220   1.99896   2.00679   2.03235
  Beta virt. eigenvalues --    2.05661   2.06818   2.06938   2.07659   2.10567
  Beta virt. eigenvalues --    2.12758   2.14507   2.14983   2.17142   2.22292
  Beta virt. eigenvalues --    2.25310   2.25626   2.28780   2.31351   2.33260
  Beta virt. eigenvalues --    2.35342   2.37248   2.38328   2.41855   2.45898
  Beta virt. eigenvalues --    2.47091   2.48044   2.53492   2.53790   2.57786
  Beta virt. eigenvalues --    2.59253   2.60010   2.60447   2.62907   2.64532
  Beta virt. eigenvalues --    2.64882   2.69078   2.70408   2.71582   2.71861
  Beta virt. eigenvalues --    2.73552   2.73574   2.74196   2.74839   2.75898
  Beta virt. eigenvalues --    2.76411   2.77628   2.77726   2.78330   2.80023
  Beta virt. eigenvalues --    2.82235   2.82926   2.83993   2.85000   2.86057
  Beta virt. eigenvalues --    2.86492   2.86562   2.87749   2.88352   2.90569
  Beta virt. eigenvalues --    2.92661   2.93539   2.93930   2.96400   3.00068
  Beta virt. eigenvalues --    3.01971   3.06829   3.07864   3.08735   3.15298
  Beta virt. eigenvalues --    3.17852   3.19271   3.21691   3.23145   3.29049
  Beta virt. eigenvalues --    3.30974   3.32929   3.33836   3.35281   3.35470
  Beta virt. eigenvalues --    3.39050   3.40090   3.46608   3.51658   3.52684
  Beta virt. eigenvalues --    3.54205   3.54861   3.56408   3.57958   3.59290
  Beta virt. eigenvalues --    3.68396   3.78026   3.81231   3.82759   3.86054
  Beta virt. eigenvalues --    3.95993   4.02827   4.04641   4.07459   4.16766
  Beta virt. eigenvalues --    4.19986   4.23420   4.26105   4.44169   4.74233
  Beta virt. eigenvalues --    4.76503   4.82805   4.84859   5.02070   5.04072
  Beta virt. eigenvalues --    5.05692   5.23930   5.26584   5.72833   5.80772
  Beta virt. eigenvalues --   23.52015  23.64954  23.86742  23.92089  23.92360
  Beta virt. eigenvalues --   23.92735  23.94466  23.94960  24.02127  24.05750
  Beta virt. eigenvalues --   24.08239  24.09428  24.16402  24.17131  35.64561
  Beta virt. eigenvalues --   50.03341  50.08292
          Condensed to atoms (all electrons):
               1          2          3          4          5          6
     1  N    6.645870  -0.023659  -0.231005   0.030972   0.009297   0.002198
     2  C   -0.023659   9.096481   0.103799   0.183259  -0.269891  -0.658682
     3  C   -0.231005   0.103799   9.259739  -0.423415  -1.431301   1.074491
     4  C    0.030972   0.183259  -0.423415   8.423720   2.311159  -2.469475
     5  C    0.009297  -0.269891  -1.431301   2.311159  13.969100  -1.211413
     6  C    0.002198  -0.658682   1.074491  -2.469475  -1.211413   9.966906
     7  O   -0.000049  -0.008755   0.075891   0.184906  -0.147055   0.641266
     8  C    0.000520  -0.422863   0.334119  -0.121433   1.109773  -0.144450
     9  C    0.000177  -0.072149  -0.040384   0.160618   0.323026  -1.489661
    10  C   -0.000030  -0.003428  -0.002324  -0.079361  -0.040845   0.137156
    11  C   -0.000062  -0.006312   0.008122  -0.033150  -0.200851  -0.165068
    12  C   -0.001559  -0.050584  -0.093554  -0.165692  -1.252153  -0.814366
    13  C   -0.005782   0.262160  -0.016243  -2.069886  -5.522952   0.916317
    14  C   -0.018172   0.325062   0.125016  -0.675499   1.617507   1.210560
    15  O   -0.001452   0.127594   0.008395  -0.040688  -0.323309  -0.004919
    16  C    0.078204  -2.155752  -0.829018  -1.141682  -1.784862   0.851281
    17  C    0.140002   0.411408  -2.219836   1.394589  -1.423288  -1.302423
    18  H    0.362079   0.019044  -0.053973   0.005279  -0.003257  -0.003204
    19  H    0.373282  -0.049413   0.056964   0.003727   0.000249  -0.000946
    20  H   -0.015574  -0.168454   0.557431  -0.061808  -0.015592   0.051823
    21  H   -0.001104   0.023565  -0.148649   0.357420   0.060917   0.000160
    22  H    0.000001  -0.001182   0.000825  -0.014701  -0.052707  -0.000495
    23  H   -0.000000   0.000047  -0.000437   0.001090   0.010288   0.015537
    24  H    0.000003  -0.000415   0.000170  -0.000064  -0.008240  -0.010450
    25  H   -0.000036  -0.003197  -0.000709   0.001286   0.019451  -0.000208
    26  H   -0.012804  -0.189738  -0.046567   0.024853   0.106501  -0.000857
               7          8          9         10         11         12
     1  N   -0.000049   0.000520   0.000177  -0.000030  -0.000062  -0.001559
     2  C   -0.008755  -0.422863  -0.072149  -0.003428  -0.006312  -0.050584
     3  C    0.075891   0.334119  -0.040384  -0.002324   0.008122  -0.093554
     4  C    0.184906  -0.121433   0.160618  -0.079361  -0.033150  -0.165692
     5  C   -0.147055   1.109773   0.323026  -0.040845  -0.200851  -1.252153
     6  C    0.641266  -0.144450  -1.489661   0.137156  -0.165068  -0.814366
     7  O    8.260351  -0.215575   0.187603   0.054616  -0.010834  -0.018635
     8  C   -0.215575  13.816408   0.958929  -0.641375  -0.046846  -1.982381
     9  C    0.187603   0.958929   8.477893   0.352110  -0.442276   1.514528
    10  C    0.054616  -0.641375   0.352110   6.641364   0.350856  -0.387399
    11  C   -0.010834  -0.046846  -0.442276   0.350856   6.397999   0.256747
    12  C   -0.018635  -1.982381   1.514528  -0.387399   0.256747   8.626049
    13  C   -0.346677  -1.989561  -1.995163   0.182279  -0.562001   0.759103
    14  C    0.001862   1.636284  -0.636847  -0.126526   0.326118  -1.731236
    15  O   -0.000014  -0.348640  -0.028231  -0.007552   0.054392   0.176024
    16  C   -0.309845  -4.400824  -1.489228  -0.249186   0.205645   0.556795
    17  C   -0.033082  -1.727365  -0.267511  -0.066319  -0.024563   0.156694
    18  H    0.000008  -0.001305  -0.000293  -0.000027   0.000002  -0.000368
    19  H   -0.000007  -0.000315   0.000249   0.000024  -0.000049   0.000455
    20  H    0.002351   0.016147   0.001990   0.000199   0.000164   0.000136
    21  H   -0.009475  -0.054847  -0.013303  -0.002294  -0.000034   0.000179
    22  H   -0.007475   0.022028   0.348994  -0.101410   0.005909   0.029109
    23  H    0.002485   0.005722  -0.070548   0.453447  -0.047915  -0.004632
    24  H   -0.000336  -0.013578   0.001938  -0.047920   0.457384  -0.078249
    25  H    0.000469   0.084998   0.029188   0.009117  -0.109502   0.352447
    26  H    0.000156   0.016190  -0.003267  -0.001398   0.000657  -0.014983
              13         14         15         16         17         18
     1  N   -0.005782  -0.018172  -0.001452   0.078204   0.140002   0.362079
     2  C    0.262160   0.325062   0.127594  -2.155752   0.411408   0.019044
     3  C   -0.016243   0.125016   0.008395  -0.829018  -2.219836  -0.053973
     4  C   -2.069886  -0.675499  -0.040688  -1.141682   1.394589   0.005279
     5  C   -5.522952   1.617507  -0.323309  -1.784862  -1.423288  -0.003257
     6  C    0.916317   1.210560  -0.004919   0.851281  -1.302423  -0.003204
     7  O   -0.346677   0.001862  -0.000014  -0.309845  -0.033082   0.000008
     8  C   -1.989561   1.636284  -0.348640  -4.400824  -1.727365  -0.001305
     9  C   -1.995163  -0.636847  -0.028231  -1.489228  -0.267511  -0.000293
    10  C    0.182279  -0.126526  -0.007552  -0.249186  -0.066319  -0.000027
    11  C   -0.562001   0.326118   0.054392   0.205645  -0.024563   0.000002
    12  C    0.759103  -1.731236   0.176024   0.556795   0.156694  -0.000368
    13  C   15.175027  -1.032181  -0.115569   1.683379   0.372862  -0.000624
    14  C   -1.032181   8.762164   0.559726  -1.541533  -2.114246  -0.002524
    15  O   -0.115569   0.559726   8.216234  -0.188535   0.202713   0.000129
    16  C    1.683379  -1.541533  -0.188535  13.810675   2.211447  -0.006556
    17  C    0.372862  -2.114246   0.202713   2.211447   9.967022   0.027072
    18  H   -0.000624  -0.002524   0.000129  -0.006556   0.027072   0.403428
    19  H    0.000592   0.005181  -0.000031  -0.006506  -0.033248  -0.032472
    20  H    0.002440   0.001552  -0.000107  -0.007901  -0.064782  -0.004349
    21  H   -0.002941  -0.002460   0.000141   0.073422   0.046521   0.001415
    22  H    0.094005  -0.001036   0.000421   0.013634  -0.000228  -0.000005
    23  H   -0.018280  -0.008100  -0.000281  -0.007388  -0.000123  -0.000000
    24  H    0.006356   0.011283   0.002524   0.009694   0.000838  -0.000000
    25  H    0.004807   0.012175  -0.007983  -0.043918  -0.013488  -0.000011
    26  H   -0.067254   0.025682  -0.005209   0.115401   0.353701   0.003462
              19         20         21         22         23         24
     1  N    0.373282  -0.015574  -0.001104   0.000001  -0.000000   0.000003
     2  C   -0.049413  -0.168454   0.023565  -0.001182   0.000047  -0.000415
     3  C    0.056964   0.557431  -0.148649   0.000825  -0.000437   0.000170
     4  C    0.003727  -0.061808   0.357420  -0.014701   0.001090  -0.000064
     5  C    0.000249  -0.015592   0.060917  -0.052707   0.010288  -0.008240
     6  C   -0.000946   0.051823   0.000160  -0.000495   0.015537  -0.010450
     7  O   -0.000007   0.002351  -0.009475  -0.007475   0.002485  -0.000336
     8  C   -0.000315   0.016147  -0.054847   0.022028   0.005722  -0.013578
     9  C    0.000249   0.001990  -0.013303   0.348994  -0.070548   0.001938
    10  C    0.000024   0.000199  -0.002294  -0.101410   0.453447  -0.047920
    11  C   -0.000049   0.000164  -0.000034   0.005909  -0.047915   0.457384
    12  C    0.000455   0.000136   0.000179   0.029109  -0.004632  -0.078249
    13  C    0.000592   0.002440  -0.002941   0.094005  -0.018280   0.006356
    14  C    0.005181   0.001552  -0.002460  -0.001036  -0.008100   0.011283
    15  O   -0.000031  -0.000107   0.000141   0.000421  -0.000281   0.002524
    16  C   -0.006506  -0.007901   0.073422   0.013634  -0.007388   0.009694
    17  C   -0.033248  -0.064782   0.046521  -0.000228  -0.000123   0.000838
    18  H   -0.032472  -0.004349   0.001415  -0.000005  -0.000000  -0.000000
    19  H    0.397481   0.003133  -0.000536  -0.000002   0.000001   0.000001
    20  H    0.003133   0.515826  -0.021497  -0.000024  -0.000005   0.000002
    21  H   -0.000536  -0.021497   0.504515   0.000154  -0.000072  -0.000013
    22  H   -0.000002  -0.000024   0.000154   0.489881  -0.013222   0.001024
    23  H    0.000001  -0.000005  -0.000072  -0.013222   0.489183  -0.013435
    24  H    0.000001   0.000002  -0.000013   0.001024  -0.013435   0.488613
    25  H   -0.000009  -0.000017  -0.000041   0.000977   0.001033  -0.013174
    26  H   -0.004954  -0.003637   0.003190  -0.000108  -0.000021  -0.000097
              25         26
     1  N   -0.000036  -0.012804
     2  C   -0.003197  -0.189738
     3  C   -0.000709  -0.046567
     4  C    0.001286   0.024853
     5  C    0.019451   0.106501
     6  C   -0.000208  -0.000857
     7  O    0.000469   0.000156
     8  C    0.084998   0.016190
     9  C    0.029188  -0.003267
    10  C    0.009117  -0.001398
    11  C   -0.109502   0.000657
    12  C    0.352447  -0.014983
    13  C    0.004807  -0.067254
    14  C    0.012175   0.025682
    15  O   -0.007983  -0.005209
    16  C   -0.043918   0.115401
    17  C   -0.013488   0.353701
    18  H   -0.000011   0.003462
    19  H   -0.000009  -0.004954
    20  H   -0.000017  -0.003637
    21  H   -0.000041   0.003190
    22  H    0.000977  -0.000108
    23  H    0.001033  -0.000021
    24  H   -0.013174  -0.000097
    25  H    0.491280   0.000546
    26  H    0.000546   0.525344
          Atomic-Atomic Spin Densities.
               1          2          3          4          5          6
     1  N   -0.000000   0.000000   0.000000  -0.000000  -0.000000   0.000000
     2  C    0.000000   0.000000  -0.000000   0.000000   0.000000  -0.000000
     3  C    0.000000  -0.000000   0.000000  -0.000000   0.000000   0.000000
     4  C   -0.000000   0.000000  -0.000000  -0.000000  -0.000000  -0.000000
     5  C   -0.000000   0.000000   0.000000  -0.000000  -0.000000   0.000000
     6  C    0.000000  -0.000000   0.000000  -0.000000   0.000000   0.000000
     7  O    0.000000  -0.000000   0.000000  -0.000000  -0.000000   0.000000
     8  C   -0.000000  -0.000000   0.000000  -0.000000  -0.000000   0.000000
     9  C   -0.000000  -0.000000   0.000000  -0.000000  -0.000000  -0.000000
    10  C    0.000000  -0.000000   0.000000  -0.000000  -0.000000  -0.000000
    11  C    0.000000  -0.000000  -0.000000   0.000000   0.000000  -0.000000
    12  C    0.000000  -0.000000  -0.000000   0.000000   0.000000  -0.000000
    13  C    0.000000  -0.000000  -0.000000   0.000000   0.000000  -0.000000
    14  C    0.000000  -0.000000   0.000000  -0.000000  -0.000000   0.000000
    15  O    0.000000  -0.000000  -0.000000   0.000000   0.000000  -0.000000
    16  C   -0.000000   0.000000  -0.000000   0.000000   0.000000  -0.000000
    17  C   -0.000000   0.000000  -0.000000   0.000000   0.000000  -0.000000
    18  H   -0.000000   0.000000  -0.000000  -0.000000  -0.000000  -0.000000
    19  H    0.000000  -0.000000   0.000000   0.000000   0.000000  -0.000000
    20  H    0.000000  -0.000000   0.000000  -0.000000   0.000000   0.000000
    21  H   -0.000000   0.000000  -0.000000   0.000000   0.000000  -0.000000
    22  H    0.000000  -0.000000   0.000000   0.000000   0.000000   0.000000
    23  H   -0.000000  -0.000000   0.000000  -0.000000  -0.000000  -0.000000
    24  H    0.000000   0.000000  -0.000000   0.000000   0.000000   0.000000
    25  H   -0.000000   0.000000   0.000000  -0.000000  -0.000000  -0.000000
    26  H   -0.000000   0.000000   0.000000  -0.000000  -0.000000   0.000000
               7          8          9         10         11         12
     1  N    0.000000  -0.000000  -0.000000   0.000000   0.000000   0.000000
     2  C   -0.000000  -0.000000  -0.000000  -0.000000  -0.000000  -0.000000
     3  C    0.000000   0.000000   0.000000   0.000000  -0.000000  -0.000000
     4  C   -0.000000  -0.000000  -0.000000  -0.000000   0.000000   0.000000
     5  C   -0.000000  -0.000000  -0.000000  -0.000000   0.000000   0.000000
     6  C    0.000000   0.000000  -0.000000  -0.000000  -0.000000  -0.000000
     7  O   -0.000000   0.000000  -0.000000  -0.000000   0.000000   0.000000
     8  C    0.000000  -0.000000   0.000000   0.000000   0.000000   0.000000
     9  C   -0.000000   0.000000  -0.000000   0.000000  -0.000000  -0.000000
    10  C   -0.000000   0.000000   0.000000  -0.000000   0.000000   0.000000
    11  C    0.000000   0.000000  -0.000000   0.000000   0.000000  -0.000000
    12  C    0.000000   0.000000  -0.000000   0.000000  -0.000000  -0.000000
    13  C    0.000000   0.000000   0.000000   0.000000  -0.000000  -0.000000
    14  C   -0.000000  -0.000000  -0.000000  -0.000000   0.000000   0.000000
    15  O    0.000000   0.000000   0.000000   0.000000   0.000000  -0.000000
    16  C    0.000000   0.000000   0.000000  -0.000000   0.000000  -0.000000
    17  C    0.000000   0.000000  -0.000000  -0.000000   0.000000  -0.000000
    18  H    0.000000   0.000000   0.000000  -0.000000  -0.000000  -0.000000
    19  H   -0.000000  -0.000000  -0.000000  -0.000000   0.000000   0.000000
    20  H    0.000000   0.000000   0.000000   0.000000  -0.000000  -0.000000
    21  H   -0.000000  -0.000000  -0.000000  -0.000000   0.000000   0.000000
    22  H    0.000000   0.000000   0.000000   0.000000  -0.000000  -0.000000
    23  H   -0.000000  -0.000000   0.000000  -0.000000  -0.000000   0.000000
    24  H    0.000000   0.000000  -0.000000   0.000000  -0.000000  -0.000000
    25  H   -0.000000  -0.000000  -0.000000   0.000000   0.000000   0.000000
    26  H   -0.000000  -0.000000  -0.000000  -0.000000   0.000000   0.000000
              13         14         15         16         17         18
     1  N    0.000000   0.000000   0.000000  -0.000000  -0.000000  -0.000000
     2  C   -0.000000  -0.000000  -0.000000   0.000000   0.000000   0.000000
     3  C   -0.000000   0.000000  -0.000000  -0.000000  -0.000000  -0.000000
     4  C    0.000000  -0.000000   0.000000   0.000000   0.000000  -0.000000
     5  C    0.000000  -0.000000   0.000000   0.000000   0.000000  -0.000000
     6  C   -0.000000   0.000000  -0.000000  -0.000000  -0.000000  -0.000000
     7  O    0.000000  -0.000000   0.000000   0.000000   0.000000   0.000000
     8  C    0.000000  -0.000000   0.000000   0.000000   0.000000   0.000000
     9  C    0.000000  -0.000000   0.000000   0.000000  -0.000000   0.000000
    10  C    0.000000  -0.000000   0.000000  -0.000000  -0.000000  -0.000000
    11  C   -0.000000   0.000000   0.000000   0.000000   0.000000  -0.000000
    12  C   -0.000000   0.000000  -0.000000  -0.000000  -0.000000  -0.000000
    13  C   -0.000000   0.000000  -0.000000  -0.000000  -0.000000  -0.000000
    14  C    0.000000  -0.000000   0.000000   0.000000  -0.000000  -0.000000
    15  O   -0.000000   0.000000  -0.000000   0.000000  -0.000000  -0.000000
    16  C   -0.000000   0.000000   0.000000  -0.000000   0.000000   0.000000
    17  C   -0.000000  -0.000000  -0.000000   0.000000   0.000000   0.000000
    18  H   -0.000000  -0.000000  -0.000000   0.000000   0.000000   0.000000
    19  H   -0.000000  -0.000000   0.000000   0.000000   0.000000   0.000000
    20  H   -0.000000   0.000000  -0.000000  -0.000000  -0.000000  -0.000000
    21  H   -0.000000  -0.000000  -0.000000   0.000000   0.000000   0.000000
    22  H   -0.000000   0.000000  -0.000000  -0.000000  -0.000000  -0.000000
    23  H    0.000000  -0.000000   0.000000   0.000000   0.000000  -0.000000
    24  H   -0.000000   0.000000  -0.000000  -0.000000  -0.000000   0.000000
    25  H    0.000000  -0.000000   0.000000   0.000000   0.000000   0.000000
    26  H    0.000000   0.000000   0.000000  -0.000000  -0.000000  -0.000000
              19         20         21         22         23         24
     1  N    0.000000   0.000000  -0.000000   0.000000  -0.000000   0.000000
     2  C   -0.000000  -0.000000   0.000000  -0.000000  -0.000000   0.000000
     3  C    0.000000   0.000000  -0.000000   0.000000   0.000000  -0.000000
     4  C    0.000000  -0.000000   0.000000   0.000000  -0.000000   0.000000
     5  C    0.000000   0.000000   0.000000   0.000000  -0.000000   0.000000
     6  C   -0.000000   0.000000  -0.000000   0.000000  -0.000000   0.000000
     7  O   -0.000000   0.000000  -0.000000   0.000000  -0.000000   0.000000
     8  C   -0.000000   0.000000  -0.000000   0.000000  -0.000000   0.000000
     9  C   -0.000000   0.000000  -0.000000   0.000000   0.000000  -0.000000
    10  C   -0.000000   0.000000  -0.000000   0.000000  -0.000000   0.000000
    11  C    0.000000  -0.000000   0.000000  -0.000000  -0.000000  -0.000000
    12  C    0.000000  -0.000000   0.000000  -0.000000   0.000000  -0.000000
    13  C   -0.000000  -0.000000  -0.000000  -0.000000   0.000000  -0.000000
    14  C   -0.000000   0.000000  -0.000000   0.000000  -0.000000   0.000000
    15  O    0.000000  -0.000000  -0.000000  -0.000000   0.000000  -0.000000
    16  C    0.000000  -0.000000   0.000000  -0.000000   0.000000  -0.000000
    17  C    0.000000  -0.000000   0.000000  -0.000000   0.000000  -0.000000
    18  H    0.000000  -0.000000   0.000000  -0.000000  -0.000000   0.000000
    19  H   -0.000000  -0.000000   0.000000  -0.000000  -0.000000   0.000000
    20  H   -0.000000   0.000000  -0.000000  -0.000000   0.000000  -0.000000
    21  H    0.000000  -0.000000   0.000000  -0.000000  -0.000000  -0.000000
    22  H   -0.000000  -0.000000  -0.000000  -0.000000   0.000000  -0.000000
    23  H   -0.000000   0.000000  -0.000000   0.000000  -0.000000   0.000000
    24  H    0.000000  -0.000000  -0.000000  -0.000000   0.000000  -0.000000
    25  H   -0.000000   0.000000  -0.000000   0.000000  -0.000000   0.000000
    26  H    0.000000   0.000000  -0.000000   0.000000  -0.000000   0.000000
              25         26
     1  N   -0.000000  -0.000000
     2  C    0.000000   0.000000
     3  C    0.000000   0.000000
     4  C   -0.000000  -0.000000
     5  C   -0.000000  -0.000000
     6  C   -0.000000   0.000000
     7  O   -0.000000  -0.000000
     8  C   -0.000000  -0.000000
     9  C   -0.000000  -0.000000
    10  C    0.000000  -0.000000
    11  C    0.000000   0.000000
    12  C    0.000000   0.000000
    13  C    0.000000   0.000000
    14  C   -0.000000   0.000000
    15  O    0.000000   0.000000
    16  C    0.000000  -0.000000
    17  C    0.000000  -0.000000
    18  H    0.000000  -0.000000
    19  H   -0.000000   0.000000
    20  H    0.000000   0.000000
    21  H   -0.000000  -0.000000
    22  H    0.000000   0.000000
    23  H   -0.000000  -0.000000
    24  H    0.000000   0.000000
    25  H   -0.000000  -0.000000
    26  H   -0.000000  -0.000000
 Mulliken charges and spin densities:
               1          2
     1  N   -0.331317  -0.000000
     2  C   -0.467946   0.000000
     3  C   -0.067546  -0.000000
     4  C    0.213975   0.000000
     5  C    0.150447  -0.000000
     6  C   -0.591079   0.000000
     7  O   -0.304151   0.000000
     8  C    0.110238  -0.000000
     9  C    0.191620   0.000000
    10  C   -0.423773  -0.000000
    11  C   -0.414530  -0.000000
    12  C    0.167526   0.000000
    13  C    0.285789   0.000000
    14  C   -0.729812  -0.000000
    15  O   -0.275773   0.000000
    16  C    0.553157  -0.000000
    17  C    0.005631   0.000000
    18  H    0.287049   0.000000
    19  H    0.287149  -0.000000
    20  H    0.210552  -0.000000
    21  H    0.185666  -0.000000
    22  H    0.185633   0.000000
    23  H    0.205627  -0.000000
    24  H    0.206143   0.000000
    25  H    0.184517  -0.000000
    26  H    0.175211   0.000000
 Sum of Mulliken charges =  -0.00000  -0.00000
 Mulliken charges and spin densities with hydrogens summed into heavy atoms:
               1          2
     1  N    0.242881  -0.000000
     2  C   -0.467946   0.000000
     3  C    0.143006  -0.000000
     4  C    0.399640   0.000000
     5  C    0.150447  -0.000000
     6  C   -0.591079   0.000000
     7  O   -0.304151   0.000000
     8  C    0.110238  -0.000000
     9  C    0.377253   0.000000
    10  C   -0.218147  -0.000000
    11  C   -0.208387  -0.000000
    12  C    0.352044   0.000000
    13  C    0.285789   0.000000
    14  C   -0.729812  -0.000000
    15  O   -0.275773   0.000000
    16  C    0.553157  -0.000000
    17  C    0.180842   0.000000
 Electronic spatial extent (au):  <R**2>=           4036.8239
 Charge=              0.0000 electrons
 Dipole moment (field-independent basis, Debye):
    X=              3.1779    Y=             -1.3034    Z=              0.9077  Tot=              3.5527
 Quadrupole moment (field-independent basis, Debye-Ang):
   XX=            -50.4368   YY=           -110.0419   ZZ=           -101.7973
   XY=              0.8415   XZ=              4.9238   YZ=             -1.0007
 Traceless Quadrupole moment (field-independent basis, Debye-Ang):
   XX=             36.9886   YY=            -22.6166   ZZ=            -14.3720
   XY=              0.8415   XZ=              4.9238   YZ=             -1.0007
 Octapole moment (field-independent basis, Debye-Ang**2):
  XXX=             90.6537  YYY=            -16.7633  ZZZ=              0.9089  XYY=             23.1326
  XXY=            -19.4928  XXZ=             25.9569  XZZ=              1.5355  YZZ=             -0.7752
  YYZ=              1.4472  XYZ=             -5.0395
 Hexadecapole moment (field-independent basis, Debye-Ang**3):
 XXXX=          -2785.5905 YYYY=          -1460.3343 ZZZZ=           -114.7287 XXXY=            -63.9246
 XXXZ=            138.6091 YYYX=              3.1637 YYYZ=             -3.2522 ZZZX=              4.6078
 ZZZY=             -0.9550 XXYY=           -735.1220 XXZZ=           -778.5815 YYZZ=           -242.8879
 XXYZ=            -25.2223 YYXZ=              8.3625 ZZXY=             -6.3196
 N-N= 1.086833889837D+03 E-N=-3.908569036299D+03  KE= 7.412821530525D+02
                          Isotropic Fermi Contact Couplings
        Atom                 a.u.       MegaHertz       Gauss      10(-4) cm-1
     1  N(14)              0.00000       0.00000       0.00000       0.00000
     2  C(13)              0.00000       0.00000       0.00000       0.00000
     3  C(13)             -0.00000      -0.00000      -0.00000      -0.00000
     4  C(13)             -0.00000      -0.00000      -0.00000      -0.00000
     5  C(13)              0.00000       0.00000       0.00000       0.00000
     6  C(13)              0.00000       0.00000       0.00000       0.00000
     7  O(17)              0.00000      -0.00000      -0.00000      -0.00000
     8  C(13)              0.00000       0.00000       0.00000       0.00000
     9  C(13)             -0.00000      -0.00000      -0.00000      -0.00000
    10  C(13)             -0.00000      -0.00000      -0.00000      -0.00000
    11  C(13)             -0.00000      -0.00000      -0.00000      -0.00000
    12  C(13)             -0.00000      -0.00000      -0.00000      -0.00000
    13  C(13)              0.00000       0.00000       0.00000       0.00000
    14  C(13)              0.00000       0.00000       0.00000       0.00000
    15  O(17)              0.00000      -0.00000      -0.00000      -0.00000
    16  C(13)             -0.00000      -0.00000      -0.00000      -0.00000
    17  C(13)             -0.00000      -0.00000      -0.00000      -0.00000
    18  H(1)               0.00000       0.00000       0.00000       0.00000
    19  H(1)              -0.00000      -0.00000      -0.00000      -0.00000
    20  H(1)               0.00000       0.00000       0.00000       0.00000
    21  H(1)               0.00000       0.00000       0.00000       0.00000
    22  H(1)              -0.00000      -0.00000      -0.00000      -0.00000
    23  H(1)              -0.00000      -0.00000      -0.00000      -0.00000
    24  H(1)              -0.00000      -0.00000      -0.00000      -0.00000
    25  H(1)              -0.00000      -0.00000      -0.00000      -0.00000
    26  H(1)              -0.00000      -0.00000      -0.00000      -0.00000
 --------------------------------------------------------
       Center         ----  Spin Dipole Couplings  ----
                      3XX-RR        3YY-RR        3ZZ-RR
 --------------------------------------------------------
     1   Atom        0.000000      0.000000     -0.000000
     2   Atom        0.000000     -0.000000     -0.000000
     3   Atom        0.000000      0.000000     -0.000000
     4   Atom        0.000000     -0.000000     -0.000000
     5   Atom        0.000000     -0.000000      0.000000
     6   Atom       -0.000000      0.000000     -0.000000
     7   Atom        0.000000     -0.000000     -0.000000
     8   Atom       -0.000000     -0.000000      0.000000
     9   Atom        0.000000     -0.000000     -0.000000
    10   Atom        0.000000     -0.000000      0.000000
    11   Atom        0.000000     -0.000000     -0.000000
    12   Atom        0.000000      0.000000     -0.000000
    13   Atom        0.000000     -0.000000      0.000000
    14   Atom        0.000000     -0.000000     -0.000000
    15   Atom       -0.000000      0.000000      0.000000
    16   Atom       -0.000000     -0.000000      0.000000
    17   Atom        0.000000     -0.000000      0.000000
    18   Atom        0.000000      0.000000     -0.000000
    19   Atom        0.000000     -0.000000      0.000000
    20   Atom       -0.000000      0.000000     -0.000000
    21   Atom       -0.000000     -0.000000      0.000000
    22   Atom       -0.000000      0.000000     -0.000000
    23   Atom       -0.000000      0.000000      0.000000
    24   Atom       -0.000000     -0.000000      0.000000
    25   Atom       -0.000000      0.000000     -0.000000
    26   Atom       -0.000000     -0.000000      0.000000
 --------------------------------------------------------
                        XY            XZ            YZ
 --------------------------------------------------------
     1   Atom        0.000000     -0.000000      0.000000
     2   Atom        0.000000      0.000000      0.000000
     3   Atom       -0.000000     -0.000000     -0.000000
     4   Atom        0.000000      0.000000     -0.000000
     5   Atom       -0.000000     -0.000000     -0.000000
     6   Atom       -0.000000      0.000000      0.000000
     7   Atom        0.000000      0.000000      0.000000
     8   Atom        0.000000     -0.000000     -0.000000
     9   Atom       -0.000000     -0.000000      0.000000
    10   Atom       -0.000000      0.000000      0.000000
    11   Atom       -0.000000     -0.000000      0.000000
    12   Atom       -0.000000     -0.000000     -0.000000
    13   Atom        0.000000     -0.000000      0.000000
    14   Atom        0.000000     -0.000000      0.000000
    15   Atom       -0.000000      0.000000      0.000000
    16   Atom        0.000000     -0.000000      0.000000
    17   Atom       -0.000000     -0.000000     -0.000000
    18   Atom       -0.000000      0.000000      0.000000
    19   Atom       -0.000000     -0.000000      0.000000
    20   Atom       -0.000000      0.000000      0.000000
    21   Atom        0.000000      0.000000      0.000000
    22   Atom        0.000000     -0.000000      0.000000
    23   Atom       -0.000000      0.000000      0.000000
    24   Atom        0.000000      0.000000      0.000000
    25   Atom        0.000000      0.000000      0.000000
    26   Atom       -0.000000      0.000000      0.000000
 --------------------------------------------------------


 ---------------------------------------------------------------------------------
              Anisotropic Spin Dipole Couplings in Principal Axis System
 ---------------------------------------------------------------------------------

       Atom             a.u.   MegaHertz   Gauss  10(-4) cm-1        Axes

              Baa    -0.0000    -0.000    -0.000    -0.000  0.6139 -0.3679  0.6984
     1 N(14)  Bbb     0.0000     0.000     0.000     0.000  0.0346  0.8964  0.4418
              Bcc     0.0000     0.000     0.000     0.000  0.7886  0.2471 -0.5631
 
              Baa    -0.0000    -0.000    -0.000    -0.000 -0.2182  0.8009 -0.5576
     2 C(13)  Bbb    -0.0000    -0.000    -0.000    -0.000 -0.2459  0.5078  0.8256
              Bcc     0.0000     0.000     0.000     0.000  0.9444  0.3173  0.0861
 
              Baa    -0.0000    -0.000    -0.000    -0.000  0.3100  0.1219  0.9429
     3 C(13)  Bbb     0.0000     0.000     0.000     0.000  0.6823  0.6621 -0.3100
              Bcc     0.0000     0.000     0.000     0.000 -0.6621  0.7394  0.1221
 
              Baa    -0.0000    -0.000    -0.000    -0.000 -0.1236  0.7774  0.6167
     4 C(13)  Bbb    -0.0000    -0.000    -0.000    -0.000 -0.2724 -0.6242  0.7323
              Bcc     0.0000     0.000     0.000     0.000  0.9542 -0.0774  0.2889
 
              Baa    -0.0000    -0.000    -0.000    -0.000  0.0570  0.9802  0.1894
     5 C(13)  Bbb     0.0000     0.000     0.000     0.000  0.0546 -0.1925  0.9798
              Bcc     0.0000     0.000     0.000     0.000  0.9969 -0.0455 -0.0645
 
              Baa    -0.0000    -0.000    -0.000    -0.000  0.6529  0.4619 -0.6004
     6 C(13)  Bbb    -0.0000    -0.000    -0.000    -0.000  0.5056  0.3245  0.7994
              Bcc     0.0000     0.000     0.000     0.000 -0.5640  0.8255  0.0217
 
              Baa    -0.0000     0.000     0.000     0.000 -0.0987 -0.0352  0.9945
     7 O(17)  Bbb    -0.0000     0.000     0.000     0.000 -0.1981  0.9801  0.0151
              Bcc     0.0000    -0.000    -0.000    -0.000  0.9752  0.1955  0.1037
 
              Baa    -0.0000    -0.000    -0.000    -0.000 -0.5279  0.8247  0.2028
     8 C(13)  Bbb    -0.0000    -0.000    -0.000    -0.000  0.8482  0.4997  0.1758
              Bcc     0.0000     0.000     0.000     0.000 -0.0436 -0.2648  0.9633
 
              Baa    -0.0000    -0.000    -0.000    -0.000  0.3354  0.9421 -0.0019
     9 C(13)  Bbb    -0.0000    -0.000    -0.000    -0.000  0.0244 -0.0066  0.9997
              Bcc     0.0000     0.000     0.000     0.000  0.9417 -0.3354 -0.0252
 
              Baa    -0.0000    -0.000    -0.000    -0.000  0.5027  0.8566 -0.1164
    10 C(13)  Bbb     0.0000     0.000     0.000     0.000  0.0815  0.0871  0.9929
              Bcc     0.0000     0.000     0.000     0.000  0.8606 -0.5086 -0.0260
 
              Baa    -0.0000    -0.000    -0.000    -0.000  0.3678  0.9222 -0.1192
    11 C(13)  Bbb    -0.0000    -0.000    -0.000    -0.000  0.1156  0.0819  0.9899
              Bcc     0.0000     0.000     0.000     0.000  0.9227 -0.3779 -0.0765
 
              Baa    -0.0000    -0.000    -0.000    -0.000  0.1362  0.1171  0.9837
    12 C(13)  Bbb    -0.0000    -0.000    -0.000    -0.000  0.7548  0.6309 -0.1796
              Bcc     0.0000     0.000     0.000     0.000 -0.6417  0.7670 -0.0025
 
              Baa    -0.0000    -0.000    -0.000    -0.000 -0.3469  0.9371 -0.0383
    13 C(13)  Bbb     0.0000     0.000     0.000     0.000 -0.0588  0.0191  0.9981
              Bcc     0.0000     0.000     0.000     0.000  0.9361  0.3485  0.0485
 
              Baa    -0.0000    -0.000    -0.000    -0.000 -0.4685  0.8733 -0.1340
    14 C(13)  Bbb    -0.0000    -0.000    -0.000    -0.000 -0.0962  0.1003  0.9903
              Bcc     0.0000     0.000     0.000     0.000  0.8782  0.4768  0.0370
 
              Baa    -0.0000     0.000     0.000     0.000  0.8020  0.4193 -0.4253
    15 O(17)  Bbb     0.0000    -0.000    -0.000    -0.000  0.1007  0.6070  0.7883
              Bcc     0.0000    -0.000    -0.000    -0.000 -0.5887  0.6751 -0.4446
 
              Baa    -0.0000    -0.000    -0.000    -0.000  0.7573 -0.6418  0.1210
    16 C(13)  Bbb     0.0000     0.000     0.000     0.000  0.6096  0.6282 -0.4835
              Bcc     0.0000     0.000     0.000     0.000  0.2343  0.4399  0.8669
 
              Baa    -0.0000    -0.000    -0.000    -0.000  0.0096  0.9983  0.0573
    17 C(13)  Bbb     0.0000     0.000     0.000     0.000  0.9968 -0.0141  0.0793
              Bcc     0.0000     0.000     0.000     0.000 -0.0800 -0.0564  0.9952
 
              Baa    -0.0000    -0.000    -0.000    -0.000 -0.2822 -0.3015  0.9108
    18 H(1)   Bbb     0.0000     0.000     0.000     0.000  0.3851  0.8339  0.3954
              Bcc     0.0000     0.000     0.000     0.000  0.8787 -0.4623  0.1192
 
              Baa    -0.0000    -0.000    -0.000    -0.000  0.1274  0.9904 -0.0543
    19 H(1)   Bbb     0.0000     0.000     0.000     0.000  0.6834 -0.0480  0.7285
              Bcc     0.0000     0.000     0.000     0.000  0.7189 -0.1299 -0.6829
 
              Baa    -0.0000    -0.000    -0.000    -0.000 -0.5401 -0.2570  0.8014
    20 H(1)   Bbb     0.0000     0.000     0.000     0.000  0.8271  0.0142  0.5619
              Bcc     0.0000     0.000     0.000     0.000 -0.1558  0.9663  0.2049
 
              Baa    -0.0000    -0.000    -0.000    -0.000  0.8311 -0.5450  0.1105
    21 H(1)   Bbb    -0.0000    -0.000    -0.000    -0.000  0.5540  0.7938 -0.2510
              Bcc     0.0000     0.000     0.000     0.000  0.0491  0.2699  0.9616
 
              Baa    -0.0000    -0.000    -0.000    -0.000  0.9609 -0.1885  0.2026
    22 H(1)   Bbb    -0.0000    -0.000    -0.000    -0.000 -0.2027  0.0191  0.9791
              Bcc     0.0000     0.000     0.000     0.000  0.1884  0.9819  0.0199
 
              Baa    -0.0000    -0.000    -0.000    -0.000  0.9717  0.2348 -0.0270
    23 H(1)   Bbb     0.0000     0.000     0.000     0.000 -0.2358  0.9708 -0.0436
              Bcc     0.0000     0.000     0.000     0.000  0.0159  0.0487  0.9987
 
              Baa    -0.0000    -0.000    -0.000    -0.000  0.9831 -0.1833 -0.0011
    24 H(1)   Bbb     0.0000     0.000     0.000     0.000  0.1833  0.9830 -0.0127
              Bcc     0.0000     0.000     0.000     0.000  0.0034  0.0123  0.9999
 
              Baa    -0.0000    -0.000    -0.000    -0.000  0.9003 -0.1175 -0.4192
    25 H(1)   Bbb    -0.0000    -0.000    -0.000    -0.000  0.3927 -0.1961  0.8985
              Bcc     0.0000     0.000     0.000     0.000  0.1878  0.9735  0.1305
 
              Baa    -0.0000    -0.000    -0.000    -0.000  0.8647  0.4471 -0.2290
    26 H(1)   Bbb     0.0000     0.000     0.000     0.000 -0.4780  0.8724 -0.1019
              Bcc     0.0000     0.000     0.000     0.000  0.1543  0.1976  0.9681
 

 ---------------------------------------------------------------------------------

 No NMR shielding tensors so no spin-rotation constants.
 Leave Link  601 at Sun Jan 14 01:03:52 2024, MaxMem=  4026531840 cpu:               2.8 elap:               0.4
 (Enter /sysapps/ubuntu-applications/gaussian/Gaussian/AVX2/g16/l9999.exe)
 1\1\GINC-ACIDSGN004\SP\UB3LYP\6-311++G(d,p)\C14H9N1O2\SELHAJJ1\14-Jan-
 2024\0\\#P UB3LYP/6-311++G(d,p) SCRF=(PCM,Solvent=n,n-DiMethylFormamid
 e)\\Quinone PCM in DMF\\0,1\N,0,-4.512357,-0.889323,-0.777449\C,0,-3.2
 6824,-0.640872,-0.232324\C,0,-3.06759,-0.710899,1.161737\C,0,-1.812099
 ,-0.505927,1.70208\C,0,-0.709412,-0.226056,0.883338\C,0,0.61935,-0.011
 99,1.49412\O,0,0.792463,-0.070104,2.70403\C,0,1.759541,0.281583,0.5703
 \C,0,3.03274,0.487464,1.10865\C,0,4.11001,0.762002,0.273777\C,0,3.9252
 46,0.83402,-1.109676\C,0,2.662945,0.631309,-1.654439\C,0,1.573705,0.35
 4222,-0.82185\C,0,0.230318,0.141697,-1.433954\O,0,0.064426,0.208858,-2
 .641452\C,0,-0.906112,-0.156479,-0.509328\C,0,-2.168001,-0.362226,-1.0
 55727\H,0,-5.315455,-0.819208,-0.172827\H,0,-4.676812,-0.593877,-1.726
 832\H,0,-3.908585,-0.930877,1.811465\H,0,-1.656489,-0.557745,2.772812\
 H,0,3.152591,0.427077,2.18329\H,0,5.095289,0.920402,0.697656\H,0,4.766
 621,1.048101,-1.758977\H,0,2.495854,0.682391,-2.723255\H,0,-2.279947,-
 0.303542,-2.132493\\Version=ES64L-G16RevA.03\State=1-A\HF=-744.3487057
 \S2=0.\S2-1=0.\S2A=0.\RMSD=8.940e-09\Dipole=-1.3132212,0.1450263,-0.45
 61727\Quadrupole=27.3882934,-10.5563935,-16.8318998,3.864776,-1.807018
 ,-0.5429738\PG=C01 [X(C14H9N1O2)]\\@


 The theorems and results in mathematical physics are
 not theorems and results about Nature, but about our
 description of it.
                   --Gerard 't Hooft
 Job cpu time:       0 days  0 hours 33 minutes  7.8 seconds.
 Elapsed time:       0 days  0 hours  4 minutes 10.0 seconds.
 File lengths (MBytes):  RWF=    264 Int=      0 D2E=      0 Chk=     15 Scr=      1
 Normal termination of Gaussian 16 at Sun Jan 14 01:03:53 2024.
