 Entering Gaussian System, Link 0=g16
 Input=238.com
 Output=238.log
 Initial command:
 /sysapps/ubuntu-applications/gaussian/Gaussian/AVX2/g16/l1.exe "/scratch/selhajj1/4407428/Gau-4041593.inp" -scrdir="/scratch/selhajj1/4407428/"
 Entering Link 1 = /sysapps/ubuntu-applications/gaussian/Gaussian/AVX2/g16/l1.exe PID=   4041595.
  
 Copyright (c) 1988,1990,1992,1993,1995,1998,2003,2009,2016,
            Gaussian, Inc.  All Rights Reserved.
  
 This is part of the Gaussian(R) 16 program.  It is based on
 the Gaussian(R) 09 system (copyright 2009, Gaussian, Inc.),
 the Gaussian(R) 03 system (copyright 2003, Gaussian, Inc.),
 the Gaussian(R) 98 system (copyright 1998, Gaussian, Inc.),
 the Gaussian(R) 94 system (copyright 1995, Gaussian, Inc.),
 the Gaussian 92(TM) system (copyright 1992, Gaussian, Inc.),
 the Gaussian 90(TM) system (copyright 1990, Gaussian, Inc.),
 the Gaussian 88(TM) system (copyright 1988, Gaussian, Inc.),
 the Gaussian 86(TM) system (copyright 1986, Carnegie Mellon
 University), and the Gaussian 82(TM) system (copyright 1983,
 Carnegie Mellon University). Gaussian is a federally registered
 trademark of Gaussian, Inc.
  
 This software contains proprietary and confidential information,
 including trade secrets, belonging to Gaussian, Inc.
  
 This software is provided under written license and may be
 used, copied, transmitted, or stored only in accord with that
 written license.
  
 The following legend is applicable only to US Government
 contracts under FAR:
  
                    RESTRICTED RIGHTS LEGEND
  
 Use, reproduction and disclosure by the US Government is
 subject to restrictions as set forth in subparagraphs (a)
 and (c) of the Commercial Computer Software - Restricted
 Rights clause in FAR 52.227-19.
  
 Gaussian, Inc.
 340 Quinnipiac St., Bldg. 40, Wallingford CT 06492
  
  
 ---------------------------------------------------------------
 Warning -- This program may not be used in any manner that
 competes with the business of Gaussian, Inc. or will provide
 assistance to any competitor of Gaussian, Inc.  The licensee
 of this program is prohibited from giving any competitor of
 Gaussian, Inc. access to this program.  By using this program,
 the user acknowledges that Gaussian, Inc. is engaged in the
 business of creating and licensing software in the field of
 computational chemistry and represents and warrants to the
 licensee that it is not a competitor of Gaussian, Inc. and that
 it will not use this program in any manner prohibited above.
 ---------------------------------------------------------------
  

 Cite this work as:
 Gaussian 16, Revision A.03,
 M. J. Frisch, G. W. Trucks, H. B. Schlegel, G. E. Scuseria, 
 M. A. Robb, J. R. Cheeseman, G. Scalmani, V. Barone, 
 G. A. Petersson, H. Nakatsuji, X. Li, M. Caricato, A. V. Marenich, 
 J. Bloino, B. G. Janesko, R. Gomperts, B. Mennucci, H. P. Hratchian, 
 J. V. Ortiz, A. F. Izmaylov, J. L. Sonnenberg, D. Williams-Young, 
 F. Ding, F. Lipparini, F. Egidi, J. Goings, B. Peng, A. Petrone, 
 T. Henderson, D. Ranasinghe, V. G. Zakrzewski, J. Gao, N. Rega, 
 G. Zheng, W. Liang, M. Hada, M. Ehara, K. Toyota, R. Fukuda, 
 J. Hasegawa, M. Ishida, T. Nakajima, Y. Honda, O. Kitao, H. Nakai, 
 T. Vreven, K. Throssell, J. A. Montgomery, Jr., J. E. Peralta, 
 F. Ogliaro, M. J. Bearpark, J. J. Heyd, E. N. Brothers, K. N. Kudin, 
 V. N. Staroverov, T. A. Keith, R. Kobayashi, J. Normand, 
 K. Raghavachari, A. P. Rendell, J. C. Burant, S. S. Iyengar, 
 J. Tomasi, M. Cossi, J. M. Millam, M. Klene, C. Adamo, R. Cammi, 
 J. W. Ochterski, R. L. Martin, K. Morokuma, O. Farkas, 
 J. B. Foresman, and D. J. Fox, Gaussian, Inc., Wallingford CT, 2016.
 
 ******************************************
 Gaussian 16:  ES64L-G16RevA.03 25-Dec-2016
                10-Feb-2024 
 ******************************************
 %chk=238.chk
 %nproc=8
 Will use up to    8 processors via shared memory.
 %mem=30GB
 ----------------------------------------------------------------------
 #P UB3LYP/6-311++G(d,p) nosym opt freq SCRF=(PCM,Solvent=n,n-DiMethylF
 ormamide)
 ----------------------------------------------------------------------
 1/18=20,19=15,26=3,38=1/1,3;
 2/9=110,12=2,15=1,17=6,18=5,40=1/2;
 3/5=4,6=6,7=1111,11=2,25=1,30=1,70=2201,71=1,72=148,74=-5,116=2/1,2,3;
 4//1;
 5/5=2,38=5,53=148/2;
 6/7=2,8=2,9=2,10=2,28=1/1;
 7/30=1/1,2,3,16;
 1/18=20,19=15,26=3/3(2);
 2/9=110,15=1/2;
 99//99;
 2/9=110,15=1/2;
 3/5=4,6=6,7=1111,11=2,25=1,30=1,70=2205,71=1,72=148,74=-5,116=2/1,2,3;
 4/5=5,16=3,69=1/1;
 5/5=2,38=5,53=148/2;
 7/30=1/1,2,3,16;
 1/18=20,19=15,26=3/3(-5);
 2/9=110,15=1/2;
 6/7=2,8=2,9=2,10=2,19=2,28=1/1;
 99/9=1/99;
 Leave Link    1 at Sat Feb 10 23:35:02 2024, MaxMem=  4026531840 cpu:               0.7 elap:               0.1
 (Enter /sysapps/ubuntu-applications/gaussian/Gaussian/AVX2/g16/l101.exe)
 --------
 Oxidized
 --------
 Symbolic Z-matrix:
 Charge =  0 Multiplicity = 1
 C                     5.74454  -5.2912    1.37458 
 C                     6.69918  -5.18521   0.37271 
 C                     6.58852  -4.21816  -0.63974 
 C                     4.64568  -4.42761   1.39191 
 C                     4.52107  -3.45493   0.3858 
 C                     5.48914  -3.35949  -0.61621 
 C                     3.62364  -4.54464   2.46833 
 C                     2.48242  -3.59555   2.42559 
 C                     2.36098  -2.66692   1.46732 
 C                     3.35836  -2.51885   0.3782 
 O                     3.70042  -5.37776   3.35745 
 O                     3.21519  -1.66141  -0.47833 
 H                     5.83133  -6.03765   2.15484 
 H                     7.54775  -5.86205   0.37075 
 H                     1.75413  -3.70469   3.22206 
 H                     1.52786  -1.97302   1.43494 
 C                     7.63602  -4.1183   -1.71978 
 H                     5.36436  -2.59861  -1.37809 
 H                     7.71324  -5.05584  -2.27868 
 H                     8.62219  -3.91482  -1.29153 
 H                     7.4043   -3.32122  -2.42766 
 
 ITRead=  0  0  0  0  0  0  0  0  0  0  0  0  0  0  0  0  0  0  0  0
 ITRead=  0
 MicOpt= -1 -1 -1 -1 -1 -1 -1 -1 -1 -1 -1 -1 -1 -1 -1 -1 -1 -1 -1 -1
 MicOpt= -1
 NAtoms=     21 NQM=       21 NQMF=       0 NMMI=      0 NMMIF=      0
                NMic=       0 NMicF=      0.
                    Isotopes and Nuclear Properties:
 (Nuclear quadrupole moments (NQMom) in fm**2, nuclear magnetic moments (NMagM)
  in nuclear magnetons)

  Atom         1           2           3           4           5           6           7           8           9          10
 IAtWgt=          12          12          12          12          12          12          12          12          12          12
 AtmWgt=  12.0000000  12.0000000  12.0000000  12.0000000  12.0000000  12.0000000  12.0000000  12.0000000  12.0000000  12.0000000
 NucSpn=           0           0           0           0           0           0           0           0           0           0
 AtZEff=  -0.0000000  -0.0000000  -0.0000000  -0.0000000  -0.0000000  -0.0000000  -0.0000000  -0.0000000  -0.0000000  -0.0000000
 NQMom=    0.0000000   0.0000000   0.0000000   0.0000000   0.0000000   0.0000000   0.0000000   0.0000000   0.0000000   0.0000000
 NMagM=    0.0000000   0.0000000   0.0000000   0.0000000   0.0000000   0.0000000   0.0000000   0.0000000   0.0000000   0.0000000
 AtZNuc=   6.0000000   6.0000000   6.0000000   6.0000000   6.0000000   6.0000000   6.0000000   6.0000000   6.0000000   6.0000000

  Atom        11          12          13          14          15          16          17          18          19          20
 IAtWgt=          16          16           1           1           1           1          12           1           1           1
 AtmWgt=  15.9949146  15.9949146   1.0078250   1.0078250   1.0078250   1.0078250  12.0000000   1.0078250   1.0078250   1.0078250
 NucSpn=           0           0           1           1           1           1           0           1           1           1
 AtZEff=  -0.0000000  -0.0000000  -0.0000000  -0.0000000  -0.0000000  -0.0000000  -0.0000000  -0.0000000  -0.0000000  -0.0000000
 NQMom=    0.0000000   0.0000000   0.0000000   0.0000000   0.0000000   0.0000000   0.0000000   0.0000000   0.0000000   0.0000000
 NMagM=    0.0000000   0.0000000   2.7928460   2.7928460   2.7928460   2.7928460   0.0000000   2.7928460   2.7928460   2.7928460
 AtZNuc=   8.0000000   8.0000000   1.0000000   1.0000000   1.0000000   1.0000000   6.0000000   1.0000000   1.0000000   1.0000000

  Atom        21
 IAtWgt=           1
 AtmWgt=   1.0078250
 NucSpn=           1
 AtZEff=  -0.0000000
 NQMom=    0.0000000
 NMagM=    2.7928460
 AtZNuc=   1.0000000
 Leave Link  101 at Sat Feb 10 23:35:03 2024, MaxMem=  4026531840 cpu:               6.3 elap:               0.8
 (Enter /sysapps/ubuntu-applications/gaussian/Gaussian/AVX2/g16/l103.exe)

 GradGradGradGradGradGradGradGradGradGradGradGradGradGradGradGradGradGrad
 Berny optimization.
 Initialization pass.
                           ----------------------------
                           !    Initial Parameters    !
                           ! (Angstroms and Degrees)  !
 --------------------------                            --------------------------
 ! Name  Definition              Value          Derivative Info.                !
 --------------------------------------------------------------------------------
 ! R1    R(1,2)                  1.3879         estimate D2E/DX2                !
 ! R2    R(1,4)                  1.3977         estimate D2E/DX2                !
 ! R3    R(1,13)                 1.0833         estimate D2E/DX2                !
 ! R4    R(2,3)                  1.4045         estimate D2E/DX2                !
 ! R5    R(2,14)                 1.0854         estimate D2E/DX2                !
 ! R6    R(3,6)                  1.3952         estimate D2E/DX2                !
 ! R7    R(3,17)                 1.5079         estimate D2E/DX2                !
 ! R8    R(4,5)                  1.405          estimate D2E/DX2                !
 ! R9    R(4,7)                  1.4889         estimate D2E/DX2                !
 ! R10   R(5,6)                  1.3965         estimate D2E/DX2                !
 ! R11   R(5,10)                 1.4927         estimate D2E/DX2                !
 ! R12   R(6,18)                 1.084          estimate D2E/DX2                !
 ! R13   R(7,8)                  1.4849         estimate D2E/DX2                !
 ! R14   R(7,11)                 1.2209         estimate D2E/DX2                !
 ! R15   R(8,9)                  1.3399         estimate D2E/DX2                !
 ! R16   R(8,15)                 1.0847         estimate D2E/DX2                !
 ! R17   R(9,10)                 1.4842         estimate D2E/DX2                !
 ! R18   R(9,16)                 1.0847         estimate D2E/DX2                !
 ! R19   R(10,12)                1.2204         estimate D2E/DX2                !
 ! R20   R(17,19)                1.0942         estimate D2E/DX2                !
 ! R21   R(17,20)                1.0942         estimate D2E/DX2                !
 ! R22   R(17,21)                1.0909         estimate D2E/DX2                !
 ! A1    A(2,1,4)              120.1675         estimate D2E/DX2                !
 ! A2    A(2,1,13)             121.1602         estimate D2E/DX2                !
 ! A3    A(4,1,13)             118.6723         estimate D2E/DX2                !
 ! A4    A(1,2,3)              121.2489         estimate D2E/DX2                !
 ! A5    A(1,2,14)             119.4336         estimate D2E/DX2                !
 ! A6    A(3,2,14)             119.3175         estimate D2E/DX2                !
 ! A7    A(2,3,6)              118.2753         estimate D2E/DX2                !
 ! A8    A(2,3,17)             120.4782         estimate D2E/DX2                !
 ! A9    A(6,3,17)             121.2465         estimate D2E/DX2                !
 ! A10   A(1,4,5)              119.2491         estimate D2E/DX2                !
 ! A11   A(1,4,7)              120.004          estimate D2E/DX2                !
 ! A12   A(5,4,7)              120.747          estimate D2E/DX2                !
 ! A13   A(4,5,6)              119.9766         estimate D2E/DX2                !
 ! A14   A(4,5,10)             120.4563         estimate D2E/DX2                !
 ! A15   A(6,5,10)             119.5671         estimate D2E/DX2                !
 ! A16   A(3,6,5)              121.0827         estimate D2E/DX2                !
 ! A17   A(3,6,18)             120.7221         estimate D2E/DX2                !
 ! A18   A(5,6,18)             118.1951         estimate D2E/DX2                !
 ! A19   A(4,7,8)              117.1616         estimate D2E/DX2                !
 ! A20   A(4,7,11)             122.4771         estimate D2E/DX2                !
 ! A21   A(8,7,11)             120.3613         estimate D2E/DX2                !
 ! A22   A(7,8,9)              122.2218         estimate D2E/DX2                !
 ! A23   A(7,8,15)             115.5024         estimate D2E/DX2                !
 ! A24   A(9,8,15)             122.2758         estimate D2E/DX2                !
 ! A25   A(8,9,10)             122.2109         estimate D2E/DX2                !
 ! A26   A(8,9,16)             122.2966         estimate D2E/DX2                !
 ! A27   A(10,9,16)            115.4925         estimate D2E/DX2                !
 ! A28   A(5,10,9)             117.2024         estimate D2E/DX2                !
 ! A29   A(5,10,12)            122.3809         estimate D2E/DX2                !
 ! A30   A(9,10,12)            120.4167         estimate D2E/DX2                !
 ! A31   A(3,17,19)            110.9857         estimate D2E/DX2                !
 ! A32   A(3,17,20)            110.9822         estimate D2E/DX2                !
 ! A33   A(3,17,21)            111.445          estimate D2E/DX2                !
 ! A34   A(19,17,20)           107.1951         estimate D2E/DX2                !
 ! A35   A(19,17,21)           108.0336         estimate D2E/DX2                !
 ! A36   A(20,17,21)           108.0297         estimate D2E/DX2                !
 ! D1    D(4,1,2,3)              0.003          estimate D2E/DX2                !
 ! D2    D(4,1,2,14)          -179.9982         estimate D2E/DX2                !
 ! D3    D(13,1,2,3)          -179.9991         estimate D2E/DX2                !
 ! D4    D(13,1,2,14)           -0.0003         estimate D2E/DX2                !
 ! D5    D(2,1,4,5)             -0.0024         estimate D2E/DX2                !
 ! D6    D(2,1,4,7)            179.9931         estimate D2E/DX2                !
 ! D7    D(13,1,4,5)           179.9997         estimate D2E/DX2                !
 ! D8    D(13,1,4,7)            -0.0049         estimate D2E/DX2                !
 ! D9    D(1,2,3,6)             -0.0014         estimate D2E/DX2                !
 ! D10   D(1,2,3,17)           179.9916         estimate D2E/DX2                !
 ! D11   D(14,2,3,6)           179.9998         estimate D2E/DX2                !
 ! D12   D(14,2,3,17)           -0.0072         estimate D2E/DX2                !
 ! D13   D(2,3,6,5)             -0.0008         estimate D2E/DX2                !
 ! D14   D(2,3,6,18)          -179.9988         estimate D2E/DX2                !
 ! D15   D(17,3,6,5)          -179.9937         estimate D2E/DX2                !
 ! D16   D(17,3,6,18)            0.0083         estimate D2E/DX2                !
 ! D17   D(2,3,17,19)           59.4532         estimate D2E/DX2                !
 ! D18   D(2,3,17,20)          -59.6391         estimate D2E/DX2                !
 ! D19   D(2,3,17,21)          179.9107         estimate D2E/DX2                !
 ! D20   D(6,3,17,19)         -120.554          estimate D2E/DX2                !
 ! D21   D(6,3,17,20)          120.3536         estimate D2E/DX2                !
 ! D22   D(6,3,17,21)           -0.0966         estimate D2E/DX2                !
 ! D23   D(1,4,5,6)              0.0003         estimate D2E/DX2                !
 ! D24   D(1,4,5,10)           179.9945         estimate D2E/DX2                !
 ! D25   D(7,4,5,6)           -179.9952         estimate D2E/DX2                !
 ! D26   D(7,4,5,10)            -0.0009         estimate D2E/DX2                !
 ! D27   D(1,4,7,8)           -179.9862         estimate D2E/DX2                !
 ! D28   D(1,4,7,11)            -0.0021         estimate D2E/DX2                !
 ! D29   D(5,4,7,8)              0.0092         estimate D2E/DX2                !
 ! D30   D(5,4,7,11)           179.9933         estimate D2E/DX2                !
 ! D31   D(4,5,6,3)              0.0013         estimate D2E/DX2                !
 ! D32   D(4,5,6,18)           179.9994         estimate D2E/DX2                !
 ! D33   D(10,5,6,3)          -179.993          estimate D2E/DX2                !
 ! D34   D(10,5,6,18)            0.0051         estimate D2E/DX2                !
 ! D35   D(4,5,10,9)            -0.0078         estimate D2E/DX2                !
 ! D36   D(4,5,10,12)         -179.9899         estimate D2E/DX2                !
 ! D37   D(6,5,10,9)           179.9865         estimate D2E/DX2                !
 ! D38   D(6,5,10,12)            0.0044         estimate D2E/DX2                !
 ! D39   D(4,7,8,9)             -0.009          estimate D2E/DX2                !
 ! D40   D(4,7,8,15)           179.9917         estimate D2E/DX2                !
 ! D41   D(11,7,8,9)          -179.9934         estimate D2E/DX2                !
 ! D42   D(11,7,8,15)            0.0073         estimate D2E/DX2                !
 ! D43   D(7,8,9,10)             0.0002         estimate D2E/DX2                !
 ! D44   D(7,8,9,16)          -179.9998         estimate D2E/DX2                !
 ! D45   D(15,8,9,10)          179.9994         estimate D2E/DX2                !
 ! D46   D(15,8,9,16)           -0.0006         estimate D2E/DX2                !
 ! D47   D(8,9,10,5)             0.0083         estimate D2E/DX2                !
 ! D48   D(8,9,10,12)          179.9908         estimate D2E/DX2                !
 ! D49   D(16,9,10,5)         -179.9917         estimate D2E/DX2                !
 ! D50   D(16,9,10,12)          -0.0093         estimate D2E/DX2                !
 --------------------------------------------------------------------------------
 Trust Radius=3.00D-01 FncErr=1.00D-07 GrdErr=1.00D-06 EigMax=2.50D+02 EigMin=1.00D-04
 Number of steps in this run=    118 maximum allowed number of steps=    126.
 GradGradGradGradGradGradGradGradGradGradGradGradGradGradGradGradGradGrad

 Leave Link  103 at Sat Feb 10 23:35:03 2024, MaxMem=  4026531840 cpu:               0.2 elap:               0.1
 (Enter /sysapps/ubuntu-applications/gaussian/Gaussian/AVX2/g16/l202.exe)
                          Input orientation:                          
 ---------------------------------------------------------------------
 Center     Atomic      Atomic             Coordinates (Angstroms)
 Number     Number       Type             X           Y           Z
 ---------------------------------------------------------------------
      1          6           0        5.744538   -5.291196    1.374577
      2          6           0        6.699181   -5.185212    0.372711
      3          6           0        6.588523   -4.218162   -0.639738
      4          6           0        4.645677   -4.427611    1.391906
      5          6           0        4.521073   -3.454928    0.385796
      6          6           0        5.489141   -3.359491   -0.616207
      7          6           0        3.623637   -4.544635    2.468326
      8          6           0        2.482419   -3.595545    2.425591
      9          6           0        2.360983   -2.666922    1.467323
     10          6           0        3.358361   -2.518850    0.378200
     11          8           0        3.700418   -5.377759    3.357453
     12          8           0        3.215194   -1.661407   -0.478334
     13          1           0        5.831328   -6.037654    2.154837
     14          1           0        7.547748   -5.862045    0.370746
     15          1           0        1.754132   -3.704687    3.222063
     16          1           0        1.527857   -1.973019    1.434936
     17          6           0        7.636017   -4.118299   -1.719775
     18          1           0        5.364357   -2.598610   -1.378087
     19          1           0        7.713239   -5.055835   -2.278681
     20          1           0        8.622195   -3.914821   -1.291531
     21          1           0        7.404301   -3.321216   -2.427663
 ---------------------------------------------------------------------
                    Distance matrix (angstroms):
                    1          2          3          4          5
     1  C    0.000000
     2  C    1.387916   0.000000
     3  C    2.433347   1.404451   0.000000
     4  C    1.397703   2.414456   2.818882   0.000000
     5  C    2.417940   2.781764   2.430760   1.404954   0.000000
     6  C    2.785666   2.403209   1.395174   2.425867   1.396522
     7  C    2.500372   3.776362   4.307806   1.488939   2.515906
     8  C    3.823779   4.952014   5.161781   2.537819   2.887325
     9  C    4.282973   5.134191   4.971735   2.885401   2.540993
    10  C    3.791109   4.274412   3.789170   2.515582   1.492715
    11  O    2.849161   4.235368   5.065901   2.379006   3.633387
    12  O    4.796481   5.027887   4.235847   3.632625   2.380915
    13  H    1.083299   2.157730   3.419583   2.140110   3.393633
    14  H    2.141287   1.085437   2.154888   3.394464   3.867195
    15  H    4.674779   5.896123   6.208744   3.497589   3.970233
    16  H    5.366036   6.179733   5.912299   3.968334   3.500870
    17  C    3.811613   2.528727   1.507878   4.326704   3.817901
    18  H    3.869330   3.396698   2.160252   3.396264   2.134407
    19  H    4.156618   2.841642   2.157039   4.824708   4.455588
    20  H    4.157337   2.842812   2.157005   4.824571   4.454675
    21  H    4.592675   3.437117   2.160250   4.839754   4.030687
                    6          7          8          9         10
     6  C    0.000000
     7  C    3.794603   0.000000
     8  C    4.283531   1.484916   0.000000
     9  C    3.821796   2.474289   1.339912   0.000000
    10  C    2.497148   2.922807   2.473531   1.484209   0.000000
    11  O    4.802386   1.220876   2.351207   3.565854   4.143225
    12  O    2.841361   4.142781   3.565197   2.350812   1.220392
    13  H    3.868893   2.683520   4.153600   4.886492   4.653384
    14  H    3.387435   4.640480   5.917514   6.189816   5.359848
    15  H    5.366728   2.183731   1.084750   2.127049   3.473804
    16  H    4.671323   3.474679   2.127246   1.084735   2.182972
    17  C    2.530361   5.815595   6.634524   6.331672   5.025741
    18  H    1.083961   4.648872   4.875183   4.137787   2.667382
    19  H    3.253923   6.286513   7.184991   6.956011   5.697392
    20  H    3.252765   6.286396   7.184412   6.954948   5.696024
    21  H    2.636413   6.305623   6.917677   6.405784   4.988616
                   11         12         13         14         15
    11  O    0.000000
    12  O    5.362833   0.000000
    13  H    2.534270   5.738404   0.000000
    14  H    4.894579   6.094040   2.481918   0.000000
    15  H    2.570122   4.472430   4.817181   6.808097   0.000000
    16  H    4.473069   2.569983   5.963168   7.245420   2.498739
    17  C    6.546253   5.207799   4.685450   2.723733   7.693465
    18  H    5.737395   2.511336   4.952438   4.298328   5.951345
    19  H    6.926209   5.915725   4.915449   2.774315   8.221602
    20  H    6.926552   5.913952   4.916585   2.776559   8.221130
    21  H    7.170473   4.909528   5.554510   3.782523   7.999429
                   16         17         18         19         20
    16  H    0.000000
    17  C    7.201670   0.000000
    18  H    4.798249   2.754386   0.000000
    19  H    7.845614   1.094218   3.516571   0.000000
    20  H    7.844351   1.094232   3.514742   1.761414   0.000000
    21  H    7.160300   1.090935   2.405232   1.768203   1.768171
                   21
    21  H    0.000000
 Symmetry turned off by external request.
 Stoichiometry    C11H8O2
 Framework group  C1[X(C11H8O2)]
 Deg. of freedom    57
 Full point group                 C1      NOp   1
 Rotational constants (GHZ):           1.2932637           0.7145130           0.4615516
 Leave Link  202 at Sat Feb 10 23:35:03 2024, MaxMem=  4026531840 cpu:               0.2 elap:               0.0
 (Enter /sysapps/ubuntu-applications/gaussian/Gaussian/AVX2/g16/l301.exe)
 Standard basis: 6-311++G(d,p) (5D, 7F)
 Ernie: Thresh=  0.10000D-02 Tol=  0.10000D-05 Strict=F.
   342 basis functions,   540 primitive gaussians,   355 cartesian basis functions
    45 alpha electrons       45 beta electrons
       nuclear repulsion energy       715.5082928921 Hartrees.
 IExCor=  402 DFT=T Ex+Corr=B3LYP ExCW=0 ScaHFX=  0.200000
 ScaDFX=  0.800000  0.720000  1.000000  0.810000 ScalE2=  1.000000  1.000000
 IRadAn=      5 IRanWt=     -1 IRanGd=            0 ICorTp=0 IEmpDi=  4
 NAtoms=   21 NActive=   21 NUniq=   21 SFac= 1.00D+00 NAtFMM=   60 NAOKFM=F Big=F
 Integral buffers will be    131072 words long.
 Raffenetti 2 integral format.
 Two-electron integral symmetry is turned off.
 ------------------------------------------------------------------------------
 Polarizable Continuum Model (PCM)
 =================================
 Model                : PCM.
 Atomic radii         : UFF (Universal Force Field).
 Polarization charges : Total charges.
 Charge compensation  : None.
 Solution method      : On-the-fly selection.
 Cavity type          : Scaled VdW (van der Waals Surface) (Alpha=1.100).
 Cavity algorithm     : GePol (No added spheres)
                        Default sphere list used, NSphG=   21.
                        Lebedev-Laikov grids with approx.  5.0 points / Ang**2.
                        Smoothing algorithm: York/Karplus (Gamma=1.0000).
                        Polarization charges: spherical gaussians, with
                                              point-specific exponents (IZeta= 3).
                        Self-potential: point-specific (ISelfS= 7).
                        Self-field    : sphere-specific E.n sum rule (ISelfD= 2).
 1st derivatives      : Analytical E(r).r(x)/FMM algorithm (CHGder, D1EAlg=3).
                        Cavity 1st derivative terms included.
 Solvent              : n,n-DiMethylFormamide, Eps=  37.219000 Eps(inf)=   2.046330
 ------------------------------------------------------------------------------
 GePol: Number of generator spheres                  =      21
 GePol: Total number of spheres                      =      21
 GePol: Number of exposed spheres                    =      21 (100.00%)
 GePol: Number of points                             =    1733
 GePol: Average weight of points                     =       0.13
 GePol: Minimum weight of points                     =   0.12D-11
 GePol: Maximum weight of points                     =    0.20577
 GePol: Number of points with low weight             =     116
 GePol: Fraction of low-weight points (<1% of avg)   =       6.69%
 GePol: Cavity surface area                          =    231.019 Ang**2
 GePol: Cavity volume                                =    239.663 Ang**3
 Leave Link  301 at Sat Feb 10 23:35:03 2024, MaxMem=  4026531840 cpu:               1.2 elap:               0.2
 (Enter /sysapps/ubuntu-applications/gaussian/Gaussian/AVX2/g16/l302.exe)
 NPDir=0 NMtPBC=     1 NCelOv=     1 NCel=       1 NClECP=     1 NCelD=      1
         NCelK=      1 NCelE2=     1 NClLst=     1 CellRange=     0.0.
 One-electron integrals computed using PRISM.
 NBasis=   342 RedAO= T EigKep=  1.13D-06  NBF=   342
 NBsUse=   340 1.00D-06 EigRej=  5.45D-07 NBFU=   340
 Precomputing XC quadrature grid using
 IXCGrd= 4 IRadAn=           5 IRanWt=          -1 IRanGd=           0 AccXCQ= 0.00D+00.
 Generated NRdTot=       0 NPtTot=           0 NUsed=           0 NTot=          32
 NSgBfM=   355   355   355   355   355 MxSgAt=    21 MxSgA2=    21.
 Leave Link  302 at Sat Feb 10 23:35:03 2024, MaxMem=  4026531840 cpu:               2.3 elap:               0.3
 (Enter /sysapps/ubuntu-applications/gaussian/Gaussian/AVX2/g16/l303.exe)
 DipDrv:  MaxL=1.
 Leave Link  303 at Sat Feb 10 23:35:03 2024, MaxMem=  4026531840 cpu:               0.7 elap:               0.1
 (Enter /sysapps/ubuntu-applications/gaussian/Gaussian/AVX2/g16/l401.exe)
 ExpMin= 3.60D-02 ExpMax= 8.59D+03 ExpMxC= 1.30D+03 IAcc=3 IRadAn=         5 AccDes= 0.00D+00
 Harris functional with IExCor=  402 and IRadAn=       5 diagonalized for initial guess.
 HarFok:  IExCor=  402 AccDes= 0.00D+00 IRadAn=         5 IDoV= 1 UseB2=F ITyADJ=14
 ICtDFT=  3500011 ScaDFX=  1.000000  1.000000  1.000000  1.000000
 FoFCou: FMM=F IPFlag=           0 FMFlag=      100000 FMFlg1=           0
         NFxFlg=           0 DoJE=T BraDBF=F KetDBF=T FulRan=T
         wScrn=  0.000000 ICntrl=       500 IOpCl=  0 I1Cent=   200000004 NGrid=           0
         NMat0=    1 NMatS0=      1 NMatT0=    0 NMatD0=    1 NMtDS0=    0 NMtDT0=    0
 Symmetry not used in FoFCou.
 Harris En= -574.620830687057    
 JPrj=0 DoOrth=F DoCkMO=F.
 Initial guess <Sx>= 0.0000 <Sy>= 0.0000 <Sz>= 0.0000 <S**2>=-0.0000 S=-0.0000
 Leave Link  401 at Sat Feb 10 23:35:05 2024, MaxMem=  4026531840 cpu:               9.8 elap:               1.3
 (Enter /sysapps/ubuntu-applications/gaussian/Gaussian/AVX2/g16/l502.exe)
 Two-electron integral symmetry not used.
 UHF open shell SCF:
 Using DIIS extrapolation, IDIIS=  1040.
 NGot=  4026531840 LenX=  4026274352 LenY=  4026147886
 Requested convergence on RMS density matrix=1.00D-08 within 128 cycles.
 Requested convergence on MAX density matrix=1.00D-06.
 Requested convergence on             energy=1.00D-06.
 No special actions if energy rises.
 Fock matrices will be formed incrementally for  20 cycles.

 Cycle   1  Pass 1  IDiag  1:
 FoFJK:  IHMeth= 1 ICntrl=       0 DoSepK=F KAlg= 0 I1Cent=           0 FoldK=F
 IRaf= 910000000 NMat=       1 IRICut=       1 DoRegI=T DoRafI=F ISym2E= 0 IDoP0=0 IntGTp=1.
 FoFCou: FMM=F IPFlag=           0 FMFlag=      100000 FMFlg1=           0
         NFxFlg=           0 DoJE=F BraDBF=F KetDBF=F FulRan=T
         wScrn=  0.000000 ICntrl=         0 IOpCl=  1 I1Cent=           0 NGrid=           0
         NMat0=    1 NMatS0=      1 NMatT0=    0 NMatD0=    1 NMtDS0=    0 NMtDT0=    0
 Symmetry not used in FoFCou.
 Inv3:  Mode=1 IEnd=     9009867.
 Iteration    1 A*A^-1 deviation from unit magnitude is 3.22D-15 for    727.
 Iteration    1 A*A^-1 deviation from orthogonality  is 2.37D-15 for   1312    136.
 Iteration    1 A^-1*A deviation from unit magnitude is 3.66D-15 for    727.
 Iteration    1 A^-1*A deviation from orthogonality  is 2.04D-15 for   1384    139.
 E= -574.295016712568    
 DIIS: error= 3.52D-02 at cycle   1 NSaved=   1.
 NSaved= 1 IEnMin= 1 EnMin= -574.295016712568     IErMin= 1 ErrMin= 3.52D-02
 ErrMax= 3.52D-02  0.00D+00 EMaxC= 1.00D-01 BMatC= 1.49D+00 BMatP= 1.49D+00
 IDIUse=3 WtCom= 6.48D-01 WtEn= 3.52D-01
 Coeff-Com:  0.100D+01
 Coeff-En:   0.100D+01
 Coeff:      0.100D+01
 Gap=     0.124 Goal=   None    Shift=    0.000
 Gap=     0.124 Goal=   None    Shift=    0.000
 GapD=    0.124 DampG=1.000 DampE=0.500 DampFc=0.5000 IDamp=-1.
 Damping current iteration by 5.00D-01
 RMSDP=1.67D-02 MaxDP=1.03D+00              OVMax= 2.72D-01

 Cycle   2  Pass 1  IDiag  1:
 RMSU=  8.35D-03    CP:  1.01D+00
 E= -574.397015977596     Delta-E=       -0.101999265029 Rises=F Damp=T
 DIIS: error= 1.73D-02 at cycle   2 NSaved=   2.
 NSaved= 2 IEnMin= 2 EnMin= -574.397015977596     IErMin= 2 ErrMin= 1.73D-02
 ErrMax= 1.73D-02  0.00D+00 EMaxC= 1.00D-01 BMatC= 1.97D-01 BMatP= 1.49D+00
 IDIUse=3 WtCom= 8.27D-01 WtEn= 1.73D-01
 Coeff-Com:  0.167D+00 0.833D+00
 Coeff-En:   0.271D+00 0.729D+00
 Coeff:      0.185D+00 0.815D+00
 Gap=     0.164 Goal=   None    Shift=    0.000
 Gap=     0.164 Goal=   None    Shift=    0.000
 RMSDP=1.05D-02 MaxDP=8.70D-01 DE=-1.02D-01 OVMax= 2.56D-01

 Cycle   3  Pass 1  IDiag  1:
 RMSU=  9.91D-03    CP:  1.02D+00  6.36D-01
 E= -574.549448658885     Delta-E=       -0.152432681289 Rises=F Damp=F
 DIIS: error= 2.26D-02 at cycle   3 NSaved=   3.
 NSaved= 3 IEnMin= 3 EnMin= -574.549448658885     IErMin= 2 ErrMin= 1.73D-02
 ErrMax= 2.26D-02  0.00D+00 EMaxC= 1.00D-01 BMatC= 2.24D-01 BMatP= 1.97D-01
 IDIUse=2 WtCom= 0.00D+00 WtEn= 1.00D+00
 Coeff-En:   0.000D+00 0.000D+00 0.100D+01
 Coeff:      0.000D+00 0.000D+00 0.100D+01
 Gap=     0.158 Goal=   None    Shift=    0.000
 Gap=     0.158 Goal=   None    Shift=    0.000
 RMSDP=1.15D-02 MaxDP=7.97D-01 DE=-1.52D-01 OVMax= 2.23D-01

 Cycle   4  Pass 1  IDiag  1:
 RMSU=  6.81D-03    CP:  1.01D+00  1.44D+00  3.62D-01
 E= -574.344034229540     Delta-E=        0.205414429346 Rises=F Damp=F
 DIIS: error= 5.66D-02 at cycle   4 NSaved=   4.
 NSaved= 4 IEnMin= 3 EnMin= -574.549448658885     IErMin= 2 ErrMin= 1.73D-02
 ErrMax= 5.66D-02  0.00D+00 EMaxC= 1.00D-01 BMatC= 1.28D+00 BMatP= 1.97D-01
 IDIUse=2 WtCom= 0.00D+00 WtEn= 1.00D+00
 Coeff-En:   0.000D+00 0.000D+00 0.788D+00 0.212D+00
 Coeff:      0.000D+00 0.000D+00 0.788D+00 0.212D+00
 Gap=     0.143 Goal=   None    Shift=    0.000
 Gap=     0.143 Goal=   None    Shift=    0.000
 RMSDP=6.36D-03 MaxDP=4.27D-01 DE= 2.05D-01 OVMax= 1.22D-01

 Cycle   5  Pass 1  IDiag  1:
 RMSU=  7.85D-04    CP:  1.00D+00  9.31D-01  6.96D-01  5.23D-01
 E= -574.579020480417     Delta-E=       -0.234986250877 Rises=F Damp=F
 DIIS: error= 1.46D-02 at cycle   5 NSaved=   5.
 NSaved= 5 IEnMin= 5 EnMin= -574.579020480417     IErMin= 5 ErrMin= 1.46D-02
 ErrMax= 1.46D-02  0.00D+00 EMaxC= 1.00D-01 BMatC= 8.68D-02 BMatP= 1.97D-01
 IDIUse=3 WtCom= 8.54D-01 WtEn= 1.46D-01
 Coeff-Com: -0.830D-02 0.365D-01 0.274D+00-0.113D+00 0.811D+00
 Coeff-En:   0.000D+00 0.000D+00 0.321D+00 0.000D+00 0.679D+00
 Coeff:     -0.708D-02 0.311D-01 0.281D+00-0.966D-01 0.792D+00
 Gap=     0.152 Goal=   None    Shift=    0.000
 Gap=     0.152 Goal=   None    Shift=    0.000
 RMSDP=2.30D-03 MaxDP=1.45D-01 DE=-2.35D-01 OVMax= 4.49D-02

 Cycle   6  Pass 1  IDiag  1:
 RMSU=  4.43D-04    CP:  9.91D-01  7.70D-01  7.76D-01  3.09D-01  6.75D-01
 E= -574.596781257220     Delta-E=       -0.017760776803 Rises=F Damp=F
 DIIS: error= 7.23D-04 at cycle   6 NSaved=   6.
 NSaved= 6 IEnMin= 6 EnMin= -574.596781257220     IErMin= 6 ErrMin= 7.23D-04
 ErrMax= 7.23D-04  0.00D+00 EMaxC= 1.00D-01 BMatC= 2.56D-04 BMatP= 8.68D-02
 IDIUse=3 WtCom= 9.93D-01 WtEn= 7.23D-03
 Coeff-Com: -0.537D-02 0.160D-01 0.119D+00-0.560D-01 0.399D+00 0.527D+00
 Coeff-En:   0.000D+00 0.000D+00 0.000D+00 0.000D+00 0.000D+00 0.100D+01
 Coeff:     -0.533D-02 0.159D-01 0.119D+00-0.556D-01 0.396D+00 0.530D+00
 Gap=     0.142 Goal=   None    Shift=    0.000
 Gap=     0.142 Goal=   None    Shift=    0.000
 RMSDP=2.09D-04 MaxDP=2.29D-02 DE=-1.78D-02 OVMax= 3.50D-03

 Cycle   7  Pass 1  IDiag  1:
 RMSU=  8.76D-05    CP:  9.93D-01  7.81D-01  7.77D-01  3.21D-01  7.37D-01
                    CP:  8.72D-01
 E= -574.596834583786     Delta-E=       -0.000053326566 Rises=F Damp=F
 DIIS: error= 1.86D-04 at cycle   7 NSaved=   7.
 NSaved= 7 IEnMin= 7 EnMin= -574.596834583786     IErMin= 7 ErrMin= 1.86D-04
 ErrMax= 1.86D-04  0.00D+00 EMaxC= 1.00D-01 BMatC= 2.23D-05 BMatP= 2.56D-04
 IDIUse=3 WtCom= 9.98D-01 WtEn= 1.86D-03
 Coeff-Com: -0.135D-02 0.220D-02 0.266D-01-0.133D-01 0.971D-01 0.306D+00
 Coeff-Com:  0.583D+00
 Coeff-En:   0.000D+00 0.000D+00 0.000D+00 0.000D+00 0.000D+00 0.883D-01
 Coeff-En:   0.912D+00
 Coeff:     -0.135D-02 0.219D-02 0.265D-01-0.133D-01 0.969D-01 0.306D+00
 Coeff:      0.583D+00
 Gap=     0.142 Goal=   None    Shift=    0.000
 Gap=     0.142 Goal=   None    Shift=    0.000
 RMSDP=3.64D-05 MaxDP=2.05D-03 DE=-5.33D-05 OVMax= 9.69D-04

 Cycle   8  Pass 1  IDiag  1:
 RMSU=  1.45D-05    CP:  9.93D-01  7.79D-01  7.78D-01  3.19D-01  7.26D-01
                    CP:  8.81D-01  7.52D-01
 E= -574.596840177813     Delta-E=       -0.000005594027 Rises=F Damp=F
 DIIS: error= 2.55D-05 at cycle   8 NSaved=   8.
 NSaved= 8 IEnMin= 8 EnMin= -574.596840177813     IErMin= 8 ErrMin= 2.55D-05
 ErrMax= 2.55D-05  0.00D+00 EMaxC= 1.00D-01 BMatC= 9.67D-07 BMatP= 2.23D-05
 IDIUse=1 WtCom= 1.00D+00 WtEn= 0.00D+00
 Coeff-Com: -0.279D-03 0.289D-04 0.720D-02-0.336D-02 0.263D-01 0.126D+00
 Coeff-Com:  0.296D+00 0.548D+00
 Coeff:     -0.279D-03 0.289D-04 0.720D-02-0.336D-02 0.263D-01 0.126D+00
 Coeff:      0.296D+00 0.548D+00
 Gap=     0.142 Goal=   None    Shift=    0.000
 Gap=     0.142 Goal=   None    Shift=    0.000
 RMSDP=9.77D-06 MaxDP=8.95D-04 DE=-5.59D-06 OVMax= 1.51D-04

 Cycle   9  Pass 1  IDiag  1:
 RMSU=  7.74D-06    CP:  9.93D-01  7.79D-01  7.79D-01  3.20D-01  7.25D-01
                    CP:  8.79D-01  7.53D-01  8.34D-01
 E= -574.596840391522     Delta-E=       -0.000000213709 Rises=F Damp=F
 DIIS: error= 9.03D-06 at cycle   9 NSaved=   9.
 NSaved= 9 IEnMin= 9 EnMin= -574.596840391522     IErMin= 9 ErrMin= 9.03D-06
 ErrMax= 9.03D-06  0.00D+00 EMaxC= 1.00D-01 BMatC= 6.96D-08 BMatP= 9.67D-07
 IDIUse=1 WtCom= 1.00D+00 WtEn= 0.00D+00
 Coeff-Com:  0.889D-05-0.149D-03 0.441D-03-0.312D-03 0.210D-02 0.223D-01
 Coeff-Com:  0.646D-01 0.253D+00 0.658D+00
 Coeff:      0.889D-05-0.149D-03 0.441D-03-0.312D-03 0.210D-02 0.223D-01
 Coeff:      0.646D-01 0.253D+00 0.658D+00
 Gap=     0.142 Goal=   None    Shift=    0.000
 Gap=     0.142 Goal=   None    Shift=    0.000
 RMSDP=3.15D-06 MaxDP=2.84D-04 DE=-2.14D-07 OVMax= 5.30D-05

 Cycle  10  Pass 1  IDiag  1:
 RMSU=  2.07D-06    CP:  9.93D-01  7.79D-01  7.79D-01  3.20D-01  7.26D-01
                    CP:  8.80D-01  7.68D-01  8.59D-01  8.32D-01
 E= -574.596840403657     Delta-E=       -0.000000012135 Rises=F Damp=F
 DIIS: error= 6.74D-06 at cycle  10 NSaved=  10.
 NSaved=10 IEnMin=10 EnMin= -574.596840403657     IErMin=10 ErrMin= 6.74D-06
 ErrMax= 6.74D-06  0.00D+00 EMaxC= 1.00D-01 BMatC= 1.99D-08 BMatP= 6.96D-08
 IDIUse=1 WtCom= 1.00D+00 WtEn= 0.00D+00
 Coeff-Com:  0.206D-04-0.801D-04-0.244D-03-0.214D-05-0.415D-03 0.566D-02
 Coeff-Com:  0.209D-01 0.130D+00 0.440D+00 0.404D+00
 Coeff:      0.206D-04-0.801D-04-0.244D-03-0.214D-05-0.415D-03 0.566D-02
 Coeff:      0.209D-01 0.130D+00 0.440D+00 0.404D+00
 Gap=     0.142 Goal=   None    Shift=    0.000
 Gap=     0.142 Goal=   None    Shift=    0.000
 RMSDP=9.27D-07 MaxDP=6.79D-05 DE=-1.21D-08 OVMax= 2.62D-05

 Cycle  11  Pass 1  IDiag  1:
 RMSU=  5.62D-07    CP:  9.93D-01  7.79D-01  7.79D-01  3.20D-01  7.26D-01
                    CP:  8.80D-01  7.68D-01  8.72D-01  8.48D-01  6.96D-01
 E= -574.596840407470     Delta-E=       -0.000000003814 Rises=F Damp=F
 DIIS: error= 9.47D-07 at cycle  11 NSaved=  11.
 NSaved=11 IEnMin=11 EnMin= -574.596840407470     IErMin=11 ErrMin= 9.47D-07
 ErrMax= 9.47D-07  0.00D+00 EMaxC= 1.00D-01 BMatC= 7.93D-10 BMatP= 1.99D-08
 IDIUse=1 WtCom= 1.00D+00 WtEn= 0.00D+00
 Coeff-Com:  0.844D-05-0.185D-04-0.223D-03 0.493D-04-0.580D-03 0.875D-04
 Coeff-Com:  0.212D-02 0.368D-01 0.147D+00 0.205D+00 0.610D+00
 Coeff:      0.844D-05-0.185D-04-0.223D-03 0.493D-04-0.580D-03 0.875D-04
 Coeff:      0.212D-02 0.368D-01 0.147D+00 0.205D+00 0.610D+00
 Gap=     0.142 Goal=   None    Shift=    0.000
 Gap=     0.142 Goal=   None    Shift=    0.000
 RMSDP=3.34D-07 MaxDP=3.39D-05 DE=-3.81D-09 OVMax= 4.01D-06

 Cycle  12  Pass 1  IDiag  1:
 RMSU=  2.10D-07    CP:  9.93D-01  7.79D-01  7.79D-01  3.20D-01  7.26D-01
                    CP:  8.80D-01  7.68D-01  8.78D-01  8.48D-01  6.86D-01
                    CP:  7.79D-01
 E= -574.596840407597     Delta-E=       -0.000000000127 Rises=F Damp=F
 DIIS: error= 3.89D-07 at cycle  12 NSaved=  12.
 NSaved=12 IEnMin=12 EnMin= -574.596840407597     IErMin=12 ErrMin= 3.89D-07
 ErrMax= 3.89D-07  0.00D+00 EMaxC= 1.00D-01 BMatC= 1.18D-10 BMatP= 7.93D-10
 IDIUse=1 WtCom= 1.00D+00 WtEn= 0.00D+00
 Coeff-Com:  0.201D-05-0.404D-05-0.895D-04 0.297D-04-0.258D-03-0.325D-03
 Coeff-Com: -0.859D-03 0.752D-02 0.370D-01 0.726D-01 0.335D+00 0.549D+00
 Coeff:      0.201D-05-0.404D-05-0.895D-04 0.297D-04-0.258D-03-0.325D-03
 Coeff:     -0.859D-03 0.752D-02 0.370D-01 0.726D-01 0.335D+00 0.549D+00
 Gap=     0.142 Goal=   None    Shift=    0.000
 Gap=     0.142 Goal=   None    Shift=    0.000
 RMSDP=1.29D-07 MaxDP=1.73D-05 DE=-1.27D-10 OVMax= 2.20D-06

 Cycle  13  Pass 1  IDiag  1:
 RMSU=  7.31D-08    CP:  9.93D-01  7.79D-01  7.79D-01  3.20D-01  7.26D-01
                    CP:  8.80D-01  7.68D-01  8.80D-01  8.48D-01  6.99D-01
                    CP:  8.14D-01  7.64D-01
 E= -574.596840407632     Delta-E=       -0.000000000035 Rises=F Damp=F
 DIIS: error= 1.19D-07 at cycle  13 NSaved=  13.
 NSaved=13 IEnMin=13 EnMin= -574.596840407632     IErMin=13 ErrMin= 1.19D-07
 ErrMax= 1.19D-07  0.00D+00 EMaxC= 1.00D-01 BMatC= 1.26D-11 BMatP= 1.18D-10
 IDIUse=1 WtCom= 1.00D+00 WtEn= 0.00D+00
 Coeff-Com: -0.232D-06-0.166D-06-0.210D-04 0.103D-04-0.653D-04-0.129D-03
 Coeff-Com: -0.703D-03 0.159D-04 0.398D-02 0.164D-01 0.111D+00 0.295D+00
 Coeff-Com:  0.575D+00
 Coeff:     -0.232D-06-0.166D-06-0.210D-04 0.103D-04-0.653D-04-0.129D-03
 Coeff:     -0.703D-03 0.159D-04 0.398D-02 0.164D-01 0.111D+00 0.295D+00
 Coeff:      0.575D+00
 Gap=     0.142 Goal=   None    Shift=    0.000
 Gap=     0.142 Goal=   None    Shift=    0.000
 RMSDP=3.84D-08 MaxDP=4.44D-06 DE=-3.54D-11 OVMax= 8.23D-07

 Cycle  14  Pass 1  IDiag  1:
 RMSU=  1.80D-08    CP:  9.93D-01  7.79D-01  7.79D-01  3.20D-01  7.26D-01
                    CP:  8.80D-01  7.68D-01  8.79D-01  8.49D-01  7.03D-01
                    CP:  8.15D-01  8.11D-01  7.86D-01
 E= -574.596840407644     Delta-E=       -0.000000000012 Rises=F Damp=F
 DIIS: error= 3.46D-08 at cycle  14 NSaved=  14.
 NSaved=14 IEnMin=14 EnMin= -574.596840407644     IErMin=14 ErrMin= 3.46D-08
 ErrMax= 3.46D-08  0.00D+00 EMaxC= 1.00D-01 BMatC= 1.12D-12 BMatP= 1.26D-11
 IDIUse=1 WtCom= 1.00D+00 WtEn= 0.00D+00
 Coeff-Com: -0.462D-06 0.987D-06-0.267D-05 0.157D-05-0.713D-05-0.383D-04
 Coeff-Com: -0.274D-03-0.890D-03-0.220D-02-0.699D-03 0.988D-02 0.680D-01
 Coeff-Com:  0.274D+00 0.652D+00
 Coeff:     -0.462D-06 0.987D-06-0.267D-05 0.157D-05-0.713D-05-0.383D-04
 Coeff:     -0.274D-03-0.890D-03-0.220D-02-0.699D-03 0.988D-02 0.680D-01
 Coeff:      0.274D+00 0.652D+00
 Gap=     0.142 Goal=   None    Shift=    0.000
 Gap=     0.142 Goal=   None    Shift=    0.000
 RMSDP=9.59D-09 MaxDP=8.12D-07 DE=-1.17D-11 OVMax= 2.16D-07

 Error on total polarization charges =  0.01488
 SCF Done:  E(UB3LYP) =  -574.596840408     A.U. after   14 cycles
            NFock= 14  Conv=0.96D-08     -V/T= 2.0042
 <Sx>= 0.0000 <Sy>= 0.0000 <Sz>= 0.0000 <S**2>=-0.0000 S=-0.0000
 <L.S>=  0.00000000000    
 KE= 5.722197218655D+02 PE=-2.769905004929D+03 EE= 9.075801497643D+02
 Annihilation of the first spin contaminant:
 S**2 before annihilation    -0.0000,   after    -0.0000
 Leave Link  502 at Sat Feb 10 23:36:26 2024, MaxMem=  4026531840 cpu:             640.6 elap:              81.5
 (Enter /sysapps/ubuntu-applications/gaussian/Gaussian/AVX2/g16/l601.exe)
 Copying SCF densities to generalized density rwf, IOpCl= 1 IROHF=0.

 **********************************************************************

            Population analysis using the SCF density.

 **********************************************************************

 Alpha  occ. eigenvalues --  -19.13977 -19.13846 -10.28754 -10.28652 -10.21429
 Alpha  occ. eigenvalues --  -10.21346 -10.20954 -10.20949 -10.20710 -10.19911
 Alpha  occ. eigenvalues --  -10.19627 -10.19603 -10.17500  -1.07210  -1.06994
 Alpha  occ. eigenvalues --   -0.89360  -0.84498  -0.79556  -0.77902  -0.71904
 Alpha  occ. eigenvalues --   -0.69552  -0.64995  -0.62613  -0.59338  -0.54172
 Alpha  occ. eigenvalues --   -0.52574  -0.51194  -0.48019  -0.46534  -0.46294
 Alpha  occ. eigenvalues --   -0.45601  -0.45125  -0.43258  -0.43049  -0.42513
 Alpha  occ. eigenvalues --   -0.42236  -0.39700  -0.37775  -0.37126  -0.36599
 Alpha  occ. eigenvalues --   -0.31211  -0.29187  -0.28082  -0.28055  -0.27186
 Alpha virt. eigenvalues --   -0.12993  -0.05654  -0.03665  -0.00593   0.00440
 Alpha virt. eigenvalues --    0.01086   0.02102   0.02202   0.02709   0.03146
 Alpha virt. eigenvalues --    0.03951   0.04697   0.05113   0.05852   0.06050
 Alpha virt. eigenvalues --    0.06668   0.07449   0.08150   0.08866   0.08882
 Alpha virt. eigenvalues --    0.09877   0.10671   0.11021   0.11066   0.11559
 Alpha virt. eigenvalues --    0.11915   0.12316   0.12427   0.12721   0.13084
 Alpha virt. eigenvalues --    0.13506   0.13824   0.13837   0.14605   0.15378
 Alpha virt. eigenvalues --    0.16232   0.16735   0.16866   0.17649   0.17816
 Alpha virt. eigenvalues --    0.18419   0.18761   0.19258   0.19355   0.19866
 Alpha virt. eigenvalues --    0.20754   0.21139   0.21615   0.21905   0.22614
 Alpha virt. eigenvalues --    0.23109   0.23936   0.24046   0.24736   0.25591
 Alpha virt. eigenvalues --    0.25789   0.26255   0.26885   0.27602   0.28422
 Alpha virt. eigenvalues --    0.28480   0.28534   0.29933   0.30179   0.30348
 Alpha virt. eigenvalues --    0.30603   0.30925   0.32116   0.32451   0.32789
 Alpha virt. eigenvalues --    0.33491   0.34218   0.35356   0.36145   0.36553
 Alpha virt. eigenvalues --    0.37196   0.38269   0.38986   0.41052   0.41408
 Alpha virt. eigenvalues --    0.42347   0.45321   0.46635   0.48452   0.49764
 Alpha virt. eigenvalues --    0.51100   0.51480   0.52281   0.53682   0.54306
 Alpha virt. eigenvalues --    0.56426   0.57101   0.57960   0.59029   0.59111
 Alpha virt. eigenvalues --    0.59973   0.60776   0.61194   0.61428   0.62452
 Alpha virt. eigenvalues --    0.63037   0.64791   0.65249   0.65315   0.66004
 Alpha virt. eigenvalues --    0.67119   0.68632   0.69198   0.69851   0.72794
 Alpha virt. eigenvalues --    0.73178   0.73786   0.75641   0.76722   0.77844
 Alpha virt. eigenvalues --    0.80792   0.81880   0.83642   0.84988   0.86104
 Alpha virt. eigenvalues --    0.87490   0.88059   0.88903   0.91079   0.91559
 Alpha virt. eigenvalues --    0.91722   0.92570   0.93918   0.95126   0.95815
 Alpha virt. eigenvalues --    0.97381   0.98366   1.00104   1.00859   1.02545
 Alpha virt. eigenvalues --    1.02918   1.04806   1.06175   1.07588   1.09890
 Alpha virt. eigenvalues --    1.10147   1.10635   1.10987   1.12869   1.15950
 Alpha virt. eigenvalues --    1.18844   1.21358   1.21927   1.22023   1.28592
 Alpha virt. eigenvalues --    1.29110   1.30364   1.35014   1.35857   1.37143
 Alpha virt. eigenvalues --    1.40479   1.45228   1.45575   1.47030   1.47420
 Alpha virt. eigenvalues --    1.49080   1.50711   1.51549   1.51904   1.54875
 Alpha virt. eigenvalues --    1.55371   1.57107   1.59412   1.60513   1.63020
 Alpha virt. eigenvalues --    1.64700   1.65058   1.66885   1.67888   1.71257
 Alpha virt. eigenvalues --    1.72092   1.73528   1.74102   1.75188   1.76592
 Alpha virt. eigenvalues --    1.77732   1.79968   1.81175   1.83828   1.85692
 Alpha virt. eigenvalues --    1.87736   1.90779   1.90928   1.92056   1.95505
 Alpha virt. eigenvalues --    1.95709   1.95807   1.98146   2.00928   2.01507
 Alpha virt. eigenvalues --    2.01834   2.05024   2.07653   2.09491   2.10389
 Alpha virt. eigenvalues --    2.11734   2.18472   2.21719   2.22221   2.23640
 Alpha virt. eigenvalues --    2.26009   2.29702   2.32176   2.36760   2.38750
 Alpha virt. eigenvalues --    2.43034   2.46663   2.47885   2.51788   2.53458
 Alpha virt. eigenvalues --    2.53577   2.57283   2.57480   2.58855   2.64073
 Alpha virt. eigenvalues --    2.65975   2.67294   2.68853   2.69676   2.71382
 Alpha virt. eigenvalues --    2.71479   2.72276   2.73295   2.74678   2.75970
 Alpha virt. eigenvalues --    2.76858   2.79056   2.79284   2.82825   2.84952
 Alpha virt. eigenvalues --    2.86806   2.89466   2.89598   2.92648   2.93044
 Alpha virt. eigenvalues --    2.93279   2.95775   2.99755   3.00002   3.05299
 Alpha virt. eigenvalues --    3.08355   3.14157   3.17632   3.18755   3.21404
 Alpha virt. eigenvalues --    3.24232   3.31818   3.34212   3.34435   3.35503
 Alpha virt. eigenvalues --    3.42803   3.46233   3.51584   3.54209   3.57357
 Alpha virt. eigenvalues --    3.61862   3.62820   3.67663   3.75853   3.78975
 Alpha virt. eigenvalues --    3.79448   3.83531   4.02936   4.04795   4.09474
 Alpha virt. eigenvalues --    4.17697   4.21262   4.27028   4.37844   4.68743
 Alpha virt. eigenvalues --    4.84122   5.02371   5.04208   5.20331   5.22931
 Alpha virt. eigenvalues --    5.70239   5.78339  23.54717  23.72906  23.84587
 Alpha virt. eigenvalues --   23.90186  23.91286  23.93891  23.97466  24.03836
 Alpha virt. eigenvalues --   24.08307  24.16061  24.22019  49.99652  50.04173
  Beta  occ. eigenvalues --  -19.13977 -19.13846 -10.28754 -10.28652 -10.21429
  Beta  occ. eigenvalues --  -10.21346 -10.20954 -10.20949 -10.20710 -10.19911
  Beta  occ. eigenvalues --  -10.19627 -10.19603 -10.17500  -1.07210  -1.06994
  Beta  occ. eigenvalues --   -0.89360  -0.84498  -0.79556  -0.77902  -0.71904
  Beta  occ. eigenvalues --   -0.69552  -0.64995  -0.62613  -0.59338  -0.54172
  Beta  occ. eigenvalues --   -0.52574  -0.51194  -0.48019  -0.46534  -0.46294
  Beta  occ. eigenvalues --   -0.45601  -0.45125  -0.43258  -0.43049  -0.42513
  Beta  occ. eigenvalues --   -0.42236  -0.39700  -0.37775  -0.37126  -0.36599
  Beta  occ. eigenvalues --   -0.31211  -0.29187  -0.28082  -0.28055  -0.27186
  Beta virt. eigenvalues --   -0.12993  -0.05654  -0.03665  -0.00593   0.00440
  Beta virt. eigenvalues --    0.01086   0.02102   0.02202   0.02709   0.03146
  Beta virt. eigenvalues --    0.03951   0.04697   0.05113   0.05852   0.06050
  Beta virt. eigenvalues --    0.06668   0.07449   0.08150   0.08866   0.08882
  Beta virt. eigenvalues --    0.09877   0.10671   0.11021   0.11066   0.11559
  Beta virt. eigenvalues --    0.11915   0.12316   0.12427   0.12721   0.13084
  Beta virt. eigenvalues --    0.13506   0.13824   0.13837   0.14605   0.15378
  Beta virt. eigenvalues --    0.16232   0.16735   0.16866   0.17649   0.17816
  Beta virt. eigenvalues --    0.18419   0.18761   0.19258   0.19355   0.19866
  Beta virt. eigenvalues --    0.20754   0.21139   0.21615   0.21905   0.22614
  Beta virt. eigenvalues --    0.23109   0.23936   0.24046   0.24736   0.25591
  Beta virt. eigenvalues --    0.25789   0.26255   0.26885   0.27602   0.28422
  Beta virt. eigenvalues --    0.28480   0.28534   0.29933   0.30179   0.30348
  Beta virt. eigenvalues --    0.30603   0.30925   0.32116   0.32451   0.32789
  Beta virt. eigenvalues --    0.33491   0.34218   0.35356   0.36145   0.36553
  Beta virt. eigenvalues --    0.37196   0.38269   0.38986   0.41052   0.41408
  Beta virt. eigenvalues --    0.42347   0.45321   0.46635   0.48452   0.49764
  Beta virt. eigenvalues --    0.51100   0.51480   0.52281   0.53682   0.54306
  Beta virt. eigenvalues --    0.56426   0.57101   0.57960   0.59029   0.59111
  Beta virt. eigenvalues --    0.59973   0.60776   0.61194   0.61428   0.62452
  Beta virt. eigenvalues --    0.63037   0.64791   0.65249   0.65315   0.66004
  Beta virt. eigenvalues --    0.67119   0.68632   0.69198   0.69851   0.72794
  Beta virt. eigenvalues --    0.73178   0.73786   0.75641   0.76722   0.77844
  Beta virt. eigenvalues --    0.80792   0.81880   0.83642   0.84988   0.86104
  Beta virt. eigenvalues --    0.87490   0.88059   0.88903   0.91079   0.91559
  Beta virt. eigenvalues --    0.91722   0.92570   0.93918   0.95126   0.95815
  Beta virt. eigenvalues --    0.97381   0.98366   1.00104   1.00859   1.02545
  Beta virt. eigenvalues --    1.02918   1.04806   1.06175   1.07588   1.09890
  Beta virt. eigenvalues --    1.10147   1.10635   1.10987   1.12869   1.15950
  Beta virt. eigenvalues --    1.18844   1.21358   1.21927   1.22023   1.28592
  Beta virt. eigenvalues --    1.29110   1.30364   1.35014   1.35857   1.37143
  Beta virt. eigenvalues --    1.40479   1.45228   1.45575   1.47030   1.47420
  Beta virt. eigenvalues --    1.49080   1.50711   1.51549   1.51904   1.54875
  Beta virt. eigenvalues --    1.55371   1.57107   1.59412   1.60513   1.63020
  Beta virt. eigenvalues --    1.64700   1.65058   1.66885   1.67888   1.71257
  Beta virt. eigenvalues --    1.72092   1.73528   1.74102   1.75188   1.76592
  Beta virt. eigenvalues --    1.77732   1.79968   1.81175   1.83828   1.85692
  Beta virt. eigenvalues --    1.87736   1.90779   1.90928   1.92056   1.95505
  Beta virt. eigenvalues --    1.95709   1.95807   1.98146   2.00928   2.01507
  Beta virt. eigenvalues --    2.01834   2.05024   2.07653   2.09491   2.10389
  Beta virt. eigenvalues --    2.11734   2.18472   2.21719   2.22221   2.23640
  Beta virt. eigenvalues --    2.26009   2.29702   2.32176   2.36760   2.38750
  Beta virt. eigenvalues --    2.43034   2.46663   2.47885   2.51788   2.53458
  Beta virt. eigenvalues --    2.53577   2.57283   2.57480   2.58855   2.64073
  Beta virt. eigenvalues --    2.65975   2.67294   2.68853   2.69676   2.71382
  Beta virt. eigenvalues --    2.71479   2.72276   2.73295   2.74678   2.75970
  Beta virt. eigenvalues --    2.76858   2.79056   2.79284   2.82825   2.84952
  Beta virt. eigenvalues --    2.86806   2.89466   2.89598   2.92648   2.93044
  Beta virt. eigenvalues --    2.93279   2.95775   2.99755   3.00002   3.05299
  Beta virt. eigenvalues --    3.08355   3.14157   3.17632   3.18755   3.21404
  Beta virt. eigenvalues --    3.24232   3.31818   3.34212   3.34435   3.35503
  Beta virt. eigenvalues --    3.42803   3.46233   3.51584   3.54209   3.57357
  Beta virt. eigenvalues --    3.61862   3.62820   3.67663   3.75853   3.78975
  Beta virt. eigenvalues --    3.79448   3.83531   4.02936   4.04795   4.09474
  Beta virt. eigenvalues --    4.17697   4.21262   4.27028   4.37844   4.68743
  Beta virt. eigenvalues --    4.84122   5.02371   5.04208   5.20331   5.22931
  Beta virt. eigenvalues --    5.70239   5.78339  23.54717  23.72906  23.84587
  Beta virt. eigenvalues --   23.90186  23.91286  23.93891  23.97466  24.03836
  Beta virt. eigenvalues --   24.08307  24.16061  24.22019  49.99652  50.04173
          Condensed to atoms (all electrons):
               1          2          3          4          5          6
     1  C   11.639005  -0.636098  -0.488351  -4.243729  -3.992276   3.339785
     2  C   -0.636098   9.135738  -0.382552   1.216240  -1.002611  -2.322458
     3  C   -0.488351  -0.382552   9.355510  -1.768213   0.422475  -0.196101
     4  C   -4.243729   1.216240  -1.768213  27.437479  -7.007785  -4.332399
     5  C   -3.992276  -1.002611   0.422475  -7.007785  25.289900  -1.434611
     6  C    3.339785  -2.322458  -0.196101  -4.332399  -1.434611  11.326418
     7  C   -1.582112   0.189070   0.345962  -5.984012   2.936456  -0.448511
     8  C    0.216297  -0.172984  -0.141691   1.028250  -1.541517  -0.093334
     9  C   -0.602950   0.284116   0.238928  -2.351949   0.122427  -0.344902
    10  C    1.514925   0.642777  -1.106245   2.263595  -7.643762  -0.354057
    11  O    0.174186   0.047499  -0.014379   0.127807  -0.423696  -0.004352
    12  O   -0.018255  -0.001691   0.116252  -0.423736   0.145933   0.133542
    13  H    0.273000  -0.081928   0.012083   0.059353   0.135833  -0.017468
    14  H   -0.017363   0.411403  -0.054164  -0.004653  -0.051863   0.025274
    15  H   -0.016268   0.001975  -0.002091  -0.027198   0.040264  -0.016991
    16  H   -0.013910   0.005255   0.001975   0.018463  -0.046970  -0.011337
    17  C    0.261773  -1.056126  -0.569852  -0.385194  -0.223172   0.691453
    18  H   -0.048091   0.072648  -0.190719   0.276479   0.227603   0.200806
    19  H   -0.008527   0.039587   0.025765   0.009850  -0.010775  -0.066821
    20  H   -0.008756   0.039006   0.027381   0.009888  -0.010764  -0.066879
    21  H    0.016715  -0.050057  -0.106584  -0.049891  -0.031201   0.135743
               7          8          9         10         11         12
     1  C   -1.582112   0.216297  -0.602950   1.514925   0.174186  -0.018255
     2  C    0.189070  -0.172984   0.284116   0.642777   0.047499  -0.001691
     3  C    0.345962  -0.141691   0.238928  -1.106245  -0.014379   0.116252
     4  C   -5.984012   1.028250  -2.351949   2.263595   0.127807  -0.423736
     5  C    2.936456  -1.541517   0.122427  -7.643762  -0.423696   0.145933
     6  C   -0.448511  -0.093334  -0.344902  -0.354057  -0.004352   0.133542
     7  C   12.346033  -2.129350   1.419070  -0.405283   0.305861   0.021268
     8  C   -2.129350   9.177000  -1.242140   0.348768  -0.097638  -0.041880
     9  C    1.419070  -1.242140   9.479440  -1.247359  -0.063073  -0.100668
    10  C   -0.405283   0.348768  -1.247359  12.267040   0.049209   0.287421
    11  O    0.305861  -0.097638  -0.063073   0.049209   8.214268   0.000172
    12  O    0.021268  -0.041880  -0.100668   0.287421   0.000172   8.190921
    13  H    0.017656  -0.031657   0.016224  -0.034607  -0.014098   0.000662
    14  H   -0.002992   0.011335  -0.001873   0.006519   0.002866  -0.000130
    15  H   -0.071759   0.438425  -0.035258   0.020474  -0.014526   0.001447
    16  H    0.033419  -0.018136   0.446424  -0.079168   0.001510  -0.015786
    17  C   -0.139909   0.000442  -0.004454  -0.004150   0.000193   0.003979
    18  H   -0.025945   0.029286  -0.056560  -0.071615   0.000529  -0.017519
    19  H    0.000178  -0.000062  -0.000720  -0.005185  -0.000008  -0.000039
    20  H    0.000186  -0.000057  -0.000734  -0.005221  -0.000008  -0.000041
    21  H    0.003487  -0.003474   0.010293   0.029230  -0.000047   0.002489
              13         14         15         16         17         18
     1  C    0.273000  -0.017363  -0.016268  -0.013910   0.261773  -0.048091
     2  C   -0.081928   0.411403   0.001975   0.005255  -1.056126   0.072648
     3  C    0.012083  -0.054164  -0.002091   0.001975  -0.569852  -0.190719
     4  C    0.059353  -0.004653  -0.027198   0.018463  -0.385194   0.276479
     5  C    0.135833  -0.051863   0.040264  -0.046970  -0.223172   0.227603
     6  C   -0.017468   0.025274  -0.016991  -0.011337   0.691453   0.200806
     7  C    0.017656  -0.002992  -0.071759   0.033419  -0.139909  -0.025945
     8  C   -0.031657   0.011335   0.438425  -0.018136   0.000442   0.029286
     9  C    0.016224  -0.001873  -0.035258   0.446424  -0.004454  -0.056560
    10  C   -0.034607   0.006519   0.020474  -0.079168  -0.004150  -0.071615
    11  O   -0.014098   0.002866  -0.014526   0.001510   0.000193   0.000529
    12  O    0.000662  -0.000130   0.001447  -0.015786   0.003979  -0.017519
    13  H    0.491543  -0.016531  -0.000449   0.000278   0.003924   0.000900
    14  H   -0.016531   0.486369   0.000020  -0.000064  -0.000078  -0.000056
    15  H   -0.000449   0.000020   0.461654  -0.015748  -0.000694   0.000687
    16  H    0.000278  -0.000064  -0.015748   0.456873  -0.000461  -0.000820
    17  C    0.003924  -0.000078  -0.000694  -0.000461   6.749352  -0.068905
    18  H    0.000900  -0.000056   0.000687  -0.000820  -0.068905   0.529439
    19  H    0.000470  -0.001742   0.000000   0.000000   0.371138  -0.000159
    20  H    0.000462  -0.001695   0.000000   0.000000   0.370382  -0.000171
    21  H    0.000141   0.002668  -0.000065   0.000083   0.388567  -0.007695
              19         20         21
     1  C   -0.008527  -0.008756   0.016715
     2  C    0.039587   0.039006  -0.050057
     3  C    0.025765   0.027381  -0.106584
     4  C    0.009850   0.009888  -0.049891
     5  C   -0.010775  -0.010764  -0.031201
     6  C   -0.066821  -0.066879   0.135743
     7  C    0.000178   0.000186   0.003487
     8  C   -0.000062  -0.000057  -0.003474
     9  C   -0.000720  -0.000734   0.010293
    10  C   -0.005185  -0.005221   0.029230
    11  O   -0.000008  -0.000008  -0.000047
    12  O   -0.000039  -0.000041   0.002489
    13  H    0.000470   0.000462   0.000141
    14  H   -0.001742  -0.001695   0.002668
    15  H    0.000000   0.000000  -0.000065
    16  H    0.000000   0.000000   0.000083
    17  C    0.371138   0.370382   0.388567
    18  H   -0.000159  -0.000171  -0.007695
    19  H    0.540171  -0.051499  -0.017308
    20  H   -0.051499   0.539855  -0.017216
    21  H   -0.017308  -0.017216   0.519153
          Atomic-Atomic Spin Densities.
               1          2          3          4          5          6
     1  C   -0.000000   0.000000   0.000000   0.000000   0.000000  -0.000000
     2  C    0.000000  -0.000000   0.000000  -0.000000  -0.000000   0.000000
     3  C    0.000000   0.000000  -0.000000  -0.000000  -0.000000   0.000000
     4  C    0.000000  -0.000000  -0.000000  -0.000000   0.000000   0.000000
     5  C    0.000000  -0.000000  -0.000000   0.000000  -0.000000   0.000000
     6  C   -0.000000   0.000000   0.000000   0.000000   0.000000  -0.000000
     7  C    0.000000   0.000000   0.000000  -0.000000  -0.000000   0.000000
     8  C   -0.000000   0.000000  -0.000000   0.000000   0.000000  -0.000000
     9  C    0.000000  -0.000000  -0.000000   0.000000  -0.000000   0.000000
    10  C   -0.000000   0.000000   0.000000  -0.000000   0.000000  -0.000000
    11  O   -0.000000  -0.000000   0.000000   0.000000   0.000000  -0.000000
    12  O    0.000000  -0.000000  -0.000000   0.000000  -0.000000   0.000000
    13  H    0.000000  -0.000000  -0.000000  -0.000000  -0.000000   0.000000
    14  H   -0.000000   0.000000  -0.000000   0.000000   0.000000  -0.000000
    15  H   -0.000000   0.000000  -0.000000   0.000000  -0.000000  -0.000000
    16  H    0.000000  -0.000000  -0.000000  -0.000000  -0.000000   0.000000
    17  C   -0.000000   0.000000  -0.000000   0.000000   0.000000  -0.000000
    18  H   -0.000000  -0.000000  -0.000000   0.000000   0.000000   0.000000
    19  H   -0.000000  -0.000000   0.000000  -0.000000   0.000000   0.000000
    20  H   -0.000000  -0.000000   0.000000  -0.000000   0.000000   0.000000
    21  H    0.000000   0.000000   0.000000  -0.000000  -0.000000  -0.000000
               7          8          9         10         11         12
     1  C    0.000000  -0.000000   0.000000  -0.000000  -0.000000   0.000000
     2  C    0.000000   0.000000  -0.000000   0.000000  -0.000000  -0.000000
     3  C    0.000000  -0.000000  -0.000000   0.000000   0.000000  -0.000000
     4  C   -0.000000   0.000000   0.000000  -0.000000   0.000000   0.000000
     5  C   -0.000000   0.000000  -0.000000   0.000000   0.000000  -0.000000
     6  C    0.000000  -0.000000   0.000000  -0.000000  -0.000000   0.000000
     7  C    0.000000   0.000000  -0.000000   0.000000   0.000000  -0.000000
     8  C    0.000000   0.000000   0.000000  -0.000000  -0.000000  -0.000000
     9  C   -0.000000   0.000000  -0.000000   0.000000   0.000000  -0.000000
    10  C    0.000000  -0.000000   0.000000  -0.000000  -0.000000   0.000000
    11  O    0.000000  -0.000000   0.000000  -0.000000  -0.000000   0.000000
    12  O   -0.000000  -0.000000  -0.000000   0.000000   0.000000  -0.000000
    13  H   -0.000000  -0.000000  -0.000000   0.000000  -0.000000  -0.000000
    14  H    0.000000   0.000000  -0.000000  -0.000000  -0.000000   0.000000
    15  H   -0.000000   0.000000  -0.000000   0.000000  -0.000000  -0.000000
    16  H   -0.000000   0.000000  -0.000000   0.000000   0.000000   0.000000
    17  C   -0.000000  -0.000000   0.000000  -0.000000   0.000000  -0.000000
    18  H   -0.000000   0.000000  -0.000000  -0.000000  -0.000000   0.000000
    19  H   -0.000000  -0.000000   0.000000   0.000000   0.000000   0.000000
    20  H   -0.000000  -0.000000   0.000000   0.000000   0.000000   0.000000
    21  H    0.000000  -0.000000  -0.000000   0.000000  -0.000000  -0.000000
              13         14         15         16         17         18
     1  C    0.000000  -0.000000  -0.000000   0.000000  -0.000000  -0.000000
     2  C   -0.000000   0.000000   0.000000  -0.000000   0.000000  -0.000000
     3  C   -0.000000  -0.000000  -0.000000  -0.000000  -0.000000  -0.000000
     4  C   -0.000000   0.000000   0.000000  -0.000000   0.000000   0.000000
     5  C   -0.000000   0.000000  -0.000000  -0.000000   0.000000   0.000000
     6  C    0.000000  -0.000000  -0.000000   0.000000  -0.000000   0.000000
     7  C   -0.000000   0.000000  -0.000000  -0.000000  -0.000000  -0.000000
     8  C   -0.000000   0.000000   0.000000   0.000000  -0.000000   0.000000
     9  C   -0.000000  -0.000000  -0.000000  -0.000000   0.000000  -0.000000
    10  C    0.000000  -0.000000   0.000000   0.000000  -0.000000  -0.000000
    11  O   -0.000000  -0.000000  -0.000000   0.000000   0.000000  -0.000000
    12  O   -0.000000   0.000000  -0.000000   0.000000  -0.000000   0.000000
    13  H    0.000000  -0.000000  -0.000000   0.000000  -0.000000   0.000000
    14  H   -0.000000  -0.000000   0.000000  -0.000000   0.000000  -0.000000
    15  H   -0.000000   0.000000   0.000000  -0.000000  -0.000000   0.000000
    16  H    0.000000  -0.000000  -0.000000   0.000000   0.000000  -0.000000
    17  C   -0.000000   0.000000  -0.000000   0.000000   0.000000   0.000000
    18  H    0.000000  -0.000000   0.000000  -0.000000   0.000000   0.000000
    19  H    0.000000   0.000000  -0.000000   0.000000  -0.000000   0.000000
    20  H    0.000000   0.000000  -0.000000   0.000000  -0.000000   0.000000
    21  H   -0.000000   0.000000  -0.000000  -0.000000  -0.000000  -0.000000
              19         20         21
     1  C   -0.000000  -0.000000   0.000000
     2  C   -0.000000  -0.000000   0.000000
     3  C    0.000000   0.000000   0.000000
     4  C   -0.000000  -0.000000  -0.000000
     5  C    0.000000   0.000000  -0.000000
     6  C    0.000000   0.000000  -0.000000
     7  C   -0.000000  -0.000000   0.000000
     8  C   -0.000000  -0.000000  -0.000000
     9  C    0.000000   0.000000  -0.000000
    10  C    0.000000   0.000000   0.000000
    11  O    0.000000   0.000000  -0.000000
    12  O    0.000000   0.000000  -0.000000
    13  H    0.000000   0.000000  -0.000000
    14  H    0.000000   0.000000   0.000000
    15  H   -0.000000  -0.000000  -0.000000
    16  H    0.000000   0.000000  -0.000000
    17  C   -0.000000  -0.000000  -0.000000
    18  H    0.000000   0.000000  -0.000000
    19  H   -0.000000  -0.000000   0.000000
    20  H   -0.000000  -0.000000   0.000000
    21  H    0.000000   0.000000   0.000000
 Mulliken charges and spin densities:
               1          2
     1  C    0.240998   0.000000
     2  C   -0.378810   0.000000
     3  C    0.474614  -0.000000
     4  C    0.131356  -0.000000
     5  C    0.100111  -0.000000
     6  C   -0.142801   0.000000
     7  C   -0.828773  -0.000000
     8  C    0.264118   0.000000
     9  C    0.035717  -0.000000
    10  C   -0.473306   0.000000
    11  O   -0.292275   0.000000
    12  O   -0.284341   0.000000
    13  H    0.184211   0.000000
    14  H    0.206750   0.000000
    15  H    0.236101  -0.000000
    16  H    0.238120  -0.000000
    17  C   -0.388204   0.000000
    18  H    0.149878   0.000000
    19  H    0.175685  -0.000000
    20  H    0.175880  -0.000000
    21  H    0.174971  -0.000000
 Sum of Mulliken charges =  -0.00000   0.00000
 Mulliken charges and spin densities with hydrogens summed into heavy atoms:
               1          2
     1  C    0.425210   0.000000
     2  C   -0.172060   0.000000
     3  C    0.474614  -0.000000
     4  C    0.131356  -0.000000
     5  C    0.100111  -0.000000
     6  C    0.007078   0.000000
     7  C   -0.828773  -0.000000
     8  C    0.500219   0.000000
     9  C    0.273837  -0.000000
    10  C   -0.473306   0.000000
    11  O   -0.292275   0.000000
    12  O   -0.284341   0.000000
    17  C    0.138332   0.000000
 Electronic spatial extent (au):  <R**2>=          14319.2859
 Charge=             -0.0000 electrons
 Dipole moment (field-independent basis, Debye):
    X=              2.3099    Y=             -0.6232    Z=             -1.4091  Tot=              2.7766
 Quadrupole moment (field-independent basis, Debye-Ang):
   XX=            -41.1686   YY=            -77.8965   ZZ=            -83.2823
   XY=            -15.6120   XZ=            -13.1154   YZ=             15.7932
 Traceless Quadrupole moment (field-independent basis, Debye-Ang):
   XX=             26.2805   YY=            -10.4474   ZZ=            -15.8332
   XY=            -15.6120   XZ=            -13.1154   YZ=             15.7932
 Octapole moment (field-independent basis, Debye-Ang**2):
  XXX=           -729.9905  YYY=            920.6296  ZZZ=           -213.1603  XYY=           -282.1394
  XXY=            106.7376  XXZ=           -134.9688  XZZ=           -383.7954  YZZ=            353.8544
  YYZ=           -159.6721  XYZ=             78.5460
 Hexadecapole moment (field-independent basis, Debye-Ang**3):
 XXXX=          -8588.6781 YYYY=          -7814.6551 ZZZZ=          -1488.6909 XXXY=           2625.3185
 XXXZ=           -893.6321 YYYX=           4005.3339 YYYZ=           1394.3424 ZZZX=           -621.5284
 ZZZY=           1072.7212 XXYY=          -2181.5800 XXZZ=          -2177.0002 YYZZ=          -1865.7863
 XXYZ=            630.0961 YYXZ=           -560.1889 ZZXY=           1661.3837
 N-N= 7.155082928921D+02 E-N=-2.769905007603D+03  KE= 5.722197218655D+02
                          Isotropic Fermi Contact Couplings
        Atom                 a.u.       MegaHertz       Gauss      10(-4) cm-1
     1  C(13)             -0.00000      -0.00000      -0.00000      -0.00000
     2  C(13)             -0.00000      -0.00000      -0.00000      -0.00000
     3  C(13)              0.00000       0.00000       0.00000       0.00000
     4  C(13)             -0.00000      -0.00000      -0.00000      -0.00000
     5  C(13)              0.00000       0.00000       0.00000       0.00000
     6  C(13)             -0.00000      -0.00000      -0.00000      -0.00000
     7  C(13)              0.00000       0.00000       0.00000       0.00000
     8  C(13)              0.00000       0.00000       0.00000       0.00000
     9  C(13)             -0.00000      -0.00000      -0.00000      -0.00000
    10  C(13)              0.00000       0.00000       0.00000       0.00000
    11  O(17)              0.00000      -0.00000      -0.00000      -0.00000
    12  O(17)              0.00000      -0.00000      -0.00000      -0.00000
    13  H(1)              -0.00000      -0.00000      -0.00000      -0.00000
    14  H(1)               0.00000       0.00000       0.00000       0.00000
    15  H(1)               0.00000       0.00000       0.00000       0.00000
    16  H(1)              -0.00000      -0.00000      -0.00000      -0.00000
    17  C(13)              0.00000       0.00000       0.00000       0.00000
    18  H(1)              -0.00000      -0.00000      -0.00000      -0.00000
    19  H(1)              -0.00000      -0.00000      -0.00000      -0.00000
    20  H(1)              -0.00000      -0.00000      -0.00000      -0.00000
    21  H(1)              -0.00000      -0.00000      -0.00000      -0.00000
 --------------------------------------------------------
       Center         ----  Spin Dipole Couplings  ----
                      3XX-RR        3YY-RR        3ZZ-RR
 --------------------------------------------------------
     1   Atom       -0.000000      0.000000     -0.000000
     2   Atom        0.000000     -0.000000      0.000000
     3   Atom       -0.000000      0.000000      0.000000
     4   Atom        0.000000      0.000000     -0.000000
     5   Atom        0.000000     -0.000000      0.000000
     6   Atom       -0.000000      0.000000      0.000000
     7   Atom        0.000000     -0.000000     -0.000000
     8   Atom       -0.000000      0.000000      0.000000
     9   Atom       -0.000000     -0.000000      0.000000
    10   Atom       -0.000000      0.000000      0.000000
    11   Atom        0.000000     -0.000000     -0.000000
    12   Atom        0.000000      0.000000     -0.000000
    13   Atom       -0.000000     -0.000000      0.000000
    14   Atom       -0.000000      0.000000      0.000000
    15   Atom       -0.000000      0.000000      0.000000
    16   Atom        0.000000      0.000000     -0.000000
    17   Atom       -0.000000      0.000000      0.000000
    18   Atom       -0.000000      0.000000     -0.000000
    19   Atom       -0.000000      0.000000      0.000000
    20   Atom       -0.000000      0.000000      0.000000
    21   Atom        0.000000     -0.000000     -0.000000
 --------------------------------------------------------
                        XY            XZ            YZ
 --------------------------------------------------------
     1   Atom        0.000000      0.000000     -0.000000
     2   Atom        0.000000     -0.000000      0.000000
     3   Atom        0.000000     -0.000000     -0.000000
     4   Atom       -0.000000      0.000000      0.000000
     5   Atom        0.000000     -0.000000      0.000000
     6   Atom        0.000000      0.000000     -0.000000
     7   Atom       -0.000000     -0.000000      0.000000
     8   Atom        0.000000      0.000000      0.000000
     9   Atom        0.000000     -0.000000     -0.000000
    10   Atom        0.000000      0.000000      0.000000
    11   Atom       -0.000000     -0.000000      0.000000
    12   Atom       -0.000000      0.000000     -0.000000
    13   Atom        0.000000     -0.000000     -0.000000
    14   Atom        0.000000      0.000000     -0.000000
    15   Atom        0.000000      0.000000     -0.000000
    16   Atom       -0.000000      0.000000     -0.000000
    17   Atom        0.000000      0.000000     -0.000000
    18   Atom       -0.000000      0.000000     -0.000000
    19   Atom       -0.000000      0.000000     -0.000000
    20   Atom       -0.000000      0.000000     -0.000000
    21   Atom        0.000000      0.000000      0.000000
 --------------------------------------------------------


 ---------------------------------------------------------------------------------
              Anisotropic Spin Dipole Couplings in Principal Axis System
 ---------------------------------------------------------------------------------

       Atom             a.u.   MegaHertz   Gauss  10(-4) cm-1        Axes

              Baa    -0.0000    -0.000    -0.000    -0.000  0.8024 -0.1272 -0.5831
     1 C(13)  Bbb     0.0000     0.000     0.000     0.000  0.4415 -0.5308  0.7234
              Bcc     0.0000     0.000     0.000     0.000  0.4015  0.8379  0.3697
 
              Baa    -0.0000    -0.000    -0.000    -0.000 -0.4841  0.7945 -0.3666
     2 C(13)  Bbb    -0.0000    -0.000    -0.000    -0.000  0.5136  0.5972  0.6161
              Bcc     0.0000     0.000     0.000     0.000  0.7084  0.1100 -0.6972
 
              Baa    -0.0000    -0.000    -0.000    -0.000  0.7912 -0.4918  0.3634
     3 C(13)  Bbb     0.0000     0.000     0.000     0.000  0.0543  0.6484  0.7594
              Bcc     0.0000     0.000     0.000     0.000  0.6091  0.5811 -0.5397
 
              Baa    -0.0000    -0.000    -0.000    -0.000 -0.5852 -0.2456  0.7728
     4 C(13)  Bbb     0.0000     0.000     0.000     0.000  0.4372  0.7070  0.5558
              Bcc     0.0000     0.000     0.000     0.000  0.6829 -0.6632  0.3063
 
              Baa    -0.0000    -0.000    -0.000    -0.000 -0.6221  0.7647 -0.1680
     5 C(13)  Bbb     0.0000     0.000     0.000     0.000 -0.2914 -0.0270  0.9562
              Bcc     0.0000     0.000     0.000     0.000  0.7267  0.6438  0.2397
 
              Baa    -0.0000    -0.000    -0.000    -0.000  0.8428 -0.4715 -0.2597
     6 C(13)  Bbb     0.0000     0.000     0.000     0.000  0.3196  0.8265 -0.4634
              Bcc     0.0000     0.000     0.000     0.000  0.4332  0.3075  0.8472
 
              Baa    -0.0000    -0.000    -0.000    -0.000  0.3918 -0.3634  0.8452
     7 C(13)  Bbb    -0.0000    -0.000    -0.000    -0.000  0.3783  0.9011  0.2121
              Bcc     0.0000     0.000     0.000     0.000  0.8387 -0.2366 -0.4905
 
              Baa    -0.0000    -0.000    -0.000    -0.000  0.8316 -0.2047 -0.5163
     8 C(13)  Bbb     0.0000     0.000     0.000     0.000 -0.2100  0.7447 -0.6335
              Bcc     0.0000     0.000     0.000     0.000  0.5142  0.6352  0.5763
 
              Baa    -0.0000    -0.000    -0.000    -0.000  0.8087  0.0767  0.5832
     9 C(13)  Bbb    -0.0000    -0.000    -0.000    -0.000 -0.2034  0.9668  0.1548
              Bcc     0.0000     0.000     0.000     0.000 -0.5520 -0.2438  0.7974
 
              Baa    -0.0000    -0.000    -0.000    -0.000  0.9050 -0.3904 -0.1690
    10 C(13)  Bbb     0.0000     0.000     0.000     0.000  0.2433  0.8008 -0.5472
              Bcc     0.0000     0.000     0.000     0.000  0.3490  0.4541  0.8197
 
              Baa    -0.0000     0.000     0.000     0.000  0.2271 -0.1407  0.9636
    11 O(17)  Bbb    -0.0000     0.000     0.000     0.000  0.4216  0.9062  0.0330
              Bcc     0.0000    -0.000    -0.000    -0.000  0.8779 -0.3988 -0.2651
 
              Baa    -0.0000     0.000     0.000     0.000 -0.5232 -0.1167  0.8442
    12 O(17)  Bbb    -0.0000     0.000     0.000     0.000  0.4753  0.7823  0.4027
              Bcc     0.0000    -0.000    -0.000    -0.000  0.7074 -0.6119  0.3538
 
              Baa    -0.0000    -0.000    -0.000    -0.000 -0.5101  0.7315  0.4525
    13 H(1)   Bbb    -0.0000    -0.000    -0.000    -0.000  0.8510  0.3526  0.3893
              Bcc     0.0000     0.000     0.000     0.000 -0.1252 -0.5836  0.8023
 
              Baa    -0.0000    -0.000    -0.000    -0.000  0.9014 -0.2884 -0.3230
    14 H(1)   Bbb     0.0000     0.000     0.000     0.000  0.4280  0.7064  0.5638
              Bcc     0.0000     0.000     0.000     0.000  0.0656 -0.6465  0.7601
 
              Baa    -0.0000    -0.000    -0.000    -0.000  0.8407 -0.2263 -0.4920
    15 H(1)   Bbb     0.0000     0.000     0.000     0.000  0.4902  0.7040  0.5139
              Bcc     0.0000     0.000     0.000     0.000  0.2301 -0.6732  0.7027
 
              Baa    -0.0000    -0.000    -0.000    -0.000 -0.3275 -0.1924  0.9251
    16 H(1)   Bbb    -0.0000    -0.000    -0.000    -0.000  0.5955  0.7181  0.3601
              Bcc     0.0000     0.000     0.000     0.000  0.7336 -0.6688  0.1206
 
              Baa    -0.0000    -0.000    -0.000    -0.000  0.8375 -0.4584 -0.2975
    17 C(13)  Bbb     0.0000     0.000     0.000     0.000  0.2324 -0.1939  0.9531
              Bcc     0.0000     0.000     0.000     0.000  0.4945  0.8674  0.0559
 
              Baa    -0.0000    -0.000    -0.000    -0.000 -0.6612 -0.0039  0.7502
    18 H(1)   Bbb    -0.0000    -0.000    -0.000    -0.000  0.6410  0.5164  0.5678
              Bcc     0.0000     0.000     0.000     0.000 -0.3896  0.8563 -0.3390
 
              Baa    -0.0000    -0.000    -0.000    -0.000  0.7461  0.5335  0.3982
    19 H(1)   Bbb    -0.0000    -0.000    -0.000    -0.000 -0.5897  0.2520  0.7673
              Bcc     0.0000     0.000     0.000     0.000 -0.3091  0.8074 -0.5026
 
              Baa    -0.0000    -0.000    -0.000    -0.000  0.6139  0.6879  0.3871
    20 H(1)   Bbb    -0.0000    -0.000    -0.000    -0.000 -0.6706  0.1959  0.7155
              Bcc     0.0000     0.000     0.000     0.000 -0.4164  0.6988 -0.5816
 
              Baa    -0.0000    -0.000    -0.000    -0.000 -0.0022 -0.6847  0.7289
    21 H(1)   Bbb     0.0000     0.000     0.000     0.000  0.7897 -0.4483 -0.4188
              Bcc     0.0000     0.000     0.000     0.000  0.6134  0.5747  0.5417
 

 ---------------------------------------------------------------------------------

 No NMR shielding tensors so no spin-rotation constants.
 Leave Link  601 at Sat Feb 10 23:36:28 2024, MaxMem=  4026531840 cpu:               4.8 elap:               1.3
 (Enter /sysapps/ubuntu-applications/gaussian/Gaussian/AVX2/g16/l701.exe)
 ... and contract with generalized density number  0.
 Compute integral first derivatives.
 D1PCM: PCM CHGder 1st derivatives, ID1Alg=3 FixD1E=F DoIter=F DoCFld=F I1PDM=0.
 GePol: Maximum number of non-zero 1st derivatives   =     218
 Leave Link  701 at Sat Feb 10 23:36:29 2024, MaxMem=  4026531840 cpu:              10.3 elap:               1.3
[...]
 785,-0.13065836,0.54659384,0.00132963,0.00717028,-0.00100417,-0.000066
 60,0.00110121,-0.00287710,0.00718689,0.00225030,-0.00125769,-0.0196687
 3,0.01077142,-0.00006058,0.03150312,-0.00171176,-0.09629400,0.01485047
 ,-0.01755851,0.00853813,-0.01292775,0.00263263,-0.00028540,0.01154063,
 0.01120308,-0.02418976,0.06077244,-0.00909187,-0.11980245,-0.06672811,
 -0.28880777,0.58497376,-0.00159373,0.00035053,0.00089628,0.00158448,-0
 .00139352,-0.00054284,0.00101911,-0.00151399,0.00093277,0.01314592,-0.
 02025336,0.02637553,-0.00197129,0.00269047,0.00227740,-0.00201732,-0.0
 0134190,0.00208860,-0.09162551,0.03774706,-0.01680914,0.00789916,0.035
 89189,-0.02914494,-0.00407448,0.00420125,0.00051850,-0.00563204,0.0019
 7008,0.00386895,0.07986774,0.00680724,-0.00428961,-0.00157063,-0.00150
 643,-0.00027603,0.00086300,0.00230180,-0.00106015,-0.00074275,-0.01627
 020,-0.00054644,0.03451705,-0.00017219,0.00557749,-0.00179376,-0.00356
 240,0.00045712,0.00111315,0.03891220,-0.33367008,0.27701924,0.02412757
 ,-0.03811881,0.04630283,0.00627580,0.00070082,-0.00458538,0.00304061,0
 .00155288,-0.00332723,-0.05455215,0.37105003,-0.00656256,0.00437967,0.
 00080246,-0.00040541,0.00075808,-0.00121915,-0.00347004,0.00278564,0.0
 0013424,0.02178070,0.03813365,-0.04764122,0.00557738,-0.00444548,0.003
 86709,0.00465463,-0.00094182,-0.00463814,-0.01809818,0.27804901,-0.366
 51767,-0.01556992,0.03550310,-0.00542546,-0.00190400,-0.00265048,0.006
 57036,0.00265808,-0.00236458,0.00136974,0.01201705,-0.34953061,0.41669
 829,-0.00297725,0.00222178,-0.00107950,0.00024994,0.00157177,-0.001839
 81,0.00180131,-0.00075404,-0.00154018,-0.00266441,0.00158637,0.0038669
 5,0.00039378,0.03557272,-0.02616393,-0.00069086,0.00100460,-0.00063627
 ,-0.00547763,0.00250511,0.00308067,-0.00228771,-0.00100397,0.00497275,
 0.01877861,-0.01936614,0.02461576,-0.09536850,0.05347985,-0.03125492,0
 .00185801,-0.00074697,-0.00077337,0.08512379,0.00352417,-0.00347810,-0
 .00084879,-0.00079194,-0.00117518,0.00234599,-0.00117011,-0.00011517,0
 .00030280,0.00468166,0.00361003,-0.00448963,0.03108483,-0.03679856,0.0
 3273286,-0.00465038,-0.00059143,0.00478954,0.00119970,0.00193577,-0.00
 212131,-0.00315028,0.00610057,-0.00196062,-0.00757859,-0.00756201,0.04
 016629,0.05306669,-0.34681958,0.27867547,-0.00005951,-0.00145358,0.001
 83013,-0.07511395,0.38815675,-0.00258993,0.00036999,0.00058694,0.00088
 747,0.00015748,-0.00078196,-0.00105980,-0.00008415,0.00027882,0.000277
 91,-0.00157768,0.00511867,-0.02099680,0.02862037,0.00279015,0.00587353
 ,-0.00040771,-0.00509367,0.00460492,-0.00331408,0.00065088,0.00743886,
 -0.00394381,-0.00041381,0.01102394,0.05094767,-0.04744341,-0.03071519,
 0.27830283,-0.35437064,-0.00156441,0.00244286,-0.00130773,0.03064464,-
 0.34966845,0.39861052,-0.05573045,0.02461550,-0.01350048,0.00609253,-0
 .01527573,0.01642832,-0.00070862,0.00250985,0.00498331,0.00268044,0.01
 675763,-0.01846858,-0.00225616,0.00455001,0.00291983,-0.00098500,-0.00
 018185,0.00009365,-0.00104440,-0.00057098,-0.00210433,0.00016216,-0.00
 015592,0.00009630,-0.00002785,-0.00007773,0.00006551,0.00129510,0.0005
 5437,-0.00085080,0.00065666,-0.00078840,0.00065360,-0.00076931,0.00042
 679,-0.00028876,0.05101893,0.02469332,-0.18643340,0.14625889,0.0016085
 2,0.00356052,-0.00002043,0.00240559,0.00413839,0.00201842,0.00163776,-
 0.00986823,0.01398530,0.00516144,0.00159902,0.00099666,-0.00027182,-0.
 00022596,-0.00076626,-0.00208833,-0.00286999,0.00057705,0.00007395,0.0
 0006041,-0.00006495,0.00006195,-0.00000554,-0.00011611,-0.00052714,0.0
 0054051,0.00107540,-0.00122974,0.00173694,-0.00042160,0.00027436,-0.00
 074401,-0.00002491,-0.02965645,0.19041611,-0.01361396,0.14636050,-0.19
 561423,-0.00300066,0.01555637,-0.01033095,0.00511135,0.00191477,0.0008
 9883,-0.00104790,0.00001183,0.00452631,0.00221359,0.00156825,0.0027468
 2,0.00019202,-0.00085059,-0.00030510,-0.00035733,-0.00080605,-0.002774
 42,-0.00017240,0.00015000,0.00005458,-0.00009691,0.00001450,0.00001785
 ,0.00038448,0.00008547,0.00060247,0.00117686,-0.00085207,0.00014567,-0
 .00010902,-0.00016756,-0.00025197,0.01155933,-0.16135575,0.20182964,-0
 .01253716,0.01431067,-0.00089185,-0.22159818,0.14098413,0.00553346,0.0
 0140852,0.00108472,0.00177163,0.00049126,0.00092312,0.00543789,-0.0000
 4067,-0.00056836,-0.00008353,0.00291174,0.00174176,0.00160681,-0.00002
 446,0.00114597,-0.00099895,-0.00029685,-0.00013649,0.00025443,0.000045
 26,0.00008030,0.00007748,-0.00021301,-0.00062808,-0.00026138,-0.000035
 62,-0.00029299,0.00046276,-0.00004700,0.00027502,-0.00008883,-0.000367
 47,-0.00181047,-0.00162059,0.23053423,-0.00316442,0.00558017,0.0014607
 7,0.14113362,-0.15885834,0.00696491,0.01775670,-0.00877417,-0.00088077
 ,0.00145611,0.00396873,0.00276990,-0.00076637,-0.00044647,0.00025504,0
 .00171037,0.00063036,0.00555351,-0.00032685,0.00019804,0.00043999,-0.0
 0009951,-0.00008405,-0.00003261,0.00012607,0.00006012,0.00007551,-0.00
 053149,-0.00043930,-0.00048137,0.00014085,0.00015364,-0.00019436,0.000
 22738,-0.00003509,0.00005895,-0.00151117,-0.00142942,-0.00201239,-0.15
 540170,0.16081443,0.01922762,-0.01465087,0.00348005,0.00539033,0.00708
 832,-0.05289786,-0.01742962,0.01450134,0.00406094,0.00482923,0.0032611
 8,-0.00067502,0.00014641,0.00007700,-0.00106173,0.00163355,0.00552925,
 -0.00106237,0.00069372,-0.00092154,0.00074060,0.00021489,0.00000279,-0
 .00039040,0.00002030,0.00011897,0.00006879,-0.00037192,-0.00039244,-0.
 00048591,-0.00003776,0.00020744,-0.00010710,-0.00003305,0.00001439,0.0
 0021410,-0.00196494,-0.00172981,-0.00057228,-0.01006984,-0.01194571,0.
 04890209,-0.00024362,-0.00033685,0.00124861,-0.00028452,0.00022267,-0.
 00013116,0.00020292,-0.00003162,0.00002771,-0.00190410,0.00405077,-0.0
 0119575,-0.00005458,-0.00081911,-0.00128931,-0.00021524,-0.00004021,0.
 00021786,-0.01304383,-0.00423624,0.01968754,-0.18285967,-0.01187677,0.
 14519649,0.00866623,0.00297262,-0.00350403,0.00355173,0.00582289,0.002
 80904,0.00263945,-0.00145249,-0.00199583,-0.00041691,-0.00101850,-0.00
 115820,0.00003723,0.00004280,-0.00003183,-0.00014867,-0.00005611,0.000
 05747,0.18544269,0.00063423,0.00073282,-0.00062687,0.00016729,-0.00024
 330,-0.00004879,-0.00000876,0.00010005,0.00011677,0.00297021,-0.002014
 94,0.00174916,-0.00128135,-0.00110107,-0.00041928,0.00002808,0.0001123
 9,-0.00019003,0.01492064,0.00415639,-0.01487453,-0.01217302,-0.0511350
 5,0.02471133,-0.01492894,0.00379364,0.01922014,0.00731539,0.00361471,0
 .00516998,-0.00276364,0.00112270,-0.00034126,-0.00203087,-0.00203202,0
 .00079588,-0.00000823,0.00002678,0.00004186,0.00002781,-0.00006200,-0.
 00013659,0.00953127,0.04522696,0.00012853,0.00026299,0.00027378,-0.000
 07002,-0.00009519,0.00002449,0.00000398,0.00013505,0.00003424,0.000042
 23,0.00076208,0.00094497,-0.00075297,-0.00084253,-0.00082453,0.0001361
 9,-0.00012794,-0.00000902,-0.00237043,0.00268161,0.00219812,0.14550887
 ,0.02447578,-0.20097025,0.01712001,0.00279557,-0.01027263,0.00108101,0
 .00653555,0.00540744,-0.00046802,-0.00155894,0.00087493,0.00001332,-0.
 00013164,-0.00281607,0.00002745,-0.00000537,0.00003713,-0.00004114,-0.
 00005861,-0.00005261,-0.15796806,-0.03195572,0.20665474,-0.00020877,0.
 00011691,-0.00003994,0.00008330,0.00011848,-0.00002808,-0.00011981,-0.
 00020772,0.00025362,-0.00007127,-0.00119613,-0.00080438,-0.00083585,-0
 .00113707,0.00382891,-0.00041046,0.00109345,-0.00027969,0.00451868,0.0
 0343801,0.00467226,0.00466618,0.00098515,0.00239130,-0.22204589,0.1445
 8304,0.00107866,-0.01325707,0.01551396,-0.00289469,-0.00071319,-0.0007
 8415,-0.00112994,0.00242106,-0.00183556,-0.00137200,-0.00003000,0.0000
 2609,0.00000533,-0.00000991,0.00002513,0.00000058,-0.00126205,-0.00247
 604,-0.00240754,0.22739847,0.00004021,-0.00001004,-0.00015080,0.000069
 80,0.00005771,0.00010212,-0.00013726,0.00002598,-0.00002486,-0.0007564
 5,-0.00111656,-0.00085707,-0.00004878,0.00090993,0.00120522,0.00011782
 ,0.00039209,0.00019552,0.00189220,0.00641012,0.00693101,0.01889783,-0.
 00757503,0.00117346,0.14490126,-0.16233981,0.00887002,-0.00360033,0.00
 364420,0.00263034,0.00023144,-0.00290354,-0.00023997,-0.00056098,0.000
 57430,-0.00170880,-0.00001878,0.00001011,0.00001510,0.00002503,0.00000
 611,-0.00000451,-0.00277570,-0.00230461,-0.00287190,-0.15825807,0.1642
 5438,0.00004245,-0.00021706,0.00010206,0.00003244,0.00005829,0.0001055
 4,0.00017093,0.00003546,-0.00030590,-0.00131032,-0.00045703,-0.0007333
 1,0.00258713,0.00219141,-0.00297245,0.00083891,-0.00069621,0.00068616,
 0.00643847,0.00553256,0.00167639,-0.01820921,0.01760544,0.00495630,0.0
 0072721,0.00913670,-0.05047119,0.01908227,-0.01487094,0.00268817,-0.00
 228851,0.00067224,-0.00161199,-0.00283373,-0.00054246,0.00181920,0.000
 05576,-0.00002545,-0.00001392,0.00000104,-0.00000457,0.00002672,-0.002
 07474,-0.00314189,-0.00149600,-0.00328076,-0.01517916,0.04557658,0.004
 74962,0.00289241,-0.00291828,0.00281374,-0.00376645,0.00571649,-0.1400
 2579,0.00085734,0.06209232,-0.00350656,0.00083365,0.00154823,0.0020618
 0,0.00425834,0.00052203,-0.02007171,0.00251921,0.02254710,0.00130209,0
 .00008948,-0.00235069,-0.00005678,0.00026701,-0.00009920,-0.00026533,0
 .00023390,-0.00003426,-0.00050879,-0.00033637,0.00088573,-0.00008583,-
 0.00074541,0.00113690,0.00009986,0.00013929,-0.00014701,0.00034901,-0.
 00002727,-0.00054303,-0.00027984,-0.00057630,-0.00130735,-0.00003427,0
 .00001559,0.00001717,-0.00010848,-0.00006270,-0.00001850,0.51039330,0.
 00186447,-0.00097805,0.00538134,-0.01668173,0.00269955,0.01726958,-0.0
 0401308,-0.08216759,0.01574802,0.00146524,-0.00064863,-0.00149418,0.00
 417266,0.00107525,0.00406851,0.01682019,0.00537086,-0.01307534,-0.0014
 8282,-0.00072811,0.00088981,0.00010334,-0.00005255,0.00015386,0.000297
 66,-0.00026970,0.00002024,0.00037737,0.00052875,-0.00092124,0.00016349
 ,0.00066327,-0.00066732,0.00007538,-0.00014834,0.00022886,-0.00084039,
 -0.00010653,0.00058388,-0.00144895,-0.00032868,-0.00117907,0.00002267,
 0.00000012,-0.00001706,0.00001373,-0.00009236,-0.00014364,-0.01579974,
 0.56063078,-0.00174723,0.00444372,0.00168058,0.02059755,0.00533650,-0.
 02087151,0.06773289,0.01124403,-0.14721236,0.00082702,-0.00092652,-0.0
 0047378,0.00063095,0.00397494,0.00276725,0.00603920,0.00016336,0.00177
 813,-0.00053935,-0.00055537,0.00000014,0.00008628,0.00000539,0.0000791
 6,-0.00010792,0.00007951,-0.00000432,0.00005843,-0.00025336,0.00027348
 ,0.00009060,0.00017039,-0.00006521,-0.00007251,0.00016760,-0.00001394,
 0.00039554,-0.00016676,-0.00044597,-0.00029215,-0.00197058,0.00008882,
 0.00000864,-0.00001027,0.00000763,-0.00010486,-0.00007380,-0.00002496,
 0.03684723,-0.02008705,0.51963021,-0.00104117,-0.00014887,0.00013443,-
 0.00186961,0.00489558,0.00223307,0.00110084,0.01724999,-0.01620108,-0.
 00147947,0.00266110,0.00470666,0.00699048,-0.01601672,0.01495884,-0.05
 549414,0.02618779,-0.01496113,0.00139403,-0.00055885,0.00045593,-0.000
 03277,0.00004047,-0.00008224,0.00015764,0.00013355,-0.00018276,-0.0012
 1148,-0.00192644,-0.00057458,-0.00064669,-0.00035941,0.00046244,0.0002
 0829,0.00054634,-0.00049603,-0.00010204,-0.00027094,-0.00023781,-0.000
 05264,0.00065362,-0.00100957,-0.00004075,0.00004466,-0.00002052,0.0000
 3642,0.00002211,-0.00001237,-0.00009146,-0.00094292,-0.00269160,0.0521
 6326,0.00008339,-0.00037316,-0.00089370,0.00482660,0.00152686,0.001454
 82,0.00137958,-0.00824121,0.01408743,0.00201041,0.00372193,0.00187043,
 -0.00096950,0.00223175,0.00199936,0.02641886,-0.18583132,0.14488632,0.
 00050684,0.00064763,0.00014558,-0.00010759,0.00000573,0.00001164,-0.00
 012089,0.00007076,0.00016995,-0.00030520,-0.00322133,-0.00088626,-0.00
 018244,-0.00033366,-0.00012901,0.00105316,0.00051105,-0.00111311,-0.00
 026817,-0.00031784,-0.00019021,-0.00015076,-0.00062130,0.00047550,-0.0
 0000065,-0.00001311,0.00000844,-0.00002868,0.00003773,0.00004090,-0.00
 262252,-0.00126422,-0.00094622,-0.03188405,0.19074506,-0.00013836,-0.0
 0067371,-0.00017462,0.00231194,0.00139398,0.00291263,0.00210277,-0.000
 57596,0.00380277,0.00546842,0.00126486,0.00046600,-0.00239648,0.015900
 21,-0.01292719,-0.01523727,0.14507868,-0.19209813,-0.00078421,0.001128
 78,0.00059595,0.00008929,-0.00012605,-0.00000889,0.00010485,-0.0000587
 7,0.00009020,-0.00243795,0.00057553,-0.00265377,0.00026188,0.00003587,
 -0.00087432,-0.00106873,-0.00062118,0.00207769,-0.00024072,-0.00018701
 ,-0.00025942,-0.00008290,-0.00026664,0.00005455,0.00003251,-0.00003327
 ,0.00000213,0.00004566,-0.00000600,0.00001515,-0.00075764,-0.00249793,
 -0.00060625,0.01276850,-0.16023702,0.19908433,-0.00074865,-0.00026685,
 -0.00022960,0.00066146,0.00060875,-0.00148203,-0.00451034,0.02102533,0
 .01351251,-0.00003140,-0.00005320,0.00026225,-0.00125049,-0.00031621,-
 0.00074261,-0.00164545,-0.00098196,0.00224079,0.00036654,0.00013217,-0
 .00018635,-0.00006151,0.00001472,-0.00001400,-0.00009727,0.00005426,0.
 00002197,0.00013059,-0.00030689,0.00023766,-0.00010606,-0.00012253,0.0
 0018317,-0.00011857,0.00015693,-0.00011602,0.00003700,0.00002427,0.000
 03911,0.00042343,0.00006415,0.00016117,-0.00001171,0.00000330,0.000008
 11,-0.00001184,0.00002751,0.00004450,-0.04197369,0.01363128,0.00798540
 ,0.00037921,0.00028675,0.00038995,0.04772534,0.00132850,0.00006629,-0.
 00085138,-0.00073640,-0.00005904,0.00204944,0.00149197,0.00439647,0.00
 162011,-0.00095052,0.00051744,0.00010722,0.00006125,-0.00021262,0.0002
 7462,-0.00005624,0.00011579,-0.00059691,0.00020198,0.00003827,-0.00045
 174,-0.00002738,0.00007760,-0.00001923,-0.00001420,-0.00001697,0.00003
 070,-0.00012325,0.00004032,-0.00000689,0.00000743,-0.00011897,0.000163
 30,0.00006025,-0.00004371,0.00000356,0.00006049,0.00001238,-0.00002024
 ,-0.00016326,-0.00025520,-0.00029992,-0.00000200,0.00000789,0.00000173
 ,0.00001199,0.00000735,-0.00000284,0.01307532,-0.24065440,-0.11142120,
 -0.00021803,0.00009301,-0.00012266,-0.01429174,0.25967111,-0.00011452,
 0.00044754,0.00077809,0.00107778,0.00026577,0.00074641,0.00203691,-0.0
 1943746,-0.01214655,0.00081184,-0.00027796,-0.00057284,0.00068486,0.00
 013194,0.00042493,0.00059130,0.00086780,-0.00182092,-0.00073273,-0.000
 15895,0.00078029,0.00011350,-0.00010278,0.00003347,0.00010525,-0.00005
 086,-0.00007284,-0.00008906,0.00038392,-0.00020939,0.00015163,0.000272
 85,-0.00045640,0.00010585,-0.00018280,0.00013225,-0.00005614,-0.000035
 07,-0.00005976,-0.00040902,0.00018857,-0.00042134,0.00002436,-0.000009
 78,-0.00000950,0.00001414,-0.00002408,-0.00003258,0.00821188,-0.112014
 45,-0.11142893,-0.00007011,-0.00020291,-0.00006376,-0.01220779,0.12373
 403,0.11930092,-0.00027262,0.00070836,0.00099504,0.00132813,0.00169174
 ,-0.00114881,-0.02117016,-0.00307831,-0.00607504,-0.00001362,-0.000417
 73,0.00020761,0.00003130,0.00122914,0.00036383,-0.00124611,-0.00125724
 ,0.00229526,0.00026779,-0.00011282,-0.00044841,-0.00003752,0.00006388,
 0.00002985,-0.00010707,0.00005244,0.00002074,0.00021907,-0.00036501,0.
 00026030,-0.00011511,-0.00010147,0.00027112,-0.00013489,0.00023718,-0.
 00010915,-0.00005014,-0.00005091,0.00000217,-0.00011478,-0.00072847,-0
 .00017935,-0.00001464,0.00000681,0.00001226,-0.00004867,-0.00001203,0.
 00001196,-0.25369247,-0.04373485,-0.09603072,-0.00013275,-0.00042941,-
 0.00023635,0.00216107,-0.00018853,0.00051552,0.27830318,0.00078487,-0.
 00016211,-0.00056957,-0.00069060,0.00024452,0.00149901,0.00032569,-0.0
 0107488,-0.00153813,-0.00069877,0.00035197,0.00027523,-0.00003091,-0.0
 0039630,-0.00017181,0.00044636,-0.00024022,-0.00052924,0.00042200,0.00
 016521,-0.00039450,-0.00006151,0.00005629,-0.00003589,-0.00002932,-0.0
 0002247,0.00002531,0.00002849,0.00002611,0.00007047,-0.00006242,-0.000
 16565,0.00020451,0.00000320,0.00000691,-0.00002792,-0.00000351,-0.0000
 2532,-0.00001806,0.00004653,-0.00012831,0.00021561,-0.00000963,0.00000
 648,0.00000203,0.00000371,0.00000518,-0.00000234,-0.04404853,-0.052469
 95,-0.01662279,0.00004595,0.00032333,0.00007243,-0.02585723,-0.0050313
 3,-0.01174912,0.04736812,0.05305584,-0.00105394,-0.00032642,0.00051932
 ,0.00059471,-0.00016505,-0.00026437,0.02403746,0.00461128,0.01003398,0
 .00103064,-0.00042506,-0.00042433,-0.00005104,-0.00083975,-0.00067919,
 0.00090852,0.00043599,-0.00185631,-0.00060850,-0.00013318,0.00075408,0
 .00009369,-0.00010855,0.00003020,0.00010982,-0.00003276,-0.00005780,-0
 .00008320,0.00021221,-0.00027909,0.00010793,0.00025350,-0.00040012,0.0
 0004846,-0.00014724,0.00009700,0.00000212,0.00007409,0.00006519,-0.000
 23393,0.00024086,0.00002340,0.00002108,-0.00000660,-0.00000540,0.00004
 238,0.00001881,0.00000686,-0.09524445,-0.01681448,-0.08792861,0.000258
 91,0.00012403,0.00021554,-0.01426351,-0.00245426,-0.00701753,0.1015264
 9,0.02056873,0.09535791,0.00058124,-0.00077644,0.00076554,-0.00308651,
 0.00079754,0.00326731,0.00459320,-0.01862723,0.01566976,-0.00002084,0.
 00005864,0.00002396,-0.00000223,-0.00012832,-0.00005825,0.00120733,-0.
 00124593,0.00036764,0.00009093,0.00003719,-0.00013126,-0.00003562,0.00
 002666,0.00000323,0.00000877,-0.00003032,0.00002464,0.00004722,-0.0000
 6212,-0.00001730,-0.00005366,-0.00000801,0.00005141,0.00001838,0.00003
 022,-0.00004913,-0.00025764,-0.00007699,0.00014720,-0.00004818,-0.0001
 3160,0.00002814,-0.00000570,0.00000559,-0.00000041,0.00000916,0.000005
 86,-0.00000491,-0.06106843,0.04593701,-0.03971339,-0.00023520,0.000504
 28,-0.00019517,-0.00131769,0.00047238,-0.00076544,-0.00516001,0.022017
 51,-0.01724365,0.06473549,0.00044356,0.00005353,0.00004177,-0.00017306
 ,0.00104096,0.00063173,0.00037682,-0.00157149,-0.00055734,-0.00017879,
 0.00013150,0.00010511,-0.00029786,0.00010258,-0.00010917,0.00078760,0.
 00047176,-0.00121996,0.00015217,0.00006447,-0.00021880,-0.00004118,0.0
 0003068,0.00000412,-0.00003779,0.00000501,0.00002624,0.00011751,-0.000
 17926,0.00004231,-0.00004182,-0.00007838,0.00011942,-0.00005900,0.0001
 0140,-0.00005783,-0.00011732,-0.00007493,-0.00002962,-0.00004401,0.000
 05075,-0.00023134,-0.00000979,0.00000518,0.00000407,-0.00000624,0.0000
 0677,0.00001059,0.04280377,-0.19105948,0.12744848,-0.00015493,0.000302
 30,-0.00004412,0.00616719,-0.01865169,0.01795378,-0.00088089,0.0054746
 9,-0.00508612,-0.04880592,0.20377367,-0.00064079,0.00116967,-0.0003075
 4,0.00439058,-0.00026752,-0.00230559,-0.00630853,0.01699878,-0.0155579
 2,0.00030619,-0.00011222,-0.00006902,0.00013456,-0.00026339,-0.0000456
 7,-0.00195391,0.00066400,0.00108821,-0.00027000,-0.00011582,0.00037584
 ,0.00008216,-0.00005978,-0.00000632,0.00003354,0.00001878,-0.00005659,
 -0.00022883,0.00021056,-0.00008327,0.00009165,0.00009096,-0.00019828,0
 .00005663,-0.00014340,0.00011700,0.00019402,-0.00006635,-0.00029648,-0
 .00007139,-0.00016041,0.00006656,0.00001762,-0.00001024,-0.00000358,0.
 00000905,-0.00000065,0.00000318,-0.03610467,0.12456767,-0.15722955,0.0
 0056102,-0.00067596,0.00034940,0.00415533,-0.01173743,0.01211598,-0.00
 228432,0.00872606,-0.00819073,0.03783009,-0.13883333,0.17023435\\0.000
 07447,-0.00003967,-0.00001222,-0.00002584,-0.00015737,0.00019077,-0.00
 003807,0.00014665,-0.00013635,-0.00007981,0.00021362,-0.00014972,-0.00
 009344,-0.00016589,0.00019489,0.00005974,0.00000438,-0.00007928,0.0000
 1998,-0.00018115,0.00002809,-0.00004723,0.00016744,-0.00009825,-0.0000
 6496,-0.00015977,0.00012163,0.00018097,0.00018939,0.00001899,0.0000267
 1,0.00001437,0.00000194,-0.00002330,-0.00004568,-0.00006056,0.00002411
 ,-0.00001399,-0.00001335,-0.00002869,0.00002816,-0.00002035,0.00000477
 ,0.00001749,0.00000395,0.00000180,-0.00000381,0.00000747,0.00001775,0.
 00001598,-0.00003532,0.00003379,-0.00001230,-0.00001277,-0.00001211,0.
 00000351,0.00003541,-0.00002752,-0.00002198,0.00001340,-0.00000311,0.0
 0000063,0.00000163\\\@


 AND THIS OUR LIFE, EXEMPT FROM PUBLIC HAUNT,
 FINDS TONGUES IN TREES, BOOKS IN THE RUNNING BROOKS,
 SERMONS IN STONES, AND GOOD IN EVERYTHING.
 I WOULD NOT CHANGE IT. -- W. SHAKESPEARE
 AS YOU LIKE IT, ACT II, SCENE 1.
 Job cpu time:       0 days  1 hours 28 minutes 53.9 seconds.
 Elapsed time:       0 days  0 hours 11 minutes 33.1 seconds.
 File lengths (MBytes):  RWF=    533 Int=      0 D2E=      0 Chk=     21 Scr=      1
 Normal termination of Gaussian 16 at Sat Feb 10 23:51:11 2024.
