 Entering Gaussian System, Link 0=g16
 Input=097-rad-PCM.com
 Output=097-rad-PCM.log
 Initial command:
 /sysapps/ubuntu-applications/gaussian/Gaussian/AVX2/g16/l1.exe "/scratch/selhajj1/4332898/Gau-1069824.inp" -scrdir="/scratch/selhajj1/4332898/"
 Entering Link 1 = /sysapps/ubuntu-applications/gaussian/Gaussian/AVX2/g16/l1.exe PID=   1069833.
  
 Copyright (c) 1988,1990,1992,1993,1995,1998,2003,2009,2016,
            Gaussian, Inc.  All Rights Reserved.
  
 This is part of the Gaussian(R) 16 program.  It is based on
 the Gaussian(R) 09 system (copyright 2009, Gaussian, Inc.),
 the Gaussian(R) 03 system (copyright 2003, Gaussian, Inc.),
 the Gaussian(R) 98 system (copyright 1998, Gaussian, Inc.),
 the Gaussian(R) 94 system (copyright 1995, Gaussian, Inc.),
 the Gaussian 92(TM) system (copyright 1992, Gaussian, Inc.),
 the Gaussian 90(TM) system (copyright 1990, Gaussian, Inc.),
 the Gaussian 88(TM) system (copyright 1988, Gaussian, Inc.),
 the Gaussian 86(TM) system (copyright 1986, Carnegie Mellon
 University), and the Gaussian 82(TM) system (copyright 1983,
 Carnegie Mellon University). Gaussian is a federally registered
 trademark of Gaussian, Inc.
  
 This software contains proprietary and confidential information,
 including trade secrets, belonging to Gaussian, Inc.
  
 This software is provided under written license and may be
 used, copied, transmitted, or stored only in accord with that
 written license.
  
 The following legend is applicable only to US Government
 contracts under FAR:
  
                    RESTRICTED RIGHTS LEGEND
  
 Use, reproduction and disclosure by the US Government is
 subject to restrictions as set forth in subparagraphs (a)
 and (c) of the Commercial Computer Software - Restricted
 Rights clause in FAR 52.227-19.
  
 Gaussian, Inc.
 340 Quinnipiac St., Bldg. 40, Wallingford CT 06492
  
  
 ---------------------------------------------------------------
 Warning -- This program may not be used in any manner that
 competes with the business of Gaussian, Inc. or will provide
 assistance to any competitor of Gaussian, Inc.  The licensee
 of this program is prohibited from giving any competitor of
 Gaussian, Inc. access to this program.  By using this program,
 the user acknowledges that Gaussian, Inc. is engaged in the
 business of creating and licensing software in the field of
 computational chemistry and represents and warrants to the
 licensee that it is not a competitor of Gaussian, Inc. and that
 it will not use this program in any manner prohibited above.
 ---------------------------------------------------------------
  

 Cite this work as:
 Gaussian 16, Revision A.03,
 M. J. Frisch, G. W. Trucks, H. B. Schlegel, G. E. Scuseria, 
 M. A. Robb, J. R. Cheeseman, G. Scalmani, V. Barone, 
 G. A. Petersson, H. Nakatsuji, X. Li, M. Caricato, A. V. Marenich, 
 J. Bloino, B. G. Janesko, R. Gomperts, B. Mennucci, H. P. Hratchian, 
 J. V. Ortiz, A. F. Izmaylov, J. L. Sonnenberg, D. Williams-Young, 
 F. Ding, F. Lipparini, F. Egidi, J. Goings, B. Peng, A. Petrone, 
 T. Henderson, D. Ranasinghe, V. G. Zakrzewski, J. Gao, N. Rega, 
 G. Zheng, W. Liang, M. Hada, M. Ehara, K. Toyota, R. Fukuda, 
 J. Hasegawa, M. Ishida, T. Nakajima, Y. Honda, O. Kitao, H. Nakai, 
 T. Vreven, K. Throssell, J. A. Montgomery, Jr., J. E. Peralta, 
 F. Ogliaro, M. J. Bearpark, J. J. Heyd, E. N. Brothers, K. N. Kudin, 
 V. N. Staroverov, T. A. Keith, R. Kobayashi, J. Normand, 
 K. Raghavachari, A. P. Rendell, J. C. Burant, S. S. Iyengar, 
 J. Tomasi, M. Cossi, J. M. Millam, M. Klene, C. Adamo, R. Cammi, 
 J. W. Ochterski, R. L. Martin, K. Morokuma, O. Farkas, 
 J. B. Foresman, and D. J. Fox, Gaussian, Inc., Wallingford CT, 2016.
 
 ******************************************
 Gaussian 16:  ES64L-G16RevA.03 25-Dec-2016
                24-Jan-2024 
 ******************************************
 %chk=097-rad-PCM.chk
 %nproc=8
 Will use up to    8 processors via shared memory.
 %mem=30GB
 ----------------------------------------------------------------
 #P UB3LYP/6-311++G(d,p) SCRF=(PCM,Solvent=n,n-DiMethylFormamide)
 ----------------------------------------------------------------
 1/38=1,172=1/1;
 2/12=2,17=6,18=5,40=1/2;
 3/5=4,6=6,7=1111,11=2,25=1,30=1,70=2201,72=148,74=-5,116=2/1,2,3;
 4//1;
 5/5=2,38=5,53=148/2;
 6/7=2,8=2,9=2,10=2,28=1/1;
 99/5=1,9=1/99;
 Leave Link    1 at Wed Jan 24 22:47:47 2024, MaxMem=  4026531840 cpu:               0.6 elap:               0.2
 (Enter /sysapps/ubuntu-applications/gaussian/Gaussian/AVX2/g16/l101.exe)
 ------------------
 Radical PCM in DMF
 ------------------
 Symbolic Z-matrix:
 Charge = -1 Multiplicity = 2
 C                     1.19843   4.2488    5.34304 
 C                     1.45676   4.00308   3.93749 
 C                     0.97559   2.91238   3.28613 
 C                     0.16088   1.90225   3.93852 
 C                    -0.08759   2.13423   5.35647 
 C                     0.40078   3.23919   6.03217 
 O                     1.62998   5.26924   5.9359 
 O                    -0.30435   0.9234    3.30858 
 H                     2.05725   4.74957   3.42639 
 H                     1.17284   2.74577   2.23155 
 S                    -1.08579   0.89264   6.2053 
 C                     0.23385   3.5103    7.50284 
 O                     1.0108    3.16581   8.35624 
 O                    -0.84901   4.28224   7.74202 
 C                    -1.07072   4.60468   9.11946 
 H                    -1.96226   5.23074   9.13446 
 H                    -0.21661   5.14723   9.52972 
 H                    -1.23241   3.69284   9.69795 
 C                    -2.68047   0.88853   5.33716 
 C                    -2.91164  -0.02545   4.31331 
 C                    -3.6627    1.7866    5.74855 
 C                    -4.15959  -0.03861   3.693 
 C                    -4.90414   1.77027   5.11516 
 C                    -5.15283   0.85698   4.09022 
 O                    -0.49834  -0.44507   6.06518 
 O                    -1.37788   1.40266   7.55862 
 H                    -2.11506  -0.68971   4.00962 
 H                    -3.45112   2.47613   6.55637 
 H                    -4.35248  -0.74467   2.89251 
 H                    -5.6763    2.4659    5.4258 
 H                    -6.12045   0.84529   3.59902 
 
 ITRead=  0  0  0  0  0  0  0  0  0  0  0  0  0  0  0  0  0  0  0  0
 ITRead=  0  0  0  0  0  0  0  0  0  0  0
 MicOpt= -1 -1 -1 -1 -1 -1 -1 -1 -1 -1 -1 -1 -1 -1 -1 -1 -1 -1 -1 -1
 MicOpt= -1 -1 -1 -1 -1 -1 -1 -1 -1 -1 -1
 NAtoms=     31 NQM=       31 NQMF=       0 NMMI=      0 NMMIF=      0
                NMic=       0 NMicF=      0.
                    Isotopes and Nuclear Properties:
 (Nuclear quadrupole moments (NQMom) in fm**2, nuclear magnetic moments (NMagM)
  in nuclear magnetons)

  Atom         1           2           3           4           5           6           7           8           9          10
 IAtWgt=          12          12          12          12          12          12          16          16           1           1
 AtmWgt=  12.0000000  12.0000000  12.0000000  12.0000000  12.0000000  12.0000000  15.9949146  15.9949146   1.0078250   1.0078250
 NucSpn=           0           0           0           0           0           0           0           0           1           1
 AtZEff=  -0.0000000  -0.0000000  -0.0000000  -0.0000000  -0.0000000  -0.0000000  -0.0000000  -0.0000000  -0.0000000  -0.0000000
 NQMom=    0.0000000   0.0000000   0.0000000   0.0000000   0.0000000   0.0000000   0.0000000   0.0000000   0.0000000   0.0000000
 NMagM=    0.0000000   0.0000000   0.0000000   0.0000000   0.0000000   0.0000000   0.0000000   0.0000000   2.7928460   2.7928460
 AtZNuc=   6.0000000   6.0000000   6.0000000   6.0000000   6.0000000   6.0000000   8.0000000   8.0000000   1.0000000   1.0000000

  Atom        11          12          13          14          15          16          17          18          19          20
 IAtWgt=          32          12          16          16          12           1           1           1          12          12
 AtmWgt=  31.9720718  12.0000000  15.9949146  15.9949146  12.0000000   1.0078250   1.0078250   1.0078250  12.0000000  12.0000000
 NucSpn=           0           0           0           0           0           1           1           1           0           0
 AtZEff=  -0.0000000  -0.0000000  -0.0000000  -0.0000000  -0.0000000  -0.0000000  -0.0000000  -0.0000000  -0.0000000  -0.0000000
 NQMom=    0.0000000   0.0000000   0.0000000   0.0000000   0.0000000   0.0000000   0.0000000   0.0000000   0.0000000   0.0000000
 NMagM=    0.0000000   0.0000000   0.0000000   0.0000000   0.0000000   2.7928460   2.7928460   2.7928460   0.0000000   0.0000000
 AtZNuc=  16.0000000   6.0000000   8.0000000   8.0000000   6.0000000   1.0000000   1.0000000   1.0000000   6.0000000   6.0000000

  Atom        21          22          23          24          25          26          27          28          29          30
 IAtWgt=          12          12          12          12          16          16           1           1           1           1
 AtmWgt=  12.0000000  12.0000000  12.0000000  12.0000000  15.9949146  15.9949146   1.0078250   1.0078250   1.0078250   1.0078250
 NucSpn=           0           0           0           0           0           0           1           1           1           1
 AtZEff=  -0.0000000  -0.0000000  -0.0000000  -0.0000000  -0.0000000  -0.0000000  -0.0000000  -0.0000000  -0.0000000  -0.0000000
 NQMom=    0.0000000   0.0000000   0.0000000   0.0000000   0.0000000   0.0000000   0.0000000   0.0000000   0.0000000   0.0000000
 NMagM=    0.0000000   0.0000000   0.0000000   0.0000000   0.0000000   0.0000000   2.7928460   2.7928460   2.7928460   2.7928460
 AtZNuc=   6.0000000   6.0000000   6.0000000   6.0000000   8.0000000   8.0000000   1.0000000   1.0000000   1.0000000   1.0000000

  Atom        31
 IAtWgt=           1
 AtmWgt=   1.0078250
 NucSpn=           1
 AtZEff=  -0.0000000
 NQMom=    0.0000000
 NMagM=    2.7928460
 AtZNuc=   1.0000000
 Leave Link  101 at Wed Jan 24 22:47:48 2024, MaxMem=  4026531840 cpu:               1.3 elap:               0.4
 (Enter /sysapps/ubuntu-applications/gaussian/Gaussian/AVX2/g16/l202.exe)
                          Input orientation:                          
 ---------------------------------------------------------------------
 Center     Atomic      Atomic             Coordinates (Angstroms)
 Number     Number       Type             X           Y           Z
 ---------------------------------------------------------------------
      1          6           0        1.198426    4.248795    5.343036
      2          6           0        1.456757    4.003082    3.937491
      3          6           0        0.975586    2.912380    3.286132
      4          6           0        0.160876    1.902253    3.938521
      5          6           0       -0.087585    2.134234    5.356471
      6          6           0        0.400775    3.239191    6.032168
      7          8           0        1.629979    5.269236    5.935902
      8          8           0       -0.304354    0.923397    3.308579
      9          1           0        2.057254    4.749574    3.426393
     10          1           0        1.172837    2.745769    2.231553
     11         16           0       -1.085791    0.892635    6.205302
     12          6           0        0.233851    3.510297    7.502835
     13          8           0        1.010802    3.165809    8.356244
     14          8           0       -0.849008    4.282244    7.742017
     15          6           0       -1.070719    4.604676    9.119462
     16          1           0       -1.962255    5.230743    9.134463
     17          1           0       -0.216612    5.147227    9.529720
     18          1           0       -1.232409    3.692843    9.697949
     19          6           0       -2.680468    0.888533    5.337159
     20          6           0       -2.911643   -0.025448    4.313310
     21          6           0       -3.662699    1.786598    5.748550
     22          6           0       -4.159587   -0.038607    3.692995
     23          6           0       -4.904135    1.770265    5.115164
     24          6           0       -5.152830    0.856975    4.090218
     25          8           0       -0.498343   -0.445068    6.065184
     26          8           0       -1.377881    1.402661    7.558617
     27          1           0       -2.115056   -0.689712    4.009621
     28          1           0       -3.451119    2.476125    6.556372
     29          1           0       -4.352482   -0.744667    2.892509
     30          1           0       -5.676298    2.465903    5.425802
     31          1           0       -6.120447    0.845285    3.599019
 ---------------------------------------------------------------------
                    Distance matrix (angstroms):
                    1          2          3          4          5
     1  C    0.000000
     2  C    1.450057   0.000000
     3  C    2.463030   1.358464   0.000000
     4  C    2.924967   2.468358   1.452488   0.000000
     5  C    2.474949   2.809108   2.454006   1.458126   0.000000
     6  C    1.459606   2.467043   2.824522   2.495659   1.384194
     7  O    1.256594   2.372087   3.606145   4.181431   3.621326
     8  O    4.177994   3.602985   2.365334   1.253565   2.388928
     9  H    2.159140   1.085849   2.136577   3.459156   3.894296
    10  H    3.455585   2.138147   1.085727   2.156229   3.424580
    11  S    4.150296   4.613285   4.104899   2.777013   1.805131
    12  C    2.478006   3.801317   4.322992   3.910942   2.569776
    13  O    3.207411   4.519434   5.076564   4.672818   3.356969
    14  O    3.154079   4.457455   5.006055   4.599000   3.299173
    15  C    4.420075   5.796799   6.409288   5.971772   4.607574
    16  H    5.032797   6.340766   6.943248   6.525668   5.232206
    17  H    4.509749   5.948299   6.737824   6.475636   5.148862
    18  H    5.018297   6.364805   6.826109   6.190191   4.752717
    19  C    5.131980   5.364337   4.655040   3.325215   2.876662
    20  C    6.018485   5.954260   4.979606   3.646487   3.705093
    21  C    5.464192   5.865285   5.370715   4.231939   3.613311
    22  C    7.057815   6.923752   5.936654   4.742744   4.906077
    23  C    6.590621   6.843488   6.262659   5.201562   4.836306
    24  C    7.308382   7.321745   6.513734   5.417665   5.375081
    25  O    5.043101   5.304294   4.600875   3.235302   2.706251
    26  O    4.432453   5.282984   5.106093   3.965156   2.655091
    27  H    6.094753   5.897912   4.801101   3.450102   3.728178
    28  H    5.121798   5.768655   5.520915   4.497664   3.587480
    29  H    7.858265   7.574983   6.474353   5.335797   5.705132
    30  H    7.102632   7.447044   7.001792   6.049984   5.598975
    31  H    8.257807   8.215855   7.397599   6.378672   6.414472
                    6          7          8          9         10
     6  C    0.000000
     7  O    2.375140   0.000000
     8  O    3.643905   5.434224   0.000000
     9  H    3.437331   2.598124   4.497855   0.000000
    10  H    3.909504   4.505448   2.581302   2.495009   0.000000
    11  S    2.783196   5.157773   3.000432   5.698864   4.932158
    12  C    1.504734   2.738306   4.957166   4.634435   5.408568
    13  O    2.403923   3.265860   5.677761   5.282689   6.141216
    14  O    2.360826   3.222046   5.588727   5.223923   6.067440
    15  C    3.682557   4.227347   6.921379   6.497403   7.478795
    16  H    4.378861   4.810033   7.432549   6.997860   7.978350
    17  H    4.031704   4.042315   7.520042   6.525274   7.807740
    18  H    4.038693   4.983099   7.025323   7.160376   7.901217
    19  C    3.937345   6.174869   3.124463   6.403489   5.286026
    20  C    4.958271   7.161900   2.950889   6.948194   5.356896
    21  C    4.324614   6.338478   4.239936   6.847591   6.055715
    22  C    6.083797   8.168409   3.991998   7.851552   6.190582
    23  C    5.580386   7.457282   5.013873   7.758168   6.796794
    24  C    6.347334   8.299464   4.911526   8.220602   6.858297
    25  O    3.792528   6.099159   3.083699   6.362279   5.260324
    26  O    2.977668   5.160507   4.409646   6.330660   6.057038
    27  H    5.084917   7.296911   2.524326   6.879982   5.076839
    28  H    3.961584   5.831296   4.781344   6.731085   6.337013
    29  H    6.951405   9.012165   4.398055   8.459103   6.568802
    30  H    6.156011   7.842229   5.976599   8.307865   7.562553
    31  H    7.360526   9.225046   5.823864   9.063557   7.659882
                   11         12         13         14         15
    11  S    0.000000
    12  C    3.205807   0.000000
    13  O    3.766905   1.204422   0.000000
    14  O    3.729210   1.351182   2.254461   0.000000
    15  C    4.719301   2.347989   2.643023   1.431947   0.000000
    16  H    5.307293   3.231877   3.702519   2.019375   1.089505
    17  H    5.468892   2.643997   2.609523   2.084227   1.091866
    18  H    4.478978   2.646085   2.666446   2.078475   1.091893
    19  C    1.815677   4.478510   5.284537   4.544762   5.541374
    20  C    2.785004   5.706899   6.474180   5.879346   6.922871
    21  C    2.765546   4.607793   5.526654   4.256644   5.101272
    22  C    4.077637   6.812628   7.664665   6.784119   7.781242
    23  C    4.066741   5.926853   6.887570   5.445590   6.226023
    24  C    4.584284   6.906693   7.843472   6.602347   7.483461
    25  O    1.467712   4.271751   4.534855   5.028142   5.929262
    26  O    1.475434   2.653850   3.074200   2.933486   3.575400
    27  H    2.895552   5.946426   6.597663   6.344604   7.431801
    28  H    2.868008   3.942627   4.860447   3.382130   4.094687
    29  H    4.932203   7.771375   8.597037   7.814211   8.840836
    30  H    4.914829   6.350959   7.334485   5.653908   6.279238
    31  H    5.669454   7.919544   8.880920   7.534268   8.373056
                   16         17         18         19         20
    16  H    0.000000
    17  H    1.791779   0.000000
    18  H    1.793134   1.781959   0.000000
    19  C    5.812928   6.464103   5.383077   0.000000
    20  C    7.195304   7.825004   6.755727   1.391787   0.000000
    21  C    5.120357   6.120996   5.013764   1.393033   2.430537
    22  C    7.886944   8.746844   7.651899   2.398053   1.393674
    23  C    6.065009   7.270836   6.178980   2.402380   2.799568
    24  C    7.399596   8.506509   7.406652   2.769193   2.418958
    25  O    6.616520   6.584538   5.555011   2.658981   3.011505
    26  O    4.180789   4.388117   3.137330   2.626011   3.863151
    27  H    7.831931   8.255025   7.234841   2.138435   1.080752
    28  H    4.056007   5.141753   4.033929   2.144955   3.402974
    29  H    8.965528   9.791446   8.702894   3.382201   2.147549
    30  H    5.932337   7.337562   6.285282   3.386879   3.884300
    31  H    8.195361   9.409314   8.318561   3.854407   3.400707
                   21         22         23         24         25
    21  C    0.000000
    22  C    2.793488   0.000000
    23  C    1.393775   2.418457   0.000000
    24  C    2.415524   1.395129   1.395157   0.000000
    25  O    3.885066   4.381461   5.022075   5.221116   0.000000
    26  O    2.940092   4.975759   4.305817   5.155367   2.533383
    27  H    3.398703   2.168939   3.879778   3.409810   2.626585
    28  H    1.082954   3.876175   2.164850   3.405787   4.182526
    29  H    3.878153   1.084669   3.401382   2.154140   5.001001
    30  H    2.149466   3.402294   1.084732   2.155563   5.974427
    31  H    3.398099   2.152921   2.152603   1.085217   6.273359
                   26         27         28         29         30
    26  O    0.000000
    27  H    4.185311   0.000000
    28  H    2.540696   4.277094   0.000000
    29  H    5.935641   2.501406   4.960831   0.000000
    30  H    4.914852   4.964466   2.495940   4.298584   0.000000
    31  H    6.203307   4.309056   4.304752   2.480485   2.482097
                   31
    31  H    0.000000
 Stoichiometry    C14H10O6S(1-,2)
 Framework group  C1[X(C14H10O6S)]
 Deg. of freedom    87
 Full point group                 C1      NOp   1
 Largest Abelian subgroup         C1      NOp   1
 Largest concise Abelian subgroup C1      NOp   1
                         Standard orientation:                         
 ---------------------------------------------------------------------
 Center     Atomic      Atomic             Coordinates (Angstroms)
 Number     Number       Type             X           Y           Z
 ---------------------------------------------------------------------
      1          6           0       -2.666791    1.278083   -0.764091
      2          6           0       -2.182669    2.624588   -0.999072
      3          6           0       -0.950887    3.037618   -0.602154
      4          6           0       -0.013860    2.168107    0.087521
      5          6           0       -0.501542    0.817880    0.342833
      6          6           0       -1.755961    0.386608   -0.052676
      7          8           0       -3.799747    0.895729   -1.150414
      8          8           0        1.132400    2.559316    0.410736
      9          1           0       -2.863215    3.290718   -1.520795
     10          1           0       -0.600596    4.047771   -0.791073
     11         16           0        0.630433   -0.288705    1.210357
     12          6           0       -2.344733   -0.969154    0.229247
     13          8           0       -3.014592   -1.239007    1.193146
     14          8           0       -2.115872   -1.827410   -0.788944
     15          6           0       -2.661087   -3.139285   -0.609504
     16          1           0       -2.399283   -3.691740   -1.511321
     17          1           0       -3.745622   -3.092280   -0.492257
     18          1           0       -2.221703   -3.612044    0.271217
     19          6           0        2.096768   -0.400734    0.145465
     20          6           0        3.183998    0.438698    0.369862
     21          6           0        2.114928   -1.364515   -0.860187
     22          6           0        4.315387    0.302399   -0.432454
     23          6           0        3.248408   -1.486024   -1.662102
     24          6           0        4.348169   -0.655008   -1.446694
     25          8           0        1.053563    0.286045    2.492855
     26          8           0        0.033604   -1.637985    1.198319
     27          1           0        3.120229    1.188113    1.145965
     28          1           0        1.254919   -2.007946   -0.998646
     29          1           0        5.169077    0.951342   -0.269379
     30          1           0        3.273567   -2.231802   -2.449392
     31          1           0        5.230101   -0.751920   -2.071593
 ---------------------------------------------------------------------
 Rotational constants (GHZ):           0.4467123           0.2402517           0.1985811
 Leave Link  202 at Wed Jan 24 22:47:48 2024, MaxMem=  4026531840 cpu:               0.9 elap:               0.3
 (Enter /sysapps/ubuntu-applications/gaussian/Gaussian/AVX2/g16/l301.exe)
 Standard basis: 6-311++G(d,p) (5D, 7F)
 Ernie: Thresh=  0.10000D-02 Tol=  0.10000D-05 Strict=F.
 There are   561 symmetry adapted cartesian basis functions of A   symmetry.
 There are   540 symmetry adapted basis functions of A   symmetry.
   540 basis functions,   860 primitive gaussians,   561 cartesian basis functions
    80 alpha electrons       79 beta electrons
       nuclear repulsion energy      1869.6307644639 Hartrees.
 IExCor=  402 DFT=T Ex+Corr=B3LYP ExCW=0 ScaHFX=  0.200000
 ScaDFX=  0.800000  0.720000  1.000000  0.810000 ScalE2=  1.000000  1.000000
 IRadAn=      5 IRanWt=     -1 IRanGd=            0 ICorTp=0 IEmpDi=  4
 NAtoms=   31 NActive=   31 NUniq=   31 SFac= 1.00D+00 NAtFMM=   60 NAOKFM=F Big=F
 Integral buffers will be    131072 words long.
 Raffenetti 2 integral format.
 Two-electron integral symmetry is turned on.
 ------------------------------------------------------------------------------
 Polarizable Continuum Model (PCM)
 =================================
 Model                : PCM.
 Atomic radii         : UFF (Universal Force Field).
 Polarization charges : Total charges.
 Charge compensation  : None.
 Solution method      : On-the-fly selection.
 Cavity type          : Scaled VdW (van der Waals Surface) (Alpha=1.100).
 Cavity algorithm     : GePol (No added spheres)
                        Default sphere list used, NSphG=   31.
                        Lebedev-Laikov grids with approx.  5.0 points / Ang**2.
                        Smoothing algorithm: York/Karplus (Gamma=1.0000).
                        Polarization charges: spherical gaussians, with
                                              point-specific exponents (IZeta= 3).
                        Self-potential: point-specific (ISelfS= 7).
                        Self-field    : sphere-specific E.n sum rule (ISelfD= 2).
 Solvent              : n,n-DiMethylFormamide, Eps=  37.219000 Eps(inf)=   2.046330
 ------------------------------------------------------------------------------
 GePol: Number of generator spheres                  =      31
 GePol: Total number of spheres                      =      31
 GePol: Number of exposed spheres                    =      31 (100.00%)
 GePol: Number of points                             =    2650
 GePol: Average weight of points                     =       0.13
 GePol: Minimum weight of points                     =   0.13D-10
 GePol: Maximum weight of points                     =    0.20577
 GePol: Number of points with low weight             =     166
 GePol: Fraction of low-weight points (<1% of avg)   =       6.26%
 GePol: Cavity surface area                          =    336.579 Ang**2
 GePol: Cavity volume                                =    369.341 Ang**3
 Leave Link  301 at Wed Jan 24 22:47:48 2024, MaxMem=  4026531840 cpu:               1.0 elap:               0.2
 (Enter /sysapps/ubuntu-applications/gaussian/Gaussian/AVX2/g16/l302.exe)
 NPDir=0 NMtPBC=     1 NCelOv=     1 NCel=       1 NClECP=     1 NCelD=      1
         NCelK=      1 NCelE2=     1 NClLst=     1 CellRange=     0.0.
 One-electron integrals computed using PRISM.
 One-electron integral symmetry used in STVInt
 NBasis=   540 RedAO= T EigKep=  1.50D-06  NBF=   540
 NBsUse=   537 1.00D-06 EigRej=  6.84D-07 NBFU=   537
 Precomputing XC quadrature grid using
 IXCGrd= 4 IRadAn=           5 IRanWt=          -1 IRanGd=           0 AccXCQ= 0.00D+00.
 Generated NRdTot=       0 NPtTot=           0 NUsed=           0 NTot=          32
 NSgBfM=   557   556   557   557   557 MxSgAt=    31 MxSgA2=    31.
 Leave Link  302 at Wed Jan 24 22:47:51 2024, MaxMem=  4026531840 cpu:              16.8 elap:               2.7
 (Enter /sysapps/ubuntu-applications/gaussian/Gaussian/AVX2/g16/l303.exe)
 DipDrv:  MaxL=1.
 Leave Link  303 at Wed Jan 24 22:47:51 2024, MaxMem=  4026531840 cpu:               2.1 elap:               0.5
 (Enter /sysapps/ubuntu-applications/gaussian/Gaussian/AVX2/g16/l401.exe)
 ExpMin= 3.60D-02 ExpMax= 9.34D+04 ExpMxC= 3.17D+03 IAcc=3 IRadAn=         5 AccDes= 0.00D+00
 Harris functional with IExCor=  402 and IRadAn=       5 diagonalized for initial guess.
 HarFok:  IExCor=  402 AccDes= 0.00D+00 IRadAn=         5 IDoV= 1 UseB2=F ITyADJ=14
 ICtDFT=  3500011 ScaDFX=  1.000000  1.000000  1.000000  1.000000
 FoFCou: FMM=F IPFlag=           0 FMFlag=      100000 FMFlg1=           0
         NFxFlg=           0 DoJE=T BraDBF=F KetDBF=T FulRan=T
         wScrn=  0.000000 ICntrl=       500 IOpCl=  0 I1Cent=   200000004 NGrid=           0
         NMat0=    1 NMatS0=      1 NMatT0=    0 NMatD0=    1 NMtDS0=    0 NMtDT0=    0
 Petite list used in FoFCou.
 Harris En= -1389.55053200172    
 JPrj=0 DoOrth=F DoCkMO=F.
 Initial guess <Sx>= 0.0000 <Sy>= 0.0000 <Sz>= 0.5000 <S**2>= 0.7500 S= 0.5000
 Leave Link  401 at Wed Jan 24 22:47:59 2024, MaxMem=  4026531840 cpu:              48.9 elap:               7.2
 (Enter /sysapps/ubuntu-applications/gaussian/Gaussian/AVX2/g16/l502.exe)
 Integral symmetry usage will be decided dynamically.
 UHF open shell SCF:
 Using DIIS extrapolation, IDIIS=  1040.
 NGot=  4026531840 LenX=  4025892688 LenY=  4025577406
 Requested convergence on RMS density matrix=1.00D-08 within 128 cycles.
 Requested convergence on MAX density matrix=1.00D-06.
 Requested convergence on             energy=1.00D-06.
 No special actions if energy rises.
 Fock matrices will be formed incrementally for  20 cycles.

 Cycle   1  Pass 1  IDiag  1:
 FoFJK:  IHMeth= 1 ICntrl=       0 DoSepK=F KAlg= 0 I1Cent=           0 FoldK=F
 IRaf= 840000000 NMat=       1 IRICut=       1 DoRegI=T DoRafI=F ISym2E= 0 IDoP0=0 IntGTp=1.
 FoFCou: FMM=F IPFlag=           0 FMFlag=      100000 FMFlg1=           0
         NFxFlg=           0 DoJE=F BraDBF=F KetDBF=F FulRan=T
         wScrn=  0.000000 ICntrl=         0 IOpCl=  1 I1Cent=           0 NGrid=           0
         NMat0=    1 NMatS0=      1 NMatT0=    0 NMatD0=    1 NMtDS0=    0 NMtDT0=    0
 Symmetry not used in FoFCou.
 Inv3:  Mode=1 IEnd=    21067500.
 Iteration    1 A*A^-1 deviation from unit magnitude is 3.33D-15 for   2358.
 Iteration    1 A*A^-1 deviation from orthogonality  is 1.81D-15 for   1987    117.
 Iteration    1 A^-1*A deviation from unit magnitude is 3.55D-15 for    370.
 Iteration    1 A^-1*A deviation from orthogonality  is 2.00D-15 for   2362   1797.
 E= -1388.68780572746    
 DIIS: error= 2.22D-02 at cycle   1 NSaved=   1.
 NSaved= 1 IEnMin= 1 EnMin= -1388.68780572746     IErMin= 1 ErrMin= 2.22D-02
 ErrMax= 2.22D-02  0.00D+00 EMaxC= 1.00D-01 BMatC= 4.00D+00 BMatP= 4.00D+00
 IDIUse=3 WtCom= 7.78D-01 WtEn= 2.22D-01
 Coeff-Com:  0.100D+01
 Coeff-En:   0.100D+01
 Coeff:      0.100D+01
 Gap=     0.113 Goal=   None    Shift=    0.000
 Gap=     0.132 Goal=   None    Shift=    0.000
 GapD=    0.113 DampG=1.000 DampE=0.500 DampFc=0.5000 IDamp=-1.
 Damping current iteration by 5.00D-01
 RMSDP=3.19D-01 MaxDP=4.74D+01              OVMax= 4.51D-01

 Cycle   2  Pass 1  IDiag  1:
 RMSU=  9.44D-02    CP:  2.14D+00
 E= -1388.75602698477     Delta-E=       -0.068221257311 Rises=F Damp=T
 DIIS: error= 1.80D-02 at cycle   2 NSaved=   2.
 NSaved= 2 IEnMin= 2 EnMin= -1388.75602698477     IErMin= 2 ErrMin= 1.80D-02
 ErrMax= 1.80D-02  0.00D+00 EMaxC= 1.00D-01 BMatC= 8.83D-01 BMatP= 4.00D+00
 IDIUse=3 WtCom= 8.20D-01 WtEn= 1.80D-01
 Coeff-Com:  0.278D+00 0.722D+00
 Coeff-En:   0.460D+00 0.540D+00
 Coeff:      0.311D+00 0.689D+00
 Gap=     0.154 Goal=   None    Shift=    0.000
 Gap=     0.191 Goal=   None    Shift=    0.000
 RMSDP=1.25D-01 MaxDP=1.89D+01 DE=-6.82D-02 OVMax= 4.26D-01

 Cycle   3  Pass 1  IDiag  1:
 RMSU=  1.24D-02    CP:  1.21D+00  3.07D-01
 E= -1389.32160752621     Delta-E=       -0.565580541437 Rises=F Damp=F
 DIIS: error= 1.46D-02 at cycle   3 NSaved=   3.
 NSaved= 3 IEnMin= 3 EnMin= -1389.32160752621     IErMin= 3 ErrMin= 1.46D-02
 ErrMax= 1.46D-02  0.00D+00 EMaxC= 1.00D-01 BMatC= 4.01D-01 BMatP= 8.83D-01
 IDIUse=3 WtCom= 8.54D-01 WtEn= 1.46D-01
 Coeff-Com:  0.946D-01 0.407D+00 0.498D+00
 Coeff-En:   0.000D+00 0.000D+00 0.100D+01
 Coeff:      0.808D-01 0.348D+00 0.571D+00
 Gap=     0.126 Goal=   None    Shift=    0.000
 Gap=     0.165 Goal=   None    Shift=    0.000
 RMSDP=2.57D-02 MaxDP=3.54D+00 DE=-5.66D-01 OVMax= 1.36D-01

 Cycle   4  Pass 1  IDiag  1:
 RMSU=  1.17D-02    CP:  1.39D+00  4.07D-01  8.24D-01
 E= -1389.39779908179     Delta-E=       -0.076191555582 Rises=F Damp=F
 DIIS: error= 8.17D-03 at cycle   4 NSaved=   4.
 NSaved= 4 IEnMin= 4 EnMin= -1389.39779908179     IErMin= 4 ErrMin= 8.17D-03
 ErrMax= 8.17D-03  0.00D+00 EMaxC= 1.00D-01 BMatC= 1.05D-01 BMatP= 4.01D-01
 IDIUse=3 WtCom= 9.18D-01 WtEn= 8.17D-02
 Coeff-Com:  0.200D-01 0.963D-01 0.351D+00 0.533D+00
 Coeff-En:   0.000D+00 0.000D+00 0.222D+00 0.778D+00
 Coeff:      0.183D-01 0.884D-01 0.340D+00 0.553D+00
 Gap=     0.129 Goal=   None    Shift=    0.000
 Gap=     0.142 Goal=   None    Shift=    0.000
 RMSDP=5.48D-03 MaxDP=6.83D-01 DE=-7.62D-02 OVMax= 5.01D-02

 Cycle   5  Pass 1  IDiag  1:
 RMSU=  1.96D-03    CP:  1.37D+00  4.20D-01  9.77D-01  6.46D-01
 E= -1389.42022127732     Delta-E=       -0.022422195530 Rises=F Damp=F
 DIIS: error= 1.79D-03 at cycle   5 NSaved=   5.
 NSaved= 5 IEnMin= 5 EnMin= -1389.42022127732     IErMin= 5 ErrMin= 1.79D-03
 ErrMax= 1.79D-03  0.00D+00 EMaxC= 1.00D-01 BMatC= 7.01D-03 BMatP= 1.05D-01
 IDIUse=3 WtCom= 9.82D-01 WtEn= 1.79D-02
 Coeff-Com:  0.994D-03 0.128D-01 0.143D+00 0.314D+00 0.529D+00
 Coeff-En:   0.000D+00 0.000D+00 0.000D+00 0.000D+00 0.100D+01
 Coeff:      0.976D-03 0.126D-01 0.141D+00 0.309D+00 0.537D+00
 Gap=     0.127 Goal=   None    Shift=    0.000
 Gap=     0.135 Goal=   None    Shift=    0.000
 RMSDP=3.77D-03 MaxDP=5.53D-01 DE=-2.24D-02 OVMax= 1.41D-02

 Cycle   6  Pass 1  IDiag  1:
 RMSU=  8.58D-04    CP:  1.34D+00  4.01D-01  9.26D-01  6.44D-01  6.90D-01
 E= -1389.42143671902     Delta-E=       -0.001215441700 Rises=F Damp=F
 DIIS: error= 7.80D-04 at cycle   6 NSaved=   6.
 NSaved= 6 IEnMin= 6 EnMin= -1389.42143671902     IErMin= 6 ErrMin= 7.80D-04
 ErrMax= 7.80D-04  0.00D+00 EMaxC= 1.00D-01 BMatC= 1.06D-03 BMatP= 7.01D-03
 IDIUse=3 WtCom= 9.92D-01 WtEn= 7.80D-03
 Coeff-Com: -0.115D-02-0.283D-02 0.454D-01 0.120D+00 0.330D+00 0.509D+00
 Coeff-En:   0.000D+00 0.000D+00 0.000D+00 0.000D+00 0.732D-01 0.927D+00
 Coeff:     -0.115D-02-0.280D-02 0.450D-01 0.119D+00 0.328D+00 0.512D+00
 Gap=     0.128 Goal=   None    Shift=    0.000
 Gap=     0.134 Goal=   None    Shift=    0.000
 RMSDP=5.74D-04 MaxDP=7.49D-02 DE=-1.22D-03 OVMax= 4.18D-03

 Cycle   7  Pass 1  IDiag  1:
 RMSU=  2.84D-04    CP:  1.34D+00  4.03D-01  9.42D-01  6.57D-01  7.54D-01
                    CP:  5.60D-01
 E= -1389.42163037615     Delta-E=       -0.000193657125 Rises=F Damp=F
 DIIS: error= 1.94D-04 at cycle   7 NSaved=   7.
 NSaved= 7 IEnMin= 7 EnMin= -1389.42163037615     IErMin= 7 ErrMin= 1.94D-04
 ErrMax= 1.94D-04  0.00D+00 EMaxC= 1.00D-01 BMatC= 8.89D-05 BMatP= 1.06D-03
 IDIUse=3 WtCom= 9.98D-01 WtEn= 1.94D-03
 Coeff-Com: -0.334D-03-0.359D-02 0.379D-02 0.166D-01 0.985D-01 0.254D+00
 Coeff-Com:  0.631D+00
 Coeff-En:   0.000D+00 0.000D+00 0.000D+00 0.000D+00 0.000D+00 0.000D+00
 Coeff-En:   0.100D+01
 Coeff:     -0.334D-03-0.358D-02 0.378D-02 0.165D-01 0.983D-01 0.253D+00
 Coeff:      0.632D+00
 Gap=     0.128 Goal=   None    Shift=    0.000
 Gap=     0.135 Goal=   None    Shift=    0.000
 RMSDP=2.18D-04 MaxDP=2.07D-02 DE=-1.94D-04 OVMax= 2.19D-03

 Cycle   8  Pass 1  IDiag  1:
 RMSU=  9.11D-05    CP:  1.35D+00  4.01D-01  9.39D-01  6.61D-01  7.32D-01
                    CP:  6.61D-01  8.37D-01
 E= -1389.42165400003     Delta-E=       -0.000023623880 Rises=F Damp=F
 DIIS: error= 1.56D-04 at cycle   8 NSaved=   8.
 NSaved= 8 IEnMin= 8 EnMin= -1389.42165400003     IErMin= 8 ErrMin= 1.56D-04
 ErrMax= 1.56D-04  0.00D+00 EMaxC= 1.00D-01 BMatC= 2.44D-05 BMatP= 8.89D-05
 IDIUse=3 WtCom= 9.98D-01 WtEn= 1.56D-03
 Coeff-Com:  0.241D-03-0.137D-02-0.710D-02-0.171D-01-0.133D-01 0.156D-01
 Coeff-Com:  0.345D+00 0.678D+00
 Coeff-En:   0.000D+00 0.000D+00 0.000D+00 0.000D+00 0.000D+00 0.000D+00
 Coeff-En:   0.000D+00 0.100D+01
 Coeff:      0.241D-03-0.137D-02-0.709D-02-0.170D-01-0.133D-01 0.156D-01
 Coeff:      0.345D+00 0.678D+00
 Gap=     0.129 Goal=   None    Shift=    0.000
 Gap=     0.135 Goal=   None    Shift=    0.000
 RMSDP=9.89D-05 MaxDP=1.02D-02 DE=-2.36D-05 OVMax= 1.08D-03

 Cycle   9  Pass 1  IDiag  1:
 RMSU=  4.61D-05    CP:  1.35D+00  4.02D-01  9.40D-01  6.58D-01  7.51D-01
                    CP:  6.40D-01  8.69D-01  7.16D-01
 E= -1389.42166148927     Delta-E=       -0.000007489242 Rises=F Damp=F
 DIIS: error= 7.14D-05 at cycle   9 NSaved=   9.
 NSaved= 9 IEnMin= 9 EnMin= -1389.42166148927     IErMin= 9 ErrMin= 7.14D-05
 ErrMax= 7.14D-05  0.00D+00 EMaxC= 1.00D-01 BMatC= 7.58D-06 BMatP= 2.44D-05
 IDIUse=1 WtCom= 1.00D+00 WtEn= 0.00D+00
 Coeff-Com:  0.267D-03 0.394D-03-0.566D-02-0.173D-01-0.441D-01-0.925D-01
 Coeff-Com: -0.113D-01 0.435D+00 0.735D+00
 Coeff:      0.267D-03 0.394D-03-0.566D-02-0.173D-01-0.441D-01-0.925D-01
 Coeff:     -0.113D-01 0.435D+00 0.735D+00
 Gap=     0.129 Goal=   None    Shift=    0.000
 Gap=     0.135 Goal=   None    Shift=    0.000
 RMSDP=7.37D-05 MaxDP=1.03D-02 DE=-7.49D-06 OVMax= 7.87D-04

 Cycle  10  Pass 1  IDiag  1:
 RMSU=  2.22D-05    CP:  1.35D+00  4.02D-01  9.39D-01  6.59D-01  7.49D-01
                    CP:  6.64D-01  8.92D-01  9.51D-01  7.99D-01
 E= -1389.42166431213     Delta-E=       -0.000002822866 Rises=F Damp=F
 DIIS: error= 1.96D-05 at cycle  10 NSaved=  10.
 NSaved=10 IEnMin=10 EnMin= -1389.42166431213     IErMin=10 ErrMin= 1.96D-05
 ErrMax= 1.96D-05  0.00D+00 EMaxC= 1.00D-01 BMatC= 6.74D-07 BMatP= 7.58D-06
 IDIUse=1 WtCom= 1.00D+00 WtEn= 0.00D+00
 Coeff-Com:  0.388D-04 0.340D-03-0.113D-02-0.430D-02-0.161D-01-0.417D-01
 Coeff-Com: -0.496D-01 0.766D-01 0.300D+00 0.736D+00
 Coeff:      0.388D-04 0.340D-03-0.113D-02-0.430D-02-0.161D-01-0.417D-01
 Coeff:     -0.496D-01 0.766D-01 0.300D+00 0.736D+00
 Gap=     0.129 Goal=   None    Shift=    0.000
 Gap=     0.135 Goal=   None    Shift=    0.000
 RMSDP=3.02D-05 MaxDP=3.92D-03 DE=-2.82D-06 OVMax= 3.19D-04

 Cycle  11  Pass 1  IDiag  1:
 RMSU=  7.59D-06    CP:  1.34D+00  4.02D-01  9.40D-01  6.58D-01  7.50D-01
                    CP:  6.51D-01  9.13D-01  9.14D-01  8.56D-01  8.48D-01
 E= -1389.42166449747     Delta-E=       -0.000000185341 Rises=F Damp=F
 DIIS: error= 1.17D-05 at cycle  11 NSaved=  11.
 NSaved=11 IEnMin=11 EnMin= -1389.42166449747     IErMin=11 ErrMin= 1.17D-05
 ErrMax= 1.17D-05  0.00D+00 EMaxC= 1.00D-01 BMatC= 3.91D-07 BMatP= 6.74D-07
 IDIUse=1 WtCom= 1.00D+00 WtEn= 0.00D+00
 Coeff-Com: -0.215D-04 0.166D-03 0.217D-03 0.141D-03-0.320D-02-0.121D-01
 Coeff-Com: -0.301D-01-0.294D-01 0.629D-01 0.505D+00 0.506D+00
 Coeff:     -0.215D-04 0.166D-03 0.217D-03 0.141D-03-0.320D-02-0.121D-01
 Coeff:     -0.301D-01-0.294D-01 0.629D-01 0.505D+00 0.506D+00
 Gap=     0.129 Goal=   None    Shift=    0.000
 Gap=     0.135 Goal=   None    Shift=    0.000
 RMSDP=1.96D-05 MaxDP=2.61D-03 DE=-1.85D-07 OVMax= 8.02D-05

 Cycle  12  Pass 1  IDiag  1:
 RMSU=  4.74D-06    CP:  1.35D+00  4.02D-01  9.39D-01  6.59D-01  7.49D-01
                    CP:  6.58D-01  9.04D-01  9.54D-01  8.47D-01  1.05D+00
                    CP:  5.64D-01
 E= -1389.42166459129     Delta-E=       -0.000000093816 Rises=F Damp=F
 DIIS: error= 2.38D-06 at cycle  12 NSaved=  12.
 NSaved=12 IEnMin=12 EnMin= -1389.42166459129     IErMin=12 ErrMin= 2.38D-06
 ErrMax= 2.38D-06  0.00D+00 EMaxC= 1.00D-01 BMatC= 2.13D-08 BMatP= 3.91D-07
 IDIUse=1 WtCom= 1.00D+00 WtEn= 0.00D+00
 Coeff-Com: -0.124D-04 0.482D-04 0.218D-03 0.485D-03-0.848D-05-0.191D-02
 Coeff-Com: -0.902D-02-0.224D-01 0.142D-02 0.180D+00 0.245D+00 0.607D+00
 Coeff:     -0.124D-04 0.482D-04 0.218D-03 0.485D-03-0.848D-05-0.191D-02
 Coeff:     -0.902D-02-0.224D-01 0.142D-02 0.180D+00 0.245D+00 0.607D+00
 Gap=     0.129 Goal=   None    Shift=    0.000
 Gap=     0.135 Goal=   None    Shift=    0.000
 RMSDP=4.29D-06 MaxDP=4.52D-04 DE=-9.38D-08 OVMax= 2.72D-05

 Cycle  13  Pass 1  IDiag  1:
 RMSU=  1.26D-06    CP:  1.34D+00  4.02D-01  9.40D-01  6.59D-01  7.49D-01
                    CP:  6.54D-01  9.03D-01  9.41D-01  8.47D-01  1.03D+00
                    CP:  7.20D-01  8.31D-01
 E= -1389.42166459556     Delta-E=       -0.000000004265 Rises=F Damp=F
 DIIS: error= 2.44D-06 at cycle  13 NSaved=  13.
 NSaved=13 IEnMin=13 EnMin= -1389.42166459556     IErMin=12 ErrMin= 2.38D-06
 ErrMax= 2.44D-06  0.00D+00 EMaxC= 1.00D-01 BMatC= 7.45D-09 BMatP= 2.13D-08
 IDIUse=1 WtCom= 1.00D+00 WtEn= 0.00D+00
 Coeff-Com: -0.179D-05-0.154D-04 0.947D-04 0.307D-03 0.915D-03 0.195D-02
 Coeff-Com:  0.191D-02-0.782D-02-0.161D-01-0.169D-01 0.201D-01 0.389D+00
 Coeff-Com:  0.626D+00
 Coeff:     -0.179D-05-0.154D-04 0.947D-04 0.307D-03 0.915D-03 0.195D-02
 Coeff:      0.191D-02-0.782D-02-0.161D-01-0.169D-01 0.201D-01 0.389D+00
 Coeff:      0.626D+00
 Gap=     0.129 Goal=   None    Shift=    0.000
 Gap=     0.135 Goal=   None    Shift=    0.000
 RMSDP=2.00D-06 MaxDP=1.89D-04 DE=-4.26D-09 OVMax= 3.71D-05

 Cycle  14  Pass 1  IDiag  1:
 RMSU=  9.49D-07    CP:  1.34D+00  4.02D-01  9.40D-01  6.59D-01  7.49D-01
                    CP:  6.56D-01  9.03D-01  9.42D-01  8.45D-01  1.05D+00
                    CP:  6.75D-01  9.49D-01  8.63D-01
 E= -1389.42166459789     Delta-E=       -0.000000002336 Rises=F Damp=F
 DIIS: error= 4.80D-07 at cycle  14 NSaved=  14.
 NSaved=14 IEnMin=14 EnMin= -1389.42166459789     IErMin=14 ErrMin= 4.80D-07
 ErrMax= 4.80D-07  0.00D+00 EMaxC= 1.00D-01 BMatC= 6.65D-10 BMatP= 7.45D-09
 IDIUse=1 WtCom= 1.00D+00 WtEn= 0.00D+00
 Coeff-Com:  0.150D-05-0.122D-04 0.351D-05 0.405D-04 0.354D-03 0.946D-03
 Coeff-Com:  0.188D-02 0.224D-03-0.529D-02-0.305D-01-0.275D-01 0.358D-01
 Coeff-Com:  0.244D+00 0.780D+00
 Coeff:      0.150D-05-0.122D-04 0.351D-05 0.405D-04 0.354D-03 0.946D-03
 Coeff:      0.188D-02 0.224D-03-0.529D-02-0.305D-01-0.275D-01 0.358D-01
 Coeff:      0.244D+00 0.780D+00
 Gap=     0.129 Goal=   None    Shift=    0.000
 Gap=     0.135 Goal=   None    Shift=    0.000
 RMSDP=7.02D-07 MaxDP=9.35D-05 DE=-2.34D-09 OVMax= 8.24D-06

 Cycle  15  Pass 1  IDiag  1:
 RMSU=  3.26D-07    CP:  1.34D+00  4.02D-01  9.40D-01  6.59D-01  7.49D-01
                    CP:  6.56D-01  9.03D-01  9.42D-01  8.43D-01  1.05D+00
                    CP:  6.93D-01  9.89D-01  1.01D+00  1.05D+00
 E= -1389.42166459813     Delta-E=       -0.000000000241 Rises=F Damp=F
 DIIS: error= 4.23D-07 at cycle  15 NSaved=  15.
 NSaved=15 IEnMin=15 EnMin= -1389.42166459813     IErMin=15 ErrMin= 4.23D-07
 ErrMax= 4.23D-07  0.00D+00 EMaxC= 1.00D-01 BMatC= 2.63D-10 BMatP= 6.65D-10
 IDIUse=1 WtCom= 1.00D+00 WtEn= 0.00D+00
 Coeff-Com:  0.129D-05-0.350D-05-0.192D-04-0.459D-04 0.191D-04 0.143D-03
 Coeff-Com:  0.769D-03 0.206D-02 0.564D-03-0.157D-01-0.219D-01-0.728D-01
 Coeff-Com:  0.197D-01 0.475D+00 0.612D+00
 Coeff:      0.129D-05-0.350D-05-0.192D-04-0.459D-04 0.191D-04 0.143D-03
 Coeff:      0.769D-03 0.206D-02 0.564D-03-0.157D-01-0.219D-01-0.728D-01
 Coeff:      0.197D-01 0.475D+00 0.612D+00
 Gap=     0.129 Goal=   None    Shift=    0.000
 Gap=     0.135 Goal=   None    Shift=    0.000
 RMSDP=4.17D-07 MaxDP=5.93D-05 DE=-2.41D-10 OVMax= 7.14D-06

 Cycle  16  Pass 1  IDiag  1:
 RMSU=  1.58D-07    CP:  1.34D+00  4.02D-01  9.40D-01  6.59D-01  7.49D-01
                    CP:  6.55D-01  9.03D-01  9.41D-01  8.42D-01  1.05D+00
                    CP:  7.02D-01  9.90D-01  1.09D+00  1.11D+00  7.59D-01
 E= -1389.42166459828     Delta-E=       -0.000000000151 Rises=F Damp=F
 DIIS: error= 1.40D-07 at cycle  16 NSaved=  16.
 NSaved=16 IEnMin=16 EnMin= -1389.42166459828     IErMin=16 ErrMin= 1.40D-07
 ErrMax= 1.40D-07  0.00D+00 EMaxC= 1.00D-01 BMatC= 5.88D-11 BMatP= 2.63D-10
 IDIUse=1 WtCom= 1.00D+00 WtEn= 0.00D+00
 Coeff-Com:  0.165D-06 0.890D-06-0.121D-04-0.356D-04-0.688D-04-0.130D-03
 Coeff-Com:  0.364D-04 0.105D-02 0.136D-02-0.211D-02-0.504D-02-0.474D-01
 Coeff-Com: -0.376D-01 0.702D-01 0.344D+00 0.676D+00
 Coeff:      0.165D-06 0.890D-06-0.121D-04-0.356D-04-0.688D-04-0.130D-03
 Coeff:      0.364D-04 0.105D-02 0.136D-02-0.211D-02-0.504D-02-0.474D-01
 Coeff:     -0.376D-01 0.702D-01 0.344D+00 0.676D+00
 Gap=     0.129 Goal=   None    Shift=    0.000
 Gap=     0.135 Goal=   None    Shift=    0.000
 RMSDP=3.03D-07 MaxDP=3.85D-05 DE=-1.51D-10 OVMax= 2.75D-06

 Cycle  17  Pass 1  IDiag  1:
 RMSU=  6.46D-08    CP:  1.34D+00  4.02D-01  9.40D-01  6.59D-01  7.49D-01
                    CP:  6.55D-01  9.03D-01  9.41D-01  8.42D-01  1.05D+00
                    CP:  6.99D-01  9.97D-01  1.10D+00  1.22D+00  9.95D-01
                    CP:  9.04D-01
 E= -1389.42166459828     Delta-E=        0.000000000007 Rises=F Damp=F
 DIIS: error= 9.32D-08 at cycle  17 NSaved=  17.
 NSaved=17 IEnMin=16 EnMin= -1389.42166459828     IErMin=17 ErrMin= 9.32D-08
 ErrMax= 9.32D-08  0.00D+00 EMaxC= 1.00D-01 BMatC= 1.98D-11 BMatP= 5.88D-11
 IDIUse=1 WtCom= 1.00D+00 WtEn= 0.00D+00
 Coeff-Com: -0.448D-06 0.176D-05-0.140D-05-0.758D-05-0.535D-04-0.142D-03
 Coeff-Com: -0.242D-03-0.344D-04 0.702D-03 0.423D-02 0.503D-02-0.682D-02
 Coeff-Com: -0.313D-01-0.133D+00 0.347D-01 0.448D+00 0.678D+00
 Coeff:     -0.448D-06 0.176D-05-0.140D-05-0.758D-05-0.535D-04-0.142D-03
 Coeff:     -0.242D-03-0.344D-04 0.702D-03 0.423D-02 0.503D-02-0.682D-02
 Coeff:     -0.313D-01-0.133D+00 0.347D-01 0.448D+00 0.678D+00
 Gap=     0.129 Goal=   None    Shift=    0.000
 Gap=     0.135 Goal=   None    Shift=    0.000
 RMSDP=1.50D-07 MaxDP=1.38D-05 DE= 7.28D-12 OVMax= 2.50D-06

 Cycle  18  Pass 1  IDiag  1:
 RMSU=  3.93D-08    CP:  1.34D+00  4.02D-01  9.40D-01  6.59D-01  7.49D-01
                    CP:  6.55D-01  9.03D-01  9.41D-01  8.43D-01  1.04D+00
                    CP:  7.02D-01  9.93D-01  1.12D+00  1.25D+00  1.08D+00
                    CP:  9.66D-01  9.82D-01
 E= -1389.42166459829     Delta-E=       -0.000000000013 Rises=F Damp=F
 DIIS: error= 3.07D-08 at cycle  18 NSaved=  18.
 NSaved=18 IEnMin=18 EnMin= -1389.42166459829     IErMin=18 ErrMin= 3.07D-08
 ErrMax= 3.07D-08  0.00D+00 EMaxC= 1.00D-01 BMatC= 4.55D-12 BMatP= 1.98D-11
 IDIUse=1 WtCom= 1.00D+00 WtEn= 0.00D+00
 Coeff-Com: -0.242D-06 0.707D-06 0.251D-05 0.507D-05-0.116D-04-0.465D-04
 Coeff-Com: -0.144D-03-0.297D-03 0.391D-04 0.276D-02 0.423D-02 0.766D-02
 Coeff-Com: -0.787D-02-0.912D-01-0.623D-01 0.461D-01 0.380D+00 0.721D+00
 Coeff:     -0.242D-06 0.707D-06 0.251D-05 0.507D-05-0.116D-04-0.465D-04
 Coeff:     -0.144D-03-0.297D-03 0.391D-04 0.276D-02 0.423D-02 0.766D-02
 Coeff:     -0.787D-02-0.912D-01-0.623D-01 0.461D-01 0.380D+00 0.721D+00
 Gap=     0.129 Goal=   None    Shift=    0.000
 Gap=     0.135 Goal=   None    Shift=    0.000
 RMSDP=6.26D-08 MaxDP=5.81D-06 DE=-1.25D-11 OVMax= 1.18D-06

 Cycle  19  Pass 1  IDiag  1:
 RMSU=  1.45D-08    CP:  1.34D+00  4.02D-01  9.40D-01  6.59D-01  7.49D-01
                    CP:  6.55D-01  9.03D-01  9.41D-01  8.43D-01  1.04D+00
                    CP:  7.04D-01  9.96D-01  1.12D+00  1.25D+00  1.13D+00
                    CP:  1.05D+00  1.26D+00  8.19D-01
 E= -1389.42166459832     Delta-E=       -0.000000000029 Rises=F Damp=F
 DIIS: error= 1.54D-08 at cycle  19 NSaved=  19.
 NSaved=19 IEnMin=19 EnMin= -1389.42166459832     IErMin=19 ErrMin= 1.54D-08
 ErrMax= 1.54D-08  0.00D+00 EMaxC= 1.00D-01 BMatC= 1.49D-12 BMatP= 4.55D-12
 IDIUse=1 WtCom= 1.00D+00 WtEn= 0.00D+00
 Coeff-Com:  0.518D-08-0.105D-07 0.193D-05 0.466D-05 0.575D-05 0.372D-05
 Coeff-Com: -0.279D-04-0.173D-03-0.120D-03 0.641D-03 0.146D-02 0.667D-02
 Coeff-Com:  0.308D-02-0.235D-01-0.467D-01-0.960D-01 0.783D-01 0.475D+00
 Coeff-Com:  0.601D+00
 Coeff:      0.518D-08-0.105D-07 0.193D-05 0.466D-05 0.575D-05 0.372D-05
 Coeff:     -0.279D-04-0.173D-03-0.120D-03 0.641D-03 0.146D-02 0.667D-02
 Coeff:      0.308D-02-0.235D-01-0.467D-01-0.960D-01 0.783D-01 0.475D+00
 Coeff:      0.601D+00
 Gap=     0.129 Goal=   None    Shift=    0.000
 Gap=     0.135 Goal=   None    Shift=    0.000
 RMSDP=3.43D-08 MaxDP=5.98D-06 DE=-2.93D-11 OVMax= 4.02D-07

 Cycle  20  Pass 1  IDiag  1:
 RMSU=  7.32D-09    CP:  1.34D+00  4.02D-01  9.40D-01  6.59D-01  7.49D-01
                    CP:  6.55D-01  9.03D-01  9.41D-01  8.43D-01  1.04D+00
                    CP:  7.04D-01  9.95D-01  1.12D+00  1.26D+00  1.15D+00
                    CP:  1.06D+00  1.29D+00  9.46D-01  8.55D-01
 E= -1389.42166459829     Delta-E=        0.000000000029 Rises=F Damp=F
 DIIS: error= 6.02D-09 at cycle  20 NSaved=  20.
 NSaved=20 IEnMin=19 EnMin= -1389.42166459832     IErMin=20 ErrMin= 6.02D-09
 ErrMax= 6.02D-09  0.00D+00 EMaxC= 1.00D-01 BMatC= 1.10D-13 BMatP= 1.49D-12
 IDIUse=1 WtCom= 1.00D+00 WtEn= 0.00D+00
 Coeff-Com:  0.622D-07-0.165D-06 0.314D-06 0.798D-06 0.521D-05 0.107D-04
 Coeff-Com:  0.173D-04-0.138D-04-0.427D-04-0.339D-03-0.268D-03 0.942D-03
 Coeff-Com:  0.217D-02 0.810D-02-0.294D-02-0.414D-01-0.325D-01 0.264D-01
 Coeff-Com:  0.168D+00 0.872D+00
 Coeff:      0.622D-07-0.165D-06 0.314D-06 0.798D-06 0.521D-05 0.107D-04
 Coeff:      0.173D-04-0.138D-04-0.427D-04-0.339D-03-0.268D-03 0.942D-03
 Coeff:      0.217D-02 0.810D-02-0.294D-02-0.414D-01-0.325D-01 0.264D-01
 Coeff:      0.168D+00 0.872D+00
 Gap=     0.129 Goal=   None    Shift=    0.000
 Gap=     0.135 Goal=   None    Shift=    0.000
 RMSDP=7.40D-09 MaxDP=8.52D-07 DE= 2.86D-11 OVMax= 1.99D-07

 Error on total polarization charges =  0.01955
 SCF Done:  E(UB3LYP) =  -1389.42166460     A.U. after   20 cycles
            NFock= 20  Conv=0.74D-08     -V/T= 2.0031
 <Sx>= 0.0000 <Sy>= 0.0000 <Sz>= 0.5000 <S**2>= 0.7602 S= 0.5051
 <L.S>=  0.00000000000    
 KE= 1.385090442260D+03 PE=-7.026299803585D+03 EE= 2.382156932263D+03
 Annihilation of the first spin contaminant:
 S**2 before annihilation     0.7602,   after     0.7500
 Leave Link  502 at Wed Jan 24 22:57:50 2024, MaxMem=  4026531840 cpu:            4385.5 elap:             591.9
 (Enter /sysapps/ubuntu-applications/gaussian/Gaussian/AVX2/g16/l601.exe)
 Copying SCF densities to generalized density rwf, IOpCl= 1 IROHF=0.

 **********************************************************************

            Population analysis using the SCF density.

 **********************************************************************

 Orbital symmetries:
 Alpha Orbitals:
       Occupied  (A) (A) (A) (A) (A) (A) (A) (A) (A) (A) (A) (A)
                 (A) (A) (A) (A) (A) (A) (A) (A) (A) (A) (A) (A)
                 (A) (A) (A) (A) (A) (A) (A) (A) (A) (A) (A) (A)
                 (A) (A) (A) (A) (A) (A) (A) (A) (A) (A) (A) (A)
                 (A) (A) (A) (A) (A) (A) (A) (A) (A) (A) (A) (A)
                 (A) (A) (A) (A) (A) (A) (A) (A) (A) (A) (A) (A)
                 (A) (A) (A) (A) (A) (A) (A) (A)
       Virtual   (A) (A) (A) (A) (A) (A) (A) (A) (A) (A) (A) (A)
                 (A) (A) (A) (A) (A) (A) (A) (A) (A) (A) (A) (A)
                 (A) (A) (A) (A) (A) (A) (A) (A) (A) (A) (A) (A)
                 (A) (A) (A) (A) (A) (A) (A) (A) (A) (A) (A) (A)
                 (A) (A) (A) (A) (A) (A) (A) (A) (A) (A) (A) (A)
                 (A) (A) (A) (A) (A) (A) (A) (A) (A) (A) (A) (A)
                 (A) (A) (A) (A) (A) (A) (A) (A) (A) (A) (A) (A)
                 (A) (A) (A) (A) (A) (A) (A) (A) (A) (A) (A) (A)
                 (A) (A) (A) (A) (A) (A) (A) (A) (A) (A) (A) (A)
                 (A) (A) (A) (A) (A) (A) (A) (A) (A) (A) (A) (A)
                 (A) (A) (A) (A) (A) (A) (A) (A) (A) (A) (A) (A)
                 (A) (A) (A) (A) (A) (A) (A) (A) (A) (A) (A) (A)
                 (A) (A) (A) (A) (A) (A) (A) (A) (A) (A) (A) (A)
                 (A) (A) (A) (A) (A) (A) (A) (A) (A) (A) (A) (A)
                 (A) (A) (A) (A) (A) (A) (A) (A) (A) (A) (A) (A)
                 (A) (A) (A) (A) (A) (A) (A) (A) (A) (A) (A) (A)
                 (A) (A) (A) (A) (A) (A) (A) (A) (A) (A) (A) (A)
                 (A) (A) (A) (A) (A) (A) (A) (A) (A) (A) (A) (A)
                 (A) (A) (A) (A) (A) (A) (A) (A) (A) (A) (A) (A)
                 (A) (A) (A) (A) (A) (A) (A) (A) (A) (A) (A) (A)
                 (A) (A) (A) (A) (A) (A) (A) (A) (A) (A) (A) (A)
                 (A) (A) (A) (A) (A) (A) (A) (A) (A) (A) (A) (A)
                 (A) (A) (A) (A) (A) (A) (A) (A) (A) (A) (A) (A)
                 (A) (A) (A) (A) (A) (A) (A) (A) (A) (A) (A) (A)
                 (A) (A) (A) (A) (A) (A) (A) (A) (A) (A) (A) (A)
                 (A) (A) (A) (A) (A) (A) (A) (A) (A) (A) (A) (A)
                 (A) (A) (A) (A) (A) (A) (A) (A) (A) (A) (A) (A)
                 (A) (A) (A) (A) (A) (A) (A) (A) (A) (A) (A) (A)
                 (A) (A) (A) (A) (A) (A) (A) (A) (A) (A) (A) (A)
                 (A) (A) (A) (A) (A) (A) (A) (A) (A) (A) (A) (A)
                 (A) (A) (A) (A) (A) (A) (A) (A) (A) (A) (A) (A)
                 (A) (A) (A) (A) (A) (A) (A) (A) (A) (A) (A) (A)
                 (A) (A) (A) (A) (A) (A) (A) (A) (A) (A) (A) (A)
                 (A) (A) (A) (A) (A) (A) (A) (A) (A) (A) (A) (A)
                 (A) (A) (A) (A) (A) (A) (A) (A) (A) (A) (A) (A)
                 (A) (A) (A) (A) (A) (A) (A) (A) (A) (A) (A) (A)
                 (A) (A) (A) (A) (A) (A) (A) (A) (A) (A) (A) (A)
                 (A) (A) (A) (A) (A) (A) (A) (A) (A) (A) (A) (A)
                 (A)
 Beta  Orbitals:
       Occupied  (A) (A) (A) (A) (A) (A) (A) (A) (A) (A) (A) (A)
                 (A) (A) (A) (A) (A) (A) (A) (A) (A) (A) (A) (A)
                 (A) (A) (A) (A) (A) (A) (A) (A) (A) (A) (A) (A)
                 (A) (A) (A) (A) (A) (A) (A) (A) (A) (A) (A) (A)
                 (A) (A) (A) (A) (A) (A) (A) (A) (A) (A) (A) (A)
                 (A) (A) (A) (A) (A) (A) (A) (A) (A) (A) (A) (A)
                 (A) (A) (A) (A) (A) (A) (A)
       Virtual   (A) (A) (A) (A) (A) (A) (A) (A) (A) (A) (A) (A)
                 (A) (A) (A) (A) (A) (A) (A) (A) (A) (A) (A) (A)
                 (A) (A) (A) (A) (A) (A) (A) (A) (A) (A) (A) (A)
                 (A) (A) (A) (A) (A) (A) (A) (A) (A) (A) (A) (A)
                 (A) (A) (A) (A) (A) (A) (A) (A) (A) (A) (A) (A)
                 (A) (A) (A) (A) (A) (A) (A) (A) (A) (A) (A) (A)
                 (A) (A) (A) (A) (A) (A) (A) (A) (A) (A) (A) (A)
                 (A) (A) (A) (A) (A) (A) (A) (A) (A) (A) (A) (A)
                 (A) (A) (A) (A) (A) (A) (A) (A) (A) (A) (A) (A)
                 (A) (A) (A) (A) (A) (A) (A) (A) (A) (A) (A) (A)
                 (A) (A) (A) (A) (A) (A) (A) (A) (A) (A) (A) (A)
                 (A) (A) (A) (A) (A) (A) (A) (A) (A) (A) (A) (A)
                 (A) (A) (A) (A) (A) (A) (A) (A) (A) (A) (A) (A)
                 (A) (A) (A) (A) (A) (A) (A) (A) (A) (A) (A) (A)
                 (A) (A) (A) (A) (A) (A) (A) (A) (A) (A) (A) (A)
                 (A) (A) (A) (A) (A) (A) (A) (A) (A) (A) (A) (A)
                 (A) (A) (A) (A) (A) (A) (A) (A) (A) (A) (A) (A)
                 (A) (A) (A) (A) (A) (A) (A) (A) (A) (A) (A) (A)
                 (A) (A) (A) (A) (A) (A) (A) (A) (A) (A) (A) (A)
                 (A) (A) (A) (A) (A) (A) (A) (A) (A) (A) (A) (A)
                 (A) (A) (A) (A) (A) (A) (A) (A) (A) (A) (A) (A)
                 (A) (A) (A) (A) (A) (A) (A) (A) (A) (A) (A) (A)
                 (A) (A) (A) (A) (A) (A) (A) (A) (A) (A) (A) (A)
                 (A) (A) (A) (A) (A) (A) (A) (A) (A) (A) (A) (A)
                 (A) (A) (A) (A) (A) (A) (A) (A) (A) (A) (A) (A)
                 (A) (A) (A) (A) (A) (A) (A) (A) (A) (A) (A) (A)
                 (A) (A) (A) (A) (A) (A) (A) (A) (A) (A) (A) (A)
                 (A) (A) (A) (A) (A) (A) (A) (A) (A) (A) (A) (A)
                 (A) (A) (A) (A) (A) (A) (A) (A) (A) (A) (A) (A)
                 (A) (A) (A) (A) (A) (A) (A) (A) (A) (A) (A) (A)
                 (A) (A) (A) (A) (A) (A) (A) (A) (A) (A) (A) (A)
                 (A) (A) (A) (A) (A) (A) (A) (A) (A) (A) (A) (A)
                 (A) (A) (A) (A) (A) (A) (A) (A) (A) (A) (A) (A)
                 (A) (A) (A) (A) (A) (A) (A) (A) (A) (A) (A) (A)
                 (A) (A) (A) (A) (A) (A) (A) (A) (A) (A) (A) (A)
                 (A) (A) (A) (A) (A) (A) (A) (A) (A) (A) (A) (A)
                 (A) (A) (A) (A) (A) (A) (A) (A) (A) (A) (A) (A)
                 (A) (A) (A) (A) (A) (A) (A) (A) (A) (A) (A) (A)
                 (A) (A)
 The electronic state is 2-A.
 Alpha  occ. eigenvalues --  -89.05754 -19.17417 -19.12452 -19.12403 -19.12139
 Alpha  occ. eigenvalues --  -19.09816 -19.09594 -10.31778 -10.24842 -10.24473
 Alpha  occ. eigenvalues --  -10.22158 -10.21756 -10.21417 -10.21208 -10.19607
 Alpha  occ. eigenvalues --  -10.19317 -10.19090 -10.18914 -10.18826 -10.18337
 Alpha  occ. eigenvalues --  -10.18249  -8.12124  -6.08409  -6.08296  -6.08219
 Alpha  occ. eigenvalues --   -1.12009  -1.11508  -1.03412  -1.02486  -1.02222
 Alpha  occ. eigenvalues --   -1.01229  -0.87879  -0.85546  -0.79268  -0.77968
 Alpha  occ. eigenvalues --   -0.76534  -0.74658  -0.71157  -0.68032  -0.63841
 Alpha  occ. eigenvalues --   -0.62470  -0.61841  -0.58231  -0.56988  -0.54387
 Alpha  occ. eigenvalues --   -0.52814  -0.50746  -0.50596  -0.49133  -0.48818
 Alpha  occ. eigenvalues --   -0.48387  -0.47401  -0.46550  -0.45715  -0.45338
 Alpha  occ. eigenvalues --   -0.44114  -0.43605  -0.43009  -0.42336  -0.41088
 Alpha  occ. eigenvalues --   -0.39906  -0.39585  -0.39199  -0.38492  -0.38225
 Alpha  occ. eigenvalues --   -0.36708  -0.36219  -0.34883  -0.33549  -0.32426
 Alpha  occ. eigenvalues --   -0.31226  -0.31049  -0.30758  -0.29798  -0.28588
 Alpha  occ. eigenvalues --   -0.27399  -0.27262  -0.26301  -0.25299  -0.18504
 Alpha virt. eigenvalues --   -0.05617  -0.03191  -0.02632  -0.00691  -0.00434
 Alpha virt. eigenvalues --    0.00170   0.00598   0.00813   0.01705   0.02255
 Alpha virt. eigenvalues --    0.02715   0.02948   0.03381   0.03661   0.04437
 Alpha virt. eigenvalues --    0.04806   0.04968   0.05584   0.06095   0.06641
 Alpha virt. eigenvalues --    0.07006   0.07323   0.07568   0.08141   0.08320
 Alpha virt. eigenvalues --    0.08614   0.08897   0.09283   0.09737   0.10369
 Alpha virt. eigenvalues --    0.10720   0.10981   0.11394   0.11617   0.11987
 Alpha virt. eigenvalues --    0.12148   0.12242   0.12362   0.12726   0.13005
 Alpha virt. eigenvalues --    0.13215   0.13538   0.13658   0.14179   0.14394
 Alpha virt. eigenvalues --    0.14796   0.15048   0.15336   0.15716   0.15926
 Alpha virt. eigenvalues --    0.16698   0.16830   0.17036   0.17064   0.17667
 Alpha virt. eigenvalues --    0.18010   0.18065   0.18196   0.18517   0.19321
 Alpha virt. eigenvalues --    0.19691   0.19792   0.20349   0.20555   0.21053
 Alpha virt. eigenvalues --    0.21729   0.22231   0.22484   0.22626   0.23038
 Alpha virt. eigenvalues --    0.23383   0.23913   0.24345   0.24681   0.24942
 Alpha virt. eigenvalues --    0.25381   0.25478   0.26054   0.26515   0.26567
 Alpha virt. eigenvalues --    0.27204   0.27474   0.27540   0.27987   0.28160
 Alpha virt. eigenvalues --    0.28648   0.29478   0.29666   0.29927   0.30427
 Alpha virt. eigenvalues --    0.30754   0.31033   0.31810   0.31952   0.32604
 Alpha virt. eigenvalues --    0.32870   0.33286   0.33327   0.34010   0.34144
 Alpha virt. eigenvalues --    0.34923   0.35067   0.35350   0.35779   0.36263
 Alpha virt. eigenvalues --    0.36514   0.37055   0.37299   0.37429   0.38162
 Alpha virt. eigenvalues --    0.38607   0.38873   0.39321   0.39991   0.40776
 Alpha virt. eigenvalues --    0.41028   0.41487   0.42249   0.43175   0.43834
 Alpha virt. eigenvalues --    0.44592   0.45946   0.46556   0.46959   0.47749
 Alpha virt. eigenvalues --    0.48878   0.49375   0.50258   0.51253   0.51539
 Alpha virt. eigenvalues --    0.52546   0.53049   0.53809   0.54434   0.54979
 Alpha virt. eigenvalues --    0.55340   0.55782   0.56445   0.57191   0.57521
 Alpha virt. eigenvalues --    0.57959   0.58234   0.59115   0.59689   0.60454
 Alpha virt. eigenvalues --    0.61757   0.62161   0.62797   0.63320   0.64745
 Alpha virt. eigenvalues --    0.65360   0.66510   0.66792   0.67186   0.67315
 Alpha virt. eigenvalues --    0.68266   0.68506   0.69505   0.70277   0.71257
 Alpha virt. eigenvalues --    0.72200   0.72345   0.73052   0.73583   0.74436
 Alpha virt. eigenvalues --    0.74744   0.75422   0.76986   0.78253   0.78640
 Alpha virt. eigenvalues --    0.79875   0.80930   0.81987   0.82918   0.83883
 Alpha virt. eigenvalues --    0.84688   0.85288   0.86272   0.86586   0.86720
 Alpha virt. eigenvalues --    0.87963   0.88199   0.89230   0.89842   0.90671
 Alpha virt. eigenvalues --    0.91113   0.91371   0.91615   0.93790   0.95401
 Alpha virt. eigenvalues --    0.95487   0.96388   0.97829   0.99685   0.99988
 Alpha virt. eigenvalues --    1.01125   1.02286   1.03068   1.04013   1.04256
 Alpha virt. eigenvalues --    1.05047   1.06576   1.06842   1.07136   1.07962
 Alpha virt. eigenvalues --    1.08744   1.10449   1.12009   1.12664   1.13561
 Alpha virt. eigenvalues --    1.14481   1.15953   1.17078   1.17968   1.18765
 Alpha virt. eigenvalues --    1.19502   1.20625   1.21294   1.21916   1.23357
 Alpha virt. eigenvalues --    1.24154   1.24421   1.25347   1.25381   1.26644
 Alpha virt. eigenvalues --    1.27839   1.28538   1.29708   1.29886   1.31489
 Alpha virt. eigenvalues --    1.33259   1.34109   1.36101   1.37641   1.38881
 Alpha virt. eigenvalues --    1.40837   1.41965   1.42498   1.45006   1.45818
 Alpha virt. eigenvalues --    1.48745   1.50179   1.50802   1.51989   1.52495
 Alpha virt. eigenvalues --    1.52834   1.54837   1.55929   1.56288   1.56729
 Alpha virt. eigenvalues --    1.57186   1.58206   1.58993   1.60614   1.63452
 Alpha virt. eigenvalues --    1.64372   1.64821   1.65332   1.66316   1.67695
 Alpha virt. eigenvalues --    1.69268   1.69788   1.71269   1.72300   1.72802
 Alpha virt. eigenvalues --    1.73649   1.74045   1.75568   1.76110   1.76880
 Alpha virt. eigenvalues --    1.78010   1.79362   1.81076   1.81335   1.81601
 Alpha virt. eigenvalues --    1.84029   1.84699   1.85570   1.88355   1.89705
 Alpha virt. eigenvalues --    1.89838   1.91761   1.92847   1.93475   1.93508
 Alpha virt. eigenvalues --    1.94492   1.95730   1.96795   1.97102   1.97905
 Alpha virt. eigenvalues --    1.99449   2.01965   2.02765   2.03235   2.05173
 Alpha virt. eigenvalues --    2.06104   2.08029   2.08346   2.10284   2.11082
 Alpha virt. eigenvalues --    2.12831   2.13211   2.14685   2.17424   2.17985
 Alpha virt. eigenvalues --    2.22921   2.23544   2.25133   2.26014   2.29725
 Alpha virt. eigenvalues --    2.33027   2.34695   2.35752   2.42147   2.42575
 Alpha virt. eigenvalues --    2.45029   2.45925   2.46747   2.47011   2.50986
 Alpha virt. eigenvalues --    2.52325   2.52811   2.57993   2.59084   2.60175
 Alpha virt. eigenvalues --    2.62292   2.64183   2.64422   2.66535   2.68251
 Alpha virt. eigenvalues --    2.70464   2.70726   2.72100   2.72994   2.73741
 Alpha virt. eigenvalues --    2.74923   2.75514   2.76252   2.76782   2.77664
 Alpha virt. eigenvalues --    2.78135   2.80497   2.81205   2.81851   2.82654
 Alpha virt. eigenvalues --    2.84579   2.84680   2.85164   2.86314   2.87312
 Alpha virt. eigenvalues --    2.87397   2.88671   2.89935   2.90161   2.92015
 Alpha virt. eigenvalues --    2.92629   2.93674   2.94058   2.95686   2.97348
 Alpha virt. eigenvalues --    2.98093   2.99751   3.00805   3.02577   3.03768
 Alpha virt. eigenvalues --    3.06175   3.07006   3.09186   3.10902   3.11532
 Alpha virt. eigenvalues --    3.12987   3.17839   3.19129   3.21282   3.21953
 Alpha virt. eigenvalues --    3.24112   3.25352   3.26063   3.27970   3.32107
 Alpha virt. eigenvalues --    3.32250   3.34178   3.36678   3.37963   3.38877
 Alpha virt. eigenvalues --    3.44671   3.48873   3.50178   3.50910   3.53456
 Alpha virt. eigenvalues --    3.56560   3.58874   3.59244   3.61473   3.63215
 Alpha virt. eigenvalues --    3.64416   3.75782   3.79145   3.79305   3.80029
 Alpha virt. eigenvalues --    3.85496   3.96812   4.00031   4.03917   4.04116
 Alpha virt. eigenvalues --    4.06723   4.11054   4.14711   4.15861   4.17018
 Alpha virt. eigenvalues --    4.21984   4.26433   4.76666   4.83633   5.04673
 Alpha virt. eigenvalues --    5.07180   5.09524   5.10162   5.12198   5.13296
 Alpha virt. eigenvalues --    5.13864   5.18632   5.22225   5.22975   5.25714
 Alpha virt. eigenvalues --    5.31296   5.34699   5.41308   5.62113   5.72846
 Alpha virt. eigenvalues --    5.82906   5.85817   8.24478  17.43467  17.47150
 Alpha virt. eigenvalues --   17.60614  23.57692  23.60741  23.80816  23.85417
 Alpha virt. eigenvalues --   23.90744  23.93063  23.93999  23.95261  23.96955
 Alpha virt. eigenvalues --   24.06592  24.06913  24.08841  24.18361  24.19500
 Alpha virt. eigenvalues --   49.90457  49.92598  49.95389  50.00158  50.02663
 Alpha virt. eigenvalues --   50.06320 189.37260
  Beta  occ. eigenvalues --  -89.05757 -19.17410 -19.12428 -19.12393 -19.12141
  Beta  occ. eigenvalues --  -19.09064 -19.08948 -10.31794 -10.24759 -10.24376
  Beta  occ. eigenvalues --  -10.22154 -10.21628 -10.21417 -10.20940 -10.19603
  Beta  occ. eigenvalues --  -10.19314 -10.19086 -10.18915 -10.18826 -10.18285
  Beta  occ. eigenvalues --  -10.18171  -8.12126  -6.08411  -6.08299  -6.08223
  Beta  occ. eigenvalues --   -1.11983  -1.11487  -1.03364  -1.01490  -1.01123
  Beta  occ. eigenvalues --   -1.00912  -0.87870  -0.84896  -0.79087  -0.77826
  Beta  occ. eigenvalues --   -0.76528  -0.74397  -0.70650  -0.67617  -0.63585
  Beta  occ. eigenvalues --   -0.62465  -0.61644  -0.58072  -0.56858  -0.54295
  Beta  occ. eigenvalues --   -0.52624  -0.50547  -0.50405  -0.49034  -0.48784
  Beta  occ. eigenvalues --   -0.48345  -0.47334  -0.46362  -0.45694  -0.45282
  Beta  occ. eigenvalues --   -0.44022  -0.43321  -0.42038  -0.41209  -0.40785
  Beta  occ. eigenvalues --   -0.39465  -0.39064  -0.38658  -0.38210  -0.36804
  Beta  occ. eigenvalues --   -0.36578  -0.36199  -0.34792  -0.33450  -0.32255
  Beta  occ. eigenvalues --   -0.31045  -0.30664  -0.30415  -0.28345  -0.27491
  Beta  occ. eigenvalues --   -0.26893  -0.26656  -0.25653  -0.24772
  Beta virt. eigenvalues --   -0.11286  -0.04963  -0.02676  -0.02121  -0.00666
  Beta virt. eigenvalues --   -0.00423   0.00502   0.00830   0.01452   0.02173
  Beta virt. eigenvalues --    0.02405   0.02783   0.03081   0.03430   0.03786
  Beta virt. eigenvalues --    0.04465   0.04848   0.05018   0.05683   0.06133
  Beta virt. eigenvalues --    0.06689   0.07041   0.07396   0.07619   0.08335
  Beta virt. eigenvalues --    0.08366   0.08748   0.08953   0.09364   0.09792
  Beta virt. eigenvalues --    0.10512   0.10739   0.11016   0.11413   0.11668
  Beta virt. eigenvalues --    0.12036   0.12184   0.12270   0.12424   0.12804
  Beta virt. eigenvalues --    0.13039   0.13252   0.13606   0.13744   0.14236
  Beta virt. eigenvalues --    0.14458   0.14823   0.15195   0.15391   0.15738
  Beta virt. eigenvalues --    0.15996   0.16769   0.16973   0.17069   0.17280
  Beta virt. eigenvalues --    0.17719   0.18031   0.18139   0.18377   0.18663
  Beta virt. eigenvalues --    0.19362   0.19777   0.19871   0.20385   0.20566
  Beta virt. eigenvalues --    0.21122   0.21781   0.22292   0.22534   0.22707
  Beta virt. eigenvalues --    0.23075   0.23477   0.23949   0.24404   0.24815
  Beta virt. eigenvalues --    0.24996   0.25494   0.25561   0.26103   0.26574
  Beta virt. eigenvalues --    0.26702   0.27303   0.27507   0.27650   0.28099
  Beta virt. eigenvalues --    0.28208   0.28738   0.29532   0.29762   0.29965
  Beta virt. eigenvalues --    0.30614   0.30902   0.31119   0.31922   0.32083
  Beta virt. eigenvalues --    0.32666   0.32935   0.33382   0.33405   0.34083
  Beta virt. eigenvalues --    0.34249   0.34959   0.35145   0.35386   0.35829
  Beta virt. eigenvalues --    0.36335   0.36619   0.37151   0.37342   0.37558
  Beta virt. eigenvalues --    0.38290   0.38697   0.38954   0.39525   0.40067
  Beta virt. eigenvalues --    0.40901   0.41093   0.41640   0.42356   0.43251
  Beta virt. eigenvalues --    0.43924   0.44748   0.46067   0.46655   0.47094
  Beta virt. eigenvalues --    0.47800   0.48970   0.49418   0.50324   0.51297
  Beta virt. eigenvalues --    0.51666   0.52637   0.53091   0.53895   0.54466
  Beta virt. eigenvalues --    0.55047   0.55371   0.55837   0.56535   0.57322
  Beta virt. eigenvalues --    0.57663   0.58035   0.58313   0.59217   0.59783
  Beta virt. eigenvalues --    0.60536   0.61890   0.62428   0.62911   0.63517
  Beta virt. eigenvalues --    0.65058   0.65427   0.66573   0.66895   0.67297
  Beta virt. eigenvalues --    0.67471   0.68336   0.68708   0.69567   0.70389
  Beta virt. eigenvalues --    0.71388   0.72356   0.72473   0.73091   0.73665
  Beta virt. eigenvalues --    0.74477   0.74854   0.75494   0.77090   0.78399
  Beta virt. eigenvalues --    0.78742   0.79954   0.81039   0.82164   0.83045
  Beta virt. eigenvalues --    0.84221   0.84772   0.85322   0.86315   0.86653
  Beta virt. eigenvalues --    0.86784   0.88047   0.88306   0.89386   0.89922
  Beta virt. eigenvalues --    0.90835   0.91260   0.91478   0.91760   0.93848
  Beta virt. eigenvalues --    0.95466   0.95588   0.96542   0.97960   0.99768
  Beta virt. eigenvalues --    1.00171   1.01465   1.02347   1.03184   1.04119
  Beta virt. eigenvalues --    1.04448   1.05169   1.06658   1.06971   1.07304
  Beta virt. eigenvalues --    1.08187   1.09006   1.10587   1.12128   1.13023
  Beta virt. eigenvalues --    1.13697   1.14988   1.16340   1.17395   1.18397
  Beta virt. eigenvalues --    1.18907   1.19802   1.20760   1.21520   1.22131
  Beta virt. eigenvalues --    1.23672   1.24501   1.24851   1.25531   1.25911
  Beta virt. eigenvalues --    1.26891   1.28036   1.28803   1.29859   1.30042
  Beta virt. eigenvalues --    1.31820   1.33437   1.34355   1.36254   1.37824
  Beta virt. eigenvalues --    1.39049   1.40915   1.42224   1.42597   1.45092
  Beta virt. eigenvalues --    1.45870   1.48922   1.50258   1.51044   1.52025
  Beta virt. eigenvalues --    1.52526   1.52929   1.54960   1.56009   1.56358
  Beta virt. eigenvalues --    1.56786   1.57361   1.58279   1.59039   1.60717
  Beta virt. eigenvalues --    1.63520   1.64483   1.65038   1.65382   1.66694
  Beta virt. eigenvalues --    1.67878   1.69415   1.69859   1.71376   1.72435
  Beta virt. eigenvalues --    1.72887   1.73768   1.74054   1.75727   1.76385
  Beta virt. eigenvalues --    1.77066   1.78163   1.79474   1.81320   1.81624
  Beta virt. eigenvalues --    1.81922   1.84107   1.84984   1.85665   1.88558
  Beta virt. eigenvalues --    1.89783   1.90127   1.91797   1.93134   1.93674
  Beta virt. eigenvalues --    1.93817   1.94584   1.95883   1.96929   1.97260
  Beta virt. eigenvalues --    1.98066   1.99496   2.02028   2.02865   2.03296
  Beta virt. eigenvalues --    2.05244   2.06221   2.08068   2.08374   2.10484
  Beta virt. eigenvalues --    2.11300   2.12892   2.13371   2.14944   2.17616
  Beta virt. eigenvalues --    2.18147   2.23153   2.23830   2.25711   2.26527
  Beta virt. eigenvalues --    2.29764   2.33044   2.35010   2.35823   2.42227
  Beta virt. eigenvalues --    2.42596   2.45226   2.45949   2.46770   2.47019
  Beta virt. eigenvalues --    2.50997   2.52334   2.52850   2.58213   2.59114
  Beta virt. eigenvalues --    2.60271   2.62329   2.64355   2.64765   2.66716
  Beta virt. eigenvalues --    2.68297   2.70480   2.70815   2.72235   2.73074
  Beta virt. eigenvalues --    2.73777   2.75315   2.75658   2.76762   2.76813
  Beta virt. eigenvalues --    2.78045   2.78444   2.80591   2.81363   2.81979
  Beta virt. eigenvalues --    2.82685   2.84652   2.84948   2.85312   2.86738
  Beta virt. eigenvalues --    2.87727   2.88014   2.88783   2.90147   2.90196
  Beta virt. eigenvalues --    2.92393   2.93061   2.94844   2.94998   2.96240
  Beta virt. eigenvalues --    2.98129   2.98456   2.99979   3.01278   3.03444
  Beta virt. eigenvalues --    3.03963   3.06441   3.07273   3.09381   3.10999
  Beta virt. eigenvalues --    3.11690   3.13148   3.17998   3.19227   3.21368
  Beta virt. eigenvalues --    3.22270   3.24319   3.25451   3.26434   3.28177
  Beta virt. eigenvalues --    3.32344   3.33800   3.35137   3.37298   3.38031
  Beta virt. eigenvalues --    3.39060   3.44893   3.48964   3.50378   3.51060
  Beta virt. eigenvalues --    3.53466   3.56749   3.58979   3.59439   3.61575
  Beta virt. eigenvalues --    3.63579   3.64425   3.76249   3.79168   3.79523
  Beta virt. eigenvalues --    3.80057   3.85567   3.97090   4.00037   4.03931
  Beta virt. eigenvalues --    4.04156   4.06941   4.11115   4.14803   4.16020
  Beta virt. eigenvalues --    4.17174   4.22366   4.26758   4.77174   4.83638
  Beta virt. eigenvalues --    5.04691   5.09578   5.10053   5.12235   5.12491
  Beta virt. eigenvalues --    5.13739   5.13941   5.18681   5.22261   5.23091
  Beta virt. eigenvalues --    5.26233   5.31751   5.34760   5.41328   5.62148
  Beta virt. eigenvalues --    5.73430   5.83444   5.85836   8.24481  17.43468
  Beta virt. eigenvalues --   17.47147  17.60613  23.57747  23.60853  23.80952
  Beta virt. eigenvalues --   23.85443  23.90842  23.93172  23.94008  23.95270
  Beta virt. eigenvalues --   23.96959  24.06678  24.07035  24.08846  24.18363
  Beta virt. eigenvalues --   24.19577  49.90463  49.92609  49.95420  50.00273
  Beta virt. eigenvalues --   50.03275  50.06988 189.37258
          Condensed to atoms (all electrons):
               1          2          3          4          5          6
     1  C   13.825023   0.807549   0.247953   2.542331  -4.326304  -7.767123
     2  C    0.807549  13.626824  -3.659381   0.497865   1.047188  -5.004294
     3  C    0.247953  -3.659381  18.774219  -1.573374  -9.485385   1.028259
     4  C    2.542331   0.497865  -1.573374  19.056001 -11.827232  -4.400721
     5  C   -4.326304   1.047188  -9.485385 -11.827232  40.425343   3.942742
     6  C   -7.767123  -5.004294   1.028259  -4.400721   3.942742  28.708500
     7  O    0.738180  -0.319326   0.025042  -0.002701  -0.060490  -0.460942
     8  O   -0.102777  -0.042561  -0.501982   0.169839   0.652407   0.127273
     9  H   -0.088313   0.511594  -0.099312   0.042067   0.042054  -0.044677
    10  H    0.055256  -0.123474   0.652073  -0.157404  -0.139518   0.059352
    11  S   -1.140995   1.742277  -2.512574   1.459333 -10.503989   1.585492
    12  C    1.429524  -2.944308   2.531177  -0.537251  -1.349100 -11.704496
    13  O   -0.154674   0.017503  -0.003285  -0.020634   0.045369   0.417766
    14  O    0.041858   0.022441   0.012551  -0.065992   0.006273  -0.068046
    15  C    0.030285  -0.042140   0.030648   0.013979   0.031228  -0.609418
    16  H    0.004847  -0.001816   0.000306  -0.002007   0.005628  -0.025369
    17  H   -0.016717   0.003159  -0.000210  -0.004288  -0.001620   0.031935
    18  H   -0.002207   0.000044  -0.000314   0.007264  -0.012525   0.045919
    19  C   -0.577456   0.037632  -0.134110   0.763238  -3.794611  -0.789416
    20  C   -0.071436   0.155139   2.202046   0.772649   0.724746  -2.251350
    21  C    0.500295  -0.120077  -1.923686  -1.207109   1.210673   2.519125
    22  C    0.094178   0.057345   0.376909   0.715911  -0.534651  -0.140667
    23  C    0.017274  -0.101549  -0.039968  -0.434476   1.300046   0.174370
    24  C   -0.003159  -0.006470  -0.033703  -0.185828   0.424167   0.094152
    25  O    0.033574   0.010487  -0.226580  -0.221044  -0.180685   0.286709
    26  O    0.166790   0.004900   0.191845   0.955905  -1.542095  -0.397920
    27  H   -0.016304  -0.004482  -0.038923  -0.129662   0.174371   0.006732
    28  H    0.040717   0.010864  -0.012647   0.019588  -0.110204   0.030620
    29  H    0.001658   0.002078   0.012930   0.024901  -0.046940  -0.004104
    30  H   -0.000434   0.000189   0.004385   0.008823  -0.012881  -0.006634
    31  H    0.000012  -0.000249  -0.001886  -0.005447   0.010122   0.002136
               7          8          9         10         11         12
     1  C    0.738180  -0.102777  -0.088313   0.055256  -1.140995   1.429524
     2  C   -0.319326  -0.042561   0.511594  -0.123474   1.742277  -2.944308
     3  C    0.025042  -0.501982  -0.099312   0.652073  -2.512574   2.531177
     4  C   -0.002701   0.169839   0.042067  -0.157404   1.459333  -0.537251
     5  C   -0.060490   0.652407   0.042054  -0.139518 -10.503989  -1.349100
     6  C   -0.460942   0.127273  -0.044677   0.059352   1.585492 -11.704496
     7  O    8.360107  -0.000056  -0.018849   0.001533  -0.006439   0.151789
     8  O   -0.000056   8.344541   0.001954  -0.016243  -0.204008   0.010478
     9  H   -0.018849   0.001954   0.497448  -0.021598  -0.000525  -0.028810
    10  H    0.001533  -0.016243  -0.021598   0.505901  -0.050122   0.024002
    11  S   -0.006439  -0.204008  -0.000525  -0.050122  40.754630  -6.600354
    12  C    0.151789   0.010478  -0.028810   0.024002  -6.600354  24.687099
    13  O    0.003509   0.000299   0.000307   0.000039  -0.017165   0.220823
    14  O    0.002784   0.001070   0.000562   0.000003   0.080969  -0.069731
    15  C   -0.002592  -0.000020  -0.000634   0.000415  -0.102230   0.367313
    16  H    0.000534   0.000042   0.000044   0.000003  -0.011666   0.065405
    17  H   -0.000169   0.000017  -0.000076  -0.000008   0.005846  -0.030329
    18  H   -0.000763  -0.000096  -0.000025  -0.000003   0.019418  -0.104030
    19  C   -0.005406   0.001536  -0.000129  -0.014329  -6.897558  -0.536011
    20  C   -0.004777  -0.108017   0.008057   0.002128   2.541389  -0.256743
    21  C    0.009763   0.128632  -0.007714  -0.000102  -3.878204   0.951718
    22  C    0.000101  -0.055903   0.001488   0.002329   1.471940   0.073653
    23  C   -0.000019   0.038971  -0.001287   0.003663  -2.098467   0.230679
    24  C    0.000070  -0.000887   0.000031   0.000297  -0.330659   0.040019
    25  O    0.000478  -0.053293  -0.000608  -0.000085  -0.213237  -0.078054
    26  O    0.001508  -0.016623  -0.000098   0.001071   0.981438   0.052850
    27  H   -0.000155  -0.004950  -0.000119  -0.000293  -0.232333  -0.011948
    28  H    0.000962   0.000776  -0.000223   0.000077  -0.196194   0.060312
    29  H    0.000003  -0.001397   0.000019  -0.000090   0.030547   0.000571
    30  H   -0.000021  -0.000258   0.000019  -0.000020   0.017764  -0.004824
    31  H    0.000002   0.000469   0.000001  -0.000006  -0.033539   0.000842
              13         14         15         16         17         18
     1  C   -0.154674   0.041858   0.030285   0.004847  -0.016717  -0.002207
     2  C    0.017503   0.022441  -0.042140  -0.001816   0.003159   0.000044
     3  C   -0.003285   0.012551   0.030648   0.000306  -0.000210  -0.000314
     4  C   -0.020634  -0.065992   0.013979  -0.002007  -0.004288   0.007264
     5  C    0.045369   0.006273   0.031228   0.005628  -0.001620  -0.012525
     6  C    0.417766  -0.068046  -0.609418  -0.025369   0.031935   0.045919
     7  O    0.003509   0.002784  -0.002592   0.000534  -0.000169  -0.000763
     8  O    0.000299   0.001070  -0.000020   0.000042   0.000017  -0.000096
     9  H    0.000307   0.000562  -0.000634   0.000044  -0.000076  -0.000025
    10  H    0.000039   0.000003   0.000415   0.000003  -0.000008  -0.000003
    11  S   -0.017165   0.080969  -0.102230  -0.011666   0.005846   0.019418
    12  C    0.220823  -0.069731   0.367313   0.065405  -0.030329  -0.104030
    13  O    7.938078  -0.188987  -0.048786   0.003330  -0.003444  -0.005702
    14  O   -0.188987   8.149521   0.195423  -0.064382  -0.027969  -0.016435
    15  C   -0.048786   0.195423   5.210146   0.396551   0.405145   0.402158
    16  H    0.003330  -0.064382   0.396551   0.525678  -0.027693  -0.028656
    17  H   -0.003444  -0.027969   0.405145  -0.027693   0.547164  -0.055437
    18  H   -0.005702  -0.016435   0.402158  -0.028656  -0.055437   0.556167
    19  C   -0.007630  -0.058500   0.031331  -0.007634   0.005582   0.007444
    20  C   -0.008675  -0.015965   0.043533   0.001633   0.001732  -0.003175
    21  C    0.016773   0.037896  -0.087212   0.000448  -0.006632   0.007572
    22  C   -0.000859  -0.004119   0.004691   0.000654   0.000138  -0.001086
    23  C    0.001992   0.013474  -0.018064   0.001761  -0.001778  -0.000408
    24  C    0.000203   0.001316  -0.004275   0.000529  -0.000263  -0.000326
    25  O    0.000115   0.001966  -0.004509  -0.000236  -0.000077   0.000018
    26  O   -0.014249  -0.038076   0.006682  -0.000350  -0.000485   0.003727
    27  H    0.000141   0.000470  -0.000648  -0.000013  -0.000021   0.000150
    28  H    0.002573   0.004128  -0.020188  -0.002005   0.000856  -0.000140
    29  H   -0.000009  -0.000034   0.000037  -0.000010   0.000003   0.000004
    30  H   -0.000046  -0.000302   0.001193  -0.000091  -0.000013   0.000178
    31  H    0.000002   0.000017  -0.000110   0.000019  -0.000004  -0.000005
              19         20         21         22         23         24
     1  C   -0.577456  -0.071436   0.500295   0.094178   0.017274  -0.003159
     2  C    0.037632   0.155139  -0.120077   0.057345  -0.101549  -0.006470
     3  C   -0.134110   2.202046  -1.923686   0.376909  -0.039968  -0.033703
     4  C    0.763238   0.772649  -1.207109   0.715911  -0.434476  -0.185828
[...]
    10  H    0.215154  -0.005698
    11  S    0.339217  -0.033512
    12  C   -0.642265  -0.019028
    13  O   -0.194677   0.006433
    14  O    0.045814  -0.000185
    15  C   -0.229930   0.001715
    16  H    0.164515   0.000531
    17  H    0.175656  -0.000297
    18  H    0.181268  -0.000059
    19  C    0.477660  -0.004804
    20  C   -0.079368   0.024195
    21  C   -0.245923   0.002324
    22  C   -0.447400  -0.003112
    23  C   -0.470675   0.000749
    24  C   -0.334959   0.002501
    25  O   -0.163091   0.007744
    26  O   -0.179426  -0.002353
    27  H    0.266710  -0.000251
    28  H    0.185102   0.000782
    29  H    0.212402   0.000075
    30  H    0.220563   0.000066
    31  H    0.191121  -0.000214
 Sum of Mulliken charges =  -1.00000   1.00000
 Mulliken charges and spin densities with hydrogens summed into heavy atoms:
               1          2
     1  C   -0.309405   0.070826
     2  C    0.022399   0.040054
     3  C    0.372133   0.045189
     4  C   -0.274523   0.037863
     5  C   -0.114127   0.128279
     6  C    0.614098   0.182698
     7  O   -0.413659   0.274251
     8  O   -0.369232   0.237539
    11  S    0.339217  -0.033512
    12  C   -0.642265  -0.019028
    13  O   -0.194677   0.006433
    14  O    0.045814  -0.000185
    15  C    0.291510   0.001890
    19  C    0.477660  -0.004804
    20  C    0.187341   0.023944
    21  C   -0.060821   0.003106
    22  C   -0.234998  -0.003037
    23  C   -0.250112   0.000815
    24  C   -0.143837   0.002287
    25  O   -0.163091   0.007744
    26  O   -0.179426  -0.002353
 Electronic spatial extent (au):  <R**2>=           5847.1326
 Charge=             -1.0000 electrons
 Dipole moment (field-independent basis, Debye):
    X=              8.0152    Y=             -3.7912    Z=             -6.6735  Tot=             11.0974
 Quadrupole moment (field-independent basis, Debye-Ang):
   XX=           -157.7400   YY=           -132.9953   ZZ=           -147.9112
   XY=             -0.9905   XZ=            -10.7862   YZ=              6.8409
 Traceless Quadrupole moment (field-independent basis, Debye-Ang):
   XX=            -11.5245   YY=             13.2202   ZZ=             -1.6957
   XY=             -0.9905   XZ=            -10.7862   YZ=              6.8409
 Octapole moment (field-independent basis, Debye-Ang**2):
  XXX=            199.3560  YYY=            -54.5770  ZZZ=            -27.8291  XYY=            -45.6546
  XXY=            -31.5179  XXZ=            -11.5430  XZZ=             14.7040  YZZ=            -12.6394
  YYZ=            -33.1009  XYZ=             -6.6307
 Hexadecapole moment (field-independent basis, Debye-Ang**3):
 XXXX=          -4968.4078 YYYY=          -2112.2103 ZZZZ=          -1094.3279 XXXY=            195.7814
 XXXZ=           -196.4495 YYYX=             44.4768 YYYZ=              2.7254 ZZZX=            -45.2996
 ZZZY=             29.5101 XXYY=          -1123.7305 XXZZ=          -1001.8160 YYZZ=           -524.6584
 XXYZ=            103.6028 YYXZ=             25.2899 ZZXY=            -21.7621
 N-N= 1.869630764464D+03 E-N=-7.026299804682D+03  KE= 1.385090442260D+03
                          Isotropic Fermi Contact Couplings
        Atom                 a.u.       MegaHertz       Gauss      10(-4) cm-1
     1  C(13)             -0.01012     -11.38186      -4.06133      -3.79658
     2  C(13)             -0.00398      -4.47489      -1.59675      -1.49266
     3  C(13)             -0.00130      -1.46402      -0.52240      -0.48834
     4  C(13)             -0.00817      -9.18938      -3.27900      -3.06525
     5  C(13)             -0.00177      -1.99172      -0.71069      -0.66437
     6  C(13)              0.00538       6.04830       2.15819       2.01750
     7  O(17)              0.02689     -16.30298      -5.81731      -5.43809
     8  O(17)              0.02268     -13.74599      -4.90491      -4.58517
     9  H(1)              -0.00075      -3.34350      -1.19305      -1.11527
    10  H(1)              -0.00108      -4.81973      -1.71980      -1.60769
    11  S(33)             -0.00656      -2.25420      -0.80436      -0.75192
    12  C(13)             -0.00716      -8.04474      -2.87056      -2.68344
    13  O(17)              0.00283      -1.71374      -0.61150      -0.57164
    14  O(17)              0.00889      -5.38765      -1.92245      -1.79713
    15  C(13)              0.00164       1.84538       0.65848       0.61555
    16  H(1)               0.00005       0.22745       0.08116       0.07587
    17  H(1)              -0.00003      -0.12316      -0.04395      -0.04108
    18  H(1)              -0.00002      -0.10990      -0.03922      -0.03666
    19  C(13)              0.00089       0.99535       0.35517       0.33201
    20  C(13)              0.00044       0.49632       0.17710       0.16556
    21  C(13)              0.00014       0.15561       0.05553       0.05191
    22  C(13)             -0.00008      -0.08926      -0.03185      -0.02978
    23  C(13)             -0.00015      -0.17269      -0.06162      -0.05760
    24  C(13)              0.00016       0.17895       0.06385       0.05969
    25  O(17)              0.00169      -1.02469      -0.36563      -0.34180
    26  O(17)             -0.00006       0.03388       0.01209       0.01130
    27  H(1)               0.00007       0.30593       0.10916       0.10205
    28  H(1)              -0.00003      -0.12558      -0.04481      -0.04189
    29  H(1)               0.00002       0.08057       0.02875       0.02687
    30  H(1)               0.00001       0.03446       0.01230       0.01149
    31  H(1)              -0.00004      -0.19222      -0.06859      -0.06412
 --------------------------------------------------------
       Center         ----  Spin Dipole Couplings  ----
                      3XX-RR        3YY-RR        3ZZ-RR
 --------------------------------------------------------
     1   Atom       -0.011951     -0.049804      0.061755
     2   Atom       -0.013176     -0.015256      0.028432
     3   Atom       -0.020163     -0.025697      0.045861
     4   Atom       -0.015926     -0.040829      0.056755
     5   Atom       -0.032302     -0.046985      0.079287
     6   Atom       -0.065372     -0.085760      0.151132
     7   Atom       -0.300505     -0.417870      0.718375
     8   Atom       -0.321002     -0.360591      0.681593
     9   Atom       -0.002678      0.004953     -0.002276
    10   Atom       -0.004672      0.007801     -0.003128
    11   Atom       -0.002132     -0.000894      0.003026
    12   Atom       -0.004519      0.006577     -0.002057
    13   Atom       -0.014765      0.032680     -0.017914
    14   Atom       -0.003603      0.010593     -0.006990
    15   Atom       -0.001850      0.004185     -0.002334
    16   Atom       -0.000852      0.001609     -0.000757
    17   Atom       -0.000634      0.001914     -0.001280
    18   Atom       -0.000923      0.001803     -0.000881
    19   Atom        0.002394     -0.000194     -0.002200
    20   Atom        0.000871      0.000486     -0.001357
    21   Atom       -0.000490      0.001247     -0.000758
    22   Atom        0.001176     -0.000539     -0.000638
    23   Atom        0.000971     -0.000028     -0.000943
    24   Atom       -0.000171      0.000377     -0.000205
    25   Atom        0.007056     -0.010014      0.002959
    26   Atom       -0.001161     -0.000665      0.001827
    27   Atom        0.002826     -0.000867     -0.001959
    28   Atom        0.000175      0.001154     -0.001329
    29   Atom        0.001240     -0.000565     -0.000675
    30   Atom        0.000227      0.000069     -0.000296
    31   Atom        0.000547     -0.000314     -0.000233
 --------------------------------------------------------
                        XY            XZ            YZ
 --------------------------------------------------------
     1   Atom       -0.015442     -0.049306      0.045396
     2   Atom       -0.007160     -0.023823      0.016395
     3   Atom       -0.013558     -0.038064      0.028476
     4   Atom       -0.005209     -0.039127      0.039151
     5   Atom       -0.016100     -0.054587      0.045313
     6   Atom       -0.039568     -0.111689      0.089821
     7   Atom       -0.212802     -0.604223      0.448166
     8   Atom       -0.155953     -0.461966      0.393831
     9   Atom       -0.002743      0.001682     -0.004379
    10   Atom        0.000506     -0.000491     -0.003593
    11   Atom        0.005013     -0.001608      0.001585
    12   Atom        0.001064     -0.000849     -0.002982
    13   Atom        0.015350     -0.001700     -0.008046
    14   Atom        0.003173      0.000320      0.001031
    15   Atom        0.001027      0.000205      0.000237
    16   Atom        0.000062      0.000022      0.000602
    17   Atom        0.000978      0.000047     -0.000115
    18   Atom        0.000039      0.000086     -0.000508
    19   Atom       -0.000905     -0.002257      0.000780
    20   Atom       -0.002467      0.000527     -0.002001
    21   Atom       -0.002713      0.000729     -0.001534
    22   Atom       -0.000598     -0.000725      0.000303
    23   Atom       -0.000851     -0.000567      0.000957
    24   Atom       -0.002026      0.000792     -0.001826
    25   Atom       -0.000524      0.013999     -0.001805
    26   Atom        0.002101      0.003287      0.000692
    27   Atom       -0.002622      0.002113     -0.000951
    28   Atom       -0.001299     -0.000209      0.000668
    29   Atom       -0.000430     -0.000143      0.000118
    30   Atom       -0.000589     -0.000395      0.000416
    31   Atom       -0.000492     -0.000497      0.000122
 --------------------------------------------------------


 ---------------------------------------------------------------------------------
              Anisotropic Spin Dipole Couplings in Principal Axis System
 ---------------------------------------------------------------------------------

       Atom             a.u.   MegaHertz   Gauss  10(-4) cm-1        Axes

              Baa    -0.0661    -8.863    -3.163    -2.957 -0.0551  0.9340 -0.3530
     1 C(13)  Bbb    -0.0354    -4.745    -1.693    -1.583  0.9084  0.1937  0.3706
              Bcc     0.1014    13.609     4.856     4.539 -0.4145  0.3002  0.8591
 
              Baa    -0.0240    -3.223    -1.150    -1.075  0.8997 -0.0710  0.4308
     2 C(13)  Bbb    -0.0206    -2.762    -0.986    -0.921  0.1853  0.9555 -0.2296
              Bcc     0.0446     5.985     2.136     1.996 -0.3953  0.2863  0.8728
 
              Baa    -0.0377    -5.054    -1.803    -1.686  0.9122  0.2350  0.3356
     3 C(13)  Bbb    -0.0356    -4.780    -1.706    -1.594 -0.1016  0.9234 -0.3702
              Bcc     0.0733     9.834     3.509     3.280 -0.3969  0.3036  0.8662
 
              Baa    -0.0568    -7.625    -2.721    -2.544 -0.2656  0.8796 -0.3947
     4 C(13)  Bbb    -0.0285    -3.826    -1.365    -1.276  0.8952  0.3769  0.2377
              Bcc     0.0853    11.451     4.086     3.820 -0.3579  0.2902  0.8875
 
              Baa    -0.0618    -8.291    -2.958    -2.766 -0.1579  0.9207 -0.3568
     5 C(13)  Bbb    -0.0539    -7.239    -2.583    -2.415  0.9200  0.2684  0.2856
              Bcc     0.1157    15.530     5.542     5.180 -0.3588  0.2832  0.8894
 
              Baa    -0.1168   -15.673    -5.593    -5.228  0.3961  0.9076 -0.1391
     6 C(13)  Bbb    -0.1122   -15.059    -5.373    -5.023  0.8389 -0.2961  0.4568
              Bcc     0.2290    30.732    10.966    10.251 -0.3734  0.2976  0.8786
 
              Baa    -0.5831    42.192    15.055    14.074  0.8811  0.3832  0.2771
     7 O(17)  Bbb    -0.5726    41.432    14.784    13.820 -0.2480  0.8734 -0.4192
              Bcc     1.1557   -83.624   -29.839   -27.894 -0.4027  0.3007  0.8645
 
              Baa    -0.5018    36.311    12.957    12.112  0.9331  0.2032  0.2966
     8 O(17)  Bbb    -0.4926    35.643    12.718    11.889 -0.0921  0.9326 -0.3490
              Bcc     0.9944   -71.955   -25.675   -24.001 -0.3476  0.2984  0.8889
 
              Baa    -0.0045    -2.388    -0.852    -0.797 -0.3596  0.3050  0.8819
     9 H(1)   Bbb    -0.0035    -1.868    -0.667    -0.623  0.8877  0.4032  0.2225
              Bcc     0.0080     4.257     1.519     1.420 -0.2877  0.8628 -0.4157
 
              Baa    -0.0049    -2.594    -0.926    -0.865  0.8955  0.0880  0.4363
    10 H(1)   Bbb    -0.0040    -2.157    -0.770    -0.720 -0.4427  0.2776  0.8526
              Bcc     0.0089     4.751     1.695     1.585  0.0460  0.9567 -0.2875
 
              Baa    -0.0071    -0.290    -0.103    -0.097  0.7295 -0.6483  0.2180
    11 S(33)  Bbb     0.0034     0.140     0.050     0.047 -0.5779 -0.4137  0.7035
              Bcc     0.0037     0.150     0.053     0.050  0.3659  0.6392  0.6764
 
              Baa    -0.0048    -0.642    -0.229    -0.214  0.9596 -0.0161  0.2810
    12 C(13)  Bbb    -0.0029    -0.383    -0.137    -0.128 -0.2616  0.3177  0.9114
              Bcc     0.0076     1.025     0.366     0.342  0.1039  0.9481 -0.3007
 
              Baa    -0.0199     1.436     0.513     0.479  0.7002 -0.3036 -0.6462
    13 O(17)  Bbb    -0.0186     1.343     0.479     0.448  0.6573 -0.0792  0.7494
              Bcc     0.0384    -2.779    -0.992    -0.927  0.2787  0.9495 -0.1441
 
              Baa    -0.0071     0.511     0.182     0.170 -0.0465 -0.0499  0.9977
    14 O(17)  Bbb    -0.0043     0.309     0.110     0.103  0.9769 -0.2109  0.0350
              Bcc     0.0113    -0.820    -0.293    -0.274  0.2086  0.9762  0.0586
 
              Baa    -0.0024    -0.324    -0.116    -0.108 -0.3853  0.0269  0.9224
    15 C(13)  Bbb    -0.0020    -0.262    -0.093    -0.087  0.9081 -0.1667  0.3842
              Bcc     0.0044     0.586     0.209     0.195  0.1641  0.9856  0.0398
 
              Baa    -0.0009    -0.482    -0.172    -0.161 -0.1386 -0.2277  0.9638
    16 H(1)   Bbb    -0.0009    -0.455    -0.162    -0.152  0.9900 -0.0564  0.1290
              Bcc     0.0018     0.936     0.334     0.312  0.0250  0.9721  0.2332
 
              Baa    -0.0013    -0.695    -0.248    -0.232 -0.2151  0.1001  0.9715
    17 H(1)   Bbb    -0.0009    -0.505    -0.180    -0.168  0.9224 -0.3060  0.2357
              Bcc     0.0022     1.200     0.428     0.400  0.3208  0.9468 -0.0265
 
              Baa    -0.0010    -0.557    -0.199    -0.186 -0.6065  0.1477  0.7813
    18 H(1)   Bbb    -0.0009    -0.455    -0.162    -0.152  0.7951  0.1028  0.5978
              Bcc     0.0019     1.012     0.361     0.338  0.0080  0.9837 -0.1797
 
              Baa    -0.0032    -0.426    -0.152    -0.142  0.3533 -0.1349  0.9257
    19 C(13)  Bbb    -0.0005    -0.064    -0.023    -0.021  0.3138  0.9493  0.0185
              Bcc     0.0037     0.490     0.175     0.164  0.8813 -0.2840 -0.3777
 
              Baa    -0.0029    -0.394    -0.141    -0.132  0.3162  0.6381  0.7020
    20 C(13)  Bbb    -0.0008    -0.112    -0.040    -0.037  0.6958  0.3470 -0.6288
              Bcc     0.0038     0.506     0.181     0.169 -0.6449  0.6873 -0.3343
 
              Baa    -0.0025    -0.342    -0.122    -0.114  0.7434  0.6264  0.2343
    21 C(13)  Bbb    -0.0013    -0.173    -0.062    -0.058 -0.3946  0.1280  0.9099
              Bcc     0.0038     0.515     0.184     0.172 -0.5400  0.7689 -0.3424
 
              Baa    -0.0009    -0.125    -0.045    -0.042  0.1965 -0.3955  0.8972
    22 C(13)  Bbb    -0.0007    -0.094    -0.034    -0.031  0.3916  0.8705  0.2980
              Bcc     0.0016     0.219     0.078     0.073  0.8989 -0.2928 -0.3260
 
              Baa    -0.0015    -0.207    -0.074    -0.069  0.0127 -0.5279  0.8492
    23 C(13)  Bbb    -0.0003    -0.036    -0.013    -0.012  0.6362  0.6595  0.4004
              Bcc     0.0018     0.243     0.087     0.081  0.7714 -0.5352 -0.3442
 
              Baa    -0.0022    -0.301    -0.107    -0.100  0.5380  0.7208  0.4370
    24 C(13)  Bbb    -0.0010    -0.131    -0.047    -0.044 -0.6567  0.0334  0.7534
              Bcc     0.0032     0.432     0.154     0.144 -0.5285  0.6923 -0.4913
 
              Baa    -0.0107     0.778     0.278     0.259 -0.3171  0.8428  0.4349
    25 O(17)  Bbb    -0.0085     0.614     0.219     0.205 -0.5750 -0.5355  0.6186
              Bcc     0.0192    -1.392    -0.497    -0.464  0.7542 -0.0539  0.6544
 
              Baa    -0.0039     0.285     0.102     0.095  0.8056 -0.4303 -0.4072
    26 O(17)  Bbb    -0.0006     0.043     0.015     0.014  0.1944  0.8413 -0.5044
              Bcc     0.0045    -0.328    -0.117    -0.110  0.5596  0.3272  0.7614
 
              Baa    -0.0028    -1.473    -0.526    -0.491 -0.3765 -0.0570  0.9247
    27 H(1)   Bbb    -0.0022    -1.173    -0.419    -0.391  0.3811  0.9002  0.2107
              Bcc     0.0050     2.646     0.944     0.883  0.8444 -0.4317  0.3172
 
              Baa    -0.0015    -0.805    -0.287    -0.269 -0.1058 -0.2901  0.9511
    28 H(1)   Bbb    -0.0007    -0.358    -0.128    -0.119  0.8299  0.5011  0.2451
              Bcc     0.0022     1.163     0.415     0.388 -0.5477  0.8153  0.1877
 
              Baa    -0.0008    -0.405    -0.145    -0.135 -0.0851 -0.6477  0.7571
    29 H(1)   Bbb    -0.0006    -0.316    -0.113    -0.105  0.2216  0.7285  0.6482
              Bcc     0.0014     0.721     0.257     0.240  0.9714 -0.2229 -0.0815
 
              Baa    -0.0006    -0.303    -0.108    -0.101  0.0344 -0.5237  0.8512
    30 H(1)   Bbb    -0.0004    -0.228    -0.081    -0.076  0.7341  0.5912  0.3340
              Bcc     0.0010     0.531     0.189     0.177  0.6782 -0.6134 -0.4048
 
              Baa    -0.0006    -0.314    -0.112    -0.105  0.5166  0.7118  0.4760
    31 H(1)   Bbb    -0.0004    -0.208    -0.074    -0.069  0.1023 -0.6032  0.7910
              Bcc     0.0010     0.523     0.186     0.174  0.8501 -0.3599 -0.3844
 

 ---------------------------------------------------------------------------------

 No NMR shielding tensors so no spin-rotation constants.
 Leave Link  601 at Wed Jan 24 22:57:52 2024, MaxMem=  4026531840 cpu:              10.2 elap:               1.5
 (Enter /sysapps/ubuntu-applications/gaussian/Gaussian/AVX2/g16/l9999.exe)
 1\1\GINC-ACIDSGN001\SP\UB3LYP\6-311++G(d,p)\C14H10O6S1(1-,2)\SELHAJJ1\
 24-Jan-2024\0\\#P UB3LYP/6-311++G(d,p) SCRF=(PCM,Solvent=n,n-DiMethylF
 ormamide)\\Radical PCM in DMF\\-1,2\C,0,1.198426,4.248795,5.343036\C,0
 ,1.456757,4.003082,3.937491\C,0,0.975586,2.91238,3.286132\C,0,0.160876
 ,1.902253,3.938521\C,0,-0.087585,2.134234,5.356471\C,0,0.400775,3.2391
 91,6.032168\O,0,1.629979,5.269236,5.935902\O,0,-0.304354,0.923397,3.30
 8579\H,0,2.057254,4.749574,3.426393\H,0,1.172837,2.745769,2.231553\S,0
 ,-1.085791,0.892635,6.205302\C,0,0.233851,3.510297,7.502835\O,0,1.0108
 02,3.165809,8.356244\O,0,-0.849008,4.282244,7.742017\C,0,-1.070719,4.6
 04676,9.119462\H,0,-1.962255,5.230743,9.134463\H,0,-0.216612,5.147227,
 9.52972\H,0,-1.232409,3.692843,9.697949\C,0,-2.680468,0.888533,5.33715
 9\C,0,-2.911643,-0.025448,4.31331\C,0,-3.662699,1.786598,5.74855\C,0,-
 4.159587,-0.038607,3.692995\C,0,-4.904135,1.770265,5.115164\C,0,-5.152
 83,0.856975,4.090218\O,0,-0.498343,-0.445068,6.065184\O,0,-1.377881,1.
 402661,7.558617\H,0,-2.115056,-0.689712,4.009621\H,0,-3.451119,2.47612
 5,6.556372\H,0,-4.352482,-0.744667,2.892509\H,0,-5.676298,2.465903,5.4
 25802\H,0,-6.120447,0.845285,3.599019\\Version=ES64L-G16RevA.03\State=
 2-A\HF=-1389.4216646\S2=0.760187\S2-1=0.\S2A=0.750044\RMSD=7.396e-09\D
 ipole=-4.2440468,0.3958553,-0.9454058\Quadrupole=6.3599447,-10.4688164
 ,4.1088717,-8.3763456,-4.479118,1.6837474\PG=C01 [X(C14H10O6S1)]\\@


 IT IS DOUBTED WHETHER A MAN EVER BRINGS HIS FACULTIES TO BEAR WITH THEIR FULL FORCE
 ON A SUBJECT UNTIL HE WRITES UPON IT.

                          -- CICERO
 Job cpu time:       0 days  1 hours 14 minutes 28.6 seconds.
 Elapsed time:       0 days  0 hours 10 minutes  5.1 seconds.
 File lengths (MBytes):  RWF=    400 Int=      0 D2E=      0 Chk=     22 Scr=      1
 Normal termination of Gaussian 16 at Wed Jan 24 22:57:52 2024.
