 Entering Gaussian System, Link 0=g16
 Input=046-rad.com
 Output=046-rad.log
 Initial command:
 /sysapps/ubuntu-applications/gaussian/Gaussian/AVX2/g16/l1.exe "/scratch/selhajj1/4256481/Gau-3218955.inp" -scrdir="/scratch/selhajj1/4256481/"
 Entering Link 1 = /sysapps/ubuntu-applications/gaussian/Gaussian/AVX2/g16/l1.exe PID=   3218962.
  
 Copyright (c) 1988,1990,1992,1993,1995,1998,2003,2009,2016,
            Gaussian, Inc.  All Rights Reserved.
  
 This is part of the Gaussian(R) 16 program.  It is based on
 the Gaussian(R) 09 system (copyright 2009, Gaussian, Inc.),
 the Gaussian(R) 03 system (copyright 2003, Gaussian, Inc.),
 the Gaussian(R) 98 system (copyright 1998, Gaussian, Inc.),
 the Gaussian(R) 94 system (copyright 1995, Gaussian, Inc.),
 the Gaussian 92(TM) system (copyright 1992, Gaussian, Inc.),
 the Gaussian 90(TM) system (copyright 1990, Gaussian, Inc.),
 the Gaussian 88(TM) system (copyright 1988, Gaussian, Inc.),
 the Gaussian 86(TM) system (copyright 1986, Carnegie Mellon
 University), and the Gaussian 82(TM) system (copyright 1983,
 Carnegie Mellon University). Gaussian is a federally registered
 trademark of Gaussian, Inc.
  
 This software contains proprietary and confidential information,
 including trade secrets, belonging to Gaussian, Inc.
  
 This software is provided under written license and may be
 used, copied, transmitted, or stored only in accord with that
 written license.
  
 The following legend is applicable only to US Government
 contracts under FAR:
  
                    RESTRICTED RIGHTS LEGEND
  
 Use, reproduction and disclosure by the US Government is
 subject to restrictions as set forth in subparagraphs (a)
 and (c) of the Commercial Computer Software - Restricted
 Rights clause in FAR 52.227-19.
  
 Gaussian, Inc.
 340 Quinnipiac St., Bldg. 40, Wallingford CT 06492
  
  
 ---------------------------------------------------------------
 Warning -- This program may not be used in any manner that
 competes with the business of Gaussian, Inc. or will provide
 assistance to any competitor of Gaussian, Inc.  The licensee
 of this program is prohibited from giving any competitor of
 Gaussian, Inc. access to this program.  By using this program,
 the user acknowledges that Gaussian, Inc. is engaged in the
 business of creating and licensing software in the field of
 computational chemistry and represents and warrants to the
 licensee that it is not a competitor of Gaussian, Inc. and that
 it will not use this program in any manner prohibited above.
 ---------------------------------------------------------------
  

 Cite this work as:
 Gaussian 16, Revision A.03,
 M. J. Frisch, G. W. Trucks, H. B. Schlegel, G. E. Scuseria, 
 M. A. Robb, J. R. Cheeseman, G. Scalmani, V. Barone, 
 G. A. Petersson, H. Nakatsuji, X. Li, M. Caricato, A. V. Marenich, 
 J. Bloino, B. G. Janesko, R. Gomperts, B. Mennucci, H. P. Hratchian, 
 J. V. Ortiz, A. F. Izmaylov, J. L. Sonnenberg, D. Williams-Young, 
 F. Ding, F. Lipparini, F. Egidi, J. Goings, B. Peng, A. Petrone, 
 T. Henderson, D. Ranasinghe, V. G. Zakrzewski, J. Gao, N. Rega, 
 G. Zheng, W. Liang, M. Hada, M. Ehara, K. Toyota, R. Fukuda, 
 J. Hasegawa, M. Ishida, T. Nakajima, Y. Honda, O. Kitao, H. Nakai, 
 T. Vreven, K. Throssell, J. A. Montgomery, Jr., J. E. Peralta, 
 F. Ogliaro, M. J. Bearpark, J. J. Heyd, E. N. Brothers, K. N. Kudin, 
 V. N. Staroverov, T. A. Keith, R. Kobayashi, J. Normand, 
 K. Raghavachari, A. P. Rendell, J. C. Burant, S. S. Iyengar, 
 J. Tomasi, M. Cossi, J. M. Millam, M. Klene, C. Adamo, R. Cammi, 
 J. W. Ochterski, R. L. Martin, K. Morokuma, O. Farkas, 
 J. B. Foresman, and D. J. Fox, Gaussian, Inc., Wallingford CT, 2016.
 
 ******************************************
 Gaussian 16:  ES64L-G16RevA.03 25-Dec-2016
                 6-Jan-2024 
 ******************************************
 %chk=046-rad.chk
 %nproc=8
 Will use up to    8 processors via shared memory.
 %mem=30GB
 --------------------------------------
 #P UB3LYP/6-311++G(d,p) nosym opt freq
 --------------------------------------
 1/18=20,19=15,26=3,38=1/1,3;
 2/9=110,12=2,15=1,17=6,18=5,40=1/2;
 3/5=4,6=6,7=1111,11=2,25=1,30=1,71=1,74=-5,116=2/1,2,3;
 4//1;
 5/5=2,38=5/2;
 6/7=2,8=2,9=2,10=2,28=1/1;
 7/30=1/1,2,3,16;
 1/18=20,19=15,26=3/3(2);
 2/9=110,15=1/2;
 99//99;
 2/9=110,15=1/2;
 3/5=4,6=6,7=1111,11=2,25=1,30=1,71=1,74=-5,116=2/1,2,3;
 4/5=5,16=3,69=1/1;
 5/5=2,38=5/2;
 7/30=1/1,2,3,16;
 1/18=20,19=15,26=3/3(-5);
 2/9=110,15=1/2;
 6/7=2,8=2,9=2,10=2,19=2,28=1/1;
 99/9=1/99;
 Leave Link    1 at Sat Jan  6 05:37:04 2024, MaxMem=  4026531840 cpu:               0.5 elap:               0.1
 (Enter /sysapps/ubuntu-applications/gaussian/Gaussian/AVX2/g16/l101.exe)
 -------
 Radical
 -------
 Symbolic Z-matrix:
 Charge = -1 Multiplicity = 2
 C                     2.62144  -0.33828  -1.93745 
 C                     2.59148  -0.00532  -0.42563 
 C                     2.80328   1.51578  -0.2285 
 C                     3.78556  -0.72693   0.2299 
 C                     1.24048  -0.43432   0.18381 
 C                     1.17343  -1.35983   1.1967 
 C                    -0.06336  -1.79442   1.80005 
 O                    -0.0935   -2.65005   2.73336 
 C                    -1.26354  -1.19134   1.27233 
 C                    -1.26504  -0.261     0.26163 
 C                     0.00588   0.16611  -0.33746 
 O                     0.03628   1.02491  -1.27349 
 C                    -2.57918   0.35287  -0.26479 
 C                    -2.74872   0.03324  -1.77026 
 C                    -3.81852  -0.19918   0.46696 
 C                    -2.56636   1.88784  -0.06204 
 H                     3.58087  -0.03226  -2.374 
 H                     2.50848  -1.41655  -2.09239 
 H                     1.81325   0.17576  -2.45604 
 H                     1.99926   2.07623  -0.70369 
 H                     3.76256   1.82451  -0.66353 
 H                     2.82109   1.76287   0.83829 
 H                     3.72635  -1.81194   0.10394 
 H                     3.85409  -0.51382   1.30063 
 H                     4.71489  -0.38571  -0.2394 
 H                     2.06464  -1.82197   1.60433 
 H                    -2.18289  -1.52834   1.73617 
 H                    -3.68156   0.47127  -2.14811 
 H                    -2.79636  -1.04964  -1.92681 
 H                    -1.91078   0.43229  -2.34028 
 H                    -3.79041   0.01764   1.53876 
 H                    -4.71914   0.2688    0.05438 
 H                    -3.91768  -1.28148   0.34315 
 H                    -3.49945   2.32757  -0.43721 
 H                    -2.48249   2.13081   1.00255 
 H                    -1.72434   2.33389  -0.58965 
 
 ITRead=  0  0  0  0  0  0  0  0  0  0  0  0  0  0  0  0  0  0  0  0
 ITRead=  0  0  0  0  0  0  0  0  0  0  0  0  0  0  0  0
 MicOpt= -1 -1 -1 -1 -1 -1 -1 -1 -1 -1 -1 -1 -1 -1 -1 -1 -1 -1 -1 -1
 MicOpt= -1 -1 -1 -1 -1 -1 -1 -1 -1 -1 -1 -1 -1 -1 -1 -1
 NAtoms=     36 NQM=       36 NQMF=       0 NMMI=      0 NMMIF=      0
                NMic=       0 NMicF=      0.
                    Isotopes and Nuclear Properties:
 (Nuclear quadrupole moments (NQMom) in fm**2, nuclear magnetic moments (NMagM)
  in nuclear magnetons)

  Atom         1           2           3           4           5           6           7           8           9          10
 IAtWgt=          12          12          12          12          12          12          12          16          12          12
 AtmWgt=  12.0000000  12.0000000  12.0000000  12.0000000  12.0000000  12.0000000  12.0000000  15.9949146  12.0000000  12.0000000
 NucSpn=           0           0           0           0           0           0           0           0           0           0
 AtZEff=  -0.0000000  -0.0000000  -0.0000000  -0.0000000  -0.0000000  -0.0000000  -0.0000000  -0.0000000  -0.0000000  -0.0000000
 NQMom=    0.0000000   0.0000000   0.0000000   0.0000000   0.0000000   0.0000000   0.0000000   0.0000000   0.0000000   0.0000000
 NMagM=    0.0000000   0.0000000   0.0000000   0.0000000   0.0000000   0.0000000   0.0000000   0.0000000   0.0000000   0.0000000
 AtZNuc=   6.0000000   6.0000000   6.0000000   6.0000000   6.0000000   6.0000000   6.0000000   8.0000000   6.0000000   6.0000000

  Atom        11          12          13          14          15          16          17          18          19          20
 IAtWgt=          12          16          12          12          12          12           1           1           1           1
 AtmWgt=  12.0000000  15.9949146  12.0000000  12.0000000  12.0000000  12.0000000   1.0078250   1.0078250   1.0078250   1.0078250
 NucSpn=           0           0           0           0           0           0           1           1           1           1
 AtZEff=  -0.0000000  -0.0000000  -0.0000000  -0.0000000  -0.0000000  -0.0000000  -0.0000000  -0.0000000  -0.0000000  -0.0000000
 NQMom=    0.0000000   0.0000000   0.0000000   0.0000000   0.0000000   0.0000000   0.0000000   0.0000000   0.0000000   0.0000000
 NMagM=    0.0000000   0.0000000   0.0000000   0.0000000   0.0000000   0.0000000   2.7928460   2.7928460   2.7928460   2.7928460
 AtZNuc=   6.0000000   8.0000000   6.0000000   6.0000000   6.0000000   6.0000000   1.0000000   1.0000000   1.0000000   1.0000000

  Atom        21          22          23          24          25          26          27          28          29          30
 IAtWgt=           1           1           1           1           1           1           1           1           1           1
 AtmWgt=   1.0078250   1.0078250   1.0078250   1.0078250   1.0078250   1.0078250   1.0078250   1.0078250   1.0078250   1.0078250
 NucSpn=           1           1           1           1           1           1           1           1           1           1
 AtZEff=  -0.0000000  -0.0000000  -0.0000000  -0.0000000  -0.0000000  -0.0000000  -0.0000000  -0.0000000  -0.0000000  -0.0000000
 NQMom=    0.0000000   0.0000000   0.0000000   0.0000000   0.0000000   0.0000000   0.0000000   0.0000000   0.0000000   0.0000000
 NMagM=    2.7928460   2.7928460   2.7928460   2.7928460   2.7928460   2.7928460   2.7928460   2.7928460   2.7928460   2.7928460
 AtZNuc=   1.0000000   1.0000000   1.0000000   1.0000000   1.0000000   1.0000000   1.0000000   1.0000000   1.0000000   1.0000000

  Atom        31          32          33          34          35          36
 IAtWgt=           1           1           1           1           1           1
 AtmWgt=   1.0078250   1.0078250   1.0078250   1.0078250   1.0078250   1.0078250
 NucSpn=           1           1           1           1           1           1
 AtZEff=  -0.0000000  -0.0000000  -0.0000000  -0.0000000  -0.0000000  -0.0000000
 NQMom=    0.0000000   0.0000000   0.0000000   0.0000000   0.0000000   0.0000000
 NMagM=    2.7928460   2.7928460   2.7928460   2.7928460   2.7928460   2.7928460
 AtZNuc=   1.0000000   1.0000000   1.0000000   1.0000000   1.0000000   1.0000000
 Leave Link  101 at Sat Jan  6 05:37:05 2024, MaxMem=  4026531840 cpu:               2.6 elap:               0.6
 (Enter /sysapps/ubuntu-applications/gaussian/Gaussian/AVX2/g16/l103.exe)

 GradGradGradGradGradGradGradGradGradGradGradGradGradGradGradGradGradGrad
 Berny optimization.
 Initialization pass.
                           ----------------------------
                           !    Initial Parameters    !
                           ! (Angstroms and Degrees)  !
 --------------------------                            --------------------------
 ! Name  Definition              Value          Derivative Info.                !
 --------------------------------------------------------------------------------
 ! R1    R(1,2)                  1.5483         estimate D2E/DX2                !
 ! R2    R(1,17)                 1.0976         estimate D2E/DX2                !
 ! R3    R(1,18)                 1.0952         estimate D2E/DX2                !
 ! R4    R(1,19)                 1.0892         estimate D2E/DX2                !
 ! R5    R(2,3)                  1.5484         estimate D2E/DX2                !
 ! R6    R(2,4)                  1.5415         estimate D2E/DX2                !
 ! R7    R(2,5)                  1.5429         estimate D2E/DX2                !
 ! R8    R(3,20)                 1.0892         estimate D2E/DX2                !
 ! R9    R(3,21)                 1.0976         estimate D2E/DX2                !
 ! R10   R(3,22)                 1.0952         estimate D2E/DX2                !
 ! R11   R(4,23)                 1.0939         estimate D2E/DX2                !
 ! R12   R(4,24)                 1.0939         estimate D2E/DX2                !
 ! R13   R(4,25)                 1.0956         estimate D2E/DX2                !
 ! R14   R(5,6)                  1.3737         estimate D2E/DX2                !
 ! R15   R(5,11)                 1.4685         estimate D2E/DX2                !
 ! R16   R(6,7)                  1.4431         estimate D2E/DX2                !
 ! R17   R(6,26)                 1.0835         estimate D2E/DX2                !
 ! R18   R(7,8)                  1.2665         estimate D2E/DX2                !
 ! R19   R(7,9)                  1.4431         estimate D2E/DX2                !
 ! R20   R(9,10)                 1.3737         estimate D2E/DX2                !
 ! R21   R(9,27)                 1.0835         estimate D2E/DX2                !
 ! R22   R(10,11)                1.4685         estimate D2E/DX2                !
 ! R23   R(10,13)                1.543          estimate D2E/DX2                !
 ! R24   R(11,12)                1.2707         estimate D2E/DX2                !
 ! R25   R(13,14)                1.5483         estimate D2E/DX2                !
 ! R26   R(13,15)                1.5415         estimate D2E/DX2                !
 ! R27   R(13,16)                1.5484         estimate D2E/DX2                !
 ! R28   R(14,28)                1.0976         estimate D2E/DX2                !
 ! R29   R(14,29)                1.0952         estimate D2E/DX2                !
 ! R30   R(14,30)                1.0892         estimate D2E/DX2                !
 ! R31   R(15,31)                1.0939         estimate D2E/DX2                !
 ! R32   R(15,32)                1.0956         estimate D2E/DX2                !
 ! R33   R(15,33)                1.0939         estimate D2E/DX2                !
 ! R34   R(16,34)                1.0976         estimate D2E/DX2                !
 ! R35   R(16,35)                1.0952         estimate D2E/DX2                !
 ! R36   R(16,36)                1.0892         estimate D2E/DX2                !
 ! A1    A(2,1,17)             110.2003         estimate D2E/DX2                !
 ! A2    A(2,1,18)             110.357          estimate D2E/DX2                !
 ! A3    A(2,1,19)             110.429          estimate D2E/DX2                !
 ! A4    A(17,1,18)            107.9626         estimate D2E/DX2                !
 ! A5    A(17,1,19)            109.1256         estimate D2E/DX2                !
 ! A6    A(18,1,19)            108.7092         estimate D2E/DX2                !
 ! A7    A(1,2,3)              109.4462         estimate D2E/DX2                !
 ! A8    A(1,2,4)              107.4314         estimate D2E/DX2                !
 ! A9    A(1,2,5)              110.0486         estimate D2E/DX2                !
 ! A10   A(3,2,4)              107.4439         estimate D2E/DX2                !
 ! A11   A(3,2,5)              110.0373         estimate D2E/DX2                !
 ! A12   A(4,2,5)              112.3418         estimate D2E/DX2                !
 ! A13   A(2,3,20)             110.4243         estimate D2E/DX2                !
 ! A14   A(2,3,21)             110.2067         estimate D2E/DX2                !
 ! A15   A(2,3,22)             110.3577         estimate D2E/DX2                !
 ! A16   A(20,3,21)            109.1167         estimate D2E/DX2                !
 ! A17   A(20,3,22)            108.716          estimate D2E/DX2                !
 ! A18   A(21,3,22)            107.9623         estimate D2E/DX2                !
 ! A19   A(2,4,23)             111.9266         estimate D2E/DX2                !
 ! A20   A(2,4,24)             111.9367         estimate D2E/DX2                !
 ! A21   A(2,4,25)             109.2148         estimate D2E/DX2                !
 ! A22   A(23,4,24)            108.0192         estimate D2E/DX2                !
 ! A23   A(23,4,25)            107.7884         estimate D2E/DX2                !
 ! A24   A(24,4,25)            107.7865         estimate D2E/DX2                !
 ! A25   A(2,5,6)              121.4201         estimate D2E/DX2                !
 ! A26   A(2,5,11)             118.8326         estimate D2E/DX2                !
 ! A27   A(6,5,11)             119.7473         estimate D2E/DX2                !
 ! A28   A(5,6,7)              123.574          estimate D2E/DX2                !
 ! A29   A(5,6,26)             121.6429         estimate D2E/DX2                !
 ! A30   A(7,6,26)             114.7831         estimate D2E/DX2                !
 ! A31   A(6,7,8)              122.1369         estimate D2E/DX2                !
 ! A32   A(6,7,9)              115.7224         estimate D2E/DX2                !
 ! A33   A(8,7,9)              122.1407         estimate D2E/DX2                !
 ! A34   A(7,9,10)             123.5718         estimate D2E/DX2                !
 ! A35   A(7,9,27)             114.7809         estimate D2E/DX2                !
 ! A36   A(10,9,27)            121.6474         estimate D2E/DX2                !
 ! A37   A(9,10,11)            119.7476         estimate D2E/DX2                !
 ! A38   A(9,10,13)            121.4247         estimate D2E/DX2                !
 ! A39   A(11,10,13)           118.8277         estimate D2E/DX2                !
 ! A40   A(5,11,10)            117.6369         estimate D2E/DX2                !
 ! A41   A(5,11,12)            121.179          estimate D2E/DX2                !
 ! A42   A(10,11,12)           121.184          estimate D2E/DX2                !
 ! A43   A(10,13,14)           110.0505         estimate D2E/DX2                !
 ! A44   A(10,13,15)           112.3527         estimate D2E/DX2                !
 ! A45   A(10,13,16)           110.0398         estimate D2E/DX2                !
 ! A46   A(14,13,15)           107.4331         estimate D2E/DX2                !
 ! A47   A(14,13,16)           109.4431         estimate D2E/DX2                !
 ! A48   A(15,13,16)           107.4295         estimate D2E/DX2                !
 ! A49   A(13,14,28)           110.2056         estimate D2E/DX2                !
 ! A50   A(13,14,29)           110.3572         estimate D2E/DX2                !
 ! A51   A(13,14,30)           110.4254         estimate D2E/DX2                !
 ! A52   A(28,14,29)           107.9636         estimate D2E/DX2                !
 ! A53   A(28,14,30)           109.1136         estimate D2E/DX2                !
 ! A54   A(29,14,30)           108.7183         estimate D2E/DX2                !
 ! A55   A(13,15,31)           111.9305         estimate D2E/DX2                !
 ! A56   A(13,15,32)           109.2189         estimate D2E/DX2                !
 ! A57   A(13,15,33)           111.9314         estimate D2E/DX2                !
 ! A58   A(31,15,32)           107.7841         estimate D2E/DX2                !
 ! A59   A(31,15,33)           108.02           estimate D2E/DX2                !
 ! A60   A(32,15,33)           107.7872         estimate D2E/DX2                !
 ! A61   A(13,16,34)           110.204          estimate D2E/DX2                !
 ! A62   A(13,16,35)           110.3562         estimate D2E/DX2                !
 ! A63   A(13,16,36)           110.4242         estimate D2E/DX2                !
 ! A64   A(34,16,35)           107.9671         estimate D2E/DX2                !
 ! A65   A(34,16,36)           109.12           estimate D2E/DX2                !
 ! A66   A(35,16,36)           108.7124         estimate D2E/DX2                !
 ! D1    D(17,1,2,3)            58.8481         estimate D2E/DX2                !
 ! D2    D(17,1,2,4)           -57.5155         estimate D2E/DX2                !
 ! D3    D(17,1,2,5)           179.8885         estimate D2E/DX2                !
 ! D4    D(18,1,2,3)           177.993          estimate D2E/DX2                !
 ! D5    D(18,1,2,4)            61.6294         estimate D2E/DX2                !
 ! D6    D(18,1,2,5)           -60.9666         estimate D2E/DX2                !
 ! D7    D(19,1,2,3)           -61.7885         estimate D2E/DX2                !
 ! D8    D(19,1,2,4)          -178.152          estimate D2E/DX2                !
 ! D9    D(19,1,2,5)            59.2519         estimate D2E/DX2                !
 ! D10   D(1,2,3,20)            61.8261         estimate D2E/DX2                !
 ! D11   D(1,2,3,21)           -58.8005         estimate D2E/DX2                !
 ! D12   D(1,2,3,22)          -177.9495         estimate D2E/DX2                !
 ! D13   D(4,2,3,20)           178.1817         estimate D2E/DX2                !
 ! D14   D(4,2,3,21)            57.5551         estimate D2E/DX2                !
 ! D15   D(4,2,3,22)           -61.5938         estimate D2E/DX2                !
 ! D16   D(5,2,3,20)           -59.2212         estimate D2E/DX2                !
 ! D17   D(5,2,3,21)          -179.8478         estimate D2E/DX2                !
 ! D18   D(5,2,3,22)            61.0032         estimate D2E/DX2                !
 ! D19   D(1,2,4,23)           -60.4461         estimate D2E/DX2                !
 ! D20   D(1,2,4,24)           178.1141         estimate D2E/DX2                !
 ! D21   D(1,2,4,25)            58.832          estimate D2E/DX2                !
 ! D22   D(3,2,4,23)          -178.1194         estimate D2E/DX2                !
 ! D23   D(3,2,4,24)            60.4407         estimate D2E/DX2                !
 ! D24   D(3,2,4,25)           -58.8413         estimate D2E/DX2                !
 ! D25   D(5,2,4,23)            60.7201         estimate D2E/DX2                !
 ! D26   D(5,2,4,24)           -60.7197         estimate D2E/DX2                !
 ! D27   D(5,2,4,25)           179.9983         estimate D2E/DX2                !
 ! D28   D(1,2,5,6)            119.7098         estimate D2E/DX2                !
 ! D29   D(1,2,5,11)           -60.3008         estimate D2E/DX2                !
 ! D30   D(3,2,5,6)           -119.6048         estimate D2E/DX2                !
 ! D31   D(3,2,5,11)            60.3847         estimate D2E/DX2                !
 ! D32   D(4,2,5,6)              0.0565         estimate D2E/DX2                !
 ! D33   D(4,2,5,11)          -179.954          estimate D2E/DX2                !
 ! D34   D(2,5,6,7)           -179.9981         estimate D2E/DX2                !
 ! D35   D(2,5,6,26)            -0.005          estimate D2E/DX2                !
 ! D36   D(11,5,6,7)             0.0125         estimate D2E/DX2                !
 ! D37   D(11,5,6,26)         -179.9944         estimate D2E/DX2                !
 ! D38   D(2,5,11,10)         -179.9937         estimate D2E/DX2                !
 ! D39   D(2,5,11,12)           -0.0065         estimate D2E/DX2                !
 ! D40   D(6,5,11,10)           -0.0041         estimate D2E/DX2                !
 ! D41   D(6,5,11,12)          179.9831         estimate D2E/DX2                !
 ! D42   D(5,6,7,8)           -179.9905         estimate D2E/DX2                !
 ! D43   D(5,6,7,9)             -0.0146         estimate D2E/DX2                !
 ! D44   D(26,6,7,8)             0.0159         estimate D2E/DX2                !
 ! D45   D(26,6,7,9)           179.9918         estimate D2E/DX2                !
 ! D46   D(6,7,9,10)             0.009          estimate D2E/DX2                !
 ! D47   D(6,7,9,27)          -179.9923         estimate D2E/DX2                !
 ! D48   D(8,7,9,10)           179.9848         estimate D2E/DX2                !
 ! D49   D(8,7,9,27)            -0.0164         estimate D2E/DX2                !
 ! D50   D(7,9,10,11)           -0.0015         estimate D2E/DX2                !
 ! D51   D(7,9,10,13)         -179.9731         estimate D2E/DX2                !
 ! D52   D(27,9,10,11)         179.9998         estimate D2E/DX2                !
 ! D53   D(27,9,10,13)           0.0282         estimate D2E/DX2                !
 ! D54   D(9,10,11,5)           -0.0012         estimate D2E/DX2                !
 ! D55   D(9,10,11,12)        -179.9885         estimate D2E/DX2                !
 ! D56   D(13,10,11,5)         179.9711         estimate D2E/DX2                !
 ! D57   D(13,10,11,12)         -0.0161         estimate D2E/DX2                !
 ! D58   D(9,10,13,14)        -119.6815         estimate D2E/DX2                !
 ! D59   D(9,10,13,15)          -0.0178         estimate D2E/DX2                !
 ! D60   D(9,10,13,16)         119.634          estimate D2E/DX2                !
 ! D61   D(11,10,13,14)         60.3466         estimate D2E/DX2                !
 ! D62   D(11,10,13,15)       -179.9897         estimate D2E/DX2                !
 ! D63   D(11,10,13,16)        -60.3378         estimate D2E/DX2                !
 ! D64   D(10,13,14,28)       -179.8388         estimate D2E/DX2                !
 ! D65   D(10,13,14,29)         61.0117         estimate D2E/DX2                !
 ! D66   D(10,13,14,30)        -59.2161         estimate D2E/DX2                !
 ! D67   D(15,13,14,28)         57.5496         estimate D2E/DX2                !
 ! D68   D(15,13,14,29)        -61.5999         estimate D2E/DX2                !
 ! D69   D(15,13,14,30)        178.1723         estimate D2E/DX2                !
 ! D70   D(16,13,14,28)        -58.7961         estimate D2E/DX2                !
 ! D71   D(16,13,14,29)       -177.9456         estimate D2E/DX2                !
 ! D72   D(16,13,14,30)         61.8266         estimate D2E/DX2                !
 ! D73   D(10,13,15,31)         60.7396         estimate D2E/DX2                !
 ! D74   D(10,13,15,32)       -179.9826         estimate D2E/DX2                !
 ! D75   D(10,13,15,33)        -60.7003         estimate D2E/DX2                !
 ! D76   D(14,13,15,31)       -178.0841         estimate D2E/DX2                !
 ! D77   D(14,13,15,32)        -58.8063         estimate D2E/DX2                !
 ! D78   D(14,13,15,33)         60.476          estimate D2E/DX2                !
 ! D79   D(16,13,15,31)        -60.421          estimate D2E/DX2                !
 ! D80   D(16,13,15,32)         58.8568         estimate D2E/DX2                !
 ! D81   D(16,13,15,33)        178.139          estimate D2E/DX2                !
 ! D82   D(10,13,16,34)        179.9055         estimate D2E/DX2                !
 ! D83   D(10,13,16,35)        -60.9423         estimate D2E/DX2                !
 ! D84   D(10,13,16,36)         59.2766         estimate D2E/DX2                !
 ! D85   D(14,13,16,34)         58.8563         estimate D2E/DX2                !
 ! D86   D(14,13,16,35)        178.0085         estimate D2E/DX2                !
 ! D87   D(14,13,16,36)        -61.7725         estimate D2E/DX2                !
 ! D88   D(15,13,16,34)        -57.4917         estimate D2E/DX2                !
 ! D89   D(15,13,16,35)         61.6605         estimate D2E/DX2                !
 ! D90   D(15,13,16,36)       -178.1206         estimate D2E/DX2                !
 --------------------------------------------------------------------------------
 Trust Radius=3.00D-01 FncErr=1.00D-07 GrdErr=1.00D-06 EigMax=2.50D+02 EigMin=1.00D-04
 Number of steps in this run=    202 maximum allowed number of steps=    216.
 GradGradGradGradGradGradGradGradGradGradGradGradGradGradGradGradGradGrad

 Leave Link  103 at Sat Jan  6 05:37:05 2024, MaxMem=  4026531840 cpu:               0.3 elap:               0.1
 (Enter /sysapps/ubuntu-applications/gaussian/Gaussian/AVX2/g16/l202.exe)
                          Input orientation:                          
 ---------------------------------------------------------------------
 Center     Atomic      Atomic             Coordinates (Angstroms)
 Number     Number       Type             X           Y           Z
 ---------------------------------------------------------------------
      1          6           0        2.621438   -0.338284   -1.937451
      2          6           0        2.591480   -0.005317   -0.425627
      3          6           0        2.803282    1.515777   -0.228499
      4          6           0        3.785560   -0.726927    0.229902
      5          6           0        1.240482   -0.434317    0.183808
      6          6           0        1.173433   -1.359825    1.196700
      7          6           0       -0.063360   -1.794424    1.800054
      8          8           0       -0.093501   -2.650050    2.733355
      9          6           0       -1.263537   -1.191344    1.272332
     10          6           0       -1.265041   -0.261002    0.261633
     11          6           0        0.005881    0.166109   -0.337462
     12          8           0        0.036278    1.024908   -1.273491
     13          6           0       -2.579178    0.352867   -0.264786
     14          6           0       -2.748722    0.033238   -1.770256
     15          6           0       -3.818517   -0.199179    0.466958
     16          6           0       -2.566356    1.887835   -0.062044
     17          1           0        3.580869   -0.032258   -2.374002
     18          1           0        2.508476   -1.416548   -2.092393
     19          1           0        1.813254    0.175759   -2.456043
     20          1           0        1.999255    2.076233   -0.703692
     21          1           0        3.762556    1.824507   -0.663525
     22          1           0        2.821091    1.762866    0.838288
     23          1           0        3.726352   -1.811939    0.103938
     24          1           0        3.854088   -0.513823    1.300633
     25          1           0        4.714891   -0.385706   -0.239397
     26          1           0        2.064638   -1.821969    1.604330
     27          1           0       -2.182890   -1.528337    1.736165
     28          1           0       -3.681555    0.471272   -2.148112
     29          1           0       -2.796357   -1.049641   -1.926812
     30          1           0       -1.910784    0.432293   -2.340282
     31          1           0       -3.790412    0.017640    1.538763
     32          1           0       -4.719137    0.268798    0.054384
     33          1           0       -3.917681   -1.281482    0.343146
     34          1           0       -3.499447    2.327566   -0.437211
     35          1           0       -2.482490    2.130809    1.002551
     36          1           0       -1.724342    2.333894   -0.589652
 ---------------------------------------------------------------------
                    Distance matrix (angstroms):
                    1          2          3          4          5
     1  C    0.000000
     2  C    1.548346   0.000000
     3  C    2.528068   1.548369   0.000000
     4  C    2.490711   1.541514   2.490928   0.000000
     5  C    2.532983   1.542935   2.532826   2.562258   0.000000
     6  C    3.600440   2.545092   3.599540   2.856303   1.373685
     7  C    4.826741   3.899069   4.825981   4.291749   2.482367
     8  O    5.876358   4.917612   5.875206   5.001279   3.631690
     9  C    5.111110   4.376172   5.110774   5.176459   2.833388
    10  C    4.466169   3.925615   4.466366   5.072146   2.512716
    11  C    3.107333   2.592775   3.107882   3.924970   1.468494
    12  O    2.997030   2.882585   2.998211   4.402980   2.388130
    13  C    5.506533   5.185544   5.506773   6.474609   3.925646
    14  C    5.385592   5.507020   5.949763   6.875705   4.466623
    15  C    6.875577   6.474747   6.875533   7.626054   5.072370
    16  C    5.948610   5.506314   5.385086   6.875249   4.465966
    17  H    1.097605   2.185356   2.757578   2.702736   3.490194
    18  H    1.095181   2.185537   3.487053   2.738535   2.784543
    19  H    1.089192   2.181975   2.781682   3.452410   2.769309
    20  H    2.781936   2.181949   1.089210   3.452563   2.768800
    21  H    2.757300   2.185468   1.097619   2.703434   3.490146
    22  H    3.487036   2.185560   1.095173   2.738504   2.784651
    23  H    2.749502   2.198239   3.469332   1.093903   2.843197
    24  H    3.469211   2.198347   2.749857   1.093880   2.843335
    25  H    2.695957   2.165237   2.696295   1.095595   3.500426
    26  H    3.880149   2.774619   3.878841   2.459622   2.150045
    27  H    6.163866   5.457797   6.163477   6.207534   3.914865
    28  H    6.358261   6.522657   6.843173   7.927701   5.521267
    29  H    5.464306   5.689724   6.389178   6.933772   4.596674
    30  H    4.614878   4.912004   5.277877   6.355940   4.129470
    31  H    7.302230   6.677417   6.988879   7.724173   5.229729
    32  H    7.630203   7.331485   7.630319   8.564587   6.002348
    33  H    6.989336   6.677484   7.302245   7.724007   5.229696
    34  H    6.842712   6.522413   6.358219   7.927565   5.520923
    35  H    6.386714   5.687521   5.461972   6.931962   4.594642
    36  H    5.276637   4.911734   4.615098   6.356045   4.129336
                    6          7          8          9         10
     6  C    0.000000
     7  C    1.443111   0.000000
     8  O    2.372996   1.266513   0.000000
     9  C    2.443958   1.443129   2.373056   0.000000
    10  C    2.833358   2.482370   3.631730   1.373700   0.000000
    11  C    2.458720   2.901286   4.167799   2.458767   1.468530
    12  O    3.616893   4.171959   5.438472   3.616975   2.388221
    13  C    4.376225   3.899200   4.917820   2.545237   1.543019
    14  C    5.111433   4.826866   5.876457   3.600377   2.533073
    15  C    5.176793   4.292220   5.001906   2.856736   2.562464
    16  C    5.110553   4.826119   5.875514   3.599894   2.532921
    17  H    4.506450   5.814497   6.814611   6.173127   5.521027
    18  H    3.550168   4.680628   5.619578   5.059661   4.595232
    19  H    4.013717   5.051501   6.208926   5.023584   4.129458
    20  H    4.012476   5.050258   6.207308   5.022703   4.129183
    21  H    4.505992   5.814079   6.813929   6.172885   5.521050
    22  H    3.548864   4.679676   5.617825   5.059638   4.596199
    23  H    2.813526   4.151991   4.712488   5.162294   5.229176
    24  H    2.812905   4.151597   4.711647   5.162356   5.229620
    25  H    3.943755   5.382892   6.089757   6.219001   6.002180
    26  H    1.083506   2.137157   2.572543   3.403624   3.914871
    27  H    3.403575   2.137122   2.572581   1.083474   2.150077
    28  H    6.173459   5.814871   6.815094   4.506722   3.490363
    29  H    5.060808   4.681186   5.619955   3.550231   2.784990
    30  H    5.023378   5.051101   6.208474   4.013241   2.769044
    31  H    5.162768   4.152441   4.712830   2.813845   2.843625
    32  H    6.219299   5.383355   6.090408   3.944183   3.500631
    33  H    5.162764   4.152286   4.712794   2.813537   2.843330
    34  H    6.172708   5.814022   6.813928   4.506058   3.490220
    35  H    5.058458   4.679279   5.617790   3.548990   2.784224
    36  H    5.023118   5.050996   6.208197   4.013306   2.769319
                   11         12         13         14         15
    11  C    0.000000
    12  O    1.270673   0.000000
    13  C    2.592815   2.882661   0.000000
    14  C    3.107795   2.997734   1.548337   0.000000
    15  C    3.925117   4.403067   1.541482   2.490704   0.000000
    16  C    3.107507   2.997658   1.548353   2.527998   2.490658
    17  H    4.119148   3.859126   6.522522   6.358657   7.927788
    18  H    3.442030   3.569744   5.688163   5.462946   6.932756
    19  H    2.784794   2.297200   4.911867   4.615435   6.356206
    20  H    2.785002   2.298529   4.911688   5.277753   6.355658
    21  H    4.119370   3.859607   6.522446   6.843262   7.927545
    22  H    3.443462   3.572027   5.689268   6.388970   6.933390
    23  H    4.236675   4.854035   6.676979   6.988839   7.723848
    24  H    4.237259   4.854841   6.677470   7.302516   7.724175
    25  H    4.742245   4.994858   7.331410   7.630502   8.564624
    26  H    3.458539   4.527782   5.457887   6.164256   6.207945
    27  H    3.458583   4.527891   2.774847   3.879906   2.460249
    28  H    4.119316   3.859243   2.185445   1.097646   2.703119
    29  H    3.443344   3.571331   2.185526   1.095174   2.738290
    30  H    2.784914   2.297887   2.181913   1.089181   3.452361
    31  H    4.237228   4.854577   2.198239   3.469145   1.093877
    32  H    4.742350   4.994890   2.165262   2.695799   1.095599
    33  H    4.237108   4.854559   2.198242   2.749804   1.093866
    34  H    4.119365   3.859745   2.185420   2.757633   2.702548
    35  H    3.442045   3.570375   2.185536   3.486996   2.738735
    36  H    2.785061   2.298013   2.181914   2.781402   3.452311
                   16         17         18         19         20
    16  C    0.000000
    17  H    6.842535   0.000000
    18  H    6.387111   1.773581   0.000000
    19  H    5.276686   1.781703   1.775110   0.000000
    20  H    4.614327   3.120444   3.793062   2.591743   0.000000
    21  H    6.357745   2.531071   3.757502   3.119498   1.781631
    22  H    5.463589   3.757465   4.335354   3.793054   1.775195
    23  H    7.301647   3.054278   2.542327   3.763561   4.330475
    24  H    6.989059   3.716113   3.760081   4.330490   3.763790
    25  H    7.630007   2.442841   3.060146   3.694355   3.694779
    26  H    6.163242   4.618349   3.745280   4.532189   4.530697
    27  H    3.879540   7.235513   6.056341   6.037195   6.036238
    28  H    2.757172   7.283363   6.471743   5.511359   6.077323
    29  H    3.486979   6.473334   5.320084   4.798979   5.853632
    30  H    2.781860   5.511370   4.796824   3.734658   4.546358
    31  H    2.749277   8.345538   7.410680   6.883644   6.541151
    32  H    2.696164   8.653196   7.725764   6.998788   6.998449
    33  H    3.469125   8.072899   6.873543   6.542372   6.883331
    34  H    1.097621   7.710435   7.270018   6.077067   5.510890
    35  H    1.095186   7.269408   6.860916   5.851283   4.795861
    36  H    1.089186   6.076828   5.851563   4.544837   3.734243
                   21         22         23         24         25
    21  H    0.000000
    22  H    1.773583   0.000000
    23  H    3.716726   3.760053   0.000000
    24  H    3.055173   2.542471   1.770170   0.000000
    25  H    2.443741   3.060105   1.768963   1.768923   0.000000
    26  H    4.617670   3.743005   2.238877   2.237322   3.533557
    27  H    7.235220   6.056239   6.137079   6.137103   7.265524
    28  H    7.710385   7.271259   8.072290   8.345668   8.653202
    29  H    7.271586   6.863796   6.873920   7.411607   7.727032
    30  H    6.077546   5.853578   6.541261   6.883687   6.998743
    31  H    8.072309   6.873751   7.868152   7.666651   8.698547
    32  H    8.653019   7.726693   8.698173   8.698610   9.461267
    33  H    8.345454   7.411091   7.666149   7.868067   8.698452
    34  H    7.282923   6.472633   8.345089   8.072674   8.653111
    35  H    6.470721   5.318866   7.409621   6.872783   7.725126
    36  H    5.510987   4.798546   6.883245   6.542289   6.998759
                   26         27         28         29         30
    26  H    0.000000
    27  H    4.259706   0.000000
    28  H    7.235918   4.618662   0.000000
    29  H    6.057617   3.744715   1.773619   0.000000
    30  H    6.037023   4.531615   1.781594   1.775197   0.000000
    31  H    6.137595   2.239004   3.716272   3.759979   4.330350
    32  H    7.265896   3.534209   2.443064   3.059494   3.694320
    33  H    6.137659   2.238513   3.055204   2.542406   3.763701
    34  H    7.235024   4.617886   2.531042   3.757496   3.120511
    35  H    6.054995   3.743968   3.757459   4.335313   3.792932
    36  H    6.036648   4.531724   3.119109   3.792825   2.591438
                   31         32         33         34         35
    31  H    0.000000
    32  H    1.768896   0.000000
    33  H    1.770146   1.768922   0.000000
    34  H    3.053669   2.442915   3.716060   0.000000
    35  H    2.542374   3.060832   3.760095   1.773649   0.000000
    36  H    3.763486   3.694347   4.330334   1.781650   1.775146
                   36
    36  H    0.000000
 Symmetry turned off by external request.
 Stoichiometry    C14H20O2(1-,2)
 Framework group  C1[X(C14H20O2)]
 Deg. of freedom   102
 Full point group                 C1      NOp   1
 Rotational constants (GHZ):           0.7556192           0.4031561           0.2975705
 Leave Link  202 at Sat Jan  6 05:37:05 2024, MaxMem=  4026531840 cpu:               0.5 elap:               0.1
 (Enter /sysapps/ubuntu-applications/gaussian/Gaussian/AVX2/g16/l301.exe)
 Standard basis: 6-311++G(d,p) (5D, 7F)
 Ernie: Thresh=  0.10000D-02 Tol=  0.10000D-05 Strict=F.
   492 basis functions,   756 primitive gaussians,   508 cartesian basis functions
    61 alpha electrons       60 beta electrons
       nuclear repulsion energy      1145.9001573400 Hartrees.
 IExCor=  402 DFT=T Ex+Corr=B3LYP ExCW=0 ScaHFX=  0.200000
 ScaDFX=  0.800000  0.720000  1.000000  0.810000 ScalE2=  1.000000  1.000000
 IRadAn=      5 IRanWt=     -1 IRanGd=            0 ICorTp=0 IEmpDi=  4
 NAtoms=   36 NActive=   36 NUniq=   36 SFac= 1.00D+00 NAtFMM=   60 NAOKFM=F Big=F
 Integral buffers will be    131072 words long.
 Raffenetti 2 integral format.
 Two-electron integral symmetry is turned off.
 Leave Link  301 at Sat Jan  6 05:37:05 2024, MaxMem=  4026531840 cpu:               0.4 elap:               0.1
 (Enter /sysapps/ubuntu-applications/gaussian/Gaussian/AVX2/g16/l302.exe)
 NPDir=0 NMtPBC=     1 NCelOv=     1 NCel=       1 NClECP=     1 NCelD=      1
         NCelK=      1 NCelE2=     1 NClLst=     1 CellRange=     0.0.
 One-electron integrals computed using PRISM.
 NBasis=   492 RedAO= T EigKep=  1.22D-06  NBF=   492
 NBsUse=   488 1.00D-06 EigRej=  7.97D-07 NBFU=   488
 Precomputing XC quadrature grid using
 IXCGrd= 4 IRadAn=           5 IRanWt=          -1 IRanGd=           0 AccXCQ= 0.00D+00.
 Generated NRdTot=       0 NPtTot=           0 NUsed=           0 NTot=          32
 NSgBfM=   507   507   507   507   507 MxSgAt=    36 MxSgA2=    36.
 Leave Link  302 at Sat Jan  6 05:37:07 2024, MaxMem=  4026531840 cpu:              13.2 elap:               1.9
 (Enter /sysapps/ubuntu-applications/gaussian/Gaussian/AVX2/g16/l303.exe)
 DipDrv:  MaxL=1.
 Leave Link  303 at Sat Jan  6 05:37:08 2024, MaxMem=  4026531840 cpu:               1.7 elap:               0.4
 (Enter /sysapps/ubuntu-applications/gaussian/Gaussian/AVX2/g16/l401.exe)
 ExpMin= 3.60D-02 ExpMax= 8.59D+03 ExpMxC= 1.30D+03 IAcc=3 IRadAn=         5 AccDes= 0.00D+00
 Harris functional with IExCor=  402 and IRadAn=       5 diagonalized for initial guess.
 HarFok:  IExCor=  402 AccDes= 0.00D+00 IRadAn=         5 IDoV= 1 UseB2=F ITyADJ=14
 ICtDFT=  3500011 ScaDFX=  1.000000  1.000000  1.000000  1.000000
 FoFCou: FMM=F IPFlag=           0 FMFlag=      100000 FMFlg1=           0
         NFxFlg=           0 DoJE=T BraDBF=F KetDBF=T FulRan=T
         wScrn=  0.000000 ICntrl=       500 IOpCl=  0 I1Cent=   200000004 NGrid=           0
         NMat0=    1 NMatS0=      1 NMatT0=    0 NMatD0=    1 NMtDS0=    0 NMtDT0=    0
 Symmetry not used in FoFCou.
 Harris En= -696.503156784070    
 JPrj=0 DoOrth=F DoCkMO=F.
 Initial guess <Sx>= 0.0000 <Sy>= 0.0000 <Sz>= 0.5000 <S**2>= 0.7500 S= 0.5000
 Leave Link  401 at Sat Jan  6 05:37:14 2024, MaxMem=  4026531840 cpu:              48.1 elap:               6.3
 (Enter /sysapps/ubuntu-applications/gaussian/Gaussian/AVX2/g16/l502.exe)
 Two-electron integral symmetry not used.
 UHF open shell SCF:
 Using DIIS extrapolation, IDIIS=  1040.
 NGot=  4026531840 LenX=  4026007820 LenY=  4025749248
 Requested convergence on RMS density matrix=1.00D-08 within 128 cycles.
 Requested convergence on MAX density matrix=1.00D-06.
 Requested convergence on             energy=1.00D-06.
 No special actions if energy rises.
 Fock matrices will be formed incrementally for  20 cycles.

 Cycle   1  Pass 1  IDiag  1:
 FoFJK:  IHMeth= 1 ICntrl=       0 DoSepK=F KAlg= 0 I1Cent=           0 FoldK=F
 IRaf= 880000000 NMat=       1 IRICut=       1 DoRegI=T DoRafI=F ISym2E= 0 IDoP0=0 IntGTp=1.
 FoFCou: FMM=F IPFlag=           0 FMFlag=      100000 FMFlg1=           0
         NFxFlg=           0 DoJE=F BraDBF=F KetDBF=F FulRan=T
         wScrn=  0.000000 ICntrl=         0 IOpCl=  1 I1Cent=           0 NGrid=           0
         NMat0=    1 NMatS0=      1 NMatT0=    0 NMatD0=    1 NMtDS0=    0 NMtDT0=    0
 Symmetry not used in FoFCou.
 E= -695.585605628432    
 DIIS: error= 4.95D-02 at cycle   1 NSaved=   1.
 NSaved= 1 IEnMin= 1 EnMin= -695.585605628432     IErMin= 1 ErrMin= 4.95D-02
 ErrMax= 4.95D-02  0.00D+00 EMaxC= 1.00D-01 BMatC= 2.79D+00 BMatP= 2.79D+00
 IDIUse=3 WtCom= 5.05D-01 WtEn= 4.95D-01
 Coeff-Com:  0.100D+01
 Coeff-En:   0.100D+01
 Coeff:      0.100D+01
 Gap=     0.133 Goal=   None    Shift=    0.000
 Gap=     0.087 Goal=   None    Shift=    0.000
 GapD=    0.087 DampG=0.500 DampE=0.500 DampFc=0.2500 IDamp=-1.
 Damping current iteration by 2.50D-01
 RMSDP=3.12D+00 MaxDP=5.46D+02              OVMax= 9.93D-01

 Cycle   2  Pass 1  IDiag  1:
 RMSU=  7.56D-01    CP:  3.00D+00
 E= -695.690865723991     Delta-E=       -0.105260095559 Rises=F Damp=T
 DIIS: error= 1.75D-02 at cycle   2 NSaved=   2.
 NSaved= 2 IEnMin= 2 EnMin= -695.690865723991     IErMin= 2 ErrMin= 1.75D-02
 ErrMax= 1.75D-02  0.00D+00 EMaxC= 1.00D-01 BMatC= 5.46D-01 BMatP= 2.79D+00
 IDIUse=3 WtCom= 8.25D-01 WtEn= 1.75D-01
 Coeff-Com: -0.342D+00 0.134D+01
 Coeff-En:   0.304D+00 0.696D+00
 Coeff:     -0.228D+00 0.123D+01
 Gap=    -0.088 Goal=   None    Shift=    0.000
 Gap=    -0.144 Goal=   None    Shift=    0.000
 RMSDP=7.84D-01 MaxDP=1.37D+02 DE=-1.05D-01 OVMax= 8.54D-01

 Cycle   3  Pass 1  IDiag  1:
 RMSU=  4.98D-03    CP:  9.48D-01 -2.95D-03
 E= -695.885118802630     Delta-E=       -0.194253078639 Rises=F Damp=F
 DIIS: error= 5.14D-02 at cycle   3 NSaved=   3.
 NSaved= 3 IEnMin= 3 EnMin= -695.885118802630     IErMin= 2 ErrMin= 1.75D-02
 ErrMax= 5.14D-02  0.00D+00 EMaxC= 1.00D-01 BMatC= 1.49D+00 BMatP= 5.46D-01
 IDIUse=2 WtCom= 0.00D+00 WtEn= 1.00D+00
 Coeff-En:   0.000D+00 0.307D+00 0.693D+00
 Coeff:      0.000D+00 0.307D+00 0.693D+00
 Gap=     0.182 Goal=   None    Shift=    0.000
 Gap=     0.216 Goal=   None    Shift=    0.000
 RMSDP=1.71D+00 MaxDP=3.08D+02 DE=-1.94D-01 OVMax= 1.00D+00

 Cycle   4  Pass 1  IDiag  1:
 RMSU=  4.57D-01    CP:  3.00D+00  2.13D+00  3.00D+00
 E= -692.627454861215     Delta-E=        3.257663941415 Rises=F Damp=F
 DIIS: error= 2.17D-01 at cycle   4 NSaved=   4.
 NSaved= 4 IEnMin= 3 EnMin= -695.885118802630     IErMin= 2 ErrMin= 1.75D-02
 ErrMax= 2.17D-01  0.00D+00 EMaxC= 1.00D-01 BMatC= 7.59D+00 BMatP= 5.46D-01
 IDIUse=2 WtCom= 0.00D+00 WtEn= 1.00D+00
 EnCoef did     1 forward-backward iterations
 Coeff-En:   0.422D-01 0.000D+00 0.812D+00 0.146D+00
 Coeff:      0.422D-01 0.000D+00 0.812D+00 0.146D+00
 Gap=    -0.066 Goal=   None    Shift=    0.000
 Gap=     0.004 Goal=   None    Shift=    0.000
 RMSDP=1.71D+00 MaxDP=3.08D+02 DE= 3.26D+00 OVMax= 9.97D-01

 Cycle   5  Pass 1  IDiag  1:
 RMSU=  9.81D-03    CP:  1.12D+00 -6.26D-03  3.51D-01 -8.23D-04
 E= -696.024375365216     Delta-E=       -3.396920504001 Rises=F Damp=F
 DIIS: error= 4.89D-02 at cycle   5 NSaved=   5.
 NSaved= 5 IEnMin= 5 EnMin= -696.024375365216     IErMin= 2 ErrMin= 1.75D-02
 ErrMax= 4.89D-02  0.00D+00 EMaxC= 1.00D-01 BMatC= 1.04D+00 BMatP= 5.46D-01
 IDIUse=2 WtCom= 0.00D+00 WtEn= 1.00D+00
 Coeff-En:   0.000D+00 0.000D+00 0.393D+00 0.000D+00 0.607D+00
 Coeff:      0.000D+00 0.000D+00 0.393D+00 0.000D+00 0.607D+00
 Gap=     0.088 Goal=   None    Shift=    0.000
 Gap=     0.096 Goal=   None    Shift=    0.000
 RMSDP=9.11D-03 MaxDP=6.40D-01 DE=-3.40D+00 OVMax= 1.89D-01

 Cycle   6  Pass 1  IDiag  1:
 RMSU=  4.79D-03    CP:  9.56D-01 -4.32D-03 -3.40D-02  9.05D-04  6.54D-01
 E= -696.137871152628     Delta-E=       -0.113495787412 Rises=F Damp=F
 DIIS: error= 3.47D-02 at cycle   6 NSaved=   6.
 NSaved= 6 IEnMin= 6 EnMin= -696.137871152628     IErMin= 2 ErrMin= 1.75D-02
 ErrMax= 3.47D-02  0.00D+00 EMaxC= 1.00D-01 BMatC= 4.33D-01 BMatP= 5.46D-01
 IDIUse=3 WtCom= 6.53D-01 WtEn= 3.47D-01
 EnCoef did     5 forward-backward iterations
 Coeff-Com: -0.761D-01 0.183D+00 0.276D+00-0.995D-02 0.353D+00 0.273D+00
 Coeff-En:   0.000D+00 0.000D+00 0.701D-01 0.000D+00 0.327D+00 0.603D+00
 Coeff:     -0.497D-01 0.120D+00 0.205D+00-0.650D-02 0.344D+00 0.388D+00
 Gap=     0.118 Goal=   None    Shift=    0.000
 Gap=     0.152 Goal=   None    Shift=    0.000
 RMSDP=6.55D-03 MaxDP=4.45D-01 DE=-1.13D-01 OVMax= 2.53D-01

 Cycle   7  Pass 1  IDiag  1:
 RMSU=  2.49D-03    CP:  1.00D+00 -4.63D-03  6.11D-01  5.12D-04  3.95D-01
                    CP:  1.55D-01
 E= -696.219152239521     Delta-E=       -0.081281086893 Rises=F Damp=F
 DIIS: error= 2.07D-02 at cycle   7 NSaved=   7.
 NSaved= 7 IEnMin= 7 EnMin= -696.219152239521     IErMin= 2 ErrMin= 1.75D-02
 ErrMax= 2.07D-02  0.00D+00 EMaxC= 1.00D-01 BMatC= 6.16D-02 BMatP= 4.33D-01
 IDIUse=3 WtCom= 7.93D-01 WtEn= 2.07D-01
 Coeff-Com: -0.161D-01 0.206D-01 0.222D-01 0.108D-02 0.129D+00 0.270D+00
 Coeff-Com:  0.572D+00
 Coeff-En:   0.000D+00 0.000D+00 0.000D+00 0.000D+00 0.000D+00 0.149D+00
 Coeff-En:   0.851D+00
 Coeff:     -0.128D-01 0.163D-01 0.176D-01 0.856D-03 0.103D+00 0.245D+00
 Coeff:      0.630D+00
 Gap=     0.106 Goal=   None    Shift=    0.000
 Gap=     0.146 Goal=   None    Shift=    0.000
 RMSDP=2.25D-03 MaxDP=1.80D-01 DE=-8.13D-02 OVMax= 1.19D-01

 Cycle   8  Pass 1  IDiag  1:
 RMSU=  5.87D-04    CP:  1.01D+00 -4.68D-03  4.12D-01  4.47D-04  5.28D-01
                    CP:  3.70D-01  6.45D-01
 E= -696.230483488398     Delta-E=       -0.011331248877 Rises=F Damp=F
 DIIS: error= 7.89D-03 at cycle   8 NSaved=   8.
 NSaved= 8 IEnMin= 8 EnMin= -696.230483488398     IErMin= 8 ErrMin= 7.89D-03
 ErrMax= 7.89D-03  0.00D+00 EMaxC= 1.00D-01 BMatC= 1.27D-02 BMatP= 6.16D-02
 IDIUse=3 WtCom= 9.21D-01 WtEn= 7.89D-02
 Coeff-Com: -0.157D-02-0.166D-02-0.313D-01 0.338D-03 0.205D-02 0.109D+00
 Coeff-Com:  0.463D+00 0.461D+00
 Coeff-En:   0.000D+00 0.000D+00 0.000D+00 0.000D+00 0.000D+00 0.000D+00
 Coeff-En:   0.214D+00 0.786D+00
 Coeff:     -0.145D-02-0.153D-02-0.289D-01 0.311D-03 0.189D-02 0.100D+00
 Coeff:      0.443D+00 0.486D+00
 Gap=     0.102 Goal=   None    Shift=    0.000
 Gap=     0.139 Goal=   None    Shift=    0.000
 RMSDP=9.89D-04 MaxDP=7.58D-02 DE=-1.13D-02 OVMax= 3.44D-02

 Cycle   9  Pass 1  IDiag  1:
 RMSU=  1.86D-04    CP:  1.00D+00 -4.59D-03  4.58D-01  5.89D-04  4.69D-01
                    CP:  3.38D-01  8.30D-01  4.26D-01
 E= -696.233281707280     Delta-E=       -0.002798218882 Rises=F Damp=F
 DIIS: error= 1.46D-03 at cycle   9 NSaved=   9.
 NSaved= 9 IEnMin= 9 EnMin= -696.233281707280     IErMin= 9 ErrMin= 1.46D-03
 ErrMax= 1.46D-03  0.00D+00 EMaxC= 1.00D-01 BMatC= 4.09D-04 BMatP= 1.27D-02
 IDIUse=3 WtCom= 9.85D-01 WtEn= 1.46D-02
 Coeff-Com: -0.744D-03 0.169D-02-0.597D-02 0.582D-03-0.101D-01-0.565D-02
 Coeff-Com:  0.512D-01 0.211D+00 0.758D+00
 Coeff-En:   0.000D+00 0.000D+00 0.000D+00 0.000D+00 0.000D+00 0.000D+00
 Coeff-En:   0.000D+00 0.000D+00 0.100D+01
 Coeff:     -0.733D-03 0.166D-02-0.589D-02 0.574D-03-0.999D-02-0.557D-02
 Coeff:      0.505D-01 0.208D+00 0.761D+00
 Gap=     0.103 Goal=   None    Shift=    0.000
 Gap=     0.137 Goal=   None    Shift=    0.000
 RMSDP=1.01D-04 MaxDP=7.00D-03 DE=-2.80D-03 OVMax= 9.16D-03

 Cycle  10  Pass 1  IDiag  1:
 RMSU=  6.98D-05    CP:  1.00D+00 -4.59D-03  4.55D-01  5.67D-04  4.72D-01
                    CP:  3.36D-01  8.16D-01  5.07D-01  9.07D-01
 E= -696.233406705036     Delta-E=       -0.000124997757 Rises=F Damp=F
 DIIS: error= 2.97D-04 at cycle  10 NSaved=  10.
 NSaved=10 IEnMin=10 EnMin= -696.233406705036     IErMin=10 ErrMin= 2.97D-04
 ErrMax= 2.97D-04  0.00D+00 EMaxC= 1.00D-01 BMatC= 2.40D-05 BMatP= 4.09D-04
 IDIUse=3 WtCom= 9.97D-01 WtEn= 2.97D-03
 Coeff-Com: -0.124D-02 0.260D-02 0.694D-04 0.100D-03-0.324D-02-0.988D-02
 Coeff-Com: -0.239D-01 0.176D-01 0.256D+00 0.762D+00
 Coeff-En:   0.000D+00 0.000D+00 0.000D+00 0.000D+00 0.000D+00 0.000D+00
 Coeff-En:   0.000D+00 0.000D+00 0.000D+00 0.100D+01
 Coeff:     -0.123D-02 0.259D-02 0.691D-04 0.100D-03-0.323D-02-0.985D-02
 Coeff:     -0.239D-01 0.175D-01 0.255D+00 0.763D+00
 Gap=     0.103 Goal=   None    Shift=    0.000
 Gap=     0.137 Goal=   None    Shift=    0.000
 RMSDP=4.50D-05 MaxDP=4.77D-03 DE=-1.25D-04 OVMax= 2.52D-03

 Cycle  11  Pass 1  IDiag  1:
 RMSU=  2.84D-05    CP:  1.00D+00 -4.57D-03  4.55D-01  5.61D-04  4.71D-01
                    CP:  3.37D-01  8.20D-01  5.12D-01  9.76D-01  8.47D-01
 E= -696.233417699194     Delta-E=       -0.000010994157 Rises=F Damp=F
 DIIS: error= 2.15D-04 at cycle  11 NSaved=  11.
 NSaved=11 IEnMin=11 EnMin= -696.233417699194     IErMin=11 ErrMin= 2.15D-04
 ErrMax= 2.15D-04  0.00D+00 EMaxC= 1.00D-01 BMatC= 1.38D-05 BMatP= 2.40D-05
 IDIUse=3 WtCom= 9.98D-01 WtEn= 2.15D-03
 Coeff-Com: -0.594D-03 0.891D-03 0.190D-02 0.125D-03 0.786D-03-0.591D-02
 Coeff-Com: -0.335D-01-0.548D-01-0.257D-01 0.490D+00 0.627D+00
 Coeff-En:   0.000D+00 0.000D+00 0.000D+00 0.000D+00 0.000D+00 0.000D+00
 Coeff-En:   0.000D+00 0.000D+00 0.000D+00 0.000D+00 0.100D+01
 Coeff:     -0.593D-03 0.889D-03 0.189D-02 0.125D-03 0.784D-03-0.589D-02
 Coeff:     -0.334D-01-0.547D-01-0.256D-01 0.489D+00 0.628D+00
 Gap=     0.103 Goal=   None    Shift=    0.000
 Gap=     0.137 Goal=   None    Shift=    0.000
 RMSDP=3.57D-05 MaxDP=2.58D-03 DE=-1.10D-05 OVMax= 1.95D-03

 Cycle  12  Pass 1  IDiag  1:
 RMSU=  1.94D-05    CP:  1.00D+00 -4.56D-03  4.57D-01  5.54D-04  4.70D-01
                    CP:  3.35D-01  8.25D-01  4.95D-01  1.03D+00  9.70D-01
                    CP:  1.23D+00
 E= -696.233423217388     Delta-E=       -0.000005518194 Rises=F Damp=F
 DIIS: error= 1.40D-04 at cycle  12 NSaved=  12.
 NSaved=12 IEnMin=12 EnMin= -696.233423217388     IErMin=12 ErrMin= 1.40D-04
 ErrMax= 1.40D-04  0.00D+00 EMaxC= 1.00D-01 BMatC= 3.54D-06 BMatP= 1.38D-05
 IDIUse=3 WtCom= 9.99D-01 WtEn= 1.40D-03
 Coeff-Com: -0.238D-03 0.187D-03 0.673D-03 0.829D-05 0.165D-02 0.836D-03
 Coeff-Com: -0.931D-02-0.468D-01-0.124D+00-0.143D-01 0.375D+00 0.816D+00
 Coeff-En:   0.000D+00 0.000D+00 0.000D+00 0.000D+00 0.000D+00 0.000D+00
 Coeff-En:   0.000D+00 0.000D+00 0.000D+00 0.000D+00 0.000D+00 0.100D+01
 Coeff:     -0.237D-03 0.186D-03 0.672D-03 0.828D-05 0.165D-02 0.834D-03
 Coeff:     -0.929D-02-0.468D-01-0.124D+00-0.143D-01 0.375D+00 0.816D+00
 Gap=     0.103 Goal=   None    Shift=    0.000
 Gap=     0.137 Goal=   None    Shift=    0.000
 RMSDP=1.87D-05 MaxDP=1.39D-03 DE=-5.52D-06 OVMax= 1.37D-03

 Cycle  13  Pass 1  IDiag  1:
 RMSU=  1.02D-05    CP:  1.00D+00 -4.57D-03  4.58D-01  5.58D-04  4.69D-01
                    CP:  3.35D-01  8.28D-01  4.92D-01  1.06D+00  1.06D+00
                    CP:  1.38D+00  8.85D-01
 E= -696.233425267344     Delta-E=       -0.000002049956 Rises=F Damp=F
 DIIS: error= 2.95D-05 at cycle  13 NSaved=  13.
 NSaved=13 IEnMin=13 EnMin= -696.233425267344     IErMin=13 ErrMin= 2.95D-05
 ErrMax= 2.95D-05  0.00D+00 EMaxC= 1.00D-01 BMatC= 2.84D-07 BMatP= 3.54D-06
 IDIUse=1 WtCom= 1.00D+00 WtEn= 0.00D+00
 Coeff-Com:  0.682D-05-0.407D-04 0.243D-04 0.663D-05 0.430D-03 0.792D-03
 Coeff-Com:  0.578D-03-0.981D-02-0.347D-01-0.615D-01 0.336D-01 0.289D+00
 Coeff-Com:  0.781D+00
 Coeff:      0.682D-05-0.407D-04 0.243D-04 0.663D-05 0.430D-03 0.792D-03
 Coeff:      0.578D-03-0.981D-02-0.347D-01-0.615D-01 0.336D-01 0.289D+00
 Coeff:      0.781D+00
 Gap=     0.103 Goal=   None    Shift=    0.000
 Gap=     0.137 Goal=   None    Shift=    0.000
 RMSDP=5.98D-06 MaxDP=6.56D-04 DE=-2.05D-06 OVMax= 3.84D-04

 Cycle  14  Pass 1  IDiag  1:
 RMSU=  1.95D-06    CP:  1.00D+00 -4.57D-03  4.58D-01  5.57D-04  4.69D-01
                    CP:  3.35D-01  8.29D-01  4.89D-01  1.07D+00  1.07D+00
                    CP:  1.46D+00  9.78D-01  9.84D-01
 E= -696.233425433277     Delta-E=       -0.000000165933 Rises=F Damp=F
 DIIS: error= 1.66D-05 at cycle  14 NSaved=  14.
 NSaved=14 IEnMin=14 EnMin= -696.233425433277     IErMin=14 ErrMin= 1.66D-05
 ErrMax= 1.66D-05  0.00D+00 EMaxC= 1.00D-01 BMatC= 6.76D-08 BMatP= 2.84D-07
 IDIUse=1 WtCom= 1.00D+00 WtEn= 0.00D+00
 Coeff-Com:  0.377D-04-0.298D-04-0.902D-04-0.331D-05-0.654D-04 0.221D-03
 Coeff-Com:  0.215D-02 0.431D-02 0.766D-02-0.263D-01-0.562D-01-0.251D-01
 Coeff-Com:  0.348D+00 0.745D+00
 Coeff:      0.377D-04-0.298D-04-0.902D-04-0.331D-05-0.654D-04 0.221D-03
 Coeff:      0.215D-02 0.431D-02 0.766D-02-0.263D-01-0.562D-01-0.251D-01
 Coeff:      0.348D+00 0.745D+00
 Gap=     0.103 Goal=   None    Shift=    0.000
 Gap=     0.137 Goal=   None    Shift=    0.000
 RMSDP=2.13D-06 MaxDP=1.31D-04 DE=-1.66D-07 OVMax= 1.81D-04

 Cycle  15  Pass 1  IDiag  1:
 RMSU=  9.92D-07    CP:  1.00D+00 -4.57D-03  4.58D-01  5.57D-04  4.69D-01
                    CP:  3.35D-01  8.29D-01  4.88D-01  1.07D+00  1.07D+00
                    CP:  1.48D+00  1.01D+00  9.96D-01  1.05D+00
 E= -696.233425474101     Delta-E=       -0.000000040824 Rises=F Damp=F
 DIIS: error= 8.05D-06 at cycle  15 NSaved=  15.
 NSaved=15 IEnMin=15 EnMin= -696.233425474101     IErMin=15 ErrMin= 8.05D-06
 ErrMax= 8.05D-06  0.00D+00 EMaxC= 1.00D-01 BMatC= 1.23D-08 BMatP= 6.76D-08
 IDIUse=1 WtCom= 1.00D+00 WtEn= 0.00D+00
 Coeff-Com:  0.153D-05 0.745D-05 0.159D-04-0.342D-05-0.843D-04-0.214D-03
 Coeff-Com:  0.222D-03 0.300D-02 0.103D-01 0.118D-01-0.119D-01-0.812D-01
 Coeff-Com: -0.160D+00 0.908D-01 0.114D+01
 Coeff:      0.153D-05 0.745D-05 0.159D-04-0.342D-05-0.843D-04-0.214D-03
 Coeff:      0.222D-03 0.300D-02 0.103D-01 0.118D-01-0.119D-01-0.812D-01
 Coeff:     -0.160D+00 0.908D-01 0.114D+01
 Gap=     0.103 Goal=   None    Shift=    0.000
 Gap=     0.137 Goal=   None    Shift=    0.000
 RMSDP=1.77D-06 MaxDP=1.56D-04 DE=-4.08D-08 OVMax= 1.20D-04

 Cycle  16  Pass 1  IDiag  1:
 RMSU=  5.38D-07    CP:  1.00D+00 -4.57D-03  4.58D-01  5.57D-04  4.69D-01
                    CP:  3.35D-01  8.30D-01  4.88D-01  1.07D+00  1.07D+00
                    CP:  1.47D+00  1.01D+00  1.04D+00  1.16D+00  1.13D+00
 E= -696.233425485860     Delta-E=       -0.000000011760 Rises=F Damp=F
 DIIS: error= 2.58D-06 at cycle  16 NSaved=  16.
 NSaved=16 IEnMin=16 EnMin= -696.233425485860     IErMin=16 ErrMin= 2.58D-06
 ErrMax= 2.58D-06  0.00D+00 EMaxC= 1.00D-01 BMatC= 1.67D-09 BMatP= 1.23D-08
 IDIUse=1 WtCom= 1.00D+00 WtEn= 0.00D+00
 Coeff-Com: -0.108D-04 0.185D-04 0.177D-04-0.176D-05-0.891D-05-0.860D-04
 Coeff-Com: -0.188D-03 0.101D-05 0.909D-03 0.571D-02 0.494D-02-0.129D-01
 Coeff-Com: -0.735D-01-0.746D-01 0.198D+00 0.951D+00
 Coeff:     -0.108D-04 0.185D-04 0.177D-04-0.176D-05-0.891D-05-0.860D-04
 Coeff:     -0.188D-03 0.101D-05 0.909D-03 0.571D-02 0.494D-02-0.129D-01
 Coeff:     -0.735D-01-0.746D-01 0.198D+00 0.951D+00
 Gap=     0.103 Goal=   None    Shift=    0.000
 Gap=     0.137 Goal=   None    Shift=    0.000
 RMSDP=6.15D-07 MaxDP=4.78D-05 DE=-1.18D-08 OVMax= 3.70D-05

 Cycle  17  Pass 1  IDiag  1:
 RMSU=  2.08D-07    CP:  1.00D+00 -4.57D-03  4.59D-01  5.56D-04  4.69D-01
                    CP:  3.35D-01  8.30D-01  4.88D-01  1.07D+00  1.07D+00
                    CP:  1.47D+00  1.02D+00  1.03D+00  1.17D+00  1.29D+00
                    CP:  1.12D+00
 E= -696.233425486889     Delta-E=       -0.000000001029 Rises=F Damp=F
 DIIS: error= 7.95D-07 at cycle  17 NSaved=  17.
 NSaved=17 IEnMin=17 EnMin= -696.233425486889     IErMin=17 ErrMin= 7.95D-07
 ErrMax= 7.95D-07  0.00D+00 EMaxC= 1.00D-01 BMatC= 7.05D-10 BMatP= 1.67D-09
 IDIUse=1 WtCom= 1.00D+00 WtEn= 0.00D+00
 Coeff-Com: -0.581D-05 0.575D-05 0.238D-05-0.149D-06 0.105D-04-0.991D-05
 Coeff-Com: -0.110D-03-0.525D-03-0.130D-02 0.110D-02 0.447D-02 0.676D-02
 Coeff-Com: -0.133D-01-0.549D-01-0.924D-01 0.540D+00 0.610D+00
 Coeff:     -0.581D-05 0.575D-05 0.238D-05-0.149D-06 0.105D-04-0.991D-05
 Coeff:     -0.110D-03-0.525D-03-0.130D-02 0.110D-02 0.447D-02 0.676D-02
 Coeff:     -0.133D-01-0.549D-01-0.924D-01 0.540D+00 0.610D+00
 Gap=     0.103 Goal=   None    Shift=    0.000
 Gap=     0.137 Goal=   None    Shift=    0.000
 RMSDP=1.54D-07 MaxDP=1.09D-05 DE=-1.03D-09 OVMax= 1.01D-05

 Cycle  18  Pass 1  IDiag  1:
 RMSU=  7.14D-08    CP:  1.00D+00 -4.57D-03  4.59D-01  5.56D-04  4.69D-01
                    CP:  3.35D-01  8.30D-01  4.88D-01  1.07D+00  1.07D+00
                    CP:  1.47D+00  1.02D+00  1.03D+00  1.17D+00  1.30D+00
                    CP:  1.23D+00  1.06D+00
 E= -696.233425487113     Delta-E=       -0.000000000224 Rises=F Damp=F
 DIIS: error= 2.25D-07 at cycle  18 NSaved=  18.
 NSaved=18 IEnMin=18 EnMin= -696.233425487113     IErMin=18 ErrMin= 2.25D-07
 ErrMax= 2.25D-07  0.00D+00 EMaxC= 1.00D-01 BMatC= 3.36D-11 BMatP= 7.05D-10
 IDIUse=1 WtCom= 1.00D+00 WtEn= 0.00D+00
 Coeff-Com: -0.253D-05 0.363D-05-0.850D-06-0.797D-07 0.572D-05 0.533D-05
 Coeff-Com: -0.185D-04-0.168D-03-0.513D-03-0.326D-03 0.708D-03 0.382D-02
 Coeff-Com:  0.492D-02-0.578D-02-0.553D-01 0.366D-01 0.152D+00 0.864D+00
 Coeff:     -0.253D-05 0.363D-05-0.850D-06-0.797D-07 0.572D-05 0.533D-05
 Coeff:     -0.185D-04-0.168D-03-0.513D-03-0.326D-03 0.708D-03 0.382D-02
 Coeff:      0.492D-02-0.578D-02-0.553D-01 0.366D-01 0.152D+00 0.864D+00
 Gap=     0.103 Goal=   None    Shift=    0.000
 Gap=     0.137 Goal=   None    Shift=    0.000
 RMSDP=1.64D-07 MaxDP=2.13D-05 DE=-2.24D-10 OVMax= 3.00D-06

 Cycle  19  Pass 1  IDiag  1:
 RMSU=  3.89D-08    CP:  1.00D+00 -4.57D-03  4.59D-01  5.56D-04  4.69D-01
                    CP:  3.35D-01  8.30D-01  4.88D-01  1.07D+00  1.07D+00
                    CP:  1.47D+00  1.02D+00  1.03D+00  1.17D+00  1.28D+00
                    CP:  1.28D+00  1.15D+00  1.13D+00
 E= -696.233425487133     Delta-E=       -0.000000000020 Rises=F Damp=F
 DIIS: error= 8.10D-08 at cycle  19 NSaved=  19.
 NSaved=19 IEnMin=19 EnMin= -696.233425487133     IErMin=19 ErrMin= 8.10D-08
 ErrMax= 8.10D-08  0.00D+00 EMaxC= 1.00D-01 BMatC= 3.99D-12 BMatP= 3.36D-11
 IDIUse=1 WtCom= 1.00D+00 WtEn= 0.00D+00
 Coeff-Com: -0.392D-06 0.841D-06-0.892D-06-0.332D-07-0.360D-06 0.205D-05
 Coeff-Com:  0.751D-05 0.293D-04 0.677D-04-0.150D-03-0.339D-03-0.232D-03
 Coeff-Com:  0.183D-02 0.490D-02 0.136D-02-0.443D-01-0.515D-01 0.171D+00
 Coeff-Com:  0.918D+00
 Coeff:     -0.392D-06 0.841D-06-0.892D-06-0.332D-07-0.360D-06 0.205D-05
 Coeff:      0.751D-05 0.293D-04 0.677D-04-0.150D-03-0.339D-03-0.232D-03
 Coeff:      0.183D-02 0.490D-02 0.136D-02-0.443D-01-0.515D-01 0.171D+00
 Coeff:      0.918D+00
 Gap=     0.103 Goal=   None    Shift=    0.000
 Gap=     0.137 Goal=   None    Shift=    0.000
 RMSDP=3.06D-08 MaxDP=3.46D-06 DE=-1.96D-11 OVMax= 1.24D-06

 Cycle  20  Pass 1  IDiag  1:
 RMSU=  9.00D-09    CP:  1.00D+00 -4.57D-03  4.59D-01  5.56D-04  4.69D-01
                    CP:  3.35D-01  8.30D-01  4.88D-01  1.07D+00  1.07D+00
                    CP:  1.47D+00  1.02D+00  1.03D+00  1.16D+00  1.28D+00
                    CP:  1.28D+00  1.19D+00  1.27D+00  1.03D+00
 E= -696.233425487136     Delta-E=       -0.000000000003 Rises=F Damp=F
 DIIS: error= 4.20D-08 at cycle  20 NSaved=  20.
 NSaved=20 IEnMin=20 EnMin= -696.233425487136     IErMin=20 ErrMin= 4.20D-08
 ErrMax= 4.20D-08  0.00D+00 EMaxC= 1.00D-01 BMatC= 6.78D-13 BMatP= 3.99D-12
 IDIUse=1 WtCom= 1.00D+00 WtEn= 0.00D+00
 Coeff-Com:  0.116D-06-0.558D-07-0.192D-06-0.218D-07-0.950D-06 0.275D-07
 Coeff-Com:  0.427D-05 0.331D-04 0.956D-04-0.771D-05-0.199D-03-0.646D-03
 Coeff-Com: -0.658D-04 0.255D-02 0.796D-02-0.198D-01-0.449D-01-0.438D-01
 Coeff-Com:  0.316D+00 0.782D+00
 Coeff:      0.116D-06-0.558D-07-0.192D-06-0.218D-07-0.950D-06 0.275D-07
 Coeff:      0.427D-05 0.331D-04 0.956D-04-0.771D-05-0.199D-03-0.646D-03
 Coeff:     -0.658D-04 0.255D-02 0.796D-02-0.198D-01-0.449D-01-0.438D-01
 Coeff:      0.316D+00 0.782D+00
 Gap=     0.103 Goal=   None    Shift=    0.000
 Gap=     0.137 Goal=   None    Shift=    0.000
 RMSDP=1.37D-08 MaxDP=1.27D-06 DE=-3.18D-12 OVMax= 7.06D-07

 Cycle  21  Pass 1  IDiag  1:
 Restarting incremental Fock formation.
 E= -696.233425487139     Delta-E=       -0.000000000003 Rises=F Damp=F
 DIIS: error= 2.03D-08 at cycle  21 NSaved=  20.
 NSaved=20 IEnMin=20 EnMin= -696.233425487139     IErMin=20 ErrMin= 2.03D-08
 ErrMax= 2.03D-08  0.00D+00 EMaxC= 1.00D-01 BMatC= 2.78D-13 BMatP= 6.78D-13
 IDIUse=1 WtCom= 1.00D+00 WtEn= 0.00D+00
 Coeff-Com:  0.203D-06-0.286D-06 0.118D-06-0.487D-06-0.405D-06 0.813D-06
 Coeff-Com:  0.109D-04 0.332D-04 0.269D-04-0.192D-04-0.288D-03-0.430D-03
 Coeff-Com:  0.237D-03 0.366D-02 0.651D-03-0.125D-01-0.605D-01-0.685D-01
 Coeff-Com:  0.426D+00 0.711D+00
 Coeff:      0.203D-06-0.286D-06 0.118D-06-0.487D-06-0.405D-06 0.813D-06
 Coeff:      0.109D-04 0.332D-04 0.269D-04-0.192D-04-0.288D-03-0.430D-03
 Coeff:      0.237D-03 0.366D-02 0.651D-03-0.125D-01-0.605D-01-0.685D-01
 Coeff:      0.426D+00 0.711D+00
 Gap=     0.103 Goal=   None    Shift=    0.000
 Gap=     0.137 Goal=   None    Shift=    0.000
 RMSDP=4.86D-09 MaxDP=4.06D-07 DE=-3.41D-12 OVMax= 3.10D-07

 SCF Done:  E(UB3LYP) =  -696.233425487     A.U. after   21 cycles
            NFock= 21  Conv=0.49D-08     -V/T= 2.0045
 <Sx>= 0.0000 <Sy>= 0.0000 <Sz>= 0.5000 <S**2>= 0.7605 S= 0.5052
 <L.S>=  0.00000000000    
 KE= 6.930878745529D+02 PE=-3.929438754993D+03 EE= 1.394217297613D+03
 Annihilation of the first spin contaminant:
 S**2 before annihilation     0.7605,   after     0.7500
 Leave Link  502 at Sat Jan  6 05:46:11 2024, MaxMem=  4026531840 cpu:            4277.8 elap:             536.8
 (Enter /sysapps/ubuntu-applications/gaussian/Gaussian/AVX2/g16/l601.exe)
 Copying SCF densities to generalized density rwf, IOpCl= 1 IROHF=0.

 **********************************************************************

            Population analysis using the SCF density.

 **********************************************************************

 Alpha  occ. eigenvalues --  -18.93542 -18.93353 -10.08549 -10.07656 -10.06934
 Alpha  occ. eigenvalues --  -10.06933 -10.04746 -10.04746 -10.04058 -10.04056
 Alpha  occ. eigenvalues --  -10.03616 -10.03614 -10.03614 -10.03612 -10.02439
 Alpha  occ. eigenvalues --  -10.02438  -0.86074  -0.85205  -0.71184  -0.70498
 Alpha  occ. eigenvalues --   -0.66296  -0.60018  -0.57213  -0.57209  -0.56566
 Alpha  occ. eigenvalues --   -0.56527  -0.54115  -0.48334  -0.45910  -0.40629
 Alpha  occ. eigenvalues --   -0.40192  -0.35220  -0.34652  -0.33866  -0.32532
 Alpha  occ. eigenvalues --   -0.32370  -0.32227  -0.31475  -0.30051  -0.29182
 Alpha  occ. eigenvalues --   -0.27425  -0.27094  -0.26590  -0.26564  -0.25567
 Alpha  occ. eigenvalues --   -0.24951  -0.24942  -0.24854  -0.23848  -0.22475
 Alpha  occ. eigenvalues --   -0.21704  -0.21653  -0.21199  -0.21071  -0.20400
 Alpha  occ. eigenvalues --   -0.20242  -0.13908  -0.11804  -0.09887  -0.09344
 Alpha  occ. eigenvalues --   -0.02248
 Alpha virt. eigenvalues --    0.08025   0.08272   0.10134   0.10261   0.10566
 Alpha virt. eigenvalues --    0.10813   0.10841   0.12136   0.12227   0.12734
 Alpha virt. eigenvalues --    0.12919   0.13584   0.13765   0.13950   0.14252
 Alpha virt. eigenvalues --    0.15707   0.15764   0.15926   0.16302   0.16628
 Alpha virt. eigenvalues --    0.17087   0.17575   0.18503   0.18628   0.19077
 Alpha virt. eigenvalues --    0.19397   0.19617   0.20270   0.20786   0.21094
 Alpha virt. eigenvalues --    0.21165   0.21196   0.21452   0.21953   0.22241
 Alpha virt. eigenvalues --    0.22668   0.23402   0.23477   0.23509   0.24007
 Alpha virt. eigenvalues --    0.24451   0.24528   0.24635   0.25062   0.25192
 Alpha virt. eigenvalues --    0.25264   0.25551   0.25687   0.25968   0.26310
 Alpha virt. eigenvalues --    0.27085   0.27402   0.27550   0.28569   0.29029
 Alpha virt. eigenvalues --    0.29246   0.29450   0.29959   0.30005   0.30224
 Alpha virt. eigenvalues --    0.30468   0.30529   0.30643   0.31396   0.31805
 Alpha virt. eigenvalues --    0.31846   0.32721   0.32757   0.33284   0.33361
 Alpha virt. eigenvalues --    0.34130   0.34522   0.35058   0.35893   0.36148
 Alpha virt. eigenvalues --    0.36568   0.36921   0.37211   0.37559   0.37685
 Alpha virt. eigenvalues --    0.37697   0.38558   0.39210   0.40363   0.40732
 Alpha virt. eigenvalues --    0.40767   0.41572   0.41628   0.42132   0.42310
 Alpha virt. eigenvalues --    0.42989   0.43579   0.43705   0.44048   0.44437
 Alpha virt. eigenvalues --    0.44472   0.44679   0.45505   0.45856   0.47116
 Alpha virt. eigenvalues --    0.47216   0.47238   0.47732   0.48245   0.49372
 Alpha virt. eigenvalues --    0.50649   0.50700   0.51252   0.51418   0.52145
 Alpha virt. eigenvalues --    0.54571   0.55086   0.55900   0.56433   0.56655
 Alpha virt. eigenvalues --    0.57836   0.58014   0.59887   0.60753   0.61220
 Alpha virt. eigenvalues --    0.63106   0.63741   0.64036   0.65715   0.65748
 Alpha virt. eigenvalues --    0.66405   0.68504   0.69000   0.69283   0.69916
 Alpha virt. eigenvalues --    0.70109   0.70130   0.72105   0.72413   0.73058
 Alpha virt. eigenvalues --    0.74030   0.74064   0.74364   0.75596   0.76571
 Alpha virt. eigenvalues --    0.76747   0.77319   0.77487   0.78252   0.78513
 Alpha virt. eigenvalues --    0.79353   0.79471   0.79477   0.80710   0.81563
 Alpha virt. eigenvalues --    0.81964   0.82129   0.82882   0.83429   0.83637
 Alpha virt. eigenvalues --    0.84810   0.84982   0.85420   0.86164   0.87056
 Alpha virt. eigenvalues --    0.87422   0.87441   0.88186   0.89673   0.90082
 Alpha virt. eigenvalues --    0.90095   0.91998   0.93356   0.93958   0.94079
 Alpha virt. eigenvalues --    0.94151   0.95310   0.95981   0.98644   1.01979
 Alpha virt. eigenvalues --    1.03169   1.04027   1.06332   1.06545   1.06678
 Alpha virt. eigenvalues --    1.06736   1.07178   1.08253   1.11025   1.11688
 Alpha virt. eigenvalues --    1.12987   1.14410   1.16842   1.17836   1.19110
 Alpha virt. eigenvalues --    1.19969   1.20331   1.23079   1.24611   1.25583
 Alpha virt. eigenvalues --    1.26617   1.27042   1.29129   1.29315   1.29705
 Alpha virt. eigenvalues --    1.33169   1.35329   1.36372   1.37813   1.38531
 Alpha virt. eigenvalues --    1.39261   1.39620   1.41227   1.44043   1.45198
 Alpha virt. eigenvalues --    1.45872   1.48357   1.50695   1.55975   1.56580
 Alpha virt. eigenvalues --    1.57010   1.57149   1.57544   1.58072   1.58639
 Alpha virt. eigenvalues --    1.58646   1.59666   1.59708   1.61276   1.61357
 Alpha virt. eigenvalues --    1.63332   1.63814   1.65077   1.66241   1.66786
 Alpha virt. eigenvalues --    1.66891   1.67861   1.69865   1.70067   1.71330
 Alpha virt. eigenvalues --    1.72307   1.73568   1.75123   1.75192   1.75643
 Alpha virt. eigenvalues --    1.76475   1.78021   1.78027   1.78340   1.79503
 Alpha virt. eigenvalues --    1.80082   1.80907   1.82409   1.84023   1.84291
 Alpha virt. eigenvalues --    1.84919   1.85819   1.85882   1.87671   1.88065
 Alpha virt. eigenvalues --    1.89448   1.89558   1.90679   1.91444   1.92866
 Alpha virt. eigenvalues --    1.93155   1.94762   1.94783   1.95061   1.96457
 Alpha virt. eigenvalues --    1.98683   1.99567   2.00727   2.03596   2.04842
 Alpha virt. eigenvalues --    2.05826   2.06691   2.09611   2.10432   2.10773
 Alpha virt. eigenvalues --    2.10868   2.11228   2.13923   2.15383   2.15910
 Alpha virt. eigenvalues --    2.18956   2.20641   2.21671   2.22592   2.23398
 Alpha virt. eigenvalues --    2.24046   2.24066   2.27289   2.27766   2.29966
 Alpha virt. eigenvalues --    2.32520   2.33302   2.34125   2.35824   2.35896
 Alpha virt. eigenvalues --    2.38492   2.38708   2.39751   2.43293   2.44594
 Alpha virt. eigenvalues --    2.46688   2.47517   2.50051   2.56519   2.56787
 Alpha virt. eigenvalues --    2.56844   2.58541   2.61543   2.62299   2.62978
 Alpha virt. eigenvalues --    2.64467   2.64489   2.64790   2.64852   2.64977
 Alpha virt. eigenvalues --    2.66272   2.66821   2.67446   2.67628   2.69047
 Alpha virt. eigenvalues --    2.69825   2.70538   2.71855   2.72221   2.72534
 Alpha virt. eigenvalues --    2.74220   2.76210   2.76517   2.79775   2.80448
 Alpha virt. eigenvalues --    2.80546   2.81671   2.82040   2.84846   2.87465
 Alpha virt. eigenvalues --    2.88881   2.89706   2.90187   2.91679   2.92765
 Alpha virt. eigenvalues --    2.93472   2.94970   2.97045   2.98236   2.98242
 Alpha virt. eigenvalues --    2.99274   3.01153   3.03343   3.04959   3.05397
 Alpha virt. eigenvalues --    3.07251   3.07349   3.10374   3.14208   3.14490
 Alpha virt. eigenvalues --    3.15797   3.18415   3.20193   3.22601   3.23833
 Alpha virt. eigenvalues --    3.24435   3.26721   3.31076   3.33071   3.33437
 Alpha virt. eigenvalues --    3.34732   3.36503   3.37800   3.41607   3.41690
 Alpha virt. eigenvalues --    3.43994   3.47165   3.47950   3.49160   3.57502
 Alpha virt. eigenvalues --    3.60949   3.67214   3.73629   3.77890   3.80351
 Alpha virt. eigenvalues --    3.86731   3.88636   3.88968   3.89069   3.90799
 Alpha virt. eigenvalues --    3.91032   3.92634   3.92925   3.94184   3.94653
 Alpha virt. eigenvalues --    3.96297   3.97905   3.98952   4.01308   4.04536
 Alpha virt. eigenvalues --    4.27840   4.31676   4.36719   4.39307   4.39606
 Alpha virt. eigenvalues --    4.40307   4.40338   4.53978   4.57711   4.94359
 Alpha virt. eigenvalues --    5.22560   5.28890   5.39699   5.52611   5.89576
 Alpha virt. eigenvalues --    5.98331  23.78842  23.92120  23.94547  24.00002
 Alpha virt. eigenvalues --   24.05474  24.09212  24.09748  24.10197  24.10438
 Alpha virt. eigenvalues --   24.10767  24.12292  24.13423  24.26930  24.31468
 Alpha virt. eigenvalues --   50.17605  50.22157
  Beta  occ. eigenvalues --  -18.92875 -18.92586 -10.08377 -10.07574 -10.06940
  Beta  occ. eigenvalues --  -10.06939 -10.04746 -10.04746 -10.03970 -10.03968
  Beta  occ. eigenvalues --  -10.03611 -10.03609 -10.03608 -10.03607 -10.02308
  Beta  occ. eigenvalues --  -10.02307  -0.84905  -0.83871  -0.70916  -0.70446
  Beta  occ. eigenvalues --   -0.65887  -0.59782  -0.57196  -0.57150  -0.56546
  Beta  occ. eigenvalues --   -0.56511  -0.53174  -0.48035  -0.45639  -0.40368
  Beta  occ. eigenvalues --   -0.40056  -0.35080  -0.34457  -0.33832  -0.32308
  Beta  occ. eigenvalues --   -0.32205  -0.32173  -0.31450  -0.29986  -0.28532
  Beta  occ. eigenvalues --   -0.27403  -0.27074  -0.26518  -0.25889  -0.25236
  Beta  occ. eigenvalues --   -0.24847  -0.24556  -0.23733  -0.23659  -0.21657
  Beta  occ. eigenvalues --   -0.21486  -0.21371  -0.21140  -0.20251  -0.20129
  Beta  occ. eigenvalues --   -0.19355  -0.11018  -0.10514  -0.09253  -0.08691
  Beta virt. eigenvalues --    0.05018   0.08027   0.08272   0.10155   0.10264
  Beta virt. eigenvalues --    0.10568   0.10847   0.10869   0.12134   0.12750
  Beta virt. eigenvalues --    0.12813   0.12924   0.13602   0.13766   0.13959
  Beta virt. eigenvalues --    0.15012   0.15731   0.15927   0.16301   0.16404
  Beta virt. eigenvalues --    0.16641   0.17574   0.18417   0.18523   0.18639
  Beta virt. eigenvalues --    0.19075   0.19416   0.19948   0.20268   0.20854
  Beta virt. eigenvalues --    0.21106   0.21165   0.21234   0.21501   0.21978
  Beta virt. eigenvalues --    0.22247   0.22678   0.23475   0.23477   0.23561
  Beta virt. eigenvalues --    0.24087   0.24451   0.24645   0.24659   0.25077
  Beta virt. eigenvalues --    0.25241   0.25260   0.25610   0.25775   0.25962
  Beta virt. eigenvalues --    0.26334   0.27090   0.27425   0.27597   0.28593
  Beta virt. eigenvalues --    0.29081   0.29493   0.29721   0.29975   0.30004
  Beta virt. eigenvalues --    0.30238   0.30528   0.30726   0.30790   0.31481
  Beta virt. eigenvalues --    0.31914   0.32483   0.32730   0.32784   0.33294
  Beta virt. eigenvalues --    0.33525   0.34282   0.34654   0.35070   0.35925
  Beta virt. eigenvalues --    0.36293   0.36593   0.36954   0.37282   0.37574
  Beta virt. eigenvalues --    0.37708   0.37711   0.38600   0.39301   0.40411
  Beta virt. eigenvalues --    0.40786   0.40963   0.41604   0.41729   0.42146
  Beta virt. eigenvalues --    0.42342   0.43155   0.43720   0.43929   0.44081
  Beta virt. eigenvalues --    0.44440   0.44814   0.44873   0.45552   0.46041
  Beta virt. eigenvalues --    0.47187   0.47251   0.47315   0.47920   0.48263
  Beta virt. eigenvalues --    0.49423   0.50824   0.50933   0.51400   0.51514
  Beta virt. eigenvalues --    0.52221   0.54686   0.55249   0.55914   0.56716
  Beta virt. eigenvalues --    0.56808   0.57938   0.58117   0.59909   0.60918
  Beta virt. eigenvalues --    0.61468   0.63115   0.63857   0.64110   0.65854
  Beta virt. eigenvalues --    0.65866   0.66451   0.68535   0.69036   0.69337
  Beta virt. eigenvalues --    0.69952   0.70211   0.70254   0.72226   0.72428
  Beta virt. eigenvalues --    0.73478   0.74110   0.74210   0.74418   0.75876
  Beta virt. eigenvalues --    0.76670   0.76821   0.77376   0.77506   0.78340
  Beta virt. eigenvalues --    0.78536   0.79365   0.79503   0.79710   0.80780
  Beta virt. eigenvalues --    0.81624   0.82141   0.82366   0.83198   0.83577
  Beta virt. eigenvalues --    0.83682   0.84836   0.85399   0.85456   0.86250
  Beta virt. eigenvalues --    0.87083   0.87507   0.87565   0.88338   0.89933
  Beta virt. eigenvalues --    0.90105   0.90107   0.92114   0.93457   0.93982
  Beta virt. eigenvalues --    0.94099   0.94238   0.95337   0.96041   0.98816
  Beta virt. eigenvalues --    1.02197   1.03184   1.04276   1.06431   1.06688
  Beta virt. eigenvalues --    1.06877   1.06986   1.07541   1.08334   1.11160
  Beta virt. eigenvalues --    1.11799   1.13097   1.14477   1.16897   1.18096
  Beta virt. eigenvalues --    1.19204   1.20182   1.20624   1.23503   1.25305
  Beta virt. eigenvalues --    1.25728   1.26768   1.28010   1.29437   1.29549
  Beta virt. eigenvalues --    1.29793   1.33820   1.36083   1.36544   1.38163
  Beta virt. eigenvalues --    1.39355   1.39642   1.39659   1.41424   1.44386
  Beta virt. eigenvalues --    1.45849   1.46120   1.48518   1.50874   1.55993
  Beta virt. eigenvalues --    1.56795   1.57028   1.57168   1.57663   1.58090
  Beta virt. eigenvalues --    1.58698   1.58750   1.59717   1.59826   1.61400
  Beta virt. eigenvalues --    1.61614   1.63356   1.64033   1.65272   1.66292
  Beta virt. eigenvalues --    1.66829   1.66970   1.67902   1.69992   1.70110
  Beta virt. eigenvalues --    1.71353   1.72354   1.73689   1.75258   1.75315
  Beta virt. eigenvalues --    1.75719   1.76602   1.78072   1.78314   1.78389
  Beta virt. eigenvalues --    1.79536   1.80305   1.80964   1.82458   1.84098
  Beta virt. eigenvalues --    1.84394   1.85084   1.85909   1.85914   1.87706
  Beta virt. eigenvalues --    1.88208   1.89635   1.89671   1.90865   1.91481
  Beta virt. eigenvalues --    1.93163   1.93250   1.94946   1.95084   1.95154
  Beta virt. eigenvalues --    1.96485   1.98714   2.00010   2.01040   2.03686
  Beta virt. eigenvalues --    2.05017   2.06225   2.06926   2.10157   2.10556
  Beta virt. eigenvalues --    2.10880   2.10901   2.11441   2.14052   2.15453
  Beta virt. eigenvalues --    2.16110   2.19005   2.20853   2.21699   2.22673
  Beta virt. eigenvalues --    2.23567   2.24116   2.24162   2.27363   2.28097
  Beta virt. eigenvalues --    2.30085   2.32531   2.33540   2.34161   2.35849
  Beta virt. eigenvalues --    2.35990   2.38534   2.38878   2.40321   2.43517
  Beta virt. eigenvalues --    2.44980   2.46747   2.47632   2.50130   2.56529
  Beta virt. eigenvalues --    2.56841   2.56880   2.58554   2.61620   2.62331
  Beta virt. eigenvalues --    2.62986   2.64478   2.64498   2.64800   2.64873
  Beta virt. eigenvalues --    2.65042   2.66322   2.66880   2.67583   2.67659
  Beta virt. eigenvalues --    2.69083   2.69835   2.70573   2.71888   2.72270
  Beta virt. eigenvalues --    2.72703   2.74252   2.76230   2.76696   2.79963
  Beta virt. eigenvalues --    2.80468   2.80612   2.81843   2.82170   2.85389
  Beta virt. eigenvalues --    2.87502   2.88999   2.89866   2.90272   2.91790
[...]
 000404,0.00000171,0.00000555,0.00000366,0.00001284,0.00000006,0.000000
 30,-0.00000266,0.00000429,0.00000096,0.00001082,0.00000062,-0.00000185
 ,0.00000188,-0.00004239,-0.00002708,0.00001179,-0.00090251,-0.00025052
 ,0.00046694,-0.00010087,-0.00005118,0.00051489,-0.00015284,-0.00005110
 ,0.00032873,-0.00034998,-0.00043704,-0.00136081,0.01050272,0.05560261,
 0.32024397,-0.00003298,-0.00001698,-0.00001923,-0.00000457,0.00013839,
 -0.00015297,-0.00002982,0.00002349,0.00001825,-0.00006831,-0.00005041,
 0.00006137,-0.00037494,-0.00041200,0.00048587,-0.00001261,0.00008579,-
 0.00009584,0.00011961,-0.00020802,0.00023156,-0.00008095,0.00027386,-0
 .00028503,0.00003483,-0.00058874,0.00068628,-0.00278084,-0.00294880,0.
 00353483,-0.00076341,0.00171090,-0.00173444,0.00026927,-0.00063889,0.0
 0065127,-0.02416978,0.01181746,-0.01044141,0.00055240,0.00067747,-0.00
 200084,-0.21154592,0.08918530,-0.07927755,0.00052505,0.00192551,-0.000
 93683,-0.00004409,-0.00000620,0.00003766,0.00000254,0.00000985,-0.0000
 1102,0.00002958,-0.00001125,-0.00002136,0.00003254,0.00001917,0.000006
 82,-0.00004669,-0.00003244,0.00001371,0.00000236,0.00000997,-0.0000111
 9,0.00001454,-0.00000029,-0.00000623,0.00001506,0.00000475,-0.00000166
 ,-0.00006200,-0.00000215,0.00000916,-0.00001654,0.00001850,-0.00002030
 ,0.00021152,-0.00013129,0.00006961,0.00081649,-0.00027493,0.00106765,0
 .00002814,-0.00007679,0.00006148,0.00033418,-0.00044788,-0.00001215,-0
 .00102696,-0.00018477,-0.00072171,0.23466005,0.00002204,0.00000552,-0.
 00000435,-0.00006346,0.00000052,-0.00002522,0.00001381,-0.00000159,-0.
 00000942,0.00000044,-0.00000029,-0.00000517,-0.00012712,-0.00002255,0.
 00002754,0.00008366,-0.00014207,0.00010410,0.00014162,0.00042462,-0.00
 029453,0.00003974,-0.00008254,0.00012375,-0.00006789,-0.00016954,0.000
 70833,-0.00149791,-0.00076292,0.00131543,-0.00038654,0.00027486,0.0001
 5674,0.00001073,0.00015069,-0.00030013,-0.00934862,0.00290587,-0.00399
 507,0.00009762,-0.00004584,-0.00014770,0.09051495,-0.09434497,0.041496
 10,-0.00131960,0.00069168,-0.00035741,0.00001888,0.00000359,-0.0000152
 3,-0.00000182,-0.00000377,0.00000614,-0.00001207,0.00000466,0.00001034
 ,-0.00001353,-0.00000701,0.00000129,0.00001923,0.00001118,-0.00000645,
 -0.00000351,-0.00000507,0.00000221,-0.00000589,0.00000229,0.00000462,-
 0.00000620,-0.00000348,-0.00000139,0.00001159,0.00000914,-0.00000894,0
 .00004579,-0.00000511,-0.00001917,0.00049113,0.00004334,-0.00060732,-0
 .00004982,0.00031799,-0.00020981,0.00015934,-0.00006966,0.00008622,-0.
 00013059,-0.00001275,-0.00026993,-0.00646372,0.00259479,-0.00229740,-0
 .09800519,0.10102350,-0.00001306,-0.00000668,0.00000298,0.00006639,-0.
 00004684,0.00001496,-0.00001973,-0.00000400,0.00000682,0.00000636,0.00
 000029,-0.00000602,0.00017752,0.00005846,-0.00009173,-0.00009337,0.000
 10346,-0.00014069,-0.00014801,-0.00025663,0.00046236,-0.00003078,0.000
 09870,-0.00006859,0.00012050,0.00076437,-0.00036535,0.00195786,0.00147
 200,-0.00150770,0.00054293,-0.00006847,0.00039707,-0.00005380,-0.00023
 060,0.00013154,0.01260096,-0.00626617,0.00380254,0.00128485,-0.0005175
 7,0.00082054,-0.08072045,0.04162876,-0.08379946,-0.00007344,-0.0004001
 0,0.00010892,-0.00001538,-0.00000316,0.00001075,0.00000307,0.00000068,
 -0.00000490,0.00001067,0.00000018,-0.00000695,0.00001112,0.00000791,0.
 00000175,-0.00001644,-0.00001036,0.00000579,0.00000203,0.00000499,-0.0
 0000345,0.00000458,-0.00000245,-0.00000365,0.00000544,0.00000393,0.000
 00161,-0.00000570,-0.00000748,0.00001077,-0.00004983,-0.00001631,0.000
 00466,-0.00060652,-0.00054055,0.00018326,0.00016806,0.00027308,-0.0002
 4537,-0.00001054,-0.00004565,-0.00007943,-0.00008841,-0.00002589,0.000
 21124,-0.02543812,0.01463229,-0.01109387,0.08628007,-0.04862919,0.0900
 9890,0.00001721,0.00000516,0.00000226,-0.00003745,-0.00001520,0.000003
 51,0.00002440,-0.00000931,-0.00000536,0.00000953,0.00001210,-0.0000070
 7,-0.00000730,-0.00001524,-0.00008865,0.00008857,-0.00005604,0.0000423
 7,-0.00002477,0.00033442,-0.00023441,0.00004071,-0.00009355,0.00010091
 ,-0.00056113,0.00021456,-0.00029757,0.00136611,-0.00041749,0.00018728,
 -0.00008024,-0.00020935,0.00054856,-0.00001775,0.00042351,-0.00029824,
 -0.00096845,-0.02567033,-0.00438602,0.00069678,-0.00021221,-0.00138055
 ,-0.04738169,-0.01895388,-0.00174381,-0.00464243,-0.00117106,0.0027684
 1,0.00001647,0.00000373,-0.00001326,-0.00000369,0.00000321,0.00000678,
 -0.00001056,-0.00000146,0.00000609,-0.00000891,-0.00000762,-0.00000894
 ,0.00001203,0.00001525,-0.00000328,0.00000236,-0.00000495,0.00000730,-
 0.00000720,0.00000499,0.00000088,-0.00000432,-0.00000380,0.00000005,0.
 00001520,0.00000434,-0.00000603,0.00003013,0.00000393,-0.00000287,-0.0
 0117755,0.00001715,-0.00119336,-0.00004414,0.00017772,0.00010484,0.000
 22464,0.00042932,0.00042610,-0.00013189,0.00017482,-0.00026014,-0.0011
 4817,-0.00145712,-0.00040643,0.00228120,0.02601351,0.00423268,0.050800
 87,0.00001020,-0.00000026,0.00000018,-0.00002979,-0.00000060,-0.000028
 10,0.00002018,-0.00000254,-0.00000033,-0.00000293,0.00000130,0.0000032
 4,-0.00002524,-0.00005177,0.00003615,0.00006650,-0.00009888,0.00002813
 ,0.00027763,0.00037102,-0.00034512,-0.00001908,0.00007221,0.00001248,0
 .00018187,0.00004204,0.00111465,0.00097752,0.00002642,0.00045974,-0.00
 029798,-0.00010899,0.00018284,-0.00014065,0.00049431,-0.00011895,0.000
 04925,-0.01218645,-0.00205979,0.00068792,0.00028815,-0.00093220,-0.020
 82503,-0.29761610,-0.03136693,-0.00371023,-0.00013308,0.00258528,-0.00
 000105,0.00000099,-0.00000365,-0.00000329,0.00001291,0.00000271,0.0000
 0243,-0.00000757,-0.00000750,0.00000475,0.00000069,-0.00001294,-0.0000
 0570,0.00000869,0.00000224,0.00000701,-0.00000221,0.00000771,-0.000002
 41,0.00001092,0.00000077,-0.00000022,-0.00000250,0.00000029,-0.0000016
 2,0.00000168,-0.00000169,0.00004153,0.00000529,-0.00003278,0.00099714,
 0.00036769,-0.00032747,-0.00007661,-0.00008941,0.00001255,-0.00006968,
 0.00072161,0.00065256,-0.00010448,0.00038919,0.00009706,-0.00002841,-0
 .00577970,-0.00052614,-0.00069559,-0.01276840,-0.00172218,0.02223685,0
 .32639931,0.00001088,0.00000435,0.00000161,-0.00001498,0.00001379,0.00
 001176,0.00000730,-0.00000103,-0.00001122,0.00000359,0.00000011,-0.000
 00777,-0.00005380,0.00006755,-0.00002466,0.00003873,-0.00012456,0.0000
 8182,0.00022472,0.00015936,-0.00014299,0.00006458,0.00003178,-0.000006
 76,-0.00068925,-0.00053226,0.00062866,-0.00043060,-0.00022457,0.000157
 34,-0.00003506,-0.00006668,-0.00012332,0.00000504,0.00003138,-0.000190
 41,-0.00011313,0.01477487,0.00059940,-0.00031125,0.00119418,0.00104705
 ,-0.00250644,-0.03105270,-0.05080225,0.00230891,0.00097805,-0.00156275
 ,0.00000543,0.00000002,-0.00000825,0.00000233,-0.00000554,0.00000314,-
 0.00000409,0.00000726,0.00000518,-0.00000860,-0.00000212,0.00000159,0.
 00000861,0.00000660,-0.00000193,-0.00000074,-0.00000274,0.00000073,-0.
 00000001,0.00000059,0.00000469,-0.00000394,-0.00000266,-0.00000242,0.0
 0000564,0.00000348,-0.00000369,0.00004225,0.00000436,-0.00000901,-0.00
 055348,0.00004160,-0.00066329,-0.00003521,0.00006408,-0.00008856,0.000
 29831,-0.00035837,-0.00027442,-0.00004151,-0.00018456,0.00017826,-0.00
 215783,-0.03155183,-0.00304668,0.00171636,0.01301545,0.00096714,0.0016
 5584,0.03278483,0.05235250,-0.00004669,-0.00001228,0.00001689,0.000089
 71,0.00002227,-0.00005045,-0.00001575,-0.00000724,0.00002648,-0.000024
 59,-0.00001116,0.00003174,0.00003389,-0.00027439,-0.00015810,0.0000419
 4,0.00012513,-0.00012963,-0.00003889,-0.00019061,0.00013342,-0.0000316
 6,0.00031142,-0.00034104,-0.00025341,-0.00015155,0.00059449,0.00160905
 ,0.00067027,0.00046458,0.00004714,-0.00074092,0.00066981,-0.00092072,0
 .00147394,0.00053963,-0.00246160,-0.00055527,-0.00052672,-0.00003750,-
 0.00034935,-0.00027667,0.00034608,-0.00112041,0.00016678,-0.22715039,0
 .08134933,-0.07270882,-0.00006375,-0.00000206,0.00002947,0.00000084,0.
 00001863,-0.00000878,0.00003650,-0.00001214,-0.00005430,0.00006610,0.0
 0003999,-0.00002502,-0.00007318,-0.00001290,0.00001884,0.00001752,0.00
 000847,-0.00000292,0.00001037,0.00000558,-0.00000835,0.00001607,0.0000
 0449,-0.00000107,-0.00004358,-0.00001189,0.00001788,-0.00001338,0.0000
 6648,-0.00000938,0.00011300,0.00002975,-0.00008080,0.00056808,0.000121
 25,0.00056085,0.00029037,-0.00008413,0.00029764,-0.00019612,0.00003791
 ,-0.00009204,-0.00006213,0.00004072,0.00007430,0.00072218,-0.00022704,
 0.00000764,0.00037484,0.00011704,0.00010015,0.24803580,0.00003667,0.00
 001666,0.00001723,-0.00006907,-0.00004667,0.00004405,0.00004132,-0.000
 02764,-0.00001412,0.00003385,0.00002335,-0.00002627,-0.00033051,0.0004
 4189,-0.00032395,0.00006893,-0.00035472,0.00031306,-0.00009387,0.00046
 311,0.00053363,0.00017088,-0.00026481,0.00014294,0.00137586,0.00006420
 ,-0.00030740,-0.00208719,-0.00622957,-0.00089824,0.00041294,-0.0011193
 4,0.00134912,-0.00045442,0.00130611,-0.00079379,0.02769215,-0.01446993
 ,0.01109211,0.00089105,0.00132102,0.00149173,0.00196297,0.00095971,0.0
 0018600,0.07987696,-0.08119926,0.03223429,0.00003280,0.00000666,-0.000
 03614,-0.00000194,-0.00000287,0.00001552,-0.00002493,0.00000967,0.0000
 0879,-0.00002186,-0.00001314,-0.00002524,0.00002787,0.00003770,-0.0000
 0910,0.00000720,-0.00001440,0.00001690,-0.00001502,0.00001000,0.000008
 71,-0.00001359,-0.00000824,-0.00000327,0.00003927,0.00000833,-0.000014
 98,0.00001250,-0.00003268,0.00000258,-0.00009514,-0.00030930,-0.000128
 11,-0.00067783,0.00012879,-0.00076421,-0.00035489,0.00035567,0.0001580
 7,0.00004326,0.00005933,-0.00008609,-0.00012110,-0.00007955,0.00001862
 ,-0.00111492,-0.00012003,-0.00006462,-0.00013593,0.00049042,-0.0002845
 4,-0.09071644,0.09152497,-0.00000255,-0.00000186,-0.00001230,0.0000138
 4,0.00000040,-0.00001298,-0.00001287,0.00000393,-0.00000630,-0.0000062
 7,-0.00000494,0.00000248,0.00012341,-0.00006963,0.00017414,0.00002293,
 0.00006207,-0.00008534,-0.00002698,-0.00005253,0.00003175,-0.00000667,
 0.00003248,-0.00002275,0.00017993,-0.00020397,0.00055390,-0.00010040,0
 .00009417,0.00051248,0.00002687,0.00072967,-0.00064096,0.00063162,-0.0
 0094890,-0.00004829,0.00331088,-0.00187179,-0.00007659,0.00089778,-0.0
 0054457,0.00051535,-0.00034851,0.00019792,-0.00021491,-0.07235588,0.03
 309419,-0.07657964,-0.00000734,-0.00000604,0.00001116,0.00000397,0.000
 00010,-0.00000246,0.00000594,-0.00000042,0.00000365,0.00000034,0.00000
 051,-0.00000856,-0.00001458,-0.00000551,0.00001036,0.00001198,0.000001
 52,0.00000783,0.00000273,0.00000147,-0.00000159,0.00000539,0.00000084,
 0.00000138,-0.00001122,-0.00000375,0.00000550,-0.00000023,-0.00000760,
 -0.00001360,0.00000651,0.00000563,-0.00004939,-0.00011078,-0.00011917,
 0.00016419,0.00003184,0.00019961,0.00007112,0.00009541,-0.00000781,-0.
 00007702,-0.00016437,0.00008013,-0.00008792,0.00035211,0.00029877,0.00
 027691,0.00025624,-0.00013754,-0.00006018,0.08213979,-0.03581000,0.078
 84581,-0.00000198,-0.00000756,0.00000850,0.00001052,0.00002450,0.00001
 176,-0.00000163,-0.00000066,0.00000895,-0.00000096,-0.00000632,-0.0000
 0062,-0.00006825,0.00005828,-0.00009531,-0.00001235,0.00000925,-0.0000
 0911,-0.00005581,0.00002514,-0.00005837,0.00000023,-0.00003200,0.00002
 941,0.00010506,0.00000556,-0.00008252,0.00011614,0.00035906,0.00066884
 ,-0.00004648,-0.00018514,0.00034369,-0.00081496,0.00047341,-0.00024429
 ,-0.00158105,0.00005332,0.00019328,-0.00002471,-0.00027595,-0.00014860
 ,-0.00001924,-0.00009021,-0.00088961,-0.04835856,-0.00433887,-0.018692
 09,0.00000016,0.00000375,-0.00000163,-0.00000100,-0.00000361,-0.000005
 12,0.00000527,-0.00000250,-0.00000719,0.00000206,0.00000863,0.00004049
 ,0.00001446,-0.00001018,-0.00001208,-0.00003234,0.00000658,-0.00002712
 ,0.00000163,-0.00000706,0.00000028,-0.00000330,0.00000242,-0.00000391,
 0.00000201,0.00000268,-0.00000166,-0.00000177,0.00000338,-0.00000448,0
 .00001223,-0.00001814,0.00004086,0.00030670,-0.00000162,0.00037449,0.0
 0054266,-0.00010785,-0.00001762,0.00002446,-0.00008162,-0.00023956,0.0
 0013728,-0.00034183,0.00022256,0.00001182,-0.00002546,-0.00015380,-0.0
 0004382,0.00019823,0.00016951,-0.00200770,-0.00640373,-0.02722814,0.04
 730643,-0.00002069,-0.00000575,-0.00000313,0.00005306,-0.00000620,-0.0
 0000534,-0.00001479,-0.00000029,0.00000609,-0.00000462,-0.00000329,0.0
 0000531,0.00014366,-0.00003502,0.00001300,-0.00003195,0.00006664,-0.00
 010079,-0.00000075,-0.00015695,0.00003468,-0.00002005,0.00005634,-0.00
 001667,0.00006950,-0.00003935,0.00055775,-0.00119796,0.00193940,-0.000
 88477,0.00000648,0.00035529,-0.00024178,-0.00000449,-0.00006290,0.0002
 4790,-0.00246646,-0.00778028,-0.03140633,0.00003741,-0.00679186,0.0003
 0635,0.00078236,0.00138386,-0.00133779,-0.00383591,-0.05575248,-0.0490
 9925,-0.00000782,-0.00000102,0.00001522,-0.00000487,0.00000789,-0.0000
 0686,0.00000808,-0.00001442,-0.00000531,0.00001376,0.00000668,0.000009
 02,-0.00001241,-0.00001180,0.00000391,-0.00000169,0.00001131,-0.000004
 34,0.00000418,-0.00000184,-0.00000308,0.00000707,0.00000269,0.00000393
 ,-0.00001062,-0.00000408,0.00000591,-0.00000684,0.00000353,-0.00000649
 ,-0.00002627,-0.00008503,0.00000678,-0.00029134,0.00013381,0.00016880,
 -0.00032032,-0.00061985,-0.00225097,0.00004085,0.00000309,0.00016116,-
 0.00042310,-0.00014502,0.00076913,-0.00005320,-0.00007002,0.00011407,0
 .00029585,0.00030069,0.00025828,-0.00003436,0.00198672,0.01247489,0.00
 441486,0.06285084,-0.00000032,0.00001808,-0.00001146,-0.00003786,-0.00
 004526,-0.00000322,0.00001010,0.00000375,-0.00002438,0.00000918,0.0000
 1488,-0.00000676,0.00007303,-0.00001098,0.00010940,0.00003742,-0.00002
 265,0.00003751,-0.00009327,-0.00002925,-0.00008742,0.00003469,-0.00009
 079,0.00017553,0.00044281,-0.00018419,0.00040670,-0.00075759,0.0006555
 7,0.00054858,0.00028945,0.00051080,-0.00064335,0.00075457,-0.00075140,
 0.00040509,-0.00006126,-0.00022267,-0.00541403,0.00022270,-0.00180345,
 0.00130984,0.00020033,0.00082595,0.00033329,-0.01899582,-0.05154015,-0
 .28852742,0.00001942,-0.00000055,-0.00000358,-0.00000315,0.00000902,0.
 00000743,-0.00001490,-0.00000637,0.00001704,-0.00001963,-0.00002377,-0
 .00004757,0.00000463,0.00001699,0.00000833,0.00003064,-0.00000904,0.00
 004815,-0.00000622,0.00000915,0.00000111,0.00000188,-0.00000470,0.0000
 1303,0.00001100,0.00000047,-0.00000403,0.00000681,-0.00002342,0.000007
 42,-0.00003516,-0.00002904,-0.00000720,0.00013261,0.00020774,0.0002768
 1,-0.00002655,-0.00035147,-0.00042249,-0.00008667,0.00021197,0.0001692
 4,-0.00038127,-0.00019981,0.00071114,0.00006504,-0.00005693,-0.0000665
 7,-0.00001636,-0.00006321,0.00035703,-0.00061229,-0.00148172,-0.009860
 05,0.02157670,0.05753755,0.31468559,0.00003392,0.00000296,-0.00000406,
 -0.00010371,-0.00000438,0.00003245,0.00000845,0.00002044,-0.00004967,0
 .00000927,0.00000839,-0.00002321,0.00015807,-0.00020550,0.00008042,-0.
 00010909,0.00000994,0.00006922,0.00009625,0.00012238,-0.00017006,-0.00
 003654,-0.00028452,0.00032701,-0.00006639,0.00001161,0.00001857,0.0004
 1671,-0.00028678,-0.00000598,-0.00047507,0.00228878,-0.00148691,-0.003
 05286,0.00028767,0.00166042,0.00006426,-0.00020967,-0.00077300,-0.0001
 2353,0.00024693,0.00007453,0.00055169,-0.00029290,-0.00037482,-0.20887
 523,-0.08793291,0.10086002,0.00003605,0.00000276,-0.00002405,0.0000043
 7,-0.00001359,0.00000967,-0.00003754,0.00002394,0.00004309,-0.00013930
 ,-0.00003299,0.00000857,0.00006332,0.00000968,-0.00000481,-0.00000336,
 -0.00001180,0.00001339,-0.00000735,-0.00000444,0.00000877,-0.00001043,
 -0.00000365,0.00000241,0.00002992,0.00000841,-0.00001167,0.00000845,-0
 .00001363,0.00004134,-0.00001363,-0.00003035,0.00005425,-0.00020211,-0
 .00008598,-0.00001840,0.00006469,0.00011671,-0.00004003,0.00034085,-0.
 00014557,-0.00009169,-0.00010242,0.00006366,0.00016181,0.00039704,0.00
 007188,0.00005462,0.00030036,0.00016395,0.00029174,-0.01897843,-0.0099
 9409,0.01227730,0.00447678,0.00291341,-0.00277467,0.22527651,-0.000038
 55,-0.00001433,0.00003842,0.00013337,0.00000764,0.00000224,-0.00003873
 ,-0.00002400,0.00000103,-0.00001085,-0.00001348,0.00001174,-0.00003030
 ,0.00009701,-0.00052966,0.00003572,0.00000218,-0.00001193,-0.00014183,
 -0.00014276,0.00007709,0.00010177,0.00027746,-0.00030030,0.00001758,-0
 .00001904,0.00016881,-0.00040493,0.00136470,-0.00010586,0.00063823,-0.
 00314015,0.00286199,-0.00094472,0.00255228,-0.00108295,-0.02538358,-0.
 01308015,0.01598036,-0.00017732,0.00147261,0.00107888,0.00089561,-0.00
 683682,-0.00151145,-0.08284918,-0.08864895,0.05267785,-0.00005645,0.00
 000607,0.00000808,-0.00000671,0.00001649,-0.00000849,0.00004790,-0.000
 01118,-0.00006595,0.00006548,0.00008221,0.00001766,-0.00005039,-0.0000
 0907,0.00000375,-0.00000858,0.00000959,-0.00002559,0.00000862,0.000000
 19,-0.00000382,0.00000672,0.00000503,-0.00000844,-0.00002382,-0.000005
 51,0.00001085,0.00000507,0.00007726,-0.00002056,-0.00000646,0.00011773
 ,-0.00018546,0.00009378,-0.00008424,-0.00008185,0.00027299,0.00016155,
 0.00012503,-0.00004060,-0.00019152,-0.00094710,0.00028371,0.00013816,0
 .00007469,0.00000029,0.00017339,-0.00029827,-0.00193585,-0.00115711,0.
 00095219,0.01007146,0.00507784,-0.00748225,0.00629126,0.00247866,-0.00
 307112,0.09317929,0.09926027,0.00000538,-0.00001630,0.00000383,0.00006
 389,0.00004564,0.00002009,-0.00003648,0.00000699,-0.00001682,-0.000005
 36,-0.00002684,-0.00000536,-0.00000216,0.00026380,-0.00004929,-0.00003
 695,0.00000044,-0.00006663,0.00002585,0.00001222,0.00006370,-0.0000168
 5,0.00003869,-0.00005974,-0.00003260,0.00003117,0.00002915,0.00037019,
 0.00056006,-0.00034652,-0.00036394,-0.00010298,0.00050637,0.00132008,-
 0.00091346,-0.00153125,-0.00409656,-0.00154783,0.00119153,-0.00072207,
 -0.00015562,0.00070563,-0.00051365,-0.00081770,0.00009152,0.10049429,0
 .05555889,-0.11300945,-0.00000657,0.00000036,0.00000785,-0.00000153,-0
 .00000940,-0.00001297,0.00001889,-0.00000623,-0.00000292,0.00000760,0.
 00002125,0.00009836,0.00001678,-0.00002911,-0.00000962,-0.00004192,0.0
 0001552,-0.00004583,0.00000768,-0.00001384,0.00000055,-0.00000187,0.00
 000611,-0.00000745,-0.00000846,0.00000169,0.00000295,-0.00000581,-0.00
 000333,-0.00003100,0.00000706,-0.00002386,-0.00001480,-0.00001706,0.00
 001714,0.00007196,0.00007373,0.00017892,-0.00002895,0.00006463,-0.0003
 0845,-0.00007983,-0.00016202,-0.00015278,0.00039896,0.00040065,-0.0000
 9627,-0.00003678,0.00000222,-0.00029691,0.00063266,-0.01080399,-0.0065
 6157,0.00667283,0.02423350,0.01267319,-0.01449875,-0.11023656,-0.05834
 960,0.11935601\\-0.00000009,0.00000180,-0.00000253,-0.00000112,0.00000
 116,0.00000089,0.00000030,0.00000074,-0.00000036,0.00000270,-0.0000006
 5,-0.00000090,-0.00000084,0.00000493,0.00000492,-0.00000050,-0.0000001
 8,0.00000386,0.00000089,-0.00000641,-0.00000402,-0.00000078,0.00000203
 ,0.00000255,0.00000070,0.00000372,0.00000244,-0.00000106,0.00000823,0.
 00000215,-0.00000392,-0.00001662,-0.00001635,-0.00000451,0.00001601,0.
 00000994,-0.00000151,-0.00000371,-0.00000527,-0.00000246,0.00000232,-0
 .00000483,0.00000144,-0.00000496,0.00000615,0.00000823,-0.00000198,0.0
 0000319,-0.00000176,-0.00000017,-0.00000128,-0.00000029,0.00000032,-0.
 00000110,0.00000112,-0.00000045,-0.00000036,0.00000137,-0.00000091,0.0
 0000048,0.00000037,0.00000051,-0.00000017,0.00000020,0.,-0.00000088,0.
 00000106,0.00000273,-0.00000103,0.00000062,-0.00000011,-0.00000165,-0.
 00000028,-0.00000040,0.00000026,-0.00000201,-0.00000049,0.00000008,-0.
 00000384,-0.00000228,0.00000017,-0.00000023,-0.00000203,0.00000324,-0.
 00000060,-0.00000004,-0.00000064,-0.00000193,-0.00000316,0.00000061,-0
 .00000209,-0.00000098,0.00000084,0.00000252,-0.00000108,0.00000232,0.0
 0000093,-0.00000234,0.00000181,0.00000334,0.00000056,-0.00000020,0.000
 00056,0.00000013,-0.00000158,0.00000346,0.00000377,-0.00000276\\\@


 We find comfort among those who agree with us -- growth among those who don't.
 -- Frank A. Clark
 Job cpu time:       0 days 11 hours 11 minutes 47.7 seconds.
 Elapsed time:       0 days  1 hours 48 minutes 13.5 seconds.
 File lengths (MBytes):  RWF=   1543 Int=      0 D2E=      0 Chk=     28 Scr=      1
 Normal termination of Gaussian 16 at Sat Jan  6 08:04:45 2024.
