
Running Job 1 of 1 124-an-CPCM.in
qchem 124-an-CPCM.in_3325965.0 /expanse/lustre/scratch/selhajj/temp_project/qcscratch/31248459/qchem3325965/ 0
/cm/shared/apps/spack/cpu/opt/spack/linux-centos8-zen2/gcc-10.2.0/qchem-5.4-akfmr7b3t57bfs6qan3padb2wnb2i7cl/exe/qcprog.exe_s 124-an-CPCM.in_3325965.0 /expanse/lustre/scratch/selhajj/temp_project/qcscratch/31248459/qchem3325965/
                  Welcome to Q-Chem
     A Quantum Leap Into The Future Of Chemistry


 Q-Chem 5.4, Q-Chem, Inc., Pleasanton, CA (2021)

 License issued to: University of California, San Diego (site)

 E. Epifanovsky,  A. T. B. Gilbert,  Xintian Feng,  Joonho Lee,  Yuezhi Mao,  
 N. Mardirossian,  P. Pokhilko,  A. White,  M. Wormit,  M. P. Coons,  
 A. L. Dempwolff,  Zhengting Gan,  D. Hait,  P. R. Horn,  L. D. Jacobson,  
 I. Kaliman,  J. Kussmann,  A. W. Lange,  Ka Un Lao,  D. S. Levine,  Jie Liu,  
 S. C. McKenzie,  A. F. Morrison,  K. Nanda,  F. Plasser,  D. R. Rehn,  
 M. L. Vidal,  Zhi-Qiang You,  Ying Zhu,  B. Alam,  B. Albrecht,  
 A. Aldossary,  E. Alguire,  J. H. Andersen,  D. Barton,  K. Begam,  A. Behn,  
 Y. A. Bernard,  E. J. Berquist,  H. Burton,  A. Carreras,  K. Carter-Fenk,  
 R. Chakraborty,  A. D. Chien,  K. D. Closser,  V. Cofer-Shabica,  
 S. Dasgupta,  Jia Deng,  M. de Wergifosse,  M. Diedenhofen,  Hainam Do,  
 S. Ehlert,  Po-Tung Fang,  S. Fatehi,  Qingguo Feng,  J. Gayvert,  
 Qinghui Ge,  G. Gidofalvi,  M. Goldey,  J. Gomes,  C. Gonzalez-Espinoza,  
 S. Gulania,  A. Gunina,  M. W. D. Hanson-Heine,  P. H. P. Harbach,  
 A. W. Hauser,  M. F. Herbst,  M. Hernandez Vera,  M. Hodecker,  
 Z. C. Holden,  S. Houck,  Xunkun Huang,  Kerwin Hui,  B. C. Huynh,  
 M. Ivanov,  Hyunjun Ji,  Hanjie Jiang,  B. Kaduk,  S. Kaehler,  
 K. Khistyaev,  Jaehoon Kim,  P. Klunzinger,  Z. Koczor-Benda,  
 Joong Hoon Koh,  D. Kosenkov,  L. Koulias,  T. Kowalczyk,  C. M. Krauter,  
 K. Kue,  A. Kunitsa,  T. Kus,  A. Landau,  K. V. Lawler,  D. Lefrancois,  
 S. Lehtola,  Rain Li,  Yi-Pei Li,  Jiashu Liang,  M. Liebenthal,  
 Hung-Hsuan Lin,  You-Sheng Lin,  Fenglai Liu,  Kuan-Yu Liu,  
 M. Loipersberger,  A. Luenser,  A. Manjanath,  P. Manohar,  E. Mansoor,  
 S. F. Manzer,  Shan-Ping Mao,  A. V. Marenich,  T. Markovich,  S. Mason,  
 S. A. Maurer,  P. F. McLaughlin,  M. F. S. J. Menger,  J.-M. Mewes,  
 S. A. Mewes,  P. Morgante,  J. W. Mullinax,  T. S. Nguyen-Beck,  
 K. J. Oosterbaan,  G. Paran,  Alexander C. Paul,  Suranjan K. Paul,  
 F. Pavosevic,  Zheng Pei,  S. Prager,  E. I. Proynov,  E. Ramos,  B. Rana,  
 A. E. Rask,  A. Rettig,  R. M. Richard,  F. Rob,  E. Rossomme,  T. Scheele,  
 M. Scheurer,  M. Schneider,  N. Sergueev,  S. M. Sharada,  W. Skomorowski,  
 D. W. Small,  C. J. Stein,  Yu-Chuan Su,  E. J. Sundstrom,  Zhen Tao,  
 J. Thirman,  T. Tsuchimochi,  N. M. Tubman,  S. P. Veccham,  O. Vydrov,  
 J. Wenzel,  J. Witte,  A. Yamada,  Kun Yao,  S. Yeganeh,  S. R. Yost,  
 A. Zech,  Igor Ying Zhang,  Xing Zhang,  Yu Zhang,  D. Zuev,  
 A. Aspuru-Guzik,  A. T. Bell,  N. A. Besley,  K. B. Bravaya,  B. R. Brooks,  
 D. Casanova,  Jeng-Da Chai,  S. Coriani,  C. J. Cramer,  
 A. E. DePrince, III,  R. A. DiStasio Jr.,  A. Dreuw,  B. D. Dunietz,  
 T. R. Furlani,  W. A. Goddard III,  S. Grimme,  S. Hammes-Schiffer,  
 T. Head-Gordon,  W. J. Hehre,  Chao-Ping Hsu,  T.-C. Jagau,  Yousung Jung,  
 A. Klamt,  Jing Kong,  D. S. Lambrecht,  WanZhen Liang,  N. J. Mayhall,  
 C. W. McCurdy,  J. B. Neaton,  C. Ochsenfeld,  J. A. Parkhill,  R. Peverati,  
 V. A. Rassolov,  Yihan Shao,  L. V. Slipchenko,  T. Stauch,  R. P. Steele,  
 J. E. Subotnik,  A. J. W. Thom,  A. Tkatchenko,  D. G. Truhlar,  
 T. Van Voorhis,  T. A. Wesolowski,  K. B. Whaley,  H. L. Woodcock III,  
 P. M. Zimmerman,  S. Faraji,  P. M. W. Gill,  M. Head-Gordon,  
 J. M. Herbert,  A. I. Krylov

 Contributors to earlier versions of Q-Chem not listed above: 
 R. D. Adamson,  B. Austin,  R. Baer,  J. Baker,  G. J. O. Beran,  
 K. Brandhorst,  S. T. Brown,  E. F. C. Byrd,  A. K. Chakraborty,  
 G. K. L. Chan,  Chun-Min Chang,  Yunqing Chen,  C.-L. Cheng,  
 Siu Hung Chien,  D. M. Chipman,  D. L. Crittenden,  H. Dachsel,  
 R. J. Doerksen,  A. D. Dutoi,  R. G. Edgar,  J. Fosso-Tande,  
 L. Fusti-Molnar,  D. Ghosh,  A. Ghysels,  A. Golubeva-Zadorozhnaya,  
 J. Gonthier,  M. S. Gordon,  S. R. Gwaltney,  G. Hawkins,  J. E. Herr,  
 A. Heyden,  S. Hirata,  E. G. Hohenstein,  G. Kedziora,  F. J. Keil,  
 C. Kelley,  Jihan Kim,  R. A. King,  R. Z. Khaliullin,  P. P. Korambath,  
 W. Kurlancheek,  A. Laurent,  A. M. Lee,  M. S. Lee,  S. V. Levchenko,  
 Ching Yeh Lin,  D. Liotard,  E. Livshits,  R. C. Lochan,  I. Lotan,  
 L. A. Martinez-Martinez,  P. E. Maslen,  N. Nair,  D. P. O'Neill,  
 D. Neuhauser,  E. Neuscamman,  C. M. Oana,  R. Olivares-Amaya,  R. Olson,  
 T. M. Perrine,  B. Peters,  P. A. Pieniazek,  A. Prociuk,  Y. M. Rhee,  
 J. Ritchie,  M. A. Rohrdanz,  E. Rosta,  N. J. Russ,  H. F. Schaefer III,  
 M. W. Schmidt,  N. E. Schultz,  S. Sharma,  N. Shenvi,  C. D. Sherrill,  
 A. C. Simmonett,  A. Sodt,  T. Stein,  D. Stuck,  K. S. Thanthiriwatte,  
 V. Vanovschi,  L. Vogt,  Tao Wang,  A. Warshel,  M. A. Watson,  
 C. F. Williams,  Q. Wu,  X. Xu,  Jun Yang,  W. Zhang,  Yan Zhao

 Please cite Q-Chem as follows:
 Y. Shao et al., Mol. Phys. 113, 184-215 (2015)
 DOI: 10.1080/00268976.2014.952696

 Q-Chem 5.4.0 for Intel X86 EM64T Linux

 Parts of Q-Chem use Armadillo 9.800.1 (Horizon Scraper).
 http://arma.sourceforge.net/

 Q-Chem begins on Tue Jun 11 17:55:55 2024  

 Host: 
0

     Scratch files written to /expanse/lustre/scratch/selhajj/temp_project/qcscratch/31248459/qchem3325965//
 May1621 |scratch|qcdevops|jenkins|workspace|build_RNUM    
 Processing $rem in /cm/shared/apps/spack/cpu/opt/spack/linux-centos8-zen2/gcc-10.2.0/qchem-5.4-akfmr7b3t57bfs6qan3padb2wnb2i7cl/config/preferences:
 Processing $rem in /home/selhajj/.qchemrc:
 Symmetry turned off for PCM/SM12/SMD calculation

 Checking the input file for inconsistencies... 	...done.

--------------------------------------------------------------
User input:
--------------------------------------------------------------
$molecule
-2 1
C                 -4.5661430000      0.2297230000      0.0311060000
C                 -3.1136780000     -0.1830270000     -0.0011990000
C                 -2.7691650000     -1.5614240000     -0.1480530000
C                 -1.4472020000     -1.9519060000     -0.1707140000
C                 -0.3795620000     -1.0256430000     -0.0643420000
C                  0.9867290000     -1.5065460000     -0.1169520000
O                  1.2829480000     -2.7466330000     -0.2606260000
C                  1.9946640000     -0.4724140000      0.0132300000
C                  3.3656050000     -0.8320810000     -0.0209290000
C                  4.3767070000      0.1004960000      0.0932620000
C                  4.0472050000      1.4768640000      0.2500370000
C                  2.7221230000      1.8602570000      0.2892590000
C                  1.6587060000      0.9281190000      0.1792990000
C                  0.2906090000      1.4068080000      0.2273900000
O                 -0.0009770000      2.6489970000      0.3664090000
C                 -0.7152050000      0.3720040000      0.1011880000
C                 -2.0895540000      0.7325610000      0.1295530000
H                 -5.1224300000     -0.2593320000      0.8512360000
H                 -5.0916510000     -0.0395490000     -0.8932560000
H                 -4.6707760000      1.3108690000      0.1661620000
H                 -3.5609770000     -2.3032220000     -0.2468840000
H                 -1.1716790000     -2.9960350000     -0.2842040000
H                  3.5826880000     -1.8890540000     -0.1428760000
H                  5.4192920000     -0.2119730000      0.0631120000
H                  4.8373010000      2.2208210000      0.3391330000
H                  2.4379430000      2.9014850000      0.4081510000
H                 -2.3035220000      1.7898350000      0.2589930000
$end
$rem
MAX_SCF_CYCLES=200
BASIS  =  6-311++G(d,p)
GUI  =  2
JOB_TYPE  =  SP
METHOD  =  B3LYP
SOLVENT_METHOD = PCM
$end
$pcm
theory = CPCM
$end
$solvent
dielectric 37.219
opticaldielectric 1.43
$end





--------------------------------------------------------------
 ----------------------------------------------------------------
             Standard Nuclear Orientation (Angstroms)
    I     Atom           X                Y                Z
 ----------------------------------------------------------------
    1      C      -4.5661430000     0.2297230000     0.0311060000
    2      C      -3.1136780000    -0.1830270000    -0.0011990000
    3      C      -2.7691650000    -1.5614240000    -0.1480530000
    4      C      -1.4472020000    -1.9519060000    -0.1707140000
    5      C      -0.3795620000    -1.0256430000    -0.0643420000
    6      C       0.9867290000    -1.5065460000    -0.1169520000
    7      O       1.2829480000    -2.7466330000    -0.2606260000
    8      C       1.9946640000    -0.4724140000     0.0132300000
    9      C       3.3656050000    -0.8320810000    -0.0209290000
   10      C       4.3767070000     0.1004960000     0.0932620000
   11      C       4.0472050000     1.4768640000     0.2500370000
   12      C       2.7221230000     1.8602570000     0.2892590000
   13      C       1.6587060000     0.9281190000     0.1792990000
   14      C       0.2906090000     1.4068080000     0.2273900000
   15      O      -0.0009770000     2.6489970000     0.3664090000
   16      C      -0.7152050000     0.3720040000     0.1011880000
   17      C      -2.0895540000     0.7325610000     0.1295530000
   18      H      -5.1224300000    -0.2593320000     0.8512360000
   19      H      -5.0916510000    -0.0395490000    -0.8932560000
   20      H      -4.6707760000     1.3108690000     0.1661620000
   21      H      -3.5609770000    -2.3032220000    -0.2468840000
   22      H      -1.1716790000    -2.9960350000    -0.2842040000
   23      H       3.5826880000    -1.8890540000    -0.1428760000
   24      H       5.4192920000    -0.2119730000     0.0631120000
   25      H       4.8373010000     2.2208210000     0.3391330000
   26      H       2.4379430000     2.9014850000     0.4081510000
   27      H      -2.3035220000     1.7898350000     0.2589930000
 ----------------------------------------------------------------
 Nuclear Repulsion Energy =        1078.78356483 hartrees
 There are       59 alpha and       59 beta electrons
 Requested basis set is 6-311++G(d,p)
 There are 152 shells and 444 basis functions

 Total QAlloc Memory Limit   8000 MB
 Mega-Array Size       188 MB
 MEM_STATIC part       192 MB
 Discretize the solute cavity surface with Lebedev spheres
	Using 110 Lebedev grid points for each H atom
	Using 194 Lebedev grid points for other atoms
	Atomic van der Waals radii will be scaled by 1.20
 Remove points where switching function is < 1.0e-08
 Keep 1800 surface tesserae and discard 2598 interior tesserae
 Molecular Surface Area = 254.543 Angst**2
 A cutoff of  1.0D-08 yielded   8139 shell pairs
 There are     72851 function pairs (     77991 Cartesian)
 Smallest overlap matrix eigenvalue = 6.90E-08

 Q-Chem warning in module stvman/mkSTV.C, line 323:

 Overlap eigenvalue is smaller than square root of threshold
 Use THRESH >= 12 to get rid of this warning

 Linear dependence detected in AO basis
 Tighter screening thresholds may be required for diffuse basis sets
 Use S2THRESH > 14 and THRESH = 14 in case of SCF convergence issues
 Number of orthogonalized atomic orbitals = 438
 Maximum deviation from orthogonality = 4.326E-10

 Scale SEOQF with 1.000000e-02/1.000000e-01/1.000000e-01

 Standard Electronic Orientation quadrupole field applied
 Nucleus-field energy     =     0.0000000217 hartrees
 Guess from superposition of atomic densities
 Warning:  Energy on first SCF cycle will be non-variational
 SAD guess density has 116.000000 electrons

 -----------------------------------------------------------------------
  General SCF calculation program by
  Eric Jon Sundstrom, Paul Horn, Yuezhi Mao, Dmitri Zuev, Alec White,
  David Stuck, Shaama M.S., Shane Yost, Joonho Lee, David Small,
  Daniel Levine, Susi Lehtola, Hugh Burton, Evgeny Epifanovsky,
  Bang C. Huynh
 -----------------------------------------------------------------------
 Exchange:     0.2000 Hartree-Fock + 0.0800 Slater + 0.7200 B88
 Correlation:  0.1900 VWN1RPA + 0.8100 LYP
 Using SG-1 standard quadrature grid
 using 8 threads for integral computing
 -------------------------------------------------------
 OpenMP Integral computing Module                
 Release: version 1.0, May 2013, Q-Chem Inc. Pittsburgh 
 -------------------------------------------------------
 A restricted SCF calculation will be
 performed using DIIS
 SCF converges when DIIS error is below 1.0e-05
 ---------------------------------------
  Cycle       Energy         DIIS error
 ---------------------------------------
    1    -732.1709256744      3.13e-02  
    2    -728.1054918565      4.16e-03  
    3    -727.7005396454      6.36e-03  
    4    -728.4755277262      1.54e-03  
    5    -728.5211953936      2.67e-04  
    6    -728.5225610985      1.23e-04  
    7    -728.5228784448      2.82e-05  
    8    -728.5228908214      6.10e-06  Convergence criterion met
 ---------------------------------------
 SCF time:   CPU 304.37s  wall 40.00s 

************** Final PCM Free Energy Summary **************
 G_electrostatic  =      -0.29078091 hartree =    -182.46777778 kcal/mol
 G_cavitation     =       0.00000000 hartree =       0.00000000 kcal/mol
 G_dispersion     =       0.00000000 hartree =       0.00000000 kcal/mol
 G_repulsion      =       0.00000000 hartree =       0.00000000 kcal/mol
 --------------------------------------------------
 Non-electrostatic Free Energy =       0.00000000 hartree =       0.00000000 kcal/mol
 Total                         =      -0.29078091 hartree =    -182.46777778 kcal/mol
 --------------------------------------------------
 SCF Energy (H0 + V/2)                       =    -728.52289082 
 Solute Internal Energy (H0)                 =    -728.23210991 
 Total Free Energy (H0 + V/2 + non-elec)     =    -728.52289082 hartree
                                             = -457155.01383071 kcal/mol
***********************************************************

 SCF   energy in the final basis set =     -728.5228908214
 Total energy in the final basis set =     -728.5228908214
 
 --------------------------------------------------------------
 
                    Orbital Energies (a.u.)
 --------------------------------------------------------------
 
 Alpha MOs
 -- Occupied --
-19.0236 -19.0222 -10.1754 -10.1736 -10.1562 -10.1518 -10.1485 -10.1480
-10.1465 -10.1461 -10.1457 -10.1456 -10.1412 -10.1362 -10.1358 -10.1354
-10.1349  -0.9436  -0.9400  -0.8292  -0.8219  -0.7606  -0.7319  -0.7227
 -0.7126  -0.6705  -0.6302  -0.6032  -0.5774  -0.5574  -0.5247  -0.5030
 -0.4877  -0.4415  -0.4378  -0.4282  -0.4168  -0.4029  -0.3985  -0.3977
 -0.3835  -0.3787  -0.3708  -0.3669  -0.3552  -0.3482  -0.3343  -0.3284
 -0.3156  -0.3136  -0.2986  -0.2981  -0.2344  -0.2260  -0.2247  -0.2119
 -0.2062  -0.1981  -0.1060
 -- Virtual --
 -0.0265   0.0009   0.0023   0.0081   0.0164   0.0202   0.0236   0.0275
  0.0401   0.0440   0.0467   0.0504   0.0548   0.0657   0.0670   0.0676
  0.0790   0.0817   0.0825   0.0940   0.0955   0.0998   0.1043   0.1066
  0.1136   0.1157   0.1203   0.1249   0.1296   0.1313   0.1323   0.1337
  0.1378   0.1405   0.1408   0.1432   0.1465   0.1536   0.1552   0.1606
  0.1612   0.1659   0.1711   0.1807   0.1840   0.1850   0.1957   0.1975
  0.2017   0.2033   0.2056   0.2077   0.2135   0.2216   0.2232   0.2306
  0.2339   0.2372   0.2390   0.2572   0.2590   0.2612   0.2626   0.2644
  0.2702   0.2709   0.2745   0.2778   0.2813   0.2842   0.2897   0.2985
  0.3064   0.3127   0.3145   0.3150   0.3174   0.3199   0.3212   0.3296
  0.3314   0.3349   0.3409   0.3490   0.3516   0.3571   0.3611   0.3648
  0.3716   0.3776   0.3833   0.3945   0.4016   0.4107   0.4167   0.4310
  0.4469   0.4499   0.4515   0.4701   0.4724   0.4762   0.5065   0.5268
  0.5290   0.5408   0.5559   0.5627   0.5705   0.5771   0.5855   0.5879
  0.5922   0.5963   0.6056   0.6097   0.6141   0.6156   0.6215   0.6270
  0.6452   0.6514   0.6561   0.6623   0.6718   0.6741   0.6781   0.6844
  0.6889   0.6899   0.6953   0.6977   0.7070   0.7112   0.7224   0.7285
  0.7595   0.7604   0.7626   0.7829   0.7861   0.7939   0.8059   0.8126
  0.8146   0.8174   0.8432   0.8506   0.8511   0.8767   0.8855   0.8981
  0.9108   0.9246   0.9393   0.9489   0.9517   0.9645   0.9686   0.9726
  0.9770   0.9822   0.9858   0.9955   1.0083   1.0180   1.0252   1.0323
  1.0421   1.0447   1.0512   1.0771   1.0799   1.0865   1.1004   1.1144
  1.1215   1.1250   1.1482   1.1608   1.1742   1.1892   1.1986   1.2012
  1.2180   1.2341   1.2664   1.2772   1.2924   1.2957   1.3305   1.3457
  1.3609   1.3671   1.3756   1.3823   1.4122   1.4349   1.4717   1.4759
  1.5069   1.5188   1.5194   1.5316   1.5458   1.5510   1.5524   1.5572
  1.5659   1.5720   1.5887   1.5988   1.6035   1.6253   1.6341   1.6468
  1.6614   1.6759   1.6991   1.7040   1.7247   1.7256   1.7380   1.7518
  1.7660   1.7739   1.7917   1.8035   1.8229   1.8275   1.8372   1.8429
  1.8538   1.8644   1.8947   1.9228   1.9248   1.9332   1.9527   1.9635
  1.9638   1.9874   1.9887   1.9996   2.0032   2.0061   2.0207   2.0271
  2.0364   2.0623   2.0720   2.0807   2.1040   2.1305   2.1321   2.1649
  2.1848   2.2196   2.2285   2.2319   2.2550   2.2982   2.3009   2.3169
  2.3363   2.3723   2.3784   2.4097   2.4338   2.4466   2.4529   2.4797
  2.4881   2.5057   2.5102   2.5572   2.5607   2.5956   2.5966   2.6267
  2.6504   2.6690   2.6873   2.6932   2.7324   2.7372   2.7460   2.7476
  2.7523   2.7695   2.7796   2.7892   2.8006   2.8046   2.8079   2.8138
  2.8252   2.8298   2.8509   2.8689   2.8791   2.9099   2.9112   2.9193
  2.9286   2.9362   2.9367   2.9566   2.9863   3.0024   3.0048   3.0199
  3.0300   3.0752   3.1251   3.1402   3.1785   3.1872   3.2131   3.2410
  3.2607   3.2956   3.3090   3.3565   3.3581   3.3659   3.3803   3.3968
  3.4587   3.4832   3.5248   3.5340   3.5642   3.5691   3.5980   3.6040
  3.6218   3.6828   3.7321   3.7867   3.8082   3.8553   3.8877   3.9077
  4.0655   4.0863   4.1199   4.2152   4.2412   4.3075   4.3522   4.3698
  4.5465   4.8476   4.8622   4.8731   5.1320   5.1466   5.3157   5.3431
  5.7929   5.8644  23.5554  23.7369  23.9194  23.9366  23.9511  23.9724
 23.9935  24.0012  24.0140  24.0208  24.0643  24.1468  24.1548  24.2059
 24.2091  50.0998  50.1601
 --------------------------------------------------------------
 
          Ground-State Mulliken Net Atomic Charges

     Atom                 Charge (a.u.)
  ----------------------------------------
      1 C                    -0.434643
      2 C                     0.278453
      3 C                    -0.507780
      4 C                    -0.001653
      5 C                     0.080677
      6 C                    -0.475762
      7 O                    -0.681697
      8 C                     0.207697
      9 C                    -0.003774
     10 C                    -0.530331
     11 C                    -0.533319
     12 C                    -0.045848
     13 C                     0.381878
     14 C                    -0.415634
     15 O                    -0.684561
     16 C                     0.137171
     17 C                    -0.300629
     18 H                     0.154630
     19 H                     0.156904
     20 H                     0.163732
     21 H                     0.172696
     22 H                     0.141173
     23 H                     0.142552
     24 H                     0.171657
     25 H                     0.172872
     26 H                     0.143059
     27 H                     0.110480
  ----------------------------------------
  Sum of atomic charges =    -2.000000

 -----------------------------------------------------------------
                    Cartesian Multipole Moments
 -----------------------------------------------------------------
    Charge (ESU x 10^10)
                -9.6064
    Dipole Moment (Debye)
         X      -6.7565      Y       0.2966      Z      -0.5465
       Tot       6.7850
    Quadrupole Moments (Debye-Ang)
        XX    -127.2831     XY       9.2596     YY    -159.9243
        XZ       0.6747     YZ      -5.5469     ZZ    -112.8806
    Octopole Moments (Debye-Ang^2)
       XXX    -136.9522    XXY      13.9439    XYY     -66.7328
       YYY      15.6428    XXZ      -5.9648    XYZ      -2.9436
       YYZ      -7.7723    XZZ     -38.5173    YZZ       1.9828
       ZZZ     -18.2444
    Hexadecapole Moments (Debye-Ang^3)
      XXXX   -4537.6949   XXXY    -165.2991   XXYY   -1040.1715
      XYYY     -60.1339   YYYY   -1999.0882   XXXZ     -41.1167
      XXYZ     -22.5695   XYYZ       0.4543   YYYZ    -125.5741
      XXZZ    -842.8212   XYZZ     -68.8335   YYZZ    -316.3609
      XZZZ     -47.9419   YZZZ     -91.7749   ZZZZ    -174.9712
 -----------------------------------------------------------------
 Total job time:  78.19s(wall), 313.54s(cpu) 
 Tue Jun 11 17:57:13 2024

        *************************************************************
        *                                                           *
        *  Thank you very much for using Q-Chem.  Have a nice day.  *
        *                                                           *
        *************************************************************


