 Entering Gaussian System, Link 0=g16
 Input=141-an.com
 Output=141-an.log
 Initial command:
 /sysapps/ubuntu-applications/gaussian/Gaussian/AVX2/g16/l1.exe "/scratch/selhajj1/4406879/Gau-2206902.inp" -scrdir="/scratch/selhajj1/4406879/"
 Entering Link 1 = /sysapps/ubuntu-applications/gaussian/Gaussian/AVX2/g16/l1.exe PID=   2206904.
  
 Copyright (c) 1988,1990,1992,1993,1995,1998,2003,2009,2016,
            Gaussian, Inc.  All Rights Reserved.
  
 This is part of the Gaussian(R) 16 program.  It is based on
 the Gaussian(R) 09 system (copyright 2009, Gaussian, Inc.),
 the Gaussian(R) 03 system (copyright 2003, Gaussian, Inc.),
 the Gaussian(R) 98 system (copyright 1998, Gaussian, Inc.),
 the Gaussian(R) 94 system (copyright 1995, Gaussian, Inc.),
 the Gaussian 92(TM) system (copyright 1992, Gaussian, Inc.),
 the Gaussian 90(TM) system (copyright 1990, Gaussian, Inc.),
 the Gaussian 88(TM) system (copyright 1988, Gaussian, Inc.),
 the Gaussian 86(TM) system (copyright 1986, Carnegie Mellon
 University), and the Gaussian 82(TM) system (copyright 1983,
 Carnegie Mellon University). Gaussian is a federally registered
 trademark of Gaussian, Inc.
  
 This software contains proprietary and confidential information,
 including trade secrets, belonging to Gaussian, Inc.
  
 This software is provided under written license and may be
 used, copied, transmitted, or stored only in accord with that
 written license.
  
 The following legend is applicable only to US Government
 contracts under FAR:
  
                    RESTRICTED RIGHTS LEGEND
  
 Use, reproduction and disclosure by the US Government is
 subject to restrictions as set forth in subparagraphs (a)
 and (c) of the Commercial Computer Software - Restricted
 Rights clause in FAR 52.227-19.
  
 Gaussian, Inc.
 340 Quinnipiac St., Bldg. 40, Wallingford CT 06492
  
  
 ---------------------------------------------------------------
 Warning -- This program may not be used in any manner that
 competes with the business of Gaussian, Inc. or will provide
 assistance to any competitor of Gaussian, Inc.  The licensee
 of this program is prohibited from giving any competitor of
 Gaussian, Inc. access to this program.  By using this program,
 the user acknowledges that Gaussian, Inc. is engaged in the
 business of creating and licensing software in the field of
 computational chemistry and represents and warrants to the
 licensee that it is not a competitor of Gaussian, Inc. and that
 it will not use this program in any manner prohibited above.
 ---------------------------------------------------------------
  

 Cite this work as:
 Gaussian 16, Revision A.03,
 M. J. Frisch, G. W. Trucks, H. B. Schlegel, G. E. Scuseria, 
 M. A. Robb, J. R. Cheeseman, G. Scalmani, V. Barone, 
 G. A. Petersson, H. Nakatsuji, X. Li, M. Caricato, A. V. Marenich, 
 J. Bloino, B. G. Janesko, R. Gomperts, B. Mennucci, H. P. Hratchian, 
 J. V. Ortiz, A. F. Izmaylov, J. L. Sonnenberg, D. Williams-Young, 
 F. Ding, F. Lipparini, F. Egidi, J. Goings, B. Peng, A. Petrone, 
 T. Henderson, D. Ranasinghe, V. G. Zakrzewski, J. Gao, N. Rega, 
 G. Zheng, W. Liang, M. Hada, M. Ehara, K. Toyota, R. Fukuda, 
 J. Hasegawa, M. Ishida, T. Nakajima, Y. Honda, O. Kitao, H. Nakai, 
 T. Vreven, K. Throssell, J. A. Montgomery, Jr., J. E. Peralta, 
 F. Ogliaro, M. J. Bearpark, J. J. Heyd, E. N. Brothers, K. N. Kudin, 
 V. N. Staroverov, T. A. Keith, R. Kobayashi, J. Normand, 
 K. Raghavachari, A. P. Rendell, J. C. Burant, S. S. Iyengar, 
 J. Tomasi, M. Cossi, J. M. Millam, M. Klene, C. Adamo, R. Cammi, 
 J. W. Ochterski, R. L. Martin, K. Morokuma, O. Farkas, 
 J. B. Foresman, and D. J. Fox, Gaussian, Inc., Wallingford CT, 2016.
 
 ******************************************
 Gaussian 16:  ES64L-G16RevA.03 25-Dec-2016
                10-Feb-2024 
 ******************************************
 %chk=141-an.chk
 %nproc=8
 Will use up to    8 processors via shared memory.
 %mem=30GB
 ----------------------------------------------------------------------
 #P UB3LYP/6-311++G(d,p) nosym opt freq SCRF=(PCM,Solvent=n,n-DiMethylF
 ormamide)
 ----------------------------------------------------------------------
 1/18=20,19=15,26=3,38=1/1,3;
 2/9=110,12=2,15=1,17=6,18=5,40=1/2;
 3/5=4,6=6,7=1111,11=2,25=1,30=1,70=2201,71=1,72=148,74=-5,116=2/1,2,3;
 4//1;
 5/5=2,38=5,53=148/2;
 6/7=2,8=2,9=2,10=2,28=1/1;
 7/30=1/1,2,3,16;
 1/18=20,19=15,26=3/3(2);
 2/9=110,15=1/2;
 99//99;
 2/9=110,15=1/2;
 3/5=4,6=6,7=1111,11=2,25=1,30=1,70=2205,71=1,72=148,74=-5,116=2/1,2,3;
 4/5=5,16=3,69=1/1;
 5/5=2,38=5,53=148/2;
 7/30=1/1,2,3,16;
 1/18=20,19=15,26=3/3(-5);
 2/9=110,15=1/2;
 6/7=2,8=2,9=2,10=2,19=2,28=1/1;
 99/9=1/99;
 Leave Link    1 at Sat Feb 10 17:40:45 2024, MaxMem=  4026531840 cpu:               0.7 elap:               0.1
 (Enter /sysapps/ubuntu-applications/gaussian/Gaussian/AVX2/g16/l101.exe)
 -------
 Reduced
 -------
 Symbolic Z-matrix:
 Charge = -2 Multiplicity = 1
 C                    -3.0878    3.76598   0.64131 
 C                    -4.34582   3.22297   0.80121 
 C                    -4.51712   1.82277   0.64898 
 C                    -1.95615   2.97475   0.3264 
 C                    -2.1401    1.54804   0.1907 
 C                    -3.44329   1.01504   0.35711 
 C                    -0.66477   3.61836   0.16601 
 C                     0.43149   2.71549  -0.13795 
 C                     0.24754   1.28878  -0.27365 
 C                    -1.04385   0.64517  -0.11327 
 C                     1.73467   3.2485   -0.30436 
 C                     2.8085    2.44076  -0.59622 
 C                     2.63721   1.04056  -0.74844 
 C                     1.37919   0.49755  -0.58855 
 O                    -0.50211   4.87887   0.29119 
 O                    -1.2065   -0.61534  -0.23844 
 H                    -3.56328  -0.05824   0.25459 
 H                     1.2098   -0.56834  -0.70263 
 H                    -2.91841   4.83187   0.7554 
 H                     1.85465   4.32178  -0.20185 
 O                     4.08382   2.99328  -0.79502 
 O                    -5.79242   1.27022   0.84779 
 C                    -6.59422   1.23204  -0.32371 
 C                     4.88535   3.0321    0.37664 
 H                    -5.2035    3.84109   1.05271 
 H                     3.4949    0.42245  -0.99992 
 H                    -7.56461   0.80718  -0.04321 
 H                    -6.13739   0.60329  -1.09971 
 H                    -6.75442   2.23782  -0.73833 
 H                     5.85578   3.45688   0.09616 
 H                     5.04551   2.02653   0.7918 
 H                     4.42831   3.6612    1.15223 
 
 ITRead=  0  0  0  0  0  0  0  0  0  0  0  0  0  0  0  0  0  0  0  0
 ITRead=  0  0  0  0  0  0  0  0  0  0  0  0
 MicOpt= -1 -1 -1 -1 -1 -1 -1 -1 -1 -1 -1 -1 -1 -1 -1 -1 -1 -1 -1 -1
 MicOpt= -1 -1 -1 -1 -1 -1 -1 -1 -1 -1 -1 -1
 NAtoms=     32 NQM=       32 NQMF=       0 NMMI=      0 NMMIF=      0
                NMic=       0 NMicF=      0.
                    Isotopes and Nuclear Properties:
 (Nuclear quadrupole moments (NQMom) in fm**2, nuclear magnetic moments (NMagM)
  in nuclear magnetons)

  Atom         1           2           3           4           5           6           7           8           9          10
 IAtWgt=          12          12          12          12          12          12          12          12          12          12
 AtmWgt=  12.0000000  12.0000000  12.0000000  12.0000000  12.0000000  12.0000000  12.0000000  12.0000000  12.0000000  12.0000000
 NucSpn=           0           0           0           0           0           0           0           0           0           0
 AtZEff=  -0.0000000  -0.0000000  -0.0000000  -0.0000000  -0.0000000  -0.0000000  -0.0000000  -0.0000000  -0.0000000  -0.0000000
 NQMom=    0.0000000   0.0000000   0.0000000   0.0000000   0.0000000   0.0000000   0.0000000   0.0000000   0.0000000   0.0000000
 NMagM=    0.0000000   0.0000000   0.0000000   0.0000000   0.0000000   0.0000000   0.0000000   0.0000000   0.0000000   0.0000000
 AtZNuc=   6.0000000   6.0000000   6.0000000   6.0000000   6.0000000   6.0000000   6.0000000   6.0000000   6.0000000   6.0000000

  Atom        11          12          13          14          15          16          17          18          19          20
 IAtWgt=          12          12          12          12          16          16           1           1           1           1
 AtmWgt=  12.0000000  12.0000000  12.0000000  12.0000000  15.9949146  15.9949146   1.0078250   1.0078250   1.0078250   1.0078250
 NucSpn=           0           0           0           0           0           0           1           1           1           1
 AtZEff=  -0.0000000  -0.0000000  -0.0000000  -0.0000000  -0.0000000  -0.0000000  -0.0000000  -0.0000000  -0.0000000  -0.0000000
 NQMom=    0.0000000   0.0000000   0.0000000   0.0000000   0.0000000   0.0000000   0.0000000   0.0000000   0.0000000   0.0000000
 NMagM=    0.0000000   0.0000000   0.0000000   0.0000000   0.0000000   0.0000000   2.7928460   2.7928460   2.7928460   2.7928460
 AtZNuc=   6.0000000   6.0000000   6.0000000   6.0000000   8.0000000   8.0000000   1.0000000   1.0000000   1.0000000   1.0000000

  Atom        21          22          23          24          25          26          27          28          29          30
 IAtWgt=          16          16          12          12           1           1           1           1           1           1
 AtmWgt=  15.9949146  15.9949146  12.0000000  12.0000000   1.0078250   1.0078250   1.0078250   1.0078250   1.0078250   1.0078250
 NucSpn=           0           0           0           0           1           1           1           1           1           1
 AtZEff=  -0.0000000  -0.0000000  -0.0000000  -0.0000000  -0.0000000  -0.0000000  -0.0000000  -0.0000000  -0.0000000  -0.0000000
 NQMom=    0.0000000   0.0000000   0.0000000   0.0000000   0.0000000   0.0000000   0.0000000   0.0000000   0.0000000   0.0000000
 NMagM=    0.0000000   0.0000000   0.0000000   0.0000000   2.7928460   2.7928460   2.7928460   2.7928460   2.7928460   2.7928460
 AtZNuc=   8.0000000   8.0000000   6.0000000   6.0000000   1.0000000   1.0000000   1.0000000   1.0000000   1.0000000   1.0000000

  Atom        31          32
 IAtWgt=           1           1
 AtmWgt=   1.0078250   1.0078250
 NucSpn=           1           1
 AtZEff=  -0.0000000  -0.0000000
 NQMom=    0.0000000   0.0000000
 NMagM=    2.7928460   2.7928460
 AtZNuc=   1.0000000   1.0000000
 Leave Link  101 at Sat Feb 10 17:40:45 2024, MaxMem=  4026531840 cpu:               2.9 elap:               0.5
 (Enter /sysapps/ubuntu-applications/gaussian/Gaussian/AVX2/g16/l103.exe)

 GradGradGradGradGradGradGradGradGradGradGradGradGradGradGradGradGradGrad
 Berny optimization.
 Initialization pass.
                           ----------------------------
                           !    Initial Parameters    !
                           ! (Angstroms and Degrees)  !
 --------------------------                            --------------------------
 ! Name  Definition              Value          Derivative Info.                !
 --------------------------------------------------------------------------------
 ! R1    R(1,2)                  1.3795         estimate D2E/DX2                !
 ! R2    R(1,4)                  1.4163         estimate D2E/DX2                !
 ! R3    R(1,19)                 1.0853         estimate D2E/DX2                !
 ! R4    R(2,3)                  1.4188         estimate D2E/DX2                !
 ! R5    R(2,25)                 1.0867         estimate D2E/DX2                !
 ! R6    R(3,6)                  1.375          estimate D2E/DX2                !
 ! R7    R(3,22)                 1.404          estimate D2E/DX2                !
 ! R8    R(4,5)                  1.4449         estimate D2E/DX2                !
 ! R9    R(4,7)                  1.4518         estimate D2E/DX2                !
 ! R10   R(5,6)                  1.4178         estimate D2E/DX2                !
 ! R11   R(5,10)                 1.4524         estimate D2E/DX2                !
 ! R12   R(6,17)                 1.0848         estimate D2E/DX2                !
 ! R13   R(7,8)                  1.4524         estimate D2E/DX2                !
 ! R14   R(7,15)                 1.2771         estimate D2E/DX2                !
 ! R15   R(8,9)                  1.4449         estimate D2E/DX2                !
 ! R16   R(8,11)                 1.4178         estimate D2E/DX2                !
 ! R17   R(9,10)                 1.4518         estimate D2E/DX2                !
 ! R18   R(9,14)                 1.4163         estimate D2E/DX2                !
 ! R19   R(10,16)                1.2771         estimate D2E/DX2                !
 ! R20   R(11,12)                1.375          estimate D2E/DX2                !
 ! R21   R(11,20)                1.0848         estimate D2E/DX2                !
 ! R22   R(12,13)                1.4188         estimate D2E/DX2                !
 ! R23   R(12,21)                1.404          estimate D2E/DX2                !
 ! R24   R(13,14)                1.3795         estimate D2E/DX2                !
 ! R25   R(13,26)                1.0867         estimate D2E/DX2                !
 ! R26   R(14,18)                1.0853         estimate D2E/DX2                !
 ! R27   R(21,24)                1.4201         estimate D2E/DX2                !
 ! R28   R(22,23)                1.4201         estimate D2E/DX2                !
 ! R29   R(23,27)                1.0958         estimate D2E/DX2                !
 ! R30   R(23,28)                1.0983         estimate D2E/DX2                !
 ! R31   R(23,29)                1.0996         estimate D2E/DX2                !
 ! R32   R(24,30)                1.0958         estimate D2E/DX2                !
 ! R33   R(24,31)                1.0996         estimate D2E/DX2                !
 ! R34   R(24,32)                1.0983         estimate D2E/DX2                !
 ! A1    A(2,1,4)              122.3122         estimate D2E/DX2                !
 ! A2    A(2,1,19)             121.1143         estimate D2E/DX2                !
 ! A3    A(4,1,19)             116.5733         estimate D2E/DX2                !
 ! A4    A(1,2,3)              119.0856         estimate D2E/DX2                !
 ! A5    A(1,2,25)             121.5114         estimate D2E/DX2                !
 ! A6    A(3,2,25)             119.3985         estimate D2E/DX2                !
 ! A7    A(2,3,6)              120.5443         estimate D2E/DX2                !
 ! A8    A(2,3,22)             118.8719         estimate D2E/DX2                !
 ! A9    A(6,3,22)             120.5462         estimate D2E/DX2                !
 ! A10   A(1,4,5)              118.0858         estimate D2E/DX2                !
 ! A11   A(1,4,7)              119.1861         estimate D2E/DX2                !
 ! A12   A(5,4,7)              122.7254         estimate D2E/DX2                !
 ! A13   A(4,5,6)              118.503          estimate D2E/DX2                !
 ! A14   A(4,5,10)             122.5065         estimate D2E/DX2                !
 ! A15   A(6,5,10)             118.9902         estimate D2E/DX2                !
 ! A16   A(3,6,5)              121.46           estimate D2E/DX2                !
 ! A17   A(3,6,17)             120.9876         estimate D2E/DX2                !
 ! A18   A(5,6,17)             117.5501         estimate D2E/DX2                !
 ! A19   A(4,7,8)              114.7679         estimate D2E/DX2                !
 ! A20   A(4,7,15)             122.6857         estimate D2E/DX2                !
 ! A21   A(8,7,15)             122.5448         estimate D2E/DX2                !
 ! A22   A(7,8,9)              122.5065         estimate D2E/DX2                !
 ! A23   A(7,8,11)             118.9901         estimate D2E/DX2                !
 ! A24   A(9,8,11)             118.503          estimate D2E/DX2                !
 ! A25   A(8,9,10)             122.7253         estimate D2E/DX2                !
 ! A26   A(8,9,14)             118.0858         estimate D2E/DX2                !
 ! A27   A(10,9,14)            119.1862         estimate D2E/DX2                !
 ! A28   A(5,10,9)             114.7679         estimate D2E/DX2                !
 ! A29   A(5,10,16)            122.545          estimate D2E/DX2                !
 ! A30   A(9,10,16)            122.6855         estimate D2E/DX2                !
 ! A31   A(8,11,12)            121.4599         estimate D2E/DX2                !
 ! A32   A(8,11,20)            117.5496         estimate D2E/DX2                !
 ! A33   A(12,11,20)           120.9882         estimate D2E/DX2                !
 ! A34   A(11,12,13)           120.5444         estimate D2E/DX2                !
 ! A35   A(11,12,21)           120.5474         estimate D2E/DX2                !
 ! A36   A(13,12,21)           118.8706         estimate D2E/DX2                !
 ! A37   A(12,13,14)           119.0857         estimate D2E/DX2                !
 ! A38   A(12,13,26)           119.398          estimate D2E/DX2                !
 ! A39   A(14,13,26)           121.5119         estimate D2E/DX2                !
 ! A40   A(9,14,13)            122.3121         estimate D2E/DX2                !
 ! A41   A(9,14,18)            116.5733         estimate D2E/DX2                !
 ! A42   A(13,14,18)           121.1144         estimate D2E/DX2                !
 ! A43   A(12,21,24)           113.9918         estimate D2E/DX2                !
 ! A44   A(3,22,23)            113.9921         estimate D2E/DX2                !
 ! A45   A(22,23,27)           107.412          estimate D2E/DX2                !
 ! A46   A(22,23,28)           111.3102         estimate D2E/DX2                !
 ! A47   A(22,23,29)           111.6359         estimate D2E/DX2                !
 ! A48   A(27,23,28)           109.1012         estimate D2E/DX2                !
 ! A49   A(27,23,29)           108.7915         estimate D2E/DX2                !
 ! A50   A(28,23,29)           108.5306         estimate D2E/DX2                !
 ! A51   A(21,24,30)           107.412          estimate D2E/DX2                !
 ! A52   A(21,24,31)           111.6353         estimate D2E/DX2                !
 ! A53   A(21,24,32)           111.3106         estimate D2E/DX2                !
 ! A54   A(30,24,31)           108.7917         estimate D2E/DX2                !
 ! A55   A(30,24,32)           109.1013         estimate D2E/DX2                !
 ! A56   A(31,24,32)           108.5305         estimate D2E/DX2                !
 ! D1    D(4,1,2,3)              0.1489         estimate D2E/DX2                !
 ! D2    D(4,1,2,25)           179.3751         estimate D2E/DX2                !
 ! D3    D(19,1,2,3)          -179.6771         estimate D2E/DX2                !
 ! D4    D(19,1,2,25)           -0.4509         estimate D2E/DX2                !
 ! D5    D(2,1,4,5)             -0.9219         estimate D2E/DX2                !
 ! D6    D(2,1,4,7)            179.6572         estimate D2E/DX2                !
 ! D7    D(19,1,4,5)           178.9116         estimate D2E/DX2                !
 ! D8    D(19,1,4,7)            -0.5093         estimate D2E/DX2                !
 ! D9    D(1,2,3,6)              0.5377         estimate D2E/DX2                !
 ! D10   D(1,2,3,22)           178.3179         estimate D2E/DX2                !
 ! D11   D(25,2,3,6)          -178.7052         estimate D2E/DX2                !
 ! D12   D(25,2,3,22)           -0.9249         estimate D2E/DX2                !
 ! D13   D(2,3,6,5)             -0.4134         estimate D2E/DX2                !
 ! D14   D(2,3,6,17)           179.0285         estimate D2E/DX2                !
 ! D15   D(22,3,6,5)          -178.1563         estimate D2E/DX2                !
 ! D16   D(22,3,6,17)            1.2856         estimate D2E/DX2                !
 ! D17   D(2,3,22,23)           89.0598         estimate D2E/DX2                !
 ! D18   D(6,3,22,23)          -93.1599         estimate D2E/DX2                !
 ! D19   D(1,4,5,6)              1.018          estimate D2E/DX2                !
 ! D20   D(1,4,5,10)          -179.2029         estimate D2E/DX2                !
 ! D21   D(7,4,5,6)           -179.583          estimate D2E/DX2                !
 ! D22   D(7,4,5,10)             0.1962         estimate D2E/DX2                !
 ! D23   D(1,4,7,8)            179.2103         estimate D2E/DX2                !
 ! D24   D(1,4,7,15)            -0.3311         estimate D2E/DX2                !
 ! D25   D(5,4,7,8)             -0.1824         estimate D2E/DX2                !
 ! D26   D(5,4,7,15)          -179.7238         estimate D2E/DX2                !
 ! D27   D(4,5,6,3)             -0.3764         estimate D2E/DX2                !
 ! D28   D(4,5,6,17)          -179.8367         estimate D2E/DX2                !
 ! D29   D(10,5,6,3)           179.8365         estimate D2E/DX2                !
 ! D30   D(10,5,6,17)            0.3761         estimate D2E/DX2                !
 ! D31   D(4,5,10,9)            -0.1816         estimate D2E/DX2                !
 ! D32   D(4,5,10,16)         -179.7241         estimate D2E/DX2                !
 ! D33   D(6,5,10,9)           179.5966         estimate D2E/DX2                !
 ! D34   D(6,5,10,16)            0.054          estimate D2E/DX2                !
 ! D35   D(4,7,8,9)              0.182          estimate D2E/DX2                !
 ! D36   D(4,7,8,11)          -179.5966         estimate D2E/DX2                !
 ! D37   D(15,7,8,9)           179.724          estimate D2E/DX2                !
 ! D38   D(15,7,8,11)           -0.0545         estimate D2E/DX2                !
 ! D39   D(7,8,9,10)            -0.1962         estimate D2E/DX2                !
 ! D40   D(7,8,9,14)           179.2031         estimate D2E/DX2                !
 ! D41   D(11,8,9,10)          179.5834         estimate D2E/DX2                !
 ! D42   D(11,8,9,14)           -1.0174         estimate D2E/DX2                !
 ! D43   D(7,8,11,12)         -179.8369         estimate D2E/DX2                !
 ! D44   D(7,8,11,20)           -0.3765         estimate D2E/DX2                !
 ! D45   D(9,8,11,12)            0.3756         estimate D2E/DX2                !
 ! D46   D(9,8,11,20)          179.8361         estimate D2E/DX2                !
 ! D47   D(8,9,10,5)             0.182          estimate D2E/DX2                !
 ! D48   D(8,9,10,16)          179.7239         estimate D2E/DX2                !
 ! D49   D(14,9,10,5)         -179.2109         estimate D2E/DX2                !
 ! D50   D(14,9,10,16)           0.3309         estimate D2E/DX2                !
 ! D51   D(8,9,14,13)            0.9218         estimate D2E/DX2                !
 ! D52   D(8,9,14,18)         -178.9121         estimate D2E/DX2                !
 ! D53   D(10,9,14,13)        -179.6571         estimate D2E/DX2                !
 ! D54   D(10,9,14,18)           0.509          estimate D2E/DX2                !
 ! D55   D(8,11,12,13)           0.4138         estimate D2E/DX2                !
 ! D56   D(8,11,12,21)         178.1573         estimate D2E/DX2                !
 ! D57   D(20,11,12,13)       -179.0282         estimate D2E/DX2                !
 ! D58   D(20,11,12,21)         -1.2846         estimate D2E/DX2                !
 ! D59   D(11,12,13,14)         -0.5375         estimate D2E/DX2                !
 ! D60   D(11,12,13,26)        178.7058         estimate D2E/DX2                !
 ! D61   D(21,12,13,14)       -178.3185         estimate D2E/DX2                !
 ! D62   D(21,12,13,26)          0.9248         estimate D2E/DX2                !
 ! D63   D(11,12,21,24)         93.1281         estimate D2E/DX2                !
 ! D64   D(13,12,21,24)        -89.091          estimate D2E/DX2                !
 ! D65   D(12,13,14,9)          -0.1492         estimate D2E/DX2                !
 ! D66   D(12,13,14,18)        179.6773         estimate D2E/DX2                !
 ! D67   D(26,13,14,9)        -179.3759         estimate D2E/DX2                !
 ! D68   D(26,13,14,18)          0.4505         estimate D2E/DX2                !
 ! D69   D(12,21,24,30)        178.6875         estimate D2E/DX2                !
 ! D70   D(12,21,24,31)         59.5061         estimate D2E/DX2                !
 ! D71   D(12,21,24,32)        -61.9415         estimate D2E/DX2                !
 ! D72   D(3,22,23,27)        -178.6869         estimate D2E/DX2                !
 ! D73   D(3,22,23,28)          61.9424         estimate D2E/DX2                !
 ! D74   D(3,22,23,29)         -59.5054         estimate D2E/DX2                !
 --------------------------------------------------------------------------------
 Trust Radius=3.00D-01 FncErr=1.00D-07 GrdErr=1.00D-06 EigMax=2.50D+02 EigMin=1.00D-04
 Number of steps in this run=    174 maximum allowed number of steps=    192.
 GradGradGradGradGradGradGradGradGradGradGradGradGradGradGradGradGradGrad

 Leave Link  103 at Sat Feb 10 17:40:46 2024, MaxMem=  4026531840 cpu:               0.3 elap:               0.1
 (Enter /sysapps/ubuntu-applications/gaussian/Gaussian/AVX2/g16/l202.exe)
                          Input orientation:                          
 ---------------------------------------------------------------------
 Center     Atomic      Atomic             Coordinates (Angstroms)
 Number     Number       Type             X           Y           Z
 ---------------------------------------------------------------------
      1          6           0       -3.087804    3.765978    0.641313
      2          6           0       -4.345822    3.222973    0.801207
      3          6           0       -4.517115    1.822769    0.648979
      4          6           0       -1.956154    2.974749    0.326403
      5          6           0       -2.140100    1.548043    0.190702
      6          6           0       -3.443288    1.015039    0.357109
      7          6           0       -0.664766    3.618363    0.166014
      8          6           0        0.431488    2.715489   -0.137952
      9          6           0        0.247543    1.288783   -0.273653
     10          6           0       -1.043847    0.645170   -0.113268
     11          6           0        1.734673    3.248495   -0.304362
     12          6           0        2.808504    2.440762   -0.596221
     13          6           0        2.637214    1.040561   -0.748441
     14          6           0        1.379194    0.497554   -0.588554
     15          8           0       -0.502112    4.878869    0.291186
     16          8           0       -1.206497   -0.615336   -0.238439
     17          1           0       -3.563282   -0.058241    0.254592
     18          1           0        1.209798   -0.568340   -0.702630
     19          1           0       -2.918406    4.831871    0.755397
     20          1           0        1.854654    4.321778   -0.201854
     21          8           0        4.083821    2.993282   -0.795024
     22          8           0       -5.792416    1.270221    0.847794
     23          6           0       -6.594218    1.232037   -0.323707
     24          6           0        4.885348    3.032102    0.376644
     25          1           0       -5.203496    3.841093    1.052706
     26          1           0        3.494898    0.422447   -0.999921
     27          1           0       -7.564607    0.807179   -0.043211
     28          1           0       -6.137395    0.603292   -1.099708
     29          1           0       -6.754416    2.237822   -0.738333
     30          1           0        5.855775    3.456883    0.096162
     31          1           0        5.045510    2.026528    0.791800
     32          1           0        4.428309    3.661197    1.152230
 ---------------------------------------------------------------------
                    Distance matrix (angstroms):
                    1          2          3          4          5
     1  C    0.000000
     2  C    1.379503   0.000000
     3  C    2.412271   1.418833   0.000000
     4  C    1.416278   2.448993   2.826594   0.000000
     5  C    2.453656   2.836074   2.436328   1.444902   0.000000
     6  C    2.788334   2.426265   1.375035   2.460279   1.417774
     7  C    2.473623   3.756325   4.277617   1.451774   2.542331
     8  C    3.754490   4.895125   5.089684   2.446155   2.843239
     9  C    4.254198   5.098570   4.882454   2.838808   2.446156
    10  C    3.806126   4.287700   3.745844   2.540188   1.452359
    11  C    4.941495   6.180239   6.482778   3.754332   4.260339
    12  C    6.168803   7.331374   7.456348   4.882453   5.089683
    13  C    6.491159   7.478444   7.331375   5.098569   4.895126
    14  C    5.670030   6.491160   6.168804   4.254196   3.754490
    15  O    2.836709   4.216185   5.058459   2.396070   3.713153
    16  O    4.848628   5.066443   4.206193   3.710760   2.394992
    17  H    3.873020   3.417239   2.145585   3.433227   2.147016
    18  H    6.249950   6.892060   6.351518   4.861650   4.061888
    19  H    1.085283   2.151318   3.409089   2.135150   3.421720
    20  H    5.044575   6.376473   6.896985   4.076248   4.879115
    21  O    7.354749   8.582517   8.799508   6.143227   6.465104
    22  O    3.685968   2.430647   1.404005   4.230150   3.721339
    23  C    4.432500   3.206952   2.368425   4.997132   4.494846
    24  C    8.011228   9.242899   9.483826   6.841927   7.182891
    25  H    2.156627   1.086705   2.169734   3.438502   3.922439
    26  H    7.563386   8.518445   8.298923   6.163388   5.868369
    27  H    5.409698   4.112138   3.285994   6.024095   5.479860
    28  H    4.725859   3.699451   2.677749   5.014018   4.305355
    29  H    4.205084   3.023579   2.665036   4.969914   4.757185
    30  H    8.965508  10.228606  10.515359   7.830179   8.221109
    31  H    8.318601   9.467243   9.565862   7.080891   7.226566
    32  H    7.534187   8.792078   9.146239   6.474146   6.966631
                    6          7          8          9         10
     6  C    0.000000
     7  C    3.812348   0.000000
     8  C    4.260341   1.452360   0.000000
     9  C    3.754335   2.540189   1.444902   0.000000
    10  C    2.472928   3.010245   2.542330   1.451774   0.000000
    11  C    5.677777   2.472926   1.417772   2.460278   3.812347
    12  C    6.482779   3.745844   2.436327   2.826593   4.277616
    13  C    6.180242   4.287699   2.836073   2.448993   3.756327
    14  C    4.941498   3.806126   2.453655   1.416277   2.473624
    15  O    4.856341   1.277106   2.394991   3.710760   4.287338
    16  O    2.831260   4.287337   3.713151   2.396068   1.277105
    17  H    1.084822   4.682591   4.879125   4.076261   2.641526
    18  H    5.028056   4.668727   3.421719   2.135149   2.626570
    19  H    3.873286   2.626569   4.061888   4.861651   4.668727
    20  H    6.270180   2.641514   2.147009   3.433223   4.682585
    21  O    7.867543   4.885018   3.721350   4.230151   5.680792
    22  O    2.413357   5.680791   6.465097   6.143215   4.885001
    23  C    3.230938   6.410365   7.183013   6.842179   5.585277
    24  C    8.569428   5.584965   4.494655   4.997127   6.410368
    25  H    3.401289   4.629892   5.868364   6.163387   5.373649
    26  H    7.094443   5.373648   3.922437   3.438505   4.629899
    27  H    4.145930   7.453478   8.221202   7.830373   6.523148
    28  H    3.090318   6.375137   6.966820   6.474542   5.188357
    29  H    3.695776   6.309324   7.226745   7.081245   5.961363
    30  H    9.617862   6.522914   5.479723   6.024092   7.453481
    31  H    8.559892   5.960939   4.756922   4.969904   6.309324
    32  H    8.342446   5.187858   4.305056   5.014010   6.375139
                   11         12         13         14         15
    11  C    0.000000
    12  C    1.375037   0.000000
    13  C    2.426264   1.418828   0.000000
    14  C    2.788334   2.412269   1.379505   0.000000
    15  O    2.831255   4.206190   5.066439   4.848626   0.000000
    16  O    4.856338   5.058456   4.216184   2.836706   5.564436
    17  H    6.270188   6.896996   6.376487   5.044588   5.809230
    18  H    3.873286   3.409088   2.151320   1.085283   5.795722
    19  H    5.028053   6.351517   6.892059   6.249950   2.460930
    20  H    1.084822   2.145595   3.417242   3.873021   2.471393
    21  O    2.413375   1.404007   2.430630   3.685959   5.076029
    22  O    7.867535   8.799498   8.582504   7.354733   6.428022
    23  C    8.569533   9.484011   9.243181   8.011548   7.126797
    24  C    3.230688   2.368424   3.207204   4.432681   5.695839
    25  H    7.094434   8.298917   8.518441   7.563385   4.874413
    26  H    3.401285   2.169725   1.086706   2.156633   6.123948
    27  H    9.617943  10.515505  10.228830   8.965759   8.159002
    28  H    8.342609   9.146524   8.792517   7.534691   7.209130
    29  H    8.560048   9.566129   9.467642   8.319049   6.864863
    30  H    4.145760   3.285994   4.112311   5.409828   6.517884
    31  H    3.695459   2.665031   3.023965   4.205355   6.258001
    32  H    3.089928   2.677744   3.699771   4.726105   5.151036
                   16         17         18         19         20
    16  O    0.000000
    17  H    2.471411   0.000000
    18  H    2.460927   4.894769   0.000000
    19  H    5.795723   4.957809   6.951992   0.000000
    20  H    5.809224   6.981901   4.957809   4.894755   0.000000
    21  O    6.428015   8.300101   4.577521   7.403742   2.661942
    22  O    5.076010   2.661905   7.403724   4.577534   8.300087
    23  C    5.696279   3.344521   8.017955   5.256887   8.996932
    24  C    7.126900   8.996914   5.257155   8.017556   3.344104
    25  H    6.123954   4.304892   7.978386   2.508320   7.184877
    26  H    4.874419   7.184899   2.508331   7.978385   4.304892
    27  H    6.518223   4.104661   8.906013   6.198637  10.054852
    28  H    5.151756   2.982920   7.450613   5.628871   8.860368
    29  H    6.258579   4.054768   8.444201   4.865726   8.873938
    30  H    8.159082  10.054841   6.198838   8.905697   4.104367
    31  H    6.865015   8.873903   4.866143   8.443650   4.054267
    32  H    7.209281   8.860333   5.629236   7.449978   2.982216
                   21         22         23         24         25
    21  O    0.000000
    22  O   10.159126   0.000000
    23  C   10.832573   1.420126   0.000000
    24  C    1.420126  10.832398  11.640926   0.000000
    25  H    9.507216   2.645411   3.261256  10.143781   0.000000
    26  H    2.645374   9.507206  10.144110   3.261684   9.568828
    27  H   11.875611   2.036899   1.095827  12.654167   3.997563
    28  H   10.501340   2.087240   1.098265  11.383303   3.998551
    29  H   10.864682   2.092246   1.099628  11.719990   2.860708
    30  H    2.036899  11.875470  12.654191   1.095827  11.107208
    31  H    2.092240  10.864427  11.720019   1.099630  10.411669
    32  H    2.087242  10.501079  11.383115   1.098262   9.633999
                   26         27         28         29         30
    26  H    0.000000
    27  H   11.107473   0.000000
    28  H    9.634507   1.787370   0.000000
    29  H   10.412130   1.785033   1.784095   0.000000
    30  H    3.997867  13.680168  12.385847  12.696433   0.000000
    31  H    2.861422  12.696421  11.430694  11.900597   1.785037
    32  H    3.999064  12.385658  11.227471  11.430379   1.787368
                   31         32
    31  H    0.000000
    32  H    1.784093   0.000000
 Symmetry turned off by external request.
 Stoichiometry    C16H12O4(2-)
 Framework group  C1[X(C16H12O4)]
 Deg. of freedom    90
 Full point group                 C1      NOp   1
 Rotational constants (GHZ):           0.9124493           0.1743277           0.1494683
 Leave Link  202 at Sat Feb 10 17:40:46 2024, MaxMem=  4026531840 cpu:               0.5 elap:               0.1
 (Enter /sysapps/ubuntu-applications/gaussian/Gaussian/AVX2/g16/l301.exe)
 Standard basis: 6-311++G(d,p) (5D, 7F)
 Ernie: Thresh=  0.10000D-02 Tol=  0.10000D-05 Strict=F.
   524 basis functions,   828 primitive gaussians,   544 cartesian basis functions
    71 alpha electrons       71 beta electrons
       nuclear repulsion energy      1427.6476179956 Hartrees.
 IExCor=  402 DFT=T Ex+Corr=B3LYP ExCW=0 ScaHFX=  0.200000
 ScaDFX=  0.800000  0.720000  1.000000  0.810000 ScalE2=  1.000000  1.000000
 IRadAn=      5 IRanWt=     -1 IRanGd=            0 ICorTp=0 IEmpDi=  4
 NAtoms=   32 NActive=   32 NUniq=   32 SFac= 1.00D+00 NAtFMM=   60 NAOKFM=F Big=F
 Integral buffers will be    131072 words long.
 Raffenetti 2 integral format.
 Two-electron integral symmetry is turned off.
 ------------------------------------------------------------------------------
 Polarizable Continuum Model (PCM)
 =================================
 Model                : PCM.
 Atomic radii         : UFF (Universal Force Field).
 Polarization charges : Total charges.
 Charge compensation  : None.
 Solution method      : On-the-fly selection.
 Cavity type          : Scaled VdW (van der Waals Surface) (Alpha=1.100).
 Cavity algorithm     : GePol (No added spheres)
                        Default sphere list used, NSphG=   32.
                        Lebedev-Laikov grids with approx.  5.0 points / Ang**2.
                        Smoothing algorithm: York/Karplus (Gamma=1.0000).
                        Polarization charges: spherical gaussians, with
                                              point-specific exponents (IZeta= 3).
                        Self-potential: point-specific (ISelfS= 7).
                        Self-field    : sphere-specific E.n sum rule (ISelfD= 2).
 1st derivatives      : Analytical E(r).r(x)/FMM algorithm (CHGder, D1EAlg=3).
                        Cavity 1st derivative terms included.
 Solvent              : n,n-DiMethylFormamide, Eps=  37.219000 Eps(inf)=   2.046330
 ------------------------------------------------------------------------------
 GePol: Number of generator spheres                  =      32
 GePol: Total number of spheres                      =      32
 GePol: Number of exposed spheres                    =      32 (100.00%)
 GePol: Number of points                             =    2581
 GePol: Average weight of points                     =       0.13
 GePol: Minimum weight of points                     =   0.32D-09
 GePol: Maximum weight of points                     =    0.20577
 GePol: Number of points with low weight             =     141
 GePol: Fraction of low-weight points (<1% of avg)   =       5.46%
 GePol: Cavity surface area                          =    330.113 Ang**2
 GePol: Cavity volume                                =    356.398 Ang**3
 Leave Link  301 at Sat Feb 10 17:40:46 2024, MaxMem=  4026531840 cpu:               0.7 elap:               0.2
 (Enter /sysapps/ubuntu-applications/gaussian/Gaussian/AVX2/g16/l302.exe)
 NPDir=0 NMtPBC=     1 NCelOv=     1 NCel=       1 NClECP=     1 NCelD=      1
         NCelK=      1 NCelE2=     1 NClLst=     1 CellRange=     0.0.
 One-electron integrals computed using PRISM.
 NBasis=   524 RedAO= T EigKep=  1.51D-06  NBF=   524
 NBsUse=   517 1.00D-06 EigRej=  9.20D-07 NBFU=   517
 Precomputing XC quadrature grid using
 IXCGrd= 4 IRadAn=           5 IRanWt=          -1 IRanGd=           0 AccXCQ= 0.00D+00.
 Generated NRdTot=       0 NPtTot=           0 NUsed=           0 NTot=          32
 NSgBfM=   533   533   533   533   533 MxSgAt=    32 MxSgA2=    32.
 Leave Link  302 at Sat Feb 10 17:40:49 2024, MaxMem=  4026531840 cpu:              22.3 elap:               3.5
 (Enter /sysapps/ubuntu-applications/gaussian/Gaussian/AVX2/g16/l303.exe)
 DipDrv:  MaxL=1.
 Leave Link  303 at Sat Feb 10 17:40:50 2024, MaxMem=  4026531840 cpu:               0.6 elap:               0.1
 (Enter /sysapps/ubuntu-applications/gaussian/Gaussian/AVX2/g16/l401.exe)
 ExpMin= 3.60D-02 ExpMax= 8.59D+03 ExpMxC= 1.30D+03 IAcc=3 IRadAn=         5 AccDes= 0.00D+00
 Harris functional with IExCor=  402 and IRadAn=       5 diagonalized for initial guess.
 HarFok:  IExCor=  402 AccDes= 0.00D+00 IRadAn=         5 IDoV= 1 UseB2=F ITyADJ=14
 ICtDFT=  3500011 ScaDFX=  1.000000  1.000000  1.000000  1.000000
 FoFCou: FMM=F IPFlag=           0 FMFlag=      100000 FMFlg1=           0
         NFxFlg=           0 DoJE=T BraDBF=F KetDBF=T FulRan=T
         wScrn=  0.000000 ICntrl=       500 IOpCl=  0 I1Cent=   200000004 NGrid=           0
         NMat0=    1 NMatS0=      1 NMatT0=    0 NMatD0=    1 NMtDS0=    0 NMtDT0=    0
 Symmetry not used in FoFCou.
 Harris En= -918.518692023258    
 JPrj=0 DoOrth=F DoCkMO=F.
 Initial guess <Sx>= 0.0000 <Sy>= 0.0000 <Sz>= 0.0000 <S**2>=-0.0000 S=-0.0000
 Leave Link  401 at Sat Feb 10 17:40:56 2024, MaxMem=  4026531840 cpu:              41.2 elap:               6.0
 (Enter /sysapps/ubuntu-applications/gaussian/Gaussian/AVX2/g16/l502.exe)
 Two-electron integral symmetry not used.
 UHF open shell SCF:
 Using DIIS extrapolation, IDIIS=  1040.
 NGot=  4026531840 LenX=  4025931732 LenY=  4025635252
 Requested convergence on RMS density matrix=1.00D-08 within 128 cycles.
 Requested convergence on MAX density matrix=1.00D-06.
 Requested convergence on             energy=1.00D-06.
 No special actions if energy rises.
 Fock matrices will be formed incrementally for  20 cycles.

 Cycle   1  Pass 1  IDiag  1:
 FoFJK:  IHMeth= 1 ICntrl=       0 DoSepK=F KAlg= 0 I1Cent=           0 FoldK=F
 IRaf= 810000000 NMat=       1 IRICut=       1 DoRegI=T DoRafI=F ISym2E= 0 IDoP0=0 IntGTp=1.
 FoFCou: FMM=F IPFlag=           0 FMFlag=      100000 FMFlg1=           0
         NFxFlg=           0 DoJE=F BraDBF=F KetDBF=F FulRan=T
         wScrn=  0.000000 ICntrl=         0 IOpCl=  1 I1Cent=           0 NGrid=           0
         NMat0=    1 NMatS0=      1 NMatT0=    0 NMatD0=    1 NMtDS0=    0 NMtDT0=    0
 Symmetry not used in FoFCou.
 Inv3:  Mode=1 IEnd=    19984683.
 Iteration    1 A*A^-1 deviation from unit magnitude is 3.33D-15 for   2359.
 Iteration    1 A*A^-1 deviation from orthogonality  is 2.46D-15 for   1903    240.
 Iteration    1 A^-1*A deviation from unit magnitude is 3.66D-15 for   2359.
 Iteration    1 A^-1*A deviation from orthogonality  is 1.81D-15 for   1697    721.
 E= -917.714390104466    
 DIIS: error= 4.09D-02 at cycle   1 NSaved=   1.
 NSaved= 1 IEnMin= 1 EnMin= -917.714390104466     IErMin= 1 ErrMin= 4.09D-02
 ErrMax= 4.09D-02  0.00D+00 EMaxC= 1.00D-01 BMatC= 2.65D+00 BMatP= 2.65D+00
 IDIUse=3 WtCom= 5.91D-01 WtEn= 4.09D-01
 Coeff-Com:  0.100D+01
 Coeff-En:   0.100D+01
 Coeff:      0.100D+01
 Gap=     0.060 Goal=   None    Shift=    0.000
 Gap=     0.060 Goal=   None    Shift=    0.000
 GapD=    0.060 DampG=0.500 DampE=0.500 DampFc=0.2500 IDamp=-1.
 Damping current iteration by 2.50D-01
 RMSDP=5.07D-01 MaxDP=2.21D+01              OVMax= 9.93D-01

 Cycle   2  Pass 1  IDiag  1:
 RMSU=  1.25D-01    CP:  1.46D+00
 E= -917.876662803804     Delta-E=       -0.162272699338 Rises=F Damp=T
 DIIS: error= 1.89D-02 at cycle   2 NSaved=   2.
 NSaved= 2 IEnMin= 2 EnMin= -917.876662803804     IErMin= 2 ErrMin= 1.89D-02
 ErrMax= 1.89D-02  0.00D+00 EMaxC= 1.00D-01 BMatC= 5.47D-01 BMatP= 2.65D+00
 IDIUse=3 WtCom= 8.11D-01 WtEn= 1.89D-01
 Coeff-Com: -0.501D+00 0.150D+01
 Coeff-En:   0.000D+00 0.100D+01
 Coeff:     -0.407D+00 0.141D+01
 Gap=     0.003 Goal=   None    Shift=    0.000
 Gap=     0.003 Goal=   None    Shift=    0.000
 RMSDP=1.29D-01 MaxDP=5.79D+00 DE=-1.62D-01 OVMax= 8.59D-01

 Cycle   3  Pass 1  IDiag  1:
 RMSU=  5.24D-03    CP:  8.61D-01 -3.45D-03
 E= -918.153178684421     Delta-E=       -0.276515880618 Rises=F Damp=F
 DIIS: error= 2.40D-02 at cycle   3 NSaved=   3.
 NSaved= 3 IEnMin= 3 EnMin= -918.153178684421     IErMin= 2 ErrMin= 1.89D-02
 ErrMax= 2.40D-02  0.00D+00 EMaxC= 1.00D-01 BMatC= 6.59D-01 BMatP= 5.47D-01
 IDIUse=2 WtCom= 0.00D+00 WtEn= 1.00D+00
 Coeff-En:   0.000D+00 0.000D+00 0.100D+01
 Coeff:      0.000D+00 0.000D+00 0.100D+01
 Gap=     0.044 Goal=   None    Shift=    0.000
 Gap=     0.044 Goal=   None    Shift=    0.000
 RMSDP=3.15D-02 MaxDP=2.17D+00 DE=-2.77D-01 OVMax= 9.59D-01

 Cycle   4  Pass 1  IDiag  1:
 RMSU=  2.99D-02    CP:  9.62D-01  3.54D-02 -3.47D-01
 E= -916.969061452632     Delta-E=        1.184117231789 Rises=F Damp=F
 DIIS: error= 7.14D-02 at cycle   4 NSaved=   4.
 NSaved= 4 IEnMin= 3 EnMin= -918.153178684421     IErMin= 2 ErrMin= 1.89D-02
 ErrMax= 7.14D-02  0.00D+00 EMaxC= 1.00D-01 BMatC= 5.15D+00 BMatP= 5.47D-01
 IDIUse=2 WtCom= 0.00D+00 WtEn= 1.00D+00
 Coeff-En:   0.000D+00 0.000D+00 0.864D+00 0.136D+00
 Coeff:      0.000D+00 0.000D+00 0.864D+00 0.136D+00
 Gap=    -0.033 Goal=   None    Shift=    0.000
 Gap=    -0.033 Goal=   None    Shift=    0.000
 RMSDP=2.44D-02 MaxDP=1.68D+00 DE= 1.18D+00 OVMax= 9.76D-01

 Cycle   5  Pass 1  IDiag  1:
 RMSU=  6.47D-03    CP:  7.71D-01  1.02D-02  2.68D-01  3.00D-01
 E= -918.188874969068     Delta-E=       -1.219813516436 Rises=F Damp=F
 DIIS: error= 1.92D-02 at cycle   5 NSaved=   5.
 NSaved= 5 IEnMin= 5 EnMin= -918.188874969068     IErMin= 2 ErrMin= 1.89D-02
 ErrMax= 1.92D-02  0.00D+00 EMaxC= 1.00D-01 BMatC= 5.29D-01 BMatP= 5.47D-01
 IDIUse=3 WtCom= 8.08D-01 WtEn= 1.92D-01
 Coeff-Com: -0.308D-01 0.104D+00 0.446D+00-0.719D-02 0.488D+00
 Coeff-En:   0.000D+00 0.000D+00 0.445D+00 0.000D+00 0.555D+00
 Coeff:     -0.249D-01 0.841D-01 0.446D+00-0.581D-02 0.501D+00
 Gap=     0.076 Goal=   None    Shift=    0.000
 Gap=     0.076 Goal=   None    Shift=    0.000
 RMSDP=6.19D-03 MaxDP=4.06D-01 DE=-1.22D+00 OVMax= 9.90D-02

 Cycle   6  Pass 1  IDiag  1:
 RMSU=  1.57D-03    CP:  7.37D-01  2.87D-03  4.72D-01  1.24D-01  7.27D-01
 E= -918.295116306110     Delta-E=       -0.106241337042 Rises=F Damp=F
 DIIS: error= 2.06D-03 at cycle   6 NSaved=   6.
 NSaved= 6 IEnMin= 6 EnMin= -918.295116306110     IErMin= 6 ErrMin= 2.06D-03
 ErrMax= 2.06D-03  0.00D+00 EMaxC= 1.00D-01 BMatC= 5.06D-03 BMatP= 5.29D-01
 IDIUse=3 WtCom= 9.79D-01 WtEn= 2.06D-02
 Coeff-Com: -0.216D-01 0.486D-01 0.182D+00-0.101D-01 0.235D+00 0.565D+00
 Coeff-En:   0.000D+00 0.000D+00 0.000D+00 0.000D+00 0.000D+00 0.100D+01
 Coeff:     -0.211D-01 0.476D-01 0.179D+00-0.992D-02 0.230D+00 0.574D+00
 Gap=     0.075 Goal=   None    Shift=    0.000
 Gap=     0.075 Goal=   None    Shift=    0.000
 RMSDP=3.68D-04 MaxDP=1.91D-02 DE=-1.06D-01 OVMax= 9.20D-03

 Cycle   7  Pass 1  IDiag  1:
 RMSU=  3.33D-04    CP:  7.39D-01  2.60D-03  4.65D-01  1.27D-01  7.36D-01
                    CP:  1.02D+00
 E= -918.296015715242     Delta-E=       -0.000899409132 Rises=F Damp=F
 DIIS: error= 8.65D-04 at cycle   7 NSaved=   7.
 NSaved= 7 IEnMin= 7 EnMin= -918.296015715242     IErMin= 7 ErrMin= 8.65D-04
 ErrMax= 8.65D-04  0.00D+00 EMaxC= 1.00D-01 BMatC= 9.91D-04 BMatP= 5.06D-03
 IDIUse=3 WtCom= 9.91D-01 WtEn= 8.65D-03
 Coeff-Com: -0.429D-02 0.338D-02 0.124D-01-0.119D-02 0.190D-01 0.325D+00
 Coeff-Com:  0.646D+00
 Coeff-En:   0.000D+00 0.000D+00 0.000D+00 0.000D+00 0.000D+00 0.189D+00
 Coeff-En:   0.811D+00
 Coeff:     -0.426D-02 0.335D-02 0.123D-01-0.118D-02 0.189D-01 0.324D+00
 Coeff:      0.647D+00
 Gap=     0.075 Goal=   None    Shift=    0.000
 Gap=     0.075 Goal=   None    Shift=    0.000
 RMSDP=3.91D-04 MaxDP=3.01D-02 DE=-8.99D-04 OVMax= 4.81D-03

 Cycle   8  Pass 1  IDiag  1:
 RMSU=  1.87D-04    CP:  7.34D-01  2.54D-03  4.62D-01  1.24D-01  7.62D-01
                    CP:  1.08D+00  7.02D-01
 E= -918.296226958193     Delta-E=       -0.000211242951 Rises=F Damp=F
 DIIS: error= 2.95D-04 at cycle   8 NSaved=   8.
 NSaved= 8 IEnMin= 8 EnMin= -918.296226958193     IErMin= 8 ErrMin= 2.95D-04
 ErrMax= 2.95D-04  0.00D+00 EMaxC= 1.00D-01 BMatC= 9.17D-05 BMatP= 9.91D-04
 IDIUse=3 WtCom= 9.97D-01 WtEn= 2.95D-03
 Coeff-Com: -0.258D-02 0.207D-02-0.180D-02-0.566D-04-0.218D-02 0.171D+00
 Coeff-Com:  0.392D+00 0.441D+00
 Coeff-En:   0.000D+00 0.000D+00 0.000D+00 0.000D+00 0.000D+00 0.000D+00
 Coeff-En:   0.000D+00 0.100D+01
 Coeff:     -0.257D-02 0.206D-02-0.179D-02-0.565D-04-0.218D-02 0.171D+00
 Coeff:      0.391D+00 0.443D+00
 Gap=     0.075 Goal=   None    Shift=    0.000
 Gap=     0.075 Goal=   None    Shift=    0.000
 RMSDP=6.49D-05 MaxDP=3.69D-03 DE=-2.11D-04 OVMax= 1.75D-03

 Cycle   9  Pass 1  IDiag  1:
 RMSU=  3.82D-05    CP:  7.34D-01  2.44D-03  4.63D-01  1.23D-01  7.56D-01
                    CP:  1.07D+00  7.70D-01  8.94D-01
 E= -918.296250414090     Delta-E=       -0.000023455897 Rises=F Damp=F
 DIIS: error= 7.10D-05 at cycle   9 NSaved=   9.
 NSaved= 9 IEnMin= 9 EnMin= -918.296250414090     IErMin= 9 ErrMin= 7.10D-05
 ErrMax= 7.10D-05  0.00D+00 EMaxC= 1.00D-01 BMatC= 5.70D-06 BMatP= 9.17D-05
 IDIUse=1 WtCom= 1.00D+00 WtEn= 0.00D+00
 Coeff-Com: -0.890D-03 0.109D-02-0.208D-02 0.790D-04-0.279D-02 0.478D-01
 Coeff-Com:  0.116D+00 0.234D+00 0.606D+00
 Coeff:     -0.890D-03 0.109D-02-0.208D-02 0.790D-04-0.279D-02 0.478D-01
 Coeff:      0.116D+00 0.234D+00 0.606D+00
 Gap=     0.075 Goal=   None    Shift=    0.000
 Gap=     0.075 Goal=   None    Shift=    0.000
 RMSDP=2.63D-05 MaxDP=1.37D-03 DE=-2.35D-05 OVMax= 3.82D-04

 Cycle  10  Pass 1  IDiag  1:
 RMSU=  1.36D-05    CP:  7.34D-01  2.42D-03  4.64D-01  1.23D-01  7.57D-01
                    CP:  1.08D+00  7.86D-01  9.42D-01  9.24D-01
 E= -918.296251843660     Delta-E=       -0.000001429570 Rises=F Damp=F
 DIIS: error= 1.45D-05 at cycle  10 NSaved=  10.
 NSaved=10 IEnMin=10 EnMin= -918.296251843660     IErMin=10 ErrMin= 1.45D-05
 ErrMax= 1.45D-05  0.00D+00 EMaxC= 1.00D-01 BMatC= 5.58D-07 BMatP= 5.70D-06
 IDIUse=1 WtCom= 1.00D+00 WtEn= 0.00D+00
 Coeff-Com: -0.177D-03 0.251D-03-0.976D-03 0.358D-07-0.871D-03 0.786D-02
 Coeff-Com:  0.190D-01 0.723D-01 0.293D+00 0.610D+00
 Coeff:     -0.177D-03 0.251D-03-0.976D-03 0.358D-07-0.871D-03 0.786D-02
 Coeff:      0.190D-01 0.723D-01 0.293D+00 0.610D+00
 Gap=     0.075 Goal=   None    Shift=    0.000
 Gap=     0.075 Goal=   None    Shift=    0.000
 RMSDP=8.93D-06 MaxDP=6.12D-04 DE=-1.43D-06 OVMax= 1.10D-04

 Cycle  11  Pass 1  IDiag  1:
 RMSU=  3.02D-06    CP:  7.34D-01  2.41D-03  4.64D-01  1.23D-01  7.57D-01
                    CP:  1.08D+00  7.87D-01  9.65D-01  9.68D-01  1.16D+00
 E= -918.296251968088     Delta-E=       -0.000000124428 Rises=F Damp=F
 DIIS: error= 3.54D-06 at cycle  11 NSaved=  11.
 NSaved=11 IEnMin=11 EnMin= -918.296251968088     IErMin=11 ErrMin= 3.54D-06
 ErrMax= 3.54D-06  0.00D+00 EMaxC= 1.00D-01 BMatC= 4.62D-08 BMatP= 5.58D-07
 IDIUse=1 WtCom= 1.00D+00 WtEn= 0.00D+00
 Coeff-Com:  0.178D-04-0.177D-04-0.275D-03-0.481D-05-0.931D-04-0.161D-02
 Coeff-Com: -0.449D-02 0.725D-02 0.746D-01 0.282D+00 0.642D+00
 Coeff:      0.178D-04-0.177D-04-0.275D-03-0.481D-05-0.931D-04-0.161D-02
 Coeff:     -0.449D-02 0.725D-02 0.746D-01 0.282D+00 0.642D+00
 Gap=     0.075 Goal=   None    Shift=    0.000
 Gap=     0.075 Goal=   None    Shift=    0.000
 RMSDP=3.97D-06 MaxDP=2.42D-04 DE=-1.24D-07 OVMax= 3.10D-05

 Cycle  12  Pass 1  IDiag  1:
 RMSU=  1.30D-06    CP:  7.34D-01  2.41D-03  4.64D-01  1.23D-01  7.58D-01
                    CP:  1.08D+00  7.88D-01  9.78D-01  9.92D-01  1.18D+00
                    CP:  7.78D-01
 E= -918.296251976928     Delta-E=       -0.000000008839 Rises=F Damp=F
 DIIS: error= 2.18D-06 at cycle  12 NSaved=  12.
 NSaved=12 IEnMin=12 EnMin= -918.296251976928     IErMin=12 ErrMin= 2.18D-06
 ErrMax= 2.18D-06  0.00D+00 EMaxC= 1.00D-01 BMatC= 7.00D-09 BMatP= 4.62D-08
 IDIUse=1 WtCom= 1.00D+00 WtEn= 0.00D+00
 Coeff-Com:  0.127D-04-0.108D-04-0.834D-04-0.147D-06 0.437D-05-0.148D-02
 Coeff-Com: -0.398D-02-0.137D-02 0.231D-01 0.118D+00 0.363D+00 0.503D+00
 Coeff:      0.127D-04-0.108D-04-0.834D-04-0.147D-06 0.437D-05-0.148D-02
 Coeff:     -0.398D-02-0.137D-02 0.231D-01 0.118D+00 0.363D+00 0.503D+00
 Gap=     0.075 Goal=   None    Shift=    0.000
 Gap=     0.075 Goal=   None    Shift=    0.000
 RMSDP=9.71D-07 MaxDP=6.45D-05 DE=-8.84D-09 OVMax= 1.50D-05

 Cycle  13  Pass 1  IDiag  1:
 RMSU=  4.22D-07    CP:  7.34D-01  2.41D-03  4.64D-01  1.23D-01  7.58D-01
                    CP:  1.08D+00  7.88D-01  9.81D-01  9.96D-01  1.20D+00
                    CP:  8.57D-01  1.02D+00
 E= -918.296251978646     Delta-E=       -0.000000001719 Rises=F Damp=F
 DIIS: error= 3.44D-07 at cycle  13 NSaved=  13.
 NSaved=13 IEnMin=13 EnMin= -918.296251978646     IErMin=13 ErrMin= 3.44D-07
 ErrMax= 3.44D-07  0.00D+00 EMaxC= 1.00D-01 BMatC= 2.72D-10 BMatP= 7.00D-09
 IDIUse=1 WtCom= 1.00D+00 WtEn= 0.00D+00
 Coeff-Com:  0.222D-05-0.430D-05 0.441D-06-0.124D-07 0.116D-04-0.309D-03
 Coeff-Com: -0.768D-03-0.155D-02-0.736D-03 0.552D-02 0.348D-01 0.175D+00
 Coeff-Com:  0.788D+00
 Coeff:      0.222D-05-0.430D-05 0.441D-06-0.124D-07 0.116D-04-0.309D-03
 Coeff:     -0.768D-03-0.155D-02-0.736D-03 0.552D-02 0.348D-01 0.175D+00
 Coeff:      0.788D+00
 Gap=     0.075 Goal=   None    Shift=    0.000
 Gap=     0.075 Goal=   None    Shift=    0.000
 RMSDP=4.87D-07 MaxDP=2.03D-05 DE=-1.72D-09 OVMax= 5.07D-06

 Cycle  14  Pass 1  IDiag  1:
 RMSU=  1.29D-07    CP:  7.34D-01  2.41D-03  4.64D-01  1.23D-01  7.58D-01
                    CP:  1.08D+00  7.88D-01  9.82D-01  9.98D-01  1.21D+00
                    CP:  8.76D-01  1.18D+00  1.06D+00
 E= -918.296251978735     Delta-E=       -0.000000000089 Rises=F Damp=F
 DIIS: error= 1.22D-07 at cycle  14 NSaved=  14.
 NSaved=14 IEnMin=14 EnMin= -918.296251978735     IErMin=14 ErrMin= 1.22D-07
 ErrMax= 1.22D-07  0.00D+00 EMaxC= 1.00D-01 BMatC= 3.12D-11 BMatP= 2.72D-10
 IDIUse=1 WtCom= 1.00D+00 WtEn= 0.00D+00
 Coeff-Com:  0.898D-06-0.232D-05 0.328D-05 0.147D-07 0.532D-05-0.806D-04
 Coeff-Com: -0.189D-03-0.664D-03-0.130D-02-0.229D-02-0.515D-03 0.639D-01
 Coeff-Com:  0.387D+00 0.554D+00
 Coeff:      0.898D-06-0.232D-05 0.328D-05 0.147D-07 0.532D-05-0.806D-04
 Coeff:     -0.189D-03-0.664D-03-0.130D-02-0.229D-02-0.515D-03 0.639D-01
 Coeff:      0.387D+00 0.554D+00
 Gap=     0.075 Goal=   None    Shift=    0.000
 Gap=     0.075 Goal=   None    Shift=    0.000
 RMSDP=9.25D-08 MaxDP=3.93D-06 DE=-8.91D-11 OVMax= 1.73D-06

 Cycle  15  Pass 1  IDiag  1:
 RMSU=  3.45D-08    CP:  7.34D-01  2.41D-03  4.64D-01  1.23D-01  7.58D-01
                    CP:  1.08D+00  7.88D-01  9.82D-01  9.98D-01  1.21D+00
                    CP:  8.87D-01  1.20D+00  1.12D+00  1.11D+00
 E= -918.296251978745     Delta-E=       -0.000000000009 Rises=F Damp=F
 DIIS: error= 5.24D-08 at cycle  15 NSaved=  15.
 NSaved=15 IEnMin=15 EnMin= -918.296251978745     IErMin=15 ErrMin= 5.24D-08
 ErrMax= 5.24D-08  0.00D+00 EMaxC= 1.00D-01 BMatC= 6.89D-12 BMatP= 3.12D-11
 IDIUse=1 WtCom= 1.00D+00 WtEn= 0.00D+00
 Coeff-Com:  0.876D-07-0.376D-06 0.225D-05 0.558D-07 0.683D-06 0.185D-04
 Coeff-Com:  0.510D-04-0.576D-04-0.696D-03-0.271D-02-0.880D-02 0.273D-03
 Coeff-Com:  0.588D-01 0.335D+00 0.618D+00
 Coeff:      0.876D-07-0.376D-06 0.225D-05 0.558D-07 0.683D-06 0.185D-04
 Coeff:      0.510D-04-0.576D-04-0.696D-03-0.271D-02-0.880D-02 0.273D-03
 Coeff:      0.588D-01 0.335D+00 0.618D+00
 Gap=     0.075 Goal=   None    Shift=    0.000
 Gap=     0.075 Goal=   None    Shift=    0.000
 RMSDP=5.69D-08 MaxDP=2.12D-06 DE=-9.32D-12 OVMax= 8.26D-07

 Cycle  16  Pass 1  IDiag  1:
 RMSU=  1.16D-08    CP:  7.34D-01  2.41D-03  4.64D-01  1.23D-01  7.58D-01
                    CP:  1.08D+00  7.88D-01  9.82D-01  9.99D-01  1.21D+00
                    CP:  8.88D-01  1.22D+00  1.16D+00  1.25D+00  1.20D+00
 E= -918.296251978726     Delta-E=        0.000000000018 Rises=F Damp=F
 DIIS: error= 1.40D-08 at cycle  16 NSaved=  16.
 NSaved=16 IEnMin=15 EnMin= -918.296251978745     IErMin=16 ErrMin= 1.40D-08
 ErrMax= 1.40D-08  0.00D+00 EMaxC= 1.00D-01 BMatC= 3.36D-13 BMatP= 6.89D-12
 IDIUse=1 WtCom= 1.00D+00 WtEn= 0.00D+00
 Coeff-Com:  0.276D-07-0.254D-07 0.787D-06 0.239D-07-0.115D-06 0.128D-04
 Coeff-Com:  0.325D-04 0.173D-04-0.244D-03-0.107D-02-0.402D-02-0.299D-02
 Coeff-Com:  0.399D-02 0.121D+00 0.262D+00 0.622D+00
 Coeff:      0.276D-07-0.254D-07 0.787D-06 0.239D-07-0.115D-06 0.128D-04
 Coeff:      0.325D-04 0.173D-04-0.244D-03-0.107D-02-0.402D-02-0.299D-02
 Coeff:      0.399D-02 0.121D+00 0.262D+00 0.622D+00
 Gap=     0.075 Goal=   None    Shift=    0.000
 Gap=     0.075 Goal=   None    Shift=    0.000
 RMSDP=1.56D-08 MaxDP=8.00D-07 DE= 1.84D-11 OVMax= 3.53D-07

 Cycle  17  Pass 1  IDiag  1:
 RMSU=  4.47D-09    CP:  7.34D-01  2.41D-03  4.64D-01  1.23D-01  7.58D-01
                    CP:  1.08D+00  7.88D-01  9.83D-01  9.99D-01  1.21D+00
                    CP:  8.89D-01  1.23D+00  1.17D+00  1.30D+00  1.31D+00
                    CP:  1.03D+00
 E= -918.296251978730     Delta-E=       -0.000000000003 Rises=F Damp=F
 DIIS: error= 1.49D-08 at cycle  17 NSaved=  17.
 NSaved=17 IEnMin=15 EnMin= -918.296251978745     IErMin=16 ErrMin= 1.40D-08
 ErrMax= 1.49D-08  0.00D+00 EMaxC= 1.00D-01 BMatC= 1.85D-13 BMatP= 3.36D-13
 IDIUse=1 WtCom= 1.00D+00 WtEn= 0.00D+00
 Coeff-Com:  0.614D-07-0.421D-07 0.109D-06 0.104D-07-0.164D-06 0.524D-05
 Coeff-Com:  0.120D-04 0.258D-04-0.234D-04-0.173D-03-0.977D-03-0.178D-02
 Coeff-Com: -0.884D-02 0.176D-01 0.516D-01 0.448D+00 0.494D+00
 Coeff:      0.614D-07-0.421D-07 0.109D-06 0.104D-07-0.164D-06 0.524D-05
 Coeff:      0.120D-04 0.258D-04-0.234D-04-0.173D-03-0.977D-03-0.178D-02
 Coeff:     -0.884D-02 0.176D-01 0.516D-01 0.448D+00 0.494D+00
 Gap=     0.075 Goal=   None    Shift=    0.000
 Gap=     0.075 Goal=   None    Shift=    0.000
 RMSDP=7.44D-09 MaxDP=3.26D-07 DE=-3.41D-12 OVMax= 1.96D-07

 Error on total polarization charges =  0.02904
 SCF Done:  E(UB3LYP) =  -918.296251979     A.U. after   17 cycles
            NFock= 17  Conv=0.74D-08     -V/T= 2.0041
 <Sx>= 0.0000 <Sy>= 0.0000 <Sz>= 0.0000 <S**2>=-0.0000 S=-0.0000
 <L.S>=  0.00000000000    
 KE= 9.145378853291D+02 PE=-5.039416920098D+03 EE= 1.778935164795D+03
 Annihilation of the first spin contaminant:
 S**2 before annihilation    -0.0000,   after     0.0000
 Leave Link  502 at Sat Feb 10 17:48:45 2024, MaxMem=  4026531840 cpu:            3707.8 elap:             469.1
 (Enter /sysapps/ubuntu-applications/gaussian/Gaussian/AVX2/g16/l601.exe)
 Copying SCF densities to generalized density rwf, IOpCl= 1 IROHF=0.

 **********************************************************************

            Population analysis using the SCF density.

 **********************************************************************

 Alpha  occ. eigenvalues --  -19.12749 -19.12749 -19.01875 -19.01874 -10.20804
 Alpha  occ. eigenvalues --  -10.20804 -10.20099 -10.20099 -10.17228 -10.17227
 Alpha  occ. eigenvalues --  -10.15012 -10.15012 -10.14912 -10.14912 -10.14462
 Alpha  occ. eigenvalues --  -10.14461 -10.13602 -10.13601 -10.13467 -10.13466
 Alpha  occ. eigenvalues --   -1.03677  -1.03677  -0.94224  -0.93901  -0.82805
 Alpha  occ. eigenvalues --   -0.82168  -0.75285  -0.72869  -0.72779  -0.71623
 Alpha  occ. eigenvalues --   -0.68038  -0.67028  -0.62656  -0.61103  -0.57761
 Alpha  occ. eigenvalues --   -0.56750  -0.52923  -0.51856  -0.50478  -0.48470
 Alpha  occ. eigenvalues --   -0.46040  -0.45211  -0.44895  -0.44880  -0.44008
 Alpha  occ. eigenvalues --   -0.43051  -0.42121  -0.40539  -0.40511  -0.39663
 Alpha  occ. eigenvalues --   -0.38106  -0.37938  -0.37393  -0.36114  -0.35459
 Alpha  occ. eigenvalues --   -0.34444  -0.33267  -0.32893  -0.32628  -0.31972
 Alpha  occ. eigenvalues --   -0.30553  -0.29487  -0.26650  -0.26609  -0.23495
 Alpha  occ. eigenvalues --   -0.22592  -0.22169  -0.21126  -0.20201  -0.19420
 Alpha  occ. eigenvalues --   -0.10165
 Alpha virt. eigenvalues --   -0.02696  -0.00087   0.00195   0.00812   0.01421
 Alpha virt. eigenvalues --    0.01689   0.01903   0.02465   0.02688   0.03086
 Alpha virt. eigenvalues --    0.03769   0.04471   0.04679   0.05244   0.05751
 Alpha virt. eigenvalues --    0.05754   0.06113   0.06488   0.06900   0.07635
 Alpha virt. eigenvalues --    0.08208   0.08640   0.09037   0.09534   0.09841
 Alpha virt. eigenvalues --    0.10220   0.10373   0.10628   0.11364   0.11859
 Alpha virt. eigenvalues --    0.11921   0.12509   0.12542   0.12675   0.13222
 Alpha virt. eigenvalues --    0.13233   0.13515   0.13733   0.14122   0.14636
 Alpha virt. eigenvalues --    0.14656   0.14950   0.15033   0.15318   0.15510
 Alpha virt. eigenvalues --    0.15885   0.16278   0.16827   0.16968   0.17205
 Alpha virt. eigenvalues --    0.17624   0.17651   0.18493   0.18698   0.18955
 Alpha virt. eigenvalues --    0.19260   0.19489   0.19826   0.19851   0.20527
 Alpha virt. eigenvalues --    0.21306   0.21682   0.21935   0.21999   0.22185
 Alpha virt. eigenvalues --    0.24596   0.24801   0.25177   0.25664   0.25968
 Alpha virt. eigenvalues --    0.26225   0.26265   0.26359   0.26633   0.26710
 Alpha virt. eigenvalues --    0.27067   0.27395   0.27780   0.27843   0.28126
 Alpha virt. eigenvalues --    0.28389   0.29432   0.30028   0.30622   0.30963
 Alpha virt. eigenvalues --    0.30997   0.31827   0.32095   0.32224   0.32427
 Alpha virt. eigenvalues --    0.32773   0.33097   0.33470   0.33830   0.33831
 Alpha virt. eigenvalues --    0.34443   0.34595   0.34821   0.35503   0.36372
 Alpha virt. eigenvalues --    0.36529   0.36737   0.37504   0.37551   0.37941
 Alpha virt. eigenvalues --    0.38768   0.39552   0.40487   0.40914   0.41000
 Alpha virt. eigenvalues --    0.41502   0.42684   0.42771   0.43042   0.44340
 Alpha virt. eigenvalues --    0.46114   0.47260   0.47385   0.48150   0.48527
 Alpha virt. eigenvalues --    0.49191   0.49550   0.49839   0.52244   0.52370
 Alpha virt. eigenvalues --    0.54520   0.56620   0.57246   0.58814   0.58978
 Alpha virt. eigenvalues --    0.59786   0.59801   0.60186   0.60234   0.61227
 Alpha virt. eigenvalues --    0.61382   0.61694   0.62954   0.64078   0.65011
 Alpha virt. eigenvalues --    0.65343   0.65645   0.66529   0.66768   0.67325
 Alpha virt. eigenvalues --    0.67864   0.68306   0.68627   0.68705   0.68897
 Alpha virt. eigenvalues --    0.69429   0.69522   0.70230   0.70447   0.72403
 Alpha virt. eigenvalues --    0.73360   0.73417   0.74883   0.75360   0.76902
 Alpha virt. eigenvalues --    0.77401   0.77859   0.77981   0.78434   0.79097
 Alpha virt. eigenvalues --    0.79734   0.81336   0.81609   0.82051   0.84932
 Alpha virt. eigenvalues --    0.85490   0.87668   0.88755   0.89279   0.91080
 Alpha virt. eigenvalues --    0.91920   0.92353   0.92588   0.93020   0.94829
 Alpha virt. eigenvalues --    0.95415   0.95764   0.96666   0.97695   0.97955
 Alpha virt. eigenvalues --    1.00793   1.00871   1.02072   1.02199   1.02952
 Alpha virt. eigenvalues --    1.03425   1.03851   1.04459   1.04593   1.05285
 Alpha virt. eigenvalues --    1.06570   1.07303   1.07655   1.09166   1.09823
 Alpha virt. eigenvalues --    1.10602   1.11094   1.13096   1.13102   1.14811
 Alpha virt. eigenvalues --    1.16749   1.17132   1.18383   1.19270   1.20756
 Alpha virt. eigenvalues --    1.22454   1.22885   1.23909   1.25833   1.27110
 Alpha virt. eigenvalues --    1.27517   1.27541   1.29889   1.29964   1.30878
 Alpha virt. eigenvalues --    1.31049   1.32634   1.34155   1.34943   1.37209
 Alpha virt. eigenvalues --    1.37723   1.39726   1.39888   1.40775   1.43834
 Alpha virt. eigenvalues --    1.45737   1.45968   1.46701   1.51572   1.52022
 Alpha virt. eigenvalues --    1.53284   1.54122   1.54769   1.55077   1.55998
 Alpha virt. eigenvalues --    1.56423   1.56991   1.57540   1.58214   1.58721
 Alpha virt. eigenvalues --    1.59828   1.59844   1.60925   1.63583   1.63872
 Alpha virt. eigenvalues --    1.65728   1.67269   1.68745   1.69362   1.71914
 Alpha virt. eigenvalues --    1.71984   1.72819   1.73039   1.74181   1.74498
 Alpha virt. eigenvalues --    1.75173   1.76724   1.77029   1.77659   1.77804
 Alpha virt. eigenvalues --    1.79704   1.80893   1.81775   1.82186   1.83915
 Alpha virt. eigenvalues --    1.85415   1.87329   1.88622   1.91866   1.92929
 Alpha virt. eigenvalues --    1.93179   1.95811   1.96277   1.96296   1.97803
 Alpha virt. eigenvalues --    1.98683   1.99899   2.00364   2.01167   2.03889
 Alpha virt. eigenvalues --    2.04118   2.05181   2.06309   2.06786   2.07441
 Alpha virt. eigenvalues --    2.08856   2.09624   2.10711   2.11837   2.12310
 Alpha virt. eigenvalues --    2.13584   2.13792   2.14884   2.18824   2.20445
 Alpha virt. eigenvalues --    2.21908   2.22964   2.25598   2.26056   2.28760
 Alpha virt. eigenvalues --    2.30582   2.31041   2.33037   2.36462   2.37452
 Alpha virt. eigenvalues --    2.40754   2.42357   2.43917   2.43948   2.44799
 Alpha virt. eigenvalues --    2.49290   2.50764   2.52169   2.52427   2.52479
 Alpha virt. eigenvalues --    2.53326   2.54415   2.58339   2.59881   2.61144
 Alpha virt. eigenvalues --    2.62232   2.63880   2.66364   2.67714   2.68028
 Alpha virt. eigenvalues --    2.70088   2.70218   2.73623   2.74151   2.75133
 Alpha virt. eigenvalues --    2.76610   2.77998   2.79370   2.80542   2.80647
 Alpha virt. eigenvalues --    2.80983   2.81297   2.83044   2.84026   2.85642
 Alpha virt. eigenvalues --    2.86401   2.88975   2.89989   2.90527   2.90963
 Alpha virt. eigenvalues --    2.92255   2.92462   2.93503   2.95195   2.99557
 Alpha virt. eigenvalues --    2.99981   3.00517   3.03270   3.04292   3.04322
 Alpha virt. eigenvalues --    3.07316   3.07486   3.07660   3.13191   3.14190
 Alpha virt. eigenvalues --    3.14354   3.14438   3.18421   3.19996   3.24007
 Alpha virt. eigenvalues --    3.25494   3.29333   3.30245   3.30890   3.32340
 Alpha virt. eigenvalues --    3.33803   3.34312   3.37016   3.37172   3.39179
 Alpha virt. eigenvalues --    3.39396   3.41426   3.48416   3.48914   3.54328
 Alpha virt. eigenvalues --    3.55969   3.56581   3.57054   3.60268   3.61944
 Alpha virt. eigenvalues --    3.67331   3.69004   3.71692   3.79684   3.79692
 Alpha virt. eigenvalues --    3.81624   3.82170   3.82480   3.89336   3.91623
 Alpha virt. eigenvalues --    4.04120   4.04214   4.08748   4.12323   4.19144
 Alpha virt. eigenvalues --    4.19366   4.21874   4.24204   4.33251   4.37057
 Alpha virt. eigenvalues --    4.54150   4.85553   4.85971   4.87774   5.14236
 Alpha virt. eigenvalues --    5.15288   5.16893   5.17455   5.32409   5.34437
 Alpha virt. eigenvalues --    5.38810   5.39531   5.73826   5.75430   5.80776
 Alpha virt. eigenvalues --    5.87306  23.55511  23.71831  23.91797  23.92129
 Alpha virt. eigenvalues --   23.92133  23.93078  23.94979  23.99290  23.99570
 Alpha virt. eigenvalues --   24.01093  24.02003  24.06600  24.14452  24.14828
 Alpha virt. eigenvalues --   24.20686  24.20697  49.96292  49.96398  50.10877
 Alpha virt. eigenvalues --   50.16791
  Beta  occ. eigenvalues --  -19.12749 -19.12749 -19.01875 -19.01874 -10.20804
  Beta  occ. eigenvalues --  -10.20804 -10.20099 -10.20099 -10.17228 -10.17227
  Beta  occ. eigenvalues --  -10.15012 -10.15012 -10.14912 -10.14912 -10.14462
  Beta  occ. eigenvalues --  -10.14461 -10.13602 -10.13601 -10.13467 -10.13466
  Beta  occ. eigenvalues --   -1.03677  -1.03677  -0.94224  -0.93901  -0.82805
  Beta  occ. eigenvalues --   -0.82168  -0.75285  -0.72869  -0.72779  -0.71623
  Beta  occ. eigenvalues --   -0.68038  -0.67028  -0.62656  -0.61103  -0.57761
  Beta  occ. eigenvalues --   -0.56750  -0.52923  -0.51856  -0.50478  -0.48470
  Beta  occ. eigenvalues --   -0.46040  -0.45211  -0.44895  -0.44880  -0.44008
  Beta  occ. eigenvalues --   -0.43051  -0.42121  -0.40539  -0.40511  -0.39663
  Beta  occ. eigenvalues --   -0.38106  -0.37938  -0.37393  -0.36114  -0.35459
  Beta  occ. eigenvalues --   -0.34444  -0.33267  -0.32893  -0.32628  -0.31972
  Beta  occ. eigenvalues --   -0.30553  -0.29487  -0.26650  -0.26609  -0.23495
  Beta  occ. eigenvalues --   -0.22592  -0.22169  -0.21126  -0.20201  -0.19420
  Beta  occ. eigenvalues --   -0.10165
  Beta virt. eigenvalues --   -0.02696  -0.00087   0.00195   0.00812   0.01421
  Beta virt. eigenvalues --    0.01689   0.01903   0.02465   0.02688   0.03086
  Beta virt. eigenvalues --    0.03769   0.04471   0.04679   0.05244   0.05751
  Beta virt. eigenvalues --    0.05754   0.06113   0.06488   0.06900   0.07635
  Beta virt. eigenvalues --    0.08208   0.08640   0.09037   0.09534   0.09841
  Beta virt. eigenvalues --    0.10220   0.10373   0.10628   0.11364   0.11859
  Beta virt. eigenvalues --    0.11921   0.12509   0.12542   0.12675   0.13222
  Beta virt. eigenvalues --    0.13233   0.13515   0.13733   0.14122   0.14636
  Beta virt. eigenvalues --    0.14656   0.14950   0.15033   0.15318   0.15510
  Beta virt. eigenvalues --    0.15885   0.16278   0.16827   0.16968   0.17205
  Beta virt. eigenvalues --    0.17624   0.17651   0.18493   0.18698   0.18955
  Beta virt. eigenvalues --    0.19260   0.19489   0.19826   0.19851   0.20527
  Beta virt. eigenvalues --    0.21306   0.21682   0.21935   0.21999   0.22185
  Beta virt. eigenvalues --    0.24596   0.24801   0.25177   0.25664   0.25968
  Beta virt. eigenvalues --    0.26225   0.26265   0.26359   0.26633   0.26710
  Beta virt. eigenvalues --    0.27067   0.27395   0.27780   0.27843   0.28126
  Beta virt. eigenvalues --    0.28389   0.29432   0.30028   0.30622   0.30963
  Beta virt. eigenvalues --    0.30997   0.31827   0.32095   0.32224   0.32427
  Beta virt. eigenvalues --    0.32773   0.33097   0.33470   0.33830   0.33831
  Beta virt. eigenvalues --    0.34443   0.34595   0.34821   0.35503   0.36372
  Beta virt. eigenvalues --    0.36529   0.36737   0.37504   0.37551   0.37941
  Beta virt. eigenvalues --    0.38768   0.39552   0.40487   0.40914   0.41000
  Beta virt. eigenvalues --    0.41502   0.42684   0.42771   0.43042   0.44340
  Beta virt. eigenvalues --    0.46114   0.47260   0.47385   0.48150   0.48527
  Beta virt. eigenvalues --    0.49191   0.49550   0.49839   0.52244   0.52370
  Beta virt. eigenvalues --    0.54520   0.56620   0.57246   0.58814   0.58978
  Beta virt. eigenvalues --    0.59786   0.59801   0.60186   0.60234   0.61227
  Beta virt. eigenvalues --    0.61382   0.61694   0.62954   0.64078   0.65011
  Beta virt. eigenvalues --    0.65343   0.65645   0.66529   0.66768   0.67325
  Beta virt. eigenvalues --    0.67864   0.68306   0.68627   0.68705   0.68897
  Beta virt. eigenvalues --    0.69429   0.69522   0.70230   0.70447   0.72403
  Beta virt. eigenvalues --    0.73360   0.73417   0.74883   0.75360   0.76902
  Beta virt. eigenvalues --    0.77401   0.77859   0.77981   0.78434   0.79097
  Beta virt. eigenvalues --    0.79734   0.81336   0.81609   0.82051   0.84932
  Beta virt. eigenvalues --    0.85490   0.87668   0.88755   0.89279   0.91080
  Beta virt. eigenvalues --    0.91920   0.92353   0.92588   0.93020   0.94829
  Beta virt. eigenvalues --    0.95415   0.95764   0.96666   0.97695   0.97955
  Beta virt. eigenvalues --    1.00793   1.00871   1.02072   1.02199   1.02952
  Beta virt. eigenvalues --    1.03425   1.03851   1.04459   1.04593   1.05285
  Beta virt. eigenvalues --    1.06570   1.07303   1.07655   1.09166   1.09823
  Beta virt. eigenvalues --    1.10602   1.11094   1.13096   1.13102   1.14811
  Beta virt. eigenvalues --    1.16749   1.17132   1.18383   1.19270   1.20756
  Beta virt. eigenvalues --    1.22454   1.22885   1.23909   1.25833   1.27110
  Beta virt. eigenvalues --    1.27517   1.27541   1.29889   1.29964   1.30878
  Beta virt. eigenvalues --    1.31049   1.32634   1.34155   1.34943   1.37209
  Beta virt. eigenvalues --    1.37723   1.39726   1.39888   1.40775   1.43834
  Beta virt. eigenvalues --    1.45737   1.45968   1.46701   1.51572   1.52022
  Beta virt. eigenvalues --    1.53284   1.54122   1.54769   1.55077   1.55998
  Beta virt. eigenvalues --    1.56423   1.56991   1.57540   1.58214   1.58721
  Beta virt. eigenvalues --    1.59828   1.59844   1.60925   1.63583   1.63872
  Beta virt. eigenvalues --    1.65728   1.67269   1.68745   1.69362   1.71914
  Beta virt. eigenvalues --    1.71984   1.72819   1.73039   1.74181   1.74498
  Beta virt. eigenvalues --    1.75173   1.76724   1.77029   1.77659   1.77804
  Beta virt. eigenvalues --    1.79704   1.80893   1.81775   1.82186   1.83915
  Beta virt. eigenvalues --    1.85415   1.87329   1.88622   1.91866   1.92929
  Beta virt. eigenvalues --    1.93179   1.95811   1.96277   1.96296   1.97803
  Beta virt. eigenvalues --    1.98683   1.99899   2.00364   2.01167   2.03889
  Beta virt. eigenvalues --    2.04118   2.05181   2.06309   2.06786   2.07441
  Beta virt. eigenvalues --    2.08856   2.09624   2.10711   2.11837   2.12310
  Beta virt. eigenvalues --    2.13584   2.13792   2.14884   2.18824   2.20445
  Beta virt. eigenvalues --    2.21908   2.22964   2.25598   2.26056   2.28760
  Beta virt. eigenvalues --    2.30582   2.31041   2.33037   2.36462   2.37452
  Beta virt. eigenvalues --    2.40754   2.42357   2.43917   2.43948   2.44799
  Beta virt. eigenvalues --    2.49290   2.50764   2.52169   2.52427   2.52479
  Beta virt. eigenvalues --    2.53326   2.54415   2.58339   2.59881   2.61144
  Beta virt. eigenvalues --    2.62232   2.63880   2.66364   2.67714   2.68028
  Beta virt. eigenvalues --    2.70088   2.70218   2.73623   2.74151   2.75133
  Beta virt. eigenvalues --    2.76610   2.77998   2.79370   2.80542   2.80647
  Beta virt. eigenvalues --    2.80983   2.81297   2.83044   2.84026   2.85642
  Beta virt. eigenvalues --    2.86401   2.88975   2.89989   2.90527   2.90963
  Beta virt. eigenvalues --    2.92255   2.92462   2.93503   2.95195   2.99557
  Beta virt. eigenvalues --    2.99981   3.00517   3.03270   3.04292   3.04322
  Beta virt. eigenvalues --    3.07316   3.07486   3.07660   3.13191   3.14190
  Beta virt. eigenvalues --    3.14354   3.14438   3.18421   3.19996   3.24007
  Beta virt. eigenvalues --    3.25494   3.29333   3.30245   3.30890   3.32340
  Beta virt. eigenvalues --    3.33803   3.34312   3.37016   3.37172   3.39179
  Beta virt. eigenvalues --    3.39396   3.41426   3.48416   3.48914   3.54328
  Beta virt. eigenvalues --    3.55969   3.56581   3.57054   3.60268   3.61944
  Beta virt. eigenvalues --    3.67331   3.69004   3.71692   3.79684   3.79692
  Beta virt. eigenvalues --    3.81624   3.82170   3.82480   3.89336   3.91623
  Beta virt. eigenvalues --    4.04120   4.04214   4.08748   4.12323   4.19144
  Beta virt. eigenvalues --    4.19366   4.21874   4.24204   4.33251   4.37057
  Beta virt. eigenvalues --    4.54150   4.85553   4.85971   4.87774   5.14236
  Beta virt. eigenvalues --    5.15288   5.16893   5.17455   5.32409   5.34437
  Beta virt. eigenvalues --    5.38810   5.39531   5.73826   5.75430   5.80776
  Beta virt. eigenvalues --    5.87306  23.55511  23.71831  23.91797  23.92129
  Beta virt. eigenvalues --   23.92133  23.93078  23.94979  23.99290  23.99570
  Beta virt. eigenvalues --   24.01093  24.02003  24.06600  24.14452  24.14828
  Beta virt. eigenvalues --   24.20686  24.20697  49.96292  49.96398  50.10877
  Beta virt. eigenvalues --   50.16791
          Condensed to atoms (all electrons):
               1          2          3          4          5          6
     1  C    9.428037  -1.040223  -0.092927   1.655168  -0.691382   2.252824
     2  C   -1.040223  10.806407  -1.470079  -1.947819   0.014632  -3.048684
     3  C   -0.092927  -1.470079  11.165532   0.550221  -2.910674   0.203511
     4  C    1.655168  -1.947819   0.550221  14.885037  -0.308840   0.157424
     5  C   -0.691382   0.014632  -2.910674  -0.308840  12.923156   0.981116
     6  C    2.252824  -3.048684   0.203511   0.157424   0.981116  11.282961
     7  C   -2.127268   1.202084  -0.790445  -1.063011   1.071358  -1.305307
     8  C   -0.397779   0.416332  -0.250079  -1.022357  -2.384754  -1.062234
     9  C   -1.704679   0.390048   0.014555  -5.465979  -1.022155  -0.858779
    10  C   -0.994832   0.419784   0.446737   1.075535  -0.213591  -2.090761
    11  C   -0.340274  -0.053171  -0.120891  -0.858379  -1.062313  -0.296667
    12  C   -0.173277  -0.017016  -0.003286   0.014599  -0.250163  -0.120885
    13  C    0.026407  -0.001951  -0.016981   0.390176   0.416478  -0.053007
    14  C   -0.194458   0.026362  -0.173363  -1.705006  -0.398100  -0.340523
    15  O    0.151533   0.099319  -0.003666  -0.356169  -0.171712  -0.023583
    16  O   -0.032242   0.008756   0.148923  -0.193168  -0.483750   0.124405
    17  H    0.045422  -0.089699  -0.182397   0.099841   0.083753   0.466278
    18  H   -0.000899   0.000260  -0.005747  -0.009482  -0.011095  -0.014144
    19  H    0.335456  -0.119598   0.039630   0.007259   0.044694   0.037371
    20  H   -0.019325   0.001391  -0.002911  -0.066871   0.002768  -0.004979
    21  O   -0.000206  -0.000035  -0.000010   0.000273  -0.000676   0.000108
    22  O   -0.028108  -0.317131   0.606716   0.005187  -0.052761  -0.137884
    23  C    0.057727   0.019787  -0.193059  -0.050645   0.004742   0.018471
    24  C   -0.000648  -0.000545   0.000012   0.001199  -0.002552   0.000926
    25  H   -0.067100   0.630057  -0.264091  -0.024244   0.017658  -0.076008
    26  H    0.001191  -0.000009  -0.000249   0.008107   0.013038   0.002926
    27  H   -0.001359  -0.002451   0.045119  -0.000918  -0.003059  -0.006585
    28  H   -0.002700   0.008843  -0.000248  -0.000734  -0.002288  -0.015840
    29  H   -0.012513  -0.003125  -0.016056   0.010837   0.004278   0.015497
    30  H    0.000119   0.000001  -0.000004   0.000442   0.000283   0.000100
    31  H   -0.000053   0.000059   0.000051  -0.001361   0.000421  -0.000057
    32  H    0.000533   0.000065  -0.000042   0.004378   0.000498  -0.000099
               7          8          9         10         11         12
     1  C   -2.127268  -0.397779  -1.704679  -0.994832  -0.340274  -0.173277
     2  C    1.202084   0.416332   0.390048   0.419784  -0.053171  -0.017016
     3  C   -0.790445  -0.250079   0.014555   0.446737  -0.120891  -0.003286
     4  C   -1.063011  -1.022357  -5.465979   1.075535  -0.858379   0.014599
     5  C    1.071358  -2.384754  -1.022155  -0.213591  -1.062313  -0.250163
     6  C   -1.305307  -1.062234  -0.858779  -2.090761  -0.296667  -0.120885
     7  C    9.116937  -0.214028   1.076059   1.117297  -2.090763   0.446603
     8  C   -0.214028  12.921738  -0.307866   1.071301   0.979875  -2.910073
     9  C    1.076059  -0.307866  14.884764  -1.062966   0.156271   0.549743
    10  C    1.117297   1.071301  -1.062966   9.118796  -1.305869  -0.791464
    11  C   -2.090763   0.979875   0.156271  -1.305869  11.282817   0.205758
    12  C    0.446603  -2.910073   0.549743  -0.791464   0.205758  11.166209
    13  C    0.419743   0.015883  -1.947092   1.202564  -3.048319  -1.473074
    14  C   -0.994815  -0.691189   1.654696  -2.128110   2.252937  -0.091963
    15  O    0.683885  -0.483728  -0.193126  -0.011624   0.124438   0.148932
    16  O   -0.011621  -0.171678  -0.356152   0.683913  -0.023583  -0.003660
    17  H   -0.017296   0.002760  -0.066903  -0.008850  -0.004982  -0.002914
    18  H   -0.003217   0.044690   0.007267   0.025212   0.037380   0.039625
    19  H    0.025196  -0.011100  -0.009477  -0.003215  -0.014138  -0.005743
    20  H   -0.008800   0.083780   0.099803  -0.017287   0.466211  -0.182438
    21  O    0.019661  -0.052692   0.005172  -0.001615  -0.137833   0.606678
    22  O   -0.001612  -0.000676   0.000271   0.019659   0.000108  -0.000010
    23  C    0.001992  -0.002548   0.001207  -0.013644   0.000928   0.000012
    24  C   -0.013662   0.004680  -0.050637   0.001990   0.018402  -0.192806
    25  H    0.049667   0.013034   0.008104   0.002891   0.002923  -0.000249
    26  H    0.002892   0.017654  -0.024232   0.049692  -0.076009  -0.264136
    27  H    0.001007   0.000283   0.000442   0.000584   0.000100  -0.000004
    28  H    0.002359   0.000501   0.004378   0.004554  -0.000099  -0.000042
    29  H   -0.001249   0.000418  -0.001363   0.003348  -0.000057   0.000051
    30  H    0.000582  -0.003057  -0.000917   0.001008  -0.006567   0.045103
    31  H    0.003356   0.004332   0.010842  -0.001240   0.015582  -0.016273
    32  H    0.004548  -0.002363  -0.000733   0.002355  -0.015926  -0.000032
              13         14         15         16         17         18
     1  C    0.026407  -0.194458   0.151533  -0.032242   0.045422  -0.000899
     2  C   -0.001951   0.026362   0.099319   0.008756  -0.089699   0.000260
     3  C   -0.016981  -0.173363  -0.003666   0.148923  -0.182397  -0.005747
     4  C    0.390176  -1.705006  -0.356169  -0.193168   0.099841  -0.009482
[...]
 007667,-0.00002441,0.00001919,-0.00001007,-0.00017388,-0.00000779,0.00
 002718,0.00050721,0.00002928,0.00003726,0.00001960,-0.00012812,0.00000
 084,0.00001128,0.00000001,-0.00004916,-0.00004657,0.00002048,-0.000008
 95,-0.00001541,-0.00000063,-0.00018070,-0.00003762,0.00002092,-0.03003
 460,-0.01223511,0.00015975,-0.21165133,-0.11225518,0.05686032,0.000042
 49,-0.00002655,0.00003717,0.00008740,-0.00011385,-0.00005844,-0.000017
 29,0.00000788,0.00000282,0.24110171,0.00020318,0.00019524,-0.00017300,
 -0.00004791,-0.00005961,-0.00021738,0.00136646,0.00008508,0.00080216,-
 0.00020552,0.00013922,0.00007630,-0.00008969,-0.00022148,-0.00011554,0
 .00031436,0.00015821,-0.00007775,0.00002356,0.00017590,0.00004436,0.00
 003315,-0.00005561,-0.00000832,0.00000280,0.00005292,0.00002610,-0.000
 00217,-0.00004319,-0.00000352,-0.00001804,0.00001219,-0.00000622,0.000
 02381,-0.00000110,-0.00000446,-0.00002712,0.00000951,0.00000482,0.0000
 2436,-0.00001180,-0.00000899,-0.00001409,-0.00011696,-0.00000490,-0.00
 000224,0.00005845,0.,-0.00000022,-0.00000485,0.00004513,-0.00000083,0.
 00000355,0.00000071,0.00001055,-0.00000116,-0.00003403,-0.00000031,-0.
 00000326,-0.00000046,-0.00003450,-0.00000796,0.00000175,0.01011514,0.0
 0647913,-0.00154167,-0.11918653,-0.13032076,0.03858269,0.00000826,-0.0
 0000375,0.00000923,-0.00002540,0.00027817,0.00027657,-0.00000295,0.000
 00132,0.00000147,0.12434953,0.13260234,0.00010518,-0.00016633,0.000091
 22,-0.00042914,0.00000360,0.00017527,-0.00182651,0.00155114,-0.0016473
 6,-0.00001017,0.00011092,-0.00000453,-0.00010039,0.00016360,0.00023179
 ,-0.00093856,-0.00055568,-0.00003474,-0.00005994,0.00009646,-0.0000038
 3,0.00002815,-0.00010231,-0.00000584,0.00003955,0.00011945,-0.00003304
 ,-0.00011687,-0.00025247,0.00004035,-0.00001235,0.00001746,0.00000368,
 0.00002719,-0.00002056,-0.00001110,-0.00001115,0.00002816,0.00000878,-
 0.00001841,-0.00001689,0.00000154,-0.00001675,-0.00009086,-0.00000144,
 -0.00000158,0.00012982,0.00001824,0.00002823,0.00003151,-0.00012497,0.
 00000037,0.00000442,-0.00000038,-0.00004248,-0.00002598,-0.00001996,-0
 .00000262,-0.00000485,-0.00000059,-0.00005317,-0.00001140,0.00000510,-
 0.02734663,-0.01303368,0.00300027,0.06594816,0.04241423,-0.07041027,0.
 00001209,-0.00000727,0.00001148,0.00011623,-0.00003835,-0.00003763,-0.
 00000612,0.00000188,0.00000155,-0.05536375,-0.04422663,0.07256263,0.00
 014150,-0.00015652,0.00000488,-0.00048837,-0.00015412,0.00047948,0.005
 54909,0.00020158,-0.00241718,-0.00005101,-0.00000533,-0.00000535,0.000
 04461,-0.00005074,0.00014360,0.00007477,0.00083709,0.00057491,0.000106
 65,-0.00007340,-0.00000509,-0.00007611,0.00007425,0.00000582,-0.000049
 54,-0.00006514,-0.00003555,0.00009352,0.00008578,-0.00004451,0.0000372
 9,-0.00000650,-0.00000072,-0.00002854,0.00003576,0.00000990,-0.0000004
 0,-0.00003338,0.00000116,0.00001954,0.00000491,0.00000621,-0.00001826,
 0.00006005,-0.00000531,-0.00000580,-0.00006456,0.00003211,-0.00004571,
 0.00003478,-0.00020036,0.00000025,-0.00000207,-0.00000089,-0.00003862,
 -0.00001329,-0.00000065,0.00000182,0.00000193,-0.00000046,0.00002294,0
 .00000330,-0.00000316,-0.00158533,-0.00394713,-0.03342192,-0.07702079,
 0.01943995,0.07905492,-0.00000559,0.00000248,-0.00000513,0.00007841,0.
 00000285,-0.00005365,0.00000212,-0.00000103,-0.00000189,-0.00570497,0.
 00770139,0.02205734,0.07926178,-0.00010316,0.00007037,0.00001134,0.000
 36780,-0.00017279,-0.00007307,-0.00108967,-0.00033657,-0.00024640,-0.0
 0002094,-0.00011395,-0.00002057,0.00015667,0.00005537,0.00000350,-0.00
 028634,-0.00017193,-0.00009700,0.00000567,0.00004298,0.00000515,0.0000
 4109,0.00001715,0.00000336,-0.00003560,-0.00000964,-0.00000554,-0.0000
 2400,0.00013475,0.00004392,-0.00002287,-0.00000819,0.00000169,0.000001
 93,-0.00000948,0.00000152,-0.00000288,0.00000801,-0.00000108,0.0000075
 4,0.00000013,-0.00000261,0.00000635,-0.00002043,0.00000220,-0.00000855
 ,-0.00008185,-0.00000906,0.00001735,-0.00003144,0.00003466,-0.00000077
 ,-0.00000060,-0.00000064,0.00000715,0.00000410,-0.00000773,0.00000124,
 0.00000167,-0.00000069,0.00002446,0.00000529,-0.00000159,-0.00068590,0
 .00541428,0.01132910,0.02012033,-0.06853438,-0.05950822,-0.00000615,0.
 00000460,-0.00000502,-0.00002835,0.00011273,0.00004658,0.00000219,-0.0
 0000115,-0.00000033,-0.00509886,0.00549765,0.01630981,-0.02406988,0.06
 483588,-0.00003420,-0.00013928,-0.00001354,-0.00059331,-0.00027711,0.0
 0007767,0.00506618,0.00244424,0.00093722,0.00007879,0.00024884,-0.0000
 2077,-0.00021413,-0.00009314,-0.00024544,-0.00102237,-0.00027913,0.000
 31598,-0.00035186,0.00026364,0.00008667,0.00010708,-0.00040477,-0.0000
 2727,0.00035869,0.00033772,-0.00000390,-0.00038482,-0.00072375,-0.0000
 0302,-0.00005218,0.00007218,-0.00000010,0.00010231,-0.00010470,-0.0000
 4700,0.00000590,0.00011251,0.00001577,-0.00010294,-0.00001623,0.000017
 17,0.00000277,-0.00022875,-0.00001343,0.00005686,0.00051924,0.00001636
 ,0.00006519,-0.00004464,0.00005207,-0.00000120,0.00001260,0.00000093,-
 0.00004797,-0.00004750,0.00000490,-0.00000908,-0.00001619,-0.00000103,
 -0.00019368,-0.00003850,0.00002535,-0.01153652,-0.00005170,-0.02924713
 ,0.07472980,-0.05911117,-0.25254857,0.00004450,-0.00002821,0.00003899,
 0.00002214,0.00002716,0.00004409,-0.00001707,0.00000938,0.00000373,0.0
 0328222,-0.00233058,-0.00521207,-0.07174910,0.06095715,0.28616893,-0.0
 0002292,-0.00029742,0.00001516,-0.00020280,-0.00014306,0.00019207,0.00
 371648,0.00395481,0.00017992,0.00018168,-0.00001833,-0.00000210,0.0000
 5516,0.00021541,-0.00005738,-0.00105434,-0.00057662,0.00039061,-0.0000
 5969,-0.00006727,0.00000235,0.00001398,-0.00003738,-0.00001294,0.00004
 106,0.00004794,0.00000716,-0.00011104,-0.00008916,-0.00005093,-0.00000
 156,0.00000114,0.00000515,0.00000779,-0.00001792,-0.00000625,0.0000106
 4,0.00001794,0.00000188,-0.00002848,-0.00000512,0.00001422,0.00001060,
 0.00000819,0.00000341,-0.00000964,0.00003040,0.00000314,0.00010103,-0.
 00013338,0.00001466,0.00000123,0.00000039,-0.00000014,-0.00003216,0.00
 000452,-0.00008063,-0.00000186,-0.00000123,0.00000042,-0.00001415,-0.0
 0000278,0.00000251,-0.01525108,0.02604214,-0.00995429,-0.05834219,0.04
 290003,0.00614187,0.00000273,-0.00000249,0.00000180,-0.00044401,-0.000
 84488,-0.00065499,-0.00000228,0.00000077,-0.00000191,0.00740542,-0.024
 51663,-0.00200209,-0.00031668,0.01072210,0.00240213,0.06434820,0.00036
 999,0.00049815,-0.00031521,0.00040886,-0.00029248,-0.00112769,-0.00405
 225,-0.00035064,0.00096371,-0.00031707,-0.00001350,0.00021935,-0.00010
 146,-0.00009803,-0.00002438,0.00073679,0.00010547,0.00006913,0.0002869
 1,-0.00000848,0.00001757,-0.00009301,0.00020139,-0.00000406,-0.0002062
 5,-0.00016288,0.00003255,0.00026006,0.00027413,-0.00005613,0.00004536,
 -0.00002694,-0.00000853,-0.00005283,0.00008266,0.00002284,-0.00002872,
 -0.00007797,-0.00000680,0.00008581,0.00000176,-0.00000844,-0.00001835,
 0.00004461,0.00000666,-0.00002233,-0.00018149,-0.00000270,-0.00005377,
 0.00006612,0.00000999,-0.00000012,-0.00000387,-0.00000131,0.00005701,0
 .00003607,-0.00010570,0.00000571,0.00000607,0.00000016,0.00007550,0.00
 001337,-0.00000862,0.01107132,-0.00334761,0.00803016,0.04687319,-0.291
 52126,-0.01852307,-0.00001692,0.00001123,-0.00001496,-0.00112601,0.000
 02861,-0.00003449,0.00000624,-0.00000390,-0.00000219,0.00283561,-0.014
 89771,-0.00243061,0.00015761,-0.00671165,-0.00107490,-0.05719253,0.316
 33154,-0.00005573,-0.00023787,-0.00016705,-0.00011787,0.00014211,-0.00
 008795,0.00291500,0.00139655,0.00030190,0.00013189,0.00000200,0.000049
 69,0.00008032,0.00011249,-0.00006189,-0.00083433,-0.00045068,0.0002078
 0,-0.00014029,0.00008522,0.00004704,0.00008809,-0.00013639,-0.00002512
 ,0.00009159,0.00014207,-0.00000361,-0.00020203,-0.00016437,-0.00001433
 ,-0.00004274,0.00001810,0.00000329,0.00004433,-0.00005302,-0.00001601,
 -0.00000087,0.00005532,0.00000695,-0.00003387,-0.00001309,0.00001050,-
 0.00000272,-0.00008925,-0.00000788,0.00000096,0.00010992,0.00000615,0.
 00008605,-0.00008477,0.00000978,-0.00000026,0.00000443,0.00000078,-0.0
 0004497,-0.00002065,-0.00000862,-0.00000269,-0.00000465,-0.00000036,-0
 .00005293,-0.00000933,0.00000546,-0.01454390,0.02694936,-0.00416957,0.
 00538102,-0.02177824,-0.05122123,0.00001183,-0.00000666,0.00001195,-0.
 00049726,-0.00045363,-0.00008459,-0.00000552,0.00000262,0.00000002,-0.
 00127381,0.00888705,0.00140277,0.00557743,-0.02877363,-0.00039781,0.00
 344685,0.01436766,0.05420905,-0.00007667,-0.00002441,0.00001919,-0.000
 00346,0.00007817,0.00001836,0.00008729,-0.00007116,-0.00003746,0.00024
 809,0.00029275,-0.00008239,0.00006545,-0.00033398,-0.00001370,-0.00003
 260,0.00006381,-0.00000006,-0.00021756,-0.00078437,0.00005282,-0.00046
 052,-0.00007220,0.00039883,0.00017059,0.00036093,-0.00006536,-0.000323
 30,0.00017098,0.00003829,-0.00036912,-0.00078758,-0.00042475,0.0003143
 7,0.00318537,-0.00377490,-0.00036584,0.00040449,0.00017036,-0.00006863
 ,-0.00021629,0.00014336,0.00002718,0.00050722,0.00002927,-0.00001007,-
 0.00017388,-0.00000780,-0.00000895,-0.00001541,-0.00000063,-0.00004917
 ,-0.00004657,0.00002048,0.00000084,0.00001128,0.00000001,0.00003726,0.
 00001960,-0.00012812,-0.03003483,-0.01223507,0.00016030,-0.00018070,-0
 .00003762,0.00002092,0.00004249,-0.00002655,0.00003717,-0.21165223,-0.
 11225260,0.05686477,-0.00001729,0.00000788,0.00000282,0.00008739,-0.00
 011384,-0.00005844,-0.00001384,-0.00000260,-0.00000411,0.00000162,0.00
 000198,-0.00001490,-0.00000120,0.00000606,-0.00000398,0.24110287,0.000
 02436,-0.00001180,-0.00000899,-0.00002712,0.00000951,0.00000482,0.0000
 2381,-0.00000110,-0.00000446,0.00000280,0.00005292,0.00002610,0.000033
 15,-0.00005560,-0.00000832,-0.00001804,0.00001219,-0.00000622,-0.00000
 216,-0.00004320,-0.00000352,-0.00008970,-0.00022148,-0.00011553,-0.000
 20552,0.00013922,0.00007631,0.00002356,0.00017590,0.00004436,0.0003143
 6,0.00015820,-0.00007777,0.00136640,0.00008510,0.00080212,-0.00004793,
 -0.00005960,-0.00021737,0.00020319,0.00019523,-0.00017300,-0.00000224,
 0.00005845,0.,-0.00001409,-0.00011696,-0.00000491,-0.00000031,-0.00000
 326,-0.00000046,0.00001055,-0.00000116,-0.00003403,-0.00000083,0.00000
 355,0.00000071,-0.00000022,-0.00000485,0.00004512,0.01011486,0.0064788
 2,-0.00154184,-0.00003450,-0.00000796,0.00000175,0.00000826,-0.0000037
 5,0.00000923,-0.11918382,-0.13031673,0.03858482,-0.00000295,0.00000132
 ,0.00000147,-0.00002539,0.00027816,0.00027657,-0.00000260,-0.00000084,
 -0.00000091,0.00000039,0.00000029,-0.00000303,-0.00000021,0.00000088,-
 0.00000094,0.12434678,0.13259793,-0.00001841,-0.00001689,0.00000154,-0
 .00001115,0.00002816,0.00000878,0.00002719,-0.00002056,-0.00001110,0.0
 0003955,0.00011945,-0.00003304,0.00002815,-0.00010231,-0.00000584,-0.0
 0001235,0.00001746,0.00000368,-0.00011687,-0.00025246,0.00004035,-0.00
 010039,0.00016360,0.00023180,-0.00001018,0.00011092,-0.00000453,-0.000
 05993,0.00009646,-0.00000383,-0.00093857,-0.00055569,-0.00003473,-0.00
 182660,0.00155115,-0.00164729,-0.00042913,0.00000359,0.00017526,0.0001
 0519,-0.00016633,0.00009122,-0.00000158,0.00012981,0.00001824,-0.00001
 675,-0.00009086,-0.00000145,-0.00000262,-0.00000485,-0.00000059,-0.000
 04248,-0.00002598,-0.00001996,0.00000037,0.00000442,-0.00000038,0.0000
 2823,0.00003150,-0.00012497,-0.02734652,-0.01303345,0.00300085,-0.0000
 5317,-0.00001140,0.00000510,0.00001209,-0.00000727,0.00001148,0.065952
 79,0.04241623,-0.07041342,-0.00000612,0.00000188,0.00000155,0.00011623
 ,-0.00003835,-0.00003763,-0.00000411,-0.00000091,-0.00000125,0.0000005
 7,0.00000063,-0.00000451,-0.00000027,0.00000168,-0.00000117,-0.0553688
 3,-0.04422881,0.07256586,-0.00002848,-0.00000512,0.00001422,0.00001064
 ,0.00001794,0.00000188,0.00000779,-0.00001792,-0.00000625,0.00004106,0
 .00004794,0.00000716,0.00001398,-0.00003738,-0.00001294,-0.00000156,0.
 00000114,0.00000515,-0.00011104,-0.00008915,-0.00005094,0.00005516,0.0
 0021541,-0.00005738,0.00018168,-0.00001834,-0.00000210,-0.00005969,-0.
 00006728,0.00000235,-0.00105433,-0.00057661,0.00039063,0.00371650,0.00
 395484,0.00017986,-0.00020277,-0.00014307,0.00019207,-0.00002294,-0.00
 029741,0.00001516,-0.00000964,0.00003039,0.00000314,0.00001060,0.00000
 820,0.00000341,-0.00000186,-0.00000123,0.00000042,-0.00003216,0.000004
 53,-0.00008064,0.00000123,0.00000039,-0.00000014,0.00010103,-0.0001333
 8,0.00001466,-0.01525104,0.02604237,-0.00995464,-0.00001415,-0.0000027
 7,0.00000251,0.00000273,-0.00000249,0.00000180,-0.05834114,0.04289748,
 0.00614086,-0.00000228,0.00000077,-0.00000191,-0.00044399,-0.00084486,
 -0.00065500,-0.00000120,-0.00000021,-0.00000027,0.00000010,0.00000019,
 -0.00000111,-0.00000003,0.00000043,-0.00000027,0.00740518,-0.02451678,
 -0.00200168,0.06434708,0.00008581,0.00000176,-0.00000844,-0.00002872,-
 0.00007797,-0.00000680,-0.00005283,0.00008266,0.00002284,-0.00020625,-
 0.00016288,0.00003255,-0.00009301,0.00020139,-0.00000406,0.00004536,-0
 .00002694,-0.00000853,0.00026006,0.00027412,-0.00005614,-0.00010147,-0
 .00009803,-0.00002438,-0.00031707,-0.00001349,0.00021936,0.00028691,-0
 .00000848,0.00001757,0.00073679,0.00010545,0.00006913,-0.00405223,-0.0
 0035056,0.00096373,0.00040884,-0.00029246,-0.00112770,0.00037000,0.000
 49814,-0.00031521,-0.00002233,-0.00018148,-0.00000270,-0.00001835,0.00
 004460,0.00000666,0.00000571,0.00000607,0.00000016,0.00005701,0.000036
 07,-0.00010571,-0.00000012,-0.00000387,-0.00000131,-0.00005377,0.00006
 612,0.00000999,0.01107118,-0.00334736,0.00803004,0.00007550,0.00001337
 ,-0.00000862,-0.00001692,0.00001123,-0.00001496,0.04687073,-0.29152315
 ,-0.01851859,0.00000624,-0.00000390,-0.00000219,-0.00112599,0.00002859
 ,-0.00003449,0.00000606,0.00000088,0.00000168,-0.00000084,-0.00000084,
 0.00000639,0.00000043,-0.00000280,0.00000192,0.00283534,-0.01489730,-0
 .00243027,-0.05718975,0.31633343,-0.00003387,-0.00001309,0.00001050,-0
 .00000087,0.00005532,0.00000695,0.00004433,-0.00005302,-0.00001600,0.0
 0009159,0.00014207,-0.00000361,0.00008809,-0.00013639,-0.00002511,-0.0
 0004274,0.00001810,0.00000329,-0.00020203,-0.00016437,-0.00001432,0.00
 008032,0.00011249,-0.00006188,0.00013190,0.00000199,0.00004968,-0.0001
 4030,0.00008521,0.00004704,-0.00083432,-0.00045068,0.00020782,0.002915
 04,0.00139649,0.00030184,-0.00011788,0.00014216,-0.00008792,-0.0000557
 4,-0.00023789,-0.00016704,0.00000096,0.00010992,0.00000614,-0.00000272
 ,-0.00008924,-0.00000789,-0.00000269,-0.00000465,-0.00000036,-0.000044
 98,-0.00002065,-0.00000862,-0.00000026,0.00000443,0.00000078,0.0000860
 5,-0.00008476,0.00000978,-0.01454370,0.02694917,-0.00417000,-0.0000529
 3,-0.00000933,0.00000546,0.00001183,-0.00000666,0.00001195,0.00537987,
 -0.02177380,-0.05122051,-0.00000552,0.00000262,0.00000002,-0.00049724,
 -0.00045365,-0.00008461,-0.00000398,-0.00000094,-0.00000117,0.00000069
 ,0.00000037,-0.00000449,-0.00000027,0.00000192,-0.00000148,-0.00127387
 ,0.00888769,0.00140266,0.00344809,0.01436287,0.05420838,0.00001954,0.0
 0000491,0.00000621,-0.00000040,-0.00003338,0.00000116,-0.00002853,0.00
 003576,0.00000990,-0.00004954,-0.00006514,-0.00003555,-0.00007612,0.00
 007424,0.00000582,0.00003729,-0.00000650,-0.00000072,0.00009352,0.0000
 8576,-0.00004451,0.00004459,-0.00005076,0.00014360,-0.00005102,-0.0000
 0532,-0.00000534,0.00010664,-0.00007339,-0.00000509,0.00007479,0.00083
 709,0.00057491,0.00554912,0.00020159,-0.00241722,-0.00048839,-0.000154
 15,0.00047951,0.00014151,-0.00015652,0.00000487,-0.00000580,-0.0000645
 4,0.00003212,-0.00001826,0.00006005,-0.00000531,0.00000182,0.00000193,
 -0.00000046,-0.00003862,-0.00001330,-0.00000066,0.00000025,-0.00000207
 ,-0.00000089,-0.00004571,0.00003478,-0.00020036,-0.00158590,-0.0039477
 9,-0.03342209,0.00002294,0.00000330,-0.00000316,-0.00000559,0.00000247
 ,-0.00000513,-0.07701848,0.01944091,0.07905170,0.00000212,-0.00000103,
 -0.00000189,0.00007841,0.00000285,-0.00005365,0.00000162,0.00000039,0.
 00000057,-0.00000029,-0.00000013,0.00000188,0.00000010,-0.00000084,0.0
 0000069,-0.00570466,0.00770193,0.02205737,-0.00031648,0.00015765,0.005
 57713,0.07925950,0.00000754,0.00000013,-0.00000261,-0.00000288,0.00000
 801,-0.00000108,0.00000193,-0.00000948,0.00000152,-0.00003559,-0.00000
 964,-0.00000554,0.00004109,0.00001715,0.00000336,-0.00002287,-0.000008
 19,0.00000170,-0.00002400,0.00013474,0.00004391,0.00015666,0.00005536,
 0.00000349,-0.00002095,-0.00011395,-0.00002056,0.00000567,0.00004298,0
 .00000516,-0.00028635,-0.00017194,-0.00009697,-0.00108960,-0.00033654,
 -0.00024633,0.00036780,-0.00017281,-0.00007310,-0.00010315,0.00007037,
 0.00001134,-0.00000855,-0.00008184,-0.00000905,0.00000635,-0.00002043,
 0.00000220,0.00000124,0.00000167,-0.00000069,0.00000715,0.00000410,-0.
 00000774,-0.00000077,-0.00000060,-0.00000064,0.00001736,-0.00003145,0.
 00003466,-0.00068590,0.00541459,0.01132873,0.00002445,0.00000529,-0.00
 000159,-0.00000615,0.00000460,-0.00000502,0.02012119,-0.06853725,-0.05
 951307,0.00000219,-0.00000115,-0.00000033,-0.00002837,0.00011273,0.000
 04658,0.00000198,0.00000029,0.00000063,-0.00000013,-0.00000034,0.00000
 221,0.00000019,-0.00000084,0.00000037,-0.00509851,0.00549791,0.0163094
 2,0.01072173,-0.00671239,-0.02877369,-0.02407076,0.06483890,-0.0001029
 4,-0.00001623,0.00001717,0.00000590,0.00011251,0.00001577,0.00010231,-
 0.00010470,-0.00004699,0.00035868,0.00033772,-0.00000390,0.00010708,-0
 .00040477,-0.00002726,-0.00005217,0.00007218,-0.00000010,-0.00038481,-
 0.00072376,-0.00000299,-0.00021415,-0.00009315,-0.00024544,0.00007879,
 0.00024885,-0.00002077,-0.00035186,0.00026363,0.00008667,-0.00102234,-
 0.00027914,0.00031598,0.00506614,0.00244425,0.00093715,-0.00059333,-0.
 00027711,0.00007767,-0.00003418,-0.00013928,-0.00001355,0.00005686,0.0
 0051925,0.00001634,0.00000277,-0.00022875,-0.00001344,-0.00000908,-0.0
 0001619,-0.00000103,-0.00004797,-0.00004750,0.00000490,-0.00000120,0.0
 0001260,0.00000093,0.00006519,-0.00004464,0.00005207,-0.01153696,-0.00
 005222,-0.02924681,-0.00019368,-0.00003850,0.00002534,0.00004450,-0.00
 002821,0.00003899,0.07472670,-0.05911598,-0.25254776,-0.00001707,0.000
 00938,0.00000373,0.00002214,0.00002716,0.00004409,-0.00001490,-0.00000
 303,-0.00000451,0.00000188,0.00000221,-0.00001574,-0.00000111,0.000006
 39,-0.00000449,0.00328233,-0.00233094,-0.00521269,0.00240190,-0.001074
 80,-0.00039729,-0.07174541,0.06096275,0.28616796\\0.00000593,0.0000024
 1,0.00001095,0.00000154,0.00000952,0.00000791,0.00000574,0.00000430,-0
 .00000385,-0.00000201,0.00000100,0.00000508,0.00000265,0.00000394,-0.0
 0000516,-0.00000601,0.00000624,-0.00000660,0.00000771,-0.00000620,0.00
 001232,-0.00000301,-0.00000384,0.00000299,0.00000175,-0.00000093,-0.00
 000704,-0.00000662,0.00000590,-0.00000543,0.00000604,-0.00000626,0.000
 00653,-0.00000571,-0.00000434,0.00000390,-0.00000152,-0.00000954,-0.00
 000775,-0.00000600,-0.00000235,-0.00001124,0.00000747,0.00000199,0.000
 01637,-0.00000792,-0.00000185,-0.00001908,-0.00000734,0.00000605,-0.00
 001344,-0.00000730,-0.00000287,-0.00001837,0.00000731,0.00000286,0.000
 01838,0.00000735,-0.00000606,0.00001345,0.00001153,-0.00000977,0.00000
 668,-0.00001160,0.00000982,-0.00000659,0.00000581,0.00001529,0.0000046
 2,-0.00000576,-0.00001531,-0.00000468,0.00000515,0.00000767,0.00001275
 ,-0.00000516,-0.00000769,-0.00001272,-0.00000453,0.00001885,-0.0000060
 5,-0.00000403,0.00002499,-0.00000588,-0.00000038,0.00001991,0.00000392
 ,0.00000454,-0.00001887,0.00000604,0.00000035,-0.00001989,-0.00000389,
 0.00000404,-0.00002497,0.00000588\\\@


      THE ONE-EYED VIEW OF OUR UNIVERSE SAYS YOU MUST NOT LOOK
      FAR AFIELD FOR PROBLEMS.  SUCH PROBLEMS MAY NEVER ARRIVE. 
      INSTEAD, TEND TO THE WOLF WITHIN YOUR FENCES.
      THE PACKS RANGING OUTSIDE MAY NOT EVEN EXIST.

                              -- THE AZHAR BOOK SHAMRA I:4
                                 CHILDREN OF DUNE, BY FRANK HERBERT
 Job cpu time:       0 days 10 hours 19 minutes  0.3 seconds.
 Elapsed time:       0 days  1 hours 18 minutes 54.8 seconds.
 File lengths (MBytes):  RWF=   1771 Int=      0 D2E=      0 Chk=     44 Scr=      1
 Normal termination of Gaussian 16 at Sat Feb 10 21:11:16 2024.
