 Entering Gaussian System, Link 0=g16
 Input=107-an.com
 Output=107-an.log
 Initial command:
 /sysapps/ubuntu-applications/gaussian/Gaussian/AVX2/g16/l1.exe "/scratch/selhajj1/4295463/Gau-532853.inp" -scrdir="/scratch/selhajj1/4295463/"
 Entering Link 1 = /sysapps/ubuntu-applications/gaussian/Gaussian/AVX2/g16/l1.exe PID=    532855.
  
 Copyright (c) 1988,1990,1992,1993,1995,1998,2003,2009,2016,
            Gaussian, Inc.  All Rights Reserved.
  
 This is part of the Gaussian(R) 16 program.  It is based on
 the Gaussian(R) 09 system (copyright 2009, Gaussian, Inc.),
 the Gaussian(R) 03 system (copyright 2003, Gaussian, Inc.),
 the Gaussian(R) 98 system (copyright 1998, Gaussian, Inc.),
 the Gaussian(R) 94 system (copyright 1995, Gaussian, Inc.),
 the Gaussian 92(TM) system (copyright 1992, Gaussian, Inc.),
 the Gaussian 90(TM) system (copyright 1990, Gaussian, Inc.),
 the Gaussian 88(TM) system (copyright 1988, Gaussian, Inc.),
 the Gaussian 86(TM) system (copyright 1986, Carnegie Mellon
 University), and the Gaussian 82(TM) system (copyright 1983,
 Carnegie Mellon University). Gaussian is a federally registered
 trademark of Gaussian, Inc.
  
 This software contains proprietary and confidential information,
 including trade secrets, belonging to Gaussian, Inc.
  
 This software is provided under written license and may be
 used, copied, transmitted, or stored only in accord with that
 written license.
  
 The following legend is applicable only to US Government
 contracts under FAR:
  
                    RESTRICTED RIGHTS LEGEND
  
 Use, reproduction and disclosure by the US Government is
 subject to restrictions as set forth in subparagraphs (a)
 and (c) of the Commercial Computer Software - Restricted
 Rights clause in FAR 52.227-19.
  
 Gaussian, Inc.
 340 Quinnipiac St., Bldg. 40, Wallingford CT 06492
  
  
 ---------------------------------------------------------------
 Warning -- This program may not be used in any manner that
 competes with the business of Gaussian, Inc. or will provide
 assistance to any competitor of Gaussian, Inc.  The licensee
 of this program is prohibited from giving any competitor of
 Gaussian, Inc. access to this program.  By using this program,
 the user acknowledges that Gaussian, Inc. is engaged in the
 business of creating and licensing software in the field of
 computational chemistry and represents and warrants to the
 licensee that it is not a competitor of Gaussian, Inc. and that
 it will not use this program in any manner prohibited above.
 ---------------------------------------------------------------
  

 Cite this work as:
 Gaussian 16, Revision A.03,
 M. J. Frisch, G. W. Trucks, H. B. Schlegel, G. E. Scuseria, 
 M. A. Robb, J. R. Cheeseman, G. Scalmani, V. Barone, 
 G. A. Petersson, H. Nakatsuji, X. Li, M. Caricato, A. V. Marenich, 
 J. Bloino, B. G. Janesko, R. Gomperts, B. Mennucci, H. P. Hratchian, 
 J. V. Ortiz, A. F. Izmaylov, J. L. Sonnenberg, D. Williams-Young, 
 F. Ding, F. Lipparini, F. Egidi, J. Goings, B. Peng, A. Petrone, 
 T. Henderson, D. Ranasinghe, V. G. Zakrzewski, J. Gao, N. Rega, 
 G. Zheng, W. Liang, M. Hada, M. Ehara, K. Toyota, R. Fukuda, 
 J. Hasegawa, M. Ishida, T. Nakajima, Y. Honda, O. Kitao, H. Nakai, 
 T. Vreven, K. Throssell, J. A. Montgomery, Jr., J. E. Peralta, 
 F. Ogliaro, M. J. Bearpark, J. J. Heyd, E. N. Brothers, K. N. Kudin, 
 V. N. Staroverov, T. A. Keith, R. Kobayashi, J. Normand, 
 K. Raghavachari, A. P. Rendell, J. C. Burant, S. S. Iyengar, 
 J. Tomasi, M. Cossi, J. M. Millam, M. Klene, C. Adamo, R. Cammi, 
 J. W. Ochterski, R. L. Martin, K. Morokuma, O. Farkas, 
 J. B. Foresman, and D. J. Fox, Gaussian, Inc., Wallingford CT, 2016.
 
 ******************************************
 Gaussian 16:  ES64L-G16RevA.03 25-Dec-2016
                17-Jan-2024 
 ******************************************
 %chk=107-an.chk
 %nproc=8
 Will use up to    8 processors via shared memory.
 %mem=30GB
 --------------------------------------
 #P UB3LYP/6-311++G(d,p) nosym opt freq
 --------------------------------------
 1/18=20,19=15,26=3,38=1/1,3;
 2/9=110,12=2,15=1,17=6,18=5,40=1/2;
 3/5=4,6=6,7=1111,11=2,25=1,30=1,71=1,74=-5,116=2/1,2,3;
 4//1;
 5/5=2,38=5/2;
 6/7=2,8=2,9=2,10=2,28=1/1;
 7/30=1/1,2,3,16;
 1/18=20,19=15,26=3/3(2);
 2/9=110,15=1/2;
 99//99;
 2/9=110,15=1/2;
 3/5=4,6=6,7=1111,11=2,25=1,30=1,71=1,74=-5,116=2/1,2,3;
 4/5=5,16=3,69=1/1;
 5/5=2,38=5/2;
 7/30=1/1,2,3,16;
 1/18=20,19=15,26=3/3(-5);
 2/9=110,15=1/2;
 6/7=2,8=2,9=2,10=2,19=2,28=1/1;
 99/9=1/99;
 Leave Link    1 at Wed Jan 17 04:30:32 2024, MaxMem=  4026531840 cpu:               0.6 elap:               0.1
 (Enter /sysapps/ubuntu-applications/gaussian/Gaussian/AVX2/g16/l101.exe)
 -------
 Reduced
 -------
 Symbolic Z-matrix:
 Charge = -2 Multiplicity = 1
 C                    -0.5402   -2.16996   1.29796 
 C                     0.8534   -2.44591   1.14635 
 C                     1.80936  -1.45338   1.01718 
 C                     1.4048   -0.03421   1.02688 
 C                     0.01214   0.24265   1.19198 
 C                    -0.94245  -0.75029   1.33 
 O                    -1.43116  -3.07596   1.39516 
 O                     2.28991   0.87126   0.8789 
 N                    -2.3046   -0.58636   1.53722 
 N                     3.18399  -1.61519   0.9104 
 C                    -3.15668   0.5693    1.23603 
 C                    -4.61003   0.08635   1.39982 
 C                    -2.91201   1.71136   2.24729 
 C                    -2.96046   1.08028  -0.20978 
 C                     3.94857  -2.78603   0.46598 
 C                     3.94973  -3.88437   1.55272 
 C                     5.39761  -2.30295   0.26948 
 C                     3.42475  -3.35274  -0.87202 
 H                     1.11633  -3.49626   1.14077 
 H                    -0.25055   1.29278   1.20561 
 H                    -2.7499   -1.49847   1.47156 
 H                     3.59728  -0.70755   0.71045 
 H                    -4.83956  -0.71062   0.68378 
 H                    -5.32237   0.90096   1.23527 
 H                    -4.77313  -0.30527   2.40986 
 H                    -3.05208   1.33781   3.26605 
 H                    -3.61848   2.53081   2.07915 
 H                    -1.89983   2.11112   2.17232 
 H                    -3.20174   0.2858   -0.92274 
 H                    -1.92698   1.38505  -0.38472 
 H                    -3.61566   1.93395  -0.41178 
 H                     2.9483   -4.27944   1.72979 
 H                     4.31555  -3.46736   2.49563 
 H                     4.60111  -4.716     1.26518 
 H                     5.79036  -1.87703   1.19856 
 H                     5.44677  -1.5304   -0.50648 
 H                     6.05712  -3.12149  -0.03231 
 H                     2.38055  -3.65898  -0.79044 
 H                     4.01856  -4.2163   -1.18959 
 H                     3.48776  -2.58644  -1.65128 
 
 ITRead=  0  0  0  0  0  0  0  0  0  0  0  0  0  0  0  0  0  0  0  0
 ITRead=  0  0  0  0  0  0  0  0  0  0  0  0  0  0  0  0  0  0  0  0
 MicOpt= -1 -1 -1 -1 -1 -1 -1 -1 -1 -1 -1 -1 -1 -1 -1 -1 -1 -1 -1 -1
 MicOpt= -1 -1 -1 -1 -1 -1 -1 -1 -1 -1 -1 -1 -1 -1 -1 -1 -1 -1 -1 -1
 NAtoms=     40 NQM=       40 NQMF=       0 NMMI=      0 NMMIF=      0
                NMic=       0 NMicF=      0.
                    Isotopes and Nuclear Properties:
 (Nuclear quadrupole moments (NQMom) in fm**2, nuclear magnetic moments (NMagM)
  in nuclear magnetons)

  Atom         1           2           3           4           5           6           7           8           9          10
 IAtWgt=          12          12          12          12          12          12          16          16          14          14
 AtmWgt=  12.0000000  12.0000000  12.0000000  12.0000000  12.0000000  12.0000000  15.9949146  15.9949146  14.0030740  14.0030740
 NucSpn=           0           0           0           0           0           0           0           0           2           2
 AtZEff=  -0.0000000  -0.0000000  -0.0000000  -0.0000000  -0.0000000  -0.0000000  -0.0000000  -0.0000000  -0.0000000  -0.0000000
 NQMom=    0.0000000   0.0000000   0.0000000   0.0000000   0.0000000   0.0000000   0.0000000   0.0000000   2.0440000   2.0440000
 NMagM=    0.0000000   0.0000000   0.0000000   0.0000000   0.0000000   0.0000000   0.0000000   0.0000000   0.4037610   0.4037610
 AtZNuc=   6.0000000   6.0000000   6.0000000   6.0000000   6.0000000   6.0000000   8.0000000   8.0000000   7.0000000   7.0000000

  Atom        11          12          13          14          15          16          17          18          19          20
 IAtWgt=          12          12          12          12          12          12          12          12           1           1
 AtmWgt=  12.0000000  12.0000000  12.0000000  12.0000000  12.0000000  12.0000000  12.0000000  12.0000000   1.0078250   1.0078250
 NucSpn=           0           0           0           0           0           0           0           0           1           1
 AtZEff=  -0.0000000  -0.0000000  -0.0000000  -0.0000000  -0.0000000  -0.0000000  -0.0000000  -0.0000000  -0.0000000  -0.0000000
 NQMom=    0.0000000   0.0000000   0.0000000   0.0000000   0.0000000   0.0000000   0.0000000   0.0000000   0.0000000   0.0000000
 NMagM=    0.0000000   0.0000000   0.0000000   0.0000000   0.0000000   0.0000000   0.0000000   0.0000000   2.7928460   2.7928460
 AtZNuc=   6.0000000   6.0000000   6.0000000   6.0000000   6.0000000   6.0000000   6.0000000   6.0000000   1.0000000   1.0000000

  Atom        21          22          23          24          25          26          27          28          29          30
 IAtWgt=           1           1           1           1           1           1           1           1           1           1
 AtmWgt=   1.0078250   1.0078250   1.0078250   1.0078250   1.0078250   1.0078250   1.0078250   1.0078250   1.0078250   1.0078250
 NucSpn=           1           1           1           1           1           1           1           1           1           1
 AtZEff=  -0.0000000  -0.0000000  -0.0000000  -0.0000000  -0.0000000  -0.0000000  -0.0000000  -0.0000000  -0.0000000  -0.0000000
 NQMom=    0.0000000   0.0000000   0.0000000   0.0000000   0.0000000   0.0000000   0.0000000   0.0000000   0.0000000   0.0000000
 NMagM=    2.7928460   2.7928460   2.7928460   2.7928460   2.7928460   2.7928460   2.7928460   2.7928460   2.7928460   2.7928460
 AtZNuc=   1.0000000   1.0000000   1.0000000   1.0000000   1.0000000   1.0000000   1.0000000   1.0000000   1.0000000   1.0000000

  Atom        31          32          33          34          35          36          37          38          39          40
 IAtWgt=           1           1           1           1           1           1           1           1           1           1
 AtmWgt=   1.0078250   1.0078250   1.0078250   1.0078250   1.0078250   1.0078250   1.0078250   1.0078250   1.0078250   1.0078250
 NucSpn=           1           1           1           1           1           1           1           1           1           1
 AtZEff=  -0.0000000  -0.0000000  -0.0000000  -0.0000000  -0.0000000  -0.0000000  -0.0000000  -0.0000000  -0.0000000  -0.0000000
 NQMom=    0.0000000   0.0000000   0.0000000   0.0000000   0.0000000   0.0000000   0.0000000   0.0000000   0.0000000   0.0000000
 NMagM=    2.7928460   2.7928460   2.7928460   2.7928460   2.7928460   2.7928460   2.7928460   2.7928460   2.7928460   2.7928460
 AtZNuc=   1.0000000   1.0000000   1.0000000   1.0000000   1.0000000   1.0000000   1.0000000   1.0000000   1.0000000   1.0000000
 Leave Link  101 at Wed Jan 17 04:30:32 2024, MaxMem=  4026531840 cpu:               3.0 elap:               0.5
 (Enter /sysapps/ubuntu-applications/gaussian/Gaussian/AVX2/g16/l103.exe)

 GradGradGradGradGradGradGradGradGradGradGradGradGradGradGradGradGradGrad
 Berny optimization.
 Initialization pass.
                           ----------------------------
                           !    Initial Parameters    !
                           ! (Angstroms and Degrees)  !
 --------------------------                            --------------------------
 ! Name  Definition              Value          Derivative Info.                !
 --------------------------------------------------------------------------------
 ! R1    R(1,2)                  1.4287         estimate D2E/DX2                !
 ! R2    R(1,6)                  1.4759         estimate D2E/DX2                !
 ! R3    R(1,7)                  1.2744         estimate D2E/DX2                !
 ! R4    R(2,3)                  1.3841         estimate D2E/DX2                !
 ! R5    R(2,19)                 1.0828         estimate D2E/DX2                !
 ! R6    R(3,4)                  1.4757         estimate D2E/DX2                !
 ! R7    R(3,10)                 1.3882         estimate D2E/DX2                !
 ! R8    R(4,5)                  1.4295         estimate D2E/DX2                !
 ! R9    R(4,8)                  1.2748         estimate D2E/DX2                !
 ! R10   R(5,6)                  1.3843         estimate D2E/DX2                !
 ! R11   R(5,20)                 1.0826         estimate D2E/DX2                !
 ! R12   R(6,9)                  1.3875         estimate D2E/DX2                !
 ! R13   R(9,11)                 1.4671         estimate D2E/DX2                !
 ! R14   R(9,21)                 1.0171         estimate D2E/DX2                !
 ! R15   R(10,15)                1.4673         estimate D2E/DX2                !
 ! R16   R(10,22)                1.0172         estimate D2E/DX2                !
 ! R17   R(11,12)                1.5402         estimate D2E/DX2                !
 ! R18   R(11,13)                1.5449         estimate D2E/DX2                !
 ! R19   R(11,14)                1.5459         estimate D2E/DX2                !
 ! R20   R(12,23)                1.0957         estimate D2E/DX2                !
 ! R21   R(12,24)                1.0946         estimate D2E/DX2                !
 ! R22   R(12,25)                1.0955         estimate D2E/DX2                !
 ! R23   R(13,26)                1.0941         estimate D2E/DX2                !
 ! R24   R(13,27)                1.0949         estimate D2E/DX2                !
 ! R25   R(13,28)                1.0908         estimate D2E/DX2                !
 ! R26   R(14,29)                1.0944         estimate D2E/DX2                !
 ! R27   R(14,30)                1.0916         estimate D2E/DX2                !
 ! R28   R(14,31)                1.0949         estimate D2E/DX2                !
 ! R29   R(15,16)                1.5451         estimate D2E/DX2                !
 ! R30   R(15,17)                1.54           estimate D2E/DX2                !
 ! R31   R(15,18)                1.5446         estimate D2E/DX2                !
 ! R32   R(16,32)                1.091          estimate D2E/DX2                !
 ! R33   R(16,33)                1.094          estimate D2E/DX2                !
 ! R34   R(16,34)                1.0948         estimate D2E/DX2                !
 ! R35   R(17,35)                1.0949         estimate D2E/DX2                !
 ! R36   R(17,36)                1.0961         estimate D2E/DX2                !
 ! R37   R(17,37)                1.0936         estimate D2E/DX2                !
 ! R38   R(18,38)                1.0912         estimate D2E/DX2                !
 ! R39   R(18,39)                1.0951         estimate D2E/DX2                !
 ! R40   R(18,40)                1.0947         estimate D2E/DX2                !
 ! A1    A(2,1,6)              116.996          estimate D2E/DX2                !
 ! A2    A(2,1,7)              123.5538         estimate D2E/DX2                !
 ! A3    A(6,1,7)              119.4483         estimate D2E/DX2                !
 ! A4    A(1,2,3)              123.0321         estimate D2E/DX2                !
 ! A5    A(1,2,19)             115.1355         estimate D2E/DX2                !
 ! A6    A(3,2,19)             121.8323         estimate D2E/DX2                !
 ! A7    A(2,3,4)              119.9775         estimate D2E/DX2                !
 ! A8    A(2,3,10)             127.4102         estimate D2E/DX2                !
 ! A9    A(4,3,10)             112.5844         estimate D2E/DX2                !
 ! A10   A(3,4,5)              117.0065         estimate D2E/DX2                !
 ! A11   A(3,4,8)              119.4685         estimate D2E/DX2                !
 ! A12   A(5,4,8)              123.5218         estimate D2E/DX2                !
 ! A13   A(4,5,6)              122.9855         estimate D2E/DX2                !
 ! A14   A(4,5,20)             115.1972         estimate D2E/DX2                !
 ! A15   A(6,5,20)             121.817          estimate D2E/DX2                !
 ! A16   A(1,6,5)              119.9905         estimate D2E/DX2                !
 ! A17   A(1,6,9)              112.609          estimate D2E/DX2                !
 ! A18   A(5,6,9)              127.382          estimate D2E/DX2                !
 ! A19   A(6,9,11)             129.2408         estimate D2E/DX2                !
 ! A20   A(6,9,21)             108.313          estimate D2E/DX2                !
 ! A21   A(11,9,21)            116.0318         estimate D2E/DX2                !
 ! A22   A(3,10,15)            129.2182         estimate D2E/DX2                !
 ! A23   A(3,10,22)            108.2675         estimate D2E/DX2                !
 ! A24   A(15,10,22)           116.1537         estimate D2E/DX2                !
 ! A25   A(9,11,12)            106.2132         estimate D2E/DX2                !
 ! A26   A(9,11,13)            110.8516         estimate D2E/DX2                !
 ! A27   A(9,11,14)            112.2501         estimate D2E/DX2                !
 ! A28   A(12,11,13)           108.1569         estimate D2E/DX2                !
 ! A29   A(12,11,14)           108.836          estimate D2E/DX2                !
 ! A30   A(13,11,14)           110.3484         estimate D2E/DX2                !
 ! A31   A(11,12,23)           110.87           estimate D2E/DX2                !
 ! A32   A(11,12,24)           111.3915         estimate D2E/DX2                !
 ! A33   A(11,12,25)           110.5252         estimate D2E/DX2                !
 ! A34   A(23,12,24)           107.8632         estimate D2E/DX2                !
 ! A35   A(23,12,25)           108.1379         estimate D2E/DX2                !
 ! A36   A(24,12,25)           107.9241         estimate D2E/DX2                !
 ! A37   A(11,13,26)           109.6839         estimate D2E/DX2                !
 ! A38   A(11,13,27)           110.5204         estimate D2E/DX2                !
 ! A39   A(11,13,28)           111.8926         estimate D2E/DX2                !
 ! A40   A(26,13,27)           108.4162         estimate D2E/DX2                !
 ! A41   A(26,13,28)           107.9334         estimate D2E/DX2                !
 ! A42   A(27,13,28)           108.2924         estimate D2E/DX2                !
 ! A43   A(11,14,29)           109.9577         estimate D2E/DX2                !
 ! A44   A(11,14,30)           111.2437         estimate D2E/DX2                !
 ! A45   A(11,14,31)           110.7499         estimate D2E/DX2                !
 ! A46   A(29,14,30)           107.8786         estimate D2E/DX2                !
 ! A47   A(29,14,31)           108.2934         estimate D2E/DX2                !
 ! A48   A(30,14,31)           108.6207         estimate D2E/DX2                !
 ! A49   A(10,15,16)           110.7679         estimate D2E/DX2                !
 ! A50   A(10,15,17)           106.1786         estimate D2E/DX2                !
 ! A51   A(10,15,18)           112.2362         estimate D2E/DX2                !
 ! A52   A(16,15,17)           108.1808         estimate D2E/DX2                !
 ! A53   A(16,15,18)           110.4088         estimate D2E/DX2                !
 ! A54   A(17,15,18)           108.8843         estimate D2E/DX2                !
 ! A55   A(15,16,32)           111.7698         estimate D2E/DX2                !
 ! A56   A(15,16,33)           109.6034         estimate D2E/DX2                !
 ! A57   A(15,16,34)           110.8361         estimate D2E/DX2                !
 ! A58   A(32,16,33)           107.7633         estimate D2E/DX2                !
 ! A59   A(32,16,34)           108.281          estimate D2E/DX2                !
 ! A60   A(33,16,34)           108.4793         estimate D2E/DX2                !
 ! A61   A(15,17,35)           110.565          estimate D2E/DX2                !
 ! A62   A(15,17,36)           110.7094         estimate D2E/DX2                !
 ! A63   A(15,17,37)           111.5827         estimate D2E/DX2                !
 ! A64   A(35,17,36)           108.0861         estimate D2E/DX2                !
 ! A65   A(35,17,37)           107.9981         estimate D2E/DX2                !
 ! A66   A(36,17,37)           107.7663         estimate D2E/DX2                !
 ! A67   A(15,18,38)           111.2673         estimate D2E/DX2                !
 ! A68   A(15,18,39)           110.8944         estimate D2E/DX2                !
 ! A69   A(15,18,40)           109.8937         estimate D2E/DX2                !
 ! A70   A(38,18,39)           108.6174         estimate D2E/DX2                !
 ! A71   A(38,18,40)           107.7419         estimate D2E/DX2                !
 ! A72   A(39,18,40)           108.3225         estimate D2E/DX2                !
 ! D1    D(6,1,2,3)             -0.7276         estimate D2E/DX2                !
 ! D2    D(6,1,2,19)           179.1696         estimate D2E/DX2                !
 ! D3    D(7,1,2,3)            178.7791         estimate D2E/DX2                !
 ! D4    D(7,1,2,19)            -1.3237         estimate D2E/DX2                !
 ! D5    D(2,1,6,5)              1.1314         estimate D2E/DX2                !
 ! D6    D(2,1,6,9)           -177.416          estimate D2E/DX2                !
 ! D7    D(7,1,6,5)           -178.3965         estimate D2E/DX2                !
 ! D8    D(7,1,6,9)              3.0561         estimate D2E/DX2                !
 ! D9    D(1,2,3,4)             -0.258          estimate D2E/DX2                !
 ! D10   D(1,2,3,10)           177.6701         estimate D2E/DX2                !
 ! D11   D(19,2,3,4)           179.8515         estimate D2E/DX2                !
 ! D12   D(19,2,3,10)           -2.2203         estimate D2E/DX2                !
 ! D13   D(2,3,4,5)              0.8513         estimate D2E/DX2                !
 ! D14   D(2,3,4,8)           -178.5268         estimate D2E/DX2                !
 ! D15   D(10,3,4,5)          -177.3665         estimate D2E/DX2                !
 ! D16   D(10,3,4,8)             3.2554         estimate D2E/DX2                !
 ! D17   D(2,3,10,15)           22.5904         estimate D2E/DX2                !
 ! D18   D(2,3,10,22)          172.8776         estimate D2E/DX2                !
 ! D19   D(4,3,10,15)         -159.3533         estimate D2E/DX2                !
 ! D20   D(4,3,10,22)           -9.0661         estimate D2E/DX2                !
 ! D21   D(3,4,5,6)             -0.4382         estimate D2E/DX2                !
 ! D22   D(3,4,5,20)           179.3615         estimate D2E/DX2                !
 ! D23   D(8,4,5,6)            178.9123         estimate D2E/DX2                !
 ! D24   D(8,4,5,20)            -1.288          estimate D2E/DX2                !
 ! D25   D(4,5,6,1)             -0.5557         estimate D2E/DX2                !
 ! D26   D(4,5,6,9)            177.7566         estimate D2E/DX2                !
 ! D27   D(20,5,6,1)           179.6576         estimate D2E/DX2                !
 ! D28   D(20,5,6,9)            -2.0301         estimate D2E/DX2                !
 ! D29   D(1,6,9,11)          -159.1976         estimate D2E/DX2                !
 ! D30   D(1,6,9,21)            -9.0619         estimate D2E/DX2                !
 ! D31   D(5,6,9,11)            22.3858         estimate D2E/DX2                !
 ! D32   D(5,6,9,21)           172.5214         estimate D2E/DX2                !
 ! D33   D(6,9,11,12)          168.4151         estimate D2E/DX2                !
 ! D34   D(6,9,11,13)          -74.3251         estimate D2E/DX2                !
 ! D35   D(6,9,11,14)           49.5831         estimate D2E/DX2                !
 ! D36   D(21,9,11,12)          20.1575         estimate D2E/DX2                !
 ! D37   D(21,9,11,13)         137.4174         estimate D2E/DX2                !
 ! D38   D(21,9,11,14)         -98.6745         estimate D2E/DX2                !
 ! D39   D(3,10,15,16)         -74.4088         estimate D2E/DX2                !
 ! D40   D(3,10,15,17)         168.3666         estimate D2E/DX2                !
 ! D41   D(3,10,15,18)          49.5054         estimate D2E/DX2                !
 ! D42   D(22,10,15,16)        137.2164         estimate D2E/DX2                !
 ! D43   D(22,10,15,17)         19.9918         estimate D2E/DX2                !
 ! D44   D(22,10,15,18)        -98.8694         estimate D2E/DX2                !
 ! D45   D(9,11,12,23)         -62.3339         estimate D2E/DX2                !
 ! D46   D(9,11,12,24)         177.5388         estimate D2E/DX2                !
 ! D47   D(9,11,12,25)          57.5661         estimate D2E/DX2                !
 ! D48   D(13,11,12,23)        178.6223         estimate D2E/DX2                !
 ! D49   D(13,11,12,24)         58.4951         estimate D2E/DX2                !
 ! D50   D(13,11,12,25)        -61.4776         estimate D2E/DX2                !
 ! D51   D(14,11,12,23)         58.7196         estimate D2E/DX2                !
 ! D52   D(14,11,12,24)        -61.4077         estimate D2E/DX2                !
 ! D53   D(14,11,12,25)        178.6196         estimate D2E/DX2                !
 ! D54   D(9,11,13,26)         -54.923          estimate D2E/DX2                !
 ! D55   D(9,11,13,27)        -174.4051         estimate D2E/DX2                !
 ! D56   D(9,11,13,28)          64.8253         estimate D2E/DX2                !
 ! D57   D(12,11,13,26)         61.1395         estimate D2E/DX2                !
 ! D58   D(12,11,13,27)        -58.3426         estimate D2E/DX2                !
 ! D59   D(12,11,13,28)       -179.1121         estimate D2E/DX2                !
 ! D60   D(14,11,13,26)       -179.912          estimate D2E/DX2                !
 ! D61   D(14,11,13,27)         60.6058         estimate D2E/DX2                !
 ! D62   D(14,11,13,28)        -60.1637         estimate D2E/DX2                !
 ! D63   D(9,11,14,29)          59.6705         estimate D2E/DX2                !
 ! D64   D(9,11,14,30)         -59.7751         estimate D2E/DX2                !
 ! D65   D(9,11,14,31)         179.3191         estimate D2E/DX2                !
 ! D66   D(12,11,14,29)        -57.6073         estimate D2E/DX2                !
 ! D67   D(12,11,14,30)       -177.0529         estimate D2E/DX2                !
 ! D68   D(12,11,14,31)         62.0414         estimate D2E/DX2                !
 ! D69   D(13,11,14,29)       -176.1415         estimate D2E/DX2                !
 ! D70   D(13,11,14,30)         64.413          estimate D2E/DX2                !
 ! D71   D(13,11,14,31)        -56.4928         estimate D2E/DX2                !
 ! D72   D(10,15,16,32)         64.7794         estimate D2E/DX2                !
 ! D73   D(10,15,16,33)        -54.6243         estimate D2E/DX2                !
 ! D74   D(10,15,16,34)       -174.3306         estimate D2E/DX2                !
 ! D75   D(17,15,16,32)       -179.2319         estimate D2E/DX2                !
 ! D76   D(17,15,16,33)         61.3644         estimate D2E/DX2                !
 ! D77   D(17,15,16,34)        -58.3419         estimate D2E/DX2                !
 ! D78   D(18,15,16,32)        -60.1753         estimate D2E/DX2                !
 ! D79   D(18,15,16,33)       -179.5789         estimate D2E/DX2                !
 ! D80   D(18,15,16,34)         60.7148         estimate D2E/DX2                !
 ! D81   D(10,15,17,35)         57.8594         estimate D2E/DX2                !
 ! D82   D(10,15,17,36)        -61.8974         estimate D2E/DX2                !
 ! D83   D(10,15,17,37)        178.0787         estimate D2E/DX2                !
 ! D84   D(16,15,17,35)        -61.0801         estimate D2E/DX2                !
 ! D85   D(16,15,17,36)        179.1631         estimate D2E/DX2                !
 ! D86   D(16,15,17,37)         59.1393         estimate D2E/DX2                !
 ! D87   D(18,15,17,35)        178.9028         estimate D2E/DX2                !
 ! D88   D(18,15,17,36)         59.146          estimate D2E/DX2                !
 ! D89   D(18,15,17,37)        -60.8779         estimate D2E/DX2                !
 ! D90   D(10,15,18,38)        -59.7472         estimate D2E/DX2                !
 ! D91   D(10,15,18,39)        179.2367         estimate D2E/DX2                !
 ! D92   D(10,15,18,40)         59.5015         estimate D2E/DX2                !
 ! D93   D(16,15,18,38)         64.3669         estimate D2E/DX2                !
 ! D94   D(16,15,18,39)        -56.6493         estimate D2E/DX2                !
 ! D95   D(16,15,18,40)       -176.3845         estimate D2E/DX2                !
 ! D96   D(17,15,18,38)       -177.0047         estimate D2E/DX2                !
 ! D97   D(17,15,18,39)         61.9791         estimate D2E/DX2                !
 ! D98   D(17,15,18,40)        -57.756          estimate D2E/DX2                !
 --------------------------------------------------------------------------------
 Trust Radius=3.00D-01 FncErr=1.00D-07 GrdErr=1.00D-06 EigMax=2.50D+02 EigMin=1.00D-04
 Number of steps in this run=    220 maximum allowed number of steps=    240.
 GradGradGradGradGradGradGradGradGradGradGradGradGradGradGradGradGradGrad

 Leave Link  103 at Wed Jan 17 04:30:32 2024, MaxMem=  4026531840 cpu:               0.5 elap:               0.1
 (Enter /sysapps/ubuntu-applications/gaussian/Gaussian/AVX2/g16/l202.exe)
                          Input orientation:                          
 ---------------------------------------------------------------------
 Center     Atomic      Atomic             Coordinates (Angstroms)
 Number     Number       Type             X           Y           Z
 ---------------------------------------------------------------------
      1          6           0       -0.540202   -2.169964    1.297960
      2          6           0        0.853401   -2.445909    1.146346
      3          6           0        1.809361   -1.453384    1.017177
      4          6           0        1.404802   -0.034210    1.026879
      5          6           0        0.012141    0.242650    1.191980
      6          6           0       -0.942453   -0.750286    1.329995
      7          8           0       -1.431161   -3.075962    1.395163
      8          8           0        2.289912    0.871264    0.878899
      9          7           0       -2.304598   -0.586358    1.537215
     10          7           0        3.183988   -1.615186    0.910399
     11          6           0       -3.156680    0.569301    1.236026
     12          6           0       -4.610026    0.086351    1.399816
     13          6           0       -2.912010    1.711358    2.247289
     14          6           0       -2.960459    1.080284   -0.209778
     15          6           0        3.948571   -2.786032    0.465975
     16          6           0        3.949730   -3.884366    1.552719
     17          6           0        5.397605   -2.302951    0.269481
     18          6           0        3.424753   -3.352737   -0.872015
     19          1           0        1.116328   -3.496263    1.140771
     20          1           0       -0.250552    1.292775    1.205609
     21          1           0       -2.749902   -1.498473    1.471563
     22          1           0        3.597277   -0.707546    0.710451
     23          1           0       -4.839564   -0.710623    0.683775
     24          1           0       -5.322367    0.900962    1.235265
     25          1           0       -4.773130   -0.305274    2.409864
     26          1           0       -3.052078    1.337805    3.266045
     27          1           0       -3.618476    2.530805    2.079146
     28          1           0       -1.899832    2.111120    2.172317
     29          1           0       -3.201739    0.285795   -0.922744
     30          1           0       -1.926982    1.385046   -0.384722
     31          1           0       -3.615655    1.933950   -0.411778
     32          1           0        2.948304   -4.279442    1.729790
     33          1           0        4.315552   -3.467363    2.495625
     34          1           0        4.601112   -4.715998    1.265184
     35          1           0        5.790363   -1.877027    1.198563
     36          1           0        5.446768   -1.530400   -0.506475
     37          1           0        6.057115   -3.121490   -0.032308
     38          1           0        2.380549   -3.658980   -0.790436
     39          1           0        4.018557   -4.216302   -1.189587
     40          1           0        3.487757   -2.586438   -1.651275
 ---------------------------------------------------------------------
                    Distance matrix (angstroms):
                    1          2          3          4          5
     1  C    0.000000
     2  C    1.428727   0.000000
     3  C    2.472402   1.384070   0.000000
     4  C    2.901374   2.476814   1.475743   0.000000
     5  C    2.477301   2.817472   2.477315   1.429480   0.000000
     6  C    1.475913   2.476682   2.857391   2.472701   1.384276
     7  O    1.274397   2.382876   3.643709   4.174994   3.624581
     8  O    4.175431   3.624738   2.377822   1.274834   2.383572
     9  N    2.382886   3.685603   4.236370   3.784833   2.484697
    10  N    3.785178   2.485439   1.388229   2.382972   3.686659
    11  C    3.788584   5.017996   5.366630   4.605984   3.185917
    12  C    4.654546   6.027074   6.612543   6.027584   4.629477
    13  C    4.646650   5.716053   5.815506   4.813655   3.438232
    14  C    4.323775   5.368299   5.538599   4.671929   3.391594
    15  C    4.606606   3.187266   2.579921   3.789182   5.019510
    16  C    4.812854   3.438248   3.282934   4.645091   5.715505
    17  C    6.027687   4.630240   3.762487   4.654386   6.027795
    18  C    4.672110   3.392340   3.128271   4.324190   5.369619
    19  H    2.127879   1.082777   2.160769   3.475917   3.898887
    20  H    3.476059   3.898715   3.438043   2.129091   1.082569
    21  H    2.315991   3.739946   4.582071   4.427570   3.276974
    22  H    4.427478   3.277311   1.961377   2.315266   3.740046
    23  H    4.581639   5.969509   6.698586   6.290259   4.970517
    24  H    5.683627   7.024924   7.513458   6.795055   5.375149
    25  H    4.757213   6.151150   6.825461   6.336637   4.968126
    26  H    4.742080   5.836299   6.040011   5.173014   3.858827
    27  H    5.673028   6.755404   6.816374   5.737586   4.382248
    28  H    4.576109   5.422123   5.272395   4.103057   2.847434
    29  H    4.248065   5.309190   5.647934   5.012350   3.847459
    30  H    4.170452   4.975029   4.897169   3.886861   2.747955
    31  H    5.405897   6.448517   6.553376   5.581073   4.312011
    32  H    4.099518   2.844445   3.129155   4.571485   5.418451
    33  H    5.166816   3.853623   3.538773   4.734577   5.829497
    34  H    5.737288   4.383237   4.301166   5.673828   6.756641
    35  H    6.338118   4.969904   4.007587   4.760105   6.154748
    36  H    6.285606   4.966789   3.944385   4.574631   5.963525
    37  H    6.797029   5.378129   4.682671   5.683062   7.025527
    38  H    3.887075   2.748608   2.908328   4.170572   4.976148
    39  H    5.581906   4.313825   4.169421   5.406878   6.450231
    40  H    5.009580   3.845291   3.349845   4.245595   5.307329
                    6          7          8          9         10
     6  C    0.000000
     7  O    2.377362   0.000000
     8  O    3.644324   5.449175   0.000000
     9  N    1.387534   2.642196   4.864932   0.000000
    10  N    4.236936   4.865024   2.642498   5.619249   0.000000
    11  C    2.579330   4.036172   5.466634   1.467074   6.714320
    12  C    3.762436   4.483908   6.963949   2.405497   7.992585
    13  C    3.283333   5.083057   5.444102   2.480454   7.072083
    14  C    3.129574   4.710517   5.366125   2.501966   6.802542
    15  C    5.367766   5.467080   4.037013   6.714778   1.467304
    16  C    5.814251   5.443558   5.081835   7.070623   2.479539
    17  C    6.613002   6.963961   4.483836   7.992357   2.404973
    18  C    5.540224   5.366246   4.711236   6.803139   2.500810
    19  H    3.437263   2.594430   4.530030   4.508597   2.804771
    20  H    2.160624   4.529418   2.595837   2.803606   4.509928
    21  H    1.961300   2.057519   5.600592   1.017133   5.961508
    22  H    4.582009   5.600305   2.056750   5.960734   1.017152
    23  H    3.950525   4.209289   7.305468   2.677658   8.077560
    24  H    4.681799   5.566235   7.620674   3.377902   8.876633
    25  H    4.004777   4.458148   7.322203   2.633282   8.202438
    26  H    3.543858   5.060525   5.869666   2.692579   7.290936
    27  H    4.299754   6.057063   6.253297   3.425882   8.051629
    28  H    3.132687   5.265875   4.556767   2.800639   6.428298
    29  H    3.354500   4.450736   5.809210   2.759875   6.910257
    30  H    2.910188   4.828501   4.432032   2.779005   6.066362
    31  H    4.169521   5.756411   6.137660   3.445199   7.783294
    32  H    5.268090   4.554125   5.261869   6.424090   2.797357
    33  H    6.032232   5.864207   5.053781   7.283208   2.687738
    34  H    6.816318   6.252594   6.058742   8.050886   3.427703
    35  H    6.827711   7.323012   4.461888   8.204200   2.635297
    36  H    6.693530   7.301431   4.201546   8.071652   2.671122
    37  H    7.514814   7.623255   5.564549   8.877417   3.378240
    38  H    4.898885   4.432368   4.828872   6.067089   2.777669
    39  H    6.555393   6.138464   5.757619   7.784230   3.445613
    40  H    5.646785   5.806563   4.448856   6.907834   2.756407
                   11         12         13         14         15
    11  C    0.000000
    12  C    1.540222   0.000000
    13  C    1.544931   2.498423   0.000000
    14  C    1.545948   2.509934   2.537278   0.000000
    15  C    7.895304   9.075915   8.394472   7.946052   0.000000
    16  C    8.392646   9.437129   8.881330   8.689353   1.545106
    17  C    9.075232  10.350802   9.438014   9.029574   1.540025
    18  C    7.946161   9.030294   8.690781   7.801357   1.544590
    19  H    5.898854   6.759686   6.676167   6.276062   2.996895
    20  H    2.994982   4.527493   2.888541   3.064648   5.900539
    21  H    2.120527   2.444765   3.306213   3.085649   6.894821
    22  H    6.893657   8.274377   7.112228   6.859086   2.122093
    23  H    2.185243   1.095705   3.467857   2.745327   9.032501
    24  H    2.190936   1.094577   2.736924   2.774692  10.006799
    25  H    2.180754   1.095523   2.749000   3.473913   9.273669
    26  H    2.173135   2.734255   1.094086   3.486554   8.593923
    27  H    2.184400   2.723971   1.094925   2.788579   9.387826
    28  H    2.198525   3.470101   1.090841   2.803913   7.816490
    29  H    2.177773   2.723478   3.487876   1.094417   7.905163
    30  H    2.191899   3.474178   2.829177   1.091586   7.255598
    31  H    2.188192   2.772051   2.759583   1.094912   8.959140
    32  H    7.811846   8.734837   8.396474   8.209876   2.197279
    33  H    8.585773   9.669313   8.894857   8.996701   2.172180
    34  H    9.387149  10.388732   9.935917   9.641045   2.188450
    35  H    9.275532  10.586002   9.471411   9.343768   2.180636
    36  H    9.025762  10.362767   9.378773   8.808244   2.183315
    37  H   10.006229  11.230722  10.440220   9.950027   2.192436
    38  H    7.255743   8.227566   8.128929   7.164088   2.190730
    39  H    8.959331   9.983500   9.745872   8.815924   2.188939
    40  H    7.902135   9.056878   8.638684   7.556603   2.175991
                   16         17         18         19         20
    16  C    0.000000
    17  C    2.498783   0.000000
    18  C    2.537236   2.509424   0.000000
    19  H    2.889376   4.529070   3.066062   0.000000
    20  H    6.675750   6.760714   6.277354   4.980708   0.000000
    21  H    7.112253   8.274905   6.859812   4.364438   3.756135
    22  H    3.305423   2.445599   3.087232   3.757290   4.364889
    23  H    9.385062  10.368547   8.814771   6.591000   5.034376
    24  H   10.438962  11.230120   9.952220   7.797519   5.087013
    25  H    9.467464  10.583752   9.341469   6.817531   4.945473
    26  H    8.901229   9.676344   9.004114   6.727601   3.477926
    27  H    9.935255  10.388927   9.640150   7.721688   3.693061
    28  H    8.399234   8.738272   8.214189   6.450120   2.079504
    29  H    8.640698   9.059345   7.559887   6.099816   3.775368
    30  H    8.127492   8.226717   7.164155   5.951138   2.312593
    31  H    9.744080   9.982700   8.816361   7.368126   3.788267
    32  H    1.091006   3.469596   2.802709   2.077607   6.446476
    33  H    1.093979   2.735400   3.485350   3.474406   6.721039
    34  H    1.094800   2.729216   2.794624   3.694178   7.723182
    35  H    2.746410   1.094926   3.472913   4.946905   6.822049
    36  H    3.467356   1.096066   2.746466   5.032966   6.584907
    37  H    2.745061   1.093634   2.772709   5.091949   7.797746
    38  H    2.829046   3.473452   1.091239   2.313934   5.952039
    39  H    2.763179   2.773367   1.095080   3.791036   7.369680
    40  H    3.487637   2.723451   1.094728   3.774517   6.097953
                   21         22         23         24         25
    21  H    0.000000
    22  H    6.441393   0.000000
    23  H    2.368123   8.436884   0.000000
    24  H    3.525720   9.078699   1.770437   0.000000
    25  H    2.529345   8.550646   1.774290   1.770974   0.000000
    26  H    3.369859   7.411373   3.749571   3.077192   2.528789
    27  H    4.166372   8.026664   3.734297   2.504350   3.079926
    28  H    3.773968   6.348239   4.338204   3.749173   3.761812
    29  H    3.020012   7.062625   2.501244   3.087474   3.731609
    30  H    3.526709   6.007977   3.743881   3.793064   4.332142
    31  H    4.009742   7.762943   3.113191   2.587022   3.783588
    32  H    6.345866   3.770764   8.630267   9.771650   8.710744
    33  H    7.405800   3.364425   9.731319  10.656465   9.623425
    34  H    8.026984   4.169305  10.271681  11.402919  10.423109
    35  H    8.553009   2.532897  10.706113  11.454752  10.748258
    36  H    8.432025   2.361909  10.387365  11.176737  10.698237
    37  H    9.080714   3.525567  11.183142  12.135875  11.453798
    38  H    6.008823   3.527613   7.937011   9.177769   8.524341
    39  H    7.764042   4.012355   9.709046  10.923331  10.273556
    40  H    7.060041   3.019930   8.849600   9.905168   9.483608
                   26         27         28         29         30
    26  H    0.000000
    27  H    1.775608   0.000000
    28  H    1.766898   1.771596   0.000000
    29  H    4.321467   3.771615   3.821803   0.000000
    30  H    3.820494   3.200713   2.658264   1.767152   0.000000
    31  H    3.768208   2.561434   3.106925   1.774494   1.775850
    32  H    8.361706   9.467001   8.033650   8.105576   7.766981
    33  H    8.829788   9.954912   8.357930   9.070893   8.414957
    34  H    9.961089  10.988190   9.470729   9.523101   9.086305
    35  H    9.633192  10.427400   8.717374   9.488711   8.526742
    36  H    9.730822  10.264379   8.626072   8.846950   7.930122
    37  H   10.664982  11.402795   9.775151   9.906000   9.174904
    38  H    8.422371   9.084946   7.771333   6.836717   6.645421
    39  H   10.034672  10.701978   9.293331   8.513093   8.208066
    40  H    9.074644   9.518443   8.106357   7.316409   6.833465
                   31         32         33         34         35
    31  H    0.000000
    32  H    9.288601   0.000000
    33  H   10.026526   1.765033   0.000000
    34  H   10.702769   1.771501   1.776125   0.000000
    35  H   10.275696   3.759135   2.527174   3.078719   0.000000
    36  H    9.702484   4.335947   3.747543   3.741917   1.773517
    37  H   10.920804   3.756401   3.089193   2.519104   1.770562
    38  H    8.208454   2.656851   3.818265   3.205271   4.331086
    39  H    9.834215   3.110015   3.772254   2.571958   3.783486
    40  H    8.510507   3.819538   4.319497   3.778931   3.731867
                   36         37         38         39         40
    36  H    0.000000
    37  H    1.768877   0.000000
    38  H    3.743419   3.792201   0.000000
    39  H    3.117771   2.587204   1.775669   0.000000
    40  H    2.502700   3.083656   1.765588   1.775207   0.000000
 Symmetry turned off by external request.
 Stoichiometry    C14H22N2O2(2-)
 Framework group  C1[X(C14H22N2O2)]
 Deg. of freedom   114
 Full point group                 C1      NOp   1
 Rotational constants (GHZ):           0.9612827           0.1926506           0.1735632
 Leave Link  202 at Wed Jan 17 04:30:33 2024, MaxMem=  4026531840 cpu:               0.5 elap:               0.1
 (Enter /sysapps/ubuntu-applications/gaussian/Gaussian/AVX2/g16/l301.exe)
 Standard basis: 6-311++G(d,p) (5D, 7F)
 Ernie: Thresh=  0.10000D-02 Tol=  0.10000D-05 Strict=F.
   550 basis functions,   846 primitive gaussians,   568 cartesian basis functions
    69 alpha electrons       69 beta electrons
       nuclear repulsion energy      1351.7521338498 Hartrees.
 IExCor=  402 DFT=T Ex+Corr=B3LYP ExCW=0 ScaHFX=  0.200000
 ScaDFX=  0.800000  0.720000  1.000000  0.810000 ScalE2=  1.000000  1.000000
 IRadAn=      5 IRanWt=     -1 IRanGd=            0 ICorTp=0 IEmpDi=  4
 NAtoms=   40 NActive=   40 NUniq=   40 SFac= 1.00D+00 NAtFMM=   60 NAOKFM=F Big=F
 Integral buffers will be    131072 words long.
 Raffenetti 2 integral format.
 Two-electron integral symmetry is turned off.
 Leave Link  301 at Wed Jan 17 04:30:33 2024, MaxMem=  4026531840 cpu:               0.5 elap:               0.1
 (Enter /sysapps/ubuntu-applications/gaussian/Gaussian/AVX2/g16/l302.exe)
 NPDir=0 NMtPBC=     1 NCelOv=     1 NCel=       1 NClECP=     1 NCelD=      1
         NCelK=      1 NCelE2=     1 NClLst=     1 CellRange=     0.0.
 One-electron integrals computed using PRISM.
 NBasis=   550 RedAO= T EigKep=  1.39D-06  NBF=   550
 NBsUse=   548 1.00D-06 EigRej=  4.28D-07 NBFU=   548
 Precomputing XC quadrature grid using
 IXCGrd= 4 IRadAn=           5 IRanWt=          -1 IRanGd=           0 AccXCQ= 0.00D+00.
 Generated NRdTot=       0 NPtTot=           0 NUsed=           0 NTot=          32
 NSgBfM=   563   563   563   563   563 MxSgAt=    40 MxSgA2=    40.
 Leave Link  302 at Wed Jan 17 04:30:34 2024, MaxMem=  4026531840 cpu:              10.4 elap:               1.5
 (Enter /sysapps/ubuntu-applications/gaussian/Gaussian/AVX2/g16/l303.exe)
 DipDrv:  MaxL=1.
 Leave Link  303 at Wed Jan 17 04:30:34 2024, MaxMem=  4026531840 cpu:               1.5 elap:               0.3
 (Enter /sysapps/ubuntu-applications/gaussian/Gaussian/AVX2/g16/l401.exe)
 ExpMin= 3.60D-02 ExpMax= 8.59D+03 ExpMxC= 1.30D+03 IAcc=3 IRadAn=         5 AccDes= 0.00D+00
 Harris functional with IExCor=  402 and IRadAn=       5 diagonalized for initial guess.
 HarFok:  IExCor=  402 AccDes= 0.00D+00 IRadAn=         5 IDoV= 1 UseB2=F ITyADJ=14
 ICtDFT=  3500011 ScaDFX=  1.000000  1.000000  1.000000  1.000000
 FoFCou: FMM=F IPFlag=           0 FMFlag=      100000 FMFlg1=           0
         NFxFlg=           0 DoJE=T BraDBF=F KetDBF=T FulRan=T
         wScrn=  0.000000 ICntrl=       500 IOpCl=  0 I1Cent=   200000004 NGrid=           0
         NMat0=    1 NMatS0=      1 NMatT0=    0 NMatD0=    1 NMtDS0=    0 NMtDT0=    0
 Symmetry not used in FoFCou.
 Harris En= -807.463348967765    
 JPrj=0 DoOrth=F DoCkMO=F.
 Initial guess <Sx>= 0.0000 <Sy>= 0.0000 <Sz>= 0.0000 <S**2>=-0.0000 S=-0.0000
 Leave Link  401 at Wed Jan 17 04:30:40 2024, MaxMem=  4026531840 cpu:              39.9 elap:               5.1
 (Enter /sysapps/ubuntu-applications/gaussian/Gaussian/AVX2/g16/l502.exe)
 Two-electron integral symmetry not used.
 UHF open shell SCF:
 Using DIIS extrapolation, IDIIS=  1040.
 NGot=  4026531840 LenX=  4025877796 LenY=  4025554604
 Requested convergence on RMS density matrix=1.00D-08 within 128 cycles.
 Requested convergence on MAX density matrix=1.00D-06.
 Requested convergence on             energy=1.00D-06.
 No special actions if energy rises.
 Fock matrices will be formed incrementally for  20 cycles.

 Cycle   1  Pass 1  IDiag  1:
 FoFJK:  IHMeth= 1 ICntrl=       0 DoSepK=F KAlg= 0 I1Cent=           0 FoldK=F
 IRaf= 830000000 NMat=       1 IRICut=       1 DoRegI=T DoRafI=F ISym2E= 0 IDoP0=0 IntGTp=1.
 FoFCou: FMM=F IPFlag=           0 FMFlag=      100000 FMFlg1=           0
         NFxFlg=           0 DoJE=F BraDBF=F KetDBF=F FulRan=T
         wScrn=  0.000000 ICntrl=         0 IOpCl=  1 I1Cent=           0 NGrid=           0
         NMat0=    1 NMatS0=      1 NMatT0=    0 NMatD0=    1 NMtDS0=    0 NMtDT0=    0
 Symmetry not used in FoFCou.
 E= -805.976335916943    
 DIIS: error= 3.35D-02 at cycle   1 NSaved=   1.
 NSaved= 1 IEnMin= 1 EnMin= -805.976335916943     IErMin= 1 ErrMin= 3.35D-02
 ErrMax= 3.35D-02  0.00D+00 EMaxC= 1.00D-01 BMatC= 3.68D+00 BMatP= 3.68D+00
 IDIUse=3 WtCom= 6.65D-01 WtEn= 3.35D-01
 Coeff-Com:  0.100D+01
 Coeff-En:   0.100D+01
 Coeff:      0.100D+01
 Gap=     0.139 Goal=   None    Shift=    0.000
 Gap=     0.139 Goal=   None    Shift=    0.000
 GapD=    0.139 DampG=1.000 DampE=0.500 DampFc=0.5000 IDamp=-1.
 Damping current iteration by 5.00D-01
 RMSDP=3.43D+00 MaxDP=4.56D+02              OVMax= 9.92D-01

 Cycle   2  Pass 1  IDiag  1:
 RMSU=  1.66D+00    CP:  3.00D+00
 E= -802.098149010282     Delta-E=        3.878186906662 Rises=F Damp=T
 DIIS: error= 4.05D-02 at cycle   2 NSaved=   2.
 NSaved= 2 IEnMin= 1 EnMin= -805.976335916943     IErMin= 1 ErrMin= 3.35D-02
 ErrMax= 4.05D-02  0.00D+00 EMaxC= 1.00D-01 BMatC= 4.49D+00 BMatP= 3.68D+00
 IDIUse=2 WtCom= 0.00D+00 WtEn= 1.00D+00
 Coeff-En:   0.837D+00 0.163D+00
 Coeff:      0.837D+00 0.163D+00
 Gap=    -0.076 Goal=   None    Shift=    0.000
 Gap=    -0.076 Goal=   None    Shift=    0.000
 RMSDP=1.66D+00 MaxDP=2.14D+02 DE= 3.88D+00 OVMax= 9.97D-01

 Cycle   3  Pass 1  IDiag  1:
 RMSU=  1.25D+00    CP:  3.00D+00  3.46D-01
 E= -806.067019466904     Delta-E=       -3.968870456622 Rises=F Damp=F
 DIIS: error= 3.57D-02 at cycle   3 NSaved=   3.
 NSaved= 3 IEnMin= 3 EnMin= -806.067019466904     IErMin= 1 ErrMin= 3.35D-02
 ErrMax= 3.57D-02  0.00D+00 EMaxC= 1.00D-01 BMatC= 2.99D+00 BMatP= 3.68D+00
 IDIUse=3 WtCom= 6.43D-01 WtEn= 3.57D-01
 Coeff-Com:  0.472D+00 0.120D-02 0.526D+00
 Coeff-En:   0.479D+00 0.000D+00 0.521D+00
 Coeff:      0.475D+00 0.772D-03 0.525D+00
 Gap=    -0.003 Goal=   None    Shift=    0.000
 Gap=    -0.003 Goal=   None    Shift=    0.000
 RMSDP=1.40D+00 MaxDP=2.10D+02 DE=-3.97D+00 OVMax= 9.97D-01

 Cycle   4  Pass 1  IDiag  1:
 RMSU=  1.45D-02    CP:  9.69D-01  1.70D-04 -1.35D-03
 E= -806.803891220565     Delta-E=       -0.736871753661 Rises=F Damp=F
 DIIS: error= 6.30D-03 at cycle   4 NSaved=   4.
 NSaved= 4 IEnMin= 4 EnMin= -806.803891220565     IErMin= 4 ErrMin= 6.30D-03
 ErrMax= 6.30D-03  0.00D+00 EMaxC= 1.00D-01 BMatC= 1.57D-01 BMatP= 2.99D+00
 IDIUse=3 WtCom= 9.37D-01 WtEn= 6.30D-02
 Coeff-Com:  0.101D+00 0.653D-01 0.172D+00 0.662D+00
 Coeff-En:   0.000D+00 0.000D+00 0.900D-01 0.910D+00
 Coeff:      0.942D-01 0.612D-01 0.167D+00 0.678D+00
 Gap=     0.005 Goal=   None    Shift=    0.000
 Gap=     0.005 Goal=   None    Shift=    0.000
 RMSDP=9.62D-03 MaxDP=1.26D+00 DE=-7.37D-01 OVMax= 9.48D-02

 Cycle   5  Pass 1  IDiag  1:
 RMSU=  9.43D-03    CP:  9.54D-01  4.45D-04 -2.01D-03  1.10D+00
 E= -806.836762252668     Delta-E=       -0.032871032104 Rises=F Damp=F
 DIIS: error= 5.27D-03 at cycle   5 NSaved=   5.
 NSaved= 5 IEnMin= 5 EnMin= -806.836762252668     IErMin= 5 ErrMin= 5.27D-03
 ErrMax= 5.27D-03  0.00D+00 EMaxC= 1.00D-01 BMatC= 7.21D-02 BMatP= 1.57D-01
 IDIUse=3 WtCom= 9.47D-01 WtEn= 5.27D-02
 Coeff-Com:  0.135D-01 0.614D-01 0.807D-01 0.360D+00 0.485D+00
 Coeff-En:   0.000D+00 0.000D+00 0.276D-02 0.000D+00 0.997D+00
 Coeff:      0.128D-01 0.581D-01 0.766D-01 0.341D+00 0.512D+00
 Gap=    -0.000 Goal=   None    Shift=    0.000
 Gap=    -0.000 Goal=   None    Shift=    0.000
 RMSDP=1.17D+00 MaxDP=2.39D+02 DE=-3.29D-02 OVMax= 9.98D-01

 Cycle   6  Pass 1  IDiag  1:
 RMSU=  9.08D-01    CP:  3.00D+00  2.76D-01  4.18D-01 -1.98D+00 -3.00D+00
 E= -806.667113065289     Delta-E=        0.169649187379 Rises=F Damp=F
 DIIS: error= 1.10D-02 at cycle   6 NSaved=   6.
 NSaved= 6 IEnMin= 5 EnMin= -806.836762252668     IErMin= 5 ErrMin= 5.27D-03
 ErrMax= 1.10D-02  0.00D+00 EMaxC= 1.00D-01 BMatC= 2.94D-01 BMatP= 7.21D-02
 IDIUse=2 WtCom= 0.00D+00 WtEn= 1.00D+00
 EnCoef did    17 forward-backward iterations
 Coeff-En:   0.000D+00 0.000D+00 0.000D+00 0.838D-01 0.651D+00 0.266D+00
 Coeff:      0.000D+00 0.000D+00 0.000D+00 0.838D-01 0.651D+00 0.266D+00
 Gap=    -0.012 Goal=   None    Shift=    0.000
 Gap=    -0.012 Goal=   None    Shift=    0.000
 RMSDP=1.39D+00 MaxDP=2.39D+02 DE= 1.70D-01 OVMax= 9.76D-01

 Cycle   7  Pass 1  IDiag  1:
 RMSU=  5.45D-01    CP:  3.00D+00  2.08D-01  4.38D-01 -7.30D-01  3.00D+00
                    CP: -3.99D-01
 E= -806.615390071419     Delta-E=        0.051722993870 Rises=F Damp=F
 DIIS: error= 1.21D-02 at cycle   7 NSaved=   7.
 NSaved= 7 IEnMin= 5 EnMin= -806.836762252668     IErMin= 5 ErrMin= 5.27D-03
 ErrMax= 1.21D-02  0.00D+00 EMaxC= 1.00D-01 BMatC= 4.04D-01 BMatP= 7.21D-02
 IDIUse=2 WtCom= 0.00D+00 WtEn= 1.00D+00
 EnCoef did    20 forward-backward iterations
 Coeff-En:   0.000D+00 0.000D+00 0.000D+00 0.176D+00 0.502D+00 0.174D+00
 Coeff-En:   0.147D+00
 Coeff:      0.000D+00 0.000D+00 0.000D+00 0.176D+00 0.502D+00 0.174D+00
 Coeff:      0.147D+00
 Gap=    -0.008 Goal=   None    Shift=    0.000
 Gap=    -0.008 Goal=   None    Shift=    0.000
 RMSDP=9.41D-01 MaxDP=1.97D+02 DE= 5.17D-02 OVMax= 9.97D-01

 Cycle   8  Pass 1  IDiag  1:
 RMSU=  3.88D-03    CP:  9.99D-01  6.31D-04 -1.51D-03  1.21D+00  7.74D-01
                    CP:  1.31D-03  1.81D-03
 E= -806.835919103227     Delta-E=       -0.220529031808 Rises=F Damp=F
 DIIS: error= 5.50D-03 at cycle   8 NSaved=   8.
 NSaved= 8 IEnMin= 5 EnMin= -806.836762252668     IErMin= 5 ErrMin= 5.27D-03
 ErrMax= 5.50D-03  0.00D+00 EMaxC= 1.00D-01 BMatC= 6.60D-02 BMatP= 7.21D-02
 IDIUse=3 WtCom= 9.47D-01 WtEn= 5.27D-02
 EnCoef did    20 forward-backward iterations
 Coeff-Com: -0.138D-01 0.795D-02-0.985D-02 0.736D-01 0.345D+00 0.163D+00
 Coeff-Com:  0.104D+00 0.330D+00
 Coeff-En:   0.000D+00 0.000D+00 0.000D+00 0.000D+00 0.234D+00 0.184D+00
 Coeff-En:   0.118D+00 0.463D+00
 Coeff:     -0.131D-01 0.753D-02-0.933D-02 0.697D-01 0.339D+00 0.164D+00
 Coeff:      0.105D+00 0.337D+00
 Gap=     0.000 Goal=   None    Shift=    0.000
 Gap=     0.000 Goal=   None    Shift=    0.000
 RMSDP=1.13D+00 MaxDP=2.52D+02 DE=-2.21D-01 OVMax= 9.99D-01

 Cycle   9  Pass 1  IDiag  1:
 RMSU=  1.59D-01    CP:  3.00D+00  2.47D-01  5.88D-01 -1.54D+00  3.00D+00
                    CP: -4.86D-01  1.01D+00 -2.24D+00
 E= -806.674752199405     Delta-E=        0.161166903823 Rises=F Damp=F
 DIIS: error= 1.00D-02 at cycle   9 NSaved=   9.
 NSaved= 9 IEnMin= 5 EnMin= -806.836762252668     IErMin= 5 ErrMin= 5.27D-03
 ErrMax= 1.00D-02  0.00D+00 EMaxC= 1.00D-01 BMatC= 2.36D-01 BMatP= 6.60D-02
 IDIUse=2 WtCom= 0.00D+00 WtEn= 1.00D+00
 EnCoef did    21 forward-backward iterations
 Coeff-En:   0.000D+00 0.000D+00 0.000D+00 0.000D+00 0.737D-01 0.163D+00
 Coeff-En:   0.000D+00 0.600D+00 0.163D+00
 Coeff:      0.000D+00 0.000D+00 0.000D+00 0.000D+00 0.737D-01 0.163D+00
 Coeff:      0.000D+00 0.600D+00 0.163D+00
 Gap=    -0.008 Goal=   None    Shift=    0.000
 Gap=    -0.008 Goal=   None    Shift=    0.000
 RMSDP=1.13D+00 MaxDP=2.52D+02 DE= 1.61D-01 OVMax= 9.98D-01

 Cycle  10  Pass 1  IDiag  1:
 RMSU=  4.80D-03    CP:  9.90D-01  1.21D-03 -5.93D-04  1.15D+00  8.71D-01
                    CP:  4.55D-03  7.83D-04  1.65D+00  4.59D-03
 E= -806.840056987018     Delta-E=       -0.165304787613 Rises=F Damp=F
 DIIS: error= 4.27D-03 at cycle  10 NSaved=  10.
 NSaved=10 IEnMin=10 EnMin= -806.840056987018     IErMin=10 ErrMin= 4.27D-03
 ErrMax= 4.27D-03  0.00D+00 EMaxC= 1.00D-01 BMatC= 5.63D-02 BMatP= 6.60D-02
 IDIUse=3 WtCom= 9.57D-01 WtEn= 4.27D-02
 EnCoef did   100 forward-backward iterations
 Coeff-Com: -0.119D-01 0.580D-02-0.139D-01-0.100D-01 0.128D+00 0.149D+00
 Coeff-Com:  0.197D-01 0.375D+00 0.126D+00 0.233D+00
 Coeff-En:   0.000D+00 0.000D+00 0.000D+00 0.000D+00 0.664D-02 0.163D+00
 Coeff-En:   0.000D+00 0.268D+00 0.157D+00 0.405D+00
 Coeff:     -0.114D-01 0.555D-02-0.133D-01-0.957D-02 0.123D+00 0.149D+00
 Coeff:      0.189D-01 0.370D+00 0.128D+00 0.240D+00
 Gap=     0.004 Goal=   None    Shift=    0.000
 Gap=     0.004 Goal=   None    Shift=    0.000
 RMSDP=2.37D-02 MaxDP=3.71D+00 DE=-1.65D-01 OVMax= 8.26D-02

 Cycle  11  Pass 1  IDiag  1:
 RMSU=  4.88D-03    CP:  1.09D+00  5.05D-03  6.79D-03  1.19D+00  1.01D+00
                    CP:  2.13D-02  4.21D-04  3.00D+00  7.29D-03  2.91D+00
 E= -806.848864550318     Delta-E=       -0.008807563300 Rises=F Damp=F
 DIIS: error= 3.61D-03 at cycle  11 NSaved=  11.
 NSaved=11 IEnMin=11 EnMin= -806.848864550318     IErMin=11 ErrMin= 3.61D-03
 ErrMax= 3.61D-03  0.00D+00 EMaxC= 1.00D-01 BMatC= 3.33D-02 BMatP= 5.63D-02
 IDIUse=3 WtCom= 9.64D-01 WtEn= 3.61D-02
 EnCoef did   100 forward-backward iterations
 Coeff-Com: -0.112D-01 0.527D-02-0.986D-02-0.624D-01 0.437D-01 0.125D+00
 Coeff-Com:  0.233D-01 0.388D-01 0.947D-01 0.400D-01 0.713D+00
 Coeff-En:   0.000D+00 0.000D+00 0.000D+00 0.000D+00 0.114D-01 0.143D+00
 Coeff-En:   0.000D+00 0.255D-02 0.145D+00 0.000D+00 0.699D+00
 Coeff:     -0.108D-01 0.508D-02-0.951D-02-0.601D-01 0.425D-01 0.125D+00
 Coeff:      0.224D-01 0.375D-01 0.966D-01 0.386D-01 0.712D+00
 Gap=     0.000 Goal=   None    Shift=    0.000
 Gap=     0.000 Goal=   None    Shift=    0.000
 RMSDP=7.82D-01 MaxDP=1.40D+02 DE=-8.81D-03 OVMax= 6.85D-01

 Cycle  12  Pass 1  IDiag  1:
 RMSU=  9.64D-02    CP:  3.00D+00  1.89D-01  3.49D-01  3.47D-02 -1.50D+00
                    CP:  6.13D-01 -3.00D-02  3.00D+00 -1.25D-01  3.00D+00
                    CP:  3.00D+00
 E= -806.838661110923     Delta-E=        0.010203439395 Rises=F Damp=F
 DIIS: error= 5.59D-03 at cycle  12 NSaved=  12.
 NSaved=12 IEnMin=11 EnMin= -806.848864550318     IErMin=11 ErrMin= 3.61D-03
 ErrMax= 5.59D-03  0.00D+00 EMaxC= 1.00D-01 BMatC= 6.58D-02 BMatP= 3.33D-02
 IDIUse=3 WtCom= 9.64D-01 WtEn= 3.61D-02
 EnCoef did   100 forward-backward iterations
 Coeff-Com: -0.492D-02 0.173D-02-0.507D-02-0.127D+00-0.140D+00-0.825D-01
 Coeff-Com:  0.276D-01-0.459D+00 0.411D-01-0.182D+00 0.158D+01 0.353D+00
 Coeff-En:   0.000D+00 0.000D+00 0.000D+00 0.000D+00 0.000D+00 0.000D+00
 Coeff-En:   0.000D+00 0.115D-01 0.111D+00 0.561D-02 0.556D+00 0.316D+00
 Coeff:     -0.474D-02 0.166D-02-0.489D-02-0.122D+00-0.135D+00-0.795D-01
 Coeff:      0.266D-01-0.442D+00 0.436D-01-0.176D+00 0.154D+01 0.352D+00
 Gap=     0.003 Goal=   None    Shift=    0.000
 Gap=     0.003 Goal=   None    Shift=    0.000
 RMSDP=3.56D-01 MaxDP=3.24D+01 DE= 1.02D-02 OVMax= 2.00D-01

 Cycle  13  Pass 1  IDiag  1:
 RMSU=  1.40D-01    CP:  3.00D+00  2.89D-01  5.33D-01 -3.10D-01 -2.88D+00
                    CP:  7.60D-01 -3.47D-02  3.00D+00 -2.54D-01  3.00D+00
                    CP:  3.00D+00  1.93D+00
 E= -806.795141777948     Delta-E=        0.043519332975 Rises=F Damp=F
 DIIS: error= 6.89D-03 at cycle  13 NSaved=  13.
 NSaved=13 IEnMin=11 EnMin= -806.848864550318     IErMin=11 ErrMin= 3.61D-03
 ErrMax= 6.89D-03  0.00D+00 EMaxC= 1.00D-01 BMatC= 1.39D-01 BMatP= 3.33D-02
 IDIUse=3 WtCom= 9.64D-01 WtEn= 3.61D-02
 EnCoef did   100 forward-backward iterations
 Rare condition: small coef for last iteration: -0.632D-15
 Coeff-Com: -0.513D-02 0.174D-02-0.500D-02-0.138D+00-0.165D+00-0.102D+00
 Coeff-Com:  0.277D-01-0.522D+00 0.288D-01-0.193D+00 0.171D+01 0.247D+00
 Coeff-Com:  0.112D+00
 Coeff-En:   0.000D+00 0.000D+00 0.000D+00 0.000D+00 0.000D+00 0.000D+00
 Coeff-En:   0.000D+00 0.465D-01 0.656D-01 0.000D+00 0.577D+00 0.000D+00
 Coeff-En:   0.311D+00
 Coeff:     -0.513D-02 0.174D-02-0.500D-02-0.138D+00-0.165D+00-0.102D+00
 Coeff:      0.277D-01-0.522D+00 0.288D-01-0.193D+00 0.171D+01 0.247D+00
 Coeff:      0.112D+00
 Gap=     0.004 Goal=   None    Shift=    0.000
 Gap=     0.004 Goal=   None    Shift=    0.000
 RMSDP=6.44D-02 MaxDP=6.42D+00 DE= 4.35D-02 OVMax= 3.76D-02

 Cycle  14  Pass 1  IDiag  1:
 RMSU=  9.19D-03    CP:  3.00D+00  3.05D-01  5.70D-01 -2.45D-01 -3.00D+00
                    CP:  7.61D-01 -3.08D-02  3.00D+00 -2.95D-01  3.00D+00
                    CP:  3.00D+00  2.17D+00  1.17D+00
 E= -806.788454782236     Delta-E=        0.006686995712 Rises=F Damp=F
 DIIS: error= 7.29D-03 at cycle  14 NSaved=  14.
 NSaved=14 IEnMin=11 EnMin= -806.848864550318     IErMin=11 ErrMin= 3.61D-03
 ErrMax= 7.29D-03  0.00D+00 EMaxC= 1.00D-01 BMatC= 1.52D-01 BMatP= 3.33D-02
 IDIUse=3 WtCom= 9.64D-01 WtEn= 3.61D-02
 EnCoef did   100 forward-backward iterations
 Rare condition: small coef for last iteration:  0.000D+00
 Coeff-Com: -0.512D-02 0.174D-02-0.499D-02-0.138D+00-0.165D+00-0.102D+00
 Coeff-Com:  0.277D-01-0.522D+00 0.289D-01-0.193D+00 0.171D+01 0.246D+00
 Coeff-Com:  0.116D+00-0.328D-02
 Coeff-En:   0.000D+00 0.000D+00 0.000D+00 0.000D+00 0.000D+00 0.000D+00
 Coeff-En:   0.000D+00 0.437D-01 0.613D-01 0.000D+00 0.590D+00 0.000D+00
 Coeff-En:   0.000D+00 0.305D+00
 Coeff:     -0.512D-02 0.174D-02-0.499D-02-0.138D+00-0.165D+00-0.102D+00
 Coeff:      0.277D-01-0.522D+00 0.289D-01-0.193D+00 0.171D+01 0.246D+00
 Coeff:      0.116D+00-0.328D-02
 Gap=     0.004 Goal=   None    Shift=    0.000
 Gap=     0.004 Goal=   None    Shift=    0.000
 RMSDP=2.87D-04 MaxDP=2.95D-02 DE= 6.69D-03 OVMax= 1.74D-04

 Cycle  15  Pass 1  IDiag  1:
 RMSU=  4.04D-05    CP:  3.00D+00  3.04D-01  5.70D-01 -2.45D-01 -3.00D+00
                    CP:  7.61D-01 -3.08D-02  3.00D+00 -2.95D-01  3.00D+00
                    CP:  3.00D+00  2.17D+00  1.17D+00  9.96D-01
 E= -806.788478720516     Delta-E=       -0.000023938280 Rises=F Damp=F
 DIIS: error= 7.29D-03 at cycle  15 NSaved=  15.
 NSaved=15 IEnMin=11 EnMin= -806.848864550318     IErMin=11 ErrMin= 3.61D-03
 ErrMax= 7.29D-03  0.00D+00 EMaxC= 1.00D-01 BMatC= 1.52D-01 BMatP= 3.33D-02
 IDIUse=3 WtCom= 9.64D-01 WtEn= 3.61D-02
 Large coefficients: NSaved= 15 BigCof=  221.30 CofMax=   10.00 Det=-7.24D-10
 Inversion failed.  Reducing to 14 matrices.
 Large coefficients: NSaved= 14 BigCof=  223.02 CofMax=   10.00 Det=-7.24D-10
 Inversion failed.  Reducing to 13 matrices.
 Large coefficients: NSaved= 13 BigCof=  222.15 CofMax=   10.00 Det=-7.24D-10
 Inversion failed.  Reducing to 12 matrices.
 Large coefficients: NSaved= 12 BigCof=  217.73 CofMax=   10.00 Det=-7.41D-10
 Inversion failed.  Reducing to 11 matrices.
 Large coefficients: NSaved= 11 BigCof=  192.50 CofMax=   10.00 Det=-7.52D-10
 Inversion failed.  Reducing to 10 matrices.
 Large coefficients: NSaved= 10 BigCof=  138.09 CofMax=   10.00 Det=-7.62D-10
 Inversion failed.  Reducing to  9 matrices.
 Large coefficients: NSaved=  9 BigCof=  299.85 CofMax=   10.00 Det=-8.47D-10
 Inversion failed.  Reducing to  8 matrices.
 Large coefficients: NSaved=  8 BigCof=  255.17 CofMax=   10.00 Det=-8.76D-10
 Inversion failed.  Reducing to  7 matrices.
 Large coefficients: NSaved=  7 BigCof=  497.05 CofMax=   10.00 Det=-9.72D-10
 Inversion failed.  Reducing to  6 matrices.
 Large coefficients: NSaved=  6 BigCof=  649.86 CofMax=   10.00 Det=-1.19D-09
 Inversion failed.  Reducing to  5 matrices.
 Large coefficients: NSaved=  5 BigCof=  702.12 CofMax=   10.00 Det=-1.26D-09
 Inversion failed.  Reducing to  4 matrices.
 Large coefficients: NSaved=  4 BigCof=  220.14 CofMax=   10.00 Det=-3.45D-09
 Inversion failed.  Reducing to  3 matrices.
 Large coefficients: NSaved=  3 BigCof=  260.65 CofMax=   10.00 Det=-3.62D-09
 Inversion failed.  Reducing to  2 matrices.
 Large coefficients: NSaved=  2 BigCof= 3084.89 CofMax=   10.00 Det=-7.71D-09
 Coeff-Com: -0.308D+04 0.308D+04
 Coeff-En:   0.000D+00 0.100D+01
 Coeff:     -0.297D+04 0.297D+04
 Gap=    -0.039 Goal=   None    Shift=    0.000
 Gap=    -0.039 Goal=   None    Shift=    0.000
 RMSDP=1.16D+00 MaxDP=1.77D+02 DE=-2.39D-05 OVMax= 8.10D-01

 Cycle  16  Pass 1  IDiag  1:
 RMSU=  1.85D-02    CP:  1.17D+00  6.87D-03  2.09D-02  6.73D-01 -9.66D-02
                    CP: -2.24D-03  1.33D-02  2.49D+00 -3.15D-02  2.06D+00
                    CP:  2.15D-01  1.96D-02  7.29D-03  3.82D-01 -3.00D+00
 E= -806.753961078855     Delta-E=        0.034517641660 Rises=F Damp=F
 DIIS: error= 9.00D-03 at cycle  16 NSaved=   3.
 NSaved= 3 IEnMin= 2 EnMin= -806.788478720516     IErMin= 2 ErrMin= 7.29D-03
 ErrMax= 9.00D-03  0.00D+00 EMaxC= 1.00D-01 BMatC= 3.25D-01 BMatP= 1.52D-01
 IDIUse=3 WtCom= 9.64D-01 WtEn= 3.61D-02
 Large coefficients: NSaved=  3 BigCof=  976.34 CofMax=   10.00 Det=-4.99D-09
 Inversion failed.  Reducing to  2 matrices.
 Coeff-Com:  0.604D+00 0.396D+00
 Coeff-En:   0.551D+00 0.449D+00
 Coeff:      0.602D+00 0.398D+00
 Gap=     0.023 Goal=   None    Shift=    0.000
 Gap=     0.023 Goal=   None    Shift=    0.000
 RMSDP=1.70D-02 MaxDP=1.26D+00 DE= 3.45D-02 OVMax= 1.68D-01

 Cycle  17  Pass 1  IDiag  1:
 RMSU=  7.97D-03    CP:  1.07D+00  5.35D-03  1.64D-02  8.98D-01  6.85D-02
                    CP:  1.58D-03  3.26D-03  2.39D+00  4.82D-03  2.23D+00
                    CP:  7.28D-02  2.69D-02  1.83D-02  1.55D-01 -3.00D+00
                    CP:  5.81D-01
 E= -806.805463858992     Delta-E=       -0.051502780136 Rises=F Damp=F
 DIIS: error= 7.31D-03 at cycle  17 NSaved=   3.
 NSaved= 3 IEnMin= 3 EnMin= -806.805463858992     IErMin= 1 ErrMin= 7.29D-03
 ErrMax= 7.31D-03  0.00D+00 EMaxC= 1.00D-01 BMatC= 1.63D-01 BMatP= 1.52D-01
 IDIUse=3 WtCom= 9.64D-01 WtEn= 3.61D-02
 EnCoef did     5 forward-backward iterations
 Coeff-Com:  0.515D+00 0.202D+00 0.283D+00
 Coeff-En:   0.469D+00 0.914D-02 0.522D+00
 Coeff:      0.513D+00 0.195D+00 0.292D+00
 Gap=     0.003 Goal=   None    Shift=    0.000
 Gap=     0.003 Goal=   None    Shift=    0.000
 RMSDP=3.60D-01 MaxDP=6.91D+01 DE=-5.15D-02 OVMax= 4.72D-01

 Cycle  18  Pass 1  IDiag  1:
 RMSU=  4.32D-02    CP:  2.69D+00  7.59D-02  2.22D-01 -1.69D-01  4.88D-01
                    CP: -1.17D-01  2.82D-01  3.00D+00 -1.11D-01  3.00D+00
                    CP:  3.00D+00  3.57D-01 -1.58D-02 -1.03D-01 -3.00D+00
                    CP:  3.00D+00  3.00D+00
 E= -806.867911343223     Delta-E=       -0.062447484231 Rises=F Damp=F
 DIIS: error= 1.87D-03 at cycle  18 NSaved=   4.
 NSaved= 4 IEnMin= 4 EnMin= -806.867911343223     IErMin= 4 ErrMin= 1.87D-03
 ErrMax= 1.87D-03  0.00D+00 EMaxC= 1.00D-01 BMatC= 9.46D-03 BMatP= 1.52D-01
 IDIUse=3 WtCom= 9.81D-01 WtEn= 1.87D-02
 EnCoef did     5 forward-backward iterations
 Coeff-Com:  0.223D+00 0.876D-03 0.168D+00 0.608D+00
 Coeff-En:   0.227D+00 0.000D+00 0.139D+00 0.634D+00
 Coeff:      0.223D+00 0.859D-03 0.167D+00 0.609D+00
 Gap=     0.015 Goal=   None    Shift=    0.000
 Gap=     0.015 Goal=   None    Shift=    0.000
 RMSDP=2.69D-01 MaxDP=5.28D+01 DE=-6.24D-02 OVMax= 3.89D-01

 Cycle  19  Pass 1  IDiag  1:
 RMSU=  2.33D-02    CP:  2.33D+00  5.31D-02  1.56D-01  9.10D-01 -2.15D-01
                    CP:  9.60D-02  3.46D-03  3.00D+00 -1.03D-01  3.00D+00
                    CP:  3.00D+00  5.01D-01  5.18D-02 -1.10D+00 -3.00D+00
                    CP:  1.09D+00  2.95D+00  5.04D-01
 E= -806.865812176865     Delta-E=        0.002099166358 Rises=F Damp=F
 DIIS: error= 2.81D-03 at cycle  19 NSaved=   5.
 NSaved= 5 IEnMin= 4 EnMin= -806.867911343223     IErMin= 4 ErrMin= 1.87D-03
 ErrMax= 2.81D-03  0.00D+00 EMaxC= 1.00D-01 BMatC= 2.22D-02 BMatP= 9.46D-03
 IDIUse=3 WtCom= 9.81D-01 WtEn= 1.87D-02
 EnCoef did     2 forward-backward iterations
 Coeff-Com:  0.151D+00-0.617D-01 0.411D-01 0.458D+00 0.412D+00
 Coeff-En:   0.189D+00 0.000D+00 0.000D+00 0.338D+00 0.473D+00
 Coeff:      0.151D+00-0.605D-01 0.403D-01 0.456D+00 0.413D+00
 Gap=     0.007 Goal=   None    Shift=    0.000
 Gap=     0.007 Goal=   None    Shift=    0.000
 RMSDP=3.67D-01 MaxDP=3.41D+01 DE= 2.10D-03 OVMax= 2.66D-01

 Cycle  20  Pass 1  IDiag  1:
 RMSU=  3.71D-02    CP:  3.00D+00  1.50D-01  3.86D-01 -7.49D-02 -7.84D-01
                    CP:  1.72D-01  6.64D-02  3.00D+00 -3.63D-01  3.00D+00
                    CP:  3.00D+00  1.23D+00  4.73D-01  1.41D+00 -3.00D+00
                    CP:  1.67D+00  3.00D+00  7.86D-01  1.39D+00
 E= -806.877833395740     Delta-E=       -0.012021218875 Rises=F Damp=F
 DIIS: error= 1.34D-03 at cycle  20 NSaved=   6.
 NSaved= 6 IEnMin= 6 EnMin= -806.877833395740     IErMin= 6 ErrMin= 1.34D-03
 ErrMax= 1.34D-03  0.00D+00 EMaxC= 1.00D-01 BMatC= 3.79D-03 BMatP= 9.46D-03
 IDIUse=3 WtCom= 9.87D-01 WtEn= 1.34D-02
 Coeff-Com:  0.302D-01-0.237D-01 0.101D-01 0.238D+00 0.269D+00 0.476D+00
 Coeff-En:   0.000D+00 0.000D+00 0.000D+00 0.000D+00 0.191D+00 0.809D+00
 Coeff:      0.298D-01-0.233D-01 0.993D-02 0.235D+00 0.268D+00 0.480D+00
 Gap=     0.009 Goal=   None    Shift=    0.000
 Gap=     0.009 Goal=   None    Shift=    0.000
 RMSDP=1.03D-01 MaxDP=1.77D+01 DE=-1.20D-02 OVMax= 7.70D-02

 Cycle  21  Pass 1  IDiag  1:
 Restarting incremental Fock formation.
 E= -806.875535188935     Delta-E=        0.002298206805 Rises=F Damp=F
 DIIS: error= 1.72D-03 at cycle  21 NSaved=   7.
 NSaved= 7 IEnMin= 6 EnMin= -806.877833395740     IErMin= 6 ErrMin= 1.34D-03
 ErrMax= 1.72D-03  0.00D+00 EMaxC= 1.00D-01 BMatC= 6.70D-03 BMatP= 3.79D-03
 IDIUse=3 WtCom= 9.87D-01 WtEn= 1.34D-02
 Rare condition: small coef for last iteration:  0.000D+00
 Coeff-Com: -0.410D-01-0.101D-01 0.989D-02 0.173D+00 0.179D+00 0.384D+00
 Coeff-Com:  0.305D+00
 Coeff-En:   0.000D+00 0.000D+00 0.000D+00 0.757D-01 0.278D+00 0.000D+00
 Coeff-En:   0.646D+00
 Coeff:     -0.410D-01-0.101D-01 0.989D-02 0.173D+00 0.179D+00 0.384D+00
 Coeff:      0.305D+00
 Gap=     0.010 Goal=   None    Shift=    0.000
 Gap=     0.010 Goal=   None    Shift=    0.000
 RMSDP=1.49D-02 MaxDP=2.87D+00 DE= 2.30D-03 OVMax= 1.63D-02

 Cycle  22  Pass 1  IDiag  1:
 RMSU=  1.09D-02    CP:  9.86D-01
 E= -806.876716553495     Delta-E=       -0.001181364560 Rises=F Damp=F
 DIIS: error= 1.51D-03 at cycle  22 NSaved=   8.
 NSaved= 8 IEnMin= 6 EnMin= -806.877833395740     IErMin= 6 ErrMin= 1.34D-03
 ErrMax= 1.51D-03  0.00D+00 EMaxC= 1.00D-01 BMatC= 4.57D-03 BMatP= 3.79D-03
 IDIUse=3 WtCom= 9.87D-01 WtEn= 1.34D-02
 EnCoef did   100 forward-backward iterations
 Coeff-Com: -0.525D-01-0.869D-02 0.889D-02 0.158D+00 0.152D+00 0.239D+00
 Coeff-Com: -0.456D-01 0.549D+00
 Coeff-En:   0.000D+00 0.000D+00 0.000D+00 0.281D-02 0.191D+00 0.797D+00
 Coeff-En:   0.000D+00 0.868D-02
 Coeff:     -0.518D-01-0.857D-02 0.877D-02 0.156D+00 0.153D+00 0.247D+00
 Coeff:     -0.449D-01 0.542D+00
 Gap=     0.010 Goal=   None    Shift=    0.000
 Gap=     0.010 Goal=   None    Shift=    0.000
 RMSDP=3.29D-02 MaxDP=5.43D+00 DE=-1.18D-03 OVMax= 2.70D-02

 Cycle  23  Pass 1  IDiag  1:
 RMSU=  6.23D-03    CP:  9.45D-01  2.35D+00
 E= -806.878064441285     Delta-E=       -0.001347887791 Rises=F Damp=F
 DIIS: error= 1.03D-03 at cycle  23 NSaved=   9.
 NSaved= 9 IEnMin= 9 EnMin= -806.878064441285     IErMin= 9 ErrMin= 1.03D-03
 ErrMax= 1.03D-03  0.00D+00 EMaxC= 1.00D-01 BMatC= 2.26D-03 BMatP= 3.79D-03
 IDIUse=3 WtCom= 9.90D-01 WtEn= 1.03D-02
 EnCoef did    18 forward-backward iterations
 Coeff-Com:  0.208D-02-0.786D-03 0.191D-02 0.363D-01 0.436D-01-0.146D+00
 Coeff-Com: -0.102D+01-0.522D-01 0.214D+01
 Coeff-En:   0.000D+00 0.000D+00 0.000D+00 0.000D+00 0.175D+00 0.385D+00
 Coeff-En:   0.000D+00 0.000D+00 0.440D+00
 Coeff:      0.206D-02-0.778D-03 0.189D-02 0.359D-01 0.449D-01-0.141D+00
 Coeff:     -0.101D+01-0.517D-01 0.212D+01
 Gap=     0.012 Goal=   None    Shift=    0.000
 Gap=     0.012 Goal=   None    Shift=    0.000
 RMSDP=8.66D-02 MaxDP=1.43D+01 DE=-1.35D-03 OVMax= 7.60D-02

 Cycle  24  Pass 1  IDiag  1:
 RMSU=  3.42D-02    CP:  8.40D-01  3.00D+00  3.00D+00
 E= -806.879322369799     Delta-E=       -0.001257928513 Rises=F Damp=F
 DIIS: error= 1.07D-04 at cycle  24 NSaved=  10.
 NSaved=10 IEnMin=10 EnMin= -806.879322369799     IErMin=10 ErrMin= 1.07D-04
 ErrMax= 1.07D-04  0.00D+00 EMaxC= 1.00D-01 BMatC= 4.57D-05 BMatP= 2.26D-03
 IDIUse=3 WtCom= 9.99D-01 WtEn= 1.07D-03
 Coeff-Com:  0.809D-02 0.450D-03 0.449D-03 0.395D-02 0.229D-01-0.641D-01
 Coeff-Com: -0.493D+00-0.122D+00 0.116D+01 0.485D+00
 Coeff-En:   0.000D+00 0.000D+00 0.000D+00 0.000D+00 0.000D+00 0.000D+00
 Coeff-En:   0.000D+00 0.000D+00 0.820D-01 0.918D+00
 Coeff:      0.809D-02 0.449D-03 0.448D-03 0.395D-02 0.229D-01-0.640D-01
 Coeff:     -0.492D+00-0.122D+00 0.116D+01 0.485D+00
 Gap=     0.012 Goal=   None    Shift=    0.000
 Gap=     0.012 Goal=   None    Shift=    0.000
 RMSDP=1.39D-02 MaxDP=1.90D+00 DE=-1.26D-03 OVMax= 9.26D-03

 Cycle  25  Pass 1  IDiag  1:
 RMSU=  2.06D-03    CP:  8.58D-01  3.00D+00  2.63D+00  8.95D-01
 E= -806.879353609771     Delta-E=       -0.000031239972 Rises=F Damp=F
 DIIS: error= 3.38D-05 at cycle  25 NSaved=  11.
 NSaved=11 IEnMin=11 EnMin= -806.879353609771     IErMin=11 ErrMin= 3.38D-05
 ErrMax= 3.38D-05  0.00D+00 EMaxC= 1.00D-01 BMatC= 2.38D-06 BMatP= 4.57D-05
 IDIUse=1 WtCom= 1.00D+00 WtEn= 0.00D+00
 Coeff-Com:  0.383D-02 0.653D-03 0.440D-03-0.491D-02 0.128D-01-0.282D-01
 Coeff-Com: -0.193D+00-0.393D-01 0.463D+00 0.253D+00 0.532D+00
 Coeff:      0.383D-02 0.653D-03 0.440D-03-0.491D-02 0.128D-01-0.282D-01
 Coeff:     -0.193D+00-0.393D-01 0.463D+00 0.253D+00 0.532D+00
 Gap=     0.012 Goal=   None    Shift=    0.000
 Gap=     0.012 Goal=   None    Shift=    0.000
 RMSDP=6.22D-03 MaxDP=1.01D+00 DE=-3.12D-05 OVMax= 5.42D-03

 Cycle  26  Pass 1  IDiag  1:
 RMSU=  1.45D-03    CP:  8.63D-01  3.00D+00  2.12D+00  7.82D-01  1.41D+00
 E= -806.879356890558     Delta-E=       -0.000003280787 Rises=F Damp=F
 DIIS: error= 1.93D-05 at cycle  26 NSaved=  12.
 NSaved=12 IEnMin=12 EnMin= -806.879356890558     IErMin=12 ErrMin= 1.93D-05
 ErrMax= 1.93D-05  0.00D+00 EMaxC= 1.00D-01 BMatC= 5.82D-07 BMatP= 2.38D-06
 IDIUse=1 WtCom= 1.00D+00 WtEn= 0.00D+00
 Coeff-Com:  0.108D-02 0.159D-03 0.278D-03-0.337D-02 0.352D-02-0.109D-01
 Coeff-Com: -0.360D-01-0.412D-03 0.731D-01 0.456D-01 0.214D+00 0.713D+00
 Coeff:      0.108D-02 0.159D-03 0.278D-03-0.337D-02 0.352D-02-0.109D-01
 Coeff:     -0.360D-01-0.412D-03 0.731D-01 0.456D-01 0.214D+00 0.713D+00
 Gap=     0.012 Goal=   None    Shift=    0.000
 Gap=     0.012 Goal=   None    Shift=    0.000
 RMSDP=1.52D-03 MaxDP=2.46D-01 DE=-3.28D-06 OVMax= 1.63D-03

 Cycle  27  Pass 1  IDiag  1:
 RMSU=  5.50D-04    CP:  8.62D-01  3.00D+00  2.05D+00  8.10D-01  1.65D+00
                    CP:  1.31D+00
 E= -806.879357287818     Delta-E=       -0.000000397259 Rises=F Damp=F
 DIIS: error= 5.46D-06 at cycle  27 NSaved=  13.
 NSaved=13 IEnMin=13 EnMin= -806.879357287818     IErMin=13 ErrMin= 5.46D-06
 ErrMax= 5.46D-06  0.00D+00 EMaxC= 1.00D-01 BMatC= 7.26D-08 BMatP= 5.82D-07
 IDIUse=1 WtCom= 1.00D+00 WtEn= 0.00D+00
 Coeff-Com:  0.454D-04-0.894D-04 0.401D-04-0.108D-02 0.375D-03-0.133D-02
 Coeff-Com:  0.109D-01 0.701D-02-0.345D-01-0.149D-01 0.692D-02 0.440D+00
 Coeff-Com:  0.586D+00
 Coeff:      0.454D-04-0.894D-04 0.401D-04-0.108D-02 0.375D-03-0.133D-02
 Coeff:      0.109D-01 0.701D-02-0.345D-01-0.149D-01 0.692D-02 0.440D+00
 Coeff:      0.586D+00
 Gap=     0.012 Goal=   None    Shift=    0.000
 Gap=     0.012 Goal=   None    Shift=    0.000
 RMSDP=1.29D-03 MaxDP=1.42D-01 DE=-3.97D-07 OVMax= 1.04D-03

 Cycle  28  Pass 1  IDiag  1:
 RMSU=  3.85D-04    CP:  8.62D-01  3.00D+00  1.99D+00  8.21D-01  1.81D+00
                    CP:  1.57D+00  2.85D+00
 E= -806.879357388675     Delta-E=       -0.000000100858 Rises=F Damp=F
 DIIS: error= 9.23D-06 at cycle  28 NSaved=  14.
 NSaved=14 IEnMin=14 EnMin= -806.879357388675     IErMin=13 ErrMin= 5.46D-06
 ErrMax= 9.23D-06  0.00D+00 EMaxC= 1.00D-01 BMatC= 9.55D-08 BMatP= 7.26D-08
 IDIUse=1 WtCom= 1.00D+00 WtEn= 0.00D+00
 Coeff-Com: -0.252D-06-0.978D-04-0.217D-04-0.366D-03 0.159D-03-0.601D-03
 Coeff-Com:  0.588D-02 0.572D-02-0.202D-01-0.124D-01-0.245D-01 0.240D+00
 Coeff-Com:  0.403D+00 0.403D+00
 Coeff:     -0.252D-06-0.978D-04-0.217D-04-0.366D-03 0.159D-03-0.601D-03
 Coeff:      0.588D-02 0.572D-02-0.202D-01-0.124D-01-0.245D-01 0.240D+00
 Coeff:      0.403D+00 0.403D+00
 Gap=     0.012 Goal=   None    Shift=    0.000
 Gap=     0.012 Goal=   None    Shift=    0.000
 RMSDP=1.63D-03 MaxDP=1.48D-01 DE=-1.01D-07 OVMax= 1.07D-03

 Cycle  29  Pass 1  IDiag  1:
 RMSU=  1.34D-03    CP:  8.62D-01  3.00D+00  1.98D+00  8.26D-01  1.89D+00
                    CP:  1.74D+00  3.00D+00  2.86D+00
 E= -806.879357614302     Delta-E=       -0.000000225627 Rises=F Damp=F
 DIIS: error= 1.19D-05 at cycle  29 NSaved=  15.
 NSaved=15 IEnMin=15 EnMin= -806.879357614302     IErMin=13 ErrMin= 5.46D-06
 ErrMax= 1.19D-05  0.00D+00 EMaxC= 1.00D-01 BMatC= 9.62D-08 BMatP= 7.26D-08
 IDIUse=1 WtCom= 1.00D+00 WtEn= 0.00D+00
 Coeff-Com: -0.118D-03-0.153D-03-0.724D-04 0.161D-03-0.165D-03 0.445D-03
 Coeff-Com:  0.880D-02 0.631D-02-0.271D-01-0.186D-01-0.638D-01 0.185D+00
 Coeff-Com:  0.496D+00 0.101D+01-0.595D+00
 Coeff:     -0.118D-03-0.153D-03-0.724D-04 0.161D-03-0.165D-03 0.445D-03
 Coeff:      0.880D-02 0.631D-02-0.271D-01-0.186D-01-0.638D-01 0.185D+00
 Coeff:      0.496D+00 0.101D+01-0.595D+00
 Gap=     0.012 Goal=   None    Shift=    0.000
 Gap=     0.012 Goal=   None    Shift=    0.000
 RMSDP=2.48D-03 MaxDP=2.34D-01 DE=-2.26D-07 OVMax= 1.68D-03

 Cycle  30  Pass 1  IDiag  1:
 RMSU=  6.76D-05    CP:  8.61D-01  3.00D+00  1.99D+00  8.30D-01  1.82D+00
                    CP:  1.53D+00  1.56D+00 -2.83D-01 -1.63D-03
 E= -806.879357310435     Delta-E=        0.000000303866 Rises=F Damp=F
 DIIS: error= 8.12D-06 at cycle  30 NSaved=  16.
 NSaved=16 IEnMin=15 EnMin= -806.879357614302     IErMin=13 ErrMin= 5.46D-06
 ErrMax= 8.12D-06  0.00D+00 EMaxC= 1.00D-01 BMatC= 1.01D-07 BMatP= 7.26D-08
 IDIUse=1 WtCom= 1.00D+00 WtEn= 0.00D+00
 Coeff-Com: -0.110D-03-0.713D-04-0.979D-04 0.241D-03-0.296D-03 0.845D-03
 Coeff-Com:  0.388D-02 0.587D-02-0.115D-01-0.133D-01-0.556D-01-0.321D-01
 Coeff-Com:  0.815D-01 0.750D+00-0.758D+00 0.103D+01
 Coeff:     -0.110D-03-0.713D-04-0.979D-04 0.241D-03-0.296D-03 0.845D-03
 Coeff:      0.388D-02 0.587D-02-0.115D-01-0.133D-01-0.556D-01-0.321D-01
 Coeff:      0.815D-01 0.750D+00-0.758D+00 0.103D+01
 Gap=     0.012 Goal=   None    Shift=    0.000
 Gap=     0.012 Goal=   None    Shift=    0.000
 RMSDP=1.17D-03 MaxDP=1.34D-01 DE= 3.04D-07 OVMax= 8.74D-04

 Cycle  31  Pass 1  IDiag  1:
 RMSU=  4.91D-05    CP:  8.62D-01  3.00D+00  1.94D+00  8.27D-01  1.88D+00
                    CP:  1.57D+00  2.65D-02 -1.85D+00 -3.99D-03  2.63D+00
 E= -806.879357342998     Delta-E=       -0.000000032562 Rises=F Damp=F
 DIIS: error= 3.19D-06 at cycle  31 NSaved=  17.
 NSaved=17 IEnMin=15 EnMin= -806.879357614302     IErMin=17 ErrMin= 3.19D-06
 ErrMax= 3.19D-06  0.00D+00 EMaxC= 1.00D-01 BMatC= 2.13D-08 BMatP= 7.26D-08
 IDIUse=1 WtCom= 1.00D+00 WtEn= 0.00D+00
 Coeff-Com:  0.122D-04-0.925D-05-0.572D-04 0.190D-03-0.153D-03-0.783D-04
 Coeff-Com: -0.376D-02 0.277D-02 0.821D-02-0.279D-02-0.183D-01-0.918D-01
 Coeff-Com: -0.134D+00 0.180D+00-0.356D+00 0.800D+00 0.617D+00
 Coeff:      0.122D-04-0.925D-05-0.572D-04 0.190D-03-0.153D-03-0.783D-04
 Coeff:     -0.376D-02 0.277D-02 0.821D-02-0.279D-02-0.183D-01-0.918D-01
 Coeff:     -0.134D+00 0.180D+00-0.356D+00 0.800D+00 0.617D+00
 Gap=     0.012 Goal=   None    Shift=    0.000
 Gap=     0.012 Goal=   None    Shift=    0.000
 RMSDP=3.73D-04 MaxDP=4.00D-02 DE=-3.26D-08 OVMax= 2.94D-04

 Cycle  32  Pass 1  IDiag  1:
 RMSU=  7.28D-05    CP:  8.62D-01  3.00D+00  1.91D+00  8.26D-01  1.92D+00
                    CP:  1.62D+00 -2.43D-01 -2.30D+00 -5.61D-03  3.00D+00
                    CP:  3.00D+00
[...]
 00180,0.00000473,-0.00000271,-0.00000026,-0.00000199,-0.00000318,-0.00
 000295,-0.00000284,-0.00000191,-0.00000384,0.00000104,0.00000304,-0.00
 000077,-0.00000487,-0.00001136,0.00000822,0.00000047,0.00000193,-0.000
 00361,-0.00005483,-0.00028351,-0.00012086,0.00022668,0.00025367,-0.000
 06484,0.00026158,0.00026323,0.00006157,-0.00499688,-0.01497918,-0.0021
 1489,0.09002368,0.29238597,-0.00027475,-0.00004883,0.00007032,0.000358
 12,0.00010110,-0.00009547,-0.00016191,-0.00049379,-0.00006329,0.000221
 27,0.00051177,0.00002641,-0.00019577,0.00003745,-0.00003263,-0.0000204
 3,0.00015914,-0.00001355,0.00024330,0.00018925,-0.00005193,-0.00058332
 ,-0.00028455,-0.00001935,-0.00004392,-0.00001389,-0.00005078,0.0006170
 0,0.00065797,-0.00003965,0.00001917,-0.00000550,0.00000313,-0.00001920
 ,-0.00001338,0.00004621,0.00000714,0.00000770,0.00002089,0.00002794,-0
 .00001159,0.00001654,-0.00084901,-0.00255173,-0.00160553,-0.00063229,0
 .00006594,-0.00026555,-0.00764257,-0.02099339,-0.04902521,0.00004504,-
 0.00091724,-0.00013613,0.00000869,0.00004669,-0.00003446,0.00000064,-0
 .00000834,0.00000984,-0.00000906,0.00002057,0.00001456,0.00067757,-0.0
 0033297,0.00022696,0.00001387,0.00000221,0.00001701,0.00002683,0.00000
 909,-0.00002480,0.00000147,-0.00001121,-0.00000080,0.00001192,-0.00000
 377,-0.00000341,-0.00000047,-0.00000013,-0.00000658,-0.00001067,-0.000
 00099,-0.00000222,-0.00000242,0.00000290,-0.00001165,-0.00001013,-0.00
 001686,0.00000557,0.00000809,0.00000597,0.00000109,-0.00008524,-0.0002
 6675,0.00060272,-0.00005403,-0.00037580,0.00023473,-0.00003657,0.00044
 918,0.00034376,0.00931809,0.02474943,0.00325298,0.00891550,0.02349553,
 0.04829343,0.00022772,0.00011386,-0.00024238,-0.00044607,0.00019871,-0
 .00012544,0.00106559,0.00116794,0.00104995,-0.00130065,-0.00075315,0.0
 0009478,0.00036874,0.00020136,-0.00009320,-0.00020339,-0.00027206,0.00
 019141,-0.00025072,-0.00032012,0.00011934,0.00099980,0.00066020,-0.000
 16707,0.00030779,-0.00013329,0.00020664,-0.00869910,-0.00005290,0.0003
 5053,-0.00014598,0.00011485,-0.00009000,0.00007568,0.00005221,-0.00016
 382,-0.00007890,-0.00004581,-0.00009150,-0.00008589,0.00005240,-0.0000
 3257,-0.00847679,0.01282484,0.02660919,0.00118936,0.00115538,0.0011117
 2,-0.08706841,0.04178137,0.08118583,0.00118507,0.00009081,0.00101100,0
 .00003309,-0.00017377,0.00013054,-0.00007723,0.00003650,-0.00001354,-0
 .00002123,0.00004977,-0.00004811,-0.00007001,-0.00036132,-0.00020355,-
 0.00004892,-0.00000935,-0.00004271,-0.00007339,-0.00004502,0.00010507,
 -0.00002936,0.00004581,-0.00001016,-0.00003168,0.00002001,0.00001480,0
 .00002072,0.00001166,0.00004712,0.00003399,0.00001163,-0.00002000,-0.0
 0002244,-0.00002058,0.00001244,0.00006155,0.00004754,-0.00003654,-0.00
 000830,-0.00003945,0.00001623,0.00028901,0.00010342,-0.00032582,-0.000
 03200,-0.00005768,-0.00005548,-0.00002151,-0.00094043,-0.00076598,0.00
 289198,-0.00483840,-0.00688926,0.00392608,-0.00360523,-0.00959309,0.09
 448457,0.00024367,0.00040866,-0.00002707,-0.00013468,-0.00024804,0.000
 05031,-0.00068271,0.00179658,-0.00011983,-0.00074116,-0.00110597,0.000
 20060,0.00043378,-0.00002062,-0.00010667,0.00000481,-0.00047399,-0.000
 00593,-0.00034150,-0.00037420,0.00006862,0.00126094,0.00061732,-0.0001
 5729,0.00005965,0.00002188,0.00010782,0.00139747,-0.00043681,-0.000246
 59,-0.00001752,-0.00000143,-0.00000227,0.00002591,0.00002021,-0.000074
 87,-0.00005552,-0.00002135,-0.00006717,-0.00004025,0.00002481,-0.00002
 849,-0.00153775,-0.00195405,-0.00034254,-0.00045122,0.00022770,0.00061
 435,0.04294446,-0.08954529,-0.08423358,-0.00003812,-0.00006871,-0.0002
 7534,-0.00001897,-0.00008103,-0.00001971,0.00000120,0.00001930,0.00000
 762,0.00000707,-0.00001605,-0.00001742,-0.00048247,0.00091672,0.000392
 00,-0.00000752,-0.00000383,-0.00001063,-0.00003172,-0.00000910,0.00003
 387,-0.00000684,0.00001248,-0.00000072,-0.00000145,0.00000387,0.000011
 75,0.00000341,0.00001929,0.00001613,0.00001727,-0.00000106,-0.00000014
 ,0.00000166,-0.00000632,0.00001538,0.00001533,0.00001480,0.00000286,-0
 .00001444,-0.00000726,0.00000035,0.00016186,0.00007187,0.00014806,-0.0
 0002836,0.00000729,0.00007439,-0.00029024,0.00013739,-0.00010074,-0.00
 791079,0.00759889,0.01345321,0.01267534,-0.01150497,-0.02468451,-0.046
 74808,0.09393855,0.00062636,0.00113952,-0.00026129,-0.00077941,-0.0004
 1383,0.00033976,-0.00251582,0.00277290,0.00060734,-0.00118565,-0.00272
 678,-0.00003864,0.00104363,-0.00032833,-0.00021108,-0.00011400,-0.0012
 9314,0.00019194,-0.00099721,-0.00121183,0.00023339,0.00290762,0.001613
 79,-0.00040798,0.00031267,-0.00003562,0.00038332,0.00435254,-0.0015461
 3,0.00034179,-0.00019475,0.00008127,-0.00013192,0.00012430,0.00006599,
 -0.00025183,-0.00013470,-0.00007209,-0.00015818,-0.00014031,0.00012147
 ,-0.00009074,-0.00421513,0.00197423,-0.00004044,-0.00011371,0.00002082
 ,-0.00013251,0.08415405,-0.08471502,-0.21159598,-0.00049100,0.00016008
 ,0.00009947,-0.00006982,-0.00028306,0.00006068,0.00004445,0.00001673,0
 .00003319,0.00000104,0.00001401,-0.00005658,-0.00069416,0.00104892,-0.
 00020838,-0.00006539,-0.00001711,-0.00004796,-0.00011786,-0.00006209,0
 .00014426,-0.00004936,0.00007006,-0.00001172,-0.00003643,0.00002679,0.
 00003551,0.00002594,0.00003234,0.00006795,0.00005985,0.00001245,-0.000
 02697,-0.00002125,-0.00003044,0.00004343,0.00008268,0.00005846,-0.0000
 2583,-0.00003626,-0.00005713,0.00000542,0.00015689,0.00040024,0.000427
 27,-0.00009263,-0.00009396,0.00007133,0.00005278,0.00026238,0.00015431
 ,0.00996538,-0.01135007,-0.01923895,0.00001176,-0.00061500,-0.00189307
 ,-0.09205229,0.09488697,0.23110191,0.00000442,-0.00040718,0.00020507,0
 .00013820,0.00005176,0.00038529,0.00077820,-0.00098409,0.00054793,0.00
 086313,0.00097378,0.00012654,-0.00033502,0.00002346,0.00006272,0.00010
 146,0.00041478,-0.00007339,0.00020838,0.00034688,-0.00008905,-0.001073
 23,-0.00080328,0.00020506,-0.00015193,0.00005467,-0.00014259,-0.000945
 30,0.00060499,0.00060774,0.00007814,-0.00005258,0.00004329,-0.00004624
 ,-0.00002403,0.00009848,0.00007772,0.00003535,0.00006599,0.00007017,-0
 .00004439,0.00004226,-0.00997507,0.00005069,-0.00181159,0.00035020,-0.
 00065602,0.00049231,0.00045632,0.00166953,-0.00237148,-0.30662491,0.01
 129233,-0.01086569,0.00000786,0.00009556,-0.00011771,0.00000113,-0.000
 01620,-0.00001867,0.00001090,-0.00002969,0.00002359,-0.00005139,-0.000
 00394,0.00002605,0.00002651,0.00000461,0.00002008,0.00003808,0.0000238
 4,-0.00005325,0.00001822,-0.00002620,0.00001128,0.00000706,-0.00000784
 ,-0.00000884,-0.00001306,-0.00001838,-0.00002791,-0.00002400,-0.000006
 98,0.00001145,0.00001577,0.00001326,-0.00000739,-0.00005593,-0.0000012
 4,0.00000855,0.00001574,0.00002356,-0.00000246,0.00048386,0.00042931,-
 0.00003617,0.00029385,-0.00002992,-0.00011362,-0.00004183,0.00005867,0
 .00004724,-0.00051184,-0.00002710,0.00006764,0.00033882,-0.00010215,0.
 00008465,0.00027403,0.00003782,0.00043785,0.33385664,-0.00015440,0.000
 16618,-0.00001861,0.00004574,-0.00013307,-0.00012321,-0.00017437,0.000
 25549,-0.00018130,0.00011033,0.00042002,0.00012076,0.00028506,-0.00002
 787,0.00013306,0.00001921,-0.00004806,-0.00003938,-0.00000101,-0.00012
 198,-0.00002594,-0.00022748,-0.00041561,0.00015870,0.00003616,-0.00007
 109,0.00001381,-0.00044489,0.00004289,-0.00156396,-0.00001921,0.000024
 58,-0.00002805,0.00001544,-0.00001232,0.00002440,0.00001693,0.00000373
 ,0.00000301,0.00005164,0.00003809,-0.00003553,0.01768237,-0.00219750,0
 .00078049,0.00108929,0.00087723,-0.00056026,0.00040579,-0.00171665,0.0
 0261979,0.01139368,-0.04625856,0.00006227,0.00000440,-0.00006786,0.000
 09365,-0.00001067,-0.00001533,-0.00004290,-0.00001318,0.00002538,-0.00
 000664,-0.00006698,0.00004207,0.00012245,-0.00000286,-0.00000645,0.000
 00850,-0.00000011,0.00000217,-0.00000398,-0.00001017,0.00000802,-0.000
 00233,-0.00001325,0.00000078,0.00000200,-0.00000378,-0.00000054,0.0000
 0604,-0.00000356,-0.00000962,-0.00001466,-0.00003984,-0.00000679,0.000
 00408,0.00000966,-0.00001427,0.00001835,-0.00000563,-0.00000657,0.0000
 0637,-0.00039320,-0.00044009,0.00029998,-0.00028077,0.00022903,-0.0001
 2774,0.00003633,-0.00002664,0.00010565,0.00108540,0.00042992,0.0003669
 1,0.00027359,0.00027040,0.00016560,-0.00031662,-0.00002931,0.00008504,
 -0.01368866,0.04869697,-0.00067418,0.00012795,0.00007472,0.00177909,0.
 00071686,-0.00046264,-0.00051476,-0.00143118,0.00033774,0.00020913,0.0
 0004060,-0.00025958,-0.00007635,0.00008693,0.00003767,-0.00019431,0.00
 018580,0.00002199,0.00057848,0.00032421,-0.00013279,-0.00026979,-0.000
 26677,0.00007497,0.00006927,-0.00010988,0.00001345,0.00003019,-0.00004
 433,0.00161620,-0.00003481,0.00006672,-0.00004197,0.00000181,-0.000004
 92,0.00000783,-0.00002961,-0.00001608,0.00000250,-0.00001697,0.0000046
 9,-0.00000494,-0.02745061,0.00079694,-0.00128950,-0.00016758,-0.001251
 23,0.00055867,-0.00073759,0.00274268,-0.00448402,-0.00825947,-0.000080
 22,-0.04557031,0.00001437,0.00003416,-0.00001994,-0.00000440,-0.000020
 55,0.00000876,-0.00003607,0.00009470,-0.00000770,-0.00006681,0.0000195
 0,-0.00005504,-0.00000331,-0.00000340,0.00000316,0.00001557,-0.0000028
 5,-0.00000096,-0.00000282,0.00000405,-0.00000649,-0.00000176,0.0000007
 7,-0.00000490,0.00001275,0.00000476,0.00001070,-0.00000262,0.00000609,
 -0.00001743,-0.00002396,-0.00000793,-0.00002082,0.00004995,-0.00000518
 ,0.00002124,0.00000573,-0.00001000,0.00000518,0.00030110,0.00037330,0.
 00022136,0.00014692,-0.00026714,-0.00003214,0.00010424,0.00002726,0.00
 008185,-0.00194399,0.00051908,-0.00060217,0.00038183,-0.00001177,-0.00
 000520,-0.00000294,0.00022741,0.00039607,0.01214424,-0.00269750,0.0489
 9503,-0.00014432,-0.00015215,0.00007916,0.00064930,0.00030632,-0.00008
 288,0.00040867,-0.00095366,0.00096192,0.00040474,0.00054678,0.00009933
 ,-0.00016022,0.00007595,0.00005050,0.00002235,0.00028979,-0.00005772,0
 .00026552,0.00024433,-0.00006933,-0.00068697,-0.00066258,-0.00001563,-
 0.00001337,-0.00003780,-0.00007413,-0.00048062,0.00115665,-0.00238015,
 0.00002264,-0.00000201,0.00003235,-0.00002862,-0.00000405,0.00005259,0
 .00005631,0.00002242,0.00004226,0.00005559,-0.00002543,0.00001659,0.00
 122435,-0.00420172,-0.00739417,0.00002716,-0.00007613,0.00026691,0.000
 24811,-0.00037967,-0.00020529,-0.07468115,0.03544260,0.06979759,0.0000
 1523,0.00004833,-0.00005659,-0.00001150,-0.00001021,-0.00001105,-0.000
 01046,0.00001879,0.00000477,0.00010520,-0.00004362,0.00027162,0.000006
 72,0.00000448,0.00000176,0.00002275,0.00000436,-0.00002286,0.00000094,
 -0.00000646,0.00000475,-0.00001004,0.00000295,-0.00000655,-0.00000017,
 -0.00002003,-0.00001478,-0.00001185,-0.00000722,0.00000255,-0.00000658
 ,0.00000309,-0.00001609,0.00000327,-0.00001333,-0.00000505,0.00000387,
 0.00000159,-0.00000532,-0.00015260,0.00007614,0.00010335,-0.00002975,-
 0.00028226,-0.00000503,0.00028571,-0.00012798,0.00007395,0.00019298,-0
 .00020217,0.00030586,-0.00002300,0.00002039,-0.00013216,-0.00018808,0.
 00027197,-0.00018032,-0.00817949,0.01422706,0.02710950,0.07725703,0.00
 034480,0.00046786,-0.00015768,-0.00061852,-0.00017307,-0.00006940,0.00
 002517,0.00138727,-0.00021272,-0.00179555,-0.00203013,0.00009872,0.000
 74690,0.00000638,-0.00006031,-0.00005927,-0.00068884,0.00010000,-0.000
 52208,-0.00052361,0.00013056,0.00220906,0.00118659,-0.00117014,0.00005
 008,0.00006975,0.00015672,0.00090226,-0.00012297,0.00432075,-0.0000475
 1,-0.00000371,-0.00003654,0.00004008,0.00002236,-0.00010198,-0.0000898
 6,-0.00003319,-0.00008724,-0.00007108,0.00005014,-0.00004166,-0.006304
 81,0.00633308,0.01171874,-0.00014950,0.00035529,0.00021130,-0.00022045
 ,0.00024411,-0.00033448,0.03599924,-0.09434664,-0.08938842,-0.00001903
 ,-0.00012841,0.00007797,-0.00001426,0.00003949,-0.00000905,0.00001644,
 -0.00002165,-0.00001244,0.00003477,0.00000644,0.00043975,-0.00001296,-
 0.00000615,-0.00001054,-0.00004023,-0.00001489,0.00004073,-0.00000540,
 0.00001473,-0.00000016,0.00001140,-0.00000080,0.00001946,0.00000309,0.
 00002854,0.00002225,0.00002029,0.00000402,-0.00000134,0.00000470,-0.00
 000908,0.00002718,0.00002226,0.00001762,0.00001036,-0.00002427,-0.0000
 1464,-0.00000610,-0.00004913,-0.00002240,0.00006727,-0.00006302,0.0004
 2997,-0.00030110,0.00003725,-0.00041756,0.00025822,-0.00035348,0.00013
 559,-0.00009392,0.00004894,-0.00003700,0.00002193,-0.00004152,0.000139
 87,-0.00008820,0.00022685,-0.00162066,-0.00027539,-0.04193492,0.099672
 07,0.00060399,0.00097866,-0.00023243,-0.00059317,-0.00047801,0.0004829
 9,-0.00396663,0.00374809,0.00014715,-0.00118785,-0.00251547,-0.0000110
 5,0.00088606,-0.00020745,-0.00003358,0.00012073,-0.00113323,0.00004414
 ,-0.00095523,-0.00103112,0.00026272,0.00244549,0.00130152,-0.00038683,
 0.00006164,0.00008467,0.00020927,0.00088398,0.00142384,-0.00729293,-0.
 00006076,-0.00002376,-0.00002351,0.00006475,0.00003054,-0.00014659,-0.
 00006890,-0.00003054,-0.00009064,-0.00007616,0.00007040,-0.00006605,0.
 01053622,-0.01437960,-0.01789632,0.00042776,-0.00121921,0.00057892,0.0
 0114349,-0.00072382,0.00049765,0.06951139,-0.08821944,-0.21422203,-0.0
 0007385,-0.00021175,0.00003128,0.00001947,0.00002538,-0.00003300,0.000
 02415,-0.00005084,-0.00002653,0.00017016,0.00104980,0.00056873,-0.0000
 2981,-0.00000830,-0.00001935,-0.00007120,-0.00002872,0.00007244,-0.000
 02186,0.00003419,-0.00000406,-0.00001123,0.00001079,0.00002273,-0.0000
 0025,0.00002417,0.00002807,0.00003573,0.00000015,-0.00000519,0.0000009
 1,-0.00001225,0.00003708,0.00003078,0.00002336,0.00000749,-0.00002991,
 -0.00001790,-0.00000541,0.00013673,0.00011354,0.00005844,-0.00037223,0
 .00010231,0.00045197,-0.00023380,0.00096907,0.00030994,-0.00018002,0.0
 0041232,0.00051765,-0.00015981,0.00010993,0.00010604,-0.00110403,0.000
 32179,0.00005487,0.00018529,0.00112317,0.00115367,-0.07793241,0.099055
 65,0.23627165,0.00020689,0.00018277,-0.00011092,-0.00017263,0.00014362
 ,0.00010302,-0.00037984,0.00055719,0.00027107,-0.00190052,-0.00179539,
 0.00027433,0.00054466,0.00004463,-0.00001720,-0.00010416,-0.00038108,-
 0.00000654,-0.00020004,-0.00014308,0.00008300,0.00182375,0.00115833,-0
 .00139408,0.00002198,0.00008389,0.00008538,0.00031582,-0.00041611,0.00
 092878,-0.00002666,-0.00003717,-0.00001077,0.00002036,0.00000962,-0.00
 004335,-0.00005476,-0.00000755,-0.00001340,-0.00001661,0.00004215,-0.0
 0001457,0.00151578,0.00898157,0.00048440,-0.00022050,0.00104223,-0.001
 11925,0.00085801,0.00103475,0.00030036,-0.07830814,-0.08589071,-0.0052
 5833,0.00000307,-0.00001350,-0.00000425,-0.00001592,0.00004651,0.00000
 764,0.00001348,-0.00002669,-0.00000902,0.00013292,-0.00025081,0.000111
 37,0.00000054,0.00000311,-0.00000201,-0.00002411,-0.00000128,0.0000100
 4,-0.00001102,0.00001273,-0.00000864,0.00000655,0.00000199,0.00000264,
 -0.00000432,0.00001537,0.00000529,0.00001221,-0.00000488,-0.00000649,0
 .00001383,0.00000422,-0.00000035,0.00000157,-0.00003472,0.00001687,-0.
 00002286,0.00000792,-0.00000584,0.00029472,0.00026101,-0.00005564,0.00
 057782,0.00042756,-0.00021820,-0.00002435,-0.00024526,-0.00026712,0.00
 005807,-0.00013347,0.00026360,-0.00009864,-0.00003587,-0.00024927,-0.0
 0005473,0.00001771,-0.00006231,-0.01048558,-0.03091743,-0.00243946,0.0
 0354033,0.01169326,-0.00015962,0.08216305,-0.00007656,0.00002112,0.000
 03370,0.00023794,-0.00002632,-0.00000423,-0.00021510,-0.00004062,0.000
 32508,-0.00008409,-0.00014005,0.00004019,-0.00006214,0.00004026,0.0000
 2112,-0.00002982,0.00006060,-0.00000469,0.00008661,0.00008104,-0.00001
 149,0.00020151,-0.00026099,-0.00036423,0.00002159,0.00000254,0.0000068
 0,0.00035779,0.00139961,-0.00122401,-0.00001380,0.00000729,-0.00002268
 ,0.00000181,0.00000539,-0.00000844,-0.00001168,-0.00000513,-0.00000981
 ,-0.00001008,0.00000445,0.00000479,-0.00623168,-0.01741232,-0.00176369
 ,0.00177170,-0.00062910,0.00382712,-0.00098154,0.00033697,-0.00091317,
 -0.08697244,-0.27337517,-0.01434023,0.00002274,0.00006145,-0.00005086,
 -0.00001237,0.00000453,0.00000903,-0.00000102,0.00000795,-0.00000160,-
 0.00010194,0.00031572,0.00067084,0.00000013,-0.00000094,-0.00000110,0.
 00000004,-0.00000057,0.00000450,0.00000145,-0.00000110,0.00000310,0.00
 000052,0.00000249,0.00000264,0.00000141,0.00000437,0.00000235,0.000003
 06,-0.00000054,0.00000230,0.00000521,-0.00000030,-0.00000166,0.0000018
 2,-0.00000156,0.00000011,-0.00000236,-0.00000154,0.00000114,0.00005302
 ,0.00022946,-0.00013282,-0.00037337,-0.00123313,0.00023541,0.00005900,
 0.00037256,-0.00011506,0.00003638,0.00047070,-0.00007979,0.00084138,0.
 00056700,0.00033582,0.00003451,-0.00008810,0.00007537,0.00049816,0.001
 71390,0.00010189,-0.00362060,-0.01039575,-0.00072189,0.09456284,0.2979
 0383,-0.00022222,-0.00033562,0.00005768,0.00023047,0.00012085,-0.00004
 166,0.00046744,-0.00085097,-0.00011900,0.00162747,0.00141999,-0.000409
 34,-0.00066715,-0.00007169,-0.00000613,-0.00002159,0.00045497,0.000011
 65,0.00028241,0.00021526,-0.00005762,-0.00169084,-0.00088749,0.0009585
 0,0.00008216,-0.00012601,-0.00002194,-0.00043735,0.00007909,0.00238462
 ,-0.00002891,0.00006120,-0.00005796,0.00000320,0.00000455,0.00001124,0
 .00000395,-0.00000634,0.00001209,-0.00001368,-0.00000270,0.00002069,0.
 00989198,0.02555572,0.00100619,-0.00169138,0.00216779,-0.00454972,0.00
 117869,0.00007440,0.00074156,-0.00619104,-0.01786158,-0.04771636,-0.00
 002075,-0.00002385,0.00001405,0.00000618,-0.00002483,0.00002395,-0.000
 02082,0.00004248,0.00000216,-0.00019703,-0.00012632,-0.00085786,-0.000
 00805,-0.00000313,-0.00000583,0.00001351,-0.00000611,0.00001369,0.0000
 0003,-0.00000111,-0.00000065,-0.00000401,0.00000464,-0.00000518,0.0000
 0908,-0.00000524,0.00000763,0.00000140,0.00000707,-0.00000243,-0.00000
 143,-0.00000349,-0.00000734,0.00000821,0.00001015,-0.00001650,0.000016
 43,-0.00001026,0.00001444,-0.00009313,-0.00027239,-0.00011419,0.000300
 89,0.00195969,0.00007572,-0.00028235,0.00021917,0.00033910,0.00030438,
 -0.00025954,0.00000293,-0.00045726,-0.00030364,0.00008908,-0.00008714,
 -0.00011195,0.00003683,-0.00021081,-0.00085212,-0.00062419,-0.01060979
 ,-0.02431876,-0.00141940,0.00852884,0.01406812,0.05020950\\0.00000861,
 -0.00000975,-0.00000193,-0.00001381,-0.00000504,0.00000430,0.00001645,
 0.00000517,-0.00000316,0.00003617,0.00001093,-0.00000925,-0.00002585,-
 0.00000625,0.00000196,0.00000554,0.00000654,-0.00000139,-0.00000498,-0
 .00000314,0.00000075,-0.00001777,-0.00001037,0.00000487,0.00000560,-0.
 00000805,0.00000632,-0.00000988,0.00001521,-0.00000074,-0.00000462,-0.
 00000100,-0.00001030,-0.00000260,-0.00000319,0.00000054,0.00000003,0.0
 0000475,0.00000732,0.00000465,-0.00000547,0.00000232,0.00000126,-0.000
 00024,0.00000041,0.00000127,0.00000322,0.00000846,-0.00000129,0.000001
 47,0.00000492,0.00000460,-0.00000093,0.00000247,-0.00000107,0.00000060
 ,-0.00000005,0.00000427,0.00000241,0.00000333,-0.00000197,0.00000901,0
 .00000278,-0.00000141,-0.00001225,0.00000054,0.00000161,0.00000115,-0.
 00000206,0.00000141,-0.00000050,-0.00000130,0.00000028,-0.00000019,-0.
 00000034,-0.00000024,-0.00000158,-0.00000089,0.00000013,-0.00000049,-0
 .00000115,-0.00000045,-0.00000250,-0.00000022,0.00000057,0.00000338,-0
 .00000017,-0.00000275,0.00000187,0.00000011,-0.00000298,0.00000334,-0.
 00000651,-0.00000094,-0.00000055,-0.00000344,-0.00000007,0.00000097,-0
 .00000191,0.00000109,-0.00000068,-0.00000390,0.00000059,-0.00000044,-0
 .00000068,0.00000080,-0.00000046,0.00000003,0.00000011,-0.00000011,-0.
 00000012,-0.00000128,-0.00000142,0.00000154,-0.00000206,0.00000399,-0.
 00000251,0.00000099,0.00000059,-0.00000096\\\@


 O WAD SOME POWER THE GIFTIE GIE US       
 TO SEE OURSELS AS OTHERS SEE US.....     
 IT WOULD FRAE MONIE A BLUNDER FREE US,   
                     AND FOOLISH NOTION...
 WHAT AIRS IN DRESS AND GAIT WAD LEA'E US,
                     AND EV'N DEVOTION....
                                          
              (ROBERT BURNS 'TO A LOUSE') 
 Job cpu time:       0 days 18 hours 59 minutes  3.7 seconds.
 Elapsed time:       0 days  2 hours 23 minutes 56.3 seconds.
 File lengths (MBytes):  RWF=   2120 Int=      0 D2E=      0 Chk=     35 Scr=      1
 Normal termination of Gaussian 16 at Wed Jan 17 16:31:39 2024.
