 Entering Gaussian System, Link 0=g16
 Input=004-PCM.com
 Output=004-PCM.log
 Initial command:
 /sysapps/ubuntu-applications/gaussian/Gaussian/AVX2/g16/l1.exe "/scratch/selhajj1/4304215/Gau-2959929.inp" -scrdir="/scratch/selhajj1/4304215/"
 Entering Link 1 = /sysapps/ubuntu-applications/gaussian/Gaussian/AVX2/g16/l1.exe PID=   2959931.
  
 Copyright (c) 1988,1990,1992,1993,1995,1998,2003,2009,2016,
            Gaussian, Inc.  All Rights Reserved.
  
 This is part of the Gaussian(R) 16 program.  It is based on
 the Gaussian(R) 09 system (copyright 2009, Gaussian, Inc.),
 the Gaussian(R) 03 system (copyright 2003, Gaussian, Inc.),
 the Gaussian(R) 98 system (copyright 1998, Gaussian, Inc.),
 the Gaussian(R) 94 system (copyright 1995, Gaussian, Inc.),
 the Gaussian 92(TM) system (copyright 1992, Gaussian, Inc.),
 the Gaussian 90(TM) system (copyright 1990, Gaussian, Inc.),
 the Gaussian 88(TM) system (copyright 1988, Gaussian, Inc.),
 the Gaussian 86(TM) system (copyright 1986, Carnegie Mellon
 University), and the Gaussian 82(TM) system (copyright 1983,
 Carnegie Mellon University). Gaussian is a federally registered
 trademark of Gaussian, Inc.
  
 This software contains proprietary and confidential information,
 including trade secrets, belonging to Gaussian, Inc.
  
 This software is provided under written license and may be
 used, copied, transmitted, or stored only in accord with that
 written license.
  
 The following legend is applicable only to US Government
 contracts under FAR:
  
                    RESTRICTED RIGHTS LEGEND
  
 Use, reproduction and disclosure by the US Government is
 subject to restrictions as set forth in subparagraphs (a)
 and (c) of the Commercial Computer Software - Restricted
 Rights clause in FAR 52.227-19.
  
 Gaussian, Inc.
 340 Quinnipiac St., Bldg. 40, Wallingford CT 06492
  
  
 ---------------------------------------------------------------
 Warning -- This program may not be used in any manner that
 competes with the business of Gaussian, Inc. or will provide
 assistance to any competitor of Gaussian, Inc.  The licensee
 of this program is prohibited from giving any competitor of
 Gaussian, Inc. access to this program.  By using this program,
 the user acknowledges that Gaussian, Inc. is engaged in the
 business of creating and licensing software in the field of
 computational chemistry and represents and warrants to the
 licensee that it is not a competitor of Gaussian, Inc. and that
 it will not use this program in any manner prohibited above.
 ---------------------------------------------------------------
  

 Cite this work as:
 Gaussian 16, Revision A.03,
 M. J. Frisch, G. W. Trucks, H. B. Schlegel, G. E. Scuseria, 
 M. A. Robb, J. R. Cheeseman, G. Scalmani, V. Barone, 
 G. A. Petersson, H. Nakatsuji, X. Li, M. Caricato, A. V. Marenich, 
 J. Bloino, B. G. Janesko, R. Gomperts, B. Mennucci, H. P. Hratchian, 
 J. V. Ortiz, A. F. Izmaylov, J. L. Sonnenberg, D. Williams-Young, 
 F. Ding, F. Lipparini, F. Egidi, J. Goings, B. Peng, A. Petrone, 
 T. Henderson, D. Ranasinghe, V. G. Zakrzewski, J. Gao, N. Rega, 
 G. Zheng, W. Liang, M. Hada, M. Ehara, K. Toyota, R. Fukuda, 
 J. Hasegawa, M. Ishida, T. Nakajima, Y. Honda, O. Kitao, H. Nakai, 
 T. Vreven, K. Throssell, J. A. Montgomery, Jr., J. E. Peralta, 
 F. Ogliaro, M. J. Bearpark, J. J. Heyd, E. N. Brothers, K. N. Kudin, 
 V. N. Staroverov, T. A. Keith, R. Kobayashi, J. Normand, 
 K. Raghavachari, A. P. Rendell, J. C. Burant, S. S. Iyengar, 
 J. Tomasi, M. Cossi, J. M. Millam, M. Klene, C. Adamo, R. Cammi, 
 J. W. Ochterski, R. L. Martin, K. Morokuma, O. Farkas, 
 J. B. Foresman, and D. J. Fox, Gaussian, Inc., Wallingford CT, 2016.
 
 ******************************************
 Gaussian 16:  ES64L-G16RevA.03 25-Dec-2016
                21-Jan-2024 
 ******************************************
 %chk=004-PCM.chk
 %nproc=8
 Will use up to    8 processors via shared memory.
 %mem=30GB
 ----------------------------------------------------------------
 #P UB3LYP/6-311++G(d,p) SCRF=(PCM,Solvent=n,n-DiMethylFormamide)
 ----------------------------------------------------------------
 1/38=1,172=1/1;
 2/12=2,17=6,18=5,40=1/2;
 3/5=4,6=6,7=1111,11=2,25=1,30=1,70=2201,72=148,74=-5,116=2/1,2,3;
 4//1;
 5/5=2,38=5,53=148/2;
 6/7=2,8=2,9=2,10=2,28=1/1;
 99/5=1,9=1/99;
 Leave Link    1 at Sun Jan 21 06:40:43 2024, MaxMem=  4026531840 cpu:               0.5 elap:               0.1
 (Enter /sysapps/ubuntu-applications/gaussian/Gaussian/AVX2/g16/l101.exe)
 ------------------
 Quinone PCM in DMF
 ------------------
 Symbolic Z-matrix:
 Charge =  0 Multiplicity = 1
 C                    -1.07437   1.57106   1.01419 
 C                    -2.39319   0.90357   0.92071 
 C                    -2.71919  -0.0454    0.02245 
 C                    -1.6522   -0.45408  -0.96039 
 C                    -0.32061   0.20184  -0.88605 
 C                    -0.03861   1.14119   0.02323 
 Br                    1.65861   1.97963   0.12129 
 C                    -4.09685  -0.71056  -0.04044 
 C                    -4.74299  -0.44066  -1.42293 
 C                    -5.03818  -0.1553    1.04432 
 C                    -3.94957  -2.2367    0.18495 
 O                    -0.86108   2.42021   1.85618 
 O                    -1.83354  -1.30265  -1.81773 
 H                    -3.0953    1.25869   1.66367 
 H                     0.39894  -0.13792  -1.62059 
 H                    -4.85297   0.63344  -1.59901 
 H                    -5.74134  -0.88657  -1.44768 
 H                    -4.15616  -0.86986  -2.23344 
 H                    -5.21165   0.91815   0.92813 
 H                    -4.6565   -0.33754   2.05278 
 H                    -6.00692  -0.65419   0.96537 
 H                    -3.34592  -2.70307  -0.59198 
 H                    -4.94026  -2.69992   0.17524 
 H                    -3.49342  -2.44501   1.15723 
 
 ITRead=  0  0  0  0  0  0  0  0  0  0  0  0  0  0  0  0  0  0  0  0
 ITRead=  0  0  0  0
 MicOpt= -1 -1 -1 -1 -1 -1 -1 -1 -1 -1 -1 -1 -1 -1 -1 -1 -1 -1 -1 -1
 MicOpt= -1 -1 -1 -1
 NAtoms=     24 NQM=       24 NQMF=       0 NMMI=      0 NMMIF=      0
                NMic=       0 NMicF=      0.
                    Isotopes and Nuclear Properties:
 (Nuclear quadrupole moments (NQMom) in fm**2, nuclear magnetic moments (NMagM)
  in nuclear magnetons)

  Atom         1           2           3           4           5           6           7           8           9          10
 IAtWgt=          12          12          12          12          12          12          79          12          12          12
 AtmWgt=  12.0000000  12.0000000  12.0000000  12.0000000  12.0000000  12.0000000  78.9183361  12.0000000  12.0000000  12.0000000
 NucSpn=           0           0           0           0           0           0           3           0           0           0
 AtZEff=  -0.0000000  -0.0000000  -0.0000000  -0.0000000  -0.0000000  -0.0000000  -0.0000000  -0.0000000  -0.0000000  -0.0000000
 NQMom=    0.0000000   0.0000000   0.0000000   0.0000000   0.0000000   0.0000000  31.3000000   0.0000000   0.0000000   0.0000000
 NMagM=    0.0000000   0.0000000   0.0000000   0.0000000   0.0000000   0.0000000   2.1063990   0.0000000   0.0000000   0.0000000
 AtZNuc=   6.0000000   6.0000000   6.0000000   6.0000000   6.0000000   6.0000000  35.0000000   6.0000000   6.0000000   6.0000000

  Atom        11          12          13          14          15          16          17          18          19          20
 IAtWgt=          12          16          16           1           1           1           1           1           1           1
 AtmWgt=  12.0000000  15.9949146  15.9949146   1.0078250   1.0078250   1.0078250   1.0078250   1.0078250   1.0078250   1.0078250
 NucSpn=           0           0           0           1           1           1           1           1           1           1
 AtZEff=  -0.0000000  -0.0000000  -0.0000000  -0.0000000  -0.0000000  -0.0000000  -0.0000000  -0.0000000  -0.0000000  -0.0000000
 NQMom=    0.0000000   0.0000000   0.0000000   0.0000000   0.0000000   0.0000000   0.0000000   0.0000000   0.0000000   0.0000000
 NMagM=    0.0000000   0.0000000   0.0000000   2.7928460   2.7928460   2.7928460   2.7928460   2.7928460   2.7928460   2.7928460
 AtZNuc=   6.0000000   8.0000000   8.0000000   1.0000000   1.0000000   1.0000000   1.0000000   1.0000000   1.0000000   1.0000000

  Atom        21          22          23          24
 IAtWgt=           1           1           1           1
 AtmWgt=   1.0078250   1.0078250   1.0078250   1.0078250
 NucSpn=           1           1           1           1
 AtZEff=  -0.0000000  -0.0000000  -0.0000000  -0.0000000
 NQMom=    0.0000000   0.0000000   0.0000000   0.0000000
 NMagM=    2.7928460   2.7928460   2.7928460   2.7928460
 AtZNuc=   1.0000000   1.0000000   1.0000000   1.0000000
 Leave Link  101 at Sun Jan 21 06:40:44 2024, MaxMem=  4026531840 cpu:               0.8 elap:               0.2
 (Enter /sysapps/ubuntu-applications/gaussian/Gaussian/AVX2/g16/l202.exe)
                          Input orientation:                          
 ---------------------------------------------------------------------
 Center     Atomic      Atomic             Coordinates (Angstroms)
 Number     Number       Type             X           Y           Z
 ---------------------------------------------------------------------
      1          6           0       -1.074371    1.571055    1.014194
      2          6           0       -2.393189    0.903566    0.920709
      3          6           0       -2.719188   -0.045396    0.022449
      4          6           0       -1.652199   -0.454080   -0.960391
      5          6           0       -0.320607    0.201843   -0.886052
      6          6           0       -0.038607    1.141194    0.023227
      7         35           0        1.658609    1.979626    0.121287
      8          6           0       -4.096845   -0.710561   -0.040435
      9          6           0       -4.742991   -0.440661   -1.422925
     10          6           0       -5.038176   -0.155304    1.044321
     11          6           0       -3.949572   -2.236702    0.184946
     12          8           0       -0.861075    2.420213    1.856176
     13          8           0       -1.833539   -1.302645   -1.817730
     14          1           0       -3.095298    1.258691    1.663674
     15          1           0        0.398941   -0.137921   -1.620588
     16          1           0       -4.852971    0.633440   -1.599007
     17          1           0       -5.741343   -0.886571   -1.447682
     18          1           0       -4.156156   -0.869863   -2.233436
     19          1           0       -5.211652    0.918151    0.928131
     20          1           0       -4.656501   -0.337543    2.052783
     21          1           0       -6.006916   -0.654191    0.965371
     22          1           0       -3.345919   -2.703067   -0.591980
     23          1           0       -4.940255   -2.699917    0.175240
     24          1           0       -3.493421   -2.445007    1.157228
 ---------------------------------------------------------------------
                    Distance matrix (angstroms):
                    1          2          3          4          5
     1  C    0.000000
     2  C    1.481068   0.000000
     3  C    2.510358   1.346728   0.000000
     4  C    2.886874   2.435325   1.507137   0.000000
     5  C    2.460455   2.837675   2.576760   1.486236   0.000000
     6  C    1.496530   2.531007   2.931469   2.473072   1.337420
     7  Br   2.904030   4.267792   4.824478   4.249047   2.844739
     8  C    3.931077   2.536069   1.531123   2.624575   3.975868
     9  C    4.842037   3.580661   2.518158   3.125238   4.500947
    10  C    4.323537   2.851744   2.536535   3.946261   5.109731
    11  C    4.842876   3.581195   2.518347   3.125294   4.501436
    12  O    1.214701   2.350040   3.590873   4.101279   3.568345
    13  O    4.105397   3.560846   2.398188   1.219827   2.328191
    14  H    2.145587   1.082159   2.129723   3.449904   3.913686
    15  H    3.468908   3.916488   3.525742   2.177841   1.082928
    16  H    4.688897   3.531638   2.764592   3.440272   4.608352
    17  H    5.820772   4.474819   3.464431   4.140725   5.557378
    18  H    5.099273   4.025138   2.798864   2.839599   4.204216
    19  H    4.189366   2.818511   2.821535   4.256670   5.265613
    20  H    4.189638   2.818603   2.821487   4.256598   5.265707
    21  H    5.411479   3.935432   3.474031   4.765728   6.041082
    22  H    5.099789   4.025385   2.798844   2.839429   4.204461
    23  H    5.821521   4.475305   3.464530   4.140622   5.557670
    24  H    4.690524   3.532618   2.765012   3.440668   4.609507
                    6          7          8          9         10
     6  C    0.000000
     7  Br   1.895554   0.000000
     8  C    4.461204   6.355196   0.000000
     9  C    5.169608   7.015901   1.549719   0.000000
    10  C    5.264906   7.089206   1.539841   2.501173   0.000000
    11  C    5.170298   7.016635   1.549707   2.537819   2.501160
    12  O    2.381606   3.090755   4.885600   5.831499   4.973989
    13  O    3.547288   5.169931   2.938009   3.060032   4.447182
    14  H    3.471056   5.049588   2.790168   3.889702   2.481482
    15  H    2.128312   3.017432   4.799676   5.154628   6.055104
    16  H    5.105640   6.868210   2.192535   1.093981   2.764706
    17  H    6.228692   8.089255   2.171566   1.093689   2.690590
    18  H    5.107944   6.890268   2.199579   1.088815   3.468753
    19  H    5.256329   6.998444   2.198549   2.755627   1.093572
    20  H    5.256492   6.998612   2.198617   3.478313   1.093564
    21  H    6.303313   8.149217   2.159443   2.710546   1.092510
    22  H    5.108340   6.890694   2.199584   2.785814   3.468762
    23  H    6.229237   8.089873   2.171496   2.774398   2.690715
    24  H    5.107106   6.869786   2.192446   3.498002   2.764373
                   11         12         13         14         15
    11  C    0.000000
    12  O    5.832554   0.000000
    13  O    3.059537   5.320051   0.000000
    14  H    3.890269   2.525459   4.502516   0.000000
    15  H    5.155036   4.496618   2.525750   4.994658   0.000000
    16  H    3.498047   5.573695   3.593499   3.758383   5.308299
    17  H    2.774666   6.757760   3.947276   4.613485   6.188171
    18  H    2.785587   6.197345   2.398888   4.565482   4.654055
    19  H    3.478256   4.695208   4.887058   2.266262   6.252200
    20  H    2.755970   4.695650   4.886861   2.266434   6.252279
    21  H    2.710363   6.060130   5.057986   3.553064   6.927389
    22  H    1.088810   6.198057   2.398111   4.565776   4.654244
    23  H    1.093670   6.758771   3.946642   4.614096   6.188363
    24  H    1.093982   5.575674   3.593129   3.759304   5.309368
                   16         17         18         19         20
    16  H    0.000000
    17  H    1.767070   0.000000
    18  H    1.774252   1.769324   0.000000
    19  H    2.568295   3.030195   3.782403   0.000000
    20  H    3.783778   3.705613   4.348032   1.774768   0.000000
    21  H    3.092833   2.438720   3.701918   1.762411   1.762484
    22  H    3.797050   3.125690   2.590656   4.347978   3.782605
    23  H    3.777147   2.562000   3.125001   3.705525   3.030923
    24  H    4.349948   3.777225   3.796959   3.783601   2.568303
                   21         22         23         24
    21  H    0.000000
    22  H    3.701910   0.000000
    23  H    2.438661   1.769334   0.000000
    24  H    3.092166   1.774283   1.767090   0.000000
 Stoichiometry    C10H11BrO2
 Framework group  C1[X(C10H11BrO2)]
 Deg. of freedom    66
 Full point group                 C1      NOp   1
 Largest Abelian subgroup         C1      NOp   1
 Largest concise Abelian subgroup C1      NOp   1
                         Standard orientation:                         
 ---------------------------------------------------------------------
 Center     Atomic      Atomic             Coordinates (Angstroms)
 Number     Number       Type             X           Y           Z
 ---------------------------------------------------------------------
      1          6           0       -0.773168    1.209553   -0.000095
      2          6           0        0.707831    1.223842   -0.000437
      3          6           0        1.493087    0.129744   -0.000304
      4          6           0        0.802099   -1.209658   -0.000140
      5          6           0       -0.683610   -1.249272    0.000161
      6          6           0       -1.426224   -0.136969    0.000009
      7         35           0       -3.321204   -0.183610   -0.000001
      8          6           0        3.023070    0.188799    0.000006
      9          6           0        3.571127   -0.511158    1.269385
     10          6           0        3.528556    1.643307   -0.000392
     11          6           0        3.572003   -0.512148   -1.268434
     12          8           0       -1.408958    2.244574    0.000106
     13          8           0        1.410350   -2.267016   -0.000183
     14          1           0        1.116432    2.225896   -0.000571
     15          1           0       -1.115281   -2.242444    0.000363
     16          1           0        3.191637   -0.029132    2.175162
     17          1           0        4.661934   -0.432817    1.281964
     18          1           0        3.303344   -1.566195    1.295997
     19          1           0        3.201466    2.192631    0.886825
     20          1           0        3.201655    2.192189   -0.887943
     21          1           0        4.621064    1.641248   -0.000197
     22          1           0        3.303861   -1.567098   -1.294659
     23          1           0        4.662828   -0.434165   -1.280035
     24          1           0        3.193458   -0.030455   -2.174785
 ---------------------------------------------------------------------
 Rotational constants (GHZ):           1.4000810           0.2890748           0.2531556
 Leave Link  202 at Sun Jan 21 06:40:44 2024, MaxMem=  4026531840 cpu:               0.2 elap:               0.1
 (Enter /sysapps/ubuntu-applications/gaussian/Gaussian/AVX2/g16/l301.exe)
 Standard basis: 6-311++G(d,p) (5D, 7F)
 Ernie: Thresh=  0.10000D-02 Tol=  0.10000D-05 Strict=F.
 There are   404 symmetry adapted cartesian basis functions of A   symmetry.
 There are   389 symmetry adapted basis functions of A   symmetry.
   389 basis functions,   625 primitive gaussians,   404 cartesian basis functions
    61 alpha electrons       61 beta electrons
       nuclear repulsion energy      1061.4101128040 Hartrees.
 IExCor=  402 DFT=T Ex+Corr=B3LYP ExCW=0 ScaHFX=  0.200000
 ScaDFX=  0.800000  0.720000  1.000000  0.810000 ScalE2=  1.000000  1.000000
 IRadAn=      5 IRanWt=     -1 IRanGd=            0 ICorTp=0 IEmpDi=  4
 NAtoms=   24 NActive=   24 NUniq=   24 SFac= 1.00D+00 NAtFMM=   60 NAOKFM=F Big=F
 Integral buffers will be    131072 words long.
 Raffenetti 2 integral format.
 Two-electron integral symmetry is turned on.
 ------------------------------------------------------------------------------
 Polarizable Continuum Model (PCM)
 =================================
 Model                : PCM.
 Atomic radii         : UFF (Universal Force Field).
 Polarization charges : Total charges.
 Charge compensation  : None.
 Solution method      : On-the-fly selection.
 Cavity type          : Scaled VdW (van der Waals Surface) (Alpha=1.100).
 Cavity algorithm     : GePol (No added spheres)
                        Default sphere list used, NSphG=   24.
                        Lebedev-Laikov grids with approx.  5.0 points / Ang**2.
                        Smoothing algorithm: York/Karplus (Gamma=1.0000).
                        Polarization charges: spherical gaussians, with
                                              point-specific exponents (IZeta= 3).
                        Self-potential: point-specific (ISelfS= 7).
                        Self-field    : sphere-specific E.n sum rule (ISelfD= 2).
 Solvent              : n,n-DiMethylFormamide, Eps=  37.219000 Eps(inf)=   2.046330
 ------------------------------------------------------------------------------
 GePol: Number of generator spheres                  =      24
 GePol: Total number of spheres                      =      24
 GePol: Number of exposed spheres                    =      24 (100.00%)
 GePol: Number of points                             =    1935
 GePol: Average weight of points                     =       0.13
 GePol: Minimum weight of points                     =   0.16D-07
 GePol: Maximum weight of points                     =    0.20528
 GePol: Number of points with low weight             =      97
 GePol: Fraction of low-weight points (<1% of avg)   =       5.01%
 GePol: Cavity surface area                          =    258.433 Ang**2
 GePol: Cavity volume                                =    276.010 Ang**3
 Leave Link  301 at Sun Jan 21 06:40:44 2024, MaxMem=  4026531840 cpu:               0.7 elap:               0.1
 (Enter /sysapps/ubuntu-applications/gaussian/Gaussian/AVX2/g16/l302.exe)
 NPDir=0 NMtPBC=     1 NCelOv=     1 NCel=       1 NClECP=     1 NCelD=      1
         NCelK=      1 NCelE2=     1 NClLst=     1 CellRange=     0.0.
 One-electron integrals computed using PRISM.
 One-electron integral symmetry used in STVInt
 NBasis=   389 RedAO= T EigKep=  2.04D-06  NBF=   389
 NBsUse=   387 1.00D-06 EigRej=  8.68D-07 NBFU=   387
 Precomputing XC quadrature grid using
 IXCGrd= 4 IRadAn=           5 IRanWt=          -1 IRanGd=           0 AccXCQ= 0.00D+00.
 Generated NRdTot=       0 NPtTot=           0 NUsed=           0 NTot=          32
 NSgBfM=   403   403   403   403   403 MxSgAt=    24 MxSgA2=    24.
 Leave Link  302 at Sun Jan 21 06:40:44 2024, MaxMem=  4026531840 cpu:               2.2 elap:               0.3
 (Enter /sysapps/ubuntu-applications/gaussian/Gaussian/AVX2/g16/l303.exe)
 DipDrv:  MaxL=1.
 Leave Link  303 at Sun Jan 21 06:40:44 2024, MaxMem=  4026531840 cpu:               0.8 elap:               0.2
 (Enter /sysapps/ubuntu-applications/gaussian/Gaussian/AVX2/g16/l401.exe)
 ExpMin= 3.50D-02 ExpMax= 4.40D+05 ExpMxC= 1.51D+04 IAcc=3 IRadAn=         5 AccDes= 0.00D+00
 Harris functional with IExCor=  402 and IRadAn=       5 diagonalized for initial guess.
 HarFok:  IExCor=  402 AccDes= 0.00D+00 IRadAn=         5 IDoV= 1 UseB2=F ITyADJ=14
 ICtDFT=  3500011 ScaDFX=  1.000000  1.000000  1.000000  1.000000
 FoFCou: FMM=F IPFlag=           0 FMFlag=      100000 FMFlg1=           0
         NFxFlg=           0 DoJE=T BraDBF=F KetDBF=T FulRan=T
         wScrn=  0.000000 ICntrl=       500 IOpCl=  0 I1Cent=   200000004 NGrid=           0
         NMat0=    1 NMatS0=      1 NMatT0=    0 NMatD0=    1 NMtDS0=    0 NMtDT0=    0
 Petite list used in FoFCou.
 Harris En= -3112.52863851994    
 JPrj=0 DoOrth=F DoCkMO=F.
 Initial guess <Sx>= 0.0000 <Sy>= 0.0000 <Sz>= 0.0000 <S**2>=-0.0000 S=-0.0000
 Leave Link  401 at Sun Jan 21 06:40:46 2024, MaxMem=  4026531840 cpu:              10.9 elap:               1.5
 (Enter /sysapps/ubuntu-applications/gaussian/Gaussian/AVX2/g16/l502.exe)
 Integral symmetry usage will be decided dynamically.
 UHF open shell SCF:
 Using DIIS extrapolation, IDIIS=  1040.
 NGot=  4026531840 LenX=  4026198301 LenY=  4026034644
 Requested convergence on RMS density matrix=1.00D-08 within 128 cycles.
 Requested convergence on MAX density matrix=1.00D-06.
 Requested convergence on             energy=1.00D-06.
 No special actions if energy rises.
 Fock matrices will be formed incrementally for  20 cycles.

 Cycle   1  Pass 1  IDiag  1:
 FoFJK:  IHMeth= 1 ICntrl=       0 DoSepK=F KAlg= 0 I1Cent=           0 FoldK=F
 IRaf= 890000000 NMat=       1 IRICut=       1 DoRegI=T DoRafI=F ISym2E= 0 IDoP0=0 IntGTp=1.
 FoFCou: FMM=F IPFlag=           0 FMFlag=      100000 FMFlg1=           0
         NFxFlg=           0 DoJE=F BraDBF=F KetDBF=F FulRan=T
         wScrn=  0.000000 ICntrl=         0 IOpCl=  1 I1Cent=           0 NGrid=           0
         NMat0=    1 NMatS0=      1 NMatT0=    0 NMatD0=    1 NMtDS0=    0 NMtDT0=    0
 Symmetry not used in FoFCou.
 Inv3:  Mode=1 IEnd=    11232675.
 Iteration    1 A*A^-1 deviation from unit magnitude is 3.11D-15 for   1334.
 Iteration    1 A*A^-1 deviation from orthogonality  is 1.99D-15 for   1199    466.
 Iteration    1 A^-1*A deviation from unit magnitude is 3.11D-15 for   1334.
 Iteration    1 A^-1*A deviation from orthogonality  is 1.74D-15 for   1227    487.
 E= -3112.01785524877    
 DIIS: error= 9.97D-02 at cycle   1 NSaved=   1.
 NSaved= 1 IEnMin= 1 EnMin= -3112.01785524877     IErMin= 1 ErrMin= 9.97D-02
 ErrMax= 9.97D-02  0.00D+00 EMaxC= 1.00D-01 BMatC= 6.47D+00 BMatP= 6.47D+00
 IDIUse=3 WtCom= 2.78D-03 WtEn= 9.97D-01
 Coeff-Com:  0.100D+01
 Coeff-En:   0.100D+01
 Coeff:      0.100D+01
 Gap=     0.178 Goal=   None    Shift=    0.000
 Gap=     0.178 Goal=   None    Shift=    0.000
 GapD=    0.178 DampG=1.000 DampE=0.500 DampFc=0.5000 IDamp=-1.
 Damping current iteration by 5.00D-01
 RMSDP=1.39D-02 MaxDP=1.12D+00              OVMax= 2.37D-01

 Cycle   2  Pass 1  IDiag  1:
 RMSU=  6.89D-03    CP:  9.80D-01
 E= -3112.15024260017     Delta-E=       -0.132387351404 Rises=F Damp=T
 DIIS: error= 5.07D-02 at cycle   2 NSaved=   2.
 NSaved= 2 IEnMin= 2 EnMin= -3112.15024260017     IErMin= 2 ErrMin= 5.07D-02
 ErrMax= 5.07D-02  0.00D+00 EMaxC= 1.00D-01 BMatC= 9.59D-01 BMatP= 6.47D+00
 IDIUse=3 WtCom= 4.93D-01 WtEn= 5.07D-01
 Coeff-Com: -0.134D+00 0.113D+01
 Coeff-En:   0.279D+00 0.721D+00
 Coeff:      0.754D-01 0.925D+00
 Gap=     0.161 Goal=   None    Shift=    0.000
 Gap=     0.161 Goal=   None    Shift=    0.000
 RMSDP=9.00D-03 MaxDP=9.78D-01 DE=-1.32D-01 OVMax= 2.58D-01

 Cycle   3  Pass 1  IDiag  1:
 RMSU=  5.67D-03    CP:  7.99D-01  5.04D-01
 E= -3112.31758488508     Delta-E=       -0.167342284909 Rises=F Damp=F
 DIIS: error= 2.44D-02 at cycle   3 NSaved=   3.
 NSaved= 3 IEnMin= 3 EnMin= -3112.31758488508     IErMin= 3 ErrMin= 2.44D-02
 ErrMax= 2.44D-02  0.00D+00 EMaxC= 1.00D-01 BMatC= 4.86D-01 BMatP= 9.59D-01
 IDIUse=3 WtCom= 7.56D-01 WtEn= 2.44D-01
 Coeff-Com: -0.138D+00 0.522D+00 0.616D+00
 Coeff-En:   0.000D+00 0.000D+00 0.100D+01
 Coeff:     -0.104D+00 0.394D+00 0.710D+00
 Gap=     0.148 Goal=   None    Shift=    0.000
 Gap=     0.148 Goal=   None    Shift=    0.000
 RMSDP=5.68D-03 MaxDP=5.16D-01 DE=-1.67D-01 OVMax= 1.67D-01

 Cycle   4  Pass 1  IDiag  1:
 RMSU=  3.29D-03    CP:  9.04D-01  8.69D-01  7.11D-01
 E= -3112.31491139353     Delta-E=        0.002673491554 Rises=F Damp=F
 DIIS: error= 2.93D-02 at cycle   4 NSaved=   4.
 NSaved= 4 IEnMin= 3 EnMin= -3112.31758488508     IErMin= 3 ErrMin= 2.44D-02
 ErrMax= 2.93D-02  0.00D+00 EMaxC= 1.00D-01 BMatC= 4.85D-01 BMatP= 4.86D-01
 IDIUse=3 WtCom= 7.07D-01 WtEn= 2.93D-01
 Coeff-Com: -0.499D-01 0.146D+00 0.507D+00 0.397D+00
 Coeff-En:   0.000D+00 0.000D+00 0.505D+00 0.495D+00
 Coeff:     -0.352D-01 0.103D+00 0.506D+00 0.426D+00
 Gap=     0.146 Goal=   None    Shift=    0.000
 Gap=     0.146 Goal=   None    Shift=    0.000
 RMSDP=3.86D-03 MaxDP=3.66D-01 DE= 2.67D-03 OVMax= 1.00D-01

 Cycle   5  Pass 1  IDiag  1:
 RMSU=  7.32D-04    CP:  8.29D-01  6.54D-01  8.17D-01  2.96D-01
 E= -3112.40781223590     Delta-E=       -0.092900842372 Rises=F Damp=F
 DIIS: error= 2.63D-03 at cycle   5 NSaved=   5.
 NSaved= 5 IEnMin= 5 EnMin= -3112.40781223590     IErMin= 5 ErrMin= 2.63D-03
 ErrMax= 2.63D-03  0.00D+00 EMaxC= 1.00D-01 BMatC= 4.46D-03 BMatP= 4.85D-01
 IDIUse=3 WtCom= 9.74D-01 WtEn= 2.63D-02
 Coeff-Com: -0.252D-02 0.144D-01 0.185D+00 0.184D+00 0.619D+00
 Coeff-En:   0.000D+00 0.000D+00 0.000D+00 0.000D+00 0.100D+01
 Coeff:     -0.245D-02 0.140D-01 0.180D+00 0.180D+00 0.629D+00
 Gap=     0.141 Goal=   None    Shift=    0.000
 Gap=     0.141 Goal=   None    Shift=    0.000
 RMSDP=3.88D-04 MaxDP=2.08D-02 DE=-9.29D-02 OVMax= 7.21D-03

 Cycle   6  Pass 1  IDiag  1:
 RMSU=  1.70D-04    CP:  8.30D-01  6.43D-01  8.47D-01  3.59D-01  7.20D-01
 E= -3112.40879279829     Delta-E=       -0.000980562388 Rises=F Damp=F
 DIIS: error= 7.51D-04 at cycle   6 NSaved=   6.
 NSaved= 6 IEnMin= 6 EnMin= -3112.40879279829     IErMin= 6 ErrMin= 7.51D-04
 ErrMax= 7.51D-04  0.00D+00 EMaxC= 1.00D-01 BMatC= 5.69D-04 BMatP= 4.46D-03
 IDIUse=3 WtCom= 9.92D-01 WtEn= 7.51D-03
 Coeff-Com:  0.357D-02-0.657D-02 0.441D-01 0.544D-01 0.355D+00 0.550D+00
 Coeff-En:   0.000D+00 0.000D+00 0.000D+00 0.000D+00 0.897D-02 0.991D+00
 Coeff:      0.354D-02-0.652D-02 0.438D-01 0.540D-01 0.352D+00 0.553D+00
 Gap=     0.140 Goal=   None    Shift=    0.000
 Gap=     0.140 Goal=   None    Shift=    0.000
 RMSDP=9.66D-05 MaxDP=8.37D-03 DE=-9.81D-04 OVMax= 3.48D-03

 Cycle   7  Pass 1  IDiag  1:
 RMSU=  5.69D-05    CP:  8.29D-01  6.41D-01  8.50D-01  3.60D-01  7.78D-01
                    CP:  6.79D-01
 E= -3112.40889321227     Delta-E=       -0.000100413988 Rises=F Damp=F
 DIIS: error= 4.83D-04 at cycle   7 NSaved=   7.
 NSaved= 7 IEnMin= 7 EnMin= -3112.40889321227     IErMin= 7 ErrMin= 4.83D-04
 ErrMax= 4.83D-04  0.00D+00 EMaxC= 1.00D-01 BMatC= 1.05D-04 BMatP= 5.69D-04
 IDIUse=3 WtCom= 9.95D-01 WtEn= 4.83D-03
 Coeff-Com:  0.218D-02-0.468D-02 0.801D-02 0.130D-01 0.155D+00 0.354D+00
 Coeff-Com:  0.473D+00
 Coeff-En:   0.000D+00 0.000D+00 0.000D+00 0.000D+00 0.000D+00 0.109D+00
 Coeff-En:   0.891D+00
 Coeff:      0.217D-02-0.466D-02 0.797D-02 0.129D-01 0.154D+00 0.353D+00
 Coeff:      0.475D+00
 Gap=     0.140 Goal=   None    Shift=    0.000
 Gap=     0.140 Goal=   None    Shift=    0.000
 RMSDP=3.82D-05 MaxDP=2.77D-03 DE=-1.00D-04 OVMax= 2.14D-03

 Cycle   8  Pass 1  IDiag  1:
 RMSU=  2.24D-05    CP:  8.29D-01  6.41D-01  8.48D-01  3.61D-01  7.85D-01
                    CP:  7.41D-01  5.53D-01
 E= -3112.40891200777     Delta-E=       -0.000018795500 Rises=F Damp=F
 DIIS: error= 1.68D-04 at cycle   8 NSaved=   8.
 NSaved= 8 IEnMin= 8 EnMin= -3112.40891200777     IErMin= 8 ErrMin= 1.68D-04
 ErrMax= 1.68D-04  0.00D+00 EMaxC= 1.00D-01 BMatC= 1.27D-05 BMatP= 1.05D-04
 IDIUse=3 WtCom= 9.98D-01 WtEn= 1.68D-03
 Coeff-Com:  0.907D-03-0.199D-02-0.325D-03 0.885D-03 0.542D-01 0.153D+00
 Coeff-Com:  0.304D+00 0.490D+00
 Coeff-En:   0.000D+00 0.000D+00 0.000D+00 0.000D+00 0.000D+00 0.000D+00
 Coeff-En:   0.749D-01 0.925D+00
 Coeff:      0.906D-03-0.199D-02-0.324D-03 0.883D-03 0.541D-01 0.153D+00
 Coeff:      0.303D+00 0.490D+00
 Gap=     0.141 Goal=   None    Shift=    0.000
 Gap=     0.141 Goal=   None    Shift=    0.000
 RMSDP=1.23D-05 MaxDP=9.37D-04 DE=-1.88D-05 OVMax= 6.04D-04

 Cycle   9  Pass 1  IDiag  1:
 RMSU=  6.22D-06    CP:  8.29D-01  6.40D-01  8.48D-01  3.59D-01  7.87D-01
                    CP:  7.49D-01  6.43D-01  7.29D-01
 E= -3112.40891451741     Delta-E=       -0.000002509635 Rises=F Damp=F
 DIIS: error= 2.03D-05 at cycle   9 NSaved=   9.
 NSaved= 9 IEnMin= 9 EnMin= -3112.40891451741     IErMin= 9 ErrMin= 2.03D-05
 ErrMax= 2.03D-05  0.00D+00 EMaxC= 1.00D-01 BMatC= 3.90D-07 BMatP= 1.27D-05
 IDIUse=1 WtCom= 1.00D+00 WtEn= 0.00D+00
 Coeff-Com:  0.400D-03-0.887D-03-0.428D-03-0.197D-03 0.207D-01 0.597D-01
 Coeff-Com:  0.131D+00 0.237D+00 0.553D+00
 Coeff:      0.400D-03-0.887D-03-0.428D-03-0.197D-03 0.207D-01 0.597D-01
 Coeff:      0.131D+00 0.237D+00 0.553D+00
 Gap=     0.141 Goal=   None    Shift=    0.000
 Gap=     0.141 Goal=   None    Shift=    0.000
 RMSDP=3.81D-06 MaxDP=3.44D-04 DE=-2.51D-06 OVMax= 1.34D-04

 Cycle  10  Pass 1  IDiag  1:
 RMSU=  1.54D-06    CP:  8.29D-01  6.40D-01  8.48D-01  3.59D-01  7.88D-01
                    CP:  7.50D-01  6.40D-01  7.24D-01  7.61D-01
 E= -3112.40891459155     Delta-E=       -0.000000074143 Rises=F Damp=F
 DIIS: error= 9.02D-06 at cycle  10 NSaved=  10.
 NSaved=10 IEnMin=10 EnMin= -3112.40891459155     IErMin=10 ErrMin= 9.02D-06
 ErrMax= 9.02D-06  0.00D+00 EMaxC= 1.00D-01 BMatC= 7.75D-08 BMatP= 3.90D-07
 IDIUse=1 WtCom= 1.00D+00 WtEn= 0.00D+00
 Coeff-Com:  0.782D-04-0.175D-03-0.131D-03-0.289D-03 0.241D-02 0.707D-02
 Coeff-Com:  0.238D-01 0.523D-01 0.339D+00 0.576D+00
 Coeff:      0.782D-04-0.175D-03-0.131D-03-0.289D-03 0.241D-02 0.707D-02
 Coeff:      0.238D-01 0.523D-01 0.339D+00 0.576D+00
 Gap=     0.141 Goal=   None    Shift=    0.000
 Gap=     0.141 Goal=   None    Shift=    0.000
 RMSDP=1.40D-06 MaxDP=1.39D-04 DE=-7.41D-08 OVMax= 6.34D-05

 Cycle  11  Pass 1  IDiag  1:
 RMSU=  6.11D-07    CP:  8.29D-01  6.40D-01  8.48D-01  3.59D-01  7.87D-01
                    CP:  7.48D-01  6.45D-01  7.22D-01  8.14D-01  8.49D-01
 E= -3112.40891461029     Delta-E=       -0.000000018742 Rises=F Damp=F
 DIIS: error= 1.29D-06 at cycle  11 NSaved=  11.
 NSaved=11 IEnMin=11 EnMin= -3112.40891461029     IErMin=11 ErrMin= 1.29D-06
 ErrMax= 1.29D-06  0.00D+00 EMaxC= 1.00D-01 BMatC= 2.51D-09 BMatP= 7.75D-08
 IDIUse=1 WtCom= 1.00D+00 WtEn= 0.00D+00
 Coeff-Com: -0.169D-05 0.214D-05-0.179D-04-0.988D-04-0.534D-03-0.133D-02
 Coeff-Com:  0.101D-02 0.465D-02 0.836D-01 0.238D+00 0.675D+00
 Coeff:     -0.169D-05 0.214D-05-0.179D-04-0.988D-04-0.534D-03-0.133D-02
 Coeff:      0.101D-02 0.465D-02 0.836D-01 0.238D+00 0.675D+00
 Gap=     0.141 Goal=   None    Shift=    0.000
 Gap=     0.141 Goal=   None    Shift=    0.000
 RMSDP=4.77D-07 MaxDP=4.87D-05 DE=-1.87D-08 OVMax= 8.65D-06

 Cycle  12  Pass 1  IDiag  1:
 RMSU=  2.84D-07    CP:  8.29D-01  6.40D-01  8.48D-01  3.59D-01  7.87D-01
                    CP:  7.48D-01  6.46D-01  7.24D-01  8.18D-01  8.47D-01
                    CP:  1.08D+00
 E= -3112.40891461084     Delta-E=       -0.000000000542 Rises=F Damp=F
 DIIS: error= 5.26D-07 at cycle  12 NSaved=  12.
 NSaved=12 IEnMin=12 EnMin= -3112.40891461084     IErMin=12 ErrMin= 5.26D-07
 ErrMax= 5.26D-07  0.00D+00 EMaxC= 1.00D-01 BMatC= 3.66D-10 BMatP= 2.51D-09
 IDIUse=1 WtCom= 1.00D+00 WtEn= 0.00D+00
 Coeff-Com: -0.755D-05 0.158D-04-0.622D-05-0.193D-04-0.428D-03-0.116D-02
 Coeff-Com: -0.158D-02-0.307D-02-0.181D-02 0.600D-01 0.312D+00 0.636D+00
 Coeff:     -0.755D-05 0.158D-04-0.622D-05-0.193D-04-0.428D-03-0.116D-02
 Coeff:     -0.158D-02-0.307D-02-0.181D-02 0.600D-01 0.312D+00 0.636D+00
 Gap=     0.141 Goal=   None    Shift=    0.000
 Gap=     0.141 Goal=   None    Shift=    0.000
 RMSDP=8.26D-08 MaxDP=4.57D-06 DE=-5.42D-10 OVMax= 5.00D-06

 Cycle  13  Pass 1  IDiag  1:
 RMSU=  5.85D-08    CP:  8.29D-01  6.40D-01  8.48D-01  3.59D-01  7.87D-01
                    CP:  7.48D-01  6.46D-01  7.25D-01  8.20D-01  8.51D-01
                    CP:  1.06D+00  8.72D-01
 E= -3112.40891461092     Delta-E=       -0.000000000089 Rises=F Damp=F
 DIIS: error= 2.80D-07 at cycle  13 NSaved=  13.
 NSaved=13 IEnMin=13 EnMin= -3112.40891461092     IErMin=13 ErrMin= 2.80D-07
 ErrMax= 2.80D-07  0.00D+00 EMaxC= 1.00D-01 BMatC= 7.44D-11 BMatP= 3.66D-10
 IDIUse=1 WtCom= 1.00D+00 WtEn= 0.00D+00
 Coeff-Com: -0.375D-05 0.797D-05-0.246D-05-0.252D-05-0.201D-03-0.579D-03
 Coeff-Com: -0.958D-03-0.219D-02-0.797D-02 0.217D-01 0.125D+00 0.363D+00
 Coeff-Com:  0.502D+00
 Coeff:     -0.375D-05 0.797D-05-0.246D-05-0.252D-05-0.201D-03-0.579D-03
 Coeff:     -0.958D-03-0.219D-02-0.797D-02 0.217D-01 0.125D+00 0.363D+00
 Coeff:      0.502D+00
 Gap=     0.141 Goal=   None    Shift=    0.000
 Gap=     0.141 Goal=   None    Shift=    0.000
 RMSDP=4.50D-08 MaxDP=3.05D-06 DE=-8.91D-11 OVMax= 1.99D-06

 Cycle  14  Pass 1  IDiag  1:
 RMSU=  1.72D-08    CP:  8.29D-01  6.40D-01  8.48D-01  3.59D-01  7.87D-01
                    CP:  7.48D-01  6.46D-01  7.24D-01  8.19D-01  8.59D-01
                    CP:  1.09D+00  9.31D-01  6.88D-01
 E= -3112.40891461095     Delta-E=       -0.000000000027 Rises=F Damp=F
 DIIS: error= 9.45D-08 at cycle  14 NSaved=  14.
 NSaved=14 IEnMin=14 EnMin= -3112.40891461095     IErMin=14 ErrMin= 9.45D-08
 ErrMax= 9.45D-08  0.00D+00 EMaxC= 1.00D-01 BMatC= 1.10D-11 BMatP= 7.44D-11
 IDIUse=1 WtCom= 1.00D+00 WtEn= 0.00D+00
 Coeff-Com: -0.859D-06 0.185D-05-0.328D-06 0.266D-05-0.425D-04-0.132D-03
 Coeff-Com: -0.268D-03-0.784D-03-0.575D-02 0.632D-03 0.194D-02 0.738D-01
 Coeff-Com:  0.281D+00 0.649D+00
 Coeff:     -0.859D-06 0.185D-05-0.328D-06 0.266D-05-0.425D-04-0.132D-03
 Coeff:     -0.268D-03-0.784D-03-0.575D-02 0.632D-03 0.194D-02 0.738D-01
 Coeff:      0.281D+00 0.649D+00
 Gap=     0.141 Goal=   None    Shift=    0.000
 Gap=     0.141 Goal=   None    Shift=    0.000
 RMSDP=1.75D-08 MaxDP=1.53D-06 DE=-2.73D-11 OVMax= 7.92D-07

 Cycle  15  Pass 1  IDiag  1:
 RMSU=  8.00D-09    CP:  8.29D-01  6.40D-01  8.48D-01  3.59D-01  7.87D-01
                    CP:  7.48D-01  6.46D-01  7.24D-01  8.18D-01  8.64D-01
                    CP:  1.09D+00  9.38D-01  7.37D-01  8.24D-01
 E= -3112.40891461097     Delta-E=       -0.000000000015 Rises=F Damp=F
 DIIS: error= 3.13D-08 at cycle  15 NSaved=  15.
 NSaved=15 IEnMin=15 EnMin= -3112.40891461097     IErMin=15 ErrMin= 3.13D-08
 ErrMax= 3.13D-08  0.00D+00 EMaxC= 1.00D-01 BMatC= 1.41D-12 BMatP= 1.10D-11
 IDIUse=1 WtCom= 1.00D+00 WtEn= 0.00D+00
 Coeff-Com: -0.149D-06 0.320D-06 0.245D-06 0.155D-05-0.404D-05-0.148D-04
 Coeff-Com: -0.243D-04-0.181D-03-0.257D-02-0.908D-03-0.106D-01 0.126D-01
 Coeff-Com:  0.113D+00 0.356D+00 0.533D+00
 Coeff:     -0.149D-06 0.320D-06 0.245D-06 0.155D-05-0.404D-05-0.148D-04
 Coeff:     -0.243D-04-0.181D-03-0.257D-02-0.908D-03-0.106D-01 0.126D-01
 Coeff:      0.113D+00 0.356D+00 0.533D+00
 Gap=     0.141 Goal=   None    Shift=    0.000
 Gap=     0.141 Goal=   None    Shift=    0.000
 RMSDP=4.23D-09 MaxDP=2.64D-07 DE=-1.55D-11 OVMax= 3.22D-07

 Error on total polarization charges =  0.01815
 SCF Done:  E(UB3LYP) =  -3112.40891461     A.U. after   15 cycles
            NFock= 15  Conv=0.42D-08     -V/T= 2.0017
 <Sx>= 0.0000 <Sy>= 0.0000 <Sz>= 0.0000 <S**2>=-0.0000 S=-0.0000
 <L.S>=  0.00000000000    
 KE= 3.107037909233D+03 PE=-9.528708527955D+03 EE= 2.247851591307D+03
 Annihilation of the first spin contaminant:
 S**2 before annihilation    -0.0000,   after     0.0000
 Leave Link  502 at Sun Jan 21 06:42:28 2024, MaxMem=  4026531840 cpu:             810.7 elap:             101.8
 (Enter /sysapps/ubuntu-applications/gaussian/Gaussian/AVX2/g16/l601.exe)
 Copying SCF densities to generalized density rwf, IOpCl= 1 IROHF=0.

 **********************************************************************

            Population analysis using the SCF density.

 **********************************************************************

 Orbital symmetries:
 Alpha Orbitals:
       Occupied  (A) (A) (A) (A) (A) (A) (A) (A) (A) (A) (A) (A)
                 (A) (A) (A) (A) (A) (A) (A) (A) (A) (A) (A) (A)
                 (A) (A) (A) (A) (A) (A) (A) (A) (A) (A) (A) (A)
                 (A) (A) (A) (A) (A) (A) (A) (A) (A) (A) (A) (A)
                 (A) (A) (A) (A) (A) (A) (A) (A) (A) (A) (A) (A)
                 (A)
       Virtual   (A) (A) (A) (A) (A) (A) (A) (A) (A) (A) (A) (A)
                 (A) (A) (A) (A) (A) (A) (A) (A) (A) (A) (A) (A)
                 (A) (A) (A) (A) (A) (A) (A) (A) (A) (A) (A) (A)
                 (A) (A) (A) (A) (A) (A) (A) (A) (A) (A) (A) (A)
                 (A) (A) (A) (A) (A) (A) (A) (A) (A) (A) (A) (A)
                 (A) (A) (A) (A) (A) (A) (A) (A) (A) (A) (A) (A)
                 (A) (A) (A) (A) (A) (A) (A) (A) (A) (A) (A) (A)
                 (A) (A) (A) (A) (A) (A) (A) (A) (A) (A) (A) (A)
                 (A) (A) (A) (A) (A) (A) (A) (A) (A) (A) (A) (A)
                 (A) (A) (A) (A) (A) (A) (A) (A) (A) (A) (A) (A)
                 (A) (A) (A) (A) (A) (A) (A) (A) (A) (A) (A) (A)
                 (A) (A) (A) (A) (A) (A) (A) (A) (A) (A) (A) (A)
                 (A) (A) (A) (A) (A) (A) (A) (A) (A) (A) (A) (A)
                 (A) (A) (A) (A) (A) (A) (A) (A) (A) (A) (A) (A)
                 (A) (A) (A) (A) (A) (A) (A) (A) (A) (A) (A) (A)
                 (A) (A) (A) (A) (A) (A) (A) (A) (A) (A) (A) (A)
                 (A) (A) (A) (A) (A) (A) (A) (A) (A) (A) (A) (A)
                 (A) (A) (A) (A) (A) (A) (A) (A) (A) (A) (A) (A)
                 (A) (A) (A) (A) (A) (A) (A) (A) (A) (A) (A) (A)
                 (A) (A) (A) (A) (A) (A) (A) (A) (A) (A) (A) (A)
                 (A) (A) (A) (A) (A) (A) (A) (A) (A) (A) (A) (A)
                 (A) (A) (A) (A) (A) (A) (A) (A) (A) (A) (A) (A)
                 (A) (A) (A) (A) (A) (A) (A) (A) (A) (A) (A) (A)
                 (A) (A) (A) (A) (A) (A) (A) (A) (A) (A) (A) (A)
                 (A) (A) (A) (A) (A) (A) (A) (A) (A) (A) (A) (A)
                 (A) (A) (A) (A) (A) (A) (A) (A) (A) (A) (A) (A)
                 (A) (A) (A) (A) (A) (A) (A) (A) (A) (A) (A) (A)
                 (A) (A)
 Beta  Orbitals:
       Occupied  (A) (A) (A) (A) (A) (A) (A) (A) (A) (A) (A) (A)
                 (A) (A) (A) (A) (A) (A) (A) (A) (A) (A) (A) (A)
                 (A) (A) (A) (A) (A) (A) (A) (A) (A) (A) (A) (A)
                 (A) (A) (A) (A) (A) (A) (A) (A) (A) (A) (A) (A)
                 (A) (A) (A) (A) (A) (A) (A) (A) (A) (A) (A) (A)
                 (A)
       Virtual   (A) (A) (A) (A) (A) (A) (A) (A) (A) (A) (A) (A)
                 (A) (A) (A) (A) (A) (A) (A) (A) (A) (A) (A) (A)
                 (A) (A) (A) (A) (A) (A) (A) (A) (A) (A) (A) (A)
                 (A) (A) (A) (A) (A) (A) (A) (A) (A) (A) (A) (A)
                 (A) (A) (A) (A) (A) (A) (A) (A) (A) (A) (A) (A)
                 (A) (A) (A) (A) (A) (A) (A) (A) (A) (A) (A) (A)
                 (A) (A) (A) (A) (A) (A) (A) (A) (A) (A) (A) (A)
                 (A) (A) (A) (A) (A) (A) (A) (A) (A) (A) (A) (A)
                 (A) (A) (A) (A) (A) (A) (A) (A) (A) (A) (A) (A)
                 (A) (A) (A) (A) (A) (A) (A) (A) (A) (A) (A) (A)
                 (A) (A) (A) (A) (A) (A) (A) (A) (A) (A) (A) (A)
                 (A) (A) (A) (A) (A) (A) (A) (A) (A) (A) (A) (A)
                 (A) (A) (A) (A) (A) (A) (A) (A) (A) (A) (A) (A)
                 (A) (A) (A) (A) (A) (A) (A) (A) (A) (A) (A) (A)
                 (A) (A) (A) (A) (A) (A) (A) (A) (A) (A) (A) (A)
                 (A) (A) (A) (A) (A) (A) (A) (A) (A) (A) (A) (A)
                 (A) (A) (A) (A) (A) (A) (A) (A) (A) (A) (A) (A)
                 (A) (A) (A) (A) (A) (A) (A) (A) (A) (A) (A) (A)
                 (A) (A) (A) (A) (A) (A) (A) (A) (A) (A) (A) (A)
                 (A) (A) (A) (A) (A) (A) (A) (A) (A) (A) (A) (A)
                 (A) (A) (A) (A) (A) (A) (A) (A) (A) (A) (A) (A)
                 (A) (A) (A) (A) (A) (A) (A) (A) (A) (A) (A) (A)
                 (A) (A) (A) (A) (A) (A) (A) (A) (A) (A) (A) (A)
                 (A) (A) (A) (A) (A) (A) (A) (A) (A) (A) (A) (A)
                 (A) (A) (A) (A) (A) (A) (A) (A) (A) (A) (A) (A)
                 (A) (A) (A) (A) (A) (A) (A) (A) (A) (A) (A) (A)
                 (A) (A) (A) (A) (A) (A) (A) (A) (A) (A) (A) (A)
                 (A) (A)
 The electronic state is 1-A.
 Alpha  occ. eigenvalues -- -482.85285 -62.50555 -56.32598 -56.32214 -56.32176
 Alpha  occ. eigenvalues --  -19.15180 -19.14906 -10.30052 -10.29719 -10.26794
 Alpha  occ. eigenvalues --  -10.22545 -10.22199 -10.21068 -10.20764 -10.16451
 Alpha  occ. eigenvalues --  -10.16269 -10.16267  -8.71523  -6.54686  -6.53400
 Alpha  occ. eigenvalues --   -6.53289  -2.65778  -2.65426  -2.65343  -2.64319
 Alpha  occ. eigenvalues --   -2.64318  -1.08555  -1.08110  -0.88722  -0.85358
 Alpha  occ. eigenvalues --   -0.80929  -0.76754  -0.71285  -0.69475  -0.69262
 Alpha  occ. eigenvalues --   -0.64356  -0.61625  -0.56015  -0.53871  -0.50632
 Alpha  occ. eigenvalues --   -0.49120  -0.47363  -0.46596  -0.45747  -0.44830
 Alpha  occ. eigenvalues --   -0.44605  -0.43443  -0.42945  -0.40981  -0.39257
 Alpha  occ. eigenvalues --   -0.38702  -0.37271  -0.36376  -0.35843  -0.34663
 Alpha  occ. eigenvalues --   -0.34290  -0.31259  -0.30595  -0.29922  -0.28406
 Alpha  occ. eigenvalues --   -0.28321
 Alpha virt. eigenvalues --   -0.14270  -0.03807  -0.02784  -0.01252  -0.00729
 Alpha virt. eigenvalues --    0.00537   0.01217   0.01865   0.02478   0.03065
 Alpha virt. eigenvalues --    0.03691   0.03843   0.04501   0.04890   0.05292
 Alpha virt. eigenvalues --    0.06133   0.06138   0.06990   0.07970   0.08086
 Alpha virt. eigenvalues --    0.08308   0.08408   0.09631   0.09944   0.10519
 Alpha virt. eigenvalues --    0.11284   0.11493   0.11766   0.12110   0.12169
 Alpha virt. eigenvalues --    0.12766   0.13120   0.13547   0.13660   0.14521
 Alpha virt. eigenvalues --    0.14642   0.14686   0.15198   0.15242   0.15473
 Alpha virt. eigenvalues --    0.15592   0.16242   0.16919   0.17395   0.17906
 Alpha virt. eigenvalues --    0.18135   0.18806   0.19078   0.19182   0.19360
 Alpha virt. eigenvalues --    0.19506   0.19940   0.20245   0.20915   0.21793
 Alpha virt. eigenvalues --    0.22146   0.22492   0.23688   0.24507   0.24939
 Alpha virt. eigenvalues --    0.25314   0.26235   0.26625   0.26761   0.27439
 Alpha virt. eigenvalues --    0.27865   0.27884   0.28922   0.29933   0.30208
 Alpha virt. eigenvalues --    0.30945   0.31944   0.32189   0.32410   0.32537
 Alpha virt. eigenvalues --    0.33571   0.33987   0.34452   0.35526   0.36093
 Alpha virt. eigenvalues --    0.37360   0.38092   0.38661   0.39860   0.40689
 Alpha virt. eigenvalues --    0.41998   0.42776   0.43786   0.44258   0.45017
 Alpha virt. eigenvalues --    0.46605   0.49085   0.49853   0.50520   0.51645
 Alpha virt. eigenvalues --    0.53033   0.53280   0.55495   0.56783   0.57094
 Alpha virt. eigenvalues --    0.57238   0.57588   0.58920   0.59339   0.60941
 Alpha virt. eigenvalues --    0.61157   0.61837   0.62518   0.62872   0.63545
 Alpha virt. eigenvalues --    0.64360   0.65798   0.65927   0.66069   0.67580
 Alpha virt. eigenvalues --    0.68289   0.68696   0.69234   0.69305   0.70832
 Alpha virt. eigenvalues --    0.72308   0.72520   0.74167   0.75290   0.75623
 Alpha virt. eigenvalues --    0.77211   0.78083   0.78753   0.79470   0.82129
 Alpha virt. eigenvalues --    0.83163   0.83449   0.85601   0.87474   0.87932
 Alpha virt. eigenvalues --    0.90139   0.90499   0.91503   0.93045   0.95174
 Alpha virt. eigenvalues --    0.95622   0.95777   0.99238   1.01068   1.02788
 Alpha virt. eigenvalues --    1.03500   1.06588   1.07243   1.07682   1.08958
 Alpha virt. eigenvalues --    1.11574   1.12828   1.15943   1.18069   1.19617
 Alpha virt. eigenvalues --    1.19851   1.21798   1.22716   1.24731   1.25628
 Alpha virt. eigenvalues --    1.26388   1.26655   1.29319   1.31091   1.40739
 Alpha virt. eigenvalues --    1.42462   1.43784   1.44194   1.45467   1.46085
 Alpha virt. eigenvalues --    1.48444   1.48453   1.49842   1.51458   1.52485
 Alpha virt. eigenvalues --    1.53927   1.55166   1.56487   1.59275   1.59763
 Alpha virt. eigenvalues --    1.61867   1.63601   1.64285   1.64982   1.67003
 Alpha virt. eigenvalues --    1.67678   1.69242   1.69376   1.71279   1.71575
 Alpha virt. eigenvalues --    1.74818   1.75843   1.76412   1.77930   1.78215
 Alpha virt. eigenvalues --    1.79197   1.80456   1.81625   1.83442   1.85093
 Alpha virt. eigenvalues --    1.89253   1.91509   1.92894   1.96488   1.96809
 Alpha virt. eigenvalues --    1.97347   1.98938   1.99655   2.02758   2.05385
 Alpha virt. eigenvalues --    2.06782   2.09224   2.09817   2.12039   2.12674
 Alpha virt. eigenvalues --    2.14409   2.17456   2.19432   2.21061   2.21072
 Alpha virt. eigenvalues --    2.23828   2.26474   2.27601   2.28108   2.34851
 Alpha virt. eigenvalues --    2.39062   2.43134   2.45160   2.47178   2.49932
 Alpha virt. eigenvalues --    2.51543   2.51739   2.52454   2.54228   2.54993
 Alpha virt. eigenvalues --    2.57298   2.57513   2.58503   2.61032   2.61496
 Alpha virt. eigenvalues --    2.63457   2.66589   2.67867   2.69778   2.70504
 Alpha virt. eigenvalues --    2.73074   2.73244   2.75142   2.77391   2.79966
 Alpha virt. eigenvalues --    2.82323   2.82626   2.84216   2.85490   2.88171
 Alpha virt. eigenvalues --    2.89821   2.90800   2.93562   2.94208   2.98666
 Alpha virt. eigenvalues --    3.01187   3.03919   3.04563   3.07504   3.09210
 Alpha virt. eigenvalues --    3.15475   3.18949   3.19769   3.21325   3.26039
 Alpha virt. eigenvalues --    3.29422   3.31591   3.33772   3.40933   3.47201
 Alpha virt. eigenvalues --    3.54635   3.58917   3.62289   3.68456   3.75083
 Alpha virt. eigenvalues --    3.77214   3.78786   3.79769   3.81083   3.81825
 Alpha virt. eigenvalues --    3.84826   3.87672   4.06397   4.10189   4.12421
 Alpha virt. eigenvalues --    4.15240   4.18515   4.20660   4.25761   4.26772
 Alpha virt. eigenvalues --    4.37274   4.39074   4.56479   4.67374   5.02549
 Alpha virt. eigenvalues --    5.04837   5.19869   5.24783   5.69264   5.78230
 Alpha virt. eigenvalues --    6.75311   7.54460   7.66824   7.73463  23.55636
 Alpha virt. eigenvalues --   23.70932  23.78520  23.83672  23.88523  23.97360
 Alpha virt. eigenvalues --   23.98668  24.00274  24.15115  24.20013  48.00528
 Alpha virt. eigenvalues --   49.97633  50.01984 289.74193 289.86532 289.95725
 Alpha virt. eigenvalues -- 1020.81754
  Beta  occ. eigenvalues -- -482.85285 -62.50555 -56.32598 -56.32214 -56.32176
  Beta  occ. eigenvalues --  -19.15180 -19.14906 -10.30052 -10.29719 -10.26794
  Beta  occ. eigenvalues --  -10.22545 -10.22199 -10.21068 -10.20764 -10.16451
  Beta  occ. eigenvalues --  -10.16269 -10.16267  -8.71523  -6.54686  -6.53400
  Beta  occ. eigenvalues --   -6.53289  -2.65778  -2.65426  -2.65343  -2.64319
  Beta  occ. eigenvalues --   -2.64318  -1.08555  -1.08110  -0.88722  -0.85358
  Beta  occ. eigenvalues --   -0.80929  -0.76754  -0.71285  -0.69475  -0.69262
  Beta  occ. eigenvalues --   -0.64356  -0.61625  -0.56015  -0.53871  -0.50632
  Beta  occ. eigenvalues --   -0.49120  -0.47363  -0.46596  -0.45747  -0.44830
  Beta  occ. eigenvalues --   -0.44605  -0.43443  -0.42945  -0.40981  -0.39257
  Beta  occ. eigenvalues --   -0.38702  -0.37271  -0.36376  -0.35843  -0.34663
  Beta  occ. eigenvalues --   -0.34290  -0.31259  -0.30595  -0.29922  -0.28406
  Beta  occ. eigenvalues --   -0.28321
  Beta virt. eigenvalues --   -0.14270  -0.03807  -0.02784  -0.01252  -0.00729
  Beta virt. eigenvalues --    0.00537   0.01217   0.01865   0.02478   0.03065
  Beta virt. eigenvalues --    0.03691   0.03843   0.04501   0.04890   0.05292
  Beta virt. eigenvalues --    0.06133   0.06138   0.06990   0.07970   0.08086
  Beta virt. eigenvalues --    0.08308   0.08408   0.09631   0.09944   0.10519
  Beta virt. eigenvalues --    0.11284   0.11493   0.11766   0.12110   0.12169
  Beta virt. eigenvalues --    0.12766   0.13120   0.13547   0.13660   0.14521
  Beta virt. eigenvalues --    0.14642   0.14686   0.15198   0.15242   0.15473
  Beta virt. eigenvalues --    0.15592   0.16242   0.16919   0.17395   0.17906
  Beta virt. eigenvalues --    0.18135   0.18806   0.19078   0.19182   0.19360
  Beta virt. eigenvalues --    0.19506   0.19940   0.20245   0.20915   0.21793
  Beta virt. eigenvalues --    0.22146   0.22492   0.23688   0.24507   0.24939
  Beta virt. eigenvalues --    0.25314   0.26235   0.26625   0.26761   0.27439
  Beta virt. eigenvalues --    0.27865   0.27884   0.28922   0.29933   0.30208
  Beta virt. eigenvalues --    0.30945   0.31944   0.32189   0.32410   0.32537
  Beta virt. eigenvalues --    0.33571   0.33987   0.34452   0.35526   0.36093
  Beta virt. eigenvalues --    0.37360   0.38092   0.38661   0.39860   0.40689
  Beta virt. eigenvalues --    0.41998   0.42776   0.43786   0.44258   0.45017
  Beta virt. eigenvalues --    0.46605   0.49085   0.49853   0.50520   0.51645
  Beta virt. eigenvalues --    0.53033   0.53280   0.55495   0.56783   0.57094
  Beta virt. eigenvalues --    0.57238   0.57588   0.58920   0.59339   0.60941
  Beta virt. eigenvalues --    0.61157   0.61837   0.62518   0.62872   0.63545
  Beta virt. eigenvalues --    0.64360   0.65798   0.65927   0.66069   0.67580
  Beta virt. eigenvalues --    0.68289   0.68696   0.69234   0.69305   0.70832
  Beta virt. eigenvalues --    0.72308   0.72520   0.74167   0.75290   0.75623
  Beta virt. eigenvalues --    0.77211   0.78083   0.78753   0.79470   0.82129
  Beta virt. eigenvalues --    0.83163   0.83449   0.85601   0.87474   0.87932
  Beta virt. eigenvalues --    0.90139   0.90499   0.91503   0.93045   0.95174
  Beta virt. eigenvalues --    0.95622   0.95777   0.99238   1.01068   1.02788
  Beta virt. eigenvalues --    1.03500   1.06588   1.07243   1.07682   1.08958
  Beta virt. eigenvalues --    1.11574   1.12828   1.15943   1.18069   1.19617
  Beta virt. eigenvalues --    1.19851   1.21798   1.22716   1.24731   1.25628
  Beta virt. eigenvalues --    1.26388   1.26655   1.29319   1.31091   1.40739
  Beta virt. eigenvalues --    1.42462   1.43784   1.44194   1.45467   1.46085
  Beta virt. eigenvalues --    1.48444   1.48453   1.49842   1.51458   1.52485
  Beta virt. eigenvalues --    1.53927   1.55166   1.56487   1.59275   1.59763
  Beta virt. eigenvalues --    1.61867   1.63601   1.64285   1.64982   1.67003
  Beta virt. eigenvalues --    1.67678   1.69242   1.69376   1.71279   1.71575
  Beta virt. eigenvalues --    1.74818   1.75843   1.76412   1.77930   1.78215
  Beta virt. eigenvalues --    1.79197   1.80456   1.81625   1.83442   1.85093
  Beta virt. eigenvalues --    1.89253   1.91509   1.92894   1.96488   1.96809
  Beta virt. eigenvalues --    1.97347   1.98938   1.99655   2.02758   2.05385
  Beta virt. eigenvalues --    2.06782   2.09224   2.09817   2.12039   2.12674
  Beta virt. eigenvalues --    2.14409   2.17456   2.19432   2.21061   2.21072
  Beta virt. eigenvalues --    2.23828   2.26474   2.27601   2.28108   2.34851
  Beta virt. eigenvalues --    2.39062   2.43134   2.45160   2.47178   2.49932
  Beta virt. eigenvalues --    2.51543   2.51739   2.52454   2.54228   2.54993
  Beta virt. eigenvalues --    2.57298   2.57513   2.58503   2.61032   2.61496
  Beta virt. eigenvalues --    2.63457   2.66589   2.67867   2.69778   2.70504
  Beta virt. eigenvalues --    2.73074   2.73244   2.75142   2.77391   2.79966
  Beta virt. eigenvalues --    2.82323   2.82626   2.84216   2.85490   2.88171
  Beta virt. eigenvalues --    2.89821   2.90800   2.93562   2.94208   2.98666
  Beta virt. eigenvalues --    3.01187   3.03919   3.04563   3.07504   3.09210
  Beta virt. eigenvalues --    3.15475   3.18949   3.19769   3.21325   3.26039
  Beta virt. eigenvalues --    3.29422   3.31591   3.33772   3.40933   3.47201
  Beta virt. eigenvalues --    3.54635   3.58917   3.62289   3.68456   3.75083
  Beta virt. eigenvalues --    3.77214   3.78786   3.79769   3.81083   3.81825
  Beta virt. eigenvalues --    3.84826   3.87672   4.06397   4.10189   4.12421
  Beta virt. eigenvalues --    4.15240   4.18515   4.20660   4.25761   4.26772
  Beta virt. eigenvalues --    4.37274   4.39074   4.56479   4.67374   5.02549
  Beta virt. eigenvalues --    5.04837   5.19869   5.24783   5.69264   5.78230
  Beta virt. eigenvalues --    6.75311   7.54460   7.66824   7.73463  23.55636
  Beta virt. eigenvalues --   23.70932  23.78520  23.83672  23.88523  23.97360
  Beta virt. eigenvalues --   23.98668  24.00274  24.15115  24.20013  48.00528
  Beta virt. eigenvalues --   49.97633  50.01984 289.74193 289.86532 289.95725
  Beta virt. eigenvalues -- 1020.81754
          Condensed to atoms (all electrons):
               1          2          3          4          5          6
     1  C    8.762650   1.168250  -1.039869  -0.258035   0.182320  -1.736044
     2  C    1.168250   7.611191   0.860161  -1.005087   0.781830  -2.535760
     3  C   -1.039869   0.860161  12.809171  -3.131103  -2.302853   0.632185
     4  C   -0.258035  -1.005087  -3.131103   9.862193  -0.150244  -0.460977
     5  C    0.182320   0.781830  -2.302853  -0.150244  10.171397  -1.477315
     6  C   -1.736044  -2.535760   0.632185  -0.460977  -1.477315  10.164971
     7  Br  -0.069090  -0.026847   0.057323   0.107938   0.074179   0.065754
     8  C   -0.650833  -1.023405  -3.243203   1.412274  -1.300001   0.896474
     9  C    0.089562   0.090562   0.425741  -0.234662  -0.099891   0.001940
    10  C   -0.165772  -0.002784  -0.088909  -0.015939   0.162844  -0.066215
    11  C    0.089577   0.090437   0.424590  -0.234503  -0.101007   0.002230
    12  O    0.511308  -0.187772   0.049836  -0.007304  -0.070352  -0.140204
    13  O   -0.033149  -0.016612  -0.236634   0.627970  -0.133165   0.060927
    14  H   -0.118985   0.554356  -0.029565   0.069338   0.107090  -0.206051
    15  H    0.075211   0.048914  -0.151184  -0.088224   0.541536  -0.090952
    16  H   -0.009465  -0.000742  -0.063108   0.014596  -0.006285   0.007347
    17  H    0.000265  -0.001048   0.034949   0.006437  -0.002340   0.000437
    18  H    0.002806  -0.012509  -0.079145   0.063199   0.025342  -0.002583
    19  H    0.003862  -0.004708  -0.002324  -0.014229  -0.011323   0.009171
    20  H    0.003886  -0.004723  -0.002463  -0.014177  -0.011362   0.009224
    21  H   -0.007213   0.012660  -0.000869  -0.004891   0.000646   0.004288
    22  H    0.002807  -0.012557  -0.079645   0.063447   0.025346  -0.002550
    23  H    0.000252  -0.001036   0.035018   0.006359  -0.002398   0.000456
    24  H   -0.009490  -0.000812  -0.063244   0.014681  -0.006212   0.007334
               7          8          9         10         11         12
     1  C   -0.069090  -0.650833   0.089562  -0.165772   0.089577   0.511308
     2  C   -0.026847  -1.023405   0.090562  -0.002784   0.090437  -0.187772
     3  C    0.057323  -3.243203   0.425741  -0.088909   0.424590   0.049836
     4  C    0.107938   1.412274  -0.234662  -0.015939  -0.234503  -0.007304
     5  C    0.074179  -1.300001  -0.099891   0.162844  -0.101007  -0.070352
     6  C    0.065754   0.896474   0.001940  -0.066215   0.002230  -0.140204
     7  Br  34.942248  -0.003324   0.001121  -0.002973   0.001129  -0.036233
     8  C   -0.003324   9.886069  -0.170381  -0.040875  -0.168716   0.023699
     9  C    0.001121  -0.170381   5.899560  -0.233306  -0.132718  -0.000560
    10  C   -0.002973  -0.040875  -0.233306   5.927620  -0.233281   0.006518
    11  C    0.001129  -0.168716  -0.132718  -0.233281   5.899559  -0.000563
    12  O   -0.036233   0.023699  -0.000560   0.006518  -0.000563   8.110918
    13  O    0.001725   0.096214  -0.069670   0.024407  -0.069758   0.000597
    14  H   -0.007469  -0.104920  -0.000874   0.025163  -0.000881  -0.028497
    15  H   -0.045248  -0.025517  -0.004882   0.004064  -0.004918   0.000607
    16  H    0.000097   0.051671   0.349680   0.008284   0.002539  -0.000021
    17  H   -0.000065  -0.062206   0.378622  -0.014813   0.005291   0.000061
    18  H   -0.000038  -0.056643   0.436111   0.010813  -0.024048  -0.000224
    19  H    0.000351  -0.001576  -0.010243   0.382547   0.017140   0.000290
    20  H    0.000351  -0.001549   0.017121   0.382606  -0.010224   0.000292
    21  H   -0.000002  -0.009975  -0.028137   0.409634  -0.028157   0.000383
    22  H   -0.000038  -0.056386  -0.023994   0.010773   0.436060  -0.000224
    23  H   -0.000065  -0.062195   0.005234  -0.014760   0.378663   0.000062
    24  H    0.000096   0.051673   0.002515   0.008321   0.349720  -0.000021
              13         14         15         16         17         18
     1  C   -0.033149  -0.118985   0.075211  -0.009465   0.000265   0.002806
     2  C   -0.016612   0.554356   0.048914  -0.000742  -0.001048  -0.012509
     3  C   -0.236634  -0.029565  -0.151184  -0.063108   0.034949  -0.079145
     4  C    0.627970   0.069338  -0.088224   0.014596   0.006437   0.063199
     5  C   -0.133165   0.107090   0.541536  -0.006285  -0.002340   0.025342
     6  C    0.060927  -0.206051  -0.090952   0.007347   0.000437  -0.002583
     7  Br   0.001725  -0.007469  -0.045248   0.000097  -0.000065  -0.000038
     8  C    0.096214  -0.104920  -0.025517   0.051671  -0.062206  -0.056643
     9  C   -0.069670  -0.000874  -0.004882   0.349680   0.378622   0.436111
    10  C    0.024407   0.025163   0.004064   0.008284  -0.014813   0.010813
    11  C   -0.069758  -0.000881  -0.004918   0.002539   0.005291  -0.024048
    12  O    0.000597  -0.028497   0.000607  -0.000021   0.000061  -0.000224
    13  O    8.014294   0.000340  -0.022354   0.003045   0.001016  -0.010087
    14  H    0.000340   0.503745   0.005603  -0.000590  -0.000518   0.000189
    15  H   -0.022354   0.005603   0.478626  -0.000349   0.000047   0.000701
    16  H    0.003045  -0.000590  -0.000349   0.541928  -0.027754  -0.022378
    17  H    0.001016  -0.000518   0.000047  -0.027754   0.546004  -0.034737
    18  H   -0.010087   0.000189   0.000701  -0.022378  -0.034737   0.535355
    19  H   -0.000341  -0.008427  -0.000386   0.002562   0.005271  -0.000164
    20  H   -0.000339  -0.008435  -0.000387   0.000906  -0.001242  -0.003592
    21  H   -0.000048   0.000877  -0.000113  -0.000277   0.000751   0.002030
    22  H   -0.010046   0.000193   0.000697   0.000984   0.005395  -0.011319
    23  H    0.001005  -0.000525   0.000045   0.001180  -0.009339   0.005384
    24  H    0.003047  -0.000579  -0.000349  -0.004110   0.001184   0.000982
              19         20         21         22         23         24
     1  C    0.003862   0.003886  -0.007213   0.002807   0.000252  -0.009490
     2  C   -0.004708  -0.004723   0.012660  -0.012557  -0.001036  -0.000812
     3  C   -0.002324  -0.002463  -0.000869  -0.079645   0.035018  -0.063244
     4  C   -0.014229  -0.014177  -0.004891   0.063447   0.006359   0.014681
     5  C   -0.011323  -0.011362   0.000646   0.025346  -0.002398  -0.006212
     6  C    0.009171   0.009224   0.004288  -0.002550   0.000456   0.007334
     7  Br   0.000351   0.000351  -0.000002  -0.000038  -0.000065   0.000096
     8  C   -0.001576  -0.001549  -0.009975  -0.056386  -0.062195   0.051673
     9  C   -0.010243   0.017121  -0.028137  -0.023994   0.005234   0.002515
    10  C    0.382547   0.382606   0.409634   0.010773  -0.014760   0.008321
    11  C    0.017140  -0.010224  -0.028157   0.436060   0.378663   0.349720
    12  O    0.000290   0.000292   0.000383  -0.000224   0.000062  -0.000021
    13  O   -0.000341  -0.000339  -0.000048  -0.010046   0.001005   0.003047
    14  H   -0.008427  -0.008435   0.000877   0.000193  -0.000525  -0.000579
    15  H   -0.000386  -0.000387  -0.000113   0.000697   0.000045  -0.000349
    16  H    0.002562   0.000906  -0.000277   0.000984   0.001180  -0.004110
    17  H    0.005271  -0.001242   0.000751   0.005395  -0.009339   0.001184
    18  H   -0.000164  -0.003592   0.002030  -0.011319   0.005384   0.000982
    19  H    0.557585  -0.041643  -0.023116  -0.003593  -0.001239   0.000902
    20  H   -0.041643   0.557555  -0.023102  -0.000161   0.005269   0.002561
    21  H   -0.023116  -0.023102   0.508496   0.002026   0.000769  -0.000276
    22  H   -0.003593  -0.000161   0.002026   0.535298  -0.034710  -0.022373
    23  H   -0.001239   0.005269   0.000769  -0.034710   0.545983  -0.027738
    24  H    0.000902   0.002561  -0.000276  -0.022373  -0.027738   0.541934
          Atomic-Atomic Spin Densities.
               1          2          3          4          5          6
     1  C    0.000000  -0.000000  -0.000000   0.000000  -0.000000   0.000000
     2  C   -0.000000   0.000000   0.000000  -0.000000  -0.000000  -0.000000
     3  C   -0.000000   0.000000   0.000000  -0.000000   0.000000  -0.000000
     4  C    0.000000  -0.000000  -0.000000   0.000000  -0.000000  -0.000000
     5  C   -0.000000  -0.000000   0.000000  -0.000000  -0.000000   0.000000
     6  C    0.000000  -0.000000  -0.000000  -0.000000   0.000000  -0.000000
     7  Br  -0.000000   0.000000   0.000000  -0.000000   0.000000  -0.000000
     8  C    0.000000   0.000000  -0.000000   0.000000   0.000000  -0.000000
     9  C    0.000000   0.000000   0.000000  -0.000000   0.000000  -0.000000
    10  C    0.000000   0.000000   0.000000  -0.000000  -0.000000   0.000000
    11  C   -0.000000  -0.000000   0.000000  -0.000000   0.000000  -0.000000
    12  O    0.000000  -0.000000  -0.000000   0.000000  -0.000000   0.000000
    13  O   -0.000000   0.000000   0.000000  -0.000000   0.000000  -0.000000
    14  H    0.000000   0.000000  -0.000000   0.000000  -0.000000   0.000000
    15  H    0.000000  -0.000000   0.000000   0.000000  -0.000000   0.000000
    16  H   -0.000000   0.000000   0.000000  -0.000000  -0.000000  -0.000000
    17  H    0.000000  -0.000000  -0.000000   0.000000   0.000000  -0.000000
    18  H    0.000000  -0.000000  -0.000000   0.000000  -0.000000   0.000000
    19  H   -0.000000  -0.000000  -0.000000   0.000000   0.000000   0.000000
    20  H   -0.000000  -0.000000  -0.000000   0.000000   0.000000  -0.000000
    21  H   -0.000000   0.000000   0.000000  -0.000000  -0.000000  -0.000000
    22  H    0.000000  -0.000000  -0.000000   0.000000  -0.000000   0.000000
    23  H    0.000000  -0.000000   0.000000   0.000000   0.000000  -0.000000
    24  H    0.000000   0.000000   0.000000  -0.000000  -0.000000   0.000000
               7          8          9         10         11         12
     1  C   -0.000000   0.000000   0.000000   0.000000  -0.000000   0.000000
     2  C    0.000000   0.000000   0.000000   0.000000  -0.000000  -0.000000
     3  C    0.000000  -0.000000   0.000000   0.000000   0.000000  -0.000000
     4  C   -0.000000   0.000000  -0.000000  -0.000000  -0.000000   0.000000
     5  C    0.000000   0.000000   0.000000  -0.000000   0.000000  -0.000000
     6  C   -0.000000  -0.000000  -0.000000   0.000000  -0.000000   0.000000
     7  Br   0.000000  -0.000000   0.000000   0.000000  -0.000000   0.000000
     8  C   -0.000000  -0.000000  -0.000000  -0.000000   0.000000  -0.000000
     9  C    0.000000  -0.000000   0.000000   0.000000   0.000000   0.000000
    10  C    0.000000  -0.000000   0.000000  -0.000000   0.000000   0.000000
    11  C   -0.000000   0.000000   0.000000   0.000000  -0.000000   0.000000
    12  O    0.000000  -0.000000   0.000000   0.000000   0.000000  -0.000000
    13  O    0.000000   0.000000   0.000000  -0.000000   0.000000  -0.000000
    14  H    0.000000   0.000000  -0.000000  -0.000000   0.000000  -0.000000
    15  H    0.000000   0.000000   0.000000  -0.000000   0.000000   0.000000
    16  H   -0.000000  -0.000000   0.000000  -0.000000   0.000000  -0.000000
    17  H   -0.000000  -0.000000  -0.000000   0.000000  -0.000000  -0.000000
    18  H    0.000000   0.000000  -0.000000  -0.000000  -0.000000   0.000000
    19  H   -0.000000  -0.000000   0.000000   0.000000  -0.000000   0.000000
    20  H   -0.000000   0.000000  -0.000000  -0.000000  -0.000000   0.000000
    21  H    0.000000  -0.000000   0.000000  -0.000000   0.000000  -0.000000
    22  H    0.000000   0.000000  -0.000000  -0.000000  -0.000000   0.000000
    23  H   -0.000000  -0.000000  -0.000000   0.000000   0.000000  -0.000000
    24  H    0.000000   0.000000  -0.000000  -0.000000   0.000000  -0.000000
              13         14         15         16         17         18
     1  C   -0.000000   0.000000   0.000000  -0.000000   0.000000   0.000000
     2  C    0.000000   0.000000  -0.000000   0.000000  -0.000000  -0.000000
     3  C    0.000000  -0.000000   0.000000   0.000000  -0.000000  -0.000000
     4  C   -0.000000   0.000000   0.000000  -0.000000   0.000000   0.000000
     5  C    0.000000  -0.000000  -0.000000  -0.000000   0.000000  -0.000000
     6  C   -0.000000   0.000000   0.000000  -0.000000  -0.000000   0.000000
     7  Br   0.000000   0.000000   0.000000  -0.000000  -0.000000   0.000000
     8  C    0.000000   0.000000   0.000000  -0.000000  -0.000000   0.000000
     9  C    0.000000  -0.000000   0.000000   0.000000  -0.000000  -0.000000
    10  C   -0.000000  -0.000000  -0.000000  -0.000000   0.000000  -0.000000
    11  C    0.000000   0.000000   0.000000   0.000000  -0.000000  -0.000000
    12  O   -0.000000  -0.000000   0.000000  -0.000000  -0.000000   0.000000
    13  O    0.000000  -0.000000   0.000000  -0.000000   0.000000   0.000000
    14  H   -0.000000   0.000000  -0.000000   0.000000   0.000000  -0.000000
    15  H    0.000000  -0.000000  -0.000000  -0.000000   0.000000   0.000000
    16  H   -0.000000   0.000000  -0.000000  -0.000000   0.000000   0.000000
    17  H    0.000000   0.000000   0.000000   0.000000   0.000000  -0.000000
    18  H    0.000000  -0.000000   0.000000   0.000000  -0.000000   0.000000
    19  H    0.000000   0.000000   0.000000   0.000000  -0.000000   0.000000
    20  H    0.000000   0.000000   0.000000   0.000000  -0.000000   0.000000
    21  H   -0.000000  -0.000000  -0.000000  -0.000000   0.000000  -0.000000
    22  H    0.000000  -0.000000  -0.000000   0.000000  -0.000000   0.000000
    23  H    0.000000   0.000000   0.000000  -0.000000   0.000000  -0.000000
    24  H   -0.000000   0.000000  -0.000000  -0.000000  -0.000000   0.000000
              19         20         21         22         23         24
     1  C   -0.000000  -0.000000  -0.000000   0.000000   0.000000   0.000000
     2  C   -0.000000  -0.000000   0.000000  -0.000000  -0.000000   0.000000
     3  C   -0.000000  -0.000000   0.000000  -0.000000   0.000000   0.000000
     4  C    0.000000   0.000000  -0.000000   0.000000   0.000000  -0.000000
     5  C    0.000000   0.000000  -0.000000  -0.000000   0.000000  -0.000000
     6  C    0.000000  -0.000000  -0.000000   0.000000  -0.000000   0.000000
     7  Br  -0.000000  -0.000000   0.000000   0.000000  -0.000000   0.000000
     8  C   -0.000000   0.000000  -0.000000   0.000000  -0.000000   0.000000
     9  C    0.000000  -0.000000   0.000000  -0.000000  -0.000000  -0.000000
    10  C    0.000000  -0.000000  -0.000000  -0.000000   0.000000  -0.000000
    11  C   -0.000000  -0.000000   0.000000  -0.000000   0.000000   0.000000
    12  O    0.000000   0.000000  -0.000000   0.000000  -0.000000  -0.000000
    13  O    0.000000   0.000000  -0.000000   0.000000   0.000000  -0.000000
    14  H    0.000000   0.000000  -0.000000  -0.000000   0.000000   0.000000
    15  H    0.000000   0.000000  -0.000000  -0.000000   0.000000  -0.000000
    16  H    0.000000   0.000000  -0.000000   0.000000  -0.000000  -0.000000
    17  H   -0.000000  -0.000000   0.000000  -0.000000   0.000000  -0.000000
    18  H    0.000000   0.000000  -0.000000   0.000000  -0.000000   0.000000
    19  H   -0.000000  -0.000000   0.000000  -0.000000  -0.000000   0.000000
    20  H   -0.000000   0.000000   0.000000   0.000000  -0.000000   0.000000
    21  H    0.000000   0.000000   0.000000  -0.000000   0.000000  -0.000000
    22  H   -0.000000   0.000000  -0.000000   0.000000  -0.000000   0.000000
    23  H   -0.000000  -0.000000   0.000000  -0.000000   0.000000  -0.000000
    24  H    0.000000   0.000000  -0.000000   0.000000  -0.000000  -0.000000
 Mulliken charges and spin densities:
               1          2
     1  C   -0.794813  -0.000000
     2  C   -0.381962  -0.000000
     3  C    1.185147  -0.000000
     4  C   -0.629057   0.000000
     5  C   -0.397780   0.000000
     6  C    0.855914  -0.000000
     7  Br  -0.060920  -0.000000
     8  C    0.563628   0.000000
     9  C   -0.688452  -0.000000
    10  C   -0.483967   0.000000
    11  C   -0.688160  -0.000000
    12  O   -0.232595  -0.000000
    13  O   -0.232383  -0.000000
    14  H    0.249422   0.000000
    15  H    0.278812   0.000000
    16  H    0.150258  -0.000000
    17  H    0.168329   0.000000
    18  H    0.174556   0.000000
    19  H    0.143630  -0.000000
    20  H    0.143628  -0.000000
    21  H    0.183615   0.000000
    22  H    0.174571   0.000000
    23  H    0.168325   0.000000
    24  H    0.150254  -0.000000
 Sum of Mulliken charges =  -0.00000   0.00000
 Mulliken charges and spin densities with hydrogens summed into heavy atoms:
               1          2
     1  C   -0.794813  -0.000000
     2  C   -0.132540  -0.000000
     3  C    1.185147  -0.000000
     4  C   -0.629057   0.000000
     5  C   -0.118968   0.000000
     6  C    0.855914  -0.000000
     7  Br  -0.060920  -0.000000
     8  C    0.563628   0.000000
     9  C   -0.195308  -0.000000
    10  C   -0.013094   0.000000
    11  C   -0.195010  -0.000000
    12  O   -0.232595  -0.000000
    13  O   -0.232383  -0.000000
 Electronic spatial extent (au):  <R**2>=           4036.1423
 Charge=             -0.0000 electrons
 Dipole moment (field-independent basis, Debye):
    X=              2.7717    Y=             -0.2548    Z=              0.0003  Tot=              2.7833
 Quadrupole moment (field-independent basis, Debye-Ang):
   XX=            -87.5208   YY=           -101.5406   ZZ=            -89.7384
   XY=             12.4165   XZ=              0.0025   YZ=             -0.0026
 Traceless Quadrupole moment (field-independent basis, Debye-Ang):
   XX=              5.4124   YY=             -8.6073   ZZ=              3.1949
   XY=             12.4165   XZ=              0.0025   YZ=             -0.0026
 Octapole moment (field-independent basis, Debye-Ang**2):
  XXX=            -82.7191  YYY=             -8.5552  ZZZ=              0.0002  XYY=            -33.0580
  XXY=             -1.9831  XXZ=              0.0082  XZZ=            -34.3385  YZZ=             -0.7845
  YYZ=              0.0003  XYZ=             -0.0007
 Hexadecapole moment (field-independent basis, Debye-Ang**3):
 XXXX=          -3492.0013 YYYY=           -953.3958 ZZZZ=           -283.9889 XXXY=             43.9737
 XXXZ=              0.0549 YYYX=             81.8090 YYYZ=             -0.0145 ZZZX=             -0.0006
 ZZZY=              0.0010 XXYY=           -803.4391 XXZZ=           -676.1636 YYZZ=           -189.0753
 XXYZ=             -0.0091 YYXZ=              0.0030 ZZXY=              0.8534
 N-N= 1.061410112804D+03 E-N=-9.528708539025D+03  KE= 3.107037909233D+03
                          Isotropic Fermi Contact Couplings
        Atom                 a.u.       MegaHertz       Gauss      10(-4) cm-1
     1  C(13)              0.00000       0.00000       0.00000       0.00000
     2  C(13)              0.00000       0.00000       0.00000       0.00000
     3  C(13)              0.00000       0.00000       0.00000       0.00000
     4  C(13)              0.00000       0.00000       0.00000       0.00000
     5  C(13)              0.00000       0.00000       0.00000       0.00000
     6  C(13)              0.00000       0.00000       0.00000       0.00000
     7  Br(79)             0.00000       0.00000       0.00000       0.00000
     8  C(13)              0.00000       0.00000       0.00000       0.00000
     9  C(13)              0.00000       0.00000       0.00000       0.00000
    10  C(13)              0.00000       0.00000       0.00000       0.00000
    11  C(13)              0.00000       0.00000       0.00000       0.00000
    12  O(17)              0.00000      -0.00000      -0.00000      -0.00000
    13  O(17)              0.00000      -0.00000      -0.00000      -0.00000
    14  H(1)               0.00000       0.00000       0.00000       0.00000
    15  H(1)               0.00000       0.00000       0.00000       0.00000
    16  H(1)               0.00000       0.00000       0.00000       0.00000
    17  H(1)               0.00000       0.00000       0.00000       0.00000
    18  H(1)               0.00000       0.00000       0.00000       0.00000
    19  H(1)              -0.00000      -0.00000      -0.00000      -0.00000
    20  H(1)               0.00000       0.00000       0.00000       0.00000
    21  H(1)               0.00000       0.00000       0.00000       0.00000
    22  H(1)               0.00000       0.00000       0.00000       0.00000
    23  H(1)               0.00000       0.00000       0.00000       0.00000
    24  H(1)              -0.00000      -0.00000      -0.00000      -0.00000
 --------------------------------------------------------
       Center         ----  Spin Dipole Couplings  ----
                      3XX-RR        3YY-RR        3ZZ-RR
 --------------------------------------------------------
     1   Atom        0.000000     -0.000000     -0.000000
     2   Atom        0.000000     -0.000000      0.000000
     3   Atom        0.000000      0.000000     -0.000000
     4   Atom        0.000000     -0.000000     -0.000000
     5   Atom        0.000000      0.000000     -0.000000
     6   Atom       -0.000000      0.000000      0.000000
     7   Atom        0.000000     -0.000000      0.000000
     8   Atom        0.000000     -0.000000     -0.000000
     9   Atom       -0.000000     -0.000000      0.000000
    10   Atom       -0.000000      0.000000      0.000000
    11   Atom       -0.000000     -0.000000      0.000000
    12   Atom       -0.000000      0.000000      0.000000
    13   Atom        0.000000     -0.000000      0.000000
    14   Atom       -0.000000      0.000000     -0.000000
    15   Atom        0.000000      0.000000     -0.000000
    16   Atom        0.000000      0.000000     -0.000000
    17   Atom       -0.000000      0.000000      0.000000
    18   Atom        0.000000     -0.000000      0.000000
    19   Atom       -0.000000      0.000000      0.000000
    20   Atom       -0.000000      0.000000      0.000000
    21   Atom        0.000000      0.000000     -0.000000
    22   Atom       -0.000000     -0.000000      0.000000
    23   Atom       -0.000000      0.000000     -0.000000
    24   Atom       -0.000000      0.000000     -0.000000
 --------------------------------------------------------
                        XY            XZ            YZ
 --------------------------------------------------------
     1   Atom       -0.000000      0.000000     -0.000000
     2   Atom        0.000000     -0.000000      0.000000
     3   Atom       -0.000000     -0.000000      0.000000
     4   Atom       -0.000000     -0.000000      0.000000
     5   Atom       -0.000000     -0.000000     -0.000000
     6   Atom        0.000000      0.000000      0.000000
     7   Atom       -0.000000     -0.000000     -0.000000
     8   Atom        0.000000      0.000000     -0.000000
     9   Atom       -0.000000      0.000000      0.000000
    10   Atom       -0.000000      0.000000      0.000000
    11   Atom       -0.000000      0.000000     -0.000000
    12   Atom        0.000000      0.000000      0.000000
    13   Atom       -0.000000      0.000000     -0.000000
    14   Atom        0.000000     -0.000000      0.000000
    15   Atom       -0.000000      0.000000     -0.000000
    16   Atom        0.000000     -0.000000     -0.000000
    17   Atom       -0.000000      0.000000     -0.000000
    18   Atom        0.000000      0.000000     -0.000000
    19   Atom       -0.000000     -0.000000      0.000000
    20   Atom       -0.000000      0.000000      0.000000
    21   Atom        0.000000     -0.000000      0.000000
    22   Atom        0.000000     -0.000000     -0.000000
    23   Atom       -0.000000      0.000000      0.000000
    24   Atom        0.000000     -0.000000      0.000000
 --------------------------------------------------------


 ---------------------------------------------------------------------------------
              Anisotropic Spin Dipole Couplings in Principal Axis System
 ---------------------------------------------------------------------------------

       Atom             a.u.   MegaHertz   Gauss  10(-4) cm-1        Axes

              Baa    -0.0000    -0.000    -0.000    -0.000  0.5485  0.8259  0.1303
     1 C(13)  Bbb    -0.0000    -0.000    -0.000    -0.000 -0.0805 -0.1029  0.9914
              Bcc     0.0000     0.000     0.000     0.000  0.8323 -0.5543  0.0100
 
              Baa    -0.0000    -0.000    -0.000    -0.000 -0.4980  0.8569 -0.1330
     2 C(13)  Bbb     0.0000     0.000     0.000     0.000  0.6417  0.4674  0.6081
              Bcc     0.0000     0.000     0.000     0.000 -0.5833 -0.2175  0.7826
 
              Baa    -0.0000    -0.000    -0.000    -0.000  0.0131 -0.0725  0.9973
     3 C(13)  Bbb    -0.0000    -0.000    -0.000    -0.000  0.6992  0.7137  0.0427
              Bcc     0.0000     0.000     0.000     0.000  0.7148 -0.6967 -0.0600
 
              Baa    -0.0000    -0.000    -0.000    -0.000  0.2867  0.9549 -0.0778
     4 C(13)  Bbb    -0.0000    -0.000    -0.000    -0.000  0.0536  0.0651  0.9964
              Bcc     0.0000     0.000     0.000     0.000  0.9565 -0.2898 -0.0325
 
              Baa    -0.0000    -0.000    -0.000    -0.000  0.0673  0.1028  0.9924
     5 C(13)  Bbb     0.0000     0.000     0.000     0.000  0.6739  0.7288 -0.1212
              Bcc     0.0000     0.000     0.000     0.000  0.7358 -0.6769  0.0202
 
              Baa    -0.0000    -0.000    -0.000    -0.000  0.9916 -0.1296  0.0009
     6 C(13)  Bbb     0.0000     0.000     0.000     0.000 -0.0024 -0.0119  0.9999
              Bcc     0.0000     0.000     0.000     0.000  0.1296  0.9915  0.0121
 
              Baa    -0.0000    -0.000    -0.000    -0.000  0.0631  0.9971  0.0424
     7 Br(79) Bbb     0.0000     0.000     0.000     0.000  0.9979 -0.0636  0.0086
              Bcc     0.0000     0.000     0.000     0.000 -0.0113 -0.0418  0.9991
 
              Baa    -0.0000    -0.000    -0.000    -0.000 -0.3256  0.3885  0.8620
     8 C(13)  Bbb    -0.0000    -0.000    -0.000    -0.000 -0.4182  0.7585 -0.4998
              Bcc     0.0000     0.000     0.000     0.000  0.8480  0.5233  0.0845
 
              Baa    -0.0000    -0.000    -0.000    -0.000  0.8378  0.4072 -0.3636
     9 C(13)  Bbb     0.0000     0.000     0.000     0.000 -0.5047  0.8317 -0.2314
              Bcc     0.0000     0.000     0.000     0.000  0.2082  0.3774  0.9023
 
              Baa    -0.0000    -0.000    -0.000    -0.000  0.8629  0.4676 -0.1917
    10 C(13)  Bbb     0.0000     0.000     0.000     0.000  0.2583 -0.0820  0.9626
              Bcc     0.0000     0.000     0.000     0.000 -0.4344  0.8801  0.1915
 
              Baa    -0.0000    -0.000    -0.000    -0.000  0.3170  0.7327  0.6023
    11 C(13)  Bbb    -0.0000    -0.000    -0.000    -0.000  0.8908 -0.0120 -0.4543
              Bcc     0.0000     0.000     0.000     0.000 -0.3256  0.6805 -0.6564
 
              Baa    -0.0000     0.000     0.000     0.000  0.9875 -0.1562 -0.0201
    12 O(17)  Bbb     0.0000    -0.000    -0.000    -0.000  0.0085 -0.0743  0.9972
              Bcc     0.0000    -0.000    -0.000    -0.000  0.1573  0.9849  0.0720
 
              Baa    -0.0000     0.000     0.000     0.000  0.3906  0.9205  0.0081
    13 O(17)  Bbb     0.0000    -0.000    -0.000    -0.000 -0.1928  0.0732  0.9785
              Bcc     0.0000    -0.000    -0.000    -0.000  0.9001 -0.3838  0.2060
 
              Baa    -0.0000    -0.000    -0.000    -0.000  0.9534 -0.2711  0.1326
    14 H(1)   Bbb    -0.0000    -0.000    -0.000    -0.000 -0.1323  0.0198  0.9910
              Bcc     0.0000     0.000     0.000     0.000  0.2713  0.9624  0.0170
 
              Baa    -0.0000    -0.000    -0.000    -0.000  0.6580  0.6488  0.3822
    15 H(1)   Bbb    -0.0000    -0.000    -0.000    -0.000 -0.3437 -0.1929  0.9191
              Bcc     0.0000     0.000     0.000     0.000 -0.6700  0.7361 -0.0961
 
              Baa    -0.0000    -0.000    -0.000    -0.000 -0.0107  0.5417  0.8405
    16 H(1)   Bbb     0.0000     0.000     0.000     0.000  0.9958 -0.0708  0.0583
              Bcc     0.0000     0.000     0.000     0.000  0.0911  0.8376 -0.5387
 
              Baa    -0.0000    -0.000    -0.000    -0.000  0.9393  0.0631 -0.3372
    17 H(1)   Bbb     0.0000     0.000     0.000     0.000  0.2892  0.3828  0.8774
              Bcc     0.0000     0.000     0.000     0.000 -0.1844  0.9217 -0.3413
 
              Baa    -0.0000    -0.000    -0.000    -0.000 -0.5083  0.8026  0.3122
    18 H(1)   Bbb     0.0000     0.000     0.000     0.000 -0.1351 -0.4324  0.8915
              Bcc     0.0000     0.000     0.000     0.000  0.8505  0.4110  0.3283
 
              Baa    -0.0000    -0.000    -0.000    -0.000  0.8518  0.0897  0.5162
    19 H(1)   Bbb     0.0000     0.000     0.000     0.000  0.1664  0.8879 -0.4288
              Bcc     0.0000     0.000     0.000     0.000 -0.4968  0.4511  0.7414
 
              Baa    -0.0000    -0.000    -0.000    -0.000  0.8949  0.1420 -0.4230
    20 H(1)   Bbb     0.0000     0.000     0.000     0.000  0.4028  0.1505  0.9028
              Bcc     0.0000     0.000     0.000     0.000 -0.1919  0.9784 -0.0775
 
              Baa    -0.0000    -0.000    -0.000    -0.000 -0.6885  0.6960 -0.2039
    21 H(1)   Bbb    -0.0000    -0.000    -0.000    -0.000 -0.2025  0.0854  0.9755
              Bcc     0.0000     0.000     0.000     0.000  0.6964  0.7130  0.0822
 
              Baa    -0.0000    -0.000    -0.000    -0.000  0.8082 -0.4071  0.4255
    22 H(1)   Bbb    -0.0000    -0.000    -0.000    -0.000  0.2747  0.8998  0.3390
              Bcc     0.0000     0.000     0.000     0.000 -0.5209 -0.1571  0.8391
 
              Baa    -0.0000    -0.000    -0.000    -0.000 -0.4446 -0.5730  0.6885
    23 H(1)   Bbb    -0.0000    -0.000    -0.000    -0.000  0.8314  0.0222  0.5552
              Bcc     0.0000     0.000     0.000     0.000 -0.3334  0.8193  0.4665
 
              Baa    -0.0000    -0.000    -0.000    -0.000  0.8894 -0.1652  0.4263
    24 H(1)   Bbb    -0.0000    -0.000    -0.000    -0.000 -0.4535 -0.1999  0.8686
              Bcc     0.0000     0.000     0.000     0.000  0.0583  0.9658  0.2527
 

 ---------------------------------------------------------------------------------

 No NMR shielding tensors so no spin-rotation constants.
 Leave Link  601 at Sun Jan 21 06:42:29 2024, MaxMem=  4026531840 cpu:               4.1 elap:               0.7
 (Enter /sysapps/ubuntu-applications/gaussian/Gaussian/AVX2/g16/l9999.exe)
 1\1\GINC-ACIDSCN027\SP\UB3LYP\6-311++G(d,p)\C10H11Br1O2\SELHAJJ1\21-Ja
 n-2024\0\\#P UB3LYP/6-311++G(d,p) SCRF=(PCM,Solvent=n,n-DiMethylFormam
 ide)\\Quinone PCM in DMF\\0,1\C,0,-1.074371,1.571055,1.014194\C,0,-2.3
 93189,0.903566,0.920709\C,0,-2.719188,-0.045396,0.022449\C,0,-1.652199
 ,-0.45408,-0.960391\C,0,-0.320607,0.201843,-0.886052\C,0,-0.038607,1.1
 41194,0.023227\Br,0,1.658609,1.979626,0.121287\C,0,-4.096845,-0.710561
 ,-0.040435\C,0,-4.742991,-0.440661,-1.422925\C,0,-5.038176,-0.155304,1
 .044321\C,0,-3.949572,-2.236702,0.184946\O,0,-0.861075,2.420213,1.8561
 76\O,0,-1.833539,-1.302645,-1.81773\H,0,-3.095298,1.258691,1.663674\H,
 0,0.398941,-0.137921,-1.620588\H,0,-4.852971,0.63344,-1.599007\H,0,-5.
 741343,-0.886571,-1.447682\H,0,-4.156156,-0.869863,-2.233436\H,0,-5.21
 1652,0.918151,0.928131\H,0,-4.656501,-0.337543,2.052783\H,0,-6.006916,
 -0.654191,0.965371\H,0,-3.345919,-2.703067,-0.59198\H,0,-4.940255,-2.6
 99917,0.17524\H,0,-3.493421,-2.445007,1.157228\\Version=ES64L-G16RevA.
 03\State=1-A\HF=-3112.4089146\S2=0.\S2-1=0.\S2A=0.\RMSD=4.230e-09\Dipo
 le=-0.9336114,-0.5510649,-0.1543818\Quadrupole=8.2180196,-4.3933025,-3
 .8247171,-0.7265543,-3.692466,-7.1914471\PG=C01 [X(C10H11Br1O2)]\\@


 SIGN SEEN IN A RESTAURANT-
 WE RESERVE THE RIGHT TO SERVE REFUSE TO ANYONE.
 Job cpu time:       0 days  0 hours 13 minutes 51.6 seconds.
 Elapsed time:       0 days  0 hours  1 minutes 45.2 seconds.
 File lengths (MBytes):  RWF=    216 Int=      0 D2E=      0 Chk=     12 Scr=      1
 Normal termination of Gaussian 16 at Sun Jan 21 06:42:29 2024.
