
Running Job 1 of 1 103-an-SM12.in
qchem 103-an-SM12.in_3661470.0 /expanse/lustre/scratch/selhajj/temp_project/qcscratch/28445339/qchem3661470/ 0
/cm/shared/apps/spack/cpu/opt/spack/linux-centos8-zen2/gcc-10.2.0/qchem-5.4-akfmr7b3t57bfs6qan3padb2wnb2i7cl/exe/qcprog.exe_s 103-an-SM12.in_3661470.0 /expanse/lustre/scratch/selhajj/temp_project/qcscratch/28445339/qchem3661470/
                  Welcome to Q-Chem
     A Quantum Leap Into The Future Of Chemistry


 Q-Chem 5.4, Q-Chem, Inc., Pleasanton, CA (2021)

 License issued to: University of California, San Diego (site)

 E. Epifanovsky,  A. T. B. Gilbert,  Xintian Feng,  Joonho Lee,  Yuezhi Mao,  
 N. Mardirossian,  P. Pokhilko,  A. White,  M. Wormit,  M. P. Coons,  
 A. L. Dempwolff,  Zhengting Gan,  D. Hait,  P. R. Horn,  L. D. Jacobson,  
 I. Kaliman,  J. Kussmann,  A. W. Lange,  Ka Un Lao,  D. S. Levine,  Jie Liu,  
 S. C. McKenzie,  A. F. Morrison,  K. Nanda,  F. Plasser,  D. R. Rehn,  
 M. L. Vidal,  Zhi-Qiang You,  Ying Zhu,  B. Alam,  B. Albrecht,  
 A. Aldossary,  E. Alguire,  J. H. Andersen,  D. Barton,  K. Begam,  A. Behn,  
 Y. A. Bernard,  E. J. Berquist,  H. Burton,  A. Carreras,  K. Carter-Fenk,  
 R. Chakraborty,  A. D. Chien,  K. D. Closser,  V. Cofer-Shabica,  
 S. Dasgupta,  Jia Deng,  M. de Wergifosse,  M. Diedenhofen,  Hainam Do,  
 S. Ehlert,  Po-Tung Fang,  S. Fatehi,  Qingguo Feng,  J. Gayvert,  
 Qinghui Ge,  G. Gidofalvi,  M. Goldey,  J. Gomes,  C. Gonzalez-Espinoza,  
 S. Gulania,  A. Gunina,  M. W. D. Hanson-Heine,  P. H. P. Harbach,  
 A. W. Hauser,  M. F. Herbst,  M. Hernandez Vera,  M. Hodecker,  
 Z. C. Holden,  S. Houck,  Xunkun Huang,  Kerwin Hui,  B. C. Huynh,  
 M. Ivanov,  Hyunjun Ji,  Hanjie Jiang,  B. Kaduk,  S. Kaehler,  
 K. Khistyaev,  Jaehoon Kim,  P. Klunzinger,  Z. Koczor-Benda,  
 Joong Hoon Koh,  D. Kosenkov,  L. Koulias,  T. Kowalczyk,  C. M. Krauter,  
 K. Kue,  A. Kunitsa,  T. Kus,  A. Landau,  K. V. Lawler,  D. Lefrancois,  
 S. Lehtola,  Rain Li,  Yi-Pei Li,  Jiashu Liang,  M. Liebenthal,  
 Hung-Hsuan Lin,  You-Sheng Lin,  Fenglai Liu,  Kuan-Yu Liu,  
 M. Loipersberger,  A. Luenser,  A. Manjanath,  P. Manohar,  E. Mansoor,  
 S. F. Manzer,  Shan-Ping Mao,  A. V. Marenich,  T. Markovich,  S. Mason,  
 S. A. Maurer,  P. F. McLaughlin,  M. F. S. J. Menger,  J.-M. Mewes,  
 S. A. Mewes,  P. Morgante,  J. W. Mullinax,  T. S. Nguyen-Beck,  
 K. J. Oosterbaan,  G. Paran,  Alexander C. Paul,  Suranjan K. Paul,  
 F. Pavosevic,  Zheng Pei,  S. Prager,  E. I. Proynov,  E. Ramos,  B. Rana,  
 A. E. Rask,  A. Rettig,  R. M. Richard,  F. Rob,  E. Rossomme,  T. Scheele,  
 M. Scheurer,  M. Schneider,  N. Sergueev,  S. M. Sharada,  W. Skomorowski,  
 D. W. Small,  C. J. Stein,  Yu-Chuan Su,  E. J. Sundstrom,  Zhen Tao,  
 J. Thirman,  T. Tsuchimochi,  N. M. Tubman,  S. P. Veccham,  O. Vydrov,  
 J. Wenzel,  J. Witte,  A. Yamada,  Kun Yao,  S. Yeganeh,  S. R. Yost,  
 A. Zech,  Igor Ying Zhang,  Xing Zhang,  Yu Zhang,  D. Zuev,  
 A. Aspuru-Guzik,  A. T. Bell,  N. A. Besley,  K. B. Bravaya,  B. R. Brooks,  
 D. Casanova,  Jeng-Da Chai,  S. Coriani,  C. J. Cramer,  
 A. E. DePrince, III,  R. A. DiStasio Jr.,  A. Dreuw,  B. D. Dunietz,  
 T. R. Furlani,  W. A. Goddard III,  S. Grimme,  S. Hammes-Schiffer,  
 T. Head-Gordon,  W. J. Hehre,  Chao-Ping Hsu,  T.-C. Jagau,  Yousung Jung,  
 A. Klamt,  Jing Kong,  D. S. Lambrecht,  WanZhen Liang,  N. J. Mayhall,  
 C. W. McCurdy,  J. B. Neaton,  C. Ochsenfeld,  J. A. Parkhill,  R. Peverati,  
 V. A. Rassolov,  Yihan Shao,  L. V. Slipchenko,  T. Stauch,  R. P. Steele,  
 J. E. Subotnik,  A. J. W. Thom,  A. Tkatchenko,  D. G. Truhlar,  
 T. Van Voorhis,  T. A. Wesolowski,  K. B. Whaley,  H. L. Woodcock III,  
 P. M. Zimmerman,  S. Faraji,  P. M. W. Gill,  M. Head-Gordon,  
 J. M. Herbert,  A. I. Krylov

 Contributors to earlier versions of Q-Chem not listed above: 
 R. D. Adamson,  B. Austin,  R. Baer,  J. Baker,  G. J. O. Beran,  
 K. Brandhorst,  S. T. Brown,  E. F. C. Byrd,  A. K. Chakraborty,  
 G. K. L. Chan,  Chun-Min Chang,  Yunqing Chen,  C.-L. Cheng,  
 Siu Hung Chien,  D. M. Chipman,  D. L. Crittenden,  H. Dachsel,  
 R. J. Doerksen,  A. D. Dutoi,  R. G. Edgar,  J. Fosso-Tande,  
 L. Fusti-Molnar,  D. Ghosh,  A. Ghysels,  A. Golubeva-Zadorozhnaya,  
 J. Gonthier,  M. S. Gordon,  S. R. Gwaltney,  G. Hawkins,  J. E. Herr,  
 A. Heyden,  S. Hirata,  E. G. Hohenstein,  G. Kedziora,  F. J. Keil,  
 C. Kelley,  Jihan Kim,  R. A. King,  R. Z. Khaliullin,  P. P. Korambath,  
 W. Kurlancheek,  A. Laurent,  A. M. Lee,  M. S. Lee,  S. V. Levchenko,  
 Ching Yeh Lin,  D. Liotard,  E. Livshits,  R. C. Lochan,  I. Lotan,  
 L. A. Martinez-Martinez,  P. E. Maslen,  N. Nair,  D. P. O'Neill,  
 D. Neuhauser,  E. Neuscamman,  C. M. Oana,  R. Olivares-Amaya,  R. Olson,  
 T. M. Perrine,  B. Peters,  P. A. Pieniazek,  A. Prociuk,  Y. M. Rhee,  
 J. Ritchie,  M. A. Rohrdanz,  E. Rosta,  N. J. Russ,  H. F. Schaefer III,  
 M. W. Schmidt,  N. E. Schultz,  S. Sharma,  N. Shenvi,  C. D. Sherrill,  
 A. C. Simmonett,  A. Sodt,  T. Stein,  D. Stuck,  K. S. Thanthiriwatte,  
 V. Vanovschi,  L. Vogt,  Tao Wang,  A. Warshel,  M. A. Watson,  
 C. F. Williams,  Q. Wu,  X. Xu,  Jun Yang,  W. Zhang,  Yan Zhao

 Please cite Q-Chem as follows:
 Y. Shao et al., Mol. Phys. 113, 184-215 (2015)
 DOI: 10.1080/00268976.2014.952696

 Q-Chem 5.4.0 for Intel X86 EM64T Linux

 Parts of Q-Chem use Armadillo 9.800.1 (Horizon Scraper).
 http://arma.sourceforge.net/

 Q-Chem begins on Sat Feb  3 11:12:29 2024  

 Host: 
0

     Scratch files written to /expanse/lustre/scratch/selhajj/temp_project/qcscratch/28445339/qchem3661470//
 May1621 |scratch|qcdevops|jenkins|workspace|build_RNUM    
 Processing $rem in /cm/shared/apps/spack/cpu/opt/spack/linux-centos8-zen2/gcc-10.2.0/qchem-5.4-akfmr7b3t57bfs6qan3padb2wnb2i7cl/config/preferences:
 Processing $rem in /home/selhajj/.qchemrc:
 Symmetry turned off for PCM/SM12/SMD calculation
 Method-specific promolecule density matrix will be built for SM12 calculation

 Checking the input file for inconsistencies... 	...done.

--------------------------------------------------------------
User input:
--------------------------------------------------------------
$molecule
-2 1
C                 -0.1245150000      1.8978820000      5.0405700000
C                  1.0520980000      1.3159870000      4.4587660000
C                  1.3776790000      1.3044810000      3.1006630000
C                  0.4836070000      1.9112730000      2.1294180000
C                 -0.6978950000      2.4754060000      2.6902670000
C                 -0.9914840000      2.4991810000      4.0621500000
O                 -0.3640840000      1.8525530000      6.3102790000
O                  0.7250010000      1.9425600000      0.8484750000
S                 -2.4775970000      3.3559230000      4.5977340000
C                 -3.3742560000      2.0386400000      5.5550920000
C                 -4.4908860000      2.6929430000      6.3673320000
C                 -3.9023850000      0.9290630000      4.6479050000
C                  2.6814650000      0.6539660000      2.5936620000
C                  3.5393490000      0.0412940000      3.7174650000
C                  3.5397710000      1.7220760000      1.8712000000
C                  2.3379240000     -0.4759260000      1.5913100000
H                  1.7126810000      0.8537220000      5.1868510000
H                 -1.3942800000      2.9292720000      1.9896510000
H                 -2.5999820000      1.6464570000      6.2215500000
H                 -4.0887010000      3.4337680000      7.0644490000
H                 -5.0412100000      1.9398390000      6.9494240000
H                 -5.2168260000      3.1964690000      5.7156270000
H                 -3.0974550000      0.5215460000      4.0322640000
H                 -4.6868910000      1.3042270000      3.9796310000
H                 -4.3268430000      0.1090580000      5.2488150000
H                  3.0013120000     -0.7468850000      4.2535400000
H                  3.8445120000      0.7945710000      4.4505610000
H                  4.4475980000     -0.4003870000      3.2845220000
H                  3.8490470000      2.4991510000      2.5799820000
H                  2.9407500000      2.1791100000      1.0802320000
H                  4.4469400000      1.2708250000      1.4383530000
H                  1.7855080000     -1.2749870000      2.0992970000
H                  3.2540370000     -0.9113090000      1.1608820000
H                  1.7151500000     -0.0630790000      0.7945190000
$end

$rem
BASIS  =  6-311++G(d,p)
GUI  =  2
JOB_TYPE  =  SP
METHOD  =  B3LYP
SCF_CONVERGENCE  = 8
SOLVENT_METHOD = sm12
$end

$smx
solvent dimethylformamide
charges CM5
$end





--------------------------------------------------------------
 ----------------------------------------------------------------
             Standard Nuclear Orientation (Angstroms)
    I     Atom           X                Y                Z
 ----------------------------------------------------------------
    1      C      -0.1245150000     1.8978820000     5.0405700000
    2      C       1.0520980000     1.3159870000     4.4587660000
    3      C       1.3776790000     1.3044810000     3.1006630000
    4      C       0.4836070000     1.9112730000     2.1294180000
    5      C      -0.6978950000     2.4754060000     2.6902670000
    6      C      -0.9914840000     2.4991810000     4.0621500000
    7      O      -0.3640840000     1.8525530000     6.3102790000
    8      O       0.7250010000     1.9425600000     0.8484750000
    9      S      -2.4775970000     3.3559230000     4.5977340000
   10      C      -3.3742560000     2.0386400000     5.5550920000
   11      C      -4.4908860000     2.6929430000     6.3673320000
   12      C      -3.9023850000     0.9290630000     4.6479050000
   13      C       2.6814650000     0.6539660000     2.5936620000
   14      C       3.5393490000     0.0412940000     3.7174650000
   15      C       3.5397710000     1.7220760000     1.8712000000
   16      C       2.3379240000    -0.4759260000     1.5913100000
   17      H       1.7126810000     0.8537220000     5.1868510000
   18      H      -1.3942800000     2.9292720000     1.9896510000
   19      H      -2.5999820000     1.6464570000     6.2215500000
   20      H      -4.0887010000     3.4337680000     7.0644490000
   21      H      -5.0412100000     1.9398390000     6.9494240000
   22      H      -5.2168260000     3.1964690000     5.7156270000
   23      H      -3.0974550000     0.5215460000     4.0322640000
   24      H      -4.6868910000     1.3042270000     3.9796310000
   25      H      -4.3268430000     0.1090580000     5.2488150000
   26      H       3.0013120000    -0.7468850000     4.2535400000
   27      H       3.8445120000     0.7945710000     4.4505610000
   28      H       4.4475980000    -0.4003870000     3.2845220000
   29      H       3.8490470000     2.4991510000     2.5799820000
   30      H       2.9407500000     2.1791100000     1.0802320000
   31      H       4.4469400000     1.2708250000     1.4383530000
   32      H       1.7855080000    -1.2749870000     2.0992970000
   33      H       3.2540370000    -0.9113090000     1.1608820000
   34      H       1.7151500000    -0.0630790000     0.7945190000
 ----------------------------------------------------------------
 Nuclear Repulsion Energy =        1221.56444404 hartrees
 There are       65 alpha and       65 beta electrons
 Requested basis set is 6-311++G(d,p)
 There are 193 shells and 486 basis functions

 Total QAlloc Memory Limit   8000 MB
 Mega-Array Size       188 MB
 MEM_STATIC part       192 MB
 A cutoff of  1.0D-11 yielded  14162 shell pairs
 There are     91540 function pairs (     97251 Cartesian)
 Smallest overlap matrix eigenvalue = 4.37E-07

 Q-Chem warning in module stvman/mkSTV.C, line 323:

 Overlap eigenvalue is smaller than square root of threshold
 Use THRESH >= 12 to get rid of this warning

 Linear dependence detected in AO basis
 Tighter screening thresholds may be required for diffuse basis sets
 Use S2THRESH > 14 and THRESH = 14 in case of SCF convergence issues
 Number of orthogonalized atomic orbitals = 484
 Maximum deviation from orthogonality = 2.397E-10

 Scale SEOQF with 1.000000e-02/1.000000e-01/1.000000e-02

 Standard Electronic Orientation quadrupole field applied
 Nucleus-field energy     =     0.0000000172 hartrees
 ================ Generating on-the-fly Promolecule Density  ================
Attempting to make child job directory: /expanse/lustre/scratch/selhajj/temp_project/qcscratch/28445339/qchem3661470//Frg1/
Attempting to make child job directory: /expanse/lustre/scratch/selhajj/temp_project/qcscratch/28445339/qchem3661470//Frg2/
Attempting to make child job directory: /expanse/lustre/scratch/selhajj/temp_project/qcscratch/28445339/qchem3661470//Frg3/
Attempting to make child job directory: /expanse/lustre/scratch/selhajj/temp_project/qcscratch/28445339/qchem3661470//Frg4/
Creating input file /expanse/lustre/scratch/selhajj/temp_project/qcscratch/28445339/qchem3661470/Frg1.input
using default PutDataFrgm: nothing
calling putenv with: QCSCRATCH=/expanse/lustre/scratch/selhajj/temp_project/qcscratch/28445339/qchem3661470/ 
Spawning Job For Fragment 0
Done Job For Fragment 0
calling putenv with: QCSCRATCH=/expanse/lustre/scratch/selhajj/temp_project/qcscratch/28445339 
calling putenv with: QCTHREADS=8 
Creating input file /expanse/lustre/scratch/selhajj/temp_project/qcscratch/28445339/qchem3661470/Frg2.input
using default PutDataFrgm: nothing
calling putenv with: QCSCRATCH=/expanse/lustre/scratch/selhajj/temp_project/qcscratch/28445339/qchem3661470/ 
Spawning Job For Fragment 1
Done Job For Fragment 1
calling putenv with: QCSCRATCH=/expanse/lustre/scratch/selhajj/temp_project/qcscratch/28445339 
calling putenv with: QCTHREADS=8 
Creating input file /expanse/lustre/scratch/selhajj/temp_project/qcscratch/28445339/qchem3661470/Frg3.input
using default PutDataFrgm: nothing
calling putenv with: QCSCRATCH=/expanse/lustre/scratch/selhajj/temp_project/qcscratch/28445339/qchem3661470/ 
Spawning Job For Fragment 2
Done Job For Fragment 2
calling putenv with: QCSCRATCH=/expanse/lustre/scratch/selhajj/temp_project/qcscratch/28445339 
calling putenv with: QCTHREADS=8 
Creating input file /expanse/lustre/scratch/selhajj/temp_project/qcscratch/28445339/qchem3661470/Frg4.input
using default PutDataFrgm: nothing
calling putenv with: QCSCRATCH=/expanse/lustre/scratch/selhajj/temp_project/qcscratch/28445339/qchem3661470/ 
Spawning Job For Fragment 3
Done Job For Fragment 3
calling putenv with: QCSCRATCH=/expanse/lustre/scratch/selhajj/temp_project/qcscratch/28445339 
calling putenv with: QCTHREADS=8 
 Time for running child jobs:  CPU 0.01 s  wall 8.43 s
 ============= Method Specific Promolecule Density Constructed =============
 Guess from superposition of atomic densities
 Warning:  Energy on first SCF cycle will be non-variational
 SAD guess density has 128.000000 electrons

 -----------------------------------------------------------------------
  General SCF calculation program by
  Eric Jon Sundstrom, Paul Horn, Yuezhi Mao, Dmitri Zuev, Alec White,
  David Stuck, Shaama M.S., Shane Yost, Joonho Lee, David Small,
  Daniel Levine, Susi Lehtola, Hugh Burton, Evgeny Epifanovsky,
  Bang C. Huynh
 -----------------------------------------------------------------------
 Exchange:     0.2000 Hartree-Fock + 0.0800 Slater + 0.7200 B88
 Correlation:  0.1900 VWN1RPA + 0.8100 LYP
 Using SG-1 standard quadrature grid
 using 8 threads for integral computing
 -------------------------------------------------------
 OpenMP Integral computing Module                
 Release: version 1.0, May 2013, Q-Chem Inc. Pittsburgh 
 -------------------------------------------------------
 
 SM12 calculation using CM5 charges
 Citation of the SM12 model:
 Marenich, A.V.; Cramer, C.J.; Truhlar, D.G.
 J. Chem. Theory Comput. 2013, 9, 609-612.
 iSolventCode=          91
 Solvent: dimethylformamide                                               
 
Hirshfeld: reading atomic densities from disk.
warning:  vdwdata pointer should have been initialzed before dftman
 Inaccurate integrated density:
   Number of electrons =   130
   Numerical integral  =   128.000754737147
   Relative error      =    -1.5378809714 %

 Charges (in A.U.) from CM5PAC (Nov. 11, 2011)
 -----------------------------------------------
 Center     Atomic      CM5         Hirshfeld
 Number     Number      Charge      Charge
 -----------------------------------------------
    1          6        0.029485    0.003648
    2          6       -0.046528    0.001288
    3          6       -0.007546   -0.001119
    4          6        0.028274    0.005207
    5          6       -0.047736   -0.002407
    6          6        0.005230   -0.003444
    7          8       -0.064741   -0.019525
    8          8       -0.071449   -0.019322
    9         16       -0.005861    0.030911
   10          6       -0.064711   -0.008230
   11          6       -0.153400   -0.008772
   12          6       -0.152485   -0.007637
   13          6       -0.038118   -0.009156
   14          6       -0.152309   -0.006018
   15          6       -0.148412   -0.004404
   16          6       -0.148417   -0.004399
   17          1        0.065349    0.004083
   18          1        0.062044    0.002102
   19          1        0.071832    0.004248
   20          1        0.052691    0.000677
   21          1        0.053408    0.002527
   22          1        0.052734    0.000830
   23          1        0.055720    0.002485
   24          1        0.053351    0.001411
   25          1        0.053146    0.002584
   26          1        0.055328    0.002789
   27          1        0.055367    0.002816
   28          1        0.054733    0.002764
   29          1        0.055960    0.003562
   30          1        0.065921    0.005258
   31          1        0.054210    0.002823
   32          1        0.055964    0.003561
   33          1        0.054187    0.002803
   34          1        0.066024    0.005302
 -----------------------------------------------

 Dipole moment (in Debye)
 -----------------------------------------------
                 X        Y        Z     Total
 -----------------------------------------------
 CM5          0.2027  -0.6044   0.0421   0.6389
 Hirshfeld   -0.0278   0.0905  -0.0442   0.1045
 -----------------------------------------------

 A restricted SCF calculation will be
 performed using DIIS
 SCF converges when DIIS error is below 1.0e-08
 ---------------------------------------
  Cycle       Energy         DIIS error
 ---------------------------------------
Hirshfeld: reading atomic densities from disk.

 Charges (in A.U.) from CM5PAC (Nov. 11, 2011)
 -----------------------------------------------
 Center     Atomic      CM5         Hirshfeld
 Number     Number      Charge      Charge
 -----------------------------------------------
    1          6        0.067111    0.041274
    2          6       -0.289016   -0.241199
    3          6       -0.126800   -0.120373
    4          6        0.079104    0.056037
    5          6       -0.312178   -0.266849
    6          6       -0.126615   -0.135289
    7          8       -0.774006   -0.728790
    8          8       -0.762785   -0.710659
    9         16        0.038038    0.074810
   10          6       -0.157304   -0.100823
   11          6       -0.441593   -0.296966
   12          6       -0.455319   -0.310471
   13          6       -0.030390   -0.001428
   14          6       -0.438865   -0.292574
   15          6       -0.454968   -0.310961
   16          6       -0.454726   -0.310708
   17          1        0.154939    0.093673
   18          1        0.150476    0.090534
   19          1        0.126154    0.058570
   20          1        0.146230    0.094216
   21          1        0.155357    0.104477
   22          1        0.147074    0.095170
   23          1        0.142379    0.089144
   24          1        0.144619    0.092679
   25          1        0.152288    0.101726
   26          1        0.150982    0.098443
   27          1        0.150749    0.098198
   28          1        0.154788    0.102818
   29          1        0.148115    0.095717
   30          1        0.131082    0.070419
   31          1        0.152819    0.101432
   32          1        0.148318    0.095914
   33          1        0.152812    0.101428
   34          1        0.131089    0.070366
 -----------------------------------------------

 Dipole moment (in Debye)
 -----------------------------------------------
                 X        Y        Z     Total
 -----------------------------------------------
 CM5         -1.6517 -18.6850 -33.7415  38.6050
 Hirshfeld   -1.8822 -17.9900 -33.8278  38.3601
 -----------------------------------------------

    1   -1057.9225731908      2.71e-02  
Hirshfeld: reading atomic densities from disk.

 Charges (in A.U.) from CM5PAC (Nov. 11, 2011)
 -----------------------------------------------
 Center     Atomic      CM5         Hirshfeld
 Number     Number      Charge      Charge
 -----------------------------------------------
    1          6        0.017728   -0.008110
    2          6       -0.078997   -0.031180
    3          6        0.177310    0.183737
    4          6        0.036330    0.013263
    5          6       -0.154762   -0.109433
    6          6        0.090577    0.081903
    7          8        1.584416    1.629632
    8          8        1.706905    1.759031
    9         16       -0.624350   -0.587579
   10          6        0.061420    0.117901
   11          6       -0.009404    0.135224
   12          6       -0.031603    0.113246
   13          6        0.069283    0.098245
   14          6       -0.273181   -0.126890
   15          6       -0.199607   -0.055599
   16          6       -0.213404   -0.069386
   17          1       -0.432424   -0.493689
   18          1       -0.913291   -0.973233
   19          1        0.025054   -0.042529
   20          1       -0.025545   -0.077559
   21          1       -0.021246   -0.072126
   22          1       -0.049876   -0.101780
   23          1       -0.036288   -0.089523
   24          1       -0.116832   -0.168773
   25          1       -0.041161   -0.091724
   26          1       -0.332313   -0.384852
   27          1       -0.324369   -0.376920
   28          1       -0.297024   -0.348993
   29          1       -0.204615   -0.257012
   30          1       -0.138682   -0.199345
   31          1       -0.435026   -0.486412
   32          1       -0.216969   -0.269373
   33          1       -0.450992   -0.502376
   34          1       -0.145420   -0.206142
 -----------------------------------------------

 Dipole moment (in Debye)
 -----------------------------------------------
                 X        Y        Z     Total
 -----------------------------------------------
 CM5        -31.9334   0.3085 -19.6849  37.5145
 Hirshfeld  -32.1639   1.0034 -19.7712  37.7681
 -----------------------------------------------

    2   -1054.4590968545      4.31e-03  
Hirshfeld: reading atomic densities from disk.

 Charges (in A.U.) from CM5PAC (Nov. 11, 2011)
 -----------------------------------------------
 Center     Atomic      CM5         Hirshfeld
 Number     Number      Charge      Charge
 -----------------------------------------------
    1          6       -0.039574   -0.065411
    2          6       -0.079056   -0.031240
    3          6       -0.064097   -0.057670
    4          6       -0.094011   -0.117077
    5          6       -0.068632   -0.023304
    6          6       -0.048794   -0.057468
    7          8       -0.826571   -0.781355
    8          8       -0.874230   -0.822104
    9         16       -0.097073   -0.060301
   10          6       -0.029562    0.026919
   11          6       -0.098564    0.046063
   12          6       -0.115454    0.029395
   13          6       -0.044109   -0.015147
   14          6       -0.109827    0.036464
   15          6       -0.127156    0.016851
   16          6       -0.128621    0.015397
   17          1        0.063637    0.002372
   18          1        0.066431    0.006489
   19          1        0.052802   -0.014781
   20          1        0.046713   -0.005301
   21          1        0.052613    0.001733
   22          1        0.050614   -0.001290
   23          1        0.036370   -0.016865
   24          1        0.048766   -0.003174
   25          1        0.045690   -0.004873
   26          1        0.041579   -0.010960
   27          1        0.042658   -0.009893
   28          1        0.046445   -0.005525
   29          1        0.038358   -0.014040
   30          1        0.043037   -0.017626
   31          1        0.045373   -0.006014
   32          1        0.036331   -0.016073
   33          1        0.045564   -0.005820
   34          1        0.042443   -0.018280
 -----------------------------------------------

 Dipole moment (in Debye)
 -----------------------------------------------
                 X        Y        Z     Total
 -----------------------------------------------
 CM5         -2.8619 -18.8525 -32.5773  37.7477
 Hirshfeld   -3.0923 -18.1576 -32.6636  37.4989
 -----------------------------------------------

    3   -1048.9027427286      1.09e-02  
Hirshfeld: reading atomic densities from disk.

 Charges (in A.U.) from CM5PAC (Nov. 11, 2011)
 -----------------------------------------------
 Center     Atomic      CM5         Hirshfeld
 Number     Number      Charge      Charge
 -----------------------------------------------
    1          6        0.000267   -0.025570
    2          6       -0.206744   -0.158927
    3          6       -0.114674   -0.108247
    4          6       -0.004620   -0.027686
    5          6       -0.207728   -0.162399
    6          6       -0.104512   -0.113185
    7          8       -0.643813   -0.598597
    8          8       -0.650763   -0.598636
    9         16       -0.073053   -0.036281
   10          6       -0.096324   -0.039843
   11          6       -0.224858   -0.080230
   12          6       -0.238112   -0.093263
   13          6       -0.039147   -0.010185
   14          6       -0.235440   -0.089148
   15          6       -0.246306   -0.102298
   16          6       -0.246838   -0.102820
   17          1        0.068115    0.006849
   18          1        0.065579    0.005637
   19          1        0.079179    0.011595
   20          1        0.084365    0.032350
   21          1        0.085413    0.034532
   22          1        0.080002    0.028098
   23          1        0.074067    0.020832
   24          1        0.076395    0.024454
   25          1        0.078663    0.028100
   26          1        0.074859    0.022320
   27          1        0.075523    0.022972
   28          1        0.075818    0.023849
   29          1        0.067825    0.015427
   30          1        0.071858    0.011195
   31          1        0.068842    0.017455
   32          1        0.066291    0.013887
   33          1        0.068758    0.017374
   34          1        0.071278    0.010556
 -----------------------------------------------

 Dipole moment (in Debye)
 -----------------------------------------------
                 X        Y        Z     Total
 -----------------------------------------------
 CM5         -2.4738 -18.2442 -33.4034  38.1413
 Hirshfeld   -2.7043 -17.5493 -33.4897  37.9058
 -----------------------------------------------

    4   -1054.6904958519      3.48e-03  
Hirshfeld: reading atomic densities from disk.

 Charges (in A.U.) from CM5PAC (Nov. 11, 2011)
 -----------------------------------------------
 Center     Atomic      CM5         Hirshfeld
 Number     Number      Charge      Charge
 -----------------------------------------------
    1          6        0.013442   -0.012396
    2          6       -0.162496   -0.114679
    3          6       -0.031976   -0.025549
    4          6       -0.000164   -0.023231
    5          6       -0.167024   -0.121696
    6          6       -0.062237   -0.070911
    7          8       -0.599935   -0.554719
    8          8       -0.605963   -0.553836
    9         16       -0.183044   -0.146272
   10          6       -0.053375    0.003106
   11          6       -0.245619   -0.100992
   12          6       -0.248565   -0.103717
   13          6        0.016212    0.045174
   14          6       -0.243765   -0.097473
   15          6       -0.257236   -0.113228
   16          6       -0.257571   -0.113553
   17          1        0.031070   -0.030195
   18          1        0.019710   -0.040232
   19          1        0.078287    0.010703
   20          1        0.075286    0.023271
   21          1        0.076328    0.025447
   22          1        0.070061    0.018157
   23          1        0.075657    0.022422
   24          1        0.064590    0.012650
   25          1        0.067018    0.016455
   26          1        0.065090    0.012552
   27          1        0.065319    0.012768
   28          1        0.057308    0.005338
   29          1        0.056944    0.004546
   30          1        0.067788    0.007125
   31          1        0.047600   -0.003787
   32          1        0.056415    0.004011
   33          1        0.047426   -0.003958
   34          1        0.067784    0.007061
 -----------------------------------------------

 Dipole moment (in Debye)
 -----------------------------------------------
                 X        Y        Z     Total
 -----------------------------------------------
 CM5         -1.1761 -18.4304 -33.7919  38.5091
 Hirshfeld   -1.4066 -17.7355 -33.8782  38.2656
 -----------------------------------------------

    5   -1054.9757441830      1.13e-03  
Hirshfeld: reading atomic densities from disk.

 Charges (in A.U.) from CM5PAC (Nov. 11, 2011)
 -----------------------------------------------
 Center     Atomic      CM5         Hirshfeld
 Number     Number      Charge      Charge
 -----------------------------------------------
    1          6       -0.004575   -0.030412
    2          6       -0.197782   -0.149966
    3          6       -0.100903   -0.094476
    4          6       -0.002680   -0.025747
    5          6       -0.193561   -0.148232
    6          6       -0.101098   -0.109772
    7          8       -0.545810   -0.500594
    8          8       -0.532613   -0.480486
    9         16       -0.135102   -0.098331
   10          6       -0.083449   -0.026968
   11          6       -0.223920   -0.079293
   12          6       -0.235794   -0.090946
   13          6       -0.021246    0.007716
   14          6       -0.230193   -0.083902
   15          6       -0.242219   -0.098212
   16          6       -0.243052   -0.099034
   17          1        0.042320   -0.018946
   18          1        0.029958   -0.029985
   19          1        0.076904    0.009320
   20          1        0.072190    0.020176
   21          1        0.070627    0.019747
   22          1        0.066584    0.014680
   23          1        0.071514    0.018279
   24          1        0.062384    0.010443
   25          1        0.063337    0.012775
   26          1        0.065687    0.013148
   27          1        0.066409    0.013858
   28          1        0.061318    0.009348
   29          1        0.055995    0.003597
   30          1        0.066670    0.006007
   31          1        0.050522   -0.000865
   32          1        0.054943    0.002539
   33          1        0.050572   -0.000812
   34          1        0.066418    0.005695
 -----------------------------------------------

 Dipole moment (in Debye)
 -----------------------------------------------
                 X        Y        Z     Total
 -----------------------------------------------
 CM5         -1.3110 -18.1163 -34.1414  38.6724
 Hirshfeld   -1.5415 -17.4213 -34.2277  38.4371
 -----------------------------------------------

    6   -1055.0229956172      6.37e-04  
Hirshfeld: reading atomic densities from disk.

 Charges (in A.U.) from CM5PAC (Nov. 11, 2011)
 -----------------------------------------------
 Center     Atomic      CM5         Hirshfeld
 Number     Number      Charge      Charge
 -----------------------------------------------
    1          6        0.006610   -0.019227
    2          6       -0.195871   -0.148055
    3          6       -0.071987   -0.065560
    4          6        0.009640   -0.013427
    5          6       -0.204264   -0.158935
    6          6       -0.092024   -0.100698
    7          8       -0.547283   -0.502067
    8          8       -0.541709   -0.489582
    9         16       -0.147978   -0.111206
   10          6       -0.087361   -0.030880
   11          6       -0.233788   -0.089161
   12          6       -0.240924   -0.096076
   13          6       -0.013604    0.015358
   14          6       -0.237603   -0.091312
   15          6       -0.247701   -0.103693
   16          6       -0.247945   -0.103927
   17          1        0.037432   -0.023833
   18          1        0.025335   -0.034607
   19          1        0.077781    0.010197
   20          1        0.074351    0.022336
   21          1        0.072440    0.021560
   22          1        0.067552    0.015648
   23          1        0.072982    0.019748
   24          1        0.062500    0.010559
   25          1        0.064282    0.013720
   26          1        0.066472    0.013933
   27          1        0.067016    0.014465
   28          1        0.061018    0.009048
   29          1        0.056588    0.004190
   30          1        0.066987    0.006324
   31          1        0.049574   -0.001813
   32          1        0.055648    0.003244
   33          1        0.049483   -0.001901
   34          1        0.066722    0.006000
 -----------------------------------------------

 Dipole moment (in Debye)
 -----------------------------------------------
                 X        Y        Z     Total
 -----------------------------------------------
 CM5         -0.9466 -18.2330 -34.1407  38.7160
 Hirshfeld   -1.1771 -17.5381 -34.2270  38.4767
 -----------------------------------------------

    7   -1055.0285009134      1.70e-04  
Hirshfeld: reading atomic densities from disk.

 Charges (in A.U.) from CM5PAC (Nov. 11, 2011)
 -----------------------------------------------
 Center     Atomic      CM5         Hirshfeld
 Number     Number      Charge      Charge
 -----------------------------------------------
    1          6        0.003398   -0.022439
    2          6       -0.195076   -0.147260
    3          6       -0.082500   -0.076073
    4          6        0.004039   -0.019027
    5          6       -0.194679   -0.149350
    6          6       -0.090974   -0.099647
    7          8       -0.548250   -0.503035
    8          8       -0.536859   -0.484733
    9         16       -0.149206   -0.112434
   10          6       -0.079685   -0.023204
   11          6       -0.234616   -0.089988
   12          6       -0.242571   -0.097723
   13          6       -0.011831    0.017131
   14          6       -0.237807   -0.091516
   15          6       -0.249565   -0.105557
   16          6       -0.250019   -0.106001
   17          1        0.038313   -0.022953
   18          1        0.025086   -0.034856
   19          1        0.077229    0.009646
   20          1        0.073749    0.021735
   21          1        0.071885    0.021005
   22          1        0.067247    0.015343
   23          1        0.073041    0.019806
   24          1        0.062410    0.010470
   25          1        0.063841    0.013278
   26          1        0.066832    0.014293
   27          1        0.067330    0.014779
   28          1        0.061468    0.009499
   29          1        0.057044    0.004646
   30          1        0.067238    0.006575
   31          1        0.050311   -0.001076
   32          1        0.056234    0.003830
   33          1        0.050255   -0.001129
   34          1        0.067058    0.006335
 -----------------------------------------------

 Dipole moment (in Debye)
 -----------------------------------------------
                 X        Y        Z     Total
 -----------------------------------------------
 CM5         -1.0113 -18.1993 -34.1903  38.7455
 Hirshfeld   -1.2418 -17.5043 -34.2766  38.5075
 -----------------------------------------------

    8   -1055.0313047860      6.34e-05  
Hirshfeld: reading atomic densities from disk.

 Charges (in A.U.) from CM5PAC (Nov. 11, 2011)
 -----------------------------------------------
 Center     Atomic      CM5         Hirshfeld
 Number     Number      Charge      Charge
 -----------------------------------------------
    1          6        0.003119   -0.022719
    2          6       -0.193858   -0.146042
    3          6       -0.078813   -0.072386
    4          6        0.004976   -0.018091
    5          6       -0.198098   -0.152769
    6          6       -0.094675   -0.103348
    7          8       -0.546401   -0.501185
    8          8       -0.538223   -0.486097
    9         16       -0.148173   -0.111401
   10          6       -0.081935   -0.025454
   11          6       -0.233920   -0.089292
   12          6       -0.242405   -0.097557
   13          6       -0.011723    0.017239
   14          6       -0.237373   -0.091081
   15          6       -0.248624   -0.104617
   16          6       -0.249156   -0.105139
   17          1        0.038363   -0.022903
   18          1        0.025353   -0.034589
   19          1        0.077374    0.009790
   20          1        0.073646    0.021632
   21          1        0.071829    0.020948
   22          1        0.067262    0.015358
   23          1        0.073007    0.019772
   24          1        0.062505    0.010564
   25          1        0.063887    0.013325
   26          1        0.066688    0.014149
   27          1        0.067231    0.014680
   28          1        0.061272    0.009302
   29          1        0.056874    0.004476
   30          1        0.067232    0.006569
   31          1        0.050044   -0.001343
   32          1        0.056028    0.003624
   33          1        0.050014   -0.001370
   34          1        0.067041    0.006318
 -----------------------------------------------

 Dipole moment (in Debye)
 -----------------------------------------------
                 X        Y        Z     Total
 -----------------------------------------------
 CM5         -0.9422 -18.2304 -34.1706  38.7410
 Hirshfeld   -1.1727 -17.5355 -34.2569  38.5020
 -----------------------------------------------

    9   -1055.0313213500      2.27e-05  
Hirshfeld: reading atomic densities from disk.

 Charges (in A.U.) from CM5PAC (Nov. 11, 2011)
 -----------------------------------------------
 Center     Atomic      CM5         Hirshfeld
 Number     Number      Charge      Charge
 -----------------------------------------------
    1          6        0.003686   -0.022151
    2          6       -0.194811   -0.146995
    3          6       -0.079812   -0.073385
    4          6        0.005229   -0.017837
    5          6       -0.197570   -0.152241
    6          6       -0.092464   -0.101138
    7          8       -0.547363   -0.502147
    8          8       -0.537701   -0.485575
    9         16       -0.148422   -0.111650
   10          6       -0.082331   -0.025850
   11          6       -0.233989   -0.089362
   12          6       -0.242179   -0.097330
   13          6       -0.012440    0.016522
   14          6       -0.237363   -0.091072
   15          6       -0.248637   -0.104629
   16          6       -0.249110   -0.105092
   17          1        0.038367   -0.022898
   18          1        0.025138   -0.034804
   19          1        0.077394    0.009810
   20          1        0.073631    0.021616
   21          1        0.071803    0.020923
   22          1        0.067229    0.015325
   23          1        0.072963    0.019728
   24          1        0.062421    0.010480
   25          1        0.063803    0.013241
   26          1        0.066746    0.014207
   27          1        0.067288    0.014737
   28          1        0.061374    0.009405
   29          1        0.056930    0.004532
   30          1        0.067246    0.006583
   31          1        0.050122   -0.001265
   32          1        0.056070    0.003667
   33          1        0.050080   -0.001304
   34          1        0.067041    0.006319
 -----------------------------------------------

 Dipole moment (in Debye)
 -----------------------------------------------
                 X        Y        Z     Total
 -----------------------------------------------
 CM5         -0.9487 -18.2203 -34.1904  38.7539
 Hirshfeld   -1.1792 -17.5254 -34.2767  38.5152
 -----------------------------------------------

   10   -1055.0313383938      1.21e-05  
Hirshfeld: reading atomic densities from disk.

 Charges (in A.U.) from CM5PAC (Nov. 11, 2011)
 -----------------------------------------------
 Center     Atomic      CM5         Hirshfeld
 Number     Number      Charge      Charge
 -----------------------------------------------
    1          6        0.003587   -0.022250
    2          6       -0.194659   -0.146843
    3          6       -0.079715   -0.073288
    4          6        0.005151   -0.017916
    5          6       -0.197577   -0.152248
    6          6       -0.092982   -0.101655
    7          8       -0.547096   -0.501880
    8          8       -0.537663   -0.485537
    9         16       -0.148528   -0.111756
   10          6       -0.081953   -0.025472
   11          6       -0.234050   -0.089422
   12          6       -0.242199   -0.097351
   13          6       -0.012357    0.016604
   14          6       -0.237397   -0.091106
   15          6       -0.248738   -0.104730
   16          6       -0.249190   -0.105172
   17          1        0.038385   -0.022880
   18          1        0.025132   -0.034810
   19          1        0.077337    0.009753
   20          1        0.073632    0.021618
   21          1        0.071776    0.020896
   22          1        0.067202    0.015298
   23          1        0.072930    0.019695
   24          1        0.062380    0.010440
   25          1        0.063771    0.013209
   26          1        0.066777    0.014239
   27          1        0.067310    0.014759
   28          1        0.061406    0.009437
   29          1        0.056972    0.004574
   30          1        0.067252    0.006589
   31          1        0.050178   -0.001209
   32          1        0.056118    0.003714
   33          1        0.050128   -0.001256
   34          1        0.067048    0.006325
 -----------------------------------------------

 Dipole moment (in Debye)
 -----------------------------------------------
                 X        Y        Z     Total
 -----------------------------------------------
 CM5         -0.9415 -18.2244 -34.1883  38.7537
 Hirshfeld   -1.1720 -17.5294 -34.2746  38.5149
 -----------------------------------------------

   11   -1055.0313768387      2.83e-06  
Hirshfeld: reading atomic densities from disk.

 Charges (in A.U.) from CM5PAC (Nov. 11, 2011)
 -----------------------------------------------
 Center     Atomic      CM5         Hirshfeld
 Number     Number      Charge      Charge
 -----------------------------------------------
    1          6        0.003547   -0.022290
    2          6       -0.194640   -0.146823
    3          6       -0.079761   -0.073334
    4          6        0.005109   -0.017957
    5          6       -0.197575   -0.152246
    6          6       -0.092887   -0.101561
    7          8       -0.547163   -0.501947
    8          8       -0.537629   -0.485502
    9         16       -0.148445   -0.111673
   10          6       -0.082065   -0.025584
   11          6       -0.234056   -0.089429
   12          6       -0.242257   -0.097409
   13          6       -0.012267    0.016695
   14          6       -0.237392   -0.091101
   15          6       -0.248699   -0.104692
   16          6       -0.249178   -0.105160
   17          1        0.038394   -0.022871
   18          1        0.025123   -0.034820
   19          1        0.077347    0.009763
   20          1        0.073634    0.021620
   21          1        0.071778    0.020897
   22          1        0.067208    0.015304
   23          1        0.072950    0.019715
   24          1        0.062397    0.010456
   25          1        0.063777    0.013215
   26          1        0.066771    0.014232
   27          1        0.067305    0.014754
   28          1        0.061401    0.009432
   29          1        0.056958    0.004560
   30          1        0.067245    0.006582
   31          1        0.050166   -0.001220
   32          1        0.056107    0.003703
   33          1        0.050121   -0.001262
   34          1        0.067045    0.006322
 -----------------------------------------------

 Dipole moment (in Debye)
 -----------------------------------------------
                 X        Y        Z     Total
 -----------------------------------------------
 CM5         -0.9400 -18.2238 -34.1901  38.7551
 Hirshfeld   -1.1705 -17.5289 -34.2764  38.5163
 -----------------------------------------------

   12   -1055.0313723386      1.05e-06  
Hirshfeld: reading atomic densities from disk.

 Charges (in A.U.) from CM5PAC (Nov. 11, 2011)
 -----------------------------------------------
 Center     Atomic      CM5         Hirshfeld
 Number     Number      Charge      Charge
 -----------------------------------------------
    1          6        0.003575   -0.022262
    2          6       -0.194655   -0.146838
    3          6       -0.079784   -0.073357
    4          6        0.005127   -0.017940
    5          6       -0.197554   -0.152226
    6          6       -0.092884   -0.101558
    7          8       -0.547160   -0.501944
    8          8       -0.537656   -0.485530
    9         16       -0.148480   -0.111709
   10          6       -0.082030   -0.025549
   11          6       -0.234048   -0.089420
   12          6       -0.242240   -0.097392
   13          6       -0.012317    0.016645
   14          6       -0.237390   -0.091099
   15          6       -0.248706   -0.104699
   16          6       -0.249178   -0.105160
   17          1        0.038400   -0.022866
   18          1        0.025118   -0.034824
   19          1        0.077343    0.009759
   20          1        0.073626    0.021612
   21          1        0.071773    0.020892
   22          1        0.067204    0.015300
   23          1        0.072943    0.019708
   24          1        0.062391    0.010450
   25          1        0.063769    0.013206
   26          1        0.066777    0.014238
   27          1        0.067311    0.014760
   28          1        0.061408    0.009439
   29          1        0.056966    0.004568
   30          1        0.067253    0.006590
   31          1        0.050176   -0.001211
   32          1        0.056113    0.003709
   33          1        0.050130   -0.001254
   34          1        0.067051    0.006329
 -----------------------------------------------

 Dipole moment (in Debye)
 -----------------------------------------------
                 X        Y        Z     Total
 -----------------------------------------------
 CM5         -0.9398 -18.2241 -34.1899  38.7550
 Hirshfeld   -1.1703 -17.5291 -34.2762  38.5162
 -----------------------------------------------

   13   -1055.0313741429      4.19e-07  
Hirshfeld: reading atomic densities from disk.

 Charges (in A.U.) from CM5PAC (Nov. 11, 2011)
 -----------------------------------------------
 Center     Atomic      CM5         Hirshfeld
 Number     Number      Charge      Charge
 -----------------------------------------------
    1          6        0.003567   -0.022271
    2          6       -0.194648   -0.146832
    3          6       -0.079772   -0.073345
    4          6        0.005122   -0.017945
    5          6       -0.197559   -0.152230
    6          6       -0.092888   -0.101562
    7          8       -0.547180   -0.501964
    8          8       -0.537638   -0.485512
    9         16       -0.148480   -0.111708
   10          6       -0.082031   -0.025550
   11          6       -0.234050   -0.089423
   12          6       -0.242238   -0.097390
   13          6       -0.012310    0.016652
   14          6       -0.237388   -0.091097
   15          6       -0.248708   -0.104701
   16          6       -0.249178   -0.105161
   17          1        0.038402   -0.022863
   18          1        0.025116   -0.034826
   19          1        0.077342    0.009759
   20          1        0.073627    0.021613
   21          1        0.071773    0.020893
   22          1        0.067205    0.015301
   23          1        0.072941    0.019706
   24          1        0.062391    0.010450
   25          1        0.063769    0.013206
   26          1        0.066776    0.014238
   27          1        0.067311    0.014760
   28          1        0.061408    0.009438
   29          1        0.056966    0.004568
   30          1        0.067252    0.006589
   31          1        0.050177   -0.001210
   32          1        0.056113    0.003709
   33          1        0.050130   -0.001254
   34          1        0.067050    0.006327
 -----------------------------------------------

 Dipole moment (in Debye)
 -----------------------------------------------
                 X        Y        Z     Total
 -----------------------------------------------
 CM5         -0.9395 -18.2242 -34.1903  38.7554
 Hirshfeld   -1.1700 -17.5293 -34.2766  38.5166
 -----------------------------------------------

   14   -1055.0313740773      1.53e-07  
Hirshfeld: reading atomic densities from disk.

 Charges (in A.U.) from CM5PAC (Nov. 11, 2011)
 -----------------------------------------------
 Center     Atomic      CM5         Hirshfeld
 Number     Number      Charge      Charge
 -----------------------------------------------
    1          6        0.003568   -0.022269
    2          6       -0.194651   -0.146835
    3          6       -0.079780   -0.073353
    4          6        0.005118   -0.017949
    5          6       -0.197554   -0.152226
    6          6       -0.092879   -0.101553
    7          8       -0.547174   -0.501958
    8          8       -0.537645   -0.485519
    9         16       -0.148478   -0.111706
   10          6       -0.082033   -0.025552
   11          6       -0.234051   -0.089424
   12          6       -0.242240   -0.097391
   13          6       -0.012309    0.016653
   14          6       -0.237388   -0.091097
   15          6       -0.248707   -0.104700
   16          6       -0.249178   -0.105160
   17          1        0.038402   -0.022863
   18          1        0.025116   -0.034826
   19          1        0.077342    0.009758
   20          1        0.073627    0.021613
   21          1        0.071773    0.020893
   22          1        0.067204    0.015300
   23          1        0.072942    0.019707
   24          1        0.062391    0.010450
   25          1        0.063769    0.013206
   26          1        0.066777    0.014238
   27          1        0.067311    0.014760
   28          1        0.061408    0.009439
   29          1        0.056966    0.004568
   30          1        0.067252    0.006589
   31          1        0.050177   -0.001209
   32          1        0.056113    0.003710
   33          1        0.050130   -0.001253
   34          1        0.067050    0.006327
 -----------------------------------------------

 Dipole moment (in Debye)
 -----------------------------------------------
                 X        Y        Z     Total
 -----------------------------------------------
 CM5         -0.9395 -18.2242 -34.1902  38.7553
 Hirshfeld   -1.1700 -17.5292 -34.2765  38.5165
 -----------------------------------------------

   15   -1055.0313739286      8.60e-08  
Hirshfeld: reading atomic densities from disk.

 Charges (in A.U.) from CM5PAC (Nov. 11, 2011)
 -----------------------------------------------
 Center     Atomic      CM5         Hirshfeld
 Number     Number      Charge      Charge
 -----------------------------------------------
    1          6        0.003568   -0.022269
    2          6       -0.194651   -0.146834
    3          6       -0.079781   -0.073354
    4          6        0.005120   -0.017946
    5          6       -0.197555   -0.152226
    6          6       -0.092880   -0.101554
    7          8       -0.547176   -0.501960
    8          8       -0.537644   -0.485517
    9         16       -0.148478   -0.111706
   10          6       -0.082032   -0.025551
   11          6       -0.234051   -0.089423
   12          6       -0.242240   -0.097392
   13          6       -0.012310    0.016652
   14          6       -0.237389   -0.091097
   15          6       -0.248707   -0.104699
   16          6       -0.249178   -0.105160
   17          1        0.038402   -0.022863
   18          1        0.025115   -0.034827
   19          1        0.077342    0.009758
   20          1        0.073627    0.021613
   21          1        0.071773    0.020892
   22          1        0.067204    0.015300
   23          1        0.072942    0.019707
   24          1        0.062390    0.010450
   25          1        0.063769    0.013206
   26          1        0.066777    0.014238
   27          1        0.067311    0.014760
   28          1        0.061409    0.009439
   29          1        0.056966    0.004568
   30          1        0.067252    0.006589
   31          1        0.050177   -0.001210
   32          1        0.056113    0.003710
   33          1        0.050130   -0.001253
   34          1        0.067050    0.006327
 -----------------------------------------------

 Dipole moment (in Debye)
 -----------------------------------------------
                 X        Y        Z     Total
 -----------------------------------------------
 CM5         -0.9395 -18.2242 -34.1902  38.7553
 Hirshfeld   -1.1700 -17.5292 -34.2765  38.5165
 -----------------------------------------------

   16   -1055.0313739215      1.90e-08  
   17   -1055.0313739333      8.05e-09  Convergence criterion met
 ---------------------------------------
 SCF time:   CPU 7693.61s  wall 972.00s 
(1)  E-EN(liq) elect-nuc energy of solute              -1055.031373933 a.u.
(2)  G-P(liq) polarization free energy of solvation          -168.0312 kcal/mol
(3)  G-ENP(liq) elect-nuc-pol free energy of system    -1055.299148682 a.u.
(4)  G-CDS(liq) cavity-dispersion-solvent structure 
     free energy                                               -6.2692 kcal/mol
(5)  G-P-CDS(liq) = G-P(liq) + G-CDS(liq) = (2) + (4)        -174.3004 kcal/mol
(6)  G-S(liq) free energy of system = (1) + (5)        -1055.309139304 a.u.
 SCF   energy in the final basis set =    -1055.3091393045
 Total energy in the final basis set =    -1055.3091393045
 
 --------------------------------------------------------------
 
                    Orbital Energies (a.u.)
 --------------------------------------------------------------
 
 Alpha MOs
 -- Occupied --
-88.8244 -19.0152 -19.0122 -10.1919 -10.1882 -10.1783 -10.1747 -10.1706
-10.1685 -10.1684 -10.1600 -10.1596 -10.1574 -10.1450 -10.1340 -10.1332
 -7.9095  -5.8733  -5.8698  -5.8636  -0.9305  -0.9247  -0.8234  -0.8131
 -0.7819  -0.7287  -0.6941  -0.6924  -0.6874  -0.6746  -0.6456  -0.5844
 -0.5626  -0.5477  -0.5075  -0.4645  -0.4581  -0.4540  -0.4421  -0.4413
 -0.4232  -0.4206  -0.4106  -0.4003  -0.3987  -0.3922  -0.3810  -0.3726
 -0.3606  -0.3567  -0.3544  -0.3484  -0.3395  -0.3351  -0.3306  -0.3218
 -0.3158  -0.3055  -0.2986  -0.2374  -0.2238  -0.2023  -0.1923  -0.1884
 -0.1208
 -- Virtual --
 -0.0699  -0.0662  -0.0554  -0.0507  -0.0457  -0.0417  -0.0362  -0.0296
 -0.0256  -0.0230  -0.0164  -0.0136  -0.0050  -0.0025   0.0012   0.0055
  0.0100   0.0127   0.0149   0.0177   0.0261   0.0279   0.0314   0.0381
  0.0400   0.0456   0.0494   0.0529   0.0582   0.0612   0.0656   0.0668
  0.0707   0.0733   0.0756   0.0800   0.0822   0.0862   0.0890   0.0903
  0.0933   0.0986   0.0996   0.1017   0.1021   0.1058   0.1073   0.1123
  0.1177   0.1191   0.1221   0.1275   0.1301   0.1348   0.1413   0.1431
  0.1481   0.1507   0.1545   0.1567   0.1572   0.1660   0.1696   0.1711
  0.1787   0.1816   0.1838   0.1907   0.1935   0.2004   0.2018   0.2039
  0.2107   0.2166   0.2227   0.2248   0.2263   0.2320   0.2338   0.2371
  0.2424   0.2462   0.2483   0.2533   0.2571   0.2649   0.2679   0.2720
  0.2744   0.2828   0.2832   0.2930   0.2947   0.2956   0.3028   0.3124
  0.3159   0.3185   0.3261   0.3295   0.3323   0.3382   0.3456   0.3521
  0.3575   0.3647   0.3666   0.3760   0.3845   0.3899   0.3995   0.4043
  0.4186   0.4236   0.4294   0.4384   0.4452   0.4525   0.4724   0.4841
  0.4896   0.4908   0.5106   0.5150   0.5291   0.5348   0.5380   0.5507
  0.5545   0.5596   0.5628   0.5727   0.5761   0.5876   0.5949   0.5985
  0.6138   0.6157   0.6237   0.6352   0.6441   0.6469   0.6490   0.6538
  0.6554   0.6586   0.6631   0.6697   0.6730   0.6783   0.6826   0.7003
  0.7036   0.7168   0.7202   0.7260   0.7296   0.7372   0.7419   0.7519
  0.7553   0.7590   0.7704   0.7761   0.7790   0.7951   0.7974   0.7996
  0.8135   0.8256   0.8281   0.8582   0.8641   0.8778   0.8841   0.9059
  0.9080   0.9279   0.9473   0.9511   0.9568   0.9684   0.9753   0.9900
  0.9980   1.0113   1.0298   1.0311   1.0361   1.0497   1.0559   1.0595
  1.0945   1.1052   1.1111   1.1218   1.1326   1.1448   1.1745   1.1852
  1.2037   1.2083   1.2248   1.2442   1.2539   1.2752   1.2925   1.3076
  1.3128   1.3215   1.3251   1.3401   1.3577   1.3785   1.4007   1.4174
  1.4460   1.4501   1.4523   1.4572   1.4623   1.4644   1.4740   1.4805
  1.4862   1.5076   1.5315   1.5440   1.5516   1.5664   1.5676   1.5806
  1.5866   1.5946   1.5954   1.6058   1.6115   1.6213   1.6349   1.6384
  1.6461   1.6479   1.6607   1.6763   1.6797   1.7053   1.7069   1.7185
  1.7230   1.7265   1.7348   1.7537   1.7694   1.7784   1.7829   1.7917
  1.8145   1.8173   1.8257   1.8268   1.8438   1.8469   1.8536   1.8868
  1.8977   1.9022   1.9185   1.9431   1.9535   1.9647   1.9681   1.9867
  1.9901   2.0046   2.0155   2.0289   2.0497   2.0559   2.0671   2.0869
  2.1074   2.1114   2.1184   2.1243   2.1360   2.1410   2.1618   2.1699
  2.2060   2.2098   2.2283   2.2564   2.2710   2.2914   2.2995   2.3111
  2.3335   2.3373   2.3483   2.3688   2.4225   2.4443   2.4479   2.4807
  2.4857   2.4949   2.5022   2.5159   2.5192   2.5268   2.5310   2.5351
  2.5415   2.5504   2.5647   2.5748   2.5848   2.5943   2.6023   2.6237
  2.6376   2.6613   2.6726   2.6744   2.6832   2.6918   2.7046   2.7278
  2.7414   2.7545   2.7601   2.7754   2.7853   2.7883   2.7943   2.8138
  2.8346   2.8409   2.8904   2.8932   2.9075   2.9220   2.9336   2.9622
  2.9802   2.9933   3.0116   3.0283   3.0451   3.0480   3.0906   3.1179
  3.1225   3.1436   3.1523   3.1893   3.2003   3.2123   3.2250   3.2577
  3.2865   3.3191   3.3608   3.3714   3.3841   3.4290   3.4738   3.4993
  3.5769   3.5981   3.6461   3.7441   3.7574   3.7582   3.7794   3.7857
  3.7967   3.8144   3.8206   3.8278   3.8332   3.8443   3.8741   3.9236
  4.0597   4.1792   4.2202   4.2517   4.2601   4.2659   4.3133   4.4327
  4.8343   5.1776   5.1863   5.3252   5.3576   5.7851   5.8761   8.0530
 17.4385  17.5347  17.5851  23.6329  23.8037  23.8154  23.9064  23.9491
 23.9607  23.9663  23.9688  23.9705  23.9909  23.9984  24.0994  24.1508
 50.0851  50.1196 189.2372
 --------------------------------------------------------------
 
          Ground-State Mulliken Net Atomic Charges

     Atom                 Charge (a.u.)
  ----------------------------------------
      1 C                    -2.048047
      2 C                    -1.531301
      3 C                    -1.025574
      4 C                    -2.247242
      5 C                    -2.166598
      6 C                     2.015378
      7 O                    -0.310756
      8 O                    -0.320765
      9 S                     1.239916
     10 C                    -0.071074
     11 C                     0.694445
     12 C                    -0.795491
     13 C                     2.063017
     14 C                     0.712591
     15 C                    -0.313812
     16 C                    -0.274288
     17 H                    -0.153972
     18 H                    -0.144894
     19 H                    -0.048258
     20 H                     0.180299
     21 H                     0.289240
     22 H                     0.212211
     23 H                    -0.029597
     24 H                     0.172500
     25 H                     0.254942
     26 H                     0.123581
     27 H                     0.133416
     28 H                     0.468240
     29 H                     0.050127
     30 H                     0.061992
     31 H                     0.350522
     32 H                     0.045077
     33 H                     0.340845
     34 H                     0.073333
  ----------------------------------------
  Sum of atomic charges =    -2.000000

 -----------------------------------------------------------------
                    Cartesian Multipole Moments
 -----------------------------------------------------------------
    Charge (ESU x 10^10)
                -9.6064
    Dipole Moment (Debye)
         X      -0.6592      Y     -19.4269      Z     -33.9102
       Tot      39.0863
    Quadrupole Moments (Debye-Ang)
        XX    -144.8525     XY       9.8307     YY    -167.9069
        XZ      10.5364     YZ     -71.0889     ZZ    -292.9943
    Octopole Moments (Debye-Ang^2)
       XXX      61.2277    XXY    -251.0164    XYY      63.0065
       YYY    -737.4448    XXZ    -532.5598    XYZ      62.3470
       YYZ    -629.2335    XZZ      89.2087    YZZ    -566.0844
       ZZZ   -2344.1611
    Hexadecapole Moments (Debye-Ang^3)
      XXXX   -5311.7236   XXXY     776.4651   XXYY   -1513.9684
      XYYY     897.7451   YYYY   -3511.0931   XXXZ    1315.4887
      XXYZ   -1019.2787   XYYZ     641.7958   YYYZ   -3028.2001
      XXZZ   -3195.9605   XYZZ     549.4364   YYZZ   -3460.7687
      XZZZ    1594.4266   YZZZ   -4566.7312   ZZZZ  -18300.1032
 -----------------------------------------------------------------
 Total job time:  1011.76s(wall), 7702.34s(cpu) 
 Sat Feb  3 11:29:21 2024

        *************************************************************
        *                                                           *
        *  Thank you very much for using Q-Chem.  Have a nice day.  *
        *                                                           *
        *************************************************************


