 Entering Gaussian System, Link 0=g16
 Input=238-an.com
 Output=238-an.log
 Initial command:
 /sysapps/ubuntu-applications/gaussian/Gaussian/AVX2/g16/l1.exe "/scratch/selhajj1/4262343/Gau-3091361.inp" -scrdir="/scratch/selhajj1/4262343/"
 Entering Link 1 = /sysapps/ubuntu-applications/gaussian/Gaussian/AVX2/g16/l1.exe PID=   3091363.
  
 Copyright (c) 1988,1990,1992,1993,1995,1998,2003,2009,2016,
            Gaussian, Inc.  All Rights Reserved.
  
 This is part of the Gaussian(R) 16 program.  It is based on
 the Gaussian(R) 09 system (copyright 2009, Gaussian, Inc.),
 the Gaussian(R) 03 system (copyright 2003, Gaussian, Inc.),
 the Gaussian(R) 98 system (copyright 1998, Gaussian, Inc.),
 the Gaussian(R) 94 system (copyright 1995, Gaussian, Inc.),
 the Gaussian 92(TM) system (copyright 1992, Gaussian, Inc.),
 the Gaussian 90(TM) system (copyright 1990, Gaussian, Inc.),
 the Gaussian 88(TM) system (copyright 1988, Gaussian, Inc.),
 the Gaussian 86(TM) system (copyright 1986, Carnegie Mellon
 University), and the Gaussian 82(TM) system (copyright 1983,
 Carnegie Mellon University). Gaussian is a federally registered
 trademark of Gaussian, Inc.
  
 This software contains proprietary and confidential information,
 including trade secrets, belonging to Gaussian, Inc.
  
 This software is provided under written license and may be
 used, copied, transmitted, or stored only in accord with that
 written license.
  
 The following legend is applicable only to US Government
 contracts under FAR:
  
                    RESTRICTED RIGHTS LEGEND
  
 Use, reproduction and disclosure by the US Government is
 subject to restrictions as set forth in subparagraphs (a)
 and (c) of the Commercial Computer Software - Restricted
 Rights clause in FAR 52.227-19.
  
 Gaussian, Inc.
 340 Quinnipiac St., Bldg. 40, Wallingford CT 06492
  
  
 ---------------------------------------------------------------
 Warning -- This program may not be used in any manner that
 competes with the business of Gaussian, Inc. or will provide
 assistance to any competitor of Gaussian, Inc.  The licensee
 of this program is prohibited from giving any competitor of
 Gaussian, Inc. access to this program.  By using this program,
 the user acknowledges that Gaussian, Inc. is engaged in the
 business of creating and licensing software in the field of
 computational chemistry and represents and warrants to the
 licensee that it is not a competitor of Gaussian, Inc. and that
 it will not use this program in any manner prohibited above.
 ---------------------------------------------------------------
  

 Cite this work as:
 Gaussian 16, Revision A.03,
 M. J. Frisch, G. W. Trucks, H. B. Schlegel, G. E. Scuseria, 
 M. A. Robb, J. R. Cheeseman, G. Scalmani, V. Barone, 
 G. A. Petersson, H. Nakatsuji, X. Li, M. Caricato, A. V. Marenich, 
 J. Bloino, B. G. Janesko, R. Gomperts, B. Mennucci, H. P. Hratchian, 
 J. V. Ortiz, A. F. Izmaylov, J. L. Sonnenberg, D. Williams-Young, 
 F. Ding, F. Lipparini, F. Egidi, J. Goings, B. Peng, A. Petrone, 
 T. Henderson, D. Ranasinghe, V. G. Zakrzewski, J. Gao, N. Rega, 
 G. Zheng, W. Liang, M. Hada, M. Ehara, K. Toyota, R. Fukuda, 
 J. Hasegawa, M. Ishida, T. Nakajima, Y. Honda, O. Kitao, H. Nakai, 
 T. Vreven, K. Throssell, J. A. Montgomery, Jr., J. E. Peralta, 
 F. Ogliaro, M. J. Bearpark, J. J. Heyd, E. N. Brothers, K. N. Kudin, 
 V. N. Staroverov, T. A. Keith, R. Kobayashi, J. Normand, 
 K. Raghavachari, A. P. Rendell, J. C. Burant, S. S. Iyengar, 
 J. Tomasi, M. Cossi, J. M. Millam, M. Klene, C. Adamo, R. Cammi, 
 J. W. Ochterski, R. L. Martin, K. Morokuma, O. Farkas, 
 J. B. Foresman, and D. J. Fox, Gaussian, Inc., Wallingford CT, 2016.
 
 ******************************************
 Gaussian 16:  ES64L-G16RevA.03 25-Dec-2016
                 7-Jan-2024 
 ******************************************
 %chk=238-an.chk
 %nproc=8
 Will use up to    8 processors via shared memory.
 %mem=30GB
 --------------------------------------
 #P UB3LYP/6-311++G(d,p) nosym opt freq
 --------------------------------------
 1/18=20,19=15,26=3,38=1/1,3;
 2/9=110,12=2,15=1,17=6,18=5,40=1/2;
 3/5=4,6=6,7=1111,11=2,25=1,30=1,71=1,74=-5,116=2/1,2,3;
 4//1;
 5/5=2,38=5/2;
 6/7=2,8=2,9=2,10=2,28=1/1;
 7/30=1/1,2,3,16;
 1/18=20,19=15,26=3/3(2);
 2/9=110,15=1/2;
 99//99;
 2/9=110,15=1/2;
 3/5=4,6=6,7=1111,11=2,25=1,30=1,71=1,74=-5,116=2/1,2,3;
 4/5=5,16=3,69=1/1;
 5/5=2,38=5/2;
 7/30=1/1,2,3,16;
 1/18=20,19=15,26=3/3(-5);
 2/9=110,15=1/2;
 6/7=2,8=2,9=2,10=2,19=2,28=1/1;
 99/9=1/99;
 Leave Link    1 at Sun Jan  7 20:25:47 2024, MaxMem=  4026531840 cpu:               0.9 elap:               0.1
 (Enter /sysapps/ubuntu-applications/gaussian/Gaussian/AVX2/g16/l101.exe)
 -------
 Reduced
 -------
 Symbolic Z-matrix:
 Charge = -2 Multiplicity = 1
 C                     5.66241  -5.35562   1.31493 
 C                     6.63297  -5.25115   0.33284 
 C                     6.56671  -4.22064  -0.63994 
 C                     4.57604  -4.45907   1.39613 
 C                     4.50808  -3.39353   0.42662 
 C                     5.52228  -3.3123   -0.55486 
 C                     3.56921  -4.62523   2.44923 
 C                     2.54308  -3.64081   2.41973 
 C                     2.47761  -2.60178   1.4786 
 C                     3.42742  -2.4022    0.43816 
 O                     3.62794  -5.57608   3.31586 
 O                     3.35512  -1.44937  -0.42512 
 H                     5.70195  -6.14202   2.06306 
 H                     7.44967  -5.97034   0.29284 
 H                     1.76989  -3.72276   3.18412 
 H                     1.6511   -1.8918    1.52022 
 C                     7.62165  -4.11733  -1.72297 
 H                     5.44032  -2.49007  -1.26136 
 H                     8.48858  -4.75627  -1.51343 
 H                     7.99907  -3.09098  -1.83538 
 H                     7.23921  -4.41852  -2.70485 
 
 ITRead=  0  0  0  0  0  0  0  0  0  0  0  0  0  0  0  0  0  0  0  0
 ITRead=  0
 MicOpt= -1 -1 -1 -1 -1 -1 -1 -1 -1 -1 -1 -1 -1 -1 -1 -1 -1 -1 -1 -1
 MicOpt= -1
 NAtoms=     21 NQM=       21 NQMF=       0 NMMI=      0 NMMIF=      0
                NMic=       0 NMicF=      0.
                    Isotopes and Nuclear Properties:
 (Nuclear quadrupole moments (NQMom) in fm**2, nuclear magnetic moments (NMagM)
  in nuclear magnetons)

  Atom         1           2           3           4           5           6           7           8           9          10
 IAtWgt=          12          12          12          12          12          12          12          12          12          12
 AtmWgt=  12.0000000  12.0000000  12.0000000  12.0000000  12.0000000  12.0000000  12.0000000  12.0000000  12.0000000  12.0000000
 NucSpn=           0           0           0           0           0           0           0           0           0           0
 AtZEff=  -0.0000000  -0.0000000  -0.0000000  -0.0000000  -0.0000000  -0.0000000  -0.0000000  -0.0000000  -0.0000000  -0.0000000
 NQMom=    0.0000000   0.0000000   0.0000000   0.0000000   0.0000000   0.0000000   0.0000000   0.0000000   0.0000000   0.0000000
 NMagM=    0.0000000   0.0000000   0.0000000   0.0000000   0.0000000   0.0000000   0.0000000   0.0000000   0.0000000   0.0000000
 AtZNuc=   6.0000000   6.0000000   6.0000000   6.0000000   6.0000000   6.0000000   6.0000000   6.0000000   6.0000000   6.0000000

  Atom        11          12          13          14          15          16          17          18          19          20
 IAtWgt=          16          16           1           1           1           1          12           1           1           1
 AtmWgt=  15.9949146  15.9949146   1.0078250   1.0078250   1.0078250   1.0078250  12.0000000   1.0078250   1.0078250   1.0078250
 NucSpn=           0           0           1           1           1           1           0           1           1           1
 AtZEff=  -0.0000000  -0.0000000  -0.0000000  -0.0000000  -0.0000000  -0.0000000  -0.0000000  -0.0000000  -0.0000000  -0.0000000
 NQMom=    0.0000000   0.0000000   0.0000000   0.0000000   0.0000000   0.0000000   0.0000000   0.0000000   0.0000000   0.0000000
 NMagM=    0.0000000   0.0000000   2.7928460   2.7928460   2.7928460   2.7928460   0.0000000   2.7928460   2.7928460   2.7928460
 AtZNuc=   8.0000000   8.0000000   1.0000000   1.0000000   1.0000000   1.0000000   6.0000000   1.0000000   1.0000000   1.0000000

  Atom        21
 IAtWgt=           1
 AtmWgt=   1.0078250
 NucSpn=           1
 AtZEff=  -0.0000000
 NQMom=    0.0000000
 NMagM=    2.7928460
 AtZNuc=   1.0000000
 Leave Link  101 at Sun Jan  7 20:25:48 2024, MaxMem=  4026531840 cpu:               7.0 elap:               0.9
 (Enter /sysapps/ubuntu-applications/gaussian/Gaussian/AVX2/g16/l103.exe)

 GradGradGradGradGradGradGradGradGradGradGradGradGradGradGradGradGradGrad
 Berny optimization.
 Initialization pass.
                           ----------------------------
                           !    Initial Parameters    !
                           ! (Angstroms and Degrees)  !
 --------------------------                            --------------------------
 ! Name  Definition              Value          Derivative Info.                !
 --------------------------------------------------------------------------------
 ! R1    R(1,2)                  1.3847         estimate D2E/DX2                !
 ! R2    R(1,4)                  1.4109         estimate D2E/DX2                !
 ! R3    R(1,13)                 1.0861         estimate D2E/DX2                !
 ! R4    R(2,3)                  1.4187         estimate D2E/DX2                !
 ! R5    R(2,14)                 1.089          estimate D2E/DX2                !
 ! R6    R(3,6)                  1.3868         estimate D2E/DX2                !
 ! R7    R(3,17)                 1.5154         estimate D2E/DX2                !
 ! R8    R(4,5)                  1.4422         estimate D2E/DX2                !
 ! R9    R(4,7)                  1.4664         estimate D2E/DX2                !
 ! R10   R(5,6)                  1.4137         estimate D2E/DX2                !
 ! R11   R(5,10)                 1.4665         estimate D2E/DX2                !
 ! R12   R(6,18)                 1.0872         estimate D2E/DX2                !
 ! R13   R(7,8)                  1.4223         estimate D2E/DX2                !
 ! R14   R(7,11)                 1.2879         estimate D2E/DX2                !
 ! R15   R(8,9)                  1.4034         estimate D2E/DX2                !
 ! R16   R(8,15)                 1.0903         estimate D2E/DX2                !
 ! R17   R(9,10)                 1.4228         estimate D2E/DX2                !
 ! R18   R(9,16)                 1.0904         estimate D2E/DX2                !
 ! R19   R(10,12)                1.2878         estimate D2E/DX2                !
 ! R20   R(17,19)                1.0971         estimate D2E/DX2                !
 ! R21   R(17,20)                1.0993         estimate D2E/DX2                !
 ! R22   R(17,21)                1.0959         estimate D2E/DX2                !
 ! A1    A(2,1,4)              122.1801         estimate D2E/DX2                !
 ! A2    A(2,1,13)             121.1734         estimate D2E/DX2                !
 ! A3    A(4,1,13)             116.6462         estimate D2E/DX2                !
 ! A4    A(1,2,3)              120.5562         estimate D2E/DX2                !
 ! A5    A(1,2,14)             120.1262         estimate D2E/DX2                !
 ! A6    A(3,2,14)             119.3126         estimate D2E/DX2                !
 ! A7    A(2,3,6)              117.9623         estimate D2E/DX2                !
 ! A8    A(2,3,17)             120.4674         estimate D2E/DX2                !
 ! A9    A(6,3,17)             121.5659         estimate D2E/DX2                !
 ! A10   A(1,4,5)              117.8452         estimate D2E/DX2                !
 ! A11   A(1,4,7)              119.8684         estimate D2E/DX2                !
 ! A12   A(5,4,7)              122.285          estimate D2E/DX2                !
 ! A13   A(4,5,6)              118.3831         estimate D2E/DX2                !
 ! A14   A(4,5,10)             121.9287         estimate D2E/DX2                !
 ! A15   A(6,5,10)             119.6879         estimate D2E/DX2                !
 ! A16   A(3,6,5)              123.0433         estimate D2E/DX2                !
 ! A17   A(3,6,18)             120.8164         estimate D2E/DX2                !
 ! A18   A(5,6,18)             116.1388         estimate D2E/DX2                !
 ! A19   A(4,7,8)              113.706          estimate D2E/DX2                !
 ! A20   A(4,7,11)             122.3845         estimate D2E/DX2                !
 ! A21   A(8,7,11)             123.9087         estimate D2E/DX2                !
 ! A22   A(7,8,9)              124.0551         estimate D2E/DX2                !
 ! A23   A(7,8,15)             116.4268         estimate D2E/DX2                !
 ! A24   A(9,8,15)             119.5178         estimate D2E/DX2                !
 ! A25   A(8,9,10)             124.2687         estimate D2E/DX2                !
 ! A26   A(8,9,16)             119.4612         estimate D2E/DX2                !
 ! A27   A(10,9,16)            116.2684         estimate D2E/DX2                !
 ! A28   A(5,10,9)             113.7556         estimate D2E/DX2                !
 ! A29   A(5,10,12)            122.4292         estimate D2E/DX2                !
 ! A30   A(9,10,12)            123.8142         estimate D2E/DX2                !
 ! A31   A(3,17,19)            111.9547         estimate D2E/DX2                !
 ! A32   A(3,17,20)            112.0694         estimate D2E/DX2                !
 ! A33   A(3,17,21)            112.2495         estimate D2E/DX2                !
 ! A34   A(19,17,20)           106.9752         estimate D2E/DX2                !
 ! A35   A(19,17,21)           106.6665         estimate D2E/DX2                !
 ! A36   A(20,17,21)           106.5453         estimate D2E/DX2                !
 ! D1    D(4,1,2,3)              0.0711         estimate D2E/DX2                !
 ! D2    D(4,1,2,14)          -179.1181         estimate D2E/DX2                !
 ! D3    D(13,1,2,3)           179.8463         estimate D2E/DX2                !
 ! D4    D(13,1,2,14)            0.6571         estimate D2E/DX2                !
 ! D5    D(2,1,4,5)             -1.0548         estimate D2E/DX2                !
 ! D6    D(2,1,4,7)            179.3636         estimate D2E/DX2                !
 ! D7    D(13,1,4,5)           179.1603         estimate D2E/DX2                !
 ! D8    D(13,1,4,7)            -0.4213         estimate D2E/DX2                !
 ! D9    D(1,2,3,6)              1.4237         estimate D2E/DX2                !
 ! D10   D(1,2,3,17)          -179.3257         estimate D2E/DX2                !
 ! D11   D(14,2,3,6)          -179.3805         estimate D2E/DX2                !
 ! D12   D(14,2,3,17)           -0.13           estimate D2E/DX2                !
 ! D13   D(2,3,6,5)             -1.969          estimate D2E/DX2                !
 ! D14   D(2,3,6,18)           178.4979         estimate D2E/DX2                !
 ! D15   D(17,3,6,5)           178.7892         estimate D2E/DX2                !
 ! D16   D(17,3,6,18)           -0.744          estimate D2E/DX2                !
 ! D17   D(2,3,17,19)          -12.5002         estimate D2E/DX2                !
 ! D18   D(2,3,17,20)         -132.7061         estimate D2E/DX2                !
 ! D19   D(2,3,17,21)          107.4345         estimate D2E/DX2                !
 ! D20   D(6,3,17,19)          166.7229         estimate D2E/DX2                !
 ! D21   D(6,3,17,20)           46.517          estimate D2E/DX2                !
 ! D22   D(6,3,17,21)          -73.3424         estimate D2E/DX2                !
 ! D23   D(1,4,5,6)              0.5387         estimate D2E/DX2                !
 ! D24   D(1,4,5,10)          -179.247          estimate D2E/DX2                !
 ! D25   D(7,4,5,6)           -179.8904         estimate D2E/DX2                !
 ! D26   D(7,4,5,10)             0.3238         estimate D2E/DX2                !
 ! D27   D(1,4,7,8)            179.236          estimate D2E/DX2                !
 ! D28   D(1,4,7,11)            -0.4448         estimate D2E/DX2                !
 ! D29   D(5,4,7,8)             -0.3264         estimate D2E/DX2                !
 ! D30   D(5,4,7,11)           179.9928         estimate D2E/DX2                !
 ! D31   D(4,5,6,3)              0.9923         estimate D2E/DX2                !
 ! D32   D(4,5,6,18)          -179.4543         estimate D2E/DX2                !
 ! D33   D(10,5,6,3)          -179.217          estimate D2E/DX2                !
 ! D34   D(10,5,6,18)            0.3363         estimate D2E/DX2                !
 ! D35   D(4,5,10,9)            -0.1431         estimate D2E/DX2                !
 ! D36   D(4,5,10,12)         -179.7877         estimate D2E/DX2                !
 ! D37   D(6,5,10,9)          -179.9261         estimate D2E/DX2                !
 ! D38   D(6,5,10,12)            0.4293         estimate D2E/DX2                !
 ! D39   D(4,7,8,9)              0.185          estimate D2E/DX2                !
 ! D40   D(4,7,8,15)           179.9746         estimate D2E/DX2                !
 ! D41   D(11,7,8,9)           179.8602         estimate D2E/DX2                !
 ! D42   D(11,7,8,15)           -0.3502         estimate D2E/DX2                !
 ! D43   D(7,8,9,10)            -0.0289         estimate D2E/DX2                !
 ! D44   D(7,8,9,16)           179.4727         estimate D2E/DX2                !
 ! D45   D(15,8,9,10)         -179.8124         estimate D2E/DX2                !
 ! D46   D(15,8,9,16)           -0.3107         estimate D2E/DX2                !
 ! D47   D(8,9,10,5)            -0.0013         estimate D2E/DX2                !
 ! D48   D(8,9,10,12)          179.6377         estimate D2E/DX2                !
 ! D49   D(16,9,10,5)         -179.5175         estimate D2E/DX2                !
 ! D50   D(16,9,10,12)           0.1215         estimate D2E/DX2                !
 --------------------------------------------------------------------------------
 Trust Radius=3.00D-01 FncErr=1.00D-07 GrdErr=1.00D-06 EigMax=2.50D+02 EigMin=1.00D-04
 Number of steps in this run=    118 maximum allowed number of steps=    126.
 GradGradGradGradGradGradGradGradGradGradGradGradGradGradGradGradGradGrad

 Leave Link  103 at Sun Jan  7 20:25:48 2024, MaxMem=  4026531840 cpu:               0.4 elap:               0.1
 (Enter /sysapps/ubuntu-applications/gaussian/Gaussian/AVX2/g16/l202.exe)
                          Input orientation:                          
 ---------------------------------------------------------------------
 Center     Atomic      Atomic             Coordinates (Angstroms)
 Number     Number       Type             X           Y           Z
 ---------------------------------------------------------------------
      1          6           0        5.662412   -5.355615    1.314933
      2          6           0        6.632973   -5.251155    0.332843
      3          6           0        6.566713   -4.220636   -0.639938
      4          6           0        4.576040   -4.459074    1.396129
      5          6           0        4.508079   -3.393532    0.426619
      6          6           0        5.522276   -3.312304   -0.554859
      7          6           0        3.569210   -4.625225    2.449225
      8          6           0        2.543084   -3.640807    2.419733
      9          6           0        2.477612   -2.601784    1.478603
     10          6           0        3.427422   -2.402204    0.438157
     11          8           0        3.627943   -5.576082    3.315858
     12          8           0        3.355118   -1.449370   -0.425117
     13          1           0        5.701950   -6.142024    2.063062
     14          1           0        7.449670   -5.970343    0.292839
     15          1           0        1.769891   -3.722761    3.184120
     16          1           0        1.651099   -1.891802    1.520221
     17          6           0        7.621648   -4.117331   -1.722965
     18          1           0        5.440316   -2.490074   -1.261356
     19          1           0        8.488579   -4.756272   -1.513427
     20          1           0        7.999072   -3.090985   -1.835380
     21          1           0        7.239212   -4.418518   -2.704849
 ---------------------------------------------------------------------
                    Distance matrix (angstroms):
                    1          2          3          4          5
     1  C    0.000000
     2  C    1.384703   0.000000
     3  C    2.434637   1.418683   0.000000
     4  C    1.410880   2.447232   2.857481   0.000000
     5  C    2.443636   2.823957   2.461629   1.442203   0.000000
     6  C    2.773244   2.404331   1.386778   2.452916   1.413681
     7  C    2.490298   3.775911   4.323383   1.466398   2.547445
     8  C    3.727111   4.865750   5.087964   2.418726   2.809778
     9  C    4.213469   5.059541   4.881562   2.803521   2.419986
    10  C    3.806120   4.289892   3.784723   2.543177   1.466521
    11  O    2.862057   4.246665   5.110961   2.414944   3.726374
    12  O    4.859026   5.076653   4.247400   3.723695   2.415479
    13  H    1.086140   2.157338   3.427208   2.131852   3.414305
    14  H    2.148687   1.088956   2.170521   3.429130   3.912903
    15  H    4.616470   5.840833   6.154738   3.407865   3.899984
    16  H    5.303845   6.124883   5.852608   3.893785   3.407858
    17  C    3.821096   2.547426   1.515423   4.372787   3.852130
    18  H    3.859782   3.404037   2.156334   3.418503   2.129451
    19  H    4.043025   2.664000   2.177948   4.884855   4.633057
    20  H    4.529128   3.351679   2.181019   4.902190   4.170756
    21  H    4.418495   3.207551   2.180658   4.890005   4.279693
                    6          7          8          9         10
     6  C    0.000000
     7  C    3.816117   0.000000
     8  C    4.222759   1.422281   0.000000
     9  C    3.729582   2.495597   1.403418   0.000000
    10  C    2.490537   3.001053   2.498566   1.422849   0.000000
    11  O    4.867817   1.287879   2.392749   3.680383   4.288924
    12  O    2.860757   4.288791   3.681707   2.392117   1.287774
    13  H    3.859159   2.645445   4.044964   4.824028   4.669052
    14  H    3.390960   4.638676   5.833095   6.121649   5.378774
    15  H    5.313081   2.142909   1.090335   2.160150   3.468659
    16  H    4.616253   3.466093   2.159578   1.090381   2.141657
    17  C    2.533753   5.838440   6.571213   6.245641   5.020323
    18  H    1.087160   4.672079   4.823749   4.037012   2.635869
    19  H    3.435528   6.318226   7.215464   7.051651   5.913174
    20  H    2.797005   6.351016   6.940900   6.458198   5.152026
    21  H    2.965474   6.330570   6.994269   6.593529   5.336080
                   11         12         13         14         15
    11  O    0.000000
    12  O    5.576655   0.000000
    13  H    2.488231   5.806863   0.000000
    14  H    4.888730   6.141662   2.493529   0.000000
    15  H    2.627644   4.550587   4.750862   6.758034   0.000000
    16  H    4.550400   2.623693   5.896478   7.194747   2.476910
    17  C    6.592979   5.196701   4.703044   2.743482   7.647106
    18  H    5.810252   2.475967   4.945396   4.308747   5.895235
    19  H    6.900715   6.202616   4.740979   2.411617   8.262921
    20  H    7.198453   5.123480   5.457422   3.622411   8.024788
    21  H    7.115485   5.394368   5.297794   3.382098   8.067063
                   16         17         18         19         20
    16  H    0.000000
    17  C    7.149734   0.000000
    18  H    4.738488   2.760300   0.000000
    19  H    8.009953   1.097142   3.806718   0.000000
    20  H    7.279757   1.099305   2.690322   1.765347   0.000000
    21  H    7.447316   1.095932   3.006426   1.759114   1.759462
                   21
    21  H    0.000000
 Symmetry turned off by external request.
 Stoichiometry    C11H8O2(2-)
 Framework group  C1[X(C11H8O2)]
 Deg. of freedom    57
 Full point group                 C1      NOp   1
 Rotational constants (GHZ):           1.2301170           0.7262403           0.4579525
 Leave Link  202 at Sun Jan  7 20:25:48 2024, MaxMem=  4026531840 cpu:               0.3 elap:               0.1
 (Enter /sysapps/ubuntu-applications/gaussian/Gaussian/AVX2/g16/l301.exe)
 Standard basis: 6-311++G(d,p) (5D, 7F)
 Ernie: Thresh=  0.10000D-02 Tol=  0.10000D-05 Strict=F.
   342 basis functions,   540 primitive gaussians,   355 cartesian basis functions
    46 alpha electrons       46 beta electrons
       nuclear repulsion energy       711.4450850480 Hartrees.
 IExCor=  402 DFT=T Ex+Corr=B3LYP ExCW=0 ScaHFX=  0.200000
 ScaDFX=  0.800000  0.720000  1.000000  0.810000 ScalE2=  1.000000  1.000000
 IRadAn=      5 IRanWt=     -1 IRanGd=            0 ICorTp=0 IEmpDi=  4
 NAtoms=   21 NActive=   21 NUniq=   21 SFac= 1.00D+00 NAtFMM=   60 NAOKFM=F Big=F
 Integral buffers will be    131072 words long.
 Raffenetti 2 integral format.
 Two-electron integral symmetry is turned off.
 Leave Link  301 at Sun Jan  7 20:25:48 2024, MaxMem=  4026531840 cpu:               0.6 elap:               0.1
 (Enter /sysapps/ubuntu-applications/gaussian/Gaussian/AVX2/g16/l302.exe)
 NPDir=0 NMtPBC=     1 NCelOv=     1 NCel=       1 NClECP=     1 NCelD=      1
         NCelK=      1 NCelE2=     1 NClLst=     1 CellRange=     0.0.
 One-electron integrals computed using PRISM.
 NBasis=   342 RedAO= T EigKep=  1.15D-06  NBF=   342
 NBsUse=   340 1.00D-06 EigRej=  5.86D-07 NBFU=   340
 Precomputing XC quadrature grid using
 IXCGrd= 4 IRadAn=           5 IRanWt=          -1 IRanGd=           0 AccXCQ= 0.00D+00.
 Generated NRdTot=       0 NPtTot=           0 NUsed=           0 NTot=          32
 NSgBfM=   355   355   355   355   355 MxSgAt=    21 MxSgA2=    21.
 Leave Link  302 at Sun Jan  7 20:25:49 2024, MaxMem=  4026531840 cpu:               2.8 elap:               0.4
 (Enter /sysapps/ubuntu-applications/gaussian/Gaussian/AVX2/g16/l303.exe)
 DipDrv:  MaxL=1.
 Leave Link  303 at Sun Jan  7 20:25:49 2024, MaxMem=  4026531840 cpu:               0.7 elap:               0.1
 (Enter /sysapps/ubuntu-applications/gaussian/Gaussian/AVX2/g16/l401.exe)
 ExpMin= 3.60D-02 ExpMax= 8.59D+03 ExpMxC= 1.30D+03 IAcc=3 IRadAn=         5 AccDes= 0.00D+00
 Harris functional with IExCor=  402 and IRadAn=       5 diagonalized for initial guess.
 HarFok:  IExCor=  402 AccDes= 0.00D+00 IRadAn=         5 IDoV= 1 UseB2=F ITyADJ=14
 ICtDFT=  3500011 ScaDFX=  1.000000  1.000000  1.000000  1.000000
 FoFCou: FMM=F IPFlag=           0 FMFlag=      100000 FMFlg1=           0
         NFxFlg=           0 DoJE=T BraDBF=F KetDBF=T FulRan=T
         wScrn=  0.000000 ICntrl=       500 IOpCl=  0 I1Cent=   200000004 NGrid=           0
         NMat0=    1 NMatS0=      1 NMatT0=    0 NMatD0=    1 NMtDS0=    0 NMtDT0=    0
 Symmetry not used in FoFCou.
 Harris En= -575.086957825577    
 JPrj=0 DoOrth=F DoCkMO=F.
 Initial guess <Sx>= 0.0000 <Sy>= 0.0000 <Sz>= 0.0000 <S**2>=-0.0000 S=-0.0000
 Leave Link  401 at Sun Jan  7 20:25:50 2024, MaxMem=  4026531840 cpu:              10.6 elap:               1.4
 (Enter /sysapps/ubuntu-applications/gaussian/Gaussian/AVX2/g16/l502.exe)
 Two-electron integral symmetry not used.
 UHF open shell SCF:
 Using DIIS extrapolation, IDIIS=  1040.
 NGot=  4026531840 LenX=  4026274352 LenY=  4026147886
 Requested convergence on RMS density matrix=1.00D-08 within 128 cycles.
 Requested convergence on MAX density matrix=1.00D-06.
 Requested convergence on             energy=1.00D-06.
 No special actions if energy rises.
 Fock matrices will be formed incrementally for  20 cycles.

 Cycle   1  Pass 1  IDiag  1:
 FoFJK:  IHMeth= 1 ICntrl=       0 DoSepK=F KAlg= 0 I1Cent=           0 FoldK=F
 IRaf= 910000000 NMat=       1 IRICut=       1 DoRegI=T DoRafI=F ISym2E= 0 IDoP0=0 IntGTp=1.
 FoFCou: FMM=F IPFlag=           0 FMFlag=      100000 FMFlg1=           0
         NFxFlg=           0 DoJE=F BraDBF=F KetDBF=F FulRan=T
         wScrn=  0.000000 ICntrl=         0 IOpCl=  1 I1Cent=           0 NGrid=           0
         NMat0=    1 NMatS0=      1 NMatT0=    0 NMatD0=    1 NMtDS0=    0 NMtDT0=    0
 Symmetry not used in FoFCou.
 E= -574.006922851609    
 DIIS: error= 4.32D-02 at cycle   1 NSaved=   1.
 NSaved= 1 IEnMin= 1 EnMin= -574.006922851609     IErMin= 1 ErrMin= 4.32D-02
 ErrMax= 4.32D-02  0.00D+00 EMaxC= 1.00D-01 BMatC= 2.26D+00 BMatP= 2.26D+00
 IDIUse=3 WtCom= 5.68D-01 WtEn= 4.32D-01
 Coeff-Com:  0.100D+01
 Coeff-En:   0.100D+01
 Coeff:      0.100D+01
 Gap=     0.035 Goal=   None    Shift=    0.000
 Gap=     0.035 Goal=   None    Shift=    0.000
 GapD=    0.035 DampG=0.250 DampE=0.500 DampFc=0.2500 IDamp=-1.
 Damping current iteration by 2.50D-01
 RMSDP=1.13D+01 MaxDP=1.37D+03              OVMax= 9.91D-01

 Cycle   2  Pass 1  IDiag  1:
 RMSU=  2.79D+00    CP:  3.00D+00
 E= -573.797154507906     Delta-E=        0.209768343704 Rises=F Damp=T
 DIIS: error= 2.13D-02 at cycle   2 NSaved=   2.
 NSaved= 2 IEnMin= 1 EnMin= -574.006922851609     IErMin= 2 ErrMin= 2.13D-02
 ErrMax= 2.13D-02  0.00D+00 EMaxC= 1.00D-01 BMatC= 4.45D-01 BMatP= 2.26D+00
 IDIUse=3 WtCom= 7.87D-01 WtEn= 2.13D-01
 Coeff-Com:  0.535D-01 0.947D+00
 Coeff-En:   0.630D+00 0.370D+00
 Coeff:      0.177D+00 0.823D+00
 Gap=    -0.111 Goal=   None    Shift=    0.000
 Gap=    -0.111 Goal=   None    Shift=    0.000
 RMSDP=2.82D+00 MaxDP=3.43D+02 DE= 2.10D-01 OVMax= 7.83D-01

 Cycle   3  Pass 1  IDiag  1:
 RMSU=  1.85D-02    CP:  1.19D+00  5.28D-05
 E= -574.062088839701     Delta-E=       -0.264934331796 Rises=F Damp=F
 DIIS: error= 5.05D-02 at cycle   3 NSaved=   3.
 NSaved= 3 IEnMin= 3 EnMin= -574.062088839701     IErMin= 2 ErrMin= 2.13D-02
 ErrMax= 5.05D-02  0.00D+00 EMaxC= 1.00D-01 BMatC= 1.59D+00 BMatP= 4.45D-01
 IDIUse=2 WtCom= 0.00D+00 WtEn= 1.00D+00
 EnCoef did     3 forward-backward iterations
 Coeff-En:   0.147D+00 0.333D+00 0.520D+00
 Coeff:      0.147D+00 0.333D+00 0.520D+00
 Gap=     0.150 Goal=   None    Shift=    0.000
 Gap=     0.150 Goal=   None    Shift=    0.000
 RMSDP=3.04D+00 MaxDP=3.86D+02 DE=-2.65D-01 OVMax= 8.88D-01

 Cycle   4  Pass 1  IDiag  1:
 RMSU=  2.58D+00    CP:  3.00D+00  5.61D-01  3.00D+00
 E= -573.671028400517     Delta-E=        0.391060439184 Rises=F Damp=F
 DIIS: error= 5.24D-02 at cycle   4 NSaved=   4.
 NSaved= 4 IEnMin= 3 EnMin= -574.062088839701     IErMin= 2 ErrMin= 2.13D-02
 ErrMax= 5.24D-02  0.00D+00 EMaxC= 1.00D-01 BMatC= 2.66D+00 BMatP= 4.45D-01
 IDIUse=2 WtCom= 0.00D+00 WtEn= 1.00D+00
 EnCoef did     4 forward-backward iterations
 Coeff-En:   0.101D+00 0.000D+00 0.514D+00 0.385D+00
 Coeff:      0.101D+00 0.000D+00 0.514D+00 0.385D+00
 Gap=     0.052 Goal=   None    Shift=    0.000
 Gap=     0.052 Goal=   None    Shift=    0.000
 RMSDP=3.04D+00 MaxDP=3.86D+02 DE= 3.91D-01 OVMax= 9.85D-01

 Cycle   5  Pass 1  IDiag  1:
 RMSU=  2.25D-02    CP:  1.08D+00 -5.89D-05  2.15D-01  9.32D-05
 E= -574.516415977251     Delta-E=       -0.845387576734 Rises=F Damp=F
 DIIS: error= 8.52D-03 at cycle   5 NSaved=   5.
 NSaved= 5 IEnMin= 5 EnMin= -574.516415977251     IErMin= 5 ErrMin= 8.52D-03
 ErrMax= 8.52D-03  0.00D+00 EMaxC= 1.00D-01 BMatC= 1.03D-01 BMatP= 4.45D-01
 IDIUse=3 WtCom= 9.15D-01 WtEn= 8.52D-02
 Coeff-Com: -0.145D+00 0.278D+00 0.212D+00 0.451D-01 0.610D+00
 Coeff-En:   0.000D+00 0.000D+00 0.000D+00 0.616D-01 0.938D+00
 Coeff:     -0.133D+00 0.254D+00 0.194D+00 0.465D-01 0.638D+00
 Gap=     0.047 Goal=   None    Shift=    0.000
 Gap=     0.047 Goal=   None    Shift=    0.000
 RMSDP=6.95D-03 MaxDP=8.30D-01 DE=-8.45D-01 OVMax= 5.64D-02

 Cycle   6  Pass 1  IDiag  1:
 RMSU=  5.87D-03    CP:  1.05D+00 -1.47D-05  2.62D-01 -6.45D-05  8.69D-01
 E= -574.517904074751     Delta-E=       -0.001488097500 Rises=F Damp=F
 DIIS: error= 1.33D-02 at cycle   6 NSaved=   6.
 NSaved= 6 IEnMin= 6 EnMin= -574.517904074751     IErMin= 5 ErrMin= 8.52D-03
 ErrMax= 1.33D-02  0.00D+00 EMaxC= 1.00D-01 BMatC= 1.42D-01 BMatP= 1.03D-01
 IDIUse=2 WtCom= 0.00D+00 WtEn= 1.00D+00
 EnCoef did     2 forward-backward iterations
 Coeff-En:   0.000D+00 0.000D+00 0.000D+00 0.732D-01 0.364D+00 0.562D+00
 Coeff:      0.000D+00 0.000D+00 0.000D+00 0.732D-01 0.364D+00 0.562D+00
 Gap=    -0.014 Goal=   None    Shift=    0.000
 Gap=    -0.014 Goal=   None    Shift=    0.000
 RMSDP=5.00D+00 MaxDP=6.07D+02 DE=-1.49D-03 OVMax= 1.00D+00

 Cycle   7  Pass 1  IDiag  1:
 RMSU=  1.09D+00    CP:  3.00D+00  1.07D+00 -4.59D-01  1.48D+00 -3.00D+00
                    CP:  3.00D+00
 E= -574.167859288036     Delta-E=        0.350044786714 Rises=F Damp=F
 DIIS: error= 2.62D-02 at cycle   7 NSaved=   7.
 NSaved= 7 IEnMin= 6 EnMin= -574.517904074751     IErMin= 5 ErrMin= 8.52D-03
 ErrMax= 2.62D-02  0.00D+00 EMaxC= 1.00D-01 BMatC= 7.00D-01 BMatP= 1.03D-01
 IDIUse=2 WtCom= 0.00D+00 WtEn= 1.00D+00
 EnCoef did     3 forward-backward iterations
 Coeff-En:   0.000D+00 0.000D+00 0.000D+00 0.000D+00 0.355D+00 0.474D+00
 Coeff-En:   0.171D+00
 Coeff:      0.000D+00 0.000D+00 0.000D+00 0.000D+00 0.355D+00 0.474D+00
 Coeff:      0.171D+00
 Gap=    -0.016 Goal=   None    Shift=    0.000
 Gap=    -0.016 Goal=   None    Shift=    0.000
 RMSDP=4.99D+00 MaxDP=6.07D+02 DE= 3.50D-01 OVMax= 9.99D-01

 Cycle   8  Pass 1  IDiag  1:
 RMSU=  1.35D-02    CP:  1.26D+00  1.13D-03  1.35D-01 -1.99D-04  1.57D+00
                    CP:  1.06D+00  7.47D-04
 E= -574.543929138785     Delta-E=       -0.376069850749 Rises=F Damp=F
 DIIS: error= 7.09D-03 at cycle   8 NSaved=   8.
 NSaved= 8 IEnMin= 8 EnMin= -574.543929138785     IErMin= 8 ErrMin= 7.09D-03
 ErrMax= 7.09D-03  0.00D+00 EMaxC= 1.00D-01 BMatC= 2.87D-02 BMatP= 1.03D-01
 IDIUse=3 WtCom= 9.29D-01 WtEn= 7.09D-02
 EnCoef did     6 forward-backward iterations
 Coeff-Com: -0.610D-01 0.812D-01-0.249D-01-0.344D-01 0.224D+00 0.396D+00
 Coeff-Com:  0.110D+00 0.309D+00
 Coeff-En:   0.000D+00 0.000D+00 0.000D+00 0.000D+00 0.000D+00 0.225D+00
 Coeff-En:   0.975D-01 0.677D+00
 Coeff:     -0.567D-01 0.755D-01-0.232D-01-0.319D-01 0.208D+00 0.384D+00
 Coeff:      0.109D+00 0.335D+00
 Gap=     0.023 Goal=   None    Shift=    0.000
 Gap=     0.023 Goal=   None    Shift=    0.000
 RMSDP=9.30D-03 MaxDP=1.39D+00 DE=-3.76D-01 OVMax= 2.16D-02

 Cycle   9  Pass 1  IDiag  1:
 RMSU=  2.37D-03    CP:  1.18D+00  1.07D-03  1.69D-01 -4.35D-04  1.33D+00
                    CP:  1.13D+00 -7.30D-05  6.18D-01
 E= -574.547139767868     Delta-E=       -0.003210629083 Rises=F Damp=F
 DIIS: error= 4.08D-03 at cycle   9 NSaved=   9.
 NSaved= 9 IEnMin= 9 EnMin= -574.547139767868     IErMin= 9 ErrMin= 4.08D-03
 ErrMax= 4.08D-03  0.00D+00 EMaxC= 1.00D-01 BMatC= 1.55D-02 BMatP= 2.87D-02
 IDIUse=3 WtCom= 9.59D-01 WtEn= 4.08D-02
 EnCoef did     1 forward-backward iterations
 Coeff-Com: -0.277D-01 0.444D-01-0.389D-01-0.901D-02-0.517D-01 0.373D-01
 Coeff-Com:  0.478D-01 0.139D+00 0.859D+00
 Coeff-En:   0.000D+00 0.000D+00 0.000D+00 0.000D+00 0.000D+00 0.000D+00
 Coeff-En:   0.100D+00 0.671D-03 0.899D+00
 Coeff:     -0.266D-01 0.426D-01-0.373D-01-0.864D-02-0.496D-01 0.358D-01
 Coeff:      0.499D-01 0.134D+00 0.860D+00
 Gap=     0.010 Goal=   None    Shift=    0.000
 Gap=     0.010 Goal=   None    Shift=    0.000
 RMSDP=1.57D-02 MaxDP=1.63D+00 DE=-3.21D-03 OVMax= 2.88D-02

 Cycle  10  Pass 1  IDiag  1:
 RMSU=  5.71D-03    CP:  1.30D+00  3.64D-03  9.35D-02 -8.41D-05  1.53D+00
                    CP:  1.61D+00  1.72D-03  1.21D+00  2.05D+00
 E= -574.550697607300     Delta-E=       -0.003557839432 Rises=F Damp=F
 DIIS: error= 2.43D-03 at cycle  10 NSaved=  10.
 NSaved=10 IEnMin=10 EnMin= -574.550697607300     IErMin=10 ErrMin= 2.43D-03
 ErrMax= 2.43D-03  0.00D+00 EMaxC= 1.00D-01 BMatC= 4.60D-03 BMatP= 1.55D-02
 IDIUse=3 WtCom= 9.76D-01 WtEn= 2.43D-02
 Coeff-Com: -0.133D-01 0.230D-01-0.143D-01 0.143D-01-0.145D+00-0.230D+00
 Coeff-Com: -0.158D-01-0.131D+00 0.648D+00 0.864D+00
 Coeff-En:   0.000D+00 0.000D+00 0.000D+00 0.000D+00 0.000D+00 0.000D+00
 Coeff-En:   0.692D-01 0.000D+00 0.000D+00 0.931D+00
 Coeff:     -0.130D-01 0.224D-01-0.139D-01 0.140D-01-0.141D+00-0.224D+00
 Coeff:     -0.137D-01-0.128D+00 0.632D+00 0.866D+00
 Gap=    -0.001 Goal=   None    Shift=    0.000
 Gap=    -0.001 Goal=   None    Shift=    0.000
 RMSDP=4.70D+00 MaxDP=5.33D+02 DE=-3.56D-03 OVMax= 9.19D-01

 Cycle  11  Pass 1  IDiag  1:
 RMSU=  3.30D-01    CP:  3.00D+00  1.04D+00  7.33D-01  1.35D+00 -3.00D+00
                    CP:  3.00D+00  1.03D+00  3.00D+00  3.00D+00  3.00D+00
 E= -574.316233026259     Delta-E=        0.234464581041 Rises=F Damp=F
 DIIS: error= 2.21D-02 at cycle  11 NSaved=  11.
 NSaved=11 IEnMin=10 EnMin= -574.550697607300     IErMin=10 ErrMin= 2.43D-03
 ErrMax= 2.21D-02  0.00D+00 EMaxC= 1.00D-01 BMatC= 3.48D-01 BMatP= 4.60D-03
 IDIUse=2 WtCom= 0.00D+00 WtEn= 1.00D+00
 Coeff-En:   0.000D+00 0.000D+00 0.000D+00 0.000D+00 0.000D+00 0.000D+00
 Coeff-En:   0.000D+00 0.000D+00 0.000D+00 0.902D+00 0.978D-01
 Coeff:      0.000D+00 0.000D+00 0.000D+00 0.000D+00 0.000D+00 0.000D+00
 Coeff:      0.000D+00 0.000D+00 0.000D+00 0.902D+00 0.978D-01
 Gap=    -0.006 Goal=   None    Shift=    0.000
 Gap=    -0.006 Goal=   None    Shift=    0.000
 RMSDP=4.64D+00 MaxDP=5.28D+02 DE= 2.34D-01 OVMax= 8.90D-01

 Cycle  12  Pass 1  IDiag  1:
 RMSU=  1.22D-02    CP:  1.48D+00  1.44D-02 -2.30D-02  1.31D-02  1.54D+00
                    CP:  1.53D+00  1.63D-02  1.92D+00  3.00D+00  3.00D+00
                    CP:  2.39D-02
 E= -574.550790017116     Delta-E=       -0.234556990857 Rises=F Damp=F
 DIIS: error= 2.95D-03 at cycle  12 NSaved=  12.
 NSaved=12 IEnMin=12 EnMin= -574.550790017116     IErMin=10 ErrMin= 2.43D-03
 ErrMax= 2.95D-03  0.00D+00 EMaxC= 1.00D-01 BMatC= 6.12D-03 BMatP= 4.60D-03
 IDIUse=3 WtCom= 9.76D-01 WtEn= 2.43D-02
 EnCoef did    25 forward-backward iterations
 Coeff-Com: -0.910D-02 0.115D-01 0.769D-03 0.886D-02-0.939D-01-0.124D+00
 Coeff-Com: -0.253D-01-0.240D+00-0.764D-01 0.105D+01 0.257D-01 0.474D+00
 Coeff-En:   0.000D+00 0.000D+00 0.000D+00 0.000D+00 0.000D+00 0.000D+00
 Coeff-En:   0.000D+00 0.000D+00 0.000D+00 0.520D+00 0.949D-01 0.385D+00
 Coeff:     -0.888D-02 0.112D-01 0.751D-03 0.865D-02-0.916D-01-0.121D+00
 Coeff:     -0.247D-01-0.234D+00-0.745D-01 0.103D+01 0.274D-01 0.472D+00
 Gap=    -0.002 Goal=   None    Shift=    0.000
 Gap=    -0.002 Goal=   None    Shift=    0.000
 RMSDP=4.95D+00 MaxDP=5.55D+02 DE=-2.35D-01 OVMax= 8.80D-01

 Cycle  13  Pass 1  IDiag  1:
 RMSU=  1.65D-01    CP:  3.00D+00  1.14D+00 -1.67D+00  1.39D+00 -3.00D+00
                    CP:  3.00D+00  1.16D+00  3.00D+00  3.00D+00  3.00D+00
                    CP:  1.56D+00  4.84D-01
 E= -574.323821541426     Delta-E=        0.226968475690 Rises=F Damp=F
 DIIS: error= 2.14D-02 at cycle  13 NSaved=  13.
 NSaved=13 IEnMin=12 EnMin= -574.550790017116     IErMin=10 ErrMin= 2.43D-03
 ErrMax= 2.14D-02  0.00D+00 EMaxC= 1.00D-01 BMatC= 3.39D-01 BMatP= 4.60D-03
 IDIUse=2 WtCom= 0.00D+00 WtEn= 1.00D+00
 EnCoef did    94 forward-backward iterations
 Coeff-En:   0.000D+00 0.000D+00 0.000D+00 0.000D+00 0.000D+00 0.000D+00
 Coeff-En:   0.000D+00 0.000D+00 0.000D+00 0.501D+00 0.577D-03 0.402D+00
 Coeff-En:   0.967D-01
 Coeff:      0.000D+00 0.000D+00 0.000D+00 0.000D+00 0.000D+00 0.000D+00
 Coeff:      0.000D+00 0.000D+00 0.000D+00 0.501D+00 0.577D-03 0.402D+00
 Coeff:      0.967D-01
 Gap=    -0.005 Goal=   None    Shift=    0.000
 Gap=    -0.005 Goal=   None    Shift=    0.000
 RMSDP=4.89D+00 MaxDP=5.48D+02 DE= 2.27D-01 OVMax= 8.60D-01

 Cycle  14  Pass 1  IDiag  1:
 RMSU=  9.99D-03    CP:  1.62D+00  2.68D-02 -8.32D-02  2.88D-02  1.39D+00
                    CP:  1.92D+00  3.02D-02  2.24D+00  3.00D+00  3.00D+00
                    CP:  5.31D-02  1.73D+00  1.71D-02
 E= -574.551940565564     Delta-E=       -0.228119024137 Rises=F Damp=F
 DIIS: error= 1.92D-03 at cycle  14 NSaved=  14.
 NSaved=14 IEnMin=14 EnMin= -574.551940565564     IErMin=14 ErrMin= 1.92D-03
 ErrMax= 1.92D-03  0.00D+00 EMaxC= 1.00D-01 BMatC= 3.94D-03 BMatP= 4.60D-03
 IDIUse=3 WtCom= 9.81D-01 WtEn= 1.92D-02
 Coeff-Com: -0.943D-02 0.100D-01 0.196D-02 0.413D-02-0.703D-01-0.845D-01
 Coeff-Com: -0.144D-01-0.258D+00-0.194D+00 0.841D+00-0.143D+00 0.548D+00
 Coeff-Com:  0.173D+00 0.195D+00
 Coeff-En:   0.000D+00 0.000D+00 0.000D+00 0.000D+00 0.000D+00 0.000D+00
 Coeff-En:   0.000D+00 0.000D+00 0.000D+00 0.000D+00 0.000D+00 0.000D+00
 Coeff-En:   0.947D-01 0.905D+00
 Coeff:     -0.925D-02 0.982D-02 0.192D-02 0.405D-02-0.689D-01-0.828D-01
 Coeff:     -0.142D-01-0.253D+00-0.190D+00 0.825D+00-0.141D+00 0.538D+00
 Coeff:      0.172D+00 0.209D+00
 Gap=    -0.001 Goal=   None    Shift=    0.000
 Gap=    -0.001 Goal=   None    Shift=    0.000
 RMSDP=4.34D+00 MaxDP=4.85D+02 DE=-2.28D-01 OVMax= 7.66D-01

 Cycle  15  Pass 1  IDiag  1:
 RMSU=  3.09D-02    CP:  3.00D+00  1.02D+00 -3.00D+00  1.22D+00 -3.00D+00
                    CP:  3.00D+00  1.06D+00  3.00D+00  3.00D+00  3.00D+00
                    CP:  1.57D+00  3.00D+00  1.44D+00  2.24D+00
 E= -574.400248076332     Delta-E=        0.151692489232 Rises=F Damp=F
 DIIS: error= 1.77D-02 at cycle  15 NSaved=  15.
 NSaved=15 IEnMin=14 EnMin= -574.551940565564     IErMin=14 ErrMin= 1.92D-03
 ErrMax= 1.77D-02  0.00D+00 EMaxC= 1.00D-01 BMatC= 2.53D-01 BMatP= 3.94D-03
 IDIUse=2 WtCom= 0.00D+00 WtEn= 1.00D+00
 Coeff-En:   0.000D+00 0.000D+00 0.000D+00 0.000D+00 0.000D+00 0.000D+00
 Coeff-En:   0.000D+00 0.000D+00 0.000D+00 0.000D+00 0.000D+00 0.000D+00
 Coeff-En:   0.000D+00 0.885D+00 0.115D+00
 Coeff:      0.000D+00 0.000D+00 0.000D+00 0.000D+00 0.000D+00 0.000D+00
 Coeff:      0.000D+00 0.000D+00 0.000D+00 0.000D+00 0.000D+00 0.000D+00
 Coeff:      0.000D+00 0.885D+00 0.115D+00
 Gap=     0.001 Goal=   None    Shift=    0.000
 Gap=     0.001 Goal=   None    Shift=    0.000
 RMSDP=3.99D+00 MaxDP=4.46D+02 DE= 1.52D-01 OVMax= 6.72D-01

 Cycle  16  Pass 1  IDiag  1:
 RMSU=  3.94D-02    CP:  2.59D+00  1.00D-01 -4.59D-01  1.25D-01  1.02D+00
                    CP:  2.26D+00  1.09D-01  3.00D+00  3.00D+00  3.00D+00
                    CP:  1.90D-01  3.00D+00  1.88D-01  3.00D+00  1.01D-01
 E= -574.554650720167     Delta-E=       -0.154402643836 Rises=F Damp=F
 DIIS: error= 2.10D-03 at cycle  16 NSaved=  16.
 NSaved=16 IEnMin=16 EnMin= -574.554650720167     IErMin=14 ErrMin= 1.92D-03
 ErrMax= 2.10D-03  0.00D+00 EMaxC= 1.00D-01 BMatC= 3.25D-03 BMatP= 3.94D-03
 IDIUse=3 WtCom= 9.81D-01 WtEn= 1.92D-02
 Coeff-Com: -0.782D-02 0.721D-02-0.276D-02 0.354D-02-0.283D-01-0.324D-01
 Coeff-Com: -0.497D-02-0.104D+00-0.430D-01 0.420D-02-0.104D+00-0.788D-01
 Coeff-Com:  0.977D-02 0.768D+00 0.145D+00 0.468D+00
 Coeff-En:   0.000D+00 0.000D+00 0.000D+00 0.000D+00 0.000D+00 0.000D+00
 Coeff-En:   0.000D+00 0.000D+00 0.000D+00 0.000D+00 0.000D+00 0.000D+00
 Coeff-En:   0.000D+00 0.000D+00 0.633D-01 0.937D+00
 Coeff:     -0.767D-02 0.707D-02-0.271D-02 0.347D-02-0.278D-01-0.318D-01
 Coeff:     -0.488D-02-0.102D+00-0.421D-01 0.412D-02-0.102D+00-0.773D-01
 Coeff:      0.958D-02 0.753D+00 0.144D+00 0.477D+00
 Gap=     0.004 Goal=   None    Shift=    0.000
 Gap=     0.004 Goal=   None    Shift=    0.000
 RMSDP=3.55D+00 MaxDP=4.09D+02 DE=-1.54D-01 OVMax= 5.43D-01

 Cycle  17  Pass 1  IDiag  1:
 RMSU=  1.04D-01    CP:  3.00D+00  9.37D-01 -3.00D+00  1.06D+00 -2.75D+00
                    CP:  1.76D+00  9.97D-01  3.00D+00  3.00D+00  3.00D+00
                    CP:  1.42D+00  3.00D+00  2.43D+00  3.00D+00  1.44D+00
                    CP:  1.28D+00
 E= -574.476583062373     Delta-E=        0.078067657794 Rises=F Damp=F
 DIIS: error= 1.34D-02 at cycle  17 NSaved=  17.
 NSaved=17 IEnMin=16 EnMin= -574.554650720167     IErMin=14 ErrMin= 1.92D-03
 ErrMax= 1.34D-02  0.00D+00 EMaxC= 1.00D-01 BMatC= 1.33D-01 BMatP= 3.25D-03
 IDIUse=2 WtCom= 0.00D+00 WtEn= 1.00D+00
 Coeff-En:   0.000D+00 0.000D+00 0.000D+00 0.000D+00 0.000D+00 0.000D+00
 Coeff-En:   0.000D+00 0.000D+00 0.000D+00 0.000D+00 0.000D+00 0.000D+00
 Coeff-En:   0.000D+00 0.000D+00 0.000D+00 0.904D+00 0.958D-01
 Coeff:      0.000D+00 0.000D+00 0.000D+00 0.000D+00 0.000D+00 0.000D+00
 Coeff:      0.000D+00 0.000D+00 0.000D+00 0.000D+00 0.000D+00 0.000D+00
 Coeff:      0.000D+00 0.000D+00 0.000D+00 0.904D+00 0.958D-01
 Gap=     0.007 Goal=   None    Shift=    0.000
 Gap=     0.007 Goal=   None    Shift=    0.000
 RMSDP=2.94D+00 MaxDP=3.36D+02 DE= 7.81D-02 OVMax= 4.31D-01

 Cycle  18  Pass 1  IDiag  1:
 RMSU=  2.00D-02    CP:  3.00D+00  2.39D-01 -1.64D+00  2.90D-01  2.42D-01
                    CP:  2.84D+00  2.55D-01  3.00D+00  3.00D+00  3.00D+00
                    CP:  3.57D-01  3.00D+00  6.18D-01  3.00D+00  5.05D-01
                    CP:  1.78D+00  1.73D-01
 E= -574.553909094911     Delta-E=       -0.077326032538 Rises=F Damp=F
 DIIS: error= 3.40D-03 at cycle  18 NSaved=  18.
 NSaved=18 IEnMin=16 EnMin= -574.554650720167     IErMin=14 ErrMin= 1.92D-03
 ErrMax= 3.40D-03  0.00D+00 EMaxC= 1.00D-01 BMatC= 1.43D-02 BMatP= 3.25D-03
 IDIUse=3 WtCom= 9.81D-01 WtEn= 1.92D-02
 EnCoef did   100 forward-backward iterations
 Coeff-Com: -0.320D-02 0.293D-02-0.299D-02 0.278D-02 0.428D-02 0.122D-01
 Coeff-Com: -0.190D-02 0.316D-01 0.423D-01-0.151D+00 0.946D-01-0.242D+00
 Coeff-Com: -0.838D-01 0.297D+00-0.162D+00 0.731D+00 0.247D+00 0.181D+00
 Coeff-En:   0.000D+00 0.000D+00 0.000D+00 0.000D+00 0.000D+00 0.000D+00
 Coeff-En:   0.000D+00 0.000D+00 0.000D+00 0.000D+00 0.000D+00 0.000D+00
 Coeff-En:   0.000D+00 0.000D+00 0.254D-02 0.630D+00 0.521D-01 0.315D+00
 Coeff:     -0.314D-02 0.288D-02-0.293D-02 0.273D-02 0.420D-02 0.119D-01
 Coeff:     -0.186D-02 0.309D-01 0.415D-01-0.148D+00 0.928D-01-0.237D+00
 Coeff:     -0.822D-01 0.291D+00-0.159D+00 0.729D+00 0.243D+00 0.184D+00
 Gap=     0.010 Goal=   None    Shift=    0.000
 Gap=     0.010 Goal=   None    Shift=    0.000
 RMSDP=1.29D+00 MaxDP=1.53D+02 DE=-7.73D-02 OVMax= 2.00D-01

 Cycle  19  Pass 1  IDiag  1:
 RMSU=  1.36D-02    CP:  3.00D+00  5.42D-01 -3.00D+00  6.34D-01 -9.40D-01
                    CP:  2.36D+00  5.69D-01  3.00D+00  3.00D+00  3.00D+00
                    CP:  7.34D-01  3.00D+00  1.53D+00  3.00D+00  1.39D+00
                    CP:  1.89D+00  6.54D-01  1.34D+00
 E= -574.544203876815     Delta-E=        0.009705218096 Rises=F Damp=F
 DIIS: error= 5.26D-03 at cycle  19 NSaved=  19.
 NSaved=19 IEnMin=16 EnMin= -574.554650720167     IErMin=14 ErrMin= 1.92D-03
 ErrMax= 5.26D-03  0.00D+00 EMaxC= 1.00D-01 BMatC= 2.19D-02 BMatP= 3.25D-03
 IDIUse=3 WtCom= 9.81D-01 WtEn= 1.92D-02
 EnCoef did   100 forward-backward iterations
 Coeff-Com: -0.130D-02 0.118D-02-0.579D-03 0.627D-03 0.868D-02 0.174D-01
 Coeff-Com: -0.471D-03 0.178D-01-0.174D-01 0.204D-02 0.269D-01-0.273D-01
 Coeff-Com:  0.597D-01 0.281D+00-0.178D+00 0.306D+00-0.189D-01 0.592D-01
 Coeff-Com:  0.464D+00
 Coeff-En:   0.000D+00 0.000D+00 0.000D+00 0.000D+00 0.000D+00 0.000D+00
 Coeff-En:   0.000D+00 0.000D+00 0.000D+00 0.000D+00 0.000D+00 0.000D+00
 Coeff-En:   0.000D+00 0.000D+00 0.347D-03 0.579D+00 0.202D-02 0.254D+00
 Coeff-En:   0.165D+00
 Coeff:     -0.127D-02 0.115D-02-0.568D-03 0.615D-03 0.851D-02 0.171D-01
 Coeff:     -0.462D-03 0.175D-01-0.170D-01 0.200D-02 0.264D-01-0.268D-01
 Coeff:      0.585D-01 0.276D+00-0.175D+00 0.311D+00-0.185D-01 0.629D-01
 Coeff:      0.458D+00
 Gap=     0.010 Goal=   None    Shift=    0.000
 Gap=     0.010 Goal=   None    Shift=    0.000
 RMSDP=7.26D-01 MaxDP=8.64D+01 DE= 9.71D-03 OVMax= 1.02D-01

 Cycle  20  Pass 1  IDiag  1:
 RMSU=  1.99D-03    CP:  3.00D+00  3.70D-01 -2.57D+00  4.44D-01 -2.54D-01
                    CP:  2.70D+00  3.87D-01  3.00D+00  3.00D+00  3.00D+00
                    CP:  5.15D-01  3.00D+00  9.61D-01  3.00D+00  1.12D+00
                    CP:  1.80D+00  2.92D-01  1.34D+00  8.28D-01
 E= -574.554070470144     Delta-E=       -0.009866593329 Rises=F Damp=F
 DIIS: error= 2.86D-03 at cycle  20 NSaved=  20.
 NSaved=20 IEnMin=16 EnMin= -574.554650720167     IErMin=14 ErrMin= 1.92D-03
 ErrMax= 2.86D-03  0.00D+00 EMaxC= 1.00D-01 BMatC= 5.86D-03 BMatP= 3.25D-03
 IDIUse=3 WtCom= 9.81D-01 WtEn= 1.92D-02
 EnCoef did     1 forward-backward iterations
 Coeff-Com: -0.784D-03 0.657D-03 0.357D-06 0.418D-03 0.721D-02 0.116D-01
 Coeff-Com: -0.114D-03 0.106D-01-0.229D-01 0.312D-01 0.192D-01 0.193D-01
 Coeff-Com:  0.707D-01 0.311D+00-0.190D+00 0.161D+00 0.177D-01 0.758D-02
 Coeff-Com:  0.254D+00 0.291D+00
 Coeff-En:   0.000D+00 0.000D+00 0.000D+00 0.000D+00 0.000D+00 0.000D+00
 Coeff-En:   0.000D+00 0.000D+00 0.000D+00 0.000D+00 0.000D+00 0.000D+00
 Coeff-En:   0.000D+00 0.000D+00 0.000D+00 0.462D+00 0.000D+00 0.169D+00
 Coeff-En:   0.000D+00 0.369D+00
 Coeff:     -0.769D-03 0.644D-03 0.350D-06 0.410D-03 0.707D-02 0.114D-01
 Coeff:     -0.112D-03 0.104D-01-0.224D-01 0.306D-01 0.188D-01 0.189D-01
 Coeff:      0.693D-01 0.305D+00-0.186D+00 0.167D+00 0.174D-01 0.107D-01
 Coeff:      0.249D+00 0.292D+00
 Gap=     0.010 Goal=   None    Shift=    0.000
 Gap=     0.010 Goal=   None    Shift=    0.000
 RMSDP=4.89D-03 MaxDP=4.92D-01 DE=-9.87D-03 OVMax= 2.22D-03

 Cycle  21  Pass 1  IDiag  1:
 Restarting incremental Fock formation.
 E= -574.553833132126     Delta-E=        0.000237338018 Rises=F Damp=F
 DIIS: error= 2.98D-03 at cycle  21 NSaved=  20.
 NSaved=20 IEnMin=15 EnMin= -574.554650720167     IErMin=13 ErrMin= 1.92D-03
 ErrMax= 2.98D-03  0.00D+00 EMaxC= 1.00D-01 BMatC= 6.37D-03 BMatP= 3.25D-03
 IDIUse=3 WtCom= 9.81D-01 WtEn= 1.92D-02
 Rare condition: small coef for last iteration: -0.222D-15
 Coeff-Com: -0.107D-02 0.747D-03-0.240D-03 0.935D-02 0.176D-01-0.132D-02
 Coeff-Com:  0.142D-01-0.389D-01-0.295D-01-0.109D-01-0.128D-01 0.688D-01
 Coeff-Com:  0.324D+00-0.395D-01 0.227D+00-0.213D+00 0.335D-01 0.658D+00
 Coeff-Com:  0.337D+01-0.338D+01
 Coeff-En:   0.000D+00 0.000D+00 0.000D+00 0.000D+00 0.000D+00 0.000D+00
 Coeff-En:   0.000D+00 0.000D+00 0.000D+00 0.000D+00 0.000D+00 0.000D+00
 Coeff-En:   0.000D+00 0.000D+00 0.453D+00 0.000D+00 0.278D+00 0.000D+00
 Coeff-En:   0.000D+00 0.270D+00
 Coeff:     -0.107D-02 0.747D-03-0.240D-03 0.935D-02 0.176D-01-0.132D-02
 Coeff:      0.142D-01-0.389D-01-0.295D-01-0.109D-01-0.128D-01 0.688D-01
 Coeff:      0.324D+00-0.395D-01 0.227D+00-0.213D+00 0.335D-01 0.658D+00
 Coeff:      0.337D+01-0.338D+01
 Gap=     0.011 Goal=   None    Shift=    0.000
 Gap=     0.011 Goal=   None    Shift=    0.000
 RMSDP=1.62D-01 MaxDP=1.80D+01 DE= 2.37D-04 OVMax= 3.30D-02

 Cycle  22  Pass 1  IDiag  1:
 RMSU=  1.46D-02    CP:  9.02D-01
 E= -574.555845816270     Delta-E=       -0.002012684144 Rises=F Damp=F
 DIIS: error= 1.92D-03 at cycle  22 NSaved=  20.
 NSaved=20 IEnMin=20 EnMin= -574.555845816270     IErMin=12 ErrMin= 1.92D-03
 ErrMax= 1.92D-03  0.00D+00 EMaxC= 1.00D-01 BMatC= 2.58D-03 BMatP= 3.25D-03
 IDIUse=3 WtCom= 9.81D-01 WtEn= 1.92D-02
 EnCoef did     1 forward-backward iterations
 Coeff-Com: -0.248D-04 0.664D-03 0.987D-03-0.208D-02-0.703D-03-0.118D-02
 Coeff-Com: -0.209D-01 0.365D-02-0.159D-01 0.404D-01 0.148D-02 0.165D+00
 Coeff-Com:  0.806D-01-0.823D-02-0.136D+00-0.635D-02 0.208D+00 0.405D+01
 Coeff-Com: -0.493D+01 0.157D+01
 Coeff-En:   0.000D+00 0.000D+00 0.000D+00 0.000D+00 0.000D+00 0.000D+00
 Coeff-En:   0.000D+00 0.000D+00 0.000D+00 0.000D+00 0.000D+00 0.000D+00
 Coeff-En:   0.000D+00 0.348D+00 0.000D+00 0.937D-01 0.000D+00 0.000D+00
 Coeff-En:   0.000D+00 0.558D+00
 Coeff:     -0.243D-04 0.651D-03 0.968D-03-0.204D-02-0.690D-03-0.116D-02
 Coeff:     -0.205D-01 0.358D-02-0.156D-01 0.397D-01 0.145D-02 0.162D+00
 Coeff:      0.790D-01-0.139D-02-0.134D+00-0.443D-02 0.204D+00 0.397D+01
 Coeff:     -0.483D+01 0.155D+01
 Gap=     0.013 Goal=   None    Shift=    0.000
 Gap=     0.013 Goal=   None    Shift=    0.000
 RMSDP=1.17D-01 MaxDP=1.23D+01 DE=-2.01D-03 OVMax= 2.75D-02

 Cycle  23  Pass 1  IDiag  1:
 RMSU=  7.81D-03    CP:  8.33D-01  1.67D+00
 E= -574.556869795443     Delta-E=       -0.001023979172 Rises=F Damp=F
 DIIS: error= 9.25D-04 at cycle  23 NSaved=  20.
 NSaved=20 IEnMin=20 EnMin= -574.556869795443     IErMin=20 ErrMin= 9.25D-04
 ErrMax= 9.25D-04  0.00D+00 EMaxC= 1.00D-01 BMatC= 5.79D-04 BMatP= 2.58D-03
 IDIUse=3 WtCom= 9.91D-01 WtEn= 9.25D-03
 Coeff-Com:  0.661D-03-0.154D-03-0.418D-02-0.160D-03-0.346D-02-0.424D-02
 Coeff-Com:  0.245D-01-0.569D-02 0.463D-01-0.139D-01 0.504D-01 0.569D-01
 Coeff-Com: -0.610D-01-0.431D-01-0.141D-01 0.490D-02 0.169D+01-0.244D+01
 Coeff-Com:  0.955D+00 0.755D+00
 Coeff-En:   0.000D+00 0.000D+00 0.000D+00 0.000D+00 0.000D+00 0.000D+00
 Coeff-En:   0.000D+00 0.000D+00 0.000D+00 0.000D+00 0.000D+00 0.000D+00
 Coeff-En:   0.694D-01 0.000D+00 0.000D+00 0.000D+00 0.000D+00 0.000D+00
 Coeff-En:   0.000D+00 0.931D+00
 Coeff:      0.655D-03-0.153D-03-0.415D-02-0.158D-03-0.343D-02-0.420D-02
 Coeff:      0.242D-01-0.564D-02 0.458D-01-0.138D-01 0.499D-01 0.564D-01
 Coeff:     -0.598D-01-0.427D-01-0.139D-01 0.486D-02 0.168D+01-0.241D+01
 Coeff:      0.947D+00 0.757D+00
 Gap=     0.014 Goal=   None    Shift=    0.000
 Gap=     0.014 Goal=   None    Shift=    0.000
 RMSDP=5.09D-02 MaxDP=5.15D+00 DE=-1.02D-03 OVMax= 1.15D-02

 Cycle  24  Pass 1  IDiag  1:
 RMSU=  2.20D-03    CP:  8.02D-01  1.84D+00  1.91D+00
 E= -574.557078831053     Delta-E=       -0.000209035610 Rises=F Damp=F
 DIIS: error= 5.23D-04 at cycle  24 NSaved=  20.
 NSaved=20 IEnMin=20 EnMin= -574.557078831053     IErMin=20 ErrMin= 5.23D-04
 ErrMax= 5.23D-04  0.00D+00 EMaxC= 1.00D-01 BMatC= 1.77D-04 BMatP= 5.79D-04
 IDIUse=3 WtCom= 9.95D-01 WtEn= 5.23D-03
 Coeff-Com:  0.769D-03 0.975D-03-0.377D-03 0.370D-02 0.717D-02-0.113D-02
 Coeff-Com: -0.851D-03 0.516D-02-0.997D-02 0.153D-02 0.298D-01-0.117D-01
 Coeff-Com: -0.190D-01-0.389D-02 0.149D-01 0.200D+00-0.553D+00 0.111D+00
 Coeff-Com:  0.406D+00 0.818D+00
 Coeff-En:   0.000D+00 0.000D+00 0.000D+00 0.000D+00 0.000D+00 0.000D+00
 Coeff-En:   0.000D+00 0.000D+00 0.000D+00 0.000D+00 0.000D+00 0.000D+00
 Coeff-En:   0.000D+00 0.000D+00 0.000D+00 0.000D+00 0.000D+00 0.000D+00
 Coeff-En:   0.000D+00 0.100D+01
 Coeff:      0.765D-03 0.970D-03-0.375D-03 0.368D-02 0.713D-02-0.112D-02
 Coeff:     -0.846D-03 0.514D-02-0.992D-02 0.153D-02 0.296D-01-0.117D-01
 Coeff:     -0.189D-01-0.387D-02 0.148D-01 0.199D+00-0.550D+00 0.111D+00
 Coeff:      0.404D+00 0.819D+00
 Gap=     0.014 Goal=   None    Shift=    0.000
 Gap=     0.014 Goal=   None    Shift=    0.000
 RMSDP=2.90D-02 MaxDP=2.41D+00 DE=-2.09D-04 OVMax= 7.75D-03

 Cycle  25  Pass 1  IDiag  1:
 RMSU=  9.06D-04    CP:  7.85D-01  1.98D+00  2.86D+00  1.19D+00
 E= -574.557156739137     Delta-E=       -0.000077908084 Rises=F Damp=F
 DIIS: error= 1.63D-04 at cycle  25 NSaved=  20.
 NSaved=20 IEnMin=20 EnMin= -574.557156739137     IErMin=20 ErrMin= 1.63D-04
 ErrMax= 1.63D-04  0.00D+00 EMaxC= 1.00D-01 BMatC= 2.02D-05 BMatP= 1.77D-04
 IDIUse=3 WtCom= 9.98D-01 WtEn= 1.63D-03
 Coeff-Com:  0.505D-03 0.100D-02 0.114D-02 0.382D-02 0.175D-03-0.697D-03
 Coeff-Com:  0.436D-02-0.437D-02-0.381D-02 0.146D-01-0.760D-02-0.129D-01
 Coeff-Com: -0.143D-02 0.947D-02-0.594D-01-0.129D-01-0.106D+00 0.584D-01
 Coeff-Com:  0.453D+00 0.662D+00
 Coeff-En:   0.000D+00 0.000D+00 0.000D+00 0.000D+00 0.000D+00 0.000D+00
 Coeff-En:   0.000D+00 0.000D+00 0.000D+00 0.000D+00 0.000D+00 0.000D+00
 Coeff-En:   0.000D+00 0.000D+00 0.000D+00 0.000D+00 0.000D+00 0.000D+00
 Coeff-En:   0.000D+00 0.100D+01
 Coeff:      0.504D-03 0.100D-02 0.114D-02 0.381D-02 0.175D-03-0.696D-03
 Coeff:      0.435D-02-0.437D-02-0.380D-02 0.146D-01-0.759D-02-0.129D-01
 Coeff:     -0.142D-02 0.946D-02-0.593D-01-0.128D-01-0.106D+00 0.583D-01
 Coeff:      0.452D+00 0.663D+00
 Gap=     0.014 Goal=   None    Shift=    0.000
 Gap=     0.014 Goal=   None    Shift=    0.000
 RMSDP=2.00D-02 MaxDP=2.11D+00 DE=-7.79D-05 OVMax= 3.96D-03

 Cycle  26  Pass 1  IDiag  1:
 RMSU=  1.66D-03    CP:  7.74D-01  1.99D+00  3.00D+00  1.98D+00  9.38D-01
 E= -574.557166867965     Delta-E=       -0.000010128828 Rises=F Damp=F
 DIIS: error= 4.40D-05 at cycle  26 NSaved=  20.
 NSaved=20 IEnMin=20 EnMin= -574.557166867965     IErMin=20 ErrMin= 4.40D-05
 ErrMax= 4.40D-05  0.00D+00 EMaxC= 1.00D-01 BMatC= 1.22D-06 BMatP= 2.02D-05
 IDIUse=1 WtCom= 1.00D+00 WtEn= 0.00D+00
 Coeff-Com:  0.153D-04 0.142D-03-0.302D-03-0.388D-03 0.131D-03 0.213D-02
 Coeff-Com:  0.829D-03 0.295D-02-0.583D-04 0.227D-02-0.467D-02 0.159D-02
 Coeff-Com:  0.588D-02 0.973D-01-0.431D-01-0.381D-01-0.103D+00-0.956D-01
 Coeff-Com:  0.310D+00 0.861D+00
 Coeff:      0.153D-04 0.142D-03-0.302D-03-0.388D-03 0.131D-03 0.213D-02
 Coeff:      0.829D-03 0.295D-02-0.583D-04 0.227D-02-0.467D-02 0.159D-02
 Coeff:      0.588D-02 0.973D-01-0.431D-01-0.381D-01-0.103D+00-0.956D-01
 Coeff:      0.310D+00 0.861D+00
 Gap=     0.014 Goal=   None    Shift=    0.000
 Gap=     0.014 Goal=   None    Shift=    0.000
 RMSDP=3.75D-03 MaxDP=3.42D-01 DE=-1.01D-05 OVMax= 8.31D-04

 Cycle  27  Pass 1  IDiag  1:
 RMSU=  1.40D-04    CP:  7.72D-01  1.98D+00  3.00D+00  2.36D+00  1.11D+00
                    CP:  2.01D+00
 E= -574.557167391223     Delta-E=       -0.000000523258 Rises=F Damp=F
 DIIS: error= 1.72D-05 at cycle  27 NSaved=  20.
 NSaved=20 IEnMin=20 EnMin= -574.557167391223     IErMin=20 ErrMin= 1.72D-05
 ErrMax= 1.72D-05  0.00D+00 EMaxC= 1.00D-01 BMatC= 1.94D-07 BMatP= 1.22D-06
 IDIUse=1 WtCom= 1.00D+00 WtEn= 0.00D+00
 Coeff-Com: -0.270D-04-0.438D-04-0.113D-03-0.334D-03-0.435D-03 0.294D-04
 Coeff-Com:  0.810D-03 0.555D-03 0.214D-02-0.198D-02 0.118D-02 0.219D-02
 Coeff-Com:  0.640D-01-0.391D-01-0.305D-02-0.497D-01-0.100D+00 0.704D-01
 Coeff-Com:  0.411D+00 0.643D+00
 Coeff:     -0.270D-04-0.438D-04-0.113D-03-0.334D-03-0.435D-03 0.294D-04
 Coeff:      0.810D-03 0.555D-03 0.214D-02-0.198D-02 0.118D-02 0.219D-02
 Coeff:      0.640D-01-0.391D-01-0.305D-02-0.497D-01-0.100D+00 0.704D-01
 Coeff:      0.411D+00 0.643D+00
 Gap=     0.014 Goal=   None    Shift=    0.000
 Gap=     0.015 Goal=   None    Shift=    0.000
 RMSDP=8.74D-04 MaxDP=1.32D-01 DE=-5.23D-07 OVMax= 2.51D-04

 Cycle  28  Pass 1  IDiag  1:
 RMSU=  1.29D-04    CP:  7.72D-01  1.98D+00  3.00D+00  2.38D+00  1.27D+00
                    CP:  2.46D+00  1.99D+00
 E= -574.557167472809     Delta-E=       -0.000000081586 Rises=F Damp=F
 DIIS: error= 5.66D-06 at cycle  28 NSaved=  20.
 NSaved=20 IEnMin=20 EnMin= -574.557167472809     IErMin=20 ErrMin= 5.66D-06
 ErrMax= 5.66D-06  0.00D+00 EMaxC= 1.00D-01 BMatC= 1.95D-08 BMatP= 1.94D-07
 IDIUse=1 WtCom= 1.00D+00 WtEn= 0.00D+00
 Coeff-Com: -0.613D-04-0.880D-04-0.164D-03-0.247D-03 0.426D-03 0.237D-04
 Coeff-Com: -0.203D-03 0.420D-03-0.162D-03 0.218D-03-0.420D-03 0.494D-02
 Coeff-Com:  0.439D-02-0.817D-03-0.112D-01-0.407D-01-0.207D-01 0.639D-01
 Coeff-Com:  0.304D+00 0.696D+00
 Coeff:     -0.613D-04-0.880D-04-0.164D-03-0.247D-03 0.426D-03 0.237D-04
 Coeff:     -0.203D-03 0.420D-03-0.162D-03 0.218D-03-0.420D-03 0.494D-02
 Coeff:      0.439D-02-0.817D-03-0.112D-01-0.407D-01-0.207D-01 0.639D-01
 Coeff:      0.304D+00 0.696D+00
 Gap=     0.015 Goal=   None    Shift=    0.000
 Gap=     0.015 Goal=   None    Shift=    0.000
 RMSDP=1.25D-03 MaxDP=1.69D-01 DE=-8.16D-08 OVMax= 2.94D-04

 Cycle  29  Pass 1  IDiag  1:
 RMSU=  1.76D-04    CP:  7.71D-01  1.97D+00  3.00D+00  2.49D+00  1.30D+00
                    CP:  2.65D+00  3.00D+00  3.00D+00
 E= -574.557167486906     Delta-E=       -0.000000014097 Rises=F Damp=F
 DIIS: error= 8.41D-07 at cycle  29 NSaved=  20.
 NSaved=20 IEnMin=20 EnMin= -574.557167486906     IErMin=20 ErrMin= 8.41D-07
 ErrMax= 8.41D-07  0.00D+00 EMaxC= 1.00D-01 BMatC= 4.69D-10 BMatP= 1.95D-08
 IDIUse=1 WtCom= 1.00D+00 WtEn= 0.00D+00
 Coeff-Com: -0.354D-04-0.425D-04-0.971D-04-0.151D-03 0.368D-03 0.963D-04
 Coeff-Com: -0.140D-03-0.113D-04-0.656D-05-0.583D-03 0.740D-05 0.358D-02
 Coeff-Com:  0.415D-03-0.192D-02-0.162D-01-0.179D-01-0.366D-03 0.121D+00
 Coeff-Com:  0.427D+00 0.486D+00
 Coeff:     -0.354D-04-0.425D-04-0.971D-04-0.151D-03 0.368D-03 0.963D-04
 Coeff:     -0.140D-03-0.113D-04-0.656D-05-0.583D-03 0.740D-05 0.358D-02
 Coeff:      0.415D-03-0.192D-02-0.162D-01-0.179D-01-0.366D-03 0.121D+00
 Coeff:      0.427D+00 0.486D+00
 Gap=     0.015 Goal=   None    Shift=    0.000
 Gap=     0.015 Goal=   None    Shift=    0.000
 RMSDP=6.45D-04 MaxDP=9.47D-02 DE=-1.41D-08 OVMax= 1.29D-04

 Cycle  30  Pass 1  IDiag  1:
 RMSU=  3.99D-04    CP:  7.71D-01  1.97D+00  3.00D+00  2.51D+00  1.31D+00
                    CP:  2.68D+00  3.00D+00  3.00D+00  3.00D+00
 E= -574.557167488670     Delta-E=       -0.000000001764 Rises=F Damp=F
 DIIS: error= 1.24D-06 at cycle  30 NSaved=  20.
 NSaved=20 IEnMin=20 EnMin= -574.557167488670     IErMin=19 ErrMin= 8.41D-07
 ErrMax= 1.24D-06  0.00D+00 EMaxC= 1.00D-01 BMatC= 5.67D-10 BMatP= 4.69D-10
 IDIUse=1 WtCom= 1.00D+00 WtEn= 0.00D+00
 Coeff-Com:  0.149D-04-0.119D-04-0.154D-03 0.415D-04-0.198D-03 0.271D-04
 Coeff-Com:  0.326D-03-0.636D-06-0.433D-03-0.287D-02 0.556D-02-0.150D-03
 Coeff-Com:  0.300D-03-0.115D-01-0.224D-01-0.218D-01 0.107D+00 0.484D+00
 Coeff-Com:  0.857D+00-0.395D+00
 Coeff:      0.149D-04-0.119D-04-0.154D-03 0.415D-04-0.198D-03 0.271D-04
 Coeff:      0.326D-03-0.636D-06-0.433D-03-0.287D-02 0.556D-02-0.150D-03
 Coeff:      0.300D-03-0.115D-01-0.224D-01-0.218D-01 0.107D+00 0.484D+00
 Coeff:      0.857D+00-0.395D+00
 Gap=     0.015 Goal=   None    Shift=    0.000
 Gap=     0.015 Goal=   None    Shift=    0.000
 RMSDP=6.05D-04 MaxDP=7.44D-02 DE=-1.76D-09 OVMax= 1.12D-04

 Cycle  31  Pass 1  IDiag  1:
 RMSU=  1.83D-05    CP:  7.71D-01  1.97D+00  3.00D+00  2.51D+00  1.31D+00
                    CP:  2.68D+00  3.00D+00  3.00D+00  1.12D+00 -1.15D-02
 E= -574.557167486389     Delta-E=        0.000000002281 Rises=F Damp=F
 DIIS: error= 1.59D-06 at cycle  31 NSaved=  20.
 NSaved=20 IEnMin=19 EnMin= -574.557167488670     IErMin=18 ErrMin= 8.41D-07
 ErrMax= 1.59D-06  0.00D+00 EMaxC= 1.00D-01 BMatC= 1.75D-09 BMatP= 4.69D-10
 IDIUse=1 WtCom= 1.00D+00 WtEn= 0.00D+00
 Coeff-Com: -0.163D-04-0.896D-04 0.207D-04-0.711D-04 0.188D-03 0.559D-04
 Coeff-Com: -0.714D-04-0.417D-03-0.169D-02 0.247D-02 0.126D-02 0.301D-02
 Coeff-Com: -0.233D-02-0.166D-01-0.377D-01 0.145D-01 0.249D+00 0.821D+00
 Coeff-Com: -0.111D+01 0.108D+01
 Coeff:     -0.163D-04-0.896D-04 0.207D-04-0.711D-04 0.188D-03 0.559D-04
 Coeff:     -0.714D-04-0.417D-03-0.169D-02 0.247D-02 0.126D-02 0.301D-02
 Coeff:     -0.233D-02-0.166D-01-0.377D-01 0.145D-01 0.249D+00 0.821D+00
 Coeff:     -0.111D+01 0.108D+01
 Gap=     0.015 Goal=   None    Shift=    0.000
 Gap=     0.015 Goal=   None    Shift=    0.000
 RMSDP=6.68D-04 MaxDP=8.06D-02 DE= 2.28D-09 OVMax= 1.23D-04

 Cycle  32  Pass 1  IDiag  1:
 RMSU=  4.47D-05    CP:  7.71D-01  1.97D+00  3.00D+00  2.52D+00  1.30D+00
                    CP:  2.68D+00  1.69D+00 -8.61D-01 -1.45D-01  2.18D-02
                    CP:  3.00D+00
 E= -574.557167486009     Delta-E=        0.000000000380 Rises=F Damp=F
 DIIS: error= 9.19D-07 at cycle  32 NSaved=  20.
 NSaved=20 IEnMin=18 EnMin= -574.557167488670     IErMin=17 ErrMin= 8.41D-07
 ErrMax= 9.19D-07  0.00D+00 EMaxC= 1.00D-01 BMatC= 5.87D-10 BMatP= 4.69D-10
 IDIUse=1 WtCom= 1.00D+00 WtEn= 0.00D+00
 Coeff-Com:  0.162D-04 0.522D-04 0.464D-04-0.134D-03-0.943D-04-0.180D-04
 Coeff-Com:  0.243D-04-0.318D-02 0.247D-02-0.128D-03 0.253D-02 0.474D-02
 Coeff-Com: -0.360D-02-0.183D-01-0.202D-01-0.506D-03 0.124D+00-0.404D+00
 Coeff-Com:  0.425D+00 0.891D+00
 Coeff:      0.162D-04 0.522D-04 0.464D-04-0.134D-03-0.943D-04-0.180D-04
 Coeff:      0.243D-04-0.318D-02 0.247D-02-0.128D-03 0.253D-02 0.474D-02
 Coeff:     -0.360D-02-0.183D-01-0.202D-01-0.506D-03 0.124D+00-0.404D+00
 Coeff:      0.425D+00 0.891D+00
 Gap=     0.015 Goal=   None    Shift=    0.000
 Gap=     0.015 Goal=   None    Shift=    0.000
 RMSDP=1.45D-04 MaxDP=2.15D-02 DE= 3.80D-10 OVMax= 3.19D-05

 Cycle  33  Pass 1  IDiag  1:
 RMSU=  2.83D-05    CP:  7.71D-01  1.97D+00  3.00D+00  2.52D+00  1.30D+00
                    CP:  2.70D+00  1.32D+00 -1.74D+00 -2.80D-01  5.24D-02
                    CP:  3.00D+00  1.51D+00
 E= -574.557167486208     Delta-E=       -0.000000000199 Rises=F Damp=F
 DIIS: error= 5.42D-07 at cycle  33 NSaved=  20.
 NSaved=20 IEnMin=17 EnMin= -574.557167488670     IErMin=20 ErrMin= 5.42D-07
 ErrMax= 5.42D-07  0.00D+00 EMaxC= 1.00D-01 BMatC= 2.15D-10 BMatP= 4.69D-10
 IDIUse=1 WtCom= 1.00D+00 WtEn= 0.00D+00
 Coeff-Com:  0.882D-05 0.334D-06 0.269D-04-0.165D-04-0.102D-03-0.327D-04
 Coeff-Com: -0.645D-03 0.651D-03-0.283D-03 0.479D-03 0.203D-02 0.791D-03
 Coeff-Com: -0.359D-02-0.909D-02-0.231D-01-0.490D-01-0.682D-01 0.704D-01
 Coeff-Com:  0.427D+00 0.653D+00
 Coeff:      0.882D-05 0.334D-06 0.269D-04-0.165D-04-0.102D-03-0.327D-04
 Coeff:     -0.645D-03 0.651D-03-0.283D-03 0.479D-03 0.203D-02 0.791D-03
 Coeff:     -0.359D-02-0.909D-02-0.231D-01-0.490D-01-0.682D-01 0.704D-01
 Coeff:      0.427D+00 0.653D+00
 Gap=     0.015 Goal=   None    Shift=    0.000
 Gap=     0.015 Goal=   None    Shift=    0.000
 RMSDP=1.55D-04 MaxDP=2.18D-02 DE=-1.99D-10 OVMax= 2.99D-05

 Cycle  34  Pass 1  IDiag  1:
 RMSU=  1.83D-06    CP:  7.71D-01  1.97D+00  3.00D+00  2.52D+00  1.31D+00
                    CP:  2.70D+00  1.23D+00 -1.97D+00 -3.21D-01  6.15D-02
                    CP:  3.00D+00  1.69D+00  1.33D+00
 E= -574.557167486314     Delta-E=       -0.000000000106 Rises=F Damp=F
 DIIS: error= 5.57D-08 at cycle  34 NSaved=  20.
 NSaved=20 IEnMin=16 EnMin= -574.557167488670     IErMin=20 ErrMin= 5.57D-08
 ErrMax= 5.57D-08  0.00D+00 EMaxC= 1.00D-01 BMatC= 3.18D-12 BMatP= 2.15D-10
 IDIUse=1 WtCom= 1.00D+00 WtEn= 0.00D+00
 Coeff-Com:  0.220D-05 0.153D-04 0.535D-05-0.391D-04-0.941D-05 0.679D-03
 Coeff-Com: -0.600D-03-0.155D-04-0.357D-03-0.321D-03 0.133D-02 0.339D-02
 Coeff-Com:  0.969D-03-0.140D-01-0.878D-01 0.110D+00-0.107D+00-0.448D-02
 Coeff-Com:  0.256D+00 0.842D+00
 Coeff:      0.220D-05 0.153D-04 0.535D-05-0.391D-04-0.941D-05 0.679D-03
 Coeff:     -0.600D-03-0.155D-04-0.357D-03-0.321D-03 0.133D-02 0.339D-02
 Coeff:      0.969D-03-0.140D-01-0.878D-01 0.110D+00-0.107D+00-0.448D-02
 Coeff:      0.256D+00 0.842D+00
 Gap=     0.015 Goal=   None    Shift=    0.000
 Gap=     0.015 Goal=   None    Shift=    0.000
 RMSDP=3.22D-05 MaxDP=3.64D-03 DE=-1.06D-10 OVMax= 5.55D-06

 Cycle  35  Pass 1  IDiag  1:
 RMSU=  1.35D-06    CP:  7.71D-01  1.97D+00  3.00D+00  2.52D+00  1.31D+00
                    CP:  2.70D+00  1.26D+00 -1.98D+00 -3.28D-01  6.19D-02
                    CP:  3.00D+00  1.83D+00  1.45D+00  2.46D+00
 E= -574.557167486344     Delta-E=       -0.000000000030 Rises=F Damp=F
 DIIS: error= 1.72D-07 at cycle  35 NSaved=  20.
 NSaved=20 IEnMin=15 EnMin= -574.557167488670     IErMin=19 ErrMin= 5.57D-08
 ErrMax= 1.72D-07  0.00D+00 EMaxC= 1.00D-01 BMatC= 1.92D-11 BMatP= 3.18D-12
 IDIUse=1 WtCom= 1.00D+00 WtEn= 0.00D+00
 Coeff-Com: -0.367D-05 0.237D-05 0.177D-04 0.686D-05 0.263D-03-0.227D-03
 Coeff-Com:  0.981D-05-0.247D-03-0.614D-03 0.208D-03 0.174D-02 0.267D-02
 Coeff-Com:  0.330D-02-0.168D-01 0.422D-01-0.409D-01-0.727D-01-0.323D-01
 Coeff-Com:  0.283D+00 0.830D+00
 Coeff:     -0.367D-05 0.237D-05 0.177D-04 0.686D-05 0.263D-03-0.227D-03
 Coeff:      0.981D-05-0.247D-03-0.614D-03 0.208D-03 0.174D-02 0.267D-02
 Coeff:      0.330D-02-0.168D-01 0.422D-01-0.409D-01-0.727D-01-0.323D-01
 Coeff:      0.283D+00 0.830D+00
 Gap=     0.015 Goal=   None    Shift=    0.000
 Gap=     0.015 Goal=   None    Shift=    0.000
 RMSDP=1.75D-05 MaxDP=2.16D-03 DE=-3.00D-11 OVMax= 5.23D-06

 Cycle  36  Pass 1  IDiag  1:
 RMSU=  4.09D-07    CP:  7.71D-01  1.97D+00  3.00D+00  2.52D+00  1.31D+00
                    CP:  2.70D+00  1.28D+00 -1.98D+00 -3.29D-01  6.18D-02
                    CP:  3.00D+00  1.88D+00  1.50D+00  3.00D+00  1.53D+00
 E= -574.557167486349     Delta-E=       -0.000000000005 Rises=F Damp=F
 DIIS: error= 1.35D-08 at cycle  36 NSaved=  20.
 NSaved=20 IEnMin=14 EnMin= -574.557167488670     IErMin=20 ErrMin= 1.35D-08
 ErrMax= 1.35D-08  0.00D+00 EMaxC= 1.00D-01 BMatC= 1.77D-13 BMatP= 3.18D-12
 IDIUse=1 WtCom= 1.00D+00 WtEn= 0.00D+00
 Coeff-Com:  0.546D-05 0.523D-05 0.180D-05 0.117D-03-0.140D-03 0.472D-04
 Coeff-Com: -0.381D-04-0.167D-03-0.302D-04 0.378D-03 0.108D-02 0.169D-02
 Coeff-Com:  0.166D-03 0.428D-02-0.149D-02-0.264D-01-0.343D-01-0.220D-01
 Coeff-Com:  0.217D+00 0.860D+00
 Coeff:      0.546D-05 0.523D-05 0.180D-05 0.117D-03-0.140D-03 0.472D-04
 Coeff:     -0.381D-04-0.167D-03-0.302D-04 0.378D-03 0.108D-02 0.169D-02
 Coeff:      0.166D-03 0.428D-02-0.149D-02-0.264D-01-0.343D-01-0.220D-01
 Coeff:      0.217D+00 0.860D+00
 Gap=     0.015 Goal=   None    Shift=    0.000
 Gap=     0.015 Goal=   None    Shift=    0.000
 RMSDP=3.96D-06 MaxDP=3.87D-04 DE=-5.46D-12 OVMax= 9.33D-07

 Cycle  37  Pass 1  IDiag  1:
 RMSU=  2.50D-07    CP:  7.71D-01  1.97D+00  3.00D+00  2.52D+00  1.31D+00
                    CP:  2.70D+00  1.28D+00 -1.98D+00 -3.31D-01  6.19D-02
                    CP:  3.00D+00  1.91D+00  1.52D+00  3.00D+00  1.78D+00
                    CP:  2.43D+00
 E= -574.557167486360     Delta-E=       -0.000000000011 Rises=F Damp=F
 DIIS: error= 2.73D-08 at cycle  37 NSaved=  20.
 NSaved=20 IEnMin=13 EnMin= -574.557167488670     IErMin=19 ErrMin= 1.35D-08
 ErrMax= 2.73D-08  0.00D+00 EMaxC= 1.00D-01 BMatC= 5.54D-13 BMatP= 1.77D-13
 IDIUse=1 WtCom= 1.00D+00 WtEn= 0.00D+00
 Coeff-Com:  0.967D-06 0.656D-06-0.444D-04 0.371D-04 0.744D-05 0.746D-05
 Coeff-Com: -0.256D-04-0.103D-03-0.831D-04 0.445D-03 0.115D-02 0.398D-02
 Coeff-Com: -0.587D-02 0.767D-02-0.276D-02-0.225D-01-0.926D-01-0.453D-01
 Coeff-Com:  0.528D+00 0.628D+00
 Coeff:      0.967D-06 0.656D-06-0.444D-04 0.371D-04 0.744D-05 0.746D-05
 Coeff:     -0.256D-04-0.103D-03-0.831D-04 0.445D-03 0.115D-02 0.398D-02
 Coeff:     -0.587D-02 0.767D-02-0.276D-02-0.225D-01-0.926D-01-0.453D-01
 Coeff:      0.528D+00 0.628D+00
 Gap=     0.015 Goal=   None    Shift=    0.000
 Gap=     0.015 Goal=   None    Shift=    0.000
 RMSDP=2.60D-06 MaxDP=3.38D-04 DE=-1.09D-11 OVMax= 1.01D-06

 Cycle  38  Pass 1  IDiag  1:
 RMSU=  9.44D-08    CP:  7.71D-01  1.97D+00  3.00D+00  2.52D+00  1.31D+00
                    CP:  2.70D+00  1.29D+00 -1.98D+00 -3.31D-01  6.18D-02
                    CP:  3.00D+00  1.92D+00  1.53D+00  3.00D+00  1.92D+00
                    CP:  3.00D+00  1.46D+00
 E= -574.557167486340     Delta-E=        0.000000000020 Rises=F Damp=F
 DIIS: error= 2.15D-09 at cycle  38 NSaved=  20.
 NSaved=20 IEnMin=12 EnMin= -574.557167488670     IErMin=20 ErrMin= 2.15D-09
 ErrMax= 2.15D-09  0.00D+00 EMaxC= 1.00D-01 BMatC= 5.76D-15 BMatP= 1.77D-13
 IDIUse=1 WtCom= 1.00D+00 WtEn= 0.00D+00
 Large coefficients: NSaved= 20 BigCof=    0.00 CofMax=   10.00 Det=-4.74D-15
 Inversion failed.  Reducing to 19 matrices.
 Large coefficients: NSaved= 19 BigCof=    0.00 CofMax=   10.00 Det=-5.45D-15
 Inversion failed.  Reducing to 18 matrices.
 Large coefficients: NSaved= 18 BigCof=    0.00 CofMax=   10.00 Det=-5.97D-15
 Inversion failed.  Reducing to 17 matrices.
 Large coefficients: NSaved= 17 BigCof=    0.00 CofMax=   10.00 Det=-8.03D-15
 Inversion failed.  Reducing to 16 matrices.
 Large coefficients: NSaved= 16 BigCof=    0.00 CofMax=   10.00 Det=-8.05D-15
 Inversion failed.  Reducing to 15 matrices.
 Coeff-Com:  0.667D-05 0.659D-05 0.131D-04-0.264D-04-0.720D-04 0.518D-03
 Coeff-Com: -0.902D-03 0.134D-02 0.189D-03-0.194D-02-0.186D-01-0.285D-01
 Coeff-Com:  0.453D-01 0.150D+00 0.853D+00
 Coeff:      0.667D-05 0.659D-05 0.131D-04-0.264D-04-0.720D-04 0.518D-03
 Coeff:     -0.902D-03 0.134D-02 0.189D-03-0.194D-02-0.186D-01-0.285D-01
 Coeff:      0.453D-01 0.150D+00 0.853D+00
 Gap=     0.015 Goal=   None    Shift=    0.000
 Gap=     0.015 Goal=   None    Shift=    0.000
 RMSDP=1.14D-06 MaxDP=1.21D-04 DE= 2.05D-11 OVMax= 2.25D-07

 Cycle  39  Pass 1  IDiag  1:
 RMSU=  1.78D-08    CP:  7.71D-01  1.97D+00  3.00D+00  2.52D+00  1.31D+00
                    CP:  2.70D+00  1.29D+00 -1.98D+00 -3.31D-01  6.18D-02
                    CP:  3.00D+00  1.93D+00  1.53D+00  3.00D+00  1.95D+00
                    CP:  3.00D+00  1.52D+00  1.67D+00
 E= -574.557167486360     Delta-E=       -0.000000000020 Rises=F Damp=F
 DIIS: error= 2.25D-09 at cycle  39 NSaved=  16.
 NSaved=16 IEnMin= 7 EnMin= -574.557167488670     IErMin=15 ErrMin= 2.15D-09
 ErrMax= 2.25D-09  0.00D+00 EMaxC= 1.00D-01 BMatC= 4.52D-15 BMatP= 5.76D-15
 IDIUse=1 WtCom= 1.00D+00 WtEn= 0.00D+00
 Large coefficients: NSaved= 16 BigCof=    0.00 CofMax=   10.00 Det=-6.90D-16
 Inversion failed.  Reducing to 15 matrices.
 Coeff-Com:  0.455D-05 0.609D-05-0.225D-04-0.186D-04 0.978D-06 0.747D-04
 Coeff-Com:  0.785D-04-0.620D-04 0.263D-03-0.293D-02-0.737D-02-0.630D-02
 Coeff-Com:  0.368D-01 0.433D+00 0.547D+00
 Coeff:      0.455D-05 0.609D-05-0.225D-04-0.186D-04 0.978D-06 0.747D-04
 Coeff:      0.785D-04-0.620D-04 0.263D-03-0.293D-02-0.737D-02-0.630D-02
 Coeff:      0.368D-01 0.433D+00 0.547D+00
 Gap=     0.015 Goal=   None    Shift=    0.000
 Gap=     0.015 Goal=   None    Shift=    0.000
 RMSDP=5.38D-07 MaxDP=7.71D-05 DE=-1.96D-11 OVMax= 9.85D-08

 Cycle  40  Pass 1  IDiag  1:
 RMSU=  4.59D-09    CP:  7.71D-01  1.97D+00  3.00D+00  2.52D+00  1.31D+00
                    CP:  2.70D+00  1.29D+00 -1.98D+00 -3.31D-01  6.18D-02
                    CP:  3.00D+00  1.93D+00  1.53D+00  3.00D+00  1.96D+00
                    CP:  3.00D+00  1.51D+00  1.67D+00  1.20D+00
 E= -574.557167486342     Delta-E=        0.000000000018 Rises=F Damp=F
 DIIS: error= 4.27D-10 at cycle  40 NSaved=  16.
 NSaved=16 IEnMin= 6 EnMin= -574.557167488670     IErMin=16 ErrMin= 4.27D-10
 ErrMax= 4.27D-10  0.00D+00 EMaxC= 1.00D-01 BMatC= 1.69D-16 BMatP= 4.52D-15
 IDIUse=1 WtCom= 1.00D+00 WtEn= 0.00D+00
 Large coefficients: NSaved= 16 BigCof=    0.00 CofMax=   10.00 Det=-2.22D-16
 Inversion failed.  Reducing to 15 matrices.
 Coeff-Com: -0.183D-05-0.153D-04-0.165D-04-0.188D-03 0.295D-03-0.284D-03
 Coeff-Com:  0.107D-03 0.571D-03 0.231D-02 0.112D-02-0.215D-01-0.116D-01
 Coeff-Com:  0.113D+00 0.347D+00 0.569D+00
 Coeff:     -0.183D-05-0.153D-04-0.165D-04-0.188D-03 0.295D-03-0.284D-03
 Coeff:      0.107D-03 0.571D-03 0.231D-02 0.112D-02-0.215D-01-0.116D-01
 Coeff:      0.113D+00 0.347D+00 0.569D+00
 Gap=     0.015 Goal=   None    Shift=    0.000
 Gap=     0.015 Goal=   None    Shift=    0.000
 RMSDP=1.63D-07 MaxDP=2.13D-05 DE= 1.80D-11 OVMax= 2.53D-08

 Cycle  41  Pass 1  IDiag  1:
 Restarting incremental Fock formation.
 E= -574.557167486351     Delta-E=       -0.000000000010 Rises=F Damp=F
 DIIS: error= 1.88D-09 at cycle  41 NSaved=  16.
 NSaved=16 IEnMin= 5 EnMin= -574.557167488670     IErMin=15 ErrMin= 4.27D-10
 ErrMax= 1.88D-09  0.00D+00 EMaxC= 1.00D-01 BMatC= 1.65D-16 BMatP= 1.69D-16
 IDIUse=1 WtCom= 1.00D+00 WtEn= 0.00D+00
 Large coefficients: NSaved= 16 BigCof=    0.00 CofMax=   10.00 Det=-9.05D-17
 Inversion failed.  Reducing to 15 matrices.
 Coeff-Com: -0.130D-04-0.162D-04-0.181D-03 0.274D-03-0.269D-03 0.127D-03
 Coeff-Com:  0.583D-03 0.226D-02 0.102D-02-0.211D-01-0.122D-01 0.995D-01
 Coeff-Com:  0.320D+00 0.545D+00 0.651D-01
 Coeff:     -0.130D-04-0.162D-04-0.181D-03 0.274D-03-0.269D-03 0.127D-03
 Coeff:      0.583D-03 0.226D-02 0.102D-02-0.211D-01-0.122D-01 0.995D-01
 Coeff:      0.320D+00 0.545D+00 0.651D-01
 Gap=     0.015 Goal=   None    Shift=    0.000
 Gap=     0.015 Goal=   None    Shift=    0.000
 RMSDP=6.90D-08 MaxDP=7.10D-06 DE=-9.78D-12 OVMax= 3.60D-09

 Cycle  42  Pass 1  IDiag  1:
 RMSU=  5.71D-08    CP:  1.00D+00
 E= -574.557167486361     Delta-E=       -0.000000000010 Rises=F Damp=F
 DIIS: error= 1.77D-09 at cycle  42 NSaved=  16.
 NSaved=16 IEnMin= 4 EnMin= -574.557167488670     IErMin=14 ErrMin= 4.27D-10
 ErrMax= 1.77D-09  0.00D+00 EMaxC= 1.00D-01 BMatC= 1.38D-16 BMatP= 1.65D-16
 IDIUse=1 WtCom= 1.00D+00 WtEn= 0.00D+00
 Large coefficients: NSaved= 16 BigCof=    0.00 CofMax=   10.00 Det=-9.84D-19
 Inversion failed.  Reducing to 15 matrices.
 Coeff-Com: -0.954D-05-0.161D-03 0.206D-03-0.195D-03 0.209D-03 0.559D-03
 Coeff-Com:  0.161D-02 0.108D-03-0.180D-01-0.103D-01 0.988D-01 0.307D+00
 Coeff-Com:  0.529D+00-0.229D+00 0.320D+00
 Coeff:     -0.954D-05-0.161D-03 0.206D-03-0.195D-03 0.209D-03 0.559D-03
 Coeff:      0.161D-02 0.108D-03-0.180D-01-0.103D-01 0.988D-01 0.307D+00
 Coeff:      0.529D+00-0.229D+00 0.320D+00
 Gap=     0.015 Goal=   None    Shift=    0.000
 Gap=     0.015 Goal=   None    Shift=    0.000
 RMSDP=4.04D-08 MaxDP=3.93D-06 DE=-9.55D-12 OVMax= 5.33D-09

 Cycle  43  Pass 1  IDiag  1:
 RMSU=  1.04D-08    CP:  1.00D+00  1.45D+00
 E= -574.557167486334     Delta-E=        0.000000000027 Rises=F Damp=F
 DIIS: error= 1.71D-09 at cycle  43 NSaved=  16.
 NSaved=16 IEnMin= 3 EnMin= -574.557167488670     IErMin=13 ErrMin= 4.27D-10
 ErrMax= 1.71D-09  0.00D+00 EMaxC= 1.00D-01 BMatC= 1.33D-16 BMatP= 1.38D-16
 IDIUse=1 WtCom= 1.00D+00 WtEn= 0.00D+00
 Large coefficients: NSaved= 16 BigCof=    0.00 CofMax=   10.00 Det=-6.40D-19
 Inversion failed.  Reducing to 15 matrices.
 Coeff-Com: -0.157D-03 0.203D-03-0.193D-03 0.220D-03 0.556D-03 0.136D-02
 Coeff-Com: -0.368D-03-0.171D-01-0.931D-02 0.104D+00 0.294D+00 0.503D+00
 Coeff-Com: -0.549D+00 0.178D+00 0.495D+00
 Coeff:     -0.157D-03 0.203D-03-0.193D-03 0.220D-03 0.556D-03 0.136D-02
 Coeff:     -0.368D-03-0.171D-01-0.931D-02 0.104D+00 0.294D+00 0.503D+00
 Coeff:     -0.549D+00 0.178D+00 0.495D+00
 Gap=     0.015 Goal=   None    Shift=    0.000
 Gap=     0.015 Goal=   None    Shift=    0.000
 RMSDP=3.16D-08 MaxDP=3.16D-06 DE= 2.73D-11 OVMax= 1.98D-09

 Cycle  44  Pass 1  IDiag  1:
 RMSU=  4.01D-09    CP:  1.00D+00  1.97D+00  1.03D+00
 E= -574.557167486309     Delta-E=        0.000000000025 Rises=F Damp=F
 DIIS: error= 1.66D-09 at cycle  44 NSaved=  16.
 NSaved=16 IEnMin= 2 EnMin= -574.557167488670     IErMin=12 ErrMin= 4.27D-10
 ErrMax= 1.66D-09  0.00D+00 EMaxC= 1.00D-01 BMatC= 1.23D-16 BMatP= 1.33D-16
 IDIUse=1 WtCom= 1.00D+00 WtEn= 0.00D+00
 Large coefficients: NSaved= 16 BigCof=    0.00 CofMax=   10.00 Det=-6.20D-19
 Inversion failed.  Reducing to 15 matrices.
 Coeff-Com: -0.176D-03 0.255D-03-0.220D-03 0.557D-03 0.108D-02-0.167D-02
 Coeff-Com: -0.148D-01-0.865D-02 0.113D+00 0.249D+00 0.442D+00-0.945D+00
 Coeff-Com: -0.517D+00 0.367D+00 0.131D+01
 Coeff:     -0.176D-03 0.255D-03-0.220D-03 0.557D-03 0.108D-02-0.167D-02
 Coeff:     -0.148D-01-0.865D-02 0.113D+00 0.249D+00 0.442D+00-0.945D+00
 Coeff:     -0.517D+00 0.367D+00 0.131D+01
 Gap=     0.015 Goal=   None    Shift=    0.000
 Gap=     0.015 Goal=   None    Shift=    0.000
 RMSDP=1.23D-07 MaxDP=1.25D-05 DE= 2.46D-11 OVMax= 6.92D-09

 Cycle  45  Pass 1  IDiag  1:
 RMSU=  3.60D-08    CP:  1.00D+00  3.00D+00  7.25D-01 -3.61D-01
 E= -574.557167486359     Delta-E=       -0.000000000050 Rises=F Damp=F
 DIIS: error= 1.46D-09 at cycle  45 NSaved=  16.
 NSaved=16 IEnMin= 2 EnMin= -574.557167488670     IErMin=11 ErrMin= 4.27D-10
 ErrMax= 1.46D-09  0.00D+00 EMaxC= 1.00D-01 BMatC= 1.22D-16 BMatP= 1.23D-16
 IDIUse=1 WtCom= 1.00D+00 WtEn= 0.00D+00
 Large coefficients: NSaved= 16 BigCof=    0.00 CofMax=   10.00 Det=-5.79D-19
 Inversion failed.  Reducing to 15 matrices.
 Coeff-Com: -0.920D-04 0.118D-03-0.196D-04-0.657D-03-0.333D-02-0.450D-02
 Coeff-Com: -0.196D-03 0.126D+00 0.178D+00 0.344D+00-0.115D+01-0.897D+00
 Coeff-Com:  0.273D+00 0.118D+01 0.960D+00
 Coeff:     -0.920D-04 0.118D-03-0.196D-04-0.657D-03-0.333D-02-0.450D-02
 Coeff:     -0.196D-03 0.126D+00 0.178D+00 0.344D+00-0.115D+01-0.897D+00
 Coeff:      0.273D+00 0.118D+01 0.960D+00
 Gap=     0.015 Goal=   None    Shift=    0.000
 Gap=     0.015 Goal=   None    Shift=    0.000
 RMSDP=1.31D-07 MaxDP=1.18D-05 DE=-5.00D-11 OVMax= 1.82D-08

 Cycle  46  Pass 1  IDiag  1:
 RMSU=  5.83D-08    CP:  1.00D+00  3.00D+00 -1.92D+00  3.00D+00  3.00D+00
 E= -574.557167486369     Delta-E=       -0.000000000010 Rises=F Damp=F
 DIIS: error= 1.20D-09 at cycle  46 NSaved=  16.
 NSaved=16 IEnMin= 2 EnMin= -574.557167488670     IErMin=10 ErrMin= 4.27D-10
 ErrMax= 1.20D-09  0.00D+00 EMaxC= 1.00D-01 BMatC= 7.51D-17 BMatP= 1.22D-16
 IDIUse=1 WtCom= 1.00D+00 WtEn= 0.00D+00
 Large coefficients: NSaved= 16 BigCof=    0.00 CofMax=   10.00 Det=-5.64D-19
 Inversion failed.  Reducing to 15 matrices.
 Coeff-Com: -0.131D-03 0.871D-04 0.709D-05 0.406D-03-0.201D-02 0.271D-02
 Coeff-Com:  0.104D-02 0.788D-01 0.728D-01 0.191D+00-0.685D+00-0.740D+00
 Coeff-Com: -0.316D+00 0.129D+01 0.111D+01
[...]
 00278200,-0.02494618,0.00916842,0.01497985,0.00844680,-0.10386231,0.02
 442197,-0.09104375,0.49359833,0.00385742,0.00458176,-0.00261352,-0.000
 62597,-0.00349434,0.00522693,0.00303767,0.00832873,-0.01050097,-0.0246
 4837,0.00771929,0.01928371,0.02191758,0.00739713,-0.10051207,0.0217244
 5,-0.01844982,0.00555153,0.02122053,-0.01272149,-0.01052929,0.00285176
 ,0.03407652,-0.02979702,0.08916799,0.00641101,-0.15299572,-0.13759193,
 -0.20310853,0.47498879,-0.00075352,0.00037831,-0.00036357,0.00125992,-
 0.00424088,0.00282384,-0.00108245,0.00199115,-0.00245736,0.00624017,-0
 .02335452,0.02735671,-0.00598832,0.00814441,0.00123897,0.00088605,-0.0
 0190745,0.00097509,-0.07553200,0.01498027,0.00195492,0.00598677,0.0388
 0100,-0.02433433,-0.00420383,-0.00281216,0.01010683,0.00586258,-0.0021
 0419,-0.00466253,0.06600321,0.00995508,-0.00848638,-0.00434311,-0.0043
 0247,0.00349481,0.00148284,0.00023730,-0.00018454,-0.00099076,-0.02140
 830,-0.00087705,0.03448471,0.00272556,-0.00122556,-0.00001172,-0.00011
 068,-0.00012183,0.00056387,0.01271797,-0.25637328,0.16288034,0.0291348
 3,-0.05402396,0.03622262,0.00631183,0.00694162,-0.00805230,-0.00661101
 ,0.00237673,0.00244767,-0.02491733,0.30797782,-0.00917917,0.00596415,0
 .00282424,0.00260944,0.00061845,-0.00370295,0.00072199,-0.00186441,0.0
 0251704,0.02481609,0.03336047,-0.04059002,0.00545276,-0.00317017,0.001
 57622,-0.00076414,0.00216671,-0.00105800,0.00479706,0.16130895,-0.2032
 0044,-0.01598589,0.02689650,0.00694377,0.00269696,0.00060506,0.0023854
 9,-0.00064948,-0.00164349,0.00097477,-0.01196104,-0.22373102,0.2353009
 9,0.00052931,0.00177358,-0.00146324,-0.00019018,-0.00197779,0.00183653
 ,0.00019569,0.00394620,-0.00366777,-0.00572627,-0.00092252,0.00757561,
 0.00203455,0.03424577,-0.01891217,0.00038025,-0.00122174,-0.00078182,0
 .00571786,-0.00427217,-0.00244136,-0.00461034,0.01016362,-0.00074292,0
 .00989641,-0.02858790,0.03109087,-0.07510891,0.01427250,0.00274350,-0.
 00057932,0.00143689,-0.00063020,0.06606899,0.00067179,-0.00166099,0.00
 174673,-0.00187631,0.00331129,-0.00100685,0.00357267,-0.00544749,-0.00
 199398,0.00419238,0.00278426,-0.00330310,0.03358744,-0.04793305,0.0250
 2805,-0.01121586,0.00155076,0.00798564,-0.00020130,-0.00006702,-0.0025
 5419,0.00080771,0.00444358,-0.00017823,-0.01883928,-0.00751461,0.03831
 455,0.01670132,-0.25579937,0.16035648,-0.00033664,-0.00125890,0.001916
 60,-0.02727512,0.30795545,-0.00098386,0.00021939,-0.00000150,0.0016179
 9,-0.00158105,-0.00122583,-0.00366049,0.00149947,0.00507645,0.00423968
 ,0.00086307,-0.00083179,-0.01903009,0.02427164,0.00893115,0.00821635,-
 0.00221935,-0.00809768,-0.00605590,0.00233641,0.00319050,0.00732797,-0
 .00840058,0.00519210,0.02224859,0.04645092,-0.04434004,0.00097670,0.16
 191671,-0.20236514,0.00091247,0.00023258,-0.00130561,-0.00989730,-0.22
 291327,0.23387320,-0.04991045,0.00900870,0.00344381,0.00366713,-0.0167
 6812,0.01416595,-0.00006211,0.00241023,0.00526847,0.00470440,0.0180482
 0,-0.01593428,-0.00196091,0.00378601,0.00283842,-0.00108820,0.00011792
 ,0.00009294,-0.00182043,0.00227065,-0.00268198,0.00090409,-0.00148110,
 0.00041358,0.00014428,0.00044682,-0.00057903,0.00025532,0.00045570,-0.
 00100244,0.00100895,-0.00299279,0.00083497,-0.00034280,0.00047575,0.00
 001440,0.04526923,0.00994706,-0.20412038,0.13992326,0.00189760,0.00161
 862,-0.00073204,0.00177064,0.00401088,0.00218273,0.00135017,-0.0144219
 1,0.01573255,0.00478782,0.00049280,0.00022302,0.00031054,-0.00013922,-
 0.00101004,-0.00152472,-0.00345755,0.00178085,-0.00020628,0.00045436,-
 0.00023129,0.00015197,-0.00022944,0.00000857,-0.00080002,-0.00054419,0
 .00089287,-0.00235411,0.00227194,-0.00080241,0.00043566,-0.00028459,-0
 .00010513,-0.01347187,0.21524918,0.00250411,0.14070280,-0.16422912,-0.
 00218945,0.01597922,-0.01006444,0.00598297,0.00132202,0.00196192,-0.00
 114598,0.00074920,0.00480692,0.00217502,0.00093486,0.00245532,-0.00033
 527,-0.00072975,0.00008333,0.00048444,-0.00136333,-0.00192709,-0.00057
 618,0.00083183,-0.00020050,-0.00027826,-0.00017260,0.00037354,0.000046
 12,-0.00020259,-0.00030455,0.00031003,-0.00033729,-0.00106035,0.000015
 86,-0.00010941,0.00018624,-0.00496207,-0.15609310,0.16999882,-0.014701
 80,0.01675384,-0.00107525,-0.18185491,0.13817354,0.02077886,-0.0007457
 7,-0.00064567,0.00176791,0.00161139,-0.00015054,0.00547314,0.00019512,
 -0.00053503,0.00060267,0.00239526,0.00054850,0.00021361,0.00000073,0.0
 0111406,-0.00036504,-0.00120370,-0.00014856,-0.00015938,-0.00022151,-0
 .00026094,0.00063175,0.00024226,-0.00011065,-0.00076763,0.00001118,0.0
 0039216,0.00013569,-0.00026559,-0.00033261,0.00032017,-0.00076490,-0.0
 0232125,-0.00189171,0.19440942,-0.00274334,0.00321335,0.00105889,0.136
 30767,-0.16905333,0.00012428,0.01922949,-0.01209655,-0.00431713,0.0009
 8439,0.00290514,0.00297355,-0.00143290,0.00108333,-0.00007175,-0.00004
 063,-0.00165706,0.00551951,0.00032760,0.00042666,0.00002150,0.00013136
 ,-0.00055842,-0.00035104,0.00049004,0.00011955,-0.00029292,-0.00004152
 ,-0.00106577,0.00011711,0.00014605,-0.00053149,0.00057078,0.00021921,0
 .00075370,-0.00084065,-0.00151096,-0.00074659,-0.00224804,-0.15169170,
 0.17753516,0.01598048,-0.01745239,0.00171776,0.02074194,0.00072186,-0.
 04709678,-0.01533845,0.01216736,0.00431991,0.00534136,0.00384639,-0.00
 056919,0.00011617,0.00018726,-0.00062405,0.00193177,0.00455268,-0.0011
 6078,0.00034472,-0.00102576,0.00138267,-0.00018042,-0.00037196,-0.0006
 2683,0.00005271,0.00005841,0.00013303,-0.00029960,-0.00013823,-0.00055
 403,0.00006872,0.00054824,-0.00018818,-0.00014212,-0.00027614,0.000317
 72,-0.00250370,-0.00161117,-0.00118933,-0.02454644,-0.00061901,0.04415
 154,-0.00055889,-0.00102453,0.00087575,-0.00065694,-0.00002247,-0.0000
 6373,-0.00009333,0.00036397,-0.00025639,-0.00199986,0.00630483,0.00087
 985,-0.00007439,0.00066434,-0.00085417,0.00000837,-0.00034973,-0.00015
 407,-0.01282437,-0.00598218,0.02153119,-0.17836962,-0.00419791,0.13664
 680,0.00171177,0.00150028,-0.00202063,0.00386766,0.00157602,0.00077848
 ,0.00175781,-0.00209320,-0.00363130,-0.00036374,-0.00005953,0.00015097
 ,0.00002695,0.00013295,0.00000874,-0.00008971,0.00000331,0.00018899,0.
 18778420,0.00026580,0.00032491,-0.00101908,0.00003006,-0.00028199,-0.0
 0046914,0.00008353,-0.00014914,0.00037640,0.00438939,-0.00152524,0.001
 71574,-0.00013728,-0.00056291,0.00020592,-0.00022102,0.00003162,-0.000
 23343,0.01564043,0.00608629,-0.01407958,-0.00573220,-0.04830092,0.0225
 1316,-0.01833344,0.00098116,0.01626117,0.00349694,-0.00104318,0.003384
 68,-0.00313124,0.00040271,-0.00136427,-0.00087864,-0.00045381,0.000926
 08,0.00004117,0.00003875,0.00006419,0.00017926,-0.00003018,-0.00004382
 ,0.00524862,0.04491582,-0.00023130,0.00011189,-0.00038777,-0.00020296,
 -0.00028411,-0.00034916,0.00010751,-0.00009595,0.00015181,0.00249933,0
 .00027363,0.00253651,-0.00022690,-0.00051206,0.00027198,-0.00022804,-0
 .00012017,-0.00019268,0.00270436,0.00482834,-0.00099083,0.13776031,0.0
 2141320,-0.16842626,0.01534733,-0.00143906,-0.01124609,-0.00081286,0.0
 0512790,0.00263579,-0.00263576,-0.00230535,0.00000417,0.00082806,0.000
 17498,-0.00120165,0.00009760,-0.00001569,0.00009015,0.00011256,0.00003
 064,-0.00001412,-0.15296194,-0.02624677,0.17799577,-0.00014272,-0.0000
 8796,-0.00038551,0.00012129,-0.00019913,0.00031953,-0.00071937,-0.0001
 0234,0.00005806,0.00016981,-0.00090266,0.00045614,-0.00185625,-0.00029
 720,0.00631804,-0.00052781,0.00102692,-0.00096482,0.00395089,0.0007059
 6,0.00154930,0.00068442,-0.00132265,0.00152587,-0.18889165,0.13470619,
 0.02265919,-0.01332275,0.02104853,-0.00182336,-0.00042979,0.00027300,-
 0.00014754,0.00182400,-0.00316659,-0.00260910,-0.00000705,0.00003997,0
 .00001597,0.00005201,0.00002574,0.00006082,-0.00010542,-0.00099515,-0.
 00232158,0.19938599,-0.00019449,-0.00017592,-0.00019806,0.00004682,0.0
 0024484,0.00004386,-0.00018304,-0.00041209,-0.00030593,-0.00012251,0.0
 0037148,-0.00036308,0.00159957,0.00200691,0.00101799,-0.00034631,-0.00
 011934,-0.00002756,-0.00113785,0.00098125,0.00576102,0.01868539,-0.012
 73447,-0.00431349,0.13584890,-0.16074202,-0.00305808,-0.00039356,0.001
 84898,0.00387964,0.00103920,-0.00128621,-0.00009266,-0.00213918,0.0002
 1791,-0.00214208,0.00000428,0.00001637,0.00002470,0.00006817,0.0000578
 8,0.00002529,-0.00213648,-0.00049703,-0.00097831,-0.15088049,0.1701645
 8,-0.00035689,-0.00031305,-0.00010466,0.00007848,0.00044410,-0.0001344
 3,-0.00000688,-0.00062442,-0.00039751,0.00006344,0.00057073,-0.0004944
 6,0.00462613,0.00242506,-0.00156520,0.00023704,-0.00106737,0.00012593,
 0.00284646,0.00382635,0.00042625,-0.01589350,0.01307893,0.00365856,0.0
 2141130,-0.00166935,-0.04582782,0.01713662,-0.01483158,0.00396881,-0.0
 0071582,0.00078204,-0.00034708,-0.00352114,-0.00147798,0.00007272,0.00
 005402,0.00000274,0.00000134,0.00008735,0.00001404,0.00006750,-0.00131
 849,-0.00196486,-0.00087534,-0.02498018,0.00074933,0.04135211,0.003006
 72,0.00131232,-0.00313996,-0.00056946,-0.00511183,0.00560990,-0.132755
 04,0.00169854,0.05809469,-0.00274707,0.00102506,0.00446628,0.00352837,
 0.00446406,-0.00191480,-0.02099563,0.00132839,0.02323576,0.00450060,-0
 .00310275,-0.00242726,-0.00119001,0.00351125,-0.00159869,-0.00232515,-
 0.00143398,0.00195288,0.00187294,0.00074392,-0.00171205,-0.00113487,0.
 00080066,-0.00005256,-0.00069679,-0.00093338,0.00189395,0.00049039,0.0
 0033764,-0.00001576,0.00013358,0.00028328,-0.00105478,0.00003733,0.000
 14010,0.00003398,-0.00003277,-0.00001192,0.00018447,0.47313285,0.00225
 921,-0.00345018,0.00276695,-0.01921997,0.00111534,0.02019475,-0.001410
 76,-0.08439550,0.01172130,0.00030713,0.00073804,0.00160512,0.00594419,
 -0.00175629,0.00156308,0.01356162,0.00591411,-0.01380624,0.00080212,-0
 .00162276,-0.00050044,-0.00013374,0.00127511,-0.00062376,-0.00115666,-
 0.00079572,0.00010606,0.00057962,0.00255017,-0.00105666,-0.00045571,0.
 00090261,-0.00049308,-0.00017088,-0.00112322,0.00133706,-0.00052891,0.
 00011073,0.00080944,-0.00117207,0.00047500,-0.00073573,0.00004740,0.00
 008455,-0.00001255,0.00022392,-0.00001580,0.00000673,-0.01476258,0.549
 35773,-0.00264193,0.00388485,0.00117698,0.01956836,0.00497979,-0.01940
 217,0.06290821,0.00790661,-0.14033678,0.00267837,0.00094679,0.00011169
 ,0.00136601,0.00084724,0.00326522,0.00847766,0.00081442,-0.00069067,-0
 .00150196,-0.00154221,0.00067569,-0.00005054,0.00051943,0.00025145,-0.
 00052668,-0.00019678,-0.00035776,0.00014026,0.00037390,0.00066997,0.00
 016777,0.00095183,-0.00098593,0.00015218,-0.00030199,0.00051591,0.0006
 8517,0.00010796,-0.00024901,-0.00041938,-0.00183991,0.00005740,0.00007
 864,0.00001224,-0.00003857,-0.00000819,-0.00007403,0.00000720,0.025078
 66,-0.01192894,0.50158875,-0.00064179,-0.00034908,-0.00008841,-0.00084
 042,0.00446861,0.00304823,0.00152167,0.01741376,-0.01303166,-0.0018597
 9,0.00248172,0.00470441,0.00572453,-0.01801003,0.01385155,-0.04957714,
 0.01478577,-0.00112858,0.00026927,-0.00070845,-0.00010109,0.00040469,-
 0.00081917,0.00036178,0.00100419,0.00098480,-0.00159897,-0.00203388,-0
 .00313208,0.00203741,-0.00026577,-0.00044493,0.00072569,0.00070972,0.0
 0156903,-0.00302253,-0.00020468,-0.00032301,-0.00028678,0.00026739,0.0
 0098844,-0.00050900,-0.00003830,0.00003222,0.00002121,-0.00000159,0.00
 010108,0.00004641,-0.00043160,-0.00079447,-0.00301001,0.04595349,-0.00
 009497,-0.00004362,-0.00074583,0.00479757,0.00122771,0.00059200,-0.000
 33720,-0.01242142,0.01386393,0.00137024,0.00299475,0.00108728,-0.00063
 847,0.00026189,0.00429506,0.01432782,-0.21189333,0.13760278,0.00037011
 ,-0.00058476,0.00008609,-0.00045481,0.00063555,-0.00012170,-0.00072726
 ,-0.00034259,0.00089950,0.00032364,-0.00174127,-0.00166308,-0.00013682
 ,0.00047901,-0.00035811,0.00076554,-0.00119107,-0.00036030,-0.00024924
 ,-0.00028384,-0.00022804,0.00022405,-0.00047920,0.00076054,0.00003218,
 0.00001371,0.00000321,-0.00000265,0.00003662,0.00006391,-0.00271152,-0
 .00090298,-0.00083032,-0.01740702,0.22316328,0.00048319,-0.00103418,-0
 .00074900,0.00246428,0.00101438,0.00416453,0.00198977,-0.00175088,0.00
 245531,0.00491309,0.00085165,0.00080255,-0.00057291,0.01864366,-0.0122
 2757,-0.00097490,0.13776698,-0.15399041,-0.00097036,0.00102145,-0.0008
 1345,0.00028624,-0.00002935,-0.00022046,-0.00025132,-0.00022791,0.0003
 2415,-0.00148659,0.00216455,-0.00291003,0.00051639,-0.00024494,-0.0000
 2128,-0.00226410,-0.00129712,0.00185438,-0.00034550,-0.00019629,-0.000
 39048,0.00043848,0.00001001,0.00048363,0.00002600,-0.00001380,0.000033
 02,0.00014388,0.00004626,0.00007318,-0.00163607,-0.00261414,-0.0009086
 8,-0.00252250,-0.15371040,0.16153733,-0.00153786,0.00058938,0.00214134
 ,0.00202843,0.00357427,-0.00278510,-0.02420138,0.00099810,-0.00157414,
 0.00325405,0.00085220,-0.00289587,-0.00135323,0.00046759,0.00313013,0.
 00092302,-0.00393142,-0.00079560,-0.00403570,0.00102051,0.00206254,0.0
 0039580,-0.00187154,0.00139353,0.00086462,0.00045801,-0.00155945,-0.00
 072765,-0.00126427,0.00195375,0.00081601,0.00007851,-0.00072589,0.0004
 4379,0.00077420,-0.00081119,-0.00004003,-0.00003825,-0.00003098,-0.000
 00197,-0.00116649,-0.00029086,0.00008103,-0.00004885,0.00002193,-0.000
 00905,0.00003909,0.00004026,-0.23154253,-0.00846102,-0.08965624,-0.000
 19215,-0.00057220,-0.00028970,0.26104889,0.00014323,0.00019529,-0.0002
 6909,-0.00058032,0.00030401,0.00039959,-0.00083297,0.00008470,-0.00045
 104,0.00048483,0.00052792,-0.00025711,-0.00091212,-0.00044846,0.000037
 11,0.00131710,-0.00034385,-0.00059383,-0.00013419,-0.00039476,0.000416
 40,-0.00031497,0.00035611,0.00009727,-0.00005476,-0.00023862,0.0002150
 4,0.00059735,-0.00038493,0.00013572,-0.00003946,0.00047401,-0.00045655
 ,-0.00001960,0.00009337,-0.00007008,0.00006780,0.00004621,0.00002076,-
 0.00001165,-0.00021438,-0.00008288,-0.00000402,-0.00001935,-0.00005241
 ,-0.00001387,-0.00002659,0.00000789,-0.00904851,-0.04683032,-0.0027330
 4,0.00004166,0.00043968,0.00007359,0.00927122,0.04503781,0.00016023,-0
 .00060915,0.00029369,-0.00064872,-0.00024196,0.00026740,0.02374183,0.0
 0141993,0.01209013,0.00011556,-0.00031660,-0.00128355,0.00045680,-0.00
 117502,-0.00056674,0.00094487,0.00108706,-0.00116627,-0.00046567,0.000
 52289,0.00065819,0.00014975,-0.00046630,0.00010616,0.00007663,0.000169
 94,-0.00020811,-0.00088618,0.00073047,-0.00010522,0.00016323,0.0001454
 7,-0.00027221,0.00022314,-0.00059609,0.00024268,-0.00009582,-0.0000162
 4,-0.00004629,-0.00025122,0.00031253,0.00015344,0.00004482,0.00000926,
 -0.00003046,0.00010530,-0.00000230,0.00000578,-0.08579827,-0.00279043,
 -0.08413285,0.00014620,-0.00010249,0.00020524,0.09457936,0.00452744,0.
 09151304,0.00032741,-0.00055372,0.00063253,-0.00253300,0.00101827,0.00
 317712,0.00248678,-0.01964551,0.01222694,0.00033052,-0.00004204,0.0007
 8944,-0.00086503,0.00098483,0.00015513,0.00112686,-0.00193583,-0.00065
 772,-0.00048460,0.00027459,-0.00031199,0.00031176,-0.00044792,0.000256
 33,0.00052655,0.00019109,-0.00063511,0.00037600,-0.00137710,0.00084765
 ,0.00006554,-0.00058434,0.00046561,0.00006338,0.00130236,-0.00115329,-
 0.00023289,-0.00007071,0.00015560,-0.00003166,-0.00046246,-0.00021707,
 -0.00005641,-0.00004582,0.00004309,-0.00006223,0.00007101,-0.00000364,
 -0.05023152,0.02836104,-0.01975698,-0.00023138,0.00074266,-0.00038259,
 -0.00324377,0.02430573,-0.01502610,0.05292684,0.00021899,-0.00032959,-
 0.00012962,-0.00079263,0.00180168,0.00034458,0.00030858,-0.00291202,0.
 00148909,0.00091100,0.00094869,-0.00040439,-0.00029885,-0.00050831,0.0
 0043903,0.00129756,0.00053532,-0.00161189,-0.00060559,-0.00056551,0.00
 055664,-0.00032248,0.00033278,0.00009377,-0.00008375,-0.00001744,0.000
 27286,-0.00004554,-0.00013069,-0.00029226,0.00004599,0.00067461,-0.000
 60505,0.00004817,-0.00033355,0.00037977,-0.00010113,-0.00002855,0.0000
 3814,-0.00020992,0.00003980,-0.00042823,0.00003702,0.00001328,-0.00002
 554,-0.00000156,-0.00004987,0.00001056,0.02642783,-0.21938871,0.116198
 87,-0.00031033,0.00035212,0.00000049,-0.00014720,0.00270174,-0.0019926
 9,-0.03037573,0.23801685,-0.00038512,0.00150734,-0.00000281,0.00481992
 ,-0.00046073,-0.00183304,-0.00397560,0.01919533,-0.01272873,0.00053614
 ,0.00029064,0.00020896,0.00066883,-0.00050616,0.00006522,-0.00327171,0
 .00043803,0.00006358,-0.00035920,-0.00068610,0.00033421,-0.00016128,0.
 00044976,-0.00009182,-0.00019320,-0.00018239,0.00038473,0.00012720,0.0
 0047970,-0.00079323,0.00012961,0.00048026,-0.00048454,-0.00006933,-0.0
 0065654,0.00085516,0.00016266,-0.00006415,-0.00036905,-0.00043076,-0.0
 0030280,-0.00018129,0.00004423,-0.00001232,-0.00005214,0.00004222,-0.0
 0004360,0.00003033,-0.01787197,0.11500542,-0.12485445,0.00059467,-0.00
 101525,0.00039210,-0.00183576,0.01068702,-0.00775395,0.01814403,-0.128
 99041,0.13503519,-0.00096287,0.00018920,0.00039335,0.00063835,0.000220
 74,-0.00209845,-0.00142505,0.02079461,0.01686845,-0.00007812,-0.000605
 48,-0.00042996,-0.00184921,-0.00005476,-0.00050976,-0.00033771,-0.0008
 7366,0.00234364,-0.00025794,0.00079696,-0.00002064,0.00023059,-0.00070
 064,0.00030334,0.00046548,0.00035750,-0.00037576,-0.00030762,-0.000728
 01,0.00069608,0.00007168,-0.00059875,0.00047095,0.00001999,0.00058197,
 -0.00069548,-0.00003630,-0.00005178,0.00001357,0.00056318,-0.00004658,
 0.00025475,-0.00004414,-0.00002388,0.00004408,-0.00007995,0.00004232,-
 0.00001545,-0.04205034,-0.00381949,-0.00372937,0.00046351,0.00037835,0
 .00043521,-0.00297032,-0.02426248,-0.01773574,-0.00056916,0.00399956,0
 .00328438,0.04851597,0.00082699,0.00033796,-0.00044501,-0.00019820,-0.
 00113059,0.00070710,0.00196828,0.00627928,0.00266433,-0.00103220,-0.00
 050264,0.00048072,-0.00193321,0.00212674,0.00101753,0.00189043,-0.0009
 4348,-0.00170157,-0.00050437,0.00148548,-0.00086059,0.00071440,-0.0012
 7772,0.00037258,0.00097301,0.00027166,-0.00096869,0.00033631,-0.001929
 35,0.00105758,0.00026413,-0.00162668,0.00117354,0.00015840,0.00195735,
 -0.00180061,-0.00002910,-0.00005360,0.00000700,0.00013701,-0.00017658,
 -0.00008271,-0.00004087,-0.00002903,0.00012419,-0.00007799,0.00011251,
 -0.00003381,-0.00495656,-0.20224191,-0.11809668,-0.00056852,0.00027976
 ,-0.00047401,-0.00062183,-0.00135960,-0.00061573,-0.00171038,-0.021152
 65,-0.01561303,0.00440430,0.21957310,0.00052329,0.00000473,-0.00017680
 ,0.00111313,-0.00076887,0.00180981,0.00169603,-0.01632510,-0.01371251,
 0.00002120,-0.00022850,0.00112691,-0.00007352,0.00137644,0.00032618,0.
 00016841,0.00082103,-0.00257942,-0.00107230,0.00111040,-0.00041304,0.0
 0079219,-0.00107850,0.00020145,0.00061967,0.00024510,-0.00103661,0.000
 25344,-0.00069503,0.00068051,0.00040582,-0.00120598,0.00068992,0.00006
 770,0.00114186,-0.00093897,0.00003282,0.00002302,0.00007264,-0.0006553
 9,0.00013040,-0.00058005,0.00000626,-0.00002176,0.00008587,-0.00001405
 ,0.00005110,-0.00004323,-0.00332843,-0.12055394,-0.13636340,-0.0002380
 2,-0.00011876,-0.00009408,-0.00207206,-0.01165178,-0.00997008,0.001251
 01,0.01465629,0.01177557,0.00050281,0.13308786,0.14913933\\-0.00000109
 ,-0.00001392,0.00000126,-0.00000491,0.00000262,-0.00000956,0.00000856,
 0.00000526,0.00000266,-0.00000290,0.00001229,0.00000481,0.00000682,-0.
 00000345,0.00001846,-0.00001005,0.00000736,-0.00000903,-0.00000665,0.0
 0003307,-0.00003379,0.00000624,-0.00001300,0.00000531,0.00001195,0.000
 01367,0.00000248,-0.00002807,-0.00003321,-0.00001926,0.00000186,-0.000
 02599,0.00002291,0.00001026,0.00001836,0.00000531,0.00000300,0.0000016
 4,-0.00000220,0.00000374,-0.00000119,0.00000401,-0.00000016,0.00000020
 ,-0.00000045,-0.00000092,-0.00000147,0.00000173,-0.00000087,0.00000612
 ,0.00000803,0.00000765,-0.00000137,0.00000244,0.00000165,0.00000006,-0
 .00000169,-0.00000337,-0.00000171,-0.00000031,-0.00000276,-0.00000533,
 -0.00000313\\\@


 IT IS A QUALITY OF REVOLUTIONS NOT TO GO BY OLD LINES OR OLD LAWS,
 BUT TO BREAK UP BOTH, AND MAKE NEW ONES.
                                              -- A. LINCOLN (1848)
 Job cpu time:       0 days  1 hours 16 minutes 27.9 seconds.
 Elapsed time:       0 days  0 hours  9 minutes 40.4 seconds.
 File lengths (MBytes):  RWF=    484 Int=      0 D2E=      0 Chk=     14 Scr=      1
 Normal termination of Gaussian 16 at Sun Jan  7 21:20:09 2024.
