 Entering Gaussian System, Link 0=g16
 Input=244-rad.com
 Output=244-rad.log
 Initial command:
 /sysapps/ubuntu-applications/gaussian/Gaussian/AVX2/g16/l1.exe "/scratch/selhajj1/4407499/Gau-1185519.inp" -scrdir="/scratch/selhajj1/4407499/"
 Entering Link 1 = /sysapps/ubuntu-applications/gaussian/Gaussian/AVX2/g16/l1.exe PID=   1185521.
  
 Copyright (c) 1988,1990,1992,1993,1995,1998,2003,2009,2016,
            Gaussian, Inc.  All Rights Reserved.
  
 This is part of the Gaussian(R) 16 program.  It is based on
 the Gaussian(R) 09 system (copyright 2009, Gaussian, Inc.),
 the Gaussian(R) 03 system (copyright 2003, Gaussian, Inc.),
 the Gaussian(R) 98 system (copyright 1998, Gaussian, Inc.),
 the Gaussian(R) 94 system (copyright 1995, Gaussian, Inc.),
 the Gaussian 92(TM) system (copyright 1992, Gaussian, Inc.),
 the Gaussian 90(TM) system (copyright 1990, Gaussian, Inc.),
 the Gaussian 88(TM) system (copyright 1988, Gaussian, Inc.),
 the Gaussian 86(TM) system (copyright 1986, Carnegie Mellon
 University), and the Gaussian 82(TM) system (copyright 1983,
 Carnegie Mellon University). Gaussian is a federally registered
 trademark of Gaussian, Inc.
  
 This software contains proprietary and confidential information,
 including trade secrets, belonging to Gaussian, Inc.
  
 This software is provided under written license and may be
 used, copied, transmitted, or stored only in accord with that
 written license.
  
 The following legend is applicable only to US Government
 contracts under FAR:
  
                    RESTRICTED RIGHTS LEGEND
  
 Use, reproduction and disclosure by the US Government is
 subject to restrictions as set forth in subparagraphs (a)
 and (c) of the Commercial Computer Software - Restricted
 Rights clause in FAR 52.227-19.
  
 Gaussian, Inc.
 340 Quinnipiac St., Bldg. 40, Wallingford CT 06492
  
  
 ---------------------------------------------------------------
 Warning -- This program may not be used in any manner that
 competes with the business of Gaussian, Inc. or will provide
 assistance to any competitor of Gaussian, Inc.  The licensee
 of this program is prohibited from giving any competitor of
 Gaussian, Inc. access to this program.  By using this program,
 the user acknowledges that Gaussian, Inc. is engaged in the
 business of creating and licensing software in the field of
 computational chemistry and represents and warrants to the
 licensee that it is not a competitor of Gaussian, Inc. and that
 it will not use this program in any manner prohibited above.
 ---------------------------------------------------------------
  

 Cite this work as:
 Gaussian 16, Revision A.03,
 M. J. Frisch, G. W. Trucks, H. B. Schlegel, G. E. Scuseria, 
 M. A. Robb, J. R. Cheeseman, G. Scalmani, V. Barone, 
 G. A. Petersson, H. Nakatsuji, X. Li, M. Caricato, A. V. Marenich, 
 J. Bloino, B. G. Janesko, R. Gomperts, B. Mennucci, H. P. Hratchian, 
 J. V. Ortiz, A. F. Izmaylov, J. L. Sonnenberg, D. Williams-Young, 
 F. Ding, F. Lipparini, F. Egidi, J. Goings, B. Peng, A. Petrone, 
 T. Henderson, D. Ranasinghe, V. G. Zakrzewski, J. Gao, N. Rega, 
 G. Zheng, W. Liang, M. Hada, M. Ehara, K. Toyota, R. Fukuda, 
 J. Hasegawa, M. Ishida, T. Nakajima, Y. Honda, O. Kitao, H. Nakai, 
 T. Vreven, K. Throssell, J. A. Montgomery, Jr., J. E. Peralta, 
 F. Ogliaro, M. J. Bearpark, J. J. Heyd, E. N. Brothers, K. N. Kudin, 
 V. N. Staroverov, T. A. Keith, R. Kobayashi, J. Normand, 
 K. Raghavachari, A. P. Rendell, J. C. Burant, S. S. Iyengar, 
 J. Tomasi, M. Cossi, J. M. Millam, M. Klene, C. Adamo, R. Cammi, 
 J. W. Ochterski, R. L. Martin, K. Morokuma, O. Farkas, 
 J. B. Foresman, and D. J. Fox, Gaussian, Inc., Wallingford CT, 2016.
 
 ******************************************
 Gaussian 16:  ES64L-G16RevA.03 25-Dec-2016
                11-Feb-2024 
 ******************************************
 %chk=244-rad.chk
 %nproc=8
 Will use up to    8 processors via shared memory.
 %mem=30GB
 ----------------------------------------------------------------------
 #P UB3LYP/6-311++G(d,p) nosym opt freq SCRF=(PCM,Solvent=n,n-DiMethylF
 ormamide)
 ----------------------------------------------------------------------
 1/18=20,19=15,26=3,38=1/1,3;
 2/9=110,12=2,15=1,17=6,18=5,40=1/2;
 3/5=4,6=6,7=1111,11=2,25=1,30=1,70=2201,71=1,72=148,74=-5,116=2/1,2,3;
 4//1;
 5/5=2,38=5,53=148/2;
 6/7=2,8=2,9=2,10=2,28=1/1;
 7/30=1/1,2,3,16;
 1/18=20,19=15,26=3/3(2);
 2/9=110,15=1/2;
 99//99;
 2/9=110,15=1/2;
 3/5=4,6=6,7=1111,11=2,25=1,30=1,70=2205,71=1,72=148,74=-5,116=2/1,2,3;
 4/5=5,16=3,69=1/1;
 5/5=2,38=5,53=148/2;
 7/30=1/1,2,3,16;
 1/18=20,19=15,26=3/3(-5);
 2/9=110,15=1/2;
 6/7=2,8=2,9=2,10=2,19=2,28=1/1;
 99/9=1/99;
 Leave Link    1 at Sun Feb 11 00:46:49 2024, MaxMem=  4026531840 cpu:               0.9 elap:               0.2
 (Enter /sysapps/ubuntu-applications/gaussian/Gaussian/AVX2/g16/l101.exe)
 -------
 Radical
 -------
 Symbolic Z-matrix:
 Charge = -1 Multiplicity = 2
 C                     5.76011  -5.29444   1.26145 
 C                     6.69448  -5.14813   0.24174 
 C                     6.57517  -4.15179  -0.74091 
 C                     4.64255  -4.40443   1.31315 
 C                     4.52984  -3.39389   0.30893 
 C                     5.50179  -3.28652  -0.70246 
 C                     3.61296  -4.50296   2.36756 
 C                     2.52437  -3.54723   2.32045 
 C                     2.44253  -2.58373   1.33962 
 C                     3.40655  -2.43519   0.29053 
 O                     3.65341  -5.37303   3.28431 
 O                     3.31132  -1.54465  -0.59829 
 C                     5.9869   -6.40195   2.26755 
 H                     7.54104  -5.82917   0.20995 
 C                     1.47975  -3.65602   3.39982 
 H                     1.61353  -1.87984   1.33009 
 H                     5.36729  -2.5024   -1.43845 
 H                     7.3254   -4.0684   -1.52223 
 H                     6.90568  -6.94368   2.01622 
 H                     5.15083  -7.10331   2.29117 
 H                     6.06547  -6.01339   3.28461 
 H                     1.00806  -4.6447    3.39228 
 H                     0.70646  -2.89276   3.27395 
 H                     1.92817  -3.54742   4.39338 
 
 ITRead=  0  0  0  0  0  0  0  0  0  0  0  0  0  0  0  0  0  0  0  0
 ITRead=  0  0  0  0
 MicOpt= -1 -1 -1 -1 -1 -1 -1 -1 -1 -1 -1 -1 -1 -1 -1 -1 -1 -1 -1 -1
 MicOpt= -1 -1 -1 -1
 NAtoms=     24 NQM=       24 NQMF=       0 NMMI=      0 NMMIF=      0
                NMic=       0 NMicF=      0.
                    Isotopes and Nuclear Properties:
 (Nuclear quadrupole moments (NQMom) in fm**2, nuclear magnetic moments (NMagM)
  in nuclear magnetons)

  Atom         1           2           3           4           5           6           7           8           9          10
 IAtWgt=          12          12          12          12          12          12          12          12          12          12
 AtmWgt=  12.0000000  12.0000000  12.0000000  12.0000000  12.0000000  12.0000000  12.0000000  12.0000000  12.0000000  12.0000000
 NucSpn=           0           0           0           0           0           0           0           0           0           0
 AtZEff=  -0.0000000  -0.0000000  -0.0000000  -0.0000000  -0.0000000  -0.0000000  -0.0000000  -0.0000000  -0.0000000  -0.0000000
 NQMom=    0.0000000   0.0000000   0.0000000   0.0000000   0.0000000   0.0000000   0.0000000   0.0000000   0.0000000   0.0000000
 NMagM=    0.0000000   0.0000000   0.0000000   0.0000000   0.0000000   0.0000000   0.0000000   0.0000000   0.0000000   0.0000000
 AtZNuc=   6.0000000   6.0000000   6.0000000   6.0000000   6.0000000   6.0000000   6.0000000   6.0000000   6.0000000   6.0000000

  Atom        11          12          13          14          15          16          17          18          19          20
 IAtWgt=          16          16          12           1          12           1           1           1           1           1
 AtmWgt=  15.9949146  15.9949146  12.0000000   1.0078250  12.0000000   1.0078250   1.0078250   1.0078250   1.0078250   1.0078250
 NucSpn=           0           0           0           1           0           1           1           1           1           1
 AtZEff=  -0.0000000  -0.0000000  -0.0000000  -0.0000000  -0.0000000  -0.0000000  -0.0000000  -0.0000000  -0.0000000  -0.0000000
 NQMom=    0.0000000   0.0000000   0.0000000   0.0000000   0.0000000   0.0000000   0.0000000   0.0000000   0.0000000   0.0000000
 NMagM=    0.0000000   0.0000000   0.0000000   2.7928460   0.0000000   2.7928460   2.7928460   2.7928460   2.7928460   2.7928460
 AtZNuc=   8.0000000   8.0000000   6.0000000   1.0000000   6.0000000   1.0000000   1.0000000   1.0000000   1.0000000   1.0000000

  Atom        21          22          23          24
 IAtWgt=           1           1           1           1
 AtmWgt=   1.0078250   1.0078250   1.0078250   1.0078250
 NucSpn=           1           1           1           1
 AtZEff=  -0.0000000  -0.0000000  -0.0000000  -0.0000000
 NQMom=    0.0000000   0.0000000   0.0000000   0.0000000
 NMagM=    2.7928460   2.7928460   2.7928460   2.7928460
 AtZNuc=   1.0000000   1.0000000   1.0000000   1.0000000
 Leave Link  101 at Sun Feb 11 00:46:50 2024, MaxMem=  4026531840 cpu:               4.9 elap:               0.8
 (Enter /sysapps/ubuntu-applications/gaussian/Gaussian/AVX2/g16/l103.exe)

 GradGradGradGradGradGradGradGradGradGradGradGradGradGradGradGradGradGrad
 Berny optimization.
 Initialization pass.
                           ----------------------------
                           !    Initial Parameters    !
                           ! (Angstroms and Degrees)  !
 --------------------------                            --------------------------
 ! Name  Definition              Value          Derivative Info.                !
 --------------------------------------------------------------------------------
 ! R1    R(1,2)                  1.3908         estimate D2E/DX2                !
 ! R2    R(1,4)                  1.4296         estimate D2E/DX2                !
 ! R3    R(1,13)                 1.5134         estimate D2E/DX2                !
 ! R4    R(2,3)                  1.4045         estimate D2E/DX2                !
 ! R5    R(2,14)                 1.087          estimate D2E/DX2                !
 ! R6    R(3,6)                  1.3792         estimate D2E/DX2                !
 ! R7    R(3,18)                 1.0864         estimate D2E/DX2                !
 ! R8    R(4,5)                  1.4291         estimate D2E/DX2                !
 ! R9    R(4,7)                  1.477          estimate D2E/DX2                !
 ! R10   R(5,6)                  1.4068         estimate D2E/DX2                !
 ! R11   R(5,10)                 1.4769         estimate D2E/DX2                !
 ! R12   R(6,17)                 1.0838         estimate D2E/DX2                !
 ! R13   R(7,8)                  1.4494         estimate D2E/DX2                !
 ! R14   R(7,11)                 1.2646         estimate D2E/DX2                !
 ! R15   R(8,9)                  1.3773         estimate D2E/DX2                !
 ! R16   R(8,15)                 1.506          estimate D2E/DX2                !
 ! R17   R(9,10)                 1.4325         estimate D2E/DX2                !
 ! R18   R(9,16)                 1.0876         estimate D2E/DX2                !
 ! R19   R(10,12)                1.2618         estimate D2E/DX2                !
 ! R20   R(13,19)                1.0958         estimate D2E/DX2                !
 ! R21   R(13,20)                1.0916         estimate D2E/DX2                !
 ! R22   R(13,21)                1.0916         estimate D2E/DX2                !
 ! R23   R(15,22)                1.0955         estimate D2E/DX2                !
 ! R24   R(15,23)                1.0938         estimate D2E/DX2                !
 ! R25   R(15,24)                1.0955         estimate D2E/DX2                !
 ! A1    A(2,1,4)              119.0925         estimate D2E/DX2                !
 ! A2    A(2,1,13)             117.6287         estimate D2E/DX2                !
 ! A3    A(4,1,13)             123.2788         estimate D2E/DX2                !
 ! A4    A(1,2,3)              122.042          estimate D2E/DX2                !
 ! A5    A(1,2,14)             118.6057         estimate D2E/DX2                !
 ! A6    A(3,2,14)             119.3523         estimate D2E/DX2                !
 ! A7    A(2,3,6)              119.4495         estimate D2E/DX2                !
 ! A8    A(2,3,18)             119.9326         estimate D2E/DX2                !
 ! A9    A(6,3,18)             120.618          estimate D2E/DX2                !
 ! A10   A(1,4,5)              118.4544         estimate D2E/DX2                !
 ! A11   A(1,4,7)              121.9529         estimate D2E/DX2                !
 ! A12   A(5,4,7)              119.5927         estimate D2E/DX2                !
 ! A13   A(4,5,6)              120.309          estimate D2E/DX2                !
 ! A14   A(4,5,10)             121.8532         estimate D2E/DX2                !
 ! A15   A(6,5,10)             117.8379         estimate D2E/DX2                !
 ! A16   A(3,6,5)              120.6527         estimate D2E/DX2                !
 ! A17   A(3,6,17)             122.1094         estimate D2E/DX2                !
 ! A18   A(5,6,17)             117.2379         estimate D2E/DX2                !
 ! A19   A(4,7,8)              117.1535         estimate D2E/DX2                !
 ! A20   A(4,7,11)             122.7611         estimate D2E/DX2                !
 ! A21   A(8,7,11)             120.0855         estimate D2E/DX2                !
 ! A22   A(7,8,9)              121.9415         estimate D2E/DX2                !
 ! A23   A(7,8,15)             116.7463         estimate D2E/DX2                !
 ! A24   A(9,8,15)             121.3122         estimate D2E/DX2                !
 ! A25   A(8,9,10)             123.6476         estimate D2E/DX2                !
 ! A26   A(8,9,16)             120.2835         estimate D2E/DX2                !
 ! A27   A(10,9,16)            116.0689         estimate D2E/DX2                !
 ! A28   A(5,10,9)             115.8115         estimate D2E/DX2                !
 ! A29   A(5,10,12)            121.6223         estimate D2E/DX2                !
 ! A30   A(9,10,12)            122.5662         estimate D2E/DX2                !
 ! A31   A(1,13,19)            109.5703         estimate D2E/DX2                !
 ! A32   A(1,13,20)            111.7053         estimate D2E/DX2                !
 ! A33   A(1,13,21)            111.698          estimate D2E/DX2                !
 ! A34   A(19,13,20)           109.2397         estimate D2E/DX2                !
 ! A35   A(19,13,21)           109.2273         estimate D2E/DX2                !
 ! A36   A(20,13,21)           105.2884         estimate D2E/DX2                !
 ! A37   A(8,15,22)            111.0343         estimate D2E/DX2                !
 ! A38   A(8,15,23)            110.9461         estimate D2E/DX2                !
 ! A39   A(8,15,24)            111.0352         estimate D2E/DX2                !
 ! A40   A(22,15,23)           108.9401         estimate D2E/DX2                !
 ! A41   A(22,15,24)           105.7816         estimate D2E/DX2                !
 ! A42   A(23,15,24)           108.9415         estimate D2E/DX2                !
 ! D1    D(4,1,2,3)              0.0077         estimate D2E/DX2                !
 ! D2    D(4,1,2,14)          -179.9955         estimate D2E/DX2                !
 ! D3    D(13,1,2,3)          -179.9894         estimate D2E/DX2                !
 ! D4    D(13,1,2,14)            0.0074         estimate D2E/DX2                !
 ! D5    D(2,1,4,5)             -0.0088         estimate D2E/DX2                !
 ! D6    D(2,1,4,7)            179.9875         estimate D2E/DX2                !
 ! D7    D(13,1,4,5)           179.9882         estimate D2E/DX2                !
 ! D8    D(13,1,4,7)            -0.0155         estimate D2E/DX2                !
 ! D9    D(2,1,13,19)           -0.0176         estimate D2E/DX2                !
 ! D10   D(2,1,13,20)         -121.2105         estimate D2E/DX2                !
 ! D11   D(2,1,13,21)          121.1549         estimate D2E/DX2                !
 ! D12   D(4,1,13,19)          179.9854         estimate D2E/DX2                !
 ! D13   D(4,1,13,20)           58.7925         estimate D2E/DX2                !
 ! D14   D(4,1,13,21)          -58.8421         estimate D2E/DX2                !
 ! D15   D(1,2,3,6)             -0.0012         estimate D2E/DX2                !
 ! D16   D(1,2,3,18)           179.9978         estimate D2E/DX2                !
 ! D17   D(14,2,3,6)          -179.998          estimate D2E/DX2                !
 ! D18   D(14,2,3,18)            0.001          estimate D2E/DX2                !
 ! D19   D(2,3,6,5)             -0.0041         estimate D2E/DX2                !
 ! D20   D(2,3,6,17)           179.9998         estimate D2E/DX2                !
 ! D21   D(18,3,6,5)           179.9969         estimate D2E/DX2                !
 ! D22   D(18,3,6,17)            0.0008         estimate D2E/DX2                !
 ! D23   D(1,4,5,6)              0.0038         estimate D2E/DX2                !
 ! D24   D(1,4,5,10)           179.9984         estimate D2E/DX2                !
 ! D25   D(7,4,5,6)           -179.9926         estimate D2E/DX2                !
 ! D26   D(7,4,5,10)             0.002          estimate D2E/DX2                !
 ! D27   D(1,4,7,8)           -179.9964         estimate D2E/DX2                !
 ! D28   D(1,4,7,11)             0.0072         estimate D2E/DX2                !
 ! D29   D(5,4,7,8)             -0.0002         estimate D2E/DX2                !
 ! D30   D(5,4,7,11)          -179.9965         estimate D2E/DX2                !
 ! D31   D(4,5,6,3)              0.0027         estimate D2E/DX2                !
 ! D32   D(4,5,6,17)           179.999          estimate D2E/DX2                !
 ! D33   D(10,5,6,3)          -179.9921         estimate D2E/DX2                !
 ! D34   D(10,5,6,17)            0.0041         estimate D2E/DX2                !
 ! D35   D(4,5,10,9)             0.0014         estimate D2E/DX2                !
 ! D36   D(4,5,10,12)         -179.9973         estimate D2E/DX2                !
 ! D37   D(6,5,10,9)           179.9962         estimate D2E/DX2                !
 ! D38   D(6,5,10,12)           -0.0026         estimate D2E/DX2                !
 ! D39   D(4,7,8,9)             -0.0055         estimate D2E/DX2                !
 ! D40   D(4,7,8,15)           179.9978         estimate D2E/DX2                !
 ! D41   D(11,7,8,9)           179.991          estimate D2E/DX2                !
 ! D42   D(11,7,8,15)           -0.0058         estimate D2E/DX2                !
 ! D43   D(7,8,9,10)             0.0096         estimate D2E/DX2                !
 ! D44   D(7,8,9,16)          -179.9962         estimate D2E/DX2                !
 ! D45   D(15,8,9,10)         -179.9938         estimate D2E/DX2                !
 ! D46   D(15,8,9,16)            0.0004         estimate D2E/DX2                !
 ! D47   D(7,8,15,22)          -58.6986         estimate D2E/DX2                !
 ! D48   D(7,8,15,23)          179.9987         estimate D2E/DX2                !
 ! D49   D(7,8,15,24)           58.6936         estimate D2E/DX2                !
 ! D50   D(9,8,15,22)          121.3047         estimate D2E/DX2                !
 ! D51   D(9,8,15,23)            0.0019         estimate D2E/DX2                !
 ! D52   D(9,8,15,24)         -121.3031         estimate D2E/DX2                !
 ! D53   D(8,9,10,5)            -0.0073         estimate D2E/DX2                !
 ! D54   D(8,9,10,12)          179.9915         estimate D2E/DX2                !
 ! D55   D(16,9,10,5)          179.9983         estimate D2E/DX2                !
 ! D56   D(16,9,10,12)          -0.003          estimate D2E/DX2                !
 --------------------------------------------------------------------------------
 Trust Radius=3.00D-01 FncErr=1.00D-07 GrdErr=1.00D-06 EigMax=2.50D+02 EigMin=1.00D-04
 Number of steps in this run=    133 maximum allowed number of steps=    144.
 GradGradGradGradGradGradGradGradGradGradGradGradGradGradGradGradGradGrad

 Leave Link  103 at Sun Feb 11 00:46:50 2024, MaxMem=  4026531840 cpu:               0.3 elap:               0.1
 (Enter /sysapps/ubuntu-applications/gaussian/Gaussian/AVX2/g16/l202.exe)
                          Input orientation:                          
 ---------------------------------------------------------------------
 Center     Atomic      Atomic             Coordinates (Angstroms)
 Number     Number       Type             X           Y           Z
 ---------------------------------------------------------------------
      1          6           0        5.760105   -5.294438    1.261446
      2          6           0        6.694477   -5.148135    0.241736
      3          6           0        6.575173   -4.151791   -0.740908
      4          6           0        4.642550   -4.404431    1.313148
      5          6           0        4.529844   -3.393891    0.308926
      6          6           0        5.501791   -3.286519   -0.702462
      7          6           0        3.612955   -4.502957    2.367555
      8          6           0        2.524366   -3.547227    2.320450
      9          6           0        2.442532   -2.583726    1.339619
     10          6           0        3.406552   -2.435186    0.290529
     11          8           0        3.653406   -5.373025    3.284312
     12          8           0        3.311320   -1.544649   -0.598287
     13          6           0        5.986898   -6.401946    2.267545
     14          1           0        7.541036   -5.829169    0.209946
     15          6           0        1.479751   -3.656016    3.399824
     16          1           0        1.613529   -1.879837    1.330092
     17          1           0        5.367288   -2.502400   -1.438448
     18          1           0        7.325399   -4.068396   -1.522232
     19          1           0        6.905679   -6.943676    2.016220
     20          1           0        5.150830   -7.103313    2.291174
     21          1           0        6.065467   -6.013388    3.284608
     22          1           0        1.008060   -4.644695    3.392284
     23          1           0        0.706462   -2.892758    3.273946
     24          1           0        1.928174   -3.547420    4.393381
 ---------------------------------------------------------------------
                    Distance matrix (angstroms):
                    1          2          3          4          5
     1  C    0.000000
     2  C    1.390778   0.000000
     3  C    2.445281   1.404466   0.000000
     4  C    1.429586   2.431342   2.831608   0.000000
     5  C    2.456199   2.787028   2.420730   1.429110   0.000000
     6  C    2.820532   2.404085   1.379247   2.459818   1.406810
     7  C    2.541687   3.798834   4.308201   1.477006   2.511706
     8  C    3.826780   4.926843   5.113360   2.497230   2.844588
     9  C    4.284899   5.085330   4.885299   2.855827   2.464866
    10  C    3.828474   4.262971   3.748434   2.539954   1.476902
    11  O    2.921702   4.307663   5.121575   2.408748   3.679407
    12  O    4.849337   5.013632   4.179745   3.688375   2.393226
    13  C    1.513355   2.485279   3.802638   2.590021   3.873963
    14  H    2.136189   1.086959   2.156528   3.412939   3.873971
    15  C    5.057521   6.276409   6.584435   3.862336   4.350336
    16  H    5.371993   6.138593   5.836842   3.943200   3.440935
    17  H    3.903743   3.403581   2.160102   3.422608   2.132929
    18  H    3.420846   2.162286   1.086398   3.917905   3.409285
    19  H    2.145229   2.533252   3.937716   3.473302   4.600045
    20  H    2.168775   3.225797   4.464724   2.915278   4.251440
    21  H    2.168714   3.225428   4.464317   2.915491   4.251422
    22  H    5.248292   6.520333   6.951185   4.194049   4.845056
    23  H    5.946220   7.080773   7.221218   4.650019   4.864229
    24  H    5.248312   6.520436   6.951316   4.194060   4.845104
                    6          7          8          9         10
     6  C    0.000000
     7  C    3.804264   0.000000
     8  C    4.251003   1.449367   0.000000
     9  C    3.744740   2.471839   1.377338   0.000000
    10  C    2.469985   2.938080   2.476987   1.432476   0.000000
    11  O    4.864607   1.264554   2.353147   3.609465   4.201734
    12  O    2.800558   4.199856   3.626105   2.364308   1.261792
    13  C    4.331530   3.041672   4.487911   5.291728   5.128544
    14  H    3.384683   4.673750   5.901565   6.148480   5.349726
    15  C    5.756916   2.516634   1.506023   2.514199   3.856255
    16  H    4.607452   3.457570   2.142574   1.087564   2.145702
    17  H    1.083794   4.643875   4.827337   4.034658   2.615027
    18  H    2.146835   5.394583   6.171527   5.851224   4.616366
    19  H    4.768326   4.113706   5.551966   6.275877   5.962246
    20  H    4.863430   3.022043   4.420963   5.354157   5.369962
    21  H    4.863155   3.022781   4.421645   5.354551   5.370090
    22  H    6.229382   2.802791   2.156953   3.243260   4.500620
    23  H    6.241959   3.444124   2.154590   2.617453   4.049770
    24  H    6.229480   2.802768   2.156963   3.243260   4.500673
                   11         12         13         14         15
    11  O    0.000000
    12  O    5.463338   0.000000
    13  C    2.745483   6.242199   0.000000
    14  H    4.977295   6.074607   2.641426   0.000000
    15  C    2.772407   4.878259   5.397829   7.185895   0.000000
    16  H    4.492487   2.591040   6.360397   7.210221   2.730659
    17  H    5.786393   2.418711   5.415234   4.302299   6.312896
    18  H    6.187767   4.830715   4.647521   2.479367   7.652992
    19  H    3.827830   6.993179   1.095808   2.215498   6.493363
    20  H    2.494494   6.529282   1.091551   3.415851   5.156528
    21  H    2.495617   6.529305   1.091589   3.415375   5.157448
    22  H    2.745902   5.553373   5.398314   7.362746   1.095461
    23  H    3.851793   4.857661   6.419521   8.044999   1.093793
    24  H    2.745777   5.553461   5.398216   7.362861   1.095460
                   16         17         18         19         20
    16  H    0.000000
    17  H    4.705646   0.000000
    18  H    6.749148   2.508697   0.000000
    19  H    7.356636   5.833208   4.578651   0.000000
    20  H    6.381291   5.926663   5.336810   1.783418   0.000000
    21  H    6.381703   5.926360   5.336303   1.783312   1.735341
    22  H    3.501952   6.850421   8.024547   6.477714   4.941638
    23  H    2.372203   6.639453   8.258073   7.511465   6.200566
    24  H    3.501939   6.850533   8.024708   6.477731   5.239195
                   21         22         23         24
    21  H    0.000000
    22  H    5.240447   0.000000
    23  H    6.201401   1.781642   0.000000
    24  H    4.942425   1.747231   1.781656   0.000000
 Symmetry turned off by external request.
 Stoichiometry    C12H10O2(1-,2)
 Framework group  C1[X(C12H10O2)]
 Deg. of freedom    66
 Full point group                 C1      NOp   1
 Rotational constants (GHZ):           0.9426290           0.7410266           0.4169709
 Leave Link  202 at Sun Feb 11 00:46:51 2024, MaxMem=  4026531840 cpu:               0.4 elap:               0.1
 (Enter /sysapps/ubuntu-applications/gaussian/Gaussian/AVX2/g16/l301.exe)
 Standard basis: 6-311++G(d,p) (5D, 7F)
 Ernie: Thresh=  0.10000D-02 Tol=  0.10000D-05 Strict=F.
   378 basis functions,   594 primitive gaussians,   392 cartesian basis functions
    50 alpha electrons       49 beta electrons
       nuclear repulsion energy       830.4918152431 Hartrees.
 IExCor=  402 DFT=T Ex+Corr=B3LYP ExCW=0 ScaHFX=  0.200000
 ScaDFX=  0.800000  0.720000  1.000000  0.810000 ScalE2=  1.000000  1.000000
 IRadAn=      5 IRanWt=     -1 IRanGd=            0 ICorTp=0 IEmpDi=  4
 NAtoms=   24 NActive=   24 NUniq=   24 SFac= 1.00D+00 NAtFMM=   60 NAOKFM=F Big=F
 Integral buffers will be    131072 words long.
 Raffenetti 2 integral format.
 Two-electron integral symmetry is turned off.
 ------------------------------------------------------------------------------
 Polarizable Continuum Model (PCM)
 =================================
 Model                : PCM.
 Atomic radii         : UFF (Universal Force Field).
 Polarization charges : Total charges.
 Charge compensation  : None.
 Solution method      : On-the-fly selection.
 Cavity type          : Scaled VdW (van der Waals Surface) (Alpha=1.100).
 Cavity algorithm     : GePol (No added spheres)
                        Default sphere list used, NSphG=   24.
                        Lebedev-Laikov grids with approx.  5.0 points / Ang**2.
                        Smoothing algorithm: York/Karplus (Gamma=1.0000).
                        Polarization charges: spherical gaussians, with
                                              point-specific exponents (IZeta= 3).
                        Self-potential: point-specific (ISelfS= 7).
                        Self-field    : sphere-specific E.n sum rule (ISelfD= 2).
 1st derivatives      : Analytical E(r).r(x)/FMM algorithm (CHGder, D1EAlg=3).
                        Cavity 1st derivative terms included.
 Solvent              : n,n-DiMethylFormamide, Eps=  37.219000 Eps(inf)=   2.046330
 ------------------------------------------------------------------------------
 GePol: Number of generator spheres                  =      24
 GePol: Total number of spheres                      =      24
 GePol: Number of exposed spheres                    =      24 (100.00%)
 GePol: Number of points                             =    1841
 GePol: Average weight of points                     =       0.13
 GePol: Minimum weight of points                     =   0.20D-10
 GePol: Maximum weight of points                     =    0.20577
 GePol: Number of points with low weight             =     122
 GePol: Fraction of low-weight points (<1% of avg)   =       6.63%
 GePol: Cavity surface area                          =    246.935 Ang**2
 GePol: Cavity volume                                =    262.563 Ang**3
 Leave Link  301 at Sun Feb 11 00:46:51 2024, MaxMem=  4026531840 cpu:               5.7 elap:               0.9
 (Enter /sysapps/ubuntu-applications/gaussian/Gaussian/AVX2/g16/l302.exe)
 NPDir=0 NMtPBC=     1 NCelOv=     1 NCel=       1 NClECP=     1 NCelD=      1
         NCelK=      1 NCelE2=     1 NClLst=     1 CellRange=     0.0.
 One-electron integrals computed using PRISM.
 NBasis=   378 RedAO= T EigKep=  1.19D-06  NBF=   378
 NBsUse=   374 1.00D-06 EigRej=  7.93D-07 NBFU=   374
 Precomputing XC quadrature grid using
 IXCGrd= 4 IRadAn=           5 IRanWt=          -1 IRanGd=           0 AccXCQ= 0.00D+00.
 Generated NRdTot=       0 NPtTot=           0 NUsed=           0 NTot=          32
 NSgBfM=   392   392   392   392   392 MxSgAt=    24 MxSgA2=    24.
 Leave Link  302 at Sun Feb 11 00:46:52 2024, MaxMem=  4026531840 cpu:               6.6 elap:               1.0
 (Enter /sysapps/ubuntu-applications/gaussian/Gaussian/AVX2/g16/l303.exe)
 DipDrv:  MaxL=1.
 Leave Link  303 at Sun Feb 11 00:46:53 2024, MaxMem=  4026531840 cpu:               1.8 elap:               0.3
 (Enter /sysapps/ubuntu-applications/gaussian/Gaussian/AVX2/g16/l401.exe)
 ExpMin= 3.60D-02 ExpMax= 8.59D+03 ExpMxC= 1.30D+03 IAcc=3 IRadAn=         5 AccDes= 0.00D+00
 Harris functional with IExCor=  402 and IRadAn=       5 diagonalized for initial guess.
 HarFok:  IExCor=  402 AccDes= 0.00D+00 IRadAn=         5 IDoV= 1 UseB2=F ITyADJ=14
 ICtDFT=  3500011 ScaDFX=  1.000000  1.000000  1.000000  1.000000
 FoFCou: FMM=F IPFlag=           0 FMFlag=      100000 FMFlg1=           0
         NFxFlg=           0 DoJE=T BraDBF=F KetDBF=T FulRan=T
         wScrn=  0.000000 ICntrl=       500 IOpCl=  0 I1Cent=   200000004 NGrid=           0
         NMat0=    1 NMatS0=      1 NMatT0=    0 NMatD0=    1 NMtDS0=    0 NMtDT0=    0
 Symmetry not used in FoFCou.
 Harris En= -614.187156945111    
 JPrj=0 DoOrth=F DoCkMO=F.
 Initial guess <Sx>= 0.0000 <Sy>= 0.0000 <Sz>= 0.5000 <S**2>= 0.7500 S= 0.5000
 Leave Link  401 at Sun Feb 11 00:46:57 2024, MaxMem=  4026531840 cpu:              29.5 elap:               3.9
 (Enter /sysapps/ubuntu-applications/gaussian/Gaussian/AVX2/g16/l502.exe)
 Two-electron integral symmetry not used.
 UHF open shell SCF:
 Using DIIS extrapolation, IDIIS=  1040.
 NGot=  4026531840 LenX=  4026218500 LenY=  4026064395
 Requested convergence on RMS density matrix=1.00D-08 within 128 cycles.
 Requested convergence on MAX density matrix=1.00D-06.
 Requested convergence on             energy=1.00D-06.
 No special actions if energy rises.
 Fock matrices will be formed incrementally for  20 cycles.

 Cycle   1  Pass 1  IDiag  1:
 FoFJK:  IHMeth= 1 ICntrl=       0 DoSepK=F KAlg= 0 I1Cent=           0 FoldK=F
 IRaf= 900000000 NMat=       1 IRICut=       1 DoRegI=T DoRafI=F ISym2E= 0 IDoP0=0 IntGTp=1.
 FoFCou: FMM=F IPFlag=           0 FMFlag=      100000 FMFlg1=           0
         NFxFlg=           0 DoJE=F BraDBF=F KetDBF=F FulRan=T
         wScrn=  0.000000 ICntrl=         0 IOpCl=  1 I1Cent=           0 NGrid=           0
         NMat0=    1 NMatS0=      1 NMatT0=    0 NMatD0=    1 NMtDS0=    0 NMtDT0=    0
 Symmetry not used in FoFCou.
 Inv3:  Mode=1 IEnd=    10167843.
 Iteration    1 A*A^-1 deviation from unit magnitude is 2.44D-15 for    197.
 Iteration    1 A*A^-1 deviation from orthogonality  is 2.20D-15 for   1014    146.
 Iteration    1 A^-1*A deviation from unit magnitude is 2.78D-15 for   1127.
 Iteration    1 A^-1*A deviation from orthogonality  is 2.00D-15 for   1651   1139.
 E= -613.629423401139    
 DIIS: error= 4.01D-02 at cycle   1 NSaved=   1.
 NSaved= 1 IEnMin= 1 EnMin= -613.629423401139     IErMin= 1 ErrMin= 4.01D-02
 ErrMax= 4.01D-02  0.00D+00 EMaxC= 1.00D-01 BMatC= 1.97D+00 BMatP= 1.97D+00
 IDIUse=3 WtCom= 5.99D-01 WtEn= 4.01D-01
 Coeff-Com:  0.100D+01
 Coeff-En:   0.100D+01
 Coeff:      0.100D+01
 Gap=     0.114 Goal=   None    Shift=    0.000
 Gap=     0.164 Goal=   None    Shift=    0.000
 GapD=    0.114 DampG=1.000 DampE=0.500 DampFc=0.5000 IDamp=-1.
 Damping current iteration by 5.00D-01
 RMSDP=4.76D-02 MaxDP=3.24D+00              OVMax= 2.70D-01

 Cycle   2  Pass 1  IDiag  1:
 RMSU=  2.33D-02    CP:  1.10D+00
 E= -613.782689295093     Delta-E=       -0.153265893954 Rises=F Damp=T
 DIIS: error= 1.59D-02 at cycle   2 NSaved=   2.
 NSaved= 2 IEnMin= 2 EnMin= -613.782689295093     IErMin= 2 ErrMin= 1.59D-02
 ErrMax= 1.59D-02  0.00D+00 EMaxC= 1.00D-01 BMatC= 2.12D-01 BMatP= 1.97D+00
 IDIUse=3 WtCom= 8.41D-01 WtEn= 1.59D-01
 Coeff-Com:  0.153D+00 0.847D+00
 Coeff-En:   0.246D+00 0.754D+00
 Coeff:      0.168D+00 0.832D+00
 Gap=     0.148 Goal=   None    Shift=    0.000
 Gap=     0.236 Goal=   None    Shift=    0.000
 RMSDP=2.62D-02 MaxDP=1.96D+00 DE=-1.53D-01 OVMax= 2.44D-01

 Cycle   3  Pass 1  IDiag  1:
 RMSU=  5.88D-03    CP:  7.92D-01  1.46D-01
 E= -614.004816687362     Delta-E=       -0.222127392269 Rises=F Damp=F
 DIIS: error= 2.39D-02 at cycle   3 NSaved=   3.
 NSaved= 3 IEnMin= 3 EnMin= -614.004816687362     IErMin= 2 ErrMin= 1.59D-02
 ErrMax= 2.39D-02  0.00D+00 EMaxC= 1.00D-01 BMatC= 2.65D-01 BMatP= 2.12D-01
 IDIUse=2 WtCom= 0.00D+00 WtEn= 1.00D+00
 Coeff-En:   0.000D+00 0.000D+00 0.100D+01
 Coeff:      0.000D+00 0.000D+00 0.100D+01
 Gap=     0.111 Goal=   None    Shift=    0.000
 Gap=     0.188 Goal=   None    Shift=    0.000
 RMSDP=1.48D-02 MaxDP=1.06D+00 DE=-2.22D-01 OVMax= 2.39D-01

 Cycle   4  Pass 1  IDiag  1:
 RMSU=  8.07D-03    CP:  9.61D-01  5.00D-01  4.71D-01
 E= -613.778439594101     Delta-E=        0.226377093261 Rises=F Damp=F
 DIIS: error= 5.99D-02 at cycle   4 NSaved=   4.
 NSaved= 4 IEnMin= 3 EnMin= -614.004816687362     IErMin= 2 ErrMin= 1.59D-02
 ErrMax= 5.99D-02  0.00D+00 EMaxC= 1.00D-01 BMatC= 1.42D+00 BMatP= 2.12D-01
 IDIUse=2 WtCom= 0.00D+00 WtEn= 1.00D+00
 Coeff-En:   0.000D+00 0.000D+00 0.786D+00 0.214D+00
 Coeff:      0.000D+00 0.000D+00 0.786D+00 0.214D+00
 Gap=     0.129 Goal=   None    Shift=    0.000
 Gap=     0.129 Goal=   None    Shift=    0.000
 RMSDP=1.04D-02 MaxDP=7.84D-01 DE= 2.26D-01 OVMax= 1.11D-01

 Cycle   5  Pass 1  IDiag  1:
 RMSU=  8.75D-04    CP:  8.28D-01  2.48D-01  7.96D-01  4.22D-01
 E= -614.039059156963     Delta-E=       -0.260619562861 Rises=F Damp=F
 DIIS: error= 1.56D-02 at cycle   5 NSaved=   5.
 NSaved= 5 IEnMin= 5 EnMin= -614.039059156963     IErMin= 5 ErrMin= 1.56D-02
 ErrMax= 1.56D-02  0.00D+00 EMaxC= 1.00D-01 BMatC= 9.96D-02 BMatP= 2.12D-01
 IDIUse=3 WtCom= 8.44D-01 WtEn= 1.56D-01
 Coeff-Com: -0.548D-02 0.283D-01 0.277D+00-0.106D+00 0.806D+00
 Coeff-En:   0.000D+00 0.000D+00 0.315D+00 0.000D+00 0.685D+00
 Coeff:     -0.463D-02 0.239D-01 0.283D+00-0.893D-01 0.787D+00
 Gap=     0.121 Goal=   None    Shift=    0.000
 Gap=     0.143 Goal=   None    Shift=    0.000
 RMSDP=3.05D-03 MaxDP=2.12D-01 DE=-2.61D-01 OVMax= 4.75D-02

 Cycle   6  Pass 1  IDiag  1:
 RMSU=  4.19D-04    CP:  7.86D-01  1.88D-01  8.79D-01  2.43D-01  9.98D-01
 E= -614.058720803420     Delta-E=       -0.019661646457 Rises=F Damp=F
 DIIS: error= 6.75D-04 at cycle   6 NSaved=   6.
 NSaved= 6 IEnMin= 6 EnMin= -614.058720803420     IErMin= 6 ErrMin= 6.75D-04
 ErrMax= 6.75D-04  0.00D+00 EMaxC= 1.00D-01 BMatC= 2.80D-04 BMatP= 9.96D-02
 IDIUse=3 WtCom= 9.93D-01 WtEn= 6.75D-03
 Coeff-Com: -0.404D-02 0.974D-02 0.912D-01-0.524D-01 0.351D+00 0.604D+00
 Coeff-En:   0.000D+00 0.000D+00 0.000D+00 0.000D+00 0.000D+00 0.100D+01
 Coeff:     -0.401D-02 0.968D-02 0.906D-01-0.520D-01 0.349D+00 0.607D+00
 Gap=     0.119 Goal=   None    Shift=    0.000
 Gap=     0.142 Goal=   None    Shift=    0.000
 RMSDP=1.83D-04 MaxDP=1.17D-02 DE=-1.97D-02 OVMax= 4.07D-03

 Cycle   7  Pass 1  IDiag  1:
 RMSU=  9.97D-05    CP:  7.88D-01  1.88D-01  8.79D-01  2.47D-01  9.61D-01
                    CP:  8.22D-01
 E= -614.058778637864     Delta-E=       -0.000057834444 Rises=F Damp=F
 DIIS: error= 2.55D-04 at cycle   7 NSaved=   7.
 NSaved= 7 IEnMin= 7 EnMin= -614.058778637864     IErMin= 7 ErrMin= 2.55D-04
 ErrMax= 2.55D-04  0.00D+00 EMaxC= 1.00D-01 BMatC= 4.34D-05 BMatP= 2.80D-04
 IDIUse=3 WtCom= 9.97D-01 WtEn= 2.55D-03
 Coeff-Com: -0.239D-03-0.267D-02-0.296D-02-0.374D-02 0.165D-01 0.307D+00
 Coeff-Com:  0.686D+00
 Coeff-En:   0.000D+00 0.000D+00 0.000D+00 0.000D+00 0.000D+00 0.258D-01
 Coeff-En:   0.974D+00
 Coeff:     -0.238D-03-0.266D-02-0.295D-02-0.373D-02 0.165D-01 0.306D+00
 Coeff:      0.687D+00
 Gap=     0.120 Goal=   None    Shift=    0.000
 Gap=     0.143 Goal=   None    Shift=    0.000
 RMSDP=8.54D-05 MaxDP=6.99D-03 DE=-5.78D-05 OVMax= 1.65D-03

 Cycle   8  Pass 1  IDiag  1:
 RMSU=  3.51D-05    CP:  7.87D-01  1.87D-01  8.80D-01  2.45D-01  9.73D-01
                    CP:  8.74D-01  7.87D-01
 E= -614.058790657896     Delta-E=       -0.000012020031 Rises=F Damp=F
 DIIS: error= 1.26D-04 at cycle   8 NSaved=   8.
 NSaved= 8 IEnMin= 8 EnMin= -614.058790657896     IErMin= 8 ErrMin= 1.26D-04
 ErrMax= 1.26D-04  0.00D+00 EMaxC= 1.00D-01 BMatC= 9.10D-06 BMatP= 4.34D-05
 IDIUse=3 WtCom= 9.99D-01 WtEn= 1.26D-03
 Coeff-Com:  0.739D-03-0.336D-02-0.209D-01 0.804D-02-0.631D-01 0.448D-01
 Coeff-Com:  0.394D+00 0.640D+00
 Coeff-En:   0.000D+00 0.000D+00 0.000D+00 0.000D+00 0.000D+00 0.000D+00
 Coeff-En:   0.000D+00 0.100D+01
 Coeff:      0.738D-03-0.336D-02-0.209D-01 0.803D-02-0.630D-01 0.448D-01
 Coeff:      0.393D+00 0.640D+00
 Gap=     0.120 Goal=   None    Shift=    0.000
 Gap=     0.143 Goal=   None    Shift=    0.000
 RMSDP=3.32D-05 MaxDP=2.91D-03 DE=-1.20D-05 OVMax= 1.29D-03

 Cycle   9  Pass 1  IDiag  1:
 RMSU=  2.63D-05    CP:  7.87D-01  1.86D-01  8.80D-01  2.44D-01  9.82D-01
                    CP:  8.62D-01  8.39D-01  9.48D-01
 E= -614.058793422698     Delta-E=       -0.000002764803 Rises=F Damp=F
 DIIS: error= 7.78D-05 at cycle   9 NSaved=   9.
 NSaved= 9 IEnMin= 9 EnMin= -614.058793422698     IErMin= 9 ErrMin= 7.78D-05
 ErrMax= 7.78D-05  0.00D+00 EMaxC= 1.00D-01 BMatC= 3.01D-06 BMatP= 9.10D-06
 IDIUse=1 WtCom= 1.00D+00 WtEn= 0.00D+00
 Coeff-Com:  0.362D-03-0.334D-03-0.110D-01 0.428D-02-0.374D-01-0.102D+00
 Coeff-Com: -0.492D-01 0.435D+00 0.761D+00
 Coeff:      0.362D-03-0.334D-03-0.110D-01 0.428D-02-0.374D-01-0.102D+00
 Coeff:     -0.492D-01 0.435D+00 0.761D+00
 Gap=     0.120 Goal=   None    Shift=    0.000
 Gap=     0.143 Goal=   None    Shift=    0.000
 RMSDP=1.82D-05 MaxDP=1.62D-03 DE=-2.76D-06 OVMax= 6.88D-04

 Cycle  10  Pass 1  IDiag  1:
 RMSU=  9.61D-06    CP:  7.87D-01  1.86D-01  8.80D-01  2.43D-01  9.78D-01
                    CP:  8.69D-01  8.81D-01  1.18D+00  7.08D-01
 E= -614.058794459494     Delta-E=       -0.000001036795 Rises=F Damp=F
 DIIS: error= 2.07D-05 at cycle  10 NSaved=  10.
 NSaved=10 IEnMin=10 EnMin= -614.058794459494     IErMin=10 ErrMin= 2.07D-05
 ErrMax= 2.07D-05  0.00D+00 EMaxC= 1.00D-01 BMatC= 4.95D-07 BMatP= 3.01D-06
 IDIUse=1 WtCom= 1.00D+00 WtEn= 0.00D+00
 Coeff-Com:  0.791D-04 0.247D-03-0.342D-02 0.124D-02-0.123D-01-0.633D-01
 Coeff-Com: -0.787D-01 0.178D+00 0.441D+00 0.537D+00
 Coeff:      0.791D-04 0.247D-03-0.342D-02 0.124D-02-0.123D-01-0.633D-01
 Coeff:     -0.787D-01 0.178D+00 0.441D+00 0.537D+00
 Gap=     0.120 Goal=   None    Shift=    0.000
 Gap=     0.143 Goal=   None    Shift=    0.000
 RMSDP=7.07D-06 MaxDP=5.11D-04 DE=-1.04D-06 OVMax= 1.86D-04

 Cycle  11  Pass 1  IDiag  1:
 RMSU=  4.22D-06    CP:  7.87D-01  1.86D-01  8.80D-01  2.43D-01  9.79D-01
                    CP:  8.75D-01  8.58D-01  1.14D+00  8.06D-01  1.00D+00
 E= -614.058794591416     Delta-E=       -0.000000131922 Rises=F Damp=F
 DIIS: error= 7.10D-06 at cycle  11 NSaved=  11.
 NSaved=11 IEnMin=11 EnMin= -614.058794591416     IErMin=11 ErrMin= 7.10D-06
 ErrMax= 7.10D-06  0.00D+00 EMaxC= 1.00D-01 BMatC= 4.30D-08 BMatP= 4.95D-07
 IDIUse=1 WtCom= 1.00D+00 WtEn= 0.00D+00
 Coeff-Com: -0.324D-04 0.114D-03 0.613D-03-0.109D-03 0.127D-02-0.652D-02
 Coeff-Com: -0.260D-01-0.777D-02 0.370D-01 0.235D+00 0.767D+00
 Coeff:     -0.324D-04 0.114D-03 0.613D-03-0.109D-03 0.127D-02-0.652D-02
 Coeff:     -0.260D-01-0.777D-02 0.370D-01 0.235D+00 0.767D+00
 Gap=     0.120 Goal=   None    Shift=    0.000
 Gap=     0.143 Goal=   None    Shift=    0.000
 RMSDP=2.30D-06 MaxDP=1.27D-04 DE=-1.32D-07 OVMax= 7.07D-05

 Cycle  12  Pass 1  IDiag  1:
 RMSU=  1.20D-06    CP:  7.87D-01  1.86D-01  8.80D-01  2.43D-01  9.79D-01
                    CP:  8.73D-01  8.57D-01  1.16D+00  8.01D-01  1.11D+00
                    CP:  1.06D+00
 E= -614.058794603745     Delta-E=       -0.000000012329 Rises=F Damp=F
 DIIS: error= 4.95D-06 at cycle  12 NSaved=  12.
 NSaved=12 IEnMin=12 EnMin= -614.058794603745     IErMin=12 ErrMin= 4.95D-06
 ErrMax= 4.95D-06  0.00D+00 EMaxC= 1.00D-01 BMatC= 1.02D-08 BMatP= 4.30D-08
 IDIUse=1 WtCom= 1.00D+00 WtEn= 0.00D+00
 Coeff-Com: -0.256D-04 0.473D-04 0.713D-03-0.205D-03 0.200D-02 0.171D-02
 Coeff-Com: -0.911D-02-0.195D-01-0.158D-01 0.873D-01 0.434D+00 0.519D+00
 Coeff:     -0.256D-04 0.473D-04 0.713D-03-0.205D-03 0.200D-02 0.171D-02
 Coeff:     -0.911D-02-0.195D-01-0.158D-01 0.873D-01 0.434D+00 0.519D+00
 Gap=     0.120 Goal=   None    Shift=    0.000
 Gap=     0.143 Goal=   None    Shift=    0.000
 RMSDP=9.75D-07 MaxDP=5.72D-05 DE=-1.23D-08 OVMax= 2.64D-05

 Cycle  13  Pass 1  IDiag  1:
 RMSU=  6.67D-07    CP:  7.87D-01  1.86D-01  8.80D-01  2.43D-01  9.79D-01
                    CP:  8.72D-01  8.59D-01  1.16D+00  7.91D-01  1.14D+00
                    CP:  1.03D+00  7.43D-01
 E= -614.058794606676     Delta-E=       -0.000000002931 Rises=F Damp=F
 DIIS: error= 1.19D-06 at cycle  13 NSaved=  13.
 NSaved=13 IEnMin=13 EnMin= -614.058794606676     IErMin=13 ErrMin= 1.19D-06
 ErrMax= 1.19D-06  0.00D+00 EMaxC= 1.00D-01 BMatC= 1.27D-09 BMatP= 1.02D-08
 IDIUse=1 WtCom= 1.00D+00 WtEn= 0.00D+00
 Coeff-Com:  0.210D-05-0.871D-05 0.915D-04-0.591D-04 0.388D-03 0.251D-02
 Coeff-Com:  0.348D-02-0.465D-02-0.166D-01-0.349D-01-0.568D-01 0.211D+00
 Coeff-Com:  0.896D+00
 Coeff:      0.210D-05-0.871D-05 0.915D-04-0.591D-04 0.388D-03 0.251D-02
 Coeff:      0.348D-02-0.465D-02-0.166D-01-0.349D-01-0.568D-01 0.211D+00
 Coeff:      0.896D+00
 Gap=     0.120 Goal=   None    Shift=    0.000
 Gap=     0.143 Goal=   None    Shift=    0.000
 RMSDP=4.59D-07 MaxDP=3.26D-05 DE=-2.93D-09 OVMax= 1.53D-05

 Cycle  14  Pass 1  IDiag  1:
 RMSU=  1.71D-07    CP:  7.87D-01  1.86D-01  8.80D-01  2.43D-01  9.79D-01
                    CP:  8.73D-01  8.57D-01  1.16D+00  7.94D-01  1.15D+00
                    CP:  1.06D+00  8.41D-01  7.95D-01
 E= -614.058794607157     Delta-E=       -0.000000000481 Rises=F Damp=F
 DIIS: error= 4.79D-07 at cycle  14 NSaved=  14.
 NSaved=14 IEnMin=14 EnMin= -614.058794607157     IErMin=14 ErrMin= 4.79D-07
 ErrMax= 4.79D-07  0.00D+00 EMaxC= 1.00D-01 BMatC= 1.11D-10 BMatP= 1.27D-09
 IDIUse=1 WtCom= 1.00D+00 WtEn= 0.00D+00
 Coeff-Com:  0.303D-05-0.887D-05-0.136D-04-0.676D-05 0.972D-05 0.946D-03
 Coeff-Com:  0.196D-02-0.150D-03-0.593D-02-0.217D-01-0.570D-01 0.487D-01
 Coeff-Com:  0.350D+00 0.683D+00
 Coeff:      0.303D-05-0.887D-05-0.136D-04-0.676D-05 0.972D-05 0.946D-03
 Coeff:      0.196D-02-0.150D-03-0.593D-02-0.217D-01-0.570D-01 0.487D-01
 Coeff:      0.350D+00 0.683D+00
 Gap=     0.120 Goal=   None    Shift=    0.000
 Gap=     0.143 Goal=   None    Shift=    0.000
 RMSDP=1.91D-07 MaxDP=1.40D-05 DE=-4.81D-10 OVMax= 4.46D-06

 Cycle  15  Pass 1  IDiag  1:
 RMSU=  8.43D-08    CP:  7.87D-01  1.86D-01  8.80D-01  2.43D-01  9.79D-01
                    CP:  8.73D-01  8.57D-01  1.16D+00  7.93D-01  1.15D+00
                    CP:  1.05D+00  8.54D-01  8.45D-01  1.01D+00
 E= -614.058794607177     Delta-E=       -0.000000000020 Rises=F Damp=F
 DIIS: error= 2.77D-07 at cycle  15 NSaved=  15.
 NSaved=15 IEnMin=15 EnMin= -614.058794607177     IErMin=15 ErrMin= 2.77D-07
 ErrMax= 2.77D-07  0.00D+00 EMaxC= 1.00D-01 BMatC= 5.13D-11 BMatP= 1.11D-10
 IDIUse=1 WtCom= 1.00D+00 WtEn= 0.00D+00
 Coeff-Com:  0.113D-05-0.309D-05-0.298D-04 0.975D-05-0.821D-04 0.211D-04
 Coeff-Com:  0.341D-03 0.123D-02 0.877D-04-0.519D-02-0.223D-01-0.204D-01
 Coeff-Com: -0.117D-02 0.430D+00 0.618D+00
 Coeff:      0.113D-05-0.309D-05-0.298D-04 0.975D-05-0.821D-04 0.211D-04
 Coeff:      0.341D-03 0.123D-02 0.877D-04-0.519D-02-0.223D-01-0.204D-01
 Coeff:     -0.117D-02 0.430D+00 0.618D+00
 Gap=     0.120 Goal=   None    Shift=    0.000
 Gap=     0.143 Goal=   None    Shift=    0.000
 RMSDP=7.68D-08 MaxDP=5.14D-06 DE=-2.02D-11 OVMax= 3.66D-06

 Cycle  16  Pass 1  IDiag  1:
 RMSU=  3.98D-08    CP:  7.87D-01  1.86D-01  8.80D-01  2.43D-01  9.79D-01
                    CP:  8.73D-01  8.57D-01  1.16D+00  7.92D-01  1.15D+00
                    CP:  1.05D+00  8.60D-01  8.56D-01  1.04D+00  7.25D-01
 E= -614.058794607186     Delta-E=       -0.000000000009 Rises=F Damp=F
 DIIS: error= 1.19D-07 at cycle  16 NSaved=  16.
 NSaved=16 IEnMin=16 EnMin= -614.058794607186     IErMin=16 ErrMin= 1.19D-07
 ErrMax= 1.19D-07  0.00D+00 EMaxC= 1.00D-01 BMatC= 4.98D-12 BMatP= 5.13D-11
 IDIUse=1 WtCom= 1.00D+00 WtEn= 0.00D+00
 Coeff-Com: -0.296D-06 0.999D-06-0.117D-04 0.499D-05-0.368D-04-0.147D-03
 Coeff-Com: -0.198D-03 0.572D-03 0.970D-03 0.176D-02 0.118D-02-0.144D-01
 Coeff-Com: -0.510D-01 0.147D-01 0.202D+00 0.845D+00
 Coeff:     -0.296D-06 0.999D-06-0.117D-04 0.499D-05-0.368D-04-0.147D-03
 Coeff:     -0.198D-03 0.572D-03 0.970D-03 0.176D-02 0.118D-02-0.144D-01
 Coeff:     -0.510D-01 0.147D-01 0.202D+00 0.845D+00
 Gap=     0.120 Goal=   None    Shift=    0.000
 Gap=     0.143 Goal=   None    Shift=    0.000
 RMSDP=2.93D-08 MaxDP=1.85D-06 DE=-8.75D-12 OVMax= 1.29D-06

 Cycle  17  Pass 1  IDiag  1:
 RMSU=  1.56D-08    CP:  7.87D-01  1.86D-01  8.80D-01  2.43D-01  9.79D-01
                    CP:  8.73D-01  8.57D-01  1.16D+00  7.92D-01  1.15D+00
                    CP:  1.05D+00  8.56D-01  8.48D-01  1.09D+00  8.03D-01
                    CP:  1.04D+00
 E= -614.058794607196     Delta-E=       -0.000000000010 Rises=F Damp=F
 DIIS: error= 4.01D-08 at cycle  17 NSaved=  17.
 NSaved=17 IEnMin=17 EnMin= -614.058794607196     IErMin=17 ErrMin= 4.01D-08
 ErrMax= 4.01D-08  0.00D+00 EMaxC= 1.00D-01 BMatC= 1.50D-12 BMatP= 4.98D-12
 IDIUse=1 WtCom= 1.00D+00 WtEn= 0.00D+00
 Coeff-Com: -0.464D-06 0.112D-05 0.782D-06 0.447D-06 0.352D-06-0.750D-04
 Coeff-Com: -0.193D-03 0.386D-04 0.447D-03 0.210D-02 0.537D-02-0.288D-02
 Coeff-Com: -0.250D-01-0.899D-01-0.214D-01 0.457D+00 0.674D+00
 Coeff:     -0.464D-06 0.112D-05 0.782D-06 0.447D-06 0.352D-06-0.750D-04
 Coeff:     -0.193D-03 0.386D-04 0.447D-03 0.210D-02 0.537D-02-0.288D-02
 Coeff:     -0.250D-01-0.899D-01-0.214D-01 0.457D+00 0.674D+00
 Gap=     0.120 Goal=   None    Shift=    0.000
 Gap=     0.143 Goal=   None    Shift=    0.000
 RMSDP=1.07D-08 MaxDP=6.74D-07 DE=-1.00D-11 OVMax= 5.80D-07

 Cycle  18  Pass 1  IDiag  1:
 RMSU=  6.04D-09    CP:  7.87D-01  1.86D-01  8.80D-01  2.43D-01  9.79D-01
                    CP:  8.73D-01  8.57D-01  1.16D+00  7.92D-01  1.15D+00
                    CP:  1.05D+00  8.55D-01  8.47D-01  1.09D+00  8.30D-01
                    CP:  1.15D+00  1.12D+00
 E= -614.058794607199     Delta-E=       -0.000000000003 Rises=F Damp=F
 DIIS: error= 2.37D-08 at cycle  18 NSaved=  18.
 NSaved=18 IEnMin=18 EnMin= -614.058794607199     IErMin=18 ErrMin= 2.37D-08
 ErrMax= 2.37D-08  0.00D+00 EMaxC= 1.00D-01 BMatC= 2.06D-13 BMatP= 1.50D-12
 IDIUse=1 WtCom= 1.00D+00 WtEn= 0.00D+00
 Coeff-Com: -0.450D-07 0.495D-07 0.270D-05-0.663D-06 0.695D-05 0.988D-05
 Coeff-Com: -0.270D-04-0.112D-03-0.850D-04 0.334D-03 0.146D-02 0.269D-02
 Coeff-Com:  0.425D-02-0.418D-01-0.587D-01-0.350D-01 0.249D+00 0.878D+00
 Coeff:     -0.450D-07 0.495D-07 0.270D-05-0.663D-06 0.695D-05 0.988D-05
 Coeff:     -0.270D-04-0.112D-03-0.850D-04 0.334D-03 0.146D-02 0.269D-02
 Coeff:      0.425D-02-0.418D-01-0.587D-01-0.350D-01 0.249D+00 0.878D+00
 Gap=     0.120 Goal=   None    Shift=    0.000
 Gap=     0.143 Goal=   None    Shift=    0.000
 RMSDP=7.21D-09 MaxDP=4.20D-07 DE=-2.96D-12 OVMax= 3.79D-07

 Error on total polarization charges =  0.02122
 SCF Done:  E(UB3LYP) =  -614.058794607     A.U. after   18 cycles
            NFock= 18  Conv=0.72D-08     -V/T= 2.0043
 <Sx>= 0.0000 <Sy>= 0.0000 <Sz>= 0.5000 <S**2>= 0.7588 S= 0.5044
 <L.S>=  0.00000000000    
 KE= 6.114286941008D+02 PE=-3.108127807080D+03 EE= 1.052148503129D+03
 Annihilation of the first spin contaminant:
 S**2 before annihilation     0.7588,   after     0.7500
 Leave Link  502 at Sun Feb 11 00:52:09 2024, MaxMem=  4026531840 cpu:            2346.9 elap:             311.6
 (Enter /sysapps/ubuntu-applications/gaussian/Gaussian/AVX2/g16/l601.exe)
 Copying SCF densities to generalized density rwf, IOpCl= 1 IROHF=0.

 **********************************************************************

            Population analysis using the SCF density.

 **********************************************************************

 Alpha  occ. eigenvalues --  -19.07067 -19.06906 -10.21591 -10.21589 -10.18121
 Alpha  occ. eigenvalues --  -10.17267 -10.16869 -10.16853 -10.16782 -10.16510
 Alpha  occ. eigenvalues --  -10.16309 -10.15510 -10.15319 -10.15277  -0.99522
 Alpha  occ. eigenvalues --   -0.99268  -0.85511  -0.80780  -0.76723  -0.74952
 Alpha  occ. eigenvalues --   -0.69692  -0.68449  -0.64759  -0.60599  -0.58738
 Alpha  occ. eigenvalues --   -0.53592  -0.50384  -0.49029  -0.46591  -0.44470
 Alpha  occ. eigenvalues --   -0.42786  -0.42726  -0.41096  -0.40597  -0.39995
 Alpha  occ. eigenvalues --   -0.38855  -0.38683  -0.38056  -0.37325  -0.36094
 Alpha  occ. eigenvalues --   -0.36064  -0.34280  -0.34080  -0.33321  -0.26855
 Alpha  occ. eigenvalues --   -0.24552  -0.24354  -0.23836  -0.22920  -0.14674
 Alpha virt. eigenvalues --   -0.02684  -0.01280  -0.00340   0.00674   0.01138
 Alpha virt. eigenvalues --    0.02462   0.02741   0.03056   0.04200   0.04854
 Alpha virt. eigenvalues --    0.04914   0.05411   0.05556   0.06105   0.06855
 Alpha virt. eigenvalues --    0.07758   0.08087   0.08596   0.08791   0.09378
 Alpha virt. eigenvalues --    0.10481   0.10582   0.11247   0.11360   0.11732
 Alpha virt. eigenvalues --    0.12446   0.12813   0.13016   0.13070   0.13650
 Alpha virt. eigenvalues --    0.14097   0.14317   0.14407   0.15330   0.15572
 Alpha virt. eigenvalues --    0.15890   0.16499   0.16689   0.16880   0.17780
 Alpha virt. eigenvalues --    0.17853   0.18159   0.18650   0.18919   0.19044
 Alpha virt. eigenvalues --    0.20021   0.20907   0.21521   0.21956   0.22981
 Alpha virt. eigenvalues --    0.23142   0.23450   0.23845   0.23916   0.24688
 Alpha virt. eigenvalues --    0.25427   0.25599   0.25748   0.26695   0.27467
 Alpha virt. eigenvalues --    0.27797   0.28385   0.29253   0.29818   0.30169
 Alpha virt. eigenvalues --    0.30639   0.30899   0.31208   0.32040   0.32513
 Alpha virt. eigenvalues --    0.32976   0.33333   0.33632   0.34367   0.34629
 Alpha virt. eigenvalues --    0.35230   0.35917   0.36498   0.36708   0.37347
 Alpha virt. eigenvalues --    0.39093   0.40218   0.40370   0.41532   0.42552
 Alpha virt. eigenvalues --    0.43989   0.44506   0.46292   0.47526   0.49166
 Alpha virt. eigenvalues --    0.52091   0.52917   0.53658   0.55323   0.55965
 Alpha virt. eigenvalues --    0.56322   0.56981   0.58238   0.60347   0.60636
 Alpha virt. eigenvalues --    0.60727   0.61547   0.61821   0.62655   0.62698
 Alpha virt. eigenvalues --    0.63823   0.64710   0.65812   0.65994   0.66470
 Alpha virt. eigenvalues --    0.66524   0.67316   0.68108   0.68607   0.69090
 Alpha virt. eigenvalues --    0.71623   0.72522   0.72655   0.73086   0.74021
 Alpha virt. eigenvalues --    0.76929   0.77976   0.77979   0.78579   0.79657
 Alpha virt. eigenvalues --    0.81906   0.82597   0.83532   0.85765   0.86494
 Alpha virt. eigenvalues --    0.89245   0.90798   0.91845   0.93488   0.93870
 Alpha virt. eigenvalues --    0.95125   0.95719   0.96067   0.96367   0.96777
 Alpha virt. eigenvalues --    0.98295   0.98791   1.00089   1.01044   1.03668
 Alpha virt. eigenvalues --    1.06241   1.06280   1.06425   1.08625   1.11108
 Alpha virt. eigenvalues --    1.11749   1.13761   1.13786   1.14102   1.16101
 Alpha virt. eigenvalues --    1.19165   1.22248   1.24181   1.24785   1.26826
 Alpha virt. eigenvalues --    1.27976   1.31910   1.32566   1.35730   1.37630
 Alpha virt. eigenvalues --    1.38891   1.39968   1.43385   1.46359   1.46975
 Alpha virt. eigenvalues --    1.47932   1.49771   1.50105   1.50194   1.52110
 Alpha virt. eigenvalues --    1.53712   1.54947   1.55382   1.56725   1.57904
 Alpha virt. eigenvalues --    1.59682   1.60076   1.60624   1.62211   1.62474
 Alpha virt. eigenvalues --    1.65571   1.66997   1.69107   1.69759   1.70940
 Alpha virt. eigenvalues --    1.72058   1.75363   1.75978   1.78490   1.79984
 Alpha virt. eigenvalues --    1.80636   1.81768   1.81788   1.84539   1.86084
 Alpha virt. eigenvalues --    1.86715   1.89307   1.90087   1.90753   1.93791
 Alpha virt. eigenvalues --    1.94769   1.95393   1.96542   1.97049   2.00623
 Alpha virt. eigenvalues --    2.02253   2.03504   2.05085   2.05491   2.06941
 Alpha virt. eigenvalues --    2.10331   2.11874   2.15562   2.15930   2.19517
 Alpha virt. eigenvalues --    2.20736   2.23599   2.24297   2.27884   2.29245
 Alpha virt. eigenvalues --    2.32309   2.33464   2.34958   2.38604   2.40598
 Alpha virt. eigenvalues --    2.43082   2.48650   2.49838   2.50524   2.55391
 Alpha virt. eigenvalues --    2.55430   2.56856   2.57501   2.57954   2.59609
 Alpha virt. eigenvalues --    2.59857   2.62561   2.63895   2.65864   2.68984
 Alpha virt. eigenvalues --    2.70725   2.72188   2.73866   2.75356   2.75969
 Alpha virt. eigenvalues --    2.77825   2.78053   2.79570   2.80317   2.81507
 Alpha virt. eigenvalues --    2.83779   2.85297   2.87091   2.87931   2.89179
 Alpha virt. eigenvalues --    2.91199   2.92152   2.93479   2.97000   2.97666
 Alpha virt. eigenvalues --    2.98853   3.05029   3.06893   3.11060   3.11945
 Alpha virt. eigenvalues --    3.13963   3.18868   3.20773   3.23110   3.27664
 Alpha virt. eigenvalues --    3.29211   3.30345   3.33215   3.35405   3.37938
 Alpha virt. eigenvalues --    3.40897   3.45517   3.51175   3.52498   3.54927
 Alpha virt. eigenvalues --    3.60296   3.63997   3.69266   3.72768   3.78993
 Alpha virt. eigenvalues --    3.79047   3.81882   3.85681   3.89914   3.94043
 Alpha virt. eigenvalues --    4.06527   4.11979   4.18912   4.29094   4.30743
 Alpha virt. eigenvalues --    4.36315   4.44248   4.79931   4.85752   5.08354
 Alpha virt. eigenvalues --    5.10519   5.26314   5.33681   5.75758   5.84553
 Alpha virt. eigenvalues --   23.57139  23.78109  23.92479  23.92581  23.94542
 Alpha virt. eigenvalues --   23.95388  23.99214  24.00104  24.02808  24.10684
 Alpha virt. eigenvalues --   24.16253  24.19606  50.05580  50.10247
  Beta  occ. eigenvalues --  -19.06473 -19.06264 -10.21428 -10.21426 -10.18111
  Beta  occ. eigenvalues --  -10.17233 -10.16814 -10.16809 -10.16595 -10.16469
  Beta  occ. eigenvalues --  -10.16301 -10.15523 -10.15276 -10.15218  -0.98456
  Beta  occ. eigenvalues --   -0.98152  -0.85320  -0.80272  -0.76597  -0.74754
  Beta  occ. eigenvalues --   -0.69295  -0.68255  -0.64209  -0.60308  -0.58504
  Beta  occ. eigenvalues --   -0.53317  -0.50190  -0.48794  -0.46351  -0.44341
  Beta  occ. eigenvalues --   -0.42508  -0.41951  -0.40620  -0.40439  -0.39878
  Beta  occ. eigenvalues --   -0.38432  -0.37926  -0.37670  -0.37241  -0.35880
  Beta  occ. eigenvalues --   -0.34116  -0.33829  -0.33192  -0.33167  -0.24334
  Beta  occ. eigenvalues --   -0.23931  -0.23546  -0.23280  -0.22350
  Beta virt. eigenvalues --   -0.08082  -0.01890  -0.00321  -0.00161   0.00678
  Beta virt. eigenvalues --    0.01151   0.02472   0.02752   0.03157   0.04219
  Beta virt. eigenvalues --    0.04860   0.05338   0.05566   0.05996   0.06719
  Beta virt. eigenvalues --    0.06874   0.07774   0.08652   0.08723   0.08804
  Beta virt. eigenvalues --    0.09395   0.10625   0.10652   0.11272   0.11748
  Beta virt. eigenvalues --    0.11751   0.12470   0.12837   0.13084   0.13319
  Beta virt. eigenvalues --    0.13671   0.14124   0.14402   0.14420   0.15349
  Beta virt. eigenvalues --    0.15589   0.15980   0.16514   0.16702   0.17073
  Beta virt. eigenvalues --    0.17788   0.17916   0.18454   0.18675   0.19041
  Beta virt. eigenvalues --    0.19068   0.20143   0.20886   0.21568   0.21980
  Beta virt. eigenvalues --    0.23179   0.23196   0.23516   0.24049   0.24100
  Beta virt. eigenvalues --    0.24753   0.25688   0.25827   0.25848   0.26775
  Beta virt. eigenvalues --    0.27539   0.27849   0.28495   0.29300   0.29925
  Beta virt. eigenvalues --    0.30278   0.30993   0.31109   0.31327   0.32146
  Beta virt. eigenvalues --    0.32619   0.33055   0.33442   0.33752   0.34678
  Beta virt. eigenvalues --    0.34795   0.35345   0.36036   0.36527   0.36799
  Beta virt. eigenvalues --    0.37479   0.39226   0.40289   0.40503   0.41615
  Beta virt. eigenvalues --    0.42677   0.44191   0.44854   0.46385   0.47567
  Beta virt. eigenvalues --    0.49358   0.52289   0.53005   0.53768   0.55455
  Beta virt. eigenvalues --    0.56039   0.56931   0.57089   0.58330   0.60475
  Beta virt. eigenvalues --    0.60690   0.60862   0.61608   0.62084   0.62810
  Beta virt. eigenvalues --    0.63211   0.63972   0.65100   0.66016   0.66187
  Beta virt. eigenvalues --    0.66553   0.66665   0.67381   0.68296   0.68844
  Beta virt. eigenvalues --    0.69177   0.71670   0.72782   0.72920   0.73157
  Beta virt. eigenvalues --    0.74112   0.76979   0.78054   0.78245   0.78647
  Beta virt. eigenvalues --    0.79733   0.82020   0.82646   0.83609   0.85947
  Beta virt. eigenvalues --    0.86552   0.89393   0.90903   0.91958   0.93683
  Beta virt. eigenvalues --    0.93972   0.95427   0.95893   0.96414   0.96438
  Beta virt. eigenvalues --    0.96924   0.98468   0.99070   1.00289   1.01299
  Beta virt. eigenvalues --    1.04018   1.06445   1.06562   1.06571   1.08715
  Beta virt. eigenvalues --    1.11644   1.11851   1.13990   1.14451   1.14908
  Beta virt. eigenvalues --    1.17289   1.19329   1.22470   1.25013   1.25170
  Beta virt. eigenvalues --    1.27647   1.28253   1.32129   1.32916   1.35984
  Beta virt. eigenvalues --    1.37788   1.39227   1.40106   1.43628   1.46442
  Beta virt. eigenvalues --    1.47051   1.48030   1.49841   1.50240   1.50427
  Beta virt. eigenvalues --    1.52200   1.53932   1.55222   1.55492   1.56782
  Beta virt. eigenvalues --    1.57987   1.59802   1.60197   1.60866   1.62398
  Beta virt. eigenvalues --    1.62621   1.65778   1.67169   1.69281   1.70256
  Beta virt. eigenvalues --    1.71034   1.72147   1.75486   1.76167   1.78617
  Beta virt. eigenvalues --    1.80181   1.80836   1.81936   1.82203   1.84719
  Beta virt. eigenvalues --    1.86399   1.86959   1.89375   1.90435   1.91081
  Beta virt. eigenvalues --    1.94066   1.95006   1.95607   1.96719   1.97445
  Beta virt. eigenvalues --    2.00862   2.02406   2.03646   2.05261   2.05912
  Beta virt. eigenvalues --    2.07096   2.10417   2.12051   2.15927   2.16198
  Beta virt. eigenvalues --    2.19600   2.20862   2.23819   2.24512   2.28162
  Beta virt. eigenvalues --    2.29343   2.32518   2.33628   2.35268   2.38913
  Beta virt. eigenvalues --    2.40862   2.43182   2.48685   2.49898   2.50538
  Beta virt. eigenvalues --    2.55481   2.55529   2.57085   2.57568   2.58075
  Beta virt. eigenvalues --    2.59715   2.59992   2.62682   2.63995   2.66471
  Beta virt. eigenvalues --    2.69416   2.70861   2.72237   2.73921   2.75481
  Beta virt. eigenvalues --    2.76048   2.77891   2.78106   2.80278   2.80368
  Beta virt. eigenvalues --    2.82269   2.83840   2.85693   2.87252   2.89067
  Beta virt. eigenvalues --    2.90059   2.91335   2.92768   2.94170   2.98173
  Beta virt. eigenvalues --    2.98715   2.99870   3.05364   3.07685   3.11459
  Beta virt. eigenvalues --    3.12282   3.14210   3.19186   3.20858   3.23511
  Beta virt. eigenvalues --    3.27855   3.29389   3.30458   3.34851   3.37014
  Beta virt. eigenvalues --    3.38004   3.41053   3.45730   3.51416   3.52827
  Beta virt. eigenvalues --    3.55057   3.60472   3.64234   3.69356   3.73024
  Beta virt. eigenvalues --    3.79010   3.79115   3.82261   3.85811   3.90031
  Beta virt. eigenvalues --    3.94233   4.06614   4.12150   4.19236   4.29438
  Beta virt. eigenvalues --    4.30972   4.36457   4.44512   4.80440   4.85839
  Beta virt. eigenvalues --    5.10817   5.13166   5.26810   5.34205   5.76283
  Beta virt. eigenvalues --    5.85086  23.57207  23.78266  23.92593  23.92641
  Beta virt. eigenvalues --   23.94668  23.95507  23.99232  24.00155  24.02854
  Beta virt. eigenvalues --   24.10715  24.16392  24.19641  50.06187  50.10880
          Condensed to atoms (all electrons):
               1          2          3          4          5          6
     1  C    8.410839  -1.574553  -0.646998   2.050598  -0.633564   0.812098
     2  C   -1.574553   9.398603   0.395609   0.241703   1.214277  -0.645677
     3  C   -0.646998   0.395609   6.706589  -0.163282  -0.910959  -0.454956
     4  C    2.050598   0.241703  -0.163282  13.523928  -0.046176  -1.077829
     5  C   -0.633564   1.214277  -0.910959  -0.046176  11.000624  -1.305941
     6  C    0.812098  -0.645677  -0.454956  -1.077829  -1.305941  10.694984
     7  C   -0.337589  -2.283018   0.298120  -2.380451  -1.314800  -0.254611
     8  C   -0.674224  -0.717955   0.106470  -5.370822   0.649023   0.010942
     9  C   -0.092342   0.274397  -0.229152   0.653385  -1.219692   0.401501
    10  C   -0.771732  -0.472376   0.882788  -0.871119  -1.629712  -2.578653
    11  O   -0.100383  -0.042334  -0.008771  -0.014000  -0.058334   0.001741
    12  O   -0.027524   0.010987   0.037446  -0.083602  -0.245337   0.102980
    13  C   -0.715264   0.446010   0.022404   0.119251  -0.198822   0.121326
    14  H   -0.080071   0.463954  -0.030437   0.016986   0.033765  -0.024952
    15  C   -0.090404  -0.050991   0.018532  -1.156772   0.158557   0.000348
    16  H   -0.004685   0.005135   0.004701   0.036431  -0.064862  -0.024262
    17  H    0.003562   0.007793  -0.085721   0.025587   0.035556   0.368206
    18  H    0.017879  -0.078229   0.447241   0.002518  -0.042944  -0.059826
    19  H   -0.183064   0.029023   0.024641  -0.035794  -0.023606   0.009010
    20  H    0.029922  -0.049813  -0.000365   0.016752   0.006276  -0.001205
    21  H    0.030311  -0.049527  -0.000315   0.017068   0.006394  -0.001306
    22  H   -0.004387  -0.001180   0.000514  -0.019507  -0.000264  -0.000929
    23  H    0.003337  -0.001857  -0.000298  -0.014056   0.012694   0.000223
    24  H   -0.004374  -0.001163   0.000509  -0.019605  -0.000268  -0.000944
               7          8          9         10         11         12
     1  C   -0.337589  -0.674224  -0.092342  -0.771732  -0.100383  -0.027524
     2  C   -2.283018  -0.717955   0.274397  -0.472376  -0.042334   0.010987
     3  C    0.298120   0.106470  -0.229152   0.882788  -0.008771   0.037446
     4  C   -2.380451  -5.370822   0.653385  -0.871119  -0.014000  -0.083602
     5  C   -1.314800   0.649023  -1.219692  -1.629712  -0.058334  -0.245337
     6  C   -0.254611   0.010942   0.401501  -2.578653   0.001741   0.102980
     7  C   12.252649   1.574570  -1.876626   1.407808   0.743569  -0.054797
     8  C    1.574570  12.673222  -1.660049  -0.234700  -0.480146  -0.024489
     9  C   -1.876626  -1.660049  11.850494  -1.550240  -0.069617  -0.223691
    10  C    1.407808  -0.234700  -1.550240  11.652899  -0.044348   0.516174
    11  O    0.743569  -0.480146  -0.069617  -0.044348   8.484188   0.000112
    12  O   -0.054797  -0.024489  -0.223691   0.516174   0.000112   8.492313
    13  C   -0.667575  -0.318255   0.041402  -0.005784   0.081306  -0.002880
    14  H    0.008293   0.002446   0.000038  -0.019397  -0.000336   0.000085
    15  C   -0.400015   0.025302  -0.265744   0.510093  -0.020910   0.017685
    16  H    0.052856  -0.065227   0.401560  -0.002709   0.000326  -0.016498
    17  H   -0.006355  -0.002401   0.020006  -0.019546   0.000153  -0.001423
    18  H   -0.011230   0.000575   0.010117   0.014566   0.000034   0.002085
    19  H    0.025974   0.017151  -0.003789   0.004670   0.017280  -0.000001
    20  H    0.041800  -0.008310  -0.000930   0.002649  -0.023721  -0.000044
    21  H    0.041388  -0.008502  -0.000965   0.002672  -0.023744  -0.000043
    22  H    0.005670   0.034822  -0.038885   0.006945  -0.003671   0.000005
    23  H    0.008772  -0.105147   0.005704   0.001788   0.000991   0.000824
    24  H    0.005530   0.034834  -0.038867   0.006955  -0.003721   0.000006
              13         14         15         16         17         18
     1  C   -0.715264  -0.080071  -0.090404  -0.004685   0.003562   0.017879
     2  C    0.446010   0.463954  -0.050991   0.005135   0.007793  -0.078229
     3  C    0.022404  -0.030437   0.018532   0.004701  -0.085721   0.447241
     4  C    0.119251   0.016986  -1.156772   0.036431   0.025587   0.002518
     5  C   -0.198822   0.033765   0.158557  -0.064862   0.035556  -0.042944
     6  C    0.121326  -0.024952   0.000348  -0.024262   0.368206  -0.059826
     7  C   -0.667575   0.008293  -0.400015   0.052856  -0.006355  -0.011230
     8  C   -0.318255   0.002446   0.025302  -0.065227  -0.002401   0.000575
     9  C    0.041402   0.000038  -0.265744   0.401560   0.020006   0.010117
    10  C   -0.005784  -0.019397   0.510093  -0.002709  -0.019546   0.014566
    11  O    0.081306  -0.000336  -0.020910   0.000326   0.000153   0.000034
    12  O   -0.002880   0.000085   0.017685  -0.016498  -0.001423   0.002085
    13  C    6.436209  -0.021321  -0.021427   0.001543  -0.003058   0.005770
    14  H   -0.021321   0.541420  -0.000469  -0.000010   0.002095  -0.018464
    15  C   -0.021427  -0.000469   6.452840  -0.014126  -0.003814  -0.000084
    16  H    0.001543  -0.000010  -0.014126   0.545311  -0.000472  -0.000091
    17  H   -0.003058   0.002095  -0.003814  -0.000472   0.516750  -0.016566
    18  H    0.005770  -0.018464  -0.000084  -0.000091  -0.016566   0.536602
    19  H    0.440393   0.001621   0.002010  -0.000064  -0.000529   0.001508
    20  H    0.348144   0.000343  -0.002203   0.000072   0.000114  -0.000014
    21  H    0.347796   0.000336  -0.002221   0.000072   0.000113  -0.000015
    22  H   -0.000441  -0.000027   0.363486   0.000335  -0.000030   0.000002
    23  H   -0.000060   0.000009   0.431353   0.000206   0.000088   0.000000
    24  H   -0.000464  -0.000027   0.363707   0.000332  -0.000030   0.000002
              19         20         21         22         23         24
     1  C   -0.183064   0.029922   0.030311  -0.004387   0.003337  -0.004374
     2  C    0.029023  -0.049813  -0.049527  -0.001180  -0.001857  -0.001163
     3  C    0.024641  -0.000365  -0.000315   0.000514  -0.000298   0.000509
     4  C   -0.035794   0.016752   0.017068  -0.019507  -0.014056  -0.019605
     5  C   -0.023606   0.006276   0.006394  -0.000264   0.012694  -0.000268
     6  C    0.009010  -0.001205  -0.001306  -0.000929   0.000223  -0.000944
     7  C    0.025974   0.041800   0.041388   0.005670   0.008772   0.005530
     8  C    0.017151  -0.008310  -0.008502   0.034822  -0.105147   0.034834
     9  C   -0.003789  -0.000930  -0.000965  -0.038885   0.005704  -0.038867
    10  C    0.004670   0.002649   0.002672   0.006945   0.001788   0.006955
    11  O    0.017280  -0.023721  -0.023744  -0.003671   0.000991  -0.003721
    12  O   -0.000001  -0.000044  -0.000043   0.000005   0.000824   0.000006
    13  C    0.440393   0.348144   0.347796  -0.000441  -0.000060  -0.000464
    14  H    0.001621   0.000343   0.000336  -0.000027   0.000009  -0.000027
    15  C    0.002010  -0.002203  -0.002221   0.363486   0.431353   0.363707
    16  H   -0.000064   0.000072   0.000072   0.000335   0.000206   0.000332
    17  H   -0.000529   0.000114   0.000113  -0.000030   0.000088  -0.000030
    18  H    0.001508  -0.000014  -0.000015   0.000002   0.000000   0.000002
    19  H    0.578867  -0.024939  -0.024914   0.000079   0.000016   0.000079
    20  H   -0.024939   0.565221  -0.057332   0.000001  -0.000060   0.000048
    21  H   -0.024914  -0.057332   0.565059   0.000050  -0.000061   0.000001
    22  H    0.000079   0.000001   0.000050   0.577401  -0.019092  -0.066287
    23  H    0.000016  -0.000060  -0.000061  -0.019092   0.541331  -0.019075
    24  H    0.000079   0.000048   0.000001  -0.066287  -0.019075   0.577370
          Atomic-Atomic Spin Densities.
               1          2          3          4          5          6
     1  C   -0.005932   0.022834   0.005738  -0.057495   0.002913   0.006913
     2  C    0.022834  -0.007376  -0.018387  -0.026619   0.029649  -0.035584
     3  C    0.005738  -0.018387   0.035337   0.015331   0.000538   0.028977
     4  C   -0.057495  -0.026619   0.015331  -0.088773  -0.054365   0.079295
     5  C    0.002913   0.029649   0.000538  -0.054365  -0.029730  -0.031923
     6  C    0.006913  -0.035584   0.028977   0.079295  -0.031923  -0.103467
     7  C    0.011261   0.027820   0.004529   0.056057   0.042162   0.004405
     8  C    0.002769   0.005631   0.002437   0.109463  -0.050645   0.006848
     9  C    0.012989   0.008444  -0.015357   0.027044   0.049139  -0.041410
    10  C    0.007828   0.028791  -0.019393  -0.022812   0.109061   0.107503
    11  O    0.007462   0.001130  -0.000683  -0.027064   0.007638   0.000352
    12  O   -0.001595   0.000128  -0.008041   0.011129  -0.024927  -0.004982
    13  C    0.009306  -0.009762  -0.000225   0.000336  -0.005786   0.007790
    14  H    0.001446  -0.002644  -0.000141   0.000586  -0.000379   0.000021
    15  C   -0.005293  -0.001254  -0.000167  -0.007889   0.000580   0.002337
    16  H    0.000330  -0.000067  -0.000287  -0.000224   0.001296  -0.000013
    17  H    0.001141  -0.000739   0.000760   0.001195   0.002972  -0.002606
    18  H   -0.000249  -0.000042  -0.000084  -0.000076   0.001429   0.000373
    19  H   -0.001316   0.004428  -0.000133   0.000374  -0.000171   0.001030
    20  H   -0.001331  -0.000731   0.000022   0.000778  -0.000119  -0.000126
    21  H   -0.001331  -0.000761   0.000017   0.000789  -0.000133  -0.000114
    22  H    0.000162   0.000074  -0.000027  -0.000786   0.000886  -0.000168
    23  H   -0.000151  -0.000009  -0.000019  -0.002073   0.000983   0.000276
    24  H    0.000141   0.000066  -0.000026  -0.000790   0.000902  -0.000154
               7          8          9         10         11         12
     1  C    0.011261   0.002769   0.012989   0.007828   0.007462  -0.001595
     2  C    0.027820   0.005631   0.008444   0.028791   0.001130   0.000128
     3  C    0.004529   0.002437  -0.015357  -0.019393  -0.000683  -0.008041
     4  C    0.056057   0.109463   0.027044  -0.022812  -0.027064   0.011129
     5  C    0.042162  -0.050645   0.049139   0.109061   0.007638  -0.024927
     6  C    0.004405   0.006848  -0.041410   0.107503   0.000352  -0.004982
     7  C   -0.006088   0.060226   0.010408  -0.021333  -0.078512  -0.000527
     8  C    0.060226   0.102594  -0.103834  -0.020007  -0.022019   0.007121
     9  C    0.010408  -0.103834   0.037071   0.026469   0.011046  -0.003560
    10  C   -0.021333  -0.020007   0.026469  -0.035000  -0.000440  -0.064979
    11  O   -0.078512  -0.022019   0.011046  -0.000440   0.339309  -0.000183
    12  O   -0.000527   0.007121  -0.003560  -0.064979  -0.000183   0.307169
    13  C    0.011467   0.005491   0.004165  -0.003276  -0.001415   0.000097
    14  H   -0.000040   0.000006   0.000032   0.000657   0.000028   0.000013
    15  C    0.002000   0.019841   0.031021   0.001111  -0.002714  -0.000138
    16  H   -0.001897   0.000067   0.000919  -0.002425   0.000406   0.000022
    17  H    0.000030   0.000064  -0.002569   0.002348   0.000041  -0.003121
    18  H    0.000253   0.000047  -0.000251  -0.000765  -0.000018  -0.000031
    19  H   -0.002761  -0.000535   0.000214  -0.000443  -0.000462  -0.000001
    20  H    0.000291   0.000559  -0.000039   0.000020  -0.001137  -0.000008
    21  H    0.000298   0.000562  -0.000033   0.000017  -0.001140  -0.000008
    22  H   -0.002027  -0.009518   0.005569  -0.000091   0.002919  -0.000136
    23  H   -0.002730   0.001355   0.000915   0.000051  -0.000272  -0.000048
    24  H   -0.002065  -0.009416   0.005700  -0.000074   0.002916  -0.000136
              13         14         15         16         17         18
     1  C    0.009306   0.001446  -0.005293   0.000330   0.001141  -0.000249
     2  C   -0.009762  -0.002644  -0.001254  -0.000067  -0.000739  -0.000042
     3  C   -0.000225  -0.000141  -0.000167  -0.000287   0.000760  -0.000084
     4  C    0.000336   0.000586  -0.007889  -0.000224   0.001195  -0.000076
     5  C   -0.005786  -0.000379   0.000580   0.001296   0.002972   0.001429
     6  C    0.007790   0.000021   0.002337  -0.000013  -0.002606   0.000373
     7  C    0.011467  -0.000040   0.002000  -0.001897   0.000030   0.000253
     8  C    0.005491   0.000006   0.019841   0.000067   0.000064   0.000047
     9  C    0.004165   0.000032   0.031021   0.000919  -0.002569  -0.000251
    10  C   -0.003276   0.000657   0.001111  -0.002425   0.002348  -0.000765
    11  O   -0.001415   0.000028  -0.002714   0.000406   0.000041  -0.000018
    12  O    0.000097   0.000013  -0.000138   0.000022  -0.003121  -0.000031
    13  C   -0.015493   0.000324  -0.001218   0.000110   0.000325  -0.000079
    14  H    0.000324  -0.003137   0.000029  -0.000003  -0.000026   0.000228
    15  C   -0.001218   0.000029  -0.047742   0.004855   0.000104  -0.000013
    16  H    0.000110  -0.000003   0.004855  -0.011162   0.000066  -0.000001
    17  H    0.000325  -0.000026   0.000104   0.000066  -0.002418  -0.000057
    18  H   -0.000079   0.000228  -0.000013  -0.000001  -0.000057  -0.002775
    19  H    0.000600   0.000145  -0.000026   0.000002   0.000027  -0.000036
    20  H    0.001358  -0.000043   0.000037  -0.000004  -0.000005   0.000006
    21  H    0.001362  -0.000043   0.000033  -0.000004  -0.000005   0.000006
    22  H   -0.000118   0.000000   0.002374   0.000087   0.000001  -0.000000
    23  H   -0.000057   0.000002   0.002758  -0.000304   0.000003  -0.000000
    24  H   -0.000105   0.000000   0.002168   0.000089   0.000001  -0.000000
              19         20         21         22         23         24
     1  C   -0.001316  -0.001331  -0.001331   0.000162  -0.000151   0.000141
     2  C    0.004428  -0.000731  -0.000761   0.000074  -0.000009   0.000066
     3  C   -0.000133   0.000022   0.000017  -0.000027  -0.000019  -0.000026
     4  C    0.000374   0.000778   0.000789  -0.000786  -0.002073  -0.000790
     5  C   -0.000171  -0.000119  -0.000133   0.000886   0.000983   0.000902
     6  C    0.001030  -0.000126  -0.000114  -0.000168   0.000276  -0.000154
     7  C   -0.002761   0.000291   0.000298  -0.002027  -0.002730  -0.002065
     8  C   -0.000535   0.000559   0.000562  -0.009518   0.001355  -0.009416
     9  C    0.000214  -0.000039  -0.000033   0.005569   0.000915   0.005700
    10  C   -0.000443   0.000020   0.000017  -0.000091   0.000051  -0.000074
    11  O   -0.000462  -0.001137  -0.001140   0.002919  -0.000272   0.002916
    12  O   -0.000001  -0.000008  -0.000008  -0.000136  -0.000048  -0.000136
    13  C    0.000600   0.001358   0.001362  -0.000118  -0.000057  -0.000105
    14  H    0.000145  -0.000043  -0.000043   0.000000   0.000002   0.000000
    15  C   -0.000026   0.000037   0.000033   0.002374   0.002758   0.002168
    16  H    0.000002  -0.000004  -0.000004   0.000087  -0.000304   0.000089
    17  H    0.000027  -0.000005  -0.000005   0.000001   0.000003   0.000001
    18  H   -0.000036   0.000006   0.000006  -0.000000  -0.000000  -0.000000
    19  H   -0.001849   0.000302   0.000302  -0.000005  -0.000002  -0.000004
    20  H    0.000302  -0.000436   0.000615  -0.000015   0.000001   0.000014
    21  H    0.000302   0.000615  -0.000418   0.000015   0.000001  -0.000018
    22  H   -0.000005  -0.000015   0.000015   0.014699  -0.000159  -0.007153
    23  H   -0.000002   0.000001   0.000001  -0.000159  -0.000449  -0.000155
    24  H   -0.000004   0.000014  -0.000018  -0.007153  -0.000155   0.014678
 Mulliken charges and spin densities:
               1          2
     1  C    0.582611   0.018541
     2  C   -0.518815   0.025019
     3  C   -0.414310   0.030715
     4  C    0.548807   0.013411
     5  C    0.578117   0.051969
     6  C   -0.092266   0.025573
     7  C   -0.879933   0.113227
     8  C    0.540870   0.109106
     9  C   -0.388014   0.064089
    10  C   -0.809690   0.092820
    11  O   -0.435663   0.237189
    12  O   -0.500375   0.213256
    13  C   -0.456205   0.005197
    14  H    0.124120  -0.002938
    15  C   -0.314734   0.002792
    16  H    0.144126  -0.008142
    17  H    0.159922  -0.002469
    18  H    0.188564  -0.002135
    19  H    0.144377  -0.000320
    20  H    0.157595   0.000009
    21  H    0.157685   0.000012
    22  H    0.165388   0.006580
    23  H    0.152371  -0.000082
    24  H    0.165453   0.006581
 Sum of Mulliken charges =  -1.00000   1.00000
 Mulliken charges and spin densities with hydrogens summed into heavy atoms:
               1          2
     1  C    0.582611   0.018541
     2  C   -0.394695   0.022081
     3  C   -0.225747   0.028579
     4  C    0.548807   0.013411
     5  C    0.578117   0.051969
     6  C    0.067656   0.023104
     7  C   -0.879933   0.113227
     8  C    0.540870   0.109106
     9  C   -0.243888   0.055948
    10  C   -0.809690   0.092820
    11  O   -0.435663   0.237189
    12  O   -0.500375   0.213256
    13  C    0.003452   0.004898
    15  C    0.168478   0.015871
 Electronic spatial extent (au):  <R**2>=          15281.7667
 Charge=             -1.0000 electrons
 Dipole moment (field-independent basis, Debye):
    X=            -17.1842    Y=             15.9150    Z=             -5.2643  Tot=             24.0062
 Quadrupole moment (field-independent basis, Debye-Ang):
[...]
 3162,0.00102943,-0.00059382,0.00400287,0.00081651,0.00297590,0.0002665
 6,0.00199872,0.00195420,-0.20793504,0.13948361,0.00751823,-0.01339992,
 0.01725855,-0.00290544,-0.00039353,0.00043288,-0.00107816,0.00205727,-
 0.00216924,-0.00221798,-0.00004840,-0.00002719,-0.00004667,-0.00002043
 ,0.00005854,0.00002013,-0.00089165,-0.00285513,-0.00095502,0.21758646,
 0.00001762,-0.00009350,-0.00026297,0.00006375,-0.00006964,0.00017264,-
 0.00018016,-0.00004271,-0.00032197,-0.00068612,-0.00061720,-0.00013954
 ,0.00086399,0.00248969,0.00147981,-0.00000529,-0.00000874,0.00007601,0
 .00001061,0.00359064,0.00508658,0.01860984,-0.01070570,-0.00015732,0.1
 3998435,-0.15749971,0.00728775,-0.00159649,0.00224841,0.00334460,0.000
 86173,-0.00234821,0.00060110,-0.00161981,0.00019223,-0.00229064,-0.000
 03103,-0.00005693,-0.00005276,0.00005407,0.00000885,0.00001901,-0.0007
 8425,-0.00171424,-0.00311124,-0.15464872,0.16368062,-0.00021876,-0.000
 13409,0.00002802,0.00002886,0.00020171,-0.00010535,0.00017576,-0.00026
 746,-0.00035776,-0.00040877,-0.00011876,-0.00081914,0.00402764,0.00252
 576,-0.00189394,0.00054905,-0.00087479,0.00051209,0.00388172,0.0043270
 0,-0.00006181,-0.01626661,0.01508342,0.00322148,0.00693709,0.00775126,
 -0.04823547,0.01768942,-0.01387746,0.00290451,-0.00154118,0.00098431,-
 0.00072696,-0.00278643,-0.00183194,0.00146730,-0.00004173,-0.00005631,
 -0.00003255,0.00002551,0.00001434,0.00003242,-0.00302812,-0.00142960,-
 0.00099574,-0.00988920,-0.01232306,0.04506076,-0.00104059,-0.00001458,
 0.00007050,-0.00105978,0.00482167,0.00308370,0.00160152,0.01752068,-0.
 01710864,-0.00151238,0.00235916,0.00411799,0.00743157,-0.01616828,0.01
 407373,-0.05424523,0.02760979,-0.01447289,0.00081784,-0.00102642,0.000
 40144,-0.00000299,-0.00018717,0.00014052,0.00037937,0.00025551,-0.0006
 7145,-0.00160658,-0.00152246,0.00023604,-0.00039573,0.00002908,0.00034
 823,-0.00020320,0.00054377,-0.00114640,-0.00020171,-0.00035121,-0.0004
 2406,-0.00001779,0.00089258,-0.00072226,-0.00000910,0.00007883,-0.0000
 2916,0.00007464,0.00004849,0.00002202,0.05022965,-0.00026133,-0.000219
 24,-0.00059288,0.00538099,0.00234505,0.00127461,0.00041078,-0.00867419
 ,0.01333037,0.00162296,0.00293381,0.00162262,-0.00098979,0.00159335,0.
 00298973,0.02709088,-0.19282636,0.14532981,0.00014444,0.00010733,-0.00
 021115,-0.00008655,-0.00000359,0.00000445,-0.00019376,0.00001055,0.000
 10367,0.00027636,-0.00319022,-0.00023459,-0.00004097,-0.00011628,0.000
 18371,0.00138213,0.00012124,-0.00181437,-0.00035978,-0.00043931,-0.000
 36843,0.00004993,-0.00041692,0.00069239,0.00003417,0.00000596,0.000026
 58,-0.00002014,0.00010254,0.00007791,-0.03244489,0.19980227,0.00033608
 ,-0.00082152,-0.00039461,0.00246829,0.00179371,0.00380014,0.00163412,-
 0.00241287,0.00498261,0.00493319,0.00093297,0.00021572,-0.00255596,0.0
 1695976,-0.01271813,-0.01398261,0.14483983,-0.18287256,-0.00087976,0.0
 0085346,-0.00008912,0.00002725,0.00010306,-0.00020485,-0.00018556,-0.0
 0030759,0.00044038,-0.00174132,0.00138127,-0.00308503,0.00042786,0.000
 13549,-0.00052028,-0.00197894,-0.00099840,0.00243597,-0.00040784,-0.00
 037854,-0.00029103,0.00019767,-0.00007850,0.00016205,0.00002208,-0.000
 01244,0.00005135,0.00009914,0.00001392,0.00005109,0.01350382,-0.160350
 16,0.18916684,0.00288059,0.00237411,0.00058356,0.00496821,0.00146189,-
 0.00346985,-0.18239555,-0.00735970,0.14255476,-0.00037495,0.00015922,-
 0.00061464,-0.00016922,0.00607659,0.00091009,-0.01252594,-0.00362860,0
 .01880990,-0.00019665,-0.00022016,-0.00062417,0.00011522,0.00005916,0.
 00001403,-0.00057992,0.00019857,-0.00027236,-0.00000077,-0.00091186,0.
 00137842,-0.00002632,-0.00021372,0.00035560,-0.00004910,0.00039265,-0.
 00015046,-0.00003649,0.00002199,-0.00011892,-0.00039781,-0.00163947,-0
 .00094440,0.00003730,0.00002804,0.00003771,-0.00015375,0.00000899,0.00
 009711,-0.00033530,-0.00193581,-0.00197049,0.18924307,0.00288815,-0.00
 037349,0.00468210,-0.01650161,0.00226177,0.01591181,-0.00736553,-0.051
 68989,0.02388877,0.00028047,-0.00095574,-0.00015306,0.00541155,0.00073
 477,0.00302993,0.01419429,0.00558077,-0.01519921,-0.00056702,-0.000351
 96,-0.00033915,0.00009195,-0.00007935,0.00022292,0.00010445,-0.0004149
 8,-0.00033994,0.00028308,0.00079533,-0.00066832,0.00003778,0.00011490,
 -0.00004183,0.00007476,0.00002893,0.00017415,-0.00073905,0.00008216,0.
 00043877,-0.00113212,-0.00064691,-0.00194464,0.00003394,0.00005973,0.0
 0002497,0.00008123,-0.00002137,-0.00009165,-0.00241338,-0.00118655,-0.
 00171911,0.00516828,0.04631006,0.00001790,0.00515763,0.00067232,0.0161
 8166,-0.00060718,-0.01125977,0.14256885,0.02388784,-0.19318599,-0.0007
 5417,-0.00003702,-0.00012873,0.00162881,0.00242095,0.00390579,-0.00068
 547,0.00117982,0.00295394,-0.00024334,-0.00065830,-0.00019489,-0.00002
 147,0.00025678,-0.00005833,-0.00016904,-0.00042885,-0.00001217,0.00008
 260,0.00042638,-0.00011825,0.00008215,0.00018947,-0.00017287,0.0001949
 2,-0.00011893,0.00020034,0.00071773,-0.00026509,-0.00051324,-0.0014977
 4,-0.00147841,-0.00038308,0.00002728,0.00003277,0.00004893,0.00001933,
 -0.00002596,-0.00002696,-0.00145064,-0.00215504,-0.00109073,-0.1566887
 5,-0.02816069,0.19970241,-0.00582821,0.00248390,0.00131515,0.00033434,
 -0.00221443,0.00206586,0.00029145,-0.00011030,-0.00034950,0.00174422,0
 .00043612,-0.00064516,-0.00050626,0.00015886,0.00056444,0.00022721,-0.
 00012409,-0.00004188,0.00011442,-0.00109913,0.00092700,-0.00025255,0.0
 0000721,-0.00014481,0.00003918,0.00007515,-0.00008668,0.00008992,-0.00
 037517,0.00016127,-0.00150519,0.00208207,0.00066675,-0.00009417,0.0004
 3052,-0.00036792,-0.23043434,0.10368329,0.05098869,0.00089214,-0.00039
 694,-0.00012024,0.00000894,0.00003127,-0.00004086,-0.00002681,0.000067
 30,0.00000286,0.00004772,0.00000970,-0.00001892,-0.00000006,0.00003229
 ,-0.00006884,0.24983161,0.02118012,-0.01415295,-0.00540027,0.00134874,
 0.00052096,-0.00189091,-0.00025051,-0.00006191,0.00003814,-0.00083667,
 -0.00149201,0.00411255,0.00135556,-0.00032723,-0.00056757,-0.00015438,
 0.00011528,0.00005336,-0.00047668,0.00007419,0.00015420,-0.00006106,-0
 .00008960,-0.00028233,-0.00000552,-0.00000594,0.00005394,-0.00036944,0
 .00007702,0.00006572,0.00057460,0.00097284,0.00027798,0.00020717,-0.00
 037392,0.00023417,0.10058008,-0.10675230,-0.02984207,-0.00088740,0.000
 36165,0.00073846,0.00001589,-0.00002027,0.00001154,0.00005169,0.000001
 15,0.00001190,-0.00005615,0.00003789,0.00005778,-0.00002281,-0.0000051
 7,-0.00001186,-0.11515549,0.11533902,-0.01903859,0.01157547,0.00328552
 ,-0.00184021,0.00138664,0.00010516,-0.00020550,-0.00008831,0.00004678,
 0.00073883,0.00294371,-0.00233161,-0.00074148,0.00053341,0.00040333,-0
 .00000686,0.00002582,0.00001014,0.00024413,0.00073863,-0.00121878,-0.0
 0006789,-0.00034563,0.00004119,0.00000391,-0.00002221,0.00005894,0.000
 16014,0.00006644,-0.00039523,0.00233198,-0.00113268,0.00080589,-0.0001
 2576,0.00003014,0.00009758,0.05437110,-0.03266231,-0.06411533,0.000422
 68,0.00029315,-0.00041053,-0.00002090,-0.00000399,0.00003012,0.0000192
 0,-0.00000230,0.00004020,0.00005652,-0.00000436,-0.00000348,-0.0000077
 0,-0.00006260,0.00004030,-0.06041846,0.02864142,0.06924868,0.00655582,
 0.00347560,0.00263487,0.00023813,-0.00031233,-0.00068052,0.00007309,-0
 .00017260,0.00010003,-0.00069294,0.00103544,0.00116199,-0.00025708,-0.
 00036933,0.00003264,0.00014120,0.00010555,-0.00029105,0.00037054,0.000
 45996,-0.00083028,-0.00054100,0.00009840,-0.00047503,-0.00000130,-0.00
 015405,0.00013481,0.00008056,-0.00020900,0.00012203,-0.00114158,0.0013
 9220,0.00136711,0.00000682,0.00013586,-0.00012840,-0.19839538,-0.13059
 331,-0.00119937,0.00013041,-0.00026497,-0.00026977,0.00002464,-0.00001
 467,-0.00001047,0.00002365,0.00004397,0.00003464,0.00000523,-0.0000363
 0,-0.00000165,0.00002557,0.00001674,0.00001261,-0.01819370,-0.01604000
 ,-0.00091582,0.21478213,-0.01704857,-0.01479999,0.00062189,0.00122924,
 -0.00191287,0.00083251,0.00021811,0.00052965,0.00072135,0.00035663,0.0
 0065870,0.00034564,0.00022301,0.00048230,0.00064844,-0.00006326,-0.000
 34245,0.00018871,-0.00015769,-0.00217449,0.00148173,-0.00011009,0.0001
 7780,-0.00035876,-0.00000356,-0.00002292,0.00003321,-0.00012799,0.0001
 0694,0.00001821,-0.00019002,0.00275918,-0.00067285,0.00010229,-0.00005
 231,-0.00005461,-0.13027111,-0.15592064,0.00185314,-0.00026939,-0.0001
 1216,-0.00011479,0.00001344,0.00004303,-0.00002485,0.00001951,0.000024
 41,-0.00001756,-0.00004478,-0.00005754,-0.00005515,0.00000107,-0.00012
 633,0.00020642,0.01202398,0.01175174,0.00038003,0.14359750,0.16729560,
 0.01756078,0.01549098,-0.00235492,-0.00103573,0.00205681,-0.00137540,-
 0.00049659,-0.00065246,-0.00130667,0.00054943,-0.00089643,0.00039810,-
 0.00012971,-0.00033575,-0.00053425,0.00006243,0.00009501,-0.00004202,-
 0.00005291,0.00001929,0.00081401,-0.00002817,-0.00002749,-0.00001066,-
 0.00000088,0.00009518,-0.00009242,0.00000183,-0.00015752,0.00016095,-0
 .00042077,0.00011329,-0.00037274,-0.00004540,0.00016598,-0.00013582,0.
 00132428,0.00241130,-0.03961218,0.00028002,0.00051047,0.00037021,-0.00
 000234,-0.00000091,-0.00002260,-0.00002117,0.00002346,-0.00000869,0.00
 006553,0.00012162,0.00008553,0.00004472,0.00016430,-0.00016564,0.00565
 066,0.00561488,-0.00101823,-0.00062520,-0.00488262,0.04623598,-0.00101
 300,-0.00353368,-0.00284655,0.00007147,0.00007064,0.00010581,-0.000096
 13,-0.00041078,0.00004903,-0.00078796,0.00064261,0.00015690,0.00017392
 ,0.00013184,0.00026860,0.00000559,0.00017382,-0.00026350,0.00018741,0.
 00155823,-0.00205111,-0.00004447,0.00005811,0.00014313,0.00001436,-0.0
 0009314,0.00011555,0.00013052,-0.00003764,-0.00006029,-0.00013333,-0.0
 0092751,0.00138049,-0.00004760,-0.00004068,0.00006807,-0.04321030,-0.0
 0395560,-0.01994564,0.00042839,0.00007059,0.00011668,0.00001215,-0.000
 02503,0.00003288,-0.00000639,-0.00003433,0.00001268,0.00003948,0.00000
 394,0.00003639,0.00001507,0.00002927,0.00000596,0.00327426,0.00895518,
 0.02504446,-0.00325011,-0.00953658,-0.02264910,0.04424477,0.00153032,0
 .00996131,0.02450639,0.00051339,-0.00212600,0.00127982,-0.00093593,-0.
 00082221,-0.00035504,0.00058028,0.00064711,-0.00049102,-0.00055456,-0.
 00044660,-0.00042810,-0.00008135,-0.00013053,0.00032492,0.00015555,-0.
 00021927,0.00072407,0.00001887,-0.00041388,-0.00012207,-0.00000757,0.0
 0001872,-0.00002659,-0.00009874,0.00024978,-0.00020950,0.00144665,-0.0
 0020784,-0.00035692,0.00006213,-0.00020021,0.00018283,-0.00546742,-0.0
 7766768,-0.08832449,0.00006200,0.00026253,0.00032766,-0.00003079,-0.00
 000490,0.00000131,0.00004015,0.00000334,0.00001999,0.00006873,0.000076
 37,0.00006691,-0.00001158,-0.00011440,0.00019699,-0.00205886,-0.005965
 81,-0.01228022,-0.00220599,-0.00831296,-0.01994293,0.00692667,0.085391
 03,-0.00091157,-0.00443787,-0.01948632,-0.00173334,0.00187633,-0.00104
 314,0.00078734,0.00086328,0.00022356,0.00158902,0.00006287,0.00053884,
 0.00053099,0.00045307,-0.00002551,-0.00016196,0.00003941,-0.00013528,-
 0.00075701,0.00053721,-0.00099260,-0.00002054,-0.00068791,0.00008367,-
 0.00000867,0.00012803,-0.00015267,0.00003977,-0.00001526,-0.00002678,0
 .00245566,-0.00065561,0.00169580,-0.00009178,0.00002241,0.00006322,-0.
 02122967,-0.08982530,-0.27347153,-0.00040130,-0.00031424,-0.00029264,-
 0.00000195,0.00000100,0.00004147,0.00001402,0.00002465,0.00004335,-0.0
 0008835,-0.00006099,-0.00008231,0.00003800,0.00018458,-0.00017165,-0.0
 0008069,-0.00202763,-0.00472735,-0.00020577,-0.00110813,-0.00104222,0.
 02027113,0.09492603,0.29892250,-0.00026582,0.00003916,0.00018674,0.000
 07668,0.00008664,-0.00025472,-0.00008592,-0.00014063,0.00024711,0.0009
 4476,0.00032332,-0.00046699,0.00000265,-0.00041638,0.00025174,-0.00001
 334,0.00009338,-0.00009762,-0.00023505,-0.00108877,0.00309221,-0.00898
 263,-0.02006278,0.00102245,-0.00211753,0.00119872,0.00032700,0.0007500
 4,0.00029935,0.00064759,0.00092123,0.00060561,-0.00197629,-0.00028210,
 -0.00020098,0.00024167,0.00003389,0.00000195,-0.00001054,-0.00002373,0
 .00001812,-0.00000782,-0.08929338,-0.09655391,0.00117892,-0.00000321,-
 0.00032945,-0.00012756,0.00001564,-0.00000690,0.00001718,-0.00001520,0
 .00000248,0.00001650,-0.00000690,0.00001374,-0.00000983,-0.00000500,0.
 00003328,-0.00000917,-0.00000964,0.00001115,-0.00001780,0.09379493,-0.
 00007428,-0.00002881,0.00012081,0.00001331,0.00009708,-0.00009568,0.00
 005553,-0.00010688,0.00007136,-0.00034134,-0.00005839,-0.00036866,0.00
 022790,-0.00012697,-0.00000666,-0.00013186,0.00008350,0.00005805,0.001
 63484,-0.00154182,0.00180647,-0.00208731,0.00024500,0.00419642,-0.0009
 3416,0.00057276,-0.00054997,-0.00028290,0.00013832,0.00011631,0.000260
 04,0.00130784,-0.00169851,0.00000947,-0.00009503,0.00021533,-0.0000272
 3,-0.00001953,-0.00004442,-0.00001136,0.00001067,0.00000628,-0.0953426
 7,-0.25843312,-0.00032955,-0.00016545,0.00007438,-0.00020158,-0.000002
 17,-0.00001648,-0.00000118,-0.00000812,0.00000295,0.00000966,-0.000006
 32,0.00000652,-0.00000165,0.00001748,0.00000301,0.00000273,-0.00001586
 ,0.00002693,0.00000978,0.10802479,0.28083593,0.00008562,0.00000040,-0.
 00009626,-0.00001528,-0.00005172,0.00015129,0.00001910,0.00010915,-0.0
 0014278,-0.00048542,-0.00016375,-0.00002724,-0.00002178,0.00028140,-0.
 00007478,0.00011041,-0.00005470,0.00003640,-0.00069880,0.00092547,-0.0
 0058562,0.01132414,0.02339109,-0.00279718,0.00236721,-0.00109030,-0.00
 117964,-0.00088370,-0.00077908,-0.00122216,0.00022507,-0.00118115,0.00
 081474,0.00032144,0.00038160,-0.00026524,-0.00001012,-0.00001341,0.000
 01474,0.00001818,-0.00001409,0.00000470,0.00071273,0.00203467,-0.04099
 530,0.00041089,0.00043753,0.00040997,-0.00000739,0.00000896,-0.0000145
 2,0.00000824,-0.00001096,-0.00002097,0.00001919,-0.00001199,-0.0000029
 3,0.00000843,-0.00001092,0.00001281,0.00000334,-0.00001419,0.00000229,
 -0.00385800,-0.00178949,0.04767246,-0.00026763,-0.00019378,0.00039152,
 -0.00009700,0.00018045,-0.00014148,0.00001725,-0.00009382,0.00009192,-
 0.00051446,0.00119780,-0.00054593,0.00030064,-0.00013984,-0.00014622,-
 0.00003976,-0.00001782,0.00006354,-0.00159856,-0.00096675,0.00363620,-
 0.01693853,0.01571624,-0.00410659,0.00083978,0.00107020,-0.00201838,0.
 00010071,-0.00002944,-0.00013560,0.00032481,-0.00021153,0.00031120,0.0
 0000600,-0.00027094,0.00028542,0.00001289,-0.00003188,0.00002470,-0.00
 004718,0.00001746,0.00003475,-0.18004549,0.12640991,-0.02725841,0.0005
 0664,-0.00081633,0.00048642,-0.00000685,-0.00000901,0.00002041,-0.0000
 1136,-0.00000714,0.00001663,-0.00003220,0.00002113,0.00000422,0.000007
 79,-0.00000248,-0.00001552,0.00001161,0.00000949,-0.00000753,0.0109922
 5,-0.00861910,0.00262000,0.19554206,-0.00000476,0.00000750,-0.00007818
 ,0.00000264,-0.00007265,0.00004217,-0.00001195,0.00005905,-0.00004793,
 0.00000169,0.00003447,0.00026987,-0.00019712,0.00014252,0.00001371,0.0
 0006238,-0.00000600,-0.00002590,-0.00004433,0.00015732,0.00141777,-0.0
 0295442,0.00083985,-0.00010846,-0.00129674,0.00007684,0.00079428,-0.00
 021198,-0.00001195,-0.00005627,0.00115638,0.00016356,-0.00077037,0.000
 07680,0.00020220,-0.00027033,0.00000576,0.00000312,-0.00000515,0.00001
 472,-0.00000259,0.00000118,0.12862728,-0.17026360,0.02614495,-0.000152
 42,0.00039189,0.00001927,0.00000099,0.00000670,-0.00000500,0.00000632,
 -0.00000097,-0.00001090,0.00002359,-0.00001014,-0.00001401,0.00000444,
 0.00000858,0.00001084,-0.00001652,-0.00000401,-0.00000443,0.02071459,-
 0.01769987,0.00464167,-0.14120856,0.18210752,0.00016348,0.00010064,-0.
 00033296,0.00006793,-0.00011013,0.00003488,-0.00000117,0.00001601,-0.0
 0001335,0.00077353,-0.00085056,0.00040362,-0.00005527,-0.00006382,0.00
 012395,-0.00001702,0.00003901,-0.00002107,0.00270813,0.00210202,-0.003
 44378,0.01788975,-0.01714648,0.00220783,0.00044374,-0.00129881,0.00076
 034,0.00000231,-0.00016989,0.00001658,-0.00099288,0.00047952,0.0008661
 0,-0.00008334,0.00003478,0.00005193,-0.00001410,0.00002597,-0.00001555
 ,0.00003778,0.00000004,-0.00002242,-0.03006905,0.02829703,-0.05292272,
 -0.00014905,0.00051617,-0.00021662,0.00000879,0.00000425,-0.00000986,0
 .00000030,0.00000337,-0.00000648,0.00000230,-0.00001157,0.00000730,-0.
 00000289,-0.00001065,0.00000286,-0.00000107,0.00000273,0.00001053,0.00
 048567,-0.00065146,-0.00118192,0.02785891,-0.03182235,0.05672974,-0.00
 013763,0.00003439,0.00009095,0.00010343,0.00010301,-0.00008852,-0.0000
 8916,-0.00008203,0.00016387,0.00017551,-0.00061586,-0.00081080,0.00003
 895,-0.00011573,0.00034139,0.00004156,0.00007392,-0.00005212,-0.000756
 96,0.00009908,0.00063733,0.01123090,0.00348629,0.02209436,-0.00183203,
 0.00049549,0.00068928,-0.00047269,-0.00118735,-0.00073809,0.00021030,0
 .00042984,-0.00028164,-0.00003704,0.00003785,0.00044731,-0.00000560,-0
 .00003458,-0.00003494,-0.00000974,0.00002159,-0.00000130,-0.08675764,-
 0.01352968,-0.09301197,0.00035306,0.00009727,0.00033758,-0.00000544,-0
 .00002103,-0.00000043,-0.00001667,-0.00000486,0.00000655,-0.00001503,0
 .00001221,0.00000182,0.00001251,0.00000747,-0.00000703,-0.00001009,0.0
 0002739,-0.00000800,-0.00619263,-0.00219324,-0.01227350,-0.00906340,-0
 .00459880,-0.01905677,0.09323552,0.00009295,-0.00004500,-0.00006691,-0
 .00003987,-0.00002754,0.00005703,0.00003816,0.00002643,-0.00006037,-0.
 00021143,0.00001400,0.00035597,0.00000748,0.00011014,-0.00008769,-0.00
 002496,0.00001611,0.00005604,0.00135439,0.00013137,-0.00060107,0.00019
 668,-0.00017049,0.00482880,-0.00069912,-0.00014847,0.00044475,-0.00041
 876,-0.00045604,-0.00026587,-0.00069209,0.00007797,0.00041849,0.000033
 51,0.00001968,0.00013365,-0.00000496,0.00002365,0.00000303,0.00000162,
 -0.00000425,0.00000051,-0.01250101,-0.04763504,-0.03455335,0.00009232,
 0.00036981,0.00020739,0.00000221,0.00000361,0.00000228,-0.00000507,-0.
 00000426,-0.00000648,-0.00000450,-0.00000103,0.00000540,-0.00001061,-0
 .00000627,-0.00000002,0.00000645,-0.00000084,0.00000871,-0.01266650,-0
 .00527798,-0.02702618,0.00799575,0.00387068,0.02051417,0.01745736,0.04
 911376,0.00025945,0.00001537,-0.00023616,-0.00010567,-0.00019971,0.000
 23822,0.00002305,0.00022516,-0.00025136,-0.00036743,-0.00007498,0.0006
 6131,-0.00029282,0.00034534,-0.00027020,0.00014839,-0.00015275,0.00000
 378,0.00008039,0.00360385,-0.00181345,-0.00510452,-0.00094164,-0.02258
 314,0.00220727,-0.00196801,-0.00037346,0.00078996,0.00086785,0.0004230
 7,-0.00079956,-0.00142598,0.00231782,0.00012129,0.00017278,-0.00052442
 ,-0.00003127,-0.00002511,0.00001231,0.00002973,-0.00002660,-0.00000038
 ,-0.09591336,-0.03461903,-0.25193636,-0.00032573,-0.00039547,-0.000290
 17,-0.00000760,0.00002130,-0.00001518,0.00002930,0.00000548,-0.0000143
 0,0.00001979,-0.00001982,0.00000233,0.00002709,-0.00002038,0.00001403,
 0.00000618,-0.00000858,0.00002478,-0.00087841,-0.00087436,-0.00051284,
 -0.00147017,-0.00013642,-0.00302893,0.10155467,0.03563172,0.27815269\\
 -0.00001374,0.00000807,-0.00000035,0.00000544,0.00000919,-0.00001980,0
 .00000483,0.00000052,0.00000100,0.00001379,-0.00000570,0.00000069,0.00
 000071,0.00000266,-0.00000012,-0.00000447,0.00000728,0.00000254,-0.000
 00374,-0.00001323,0.00000787,0.00000078,0.00000346,-0.00000176,-0.0000
 0341,-0.00000547,0.00001450,-0.00000502,0.00000901,0.00000478,0.000004
 15,-0.00000318,-0.00001162,-0.00000527,0.00000343,0.00001173,0.0000172
 2,-0.00000110,-0.00000744,-0.00000187,0.00000866,-0.00000759,-0.000007
 59,-0.00000463,0.00000421,-0.00000260,-0.00000144,0.00001074,-0.000004
 52,0.00001032,0.00000507,-0.00000537,0.00001228,-0.00000233,-0.0000032
 7,0.00000343,-0.00000965,0.00000245,-0.00000572,-0.00001168,0.00000066
 ,-0.00000515,-0.00000826,0.00000466,-0.00000905,0.00000266,0.00000373,
 -0.00001216,0.00000968,0.00000244,-0.00001149,0.00000513\\\@


 ERWIN WITH HIS PSI CAN DO
 CALCULATIONS QUITE A FEW.
 BUT ONE THING HAS NOT BEEN SEEN
 JUST WHAT DOES PSI REALLY MEAN.
 -- WALTER HUCKEL, TRANS. BY FELIX BLOCH
 Job cpu time:       0 days  4 hours 20 minutes 49.4 seconds.
 Elapsed time:       0 days  0 hours 47 minutes 24.0 seconds.
 File lengths (MBytes):  RWF=    701 Int=      0 D2E=      0 Chk=     25 Scr=      1
 Normal termination of Gaussian 16 at Sun Feb 11 02:22:37 2024.
