
Running Job 1 of 1 150-rad-SM12.in
qchem 150-rad-SM12.in_3796583.0 /expanse/lustre/scratch/selhajj/temp_project/qcscratch/28445585/qchem3796583/ 0
/cm/shared/apps/spack/cpu/opt/spack/linux-centos8-zen2/gcc-10.2.0/qchem-5.4-akfmr7b3t57bfs6qan3padb2wnb2i7cl/exe/qcprog.exe_s 150-rad-SM12.in_3796583.0 /expanse/lustre/scratch/selhajj/temp_project/qcscratch/28445585/qchem3796583/
                  Welcome to Q-Chem
     A Quantum Leap Into The Future Of Chemistry


 Q-Chem 5.4, Q-Chem, Inc., Pleasanton, CA (2021)

 License issued to: University of California, San Diego (site)

 E. Epifanovsky,  A. T. B. Gilbert,  Xintian Feng,  Joonho Lee,  Yuezhi Mao,  
 N. Mardirossian,  P. Pokhilko,  A. White,  M. Wormit,  M. P. Coons,  
 A. L. Dempwolff,  Zhengting Gan,  D. Hait,  P. R. Horn,  L. D. Jacobson,  
 I. Kaliman,  J. Kussmann,  A. W. Lange,  Ka Un Lao,  D. S. Levine,  Jie Liu,  
 S. C. McKenzie,  A. F. Morrison,  K. Nanda,  F. Plasser,  D. R. Rehn,  
 M. L. Vidal,  Zhi-Qiang You,  Ying Zhu,  B. Alam,  B. Albrecht,  
 A. Aldossary,  E. Alguire,  J. H. Andersen,  D. Barton,  K. Begam,  A. Behn,  
 Y. A. Bernard,  E. J. Berquist,  H. Burton,  A. Carreras,  K. Carter-Fenk,  
 R. Chakraborty,  A. D. Chien,  K. D. Closser,  V. Cofer-Shabica,  
 S. Dasgupta,  Jia Deng,  M. de Wergifosse,  M. Diedenhofen,  Hainam Do,  
 S. Ehlert,  Po-Tung Fang,  S. Fatehi,  Qingguo Feng,  J. Gayvert,  
 Qinghui Ge,  G. Gidofalvi,  M. Goldey,  J. Gomes,  C. Gonzalez-Espinoza,  
 S. Gulania,  A. Gunina,  M. W. D. Hanson-Heine,  P. H. P. Harbach,  
 A. W. Hauser,  M. F. Herbst,  M. Hernandez Vera,  M. Hodecker,  
 Z. C. Holden,  S. Houck,  Xunkun Huang,  Kerwin Hui,  B. C. Huynh,  
 M. Ivanov,  Hyunjun Ji,  Hanjie Jiang,  B. Kaduk,  S. Kaehler,  
 K. Khistyaev,  Jaehoon Kim,  P. Klunzinger,  Z. Koczor-Benda,  
 Joong Hoon Koh,  D. Kosenkov,  L. Koulias,  T. Kowalczyk,  C. M. Krauter,  
 K. Kue,  A. Kunitsa,  T. Kus,  A. Landau,  K. V. Lawler,  D. Lefrancois,  
 S. Lehtola,  Rain Li,  Yi-Pei Li,  Jiashu Liang,  M. Liebenthal,  
 Hung-Hsuan Lin,  You-Sheng Lin,  Fenglai Liu,  Kuan-Yu Liu,  
 M. Loipersberger,  A. Luenser,  A. Manjanath,  P. Manohar,  E. Mansoor,  
 S. F. Manzer,  Shan-Ping Mao,  A. V. Marenich,  T. Markovich,  S. Mason,  
 S. A. Maurer,  P. F. McLaughlin,  M. F. S. J. Menger,  J.-M. Mewes,  
 S. A. Mewes,  P. Morgante,  J. W. Mullinax,  T. S. Nguyen-Beck,  
 K. J. Oosterbaan,  G. Paran,  Alexander C. Paul,  Suranjan K. Paul,  
 F. Pavosevic,  Zheng Pei,  S. Prager,  E. I. Proynov,  E. Ramos,  B. Rana,  
 A. E. Rask,  A. Rettig,  R. M. Richard,  F. Rob,  E. Rossomme,  T. Scheele,  
 M. Scheurer,  M. Schneider,  N. Sergueev,  S. M. Sharada,  W. Skomorowski,  
 D. W. Small,  C. J. Stein,  Yu-Chuan Su,  E. J. Sundstrom,  Zhen Tao,  
 J. Thirman,  T. Tsuchimochi,  N. M. Tubman,  S. P. Veccham,  O. Vydrov,  
 J. Wenzel,  J. Witte,  A. Yamada,  Kun Yao,  S. Yeganeh,  S. R. Yost,  
 A. Zech,  Igor Ying Zhang,  Xing Zhang,  Yu Zhang,  D. Zuev,  
 A. Aspuru-Guzik,  A. T. Bell,  N. A. Besley,  K. B. Bravaya,  B. R. Brooks,  
 D. Casanova,  Jeng-Da Chai,  S. Coriani,  C. J. Cramer,  
 A. E. DePrince, III,  R. A. DiStasio Jr.,  A. Dreuw,  B. D. Dunietz,  
 T. R. Furlani,  W. A. Goddard III,  S. Grimme,  S. Hammes-Schiffer,  
 T. Head-Gordon,  W. J. Hehre,  Chao-Ping Hsu,  T.-C. Jagau,  Yousung Jung,  
 A. Klamt,  Jing Kong,  D. S. Lambrecht,  WanZhen Liang,  N. J. Mayhall,  
 C. W. McCurdy,  J. B. Neaton,  C. Ochsenfeld,  J. A. Parkhill,  R. Peverati,  
 V. A. Rassolov,  Yihan Shao,  L. V. Slipchenko,  T. Stauch,  R. P. Steele,  
 J. E. Subotnik,  A. J. W. Thom,  A. Tkatchenko,  D. G. Truhlar,  
 T. Van Voorhis,  T. A. Wesolowski,  K. B. Whaley,  H. L. Woodcock III,  
 P. M. Zimmerman,  S. Faraji,  P. M. W. Gill,  M. Head-Gordon,  
 J. M. Herbert,  A. I. Krylov

 Contributors to earlier versions of Q-Chem not listed above: 
 R. D. Adamson,  B. Austin,  R. Baer,  J. Baker,  G. J. O. Beran,  
 K. Brandhorst,  S. T. Brown,  E. F. C. Byrd,  A. K. Chakraborty,  
 G. K. L. Chan,  Chun-Min Chang,  Yunqing Chen,  C.-L. Cheng,  
 Siu Hung Chien,  D. M. Chipman,  D. L. Crittenden,  H. Dachsel,  
 R. J. Doerksen,  A. D. Dutoi,  R. G. Edgar,  J. Fosso-Tande,  
 L. Fusti-Molnar,  D. Ghosh,  A. Ghysels,  A. Golubeva-Zadorozhnaya,  
 J. Gonthier,  M. S. Gordon,  S. R. Gwaltney,  G. Hawkins,  J. E. Herr,  
 A. Heyden,  S. Hirata,  E. G. Hohenstein,  G. Kedziora,  F. J. Keil,  
 C. Kelley,  Jihan Kim,  R. A. King,  R. Z. Khaliullin,  P. P. Korambath,  
 W. Kurlancheek,  A. Laurent,  A. M. Lee,  M. S. Lee,  S. V. Levchenko,  
 Ching Yeh Lin,  D. Liotard,  E. Livshits,  R. C. Lochan,  I. Lotan,  
 L. A. Martinez-Martinez,  P. E. Maslen,  N. Nair,  D. P. O'Neill,  
 D. Neuhauser,  E. Neuscamman,  C. M. Oana,  R. Olivares-Amaya,  R. Olson,  
 T. M. Perrine,  B. Peters,  P. A. Pieniazek,  A. Prociuk,  Y. M. Rhee,  
 J. Ritchie,  M. A. Rohrdanz,  E. Rosta,  N. J. Russ,  H. F. Schaefer III,  
 M. W. Schmidt,  N. E. Schultz,  S. Sharma,  N. Shenvi,  C. D. Sherrill,  
 A. C. Simmonett,  A. Sodt,  T. Stein,  D. Stuck,  K. S. Thanthiriwatte,  
 V. Vanovschi,  L. Vogt,  Tao Wang,  A. Warshel,  M. A. Watson,  
 C. F. Williams,  Q. Wu,  X. Xu,  Jun Yang,  W. Zhang,  Yan Zhao

 Please cite Q-Chem as follows:
 Y. Shao et al., Mol. Phys. 113, 184-215 (2015)
 DOI: 10.1080/00268976.2014.952696

 Q-Chem 5.4.0 for Intel X86 EM64T Linux

 Parts of Q-Chem use Armadillo 9.800.1 (Horizon Scraper).
 http://arma.sourceforge.net/

 Q-Chem begins on Sat Feb  3 11:23:27 2024  

 Host: 
0

     Scratch files written to /expanse/lustre/scratch/selhajj/temp_project/qcscratch/28445585/qchem3796583//
 May1621 |scratch|qcdevops|jenkins|workspace|build_RNUM    
 Processing $rem in /cm/shared/apps/spack/cpu/opt/spack/linux-centos8-zen2/gcc-10.2.0/qchem-5.4-akfmr7b3t57bfs6qan3padb2wnb2i7cl/config/preferences:
 Processing $rem in /home/selhajj/.qchemrc:
 Symmetry turned off for PCM/SM12/SMD calculation
 Method-specific promolecule density matrix will be built for SM12 calculation

 Checking the input file for inconsistencies... 	...done.

--------------------------------------------------------------
User input:
--------------------------------------------------------------
$molecule
-1 2
N                 -2.9215170000      1.8810090000      0.1103820000
C                 -2.5291020000      0.5531690000      0.0698670000
C                 -3.4932030000     -0.4570350000      0.0413770000
C                 -3.1227420000     -1.8044400000     -0.0694170000
C                 -1.7916010000     -2.1605160000     -0.1575960000
C                 -0.7843800000     -1.1746310000     -0.1164930000
C                  0.6107320000     -1.6203610000     -0.1973540000
O                  0.9128760000     -2.8335620000     -0.3240920000
C                  1.6336810000     -0.5802940000     -0.1189220000
C                  2.9980870000     -0.9385930000     -0.1916330000
C                  3.9926440000      0.0151880000     -0.1122920000
C                  3.6501320000      1.3767940000      0.0456390000
C                  2.3226720000      1.7488710000      0.1201010000
C                  1.2879770000      0.7901190000      0.0388110000
C                 -0.1029540000      1.2344200000      0.1190720000
O                 -0.3630690000      2.4672440000      0.2859730000
C                 -1.1341080000      0.2091330000      0.0119940000
H                 -3.8242700000      2.0659740000      0.5186700000
H                 -2.1537330000      2.5225680000      0.3179610000
H                 -4.5432770000     -0.1794060000      0.0860990000
H                 -3.8948930000     -2.5684930000     -0.0927780000
H                 -1.4790970000     -3.1925410000     -0.2532290000
H                  3.2291410000     -1.9909380000     -0.3106490000
H                  5.0367250000     -0.2785310000     -0.1706490000
H                  4.4310830000      2.1290870000      0.1079090000
H                  2.0321980000      2.7857660000      0.2412500000
$end

$rem
BASIS  =  6-311++G(d,p)
GUI  =  2
JOB_TYPE  =  SP
METHOD  =  B3LYP
SCF_CONVERGENCE  = 8
SOLVENT_METHOD = sm12
$end

$smx
solvent dimethylformamide
charges CM5
$end





--------------------------------------------------------------
 ----------------------------------------------------------------
             Standard Nuclear Orientation (Angstroms)
    I     Atom           X                Y                Z
 ----------------------------------------------------------------
    1      N      -2.9215170000     1.8810090000     0.1103820000
    2      C      -2.5291020000     0.5531690000     0.0698670000
    3      C      -3.4932030000    -0.4570350000     0.0413770000
    4      C      -3.1227420000    -1.8044400000    -0.0694170000
    5      C      -1.7916010000    -2.1605160000    -0.1575960000
    6      C      -0.7843800000    -1.1746310000    -0.1164930000
    7      C       0.6107320000    -1.6203610000    -0.1973540000
    8      O       0.9128760000    -2.8335620000    -0.3240920000
    9      C       1.6336810000    -0.5802940000    -0.1189220000
   10      C       2.9980870000    -0.9385930000    -0.1916330000
   11      C       3.9926440000     0.0151880000    -0.1122920000
   12      C       3.6501320000     1.3767940000     0.0456390000
   13      C       2.3226720000     1.7488710000     0.1201010000
   14      C       1.2879770000     0.7901190000     0.0388110000
   15      C      -0.1029540000     1.2344200000     0.1190720000
   16      O      -0.3630690000     2.4672440000     0.2859730000
   17      C      -1.1341080000     0.2091330000     0.0119940000
   18      H      -3.8242700000     2.0659740000     0.5186700000
   19      H      -2.1537330000     2.5225680000     0.3179610000
   20      H      -4.5432770000    -0.1794060000     0.0860990000
   21      H      -3.8948930000    -2.5684930000    -0.0927780000
   22      H      -1.4790970000    -3.1925410000    -0.2532290000
   23      H       3.2291410000    -1.9909380000    -0.3106490000
   24      H       5.0367250000    -0.2785310000    -0.1706490000
   25      H       4.4310830000     2.1290870000     0.1079090000
   26      H       2.0321980000     2.7857660000     0.2412500000
 ----------------------------------------------------------------
 Nuclear Repulsion Energy =        1101.96792838 hartrees
 There are       59 alpha and       58 beta electrons
 Requested basis set is 6-311++G(d,p)
 There are 147 shells and 437 basis functions

 Total QAlloc Memory Limit   8000 MB
 Mega-Array Size       188 MB
 MEM_STATIC part       192 MB
 A cutoff of  1.0D-11 yielded   8562 shell pairs
 There are     78862 function pairs (     84711 Cartesian)
 Smallest overlap matrix eigenvalue = 7.14E-08

 Q-Chem warning in module stvman/mkSTV.C, line 323:

 Overlap eigenvalue is smaller than square root of threshold
 Use THRESH >= 12 to get rid of this warning

 Linear dependence detected in AO basis
 Tighter screening thresholds may be required for diffuse basis sets
 Use S2THRESH > 14 and THRESH = 14 in case of SCF convergence issues
 Number of orthogonalized atomic orbitals = 430
 Maximum deviation from orthogonality = 1.865E-10

 Scale SEOQF with 1.000000e-01/1.000000e-01/1.000000e-01

 Standard Electronic Orientation quadrupole field applied
 Nucleus-field energy     =     0.0000000456 hartrees
 ================ Generating on-the-fly Promolecule Density  ================
Attempting to make child job directory: /expanse/lustre/scratch/selhajj/temp_project/qcscratch/28445585/qchem3796583//Frg1/
Attempting to make child job directory: /expanse/lustre/scratch/selhajj/temp_project/qcscratch/28445585/qchem3796583//Frg2/
Attempting to make child job directory: /expanse/lustre/scratch/selhajj/temp_project/qcscratch/28445585/qchem3796583//Frg3/
Attempting to make child job directory: /expanse/lustre/scratch/selhajj/temp_project/qcscratch/28445585/qchem3796583//Frg4/
Creating input file /expanse/lustre/scratch/selhajj/temp_project/qcscratch/28445585/qchem3796583/Frg1.input
using default PutDataFrgm: nothing
calling putenv with: QCSCRATCH=/expanse/lustre/scratch/selhajj/temp_project/qcscratch/28445585/qchem3796583/ 
Spawning Job For Fragment 0
Done Job For Fragment 0
calling putenv with: QCSCRATCH=/expanse/lustre/scratch/selhajj/temp_project/qcscratch/28445585 
calling putenv with: QCTHREADS=8 
Creating input file /expanse/lustre/scratch/selhajj/temp_project/qcscratch/28445585/qchem3796583/Frg2.input
using default PutDataFrgm: nothing
calling putenv with: QCSCRATCH=/expanse/lustre/scratch/selhajj/temp_project/qcscratch/28445585/qchem3796583/ 
Spawning Job For Fragment 1
Done Job For Fragment 1
calling putenv with: QCSCRATCH=/expanse/lustre/scratch/selhajj/temp_project/qcscratch/28445585 
calling putenv with: QCTHREADS=8 
Creating input file /expanse/lustre/scratch/selhajj/temp_project/qcscratch/28445585/qchem3796583/Frg3.input
using default PutDataFrgm: nothing
calling putenv with: QCSCRATCH=/expanse/lustre/scratch/selhajj/temp_project/qcscratch/28445585/qchem3796583/ 
Spawning Job For Fragment 2
Done Job For Fragment 2
calling putenv with: QCSCRATCH=/expanse/lustre/scratch/selhajj/temp_project/qcscratch/28445585 
calling putenv with: QCTHREADS=8 
Creating input file /expanse/lustre/scratch/selhajj/temp_project/qcscratch/28445585/qchem3796583/Frg4.input
using default PutDataFrgm: nothing
calling putenv with: QCSCRATCH=/expanse/lustre/scratch/selhajj/temp_project/qcscratch/28445585/qchem3796583/ 
Spawning Job For Fragment 3
Done Job For Fragment 3
calling putenv with: QCSCRATCH=/expanse/lustre/scratch/selhajj/temp_project/qcscratch/28445585 
calling putenv with: QCTHREADS=8 
 Time for running child jobs:  CPU 0.01 s  wall 13.73 s
 ============= Method Specific Promolecule Density Constructed =============
 Guess from superposition of atomic densities
 Warning:  Energy on first SCF cycle will be non-variational
 SAD guess density has 116.000000 electrons

 -----------------------------------------------------------------------
  General SCF calculation program by
  Eric Jon Sundstrom, Paul Horn, Yuezhi Mao, Dmitri Zuev, Alec White,
  David Stuck, Shaama M.S., Shane Yost, Joonho Lee, David Small,
  Daniel Levine, Susi Lehtola, Hugh Burton, Evgeny Epifanovsky,
  Bang C. Huynh
 -----------------------------------------------------------------------
 Exchange:     0.2000 Hartree-Fock + 0.0800 Slater + 0.7200 B88
 Correlation:  0.1900 VWN1RPA + 0.8100 LYP
 Using SG-1 standard quadrature grid
 using 8 threads for integral computing
 -------------------------------------------------------
 OpenMP Integral computing Module                
 Release: version 1.0, May 2013, Q-Chem Inc. Pittsburgh 
 -------------------------------------------------------
 
 SM12 calculation using CM5 charges
 Citation of the SM12 model:
 Marenich, A.V.; Cramer, C.J.; Truhlar, D.G.
 J. Chem. Theory Comput. 2013, 9, 609-612.
 iSolventCode=          91
 Solvent: dimethylformamide                                               
 
Hirshfeld: reading atomic densities from disk.
warning:  vdwdata pointer should have been initialzed before dftman
 Inaccurate integrated density:
   Number of electrons =   117
   Numerical integral  =   116.001987822040
   Relative error      =    -0.8530018615 %

 Charges (in A.U.) from CM5PAC (Nov. 11, 2011)
 -----------------------------------------------
 Center     Atomic      CM5         Hirshfeld
 Number     Number      Charge      Charge
 -----------------------------------------------
    1          7       -0.465420   -0.018554
    2          6        0.057158    0.002743
    3          6       -0.048650   -0.000899
    4          6       -0.057765   -0.003030
    5          6       -0.052181   -0.000611
    6          6       -0.001810   -0.000245
    7          6        0.037360    0.006925
    8          8       -0.064197   -0.017362
    9          6       -0.002056   -0.000236
   10          6       -0.052118   -0.000566
   11          6       -0.058014   -0.002932
   12          6       -0.058051   -0.002957
   13          6       -0.052048   -0.000510
   14          6       -0.001935   -0.000186
   15          6        0.037813    0.007618
   16          8       -0.081740   -0.020004
   17          6        0.006576    0.001640
   18          1        0.198590    0.007739
   19          1        0.218103    0.010346
   20          1        0.062301    0.003530
   21          1        0.058601    0.003045
   22          1        0.067136    0.005502
   23          1        0.066369    0.005429
   24          1        0.058480    0.003043
   25          1        0.058483    0.003036
   26          1        0.067026    0.005511
 -----------------------------------------------

 Dipole moment (in Debye)
 -----------------------------------------------
                 X        Y        Z     Total
 -----------------------------------------------
 CM5         -0.0919  -0.0517   0.5409   0.5511
 Hirshfeld   -0.0108  -0.0278   0.0171   0.0344
 -----------------------------------------------

 A unrestricted SCF calculation will be
 performed using DIIS
 SCF converges when DIIS error is below 1.0e-08
 ---------------------------------------
  Cycle       Energy         DIIS error
 ---------------------------------------
Hirshfeld: reading atomic densities from disk.

 Charges (in A.U.) from CM5PAC (Nov. 11, 2011)
 -----------------------------------------------
 Center     Atomic      CM5         Hirshfeld
 Number     Number      Charge      Charge
 -----------------------------------------------
    1          7       -0.747925   -0.301060
    2          6        0.168535    0.114120
    3          6       -0.231471   -0.183719
    4          6       -0.184467   -0.129732
    5          6       -0.234430   -0.182861
    6          6       -0.078971   -0.077406
    7          6        0.249048    0.218614
    8          8       -0.630115   -0.583281
    9          6       -0.074306   -0.072486
   10          6       -0.172258   -0.120706
   11          6       -0.176126   -0.121045
   12          6       -0.176877   -0.121782
   13          6       -0.174290   -0.122752
   14          6       -0.072420   -0.070671
   15          6        0.251259    0.221063
   16          8       -0.593611   -0.531875
   17          6       -0.086632   -0.091569
   18          1        0.398997    0.208145
   19          1        0.350329    0.142572
   20          1        0.178698    0.119928
   21          1        0.179656    0.124099
   22          1        0.163440    0.101806
   23          1        0.168473    0.107533
   24          1        0.178870    0.123433
   25          1        0.178658    0.123210
   26          1        0.167246    0.105731
 -----------------------------------------------

 Dipole moment (in Debye)
 -----------------------------------------------
                 X        Y        Z     Total
 -----------------------------------------------
 CM5         -2.1704   3.2855   1.3210   4.1533
 Hirshfeld   -2.0893   3.3094   0.7971   3.9941
 -----------------------------------------------

    1    -748.4622803638      1.62e-02  
Hirshfeld: reading atomic densities from disk.

 Charges (in A.U.) from CM5PAC (Nov. 11, 2011)
 -----------------------------------------------
 Center     Atomic      CM5         Hirshfeld
 Number     Number      Charge      Charge
 -----------------------------------------------
    1          7       -0.450877   -0.004011
    2          6       -0.030500   -0.084914
    3          6       -0.032509    0.015243
    4          6       -0.024958    0.029777
    5          6       -0.016484    0.035085
    6          6       -0.060163   -0.058599
    7          6       -0.249167   -0.279602
    8          8        0.090288    0.137123
    9          6       -0.061977   -0.060157
   10          6       -0.040847    0.010705
   11          6       -0.033481    0.021600
   12          6       -0.035001    0.020093
   13          6       -0.033121    0.018417
   14          6       -0.061952   -0.060203
   15          6       -0.236171   -0.266367
   16          8        0.068680    0.130416
   17          6       -0.084820   -0.089757
   18          1        0.193520    0.002669
   19          1        0.188015   -0.019743
   20          1       -0.003605   -0.062376
   21          1       -0.007552   -0.063108
   22          1       -0.035841   -0.097475
   23          1       -0.022622   -0.083562
   24          1       -0.001178   -0.056616
   25          1       -0.001825   -0.057273
   26          1       -0.016534   -0.078049
 -----------------------------------------------

 Dipole moment (in Debye)
 -----------------------------------------------
                 X        Y        Z     Total
 -----------------------------------------------
 CM5         -0.5780   1.1143   0.7308   1.4525
 Hirshfeld   -0.4969   1.1382   0.2069   1.2591
 -----------------------------------------------

    2    -744.0440045384      1.96e-03  
Hirshfeld: reading atomic densities from disk.

 Charges (in A.U.) from CM5PAC (Nov. 11, 2011)
 -----------------------------------------------
 Center     Atomic      CM5         Hirshfeld
 Number     Number      Charge      Charge
 -----------------------------------------------
    1          7       -0.606955   -0.160090
    2          6        0.089071    0.034656
    3          6       -0.122349   -0.074597
    4          6       -0.115337   -0.060602
    5          6       -0.117433   -0.065863
    6          6        0.000297    0.001862
    7          6        0.153101    0.122666
    8          8       -0.562779   -0.515945
    9          6        0.001241    0.003061
   10          6       -0.090753   -0.039202
   11          6       -0.113545   -0.058464
   12          6       -0.113967   -0.058873
   13          6       -0.091766   -0.040228
   14          6        0.002439    0.004188
   15          6        0.153016    0.122820
   16          8       -0.513973   -0.452237
   17          6        0.003299   -0.001637
   18          1        0.283331    0.092480
   19          1        0.271718    0.063961
   20          1        0.067589    0.008818
   21          1        0.070879    0.015322
   22          1        0.063396    0.001762
   23          1        0.071292    0.010352
   24          1        0.073245    0.017807
   25          1        0.072914    0.017466
   26          1        0.071317    0.009802
 -----------------------------------------------

 Dipole moment (in Debye)
 -----------------------------------------------
                 X        Y        Z     Total
 -----------------------------------------------
 CM5         -1.6108   2.5270   0.9843   3.1543
 Hirshfeld   -1.5297   2.5509   0.4605   3.0099
 -----------------------------------------------

    3    -743.7445367873      2.93e-03  
Hirshfeld: reading atomic densities from disk.

 Charges (in A.U.) from CM5PAC (Nov. 11, 2011)
 -----------------------------------------------
 Center     Atomic      CM5         Hirshfeld
 Number     Number      Charge      Charge
 -----------------------------------------------
    1          7       -0.632766   -0.185901
    2          6        0.099359    0.044944
    3          6       -0.144325   -0.096573
    4          6       -0.119061   -0.064326
    5          6       -0.143899   -0.092329
    6          6       -0.067363   -0.065798
    7          6        0.087241    0.056806
    8          8       -0.386352   -0.339517
    9          6       -0.062656   -0.060836
   10          6       -0.109737   -0.058186
   11          6       -0.113718   -0.058637
   12          6       -0.114982   -0.059887
   13          6       -0.108711   -0.057173
   14          6       -0.062384   -0.060635
   15          6        0.093774    0.063579
   16          8       -0.370609   -0.308872
   17          6       -0.071588   -0.076524
   18          1        0.303529    0.112678
   19          1        0.284166    0.076408
   20          1        0.090251    0.031480
   21          1        0.093331    0.037774
   22          1        0.084560    0.022926
   23          1        0.091144    0.030204
   24          1        0.094220    0.038782
   25          1        0.093869    0.038421
   26          1        0.091971    0.030457
 -----------------------------------------------

 Dipole moment (in Debye)
 -----------------------------------------------
                 X        Y        Z     Total
 -----------------------------------------------
 CM5         -1.1864   2.3135   1.0383   2.7996
 Hirshfeld   -1.1053   2.3374   0.5144   2.6363
 -----------------------------------------------

    4    -744.3575360708      7.20e-04  
Hirshfeld: reading atomic densities from disk.

 Charges (in A.U.) from CM5PAC (Nov. 11, 2011)
 -----------------------------------------------
 Center     Atomic      CM5         Hirshfeld
 Number     Number      Charge      Charge
 -----------------------------------------------
    1          7       -0.617471   -0.170606
    2          6        0.084657    0.030242
    3          6       -0.143714   -0.095962
    4          6       -0.117004   -0.062269
    5          6       -0.132280   -0.080711
    6          6       -0.042154   -0.040589
    7          6        0.078817    0.048382
    8          8       -0.410467   -0.363633
    9          6       -0.041594   -0.039773
   10          6       -0.107111   -0.055560
   11          6       -0.116434   -0.061353
   12          6       -0.117392   -0.062298
   13          6       -0.106159   -0.054621
   14          6       -0.040814   -0.039065
   15          6        0.080337    0.050141
   16          8       -0.385887   -0.324151
   17          6       -0.055760   -0.060697
   18          1        0.298808    0.107957
   19          1        0.280961    0.073204
   20          1        0.086527    0.027756
   21          1        0.088407    0.032850
   22          1        0.078984    0.017350
   23          1        0.087079    0.026139
   24          1        0.090838    0.035401
   25          1        0.090453    0.035005
   26          1        0.087650    0.026135
 -----------------------------------------------

 Dipole moment (in Debye)
 -----------------------------------------------
                 X        Y        Z     Total
 -----------------------------------------------
 CM5         -1.2981   2.3106   1.0206   2.8400
 Hirshfeld   -1.2170   2.3345   0.4967   2.6792
 -----------------------------------------------

    5    -744.3917881433      1.50e-04  
Hirshfeld: reading atomic densities from disk.

 Charges (in A.U.) from CM5PAC (Nov. 11, 2011)
 -----------------------------------------------
 Center     Atomic      CM5         Hirshfeld
 Number     Number      Charge      Charge
 -----------------------------------------------
    1          7       -0.623129   -0.176263
    2          6        0.091824    0.037409
    3          6       -0.139498   -0.091746
    4          6       -0.117388   -0.062653
    5          6       -0.137516   -0.085947
    6          6       -0.051458   -0.049893
    7          6        0.086940    0.056505
    8          8       -0.407003   -0.360169
    9          6       -0.048421   -0.046601
   10          6       -0.106456   -0.054905
   11          6       -0.113575   -0.058494
   12          6       -0.114757   -0.059663
   13          6       -0.105688   -0.054150
   14          6       -0.047739   -0.045991
   15          6        0.093203    0.063007
   16          8       -0.387399   -0.325662
   17          6       -0.055666   -0.060602
   18          1        0.298521    0.107670
   19          1        0.280593    0.072836
   20          1        0.085033    0.026262
   21          1        0.087779    0.032223
   22          1        0.078748    0.017113
   23          1        0.086306    0.025366
   24          1        0.089742    0.034305
   25          1        0.089343    0.033895
   26          1        0.086938    0.025423
 -----------------------------------------------

 Dipole moment (in Debye)
 -----------------------------------------------
                 X        Y        Z     Total
 -----------------------------------------------
 CM5         -1.2506   2.3323   1.0230   2.8372
 Hirshfeld   -1.1695   2.3562   0.4991   2.6774
 -----------------------------------------------

    6    -744.3949186464      4.94e-05  
Hirshfeld: reading atomic densities from disk.

 Charges (in A.U.) from CM5PAC (Nov. 11, 2011)
 -----------------------------------------------
 Center     Atomic      CM5         Hirshfeld
 Number     Number      Charge      Charge
 -----------------------------------------------
    1          7       -0.622252   -0.175387
    2          6        0.089477    0.035062
    3          6       -0.142243   -0.094491
    4          6       -0.117343   -0.062608
    5          6       -0.134946   -0.083376
    6          6       -0.048548   -0.046983
    7          6        0.086691    0.056257
    8          8       -0.407761   -0.360927
    9          6       -0.046609   -0.044788
   10          6       -0.106451   -0.054899
   11          6       -0.114774   -0.059693
   12          6       -0.115855   -0.060761
   13          6       -0.105570   -0.054032
   14          6       -0.046329   -0.044581
   15          6        0.089274    0.059078
   16          8       -0.385069   -0.323332
   17          6       -0.057926   -0.062862
   18          1        0.298688    0.107837
   19          1        0.280736    0.072979
   20          1        0.085539    0.026768
   21          1        0.087998    0.032442
   22          1        0.078918    0.017284
   23          1        0.086622    0.025682
   24          1        0.090090    0.034652
   25          1        0.089688    0.034240
   26          1        0.087230    0.025715
 -----------------------------------------------

 Dipole moment (in Debye)
 -----------------------------------------------
                 X        Y        Z     Total
 -----------------------------------------------
 CM5         -1.2313   2.3063   1.0208   2.8066
 Hirshfeld   -1.1501   2.3302   0.4969   2.6457
 -----------------------------------------------

    7    -744.3951746238      1.75e-05  
Hirshfeld: reading atomic densities from disk.

 Charges (in A.U.) from CM5PAC (Nov. 11, 2011)
 -----------------------------------------------
 Center     Atomic      CM5         Hirshfeld
 Number     Number      Charge      Charge
 -----------------------------------------------
    1          7       -0.622156   -0.175290
    2          6        0.090353    0.035938
    3          6       -0.141272   -0.093521
    4          6       -0.117428   -0.062693
    5          6       -0.136577   -0.085007
    6          6       -0.049263   -0.047698
    7          6        0.084607    0.054172
    8          8       -0.406219   -0.359384
    9          6       -0.046892   -0.045071
   10          6       -0.106767   -0.055215
   11          6       -0.114361   -0.059280
   12          6       -0.115524   -0.060430
   13          6       -0.105864   -0.054326
   14          6       -0.046080   -0.044332
   15          6        0.089770    0.059574
   16          8       -0.386536   -0.324800
   17          6       -0.056063   -0.061000
   18          1        0.298584    0.107733
   19          1        0.280747    0.072989
   20          1        0.085352    0.026581
   21          1        0.088011    0.032455
   22          1        0.079004    0.017369
   23          1        0.086700    0.025760
   24          1        0.090122    0.034685
   25          1        0.089708    0.034260
   26          1        0.087320    0.025805
 -----------------------------------------------

 Dipole moment (in Debye)
 -----------------------------------------------
                 X        Y        Z     Total
 -----------------------------------------------
 CM5         -1.2352   2.3130   1.0206   2.8138
 Hirshfeld   -1.1541   2.3369   0.4967   2.6533
 -----------------------------------------------

    8    -744.3952402086      7.75e-06  
Hirshfeld: reading atomic densities from disk.

 Charges (in A.U.) from CM5PAC (Nov. 11, 2011)
 -----------------------------------------------
 Center     Atomic      CM5         Hirshfeld
 Number     Number      Charge      Charge
 -----------------------------------------------
    1          7       -0.622582   -0.175716
    2          6        0.089898    0.035484
    3          6       -0.141493   -0.093742
    4          6       -0.117579   -0.062844
    5          6       -0.136224   -0.084654
    6          6       -0.048961   -0.047397
    7          6        0.085717    0.055282
    8          8       -0.406920   -0.360086
    9          6       -0.046695   -0.044875
   10          6       -0.106708   -0.055156
   11          6       -0.114518   -0.059437
   12          6       -0.115662   -0.060568
   13          6       -0.105924   -0.054386
   14          6       -0.046313   -0.044564
   15          6        0.089785    0.059590
   16          8       -0.385421   -0.323685
   17          6       -0.056504   -0.061440
   18          1        0.298639    0.107788
   19          1        0.280749    0.072992
   20          1        0.085333    0.026563
   21          1        0.087954    0.032398
   22          1        0.078949    0.017315
   23          1        0.086684    0.025744
   24          1        0.090099    0.034662
   25          1        0.089688    0.034240
   26          1        0.087284    0.025769
 -----------------------------------------------

 Dipole moment (in Debye)
 -----------------------------------------------
                 X        Y        Z     Total
 -----------------------------------------------
 CM5         -1.2272   2.3167   1.0214   2.8136
 Hirshfeld   -1.1460   2.3406   0.4975   2.6532
 -----------------------------------------------

    9    -744.3952311285      5.57e-06  
Hirshfeld: reading atomic densities from disk.

 Charges (in A.U.) from CM5PAC (Nov. 11, 2011)
 -----------------------------------------------
 Center     Atomic      CM5         Hirshfeld
 Number     Number      Charge      Charge
 -----------------------------------------------
    1          7       -0.622359   -0.175494
    2          6        0.089921    0.035507
    3          6       -0.141805   -0.094054
    4          6       -0.117525   -0.062790
    5          6       -0.136013   -0.084444
    6          6       -0.048885   -0.047321
    7          6        0.085792    0.055357
    8          8       -0.406443   -0.359609
    9          6       -0.046719   -0.044898
   10          6       -0.106678   -0.055127
   11          6       -0.114585   -0.059503
   12          6       -0.115717   -0.060623
   13          6       -0.105772   -0.054234
   14          6       -0.046207   -0.044459
   15          6        0.089809    0.059613
   16          8       -0.385983   -0.324247
   17          6       -0.056789   -0.061725
   18          1        0.298610    0.107759
   19          1        0.280732    0.072975
   20          1        0.085346    0.026575
   21          1        0.087936    0.032380
   22          1        0.078916    0.017282
   23          1        0.086660    0.025720
   24          1        0.090089    0.034652
   25          1        0.089674    0.034226
   26          1        0.087271    0.025756
 -----------------------------------------------

 Dipole moment (in Debye)
 -----------------------------------------------
                 X        Y        Z     Total
 -----------------------------------------------
 CM5         -1.2230   2.3039   1.0197   2.8006
 Hirshfeld   -1.1419   2.3278   0.4959   2.6398
 -----------------------------------------------

   10    -744.3952717844      1.82e-06  
Hirshfeld: reading atomic densities from disk.

 Charges (in A.U.) from CM5PAC (Nov. 11, 2011)
 -----------------------------------------------
 Center     Atomic      CM5         Hirshfeld
 Number     Number      Charge      Charge
 -----------------------------------------------
    1          7       -0.622416   -0.175551
    2          6        0.090004    0.035589
    3          6       -0.141716   -0.093964
    4          6       -0.117515   -0.062780
    5          6       -0.136132   -0.084562
    6          6       -0.048936   -0.047372
    7          6        0.085677    0.055243
    8          8       -0.406596   -0.359761
    9          6       -0.046742   -0.044922
   10          6       -0.106682   -0.055130
   11          6       -0.114542   -0.059461
   12          6       -0.115693   -0.060599
   13          6       -0.105802   -0.054264
   14          6       -0.046199   -0.044451
   15          6        0.089794    0.059598
   16          8       -0.385742   -0.324005
   17          6       -0.056647   -0.061584
   18          1        0.298596    0.107745
   19          1        0.280716    0.072959
   20          1        0.085323    0.026553
   21          1        0.087930    0.032374
   22          1        0.078920    0.017286
   23          1        0.086661    0.025721
   24          1        0.090084    0.034647
   25          1        0.089668    0.034220
   26          1        0.087263    0.025748
 -----------------------------------------------

 Dipole moment (in Debye)
 -----------------------------------------------
                 X        Y        Z     Total
 -----------------------------------------------
 CM5         -1.2245   2.3102   1.0205   2.8068
 Hirshfeld   -1.1434   2.3341   0.4966   2.6462
 -----------------------------------------------

   11    -744.3952812181      1.14e-06  
Hirshfeld: reading atomic densities from disk.

 Charges (in A.U.) from CM5PAC (Nov. 11, 2011)
 -----------------------------------------------
 Center     Atomic      CM5         Hirshfeld
 Number     Number      Charge      Charge
 -----------------------------------------------
    1          7       -0.622462   -0.175597
    2          6        0.089920    0.035505
    3          6       -0.141671   -0.093920
    4          6       -0.117549   -0.062814
    5          6       -0.136115   -0.084545
    6          6       -0.048897   -0.047333
    7          6        0.085724    0.055289
    8          8       -0.406539   -0.359705
    9          6       -0.046690   -0.044869
   10          6       -0.106679   -0.055127
   11          6       -0.114551   -0.059470
   12          6       -0.115690   -0.060596
   13          6       -0.105840   -0.054302
   14          6       -0.046237   -0.044488
   15          6        0.089780    0.059585
   16          8       -0.385777   -0.324041
   17          6       -0.056629   -0.061566
   18          1        0.298610    0.107759
   19          1        0.280727    0.072969
   20          1        0.085324    0.026553
   21          1        0.087930    0.032374
   22          1        0.078918    0.017284
   23          1        0.086657    0.025717
   24          1        0.090082    0.034645
   25          1        0.089668    0.034220
   26          1        0.087264    0.025749
 -----------------------------------------------

 Dipole moment (in Debye)
 -----------------------------------------------
                 X        Y        Z     Total
 -----------------------------------------------
 CM5         -1.2238   2.3075   1.0202   2.8041
 Hirshfeld   -1.1427   2.3314   0.4963   2.6434
 -----------------------------------------------

   12    -744.3952786299      2.74e-07  
Hirshfeld: reading atomic densities from disk.

 Charges (in A.U.) from CM5PAC (Nov. 11, 2011)
 -----------------------------------------------
 Center     Atomic      CM5         Hirshfeld
 Number     Number      Charge      Charge
 -----------------------------------------------
    1          7       -0.622429   -0.175563
    2          6        0.089948    0.035534
    3          6       -0.141696   -0.093944
    4          6       -0.117538   -0.062803
    5          6       -0.136117   -0.084548
    6          6       -0.048919   -0.047355
    7          6        0.085713    0.055278
    8          8       -0.406547   -0.359713
    9          6       -0.046717   -0.044896
   10          6       -0.106687   -0.055135
   11          6       -0.114549   -0.059468
   12          6       -0.115693   -0.060599
   13          6       -0.105815   -0.054277
   14          6       -0.046223   -0.044474
   15          6        0.089792    0.059597
   16          8       -0.385765   -0.324029
   17          6       -0.056653   -0.061589
   18          1        0.298602    0.107751
   19          1        0.280723    0.072965
   20          1        0.085324    0.026553
   21          1        0.087931    0.032374
   22          1        0.078920    0.017285
   23          1        0.086660    0.025720
   24          1        0.090082    0.034645
   25          1        0.089667    0.034219
   26          1        0.087262    0.025747
 -----------------------------------------------

 Dipole moment (in Debye)
 -----------------------------------------------
                 X        Y        Z     Total
 -----------------------------------------------
 CM5         -1.2240   2.3085   1.0203   2.8051
 Hirshfeld   -1.1429   2.3324   0.4964   2.6444
 -----------------------------------------------

   13    -744.3952810399      2.07e-07  
Hirshfeld: reading atomic densities from disk.

 Charges (in A.U.) from CM5PAC (Nov. 11, 2011)
 -----------------------------------------------
 Center     Atomic      CM5         Hirshfeld
 Number     Number      Charge      Charge
 -----------------------------------------------
    1          7       -0.622444   -0.175578
    2          6        0.089957    0.035543
    3          6       -0.141701   -0.093950
    4          6       -0.117534   -0.062799
    5          6       -0.136116   -0.084547
    6          6       -0.048909   -0.047345
    7          6        0.085715    0.055280
    8          8       -0.406544   -0.359710
    9          6       -0.046713   -0.044893
   10          6       -0.106676   -0.055125
   11          6       -0.114551   -0.059470
   12          6       -0.115696   -0.060602
   13          6       -0.105826   -0.054288
   14          6       -0.046224   -0.044476
   15          6        0.089784    0.059589
   16          8       -0.385770   -0.324034
   17          6       -0.056647   -0.061583
   18          1        0.298604    0.107753
   19          1        0.280724    0.072966
   20          1        0.085324    0.026553
   21          1        0.087929    0.032373
   22          1        0.078919    0.017285
   23          1        0.086660    0.025720
   24          1        0.090082    0.034645
   25          1        0.089668    0.034220
   26          1        0.087263    0.025748
 -----------------------------------------------

 Dipole moment (in Debye)
 -----------------------------------------------
                 X        Y        Z     Total
 -----------------------------------------------
 CM5         -1.2240   2.3081   1.0202   2.8047
 Hirshfeld   -1.1429   2.3320   0.4964   2.6440
 -----------------------------------------------

   14    -744.3952799772      5.86e-08  
Hirshfeld: reading atomic densities from disk.

 Charges (in A.U.) from CM5PAC (Nov. 11, 2011)
 -----------------------------------------------
 Center     Atomic      CM5         Hirshfeld
 Number     Number      Charge      Charge
 -----------------------------------------------
    1          7       -0.622437   -0.175572
    2          6        0.089948    0.035533
    3          6       -0.141696   -0.093944
    4          6       -0.117538   -0.062803
    5          6       -0.136118   -0.084548
    6          6       -0.048913   -0.047348
    7          6        0.085715    0.055280
    8          8       -0.406543   -0.359709
    9          6       -0.046712   -0.044892
   10          6       -0.106684   -0.055132
   11          6       -0.114550   -0.059469
   12          6       -0.115694   -0.060599
   13          6       -0.105821   -0.054283
   14          6       -0.046223   -0.044474
   15          6        0.089787    0.059592
   16          8       -0.385771   -0.324035
   17          6       -0.056648   -0.061585
   18          1        0.298603    0.107752
   19          1        0.280723    0.072965
   20          1        0.085324    0.026553
   21          1        0.087930    0.032374
   22          1        0.078920    0.017286
   23          1        0.086660    0.025720
   24          1        0.090083    0.034645
   25          1        0.089667    0.034219
   26          1        0.087263    0.025748
 -----------------------------------------------

 Dipole moment (in Debye)
 -----------------------------------------------
                 X        Y        Z     Total
 -----------------------------------------------
 CM5         -1.2239   2.3082   1.0203   2.8047
 Hirshfeld   -1.1428   2.3321   0.4964   2.6441
 -----------------------------------------------

   15    -744.3952806124      4.54e-08  
Hirshfeld: reading atomic densities from disk.

 Charges (in A.U.) from CM5PAC (Nov. 11, 2011)
 -----------------------------------------------
 Center     Atomic      CM5         Hirshfeld
 Number     Number      Charge      Charge
 -----------------------------------------------
    1          7       -0.622438   -0.175572
    2          6        0.089950    0.035536
    3          6       -0.141697   -0.093946
    4          6       -0.117538   -0.062803
    5          6       -0.136117   -0.084547
    6          6       -0.048912   -0.047347
    7          6        0.085715    0.055281
    8          8       -0.406541   -0.359707
    9          6       -0.046713   -0.044892
   10          6       -0.106681   -0.055129
   11          6       -0.114550   -0.059469
   12          6       -0.115694   -0.060600
   13          6       -0.105822   -0.054284
   14          6       -0.046226   -0.044477
   15          6        0.089786    0.059590
   16          8       -0.385772   -0.324036
   17          6       -0.056647   -0.061584
   18          1        0.298602    0.107751
   19          1        0.280723    0.072965
   20          1        0.085323    0.026552
   21          1        0.087930    0.032374
   22          1        0.078920    0.017286
   23          1        0.086660    0.025720
   24          1        0.090083    0.034645
   25          1        0.089667    0.034219
   26          1        0.087263    0.025748
 -----------------------------------------------

 Dipole moment (in Debye)
 -----------------------------------------------
                 X        Y        Z     Total
 -----------------------------------------------
 CM5         -1.2239   2.3081   1.0202   2.8046
 Hirshfeld   -1.1428   2.3320   0.4964   2.6439
 -----------------------------------------------

   16    -744.3952804569      1.76e-08  
   17    -744.3952805805      9.18e-09  Convergence criterion met
 ---------------------------------------
 SCF time:   CPU 4783.10s  wall 609.00s 
<S^2> =          0.759572974
(1)  E-EN(liq) elect-nuc energy of solute               -744.395280581 a.u.
(2)  G-P(liq) polarization free energy of solvation           -48.6576 kcal/mol
(3)  G-ENP(liq) elect-nuc-pol free energy of system     -744.472821406 a.u.
(4)  G-CDS(liq) cavity-dispersion-solvent structure 
     free energy                                               -7.8700 kcal/mol
(5)  G-P-CDS(liq) = G-P(liq) + G-CDS(liq) = (2) + (4)         -56.5276 kcal/mol
(6)  G-S(liq) free energy of system = (1) + (5)         -744.485363008 a.u.
 SCF   energy in the final basis set =     -744.4853630081
 Total energy in the final basis set =     -744.4853630081
 
 --------------------------------------------------------------
 
                    Orbital Energies (a.u.)
 --------------------------------------------------------------
 
 Alpha MOs
 -- Occupied --
-19.0833 -19.0767 -14.3125 -10.2336 -10.2259 -10.2254 -10.1829 -10.1822
-10.1814 -10.1813 -10.1806 -10.1797 -10.1795 -10.1791 -10.1788 -10.1727
-10.1662  -1.0088  -1.0025  -0.9198  -0.8655  -0.8443  -0.7915  -0.7586
 -0.7467  -0.7363  -0.6724  -0.6452  -0.6293  -0.5927  -0.5659  -0.5517
 -0.5347  -0.5052  -0.4831  -0.4786  -0.4670  -0.4531  -0.4460  -0.4323
 -0.4299  -0.4182  -0.4118  -0.4021  -0.3884  -0.3818  -0.3806  -0.3654
 -0.3536  -0.3503  -0.3434  -0.3154  -0.2737  -0.2643  -0.2575  -0.2510
 -0.2400  -0.2187  -0.1450
 -- Virtual --
 -0.0564  -0.0318  -0.0299  -0.0264  -0.0208  -0.0136  -0.0108  -0.0070
  0.0024   0.0100   0.0216   0.0223   0.0287   0.0349   0.0366   0.0413
  0.0426   0.0442   0.0542   0.0643   0.0664   0.0681   0.0752   0.0756
  0.0778   0.0796   0.0837   0.0894   0.0910   0.0931   0.0999   0.1039
  0.1072   0.1100   0.1119   0.1161   0.1182   0.1267   0.1359   0.1376
  0.1426   0.1474   0.1498   0.1526   0.1595   0.1620   0.1627   0.1661
  0.1715   0.1744   0.1788   0.1919   0.1979   0.2011   0.2022   0.2049
  0.2098   0.2203   0.2213   0.2253   0.2267   0.2329   0.2361   0.2402
  0.2425   0.2463   0.2509   0.2582   0.2623   0.2654   0.2751   0.2773
  0.2812   0.2851   0.2908   0.2920   0.2991   0.3021   0.3050   0.3091
  0.3125   0.3160   0.3205   0.3260   0.3308   0.3392   0.3448   0.3492
  0.3562   0.3619   0.3717   0.3858   0.4001   0.4060   0.4104   0.4269
  0.4385   0.4673   0.4773   0.4921   0.5004   0.5196   0.5338   0.5362
  0.5415   0.5427   0.5468   0.5512   0.5553   0.5697   0.5714   0.5834
  0.5934   0.5944   0.5974   0.6104   0.6154   0.6229   0.6332   0.6381
  0.6416   0.6432   0.6500   0.6626   0.6663   0.6682   0.6772   0.6839
  0.6897   0.7095   0.7184   0.7288   0.7415   0.7523   0.7548   0.7618
  0.7687   0.7847   0.7887   0.7962   0.8105   0.8211   0.8342   0.8410
  0.8470   0.8545   0.8585   0.8726   0.8840   0.8852   0.8956   0.9073
  0.9167   0.9240   0.9307   0.9379   0.9434   0.9508   0.9658   0.9786
  0.9862   0.9945   0.9991   1.0116   1.0126   1.0273   1.0315   1.0501
  1.0555   1.0669   1.0829   1.0915   1.1041   1.1232   1.1360   1.1431
  1.1544   1.1652   1.1765   1.1814   1.2120   1.2318   1.2433   1.2559
  1.2625   1.2819   1.3195   1.3267   1.3319   1.3471   1.3592   1.4072
  1.4523   1.4661   1.4778   1.4852   1.4899   1.5069   1.5103   1.5155
  1.5267   1.5298   1.5538   1.5647   1.5662   1.5731   1.5870   1.6050
  1.6193   1.6321   1.6498   1.6690   1.6781   1.6952   1.7025   1.7075
  1.7291   1.7381   1.7482   1.7496   1.7696   1.7823   1.7933   1.8058
  1.8361   1.8474   1.8812   1.8872   1.8919   1.8988   1.9114   1.9125
  1.9301   1.9344   1.9391   1.9575   1.9631   1.9719   1.9793   1.9821
  1.9868   1.9985   2.0072   2.0174   2.0735   2.0817   2.0891   2.1014
  2.1151   2.1431   2.1585   2.1924   2.2005   2.2635   2.2721   2.2855
  2.3136   2.3282   2.3618   2.3776   2.3882   2.4092   2.4280   2.4690
  2.4790   2.4896   2.5431   2.5539   2.5648   2.6123   2.6312   2.6365
  2.6628   2.6683   2.7016   2.7062   2.7165   2.7228   2.7300   2.7401
  2.7524   2.7619   2.7674   2.7756   2.7827   2.7865   2.7937   2.7974
  2.8045   2.8135   2.8276   2.8471   2.8528   2.8700   2.8811   2.8858
  2.8940   2.9066   2.9384   2.9483   2.9603   2.9864   3.0293   3.0311
  3.0888   3.1036   3.1071   3.1378   3.1505   3.2070   3.2195   3.2259
  3.2471   3.2963   3.3169   3.3204   3.3502   3.3521   3.3944   3.4107
  3.4359   3.4706   3.5063   3.5190   3.5300   3.5575   3.5683   3.5788
  3.5891   3.6890   3.7786   3.8350   3.8445   3.9375   4.0069   4.0360
  4.0495   4.0801   4.1549   4.1956   4.2785   4.3095   4.4778   4.7925
  4.8248   4.8342   4.8563   5.0349   5.0765   5.0922   5.2890   5.3559
  5.7665   5.8428  23.5266  23.6968  23.8984  23.9134  23.9294  23.9398
 23.9525  23.9681  24.0023  24.0388  24.0749  24.1129  24.1841  24.1848
 35.6724  50.0591  50.1120
 
 Beta MOs
 -- Occupied --
-19.0780 -19.0708 -14.3123 -10.2319 -10.2255 -10.2245 -10.1824 -10.1817
-10.1812 -10.1809 -10.1798 -10.1791 -10.1790 -10.1787 -10.1785 -10.1716
-10.1659  -0.9998  -0.9923  -0.9190  -0.8632  -0.8427  -0.7876  -0.7565
 -0.7448  -0.7340  -0.6654  -0.6435  -0.6269  -0.5920  -0.5638  -0.5496
 -0.5333  -0.5044  -0.4813  -0.4757  -0.4661  -0.4522  -0.4449  -0.4319
 -0.4191  -0.4164  -0.4066  -0.3995  -0.3823  -0.3805  -0.3645  -0.3616
 -0.3522  -0.3423  -0.3390  -0.3090  -0.2576  -0.2525  -0.2521  -0.2461
 -0.2347  -0.2111
 -- Virtual --
 -0.0880  -0.0473  -0.0300  -0.0265  -0.0218  -0.0204  -0.0137  -0.0108
 -0.0045   0.0024   0.0100   0.0222   0.0226   0.0286   0.0364   0.0380
  0.0428   0.0442   0.0470   0.0615   0.0646   0.0674   0.0699   0.0754
  0.0779   0.0797   0.0825   0.0840   0.0895   0.0911   0.0933   0.1002
  0.1055   0.1076   0.1118   0.1125   0.1175   0.1192   0.1267   0.1361
  0.1377   0.1427   0.1475   0.1499   0.1532   0.1595   0.1626   0.1640
  0.1692   0.1717   0.1749   0.1805   0.1920   0.1981   0.2013   0.2029
  0.2053   0.2104   0.2208   0.2219   0.2266   0.2275   0.2372   0.2399
  0.2408   0.2436   0.2466   0.2522   0.2593   0.2626   0.2661   0.2760
  0.2782   0.2818   0.2859   0.2915   0.2926   0.3021   0.3034   0.3067
  0.3113   0.3135   0.3171   0.3219   0.3267   0.3320   0.3405   0.3450
  0.3497   0.3570   0.3629   0.3724   0.3871   0.4016   0.4072   0.4133
  0.4280   0.4400   0.4684   0.4791   0.4933   0.5017   0.5211   0.5355
  0.5371   0.5433   0.5446   0.5480   0.5538   0.5580   0.5704   0.5726
  0.5853   0.5949   0.5969   0.5983   0.6117   0.6164   0.6242   0.6352
  0.6404   0.6440   0.6446   0.6526   0.6632   0.6674   0.6705   0.6782
  0.6851   0.6935   0.7102   0.7191   0.7324   0.7420   0.7528   0.7554
  0.7622   0.7693   0.7868   0.7896   0.7968   0.8109   0.8222   0.8351
  0.8418   0.8478   0.8553   0.8594   0.8736   0.8854   0.8861   0.8968
  0.9082   0.9175   0.9261   0.9326   0.9391   0.9455   0.9520   0.9675
  0.9803   0.9888   0.9965   1.0014   1.0128   1.0141   1.0295   1.0336
  1.0526   1.0571   1.0681   1.0856   1.0964   1.1089   1.1291   1.1393
  1.1457   1.1579   1.1674   1.1789   1.1873   1.2147   1.2394   1.2480
  1.2621   1.2657   1.2831   1.3216   1.3288   1.3334   1.3487   1.3614
  1.4092   1.4535   1.4668   1.4799   1.4870   1.4915   1.5084   1.5127
  1.5168   1.5299   1.5315   1.5553   1.5662   1.5673   1.5745   1.5875
  1.6069   1.6207   1.6335   1.6511   1.6696   1.6793   1.6978   1.7057
  1.7085   1.7299   1.7396   1.7498   1.7512   1.7708   1.7836   1.7972
  1.8086   1.8370   1.8496   1.8826   1.8883   1.8945   1.9010   1.9141
  1.9144   1.9321   1.9355   1.9401   1.9606   1.9658   1.9735   1.9800
  1.9845   1.9878   2.0025   2.0087   2.0193   2.0747   2.0839   2.0915
  2.1026   2.1174   2.1442   2.1595   2.1940   2.2021   2.2657   2.2745
  2.2879   2.3173   2.3315   2.3628   2.3797   2.3910   2.4121   2.4294
  2.4697   2.4794   2.4899   2.5437   2.5556   2.5659   2.6139   2.6348
  2.6394   2.6658   2.6696   2.7030   2.7097   2.7168   2.7234   2.7305
  2.7406   2.7527   2.7626   2.7731   2.7760   2.7837   2.7871   2.7948
  2.8017   2.8061   2.8170   2.8284   2.8504   2.8540   2.8772   2.8835
  2.8930   2.8983   2.9087   2.9425   2.9592   2.9712   2.9948   3.0348
  3.0387   3.0917   3.1055   3.1103   3.1393   3.1556   3.2087   3.2209
  3.2276   3.2486   3.2979   3.3178   3.3342   3.3509   3.3671   3.3958
  3.4115   3.4367   3.4715   3.5085   3.5212   3.5314   3.5588   3.5695
  3.5802   3.5905   3.6905   3.7798   3.8376   3.8486   3.9394   4.0080
  4.0369   4.0507   4.0817   4.1563   4.1967   4.2811   4.3127   4.4809
  4.7949   4.8272   4.8351   4.8574   5.0354   5.0993   5.1152   5.2938
  5.3602   5.7713   5.8476  23.5273  23.6973  23.8995  23.9143  23.9304
 23.9403  23.9536  23.9693  24.0030  24.0396  24.0757  24.1131  24.1844
 24.1853  35.6726  50.0646  50.1176
 --------------------------------------------------------------
 
          Ground-State Mulliken Net Atomic Charges

     Atom                 Charge (a.u.)    Spin (a.u.)
  --------------------------------------------------------
      1 N                    -0.235643       0.007553
      2 C                    -0.104848       0.019204
      3 C                     1.883808       0.090004
      4 C                     0.792299       0.035808
      5 C                    -0.430128       0.057008
      6 C                    -0.769175       0.051373
      7 C                    -2.043845       0.073901
      8 O                    -0.303051       0.220581
      9 C                    -1.264847       0.027148
     10 C                     0.042135       0.029972
     11 C                     1.067894       0.032340
     12 C                     0.984345       0.042928
     13 C                     0.405036       0.028040
     14 C                    -0.653806       0.035077
     15 C                    -1.703681       0.078850
     16 O                    -0.257176       0.196244
     17 C                    -0.942471      -0.001166
     18 H                     0.392828      -0.000814
     19 H                     0.281266      -0.002886
     20 H                     0.318122      -0.006224
     21 H                     0.355569      -0.002510
     22 H                     0.119568      -0.003778
     23 H                     0.155038      -0.001933
     24 H                     0.360957      -0.002639
     25 H                     0.366589      -0.003365
     26 H                     0.183217      -0.000716
  --------------------------------------------------------
  Sum of atomic charges =    -1.000000
  Sum of spin   charges =     1.000000

 -----------------------------------------------------------------
                    Cartesian Multipole Moments
 -----------------------------------------------------------------
    Charge (ESU x 10^10)
                -4.8032
    Dipole Moment (Debye)
         X      -1.5306      Y       2.5129      Z       1.0356
       Tot       3.1193
    Quadrupole Moments (Debye-Ang)
        XX    -102.3932     XY       3.3539     YY    -129.0783
        XZ      -2.6042     YZ      -0.6429     ZZ    -107.6402
    Octopole Moments (Debye-Ang^2)
       XXX     -32.0353    XXY      23.6765    XYY     -21.6426
       YYY      50.6547    XXZ      14.7629    XYZ      -8.6286
       YYZ      10.1149    XZZ      -6.0613    YZZ       8.0011
       ZZZ       7.3553
    Hexadecapole Moments (Debye-Ang^3)
      XXXX   -3355.8405   XXXY    -160.8907   XXYY    -830.9826
      XYYY     -53.5634   YYYY   -1845.5882   XXXZ     -25.6215
      XXYZ      13.1145   XYYZ       0.9715   YYYZ     -79.1815
      XXZZ    -696.1344   XYZZ     -53.8508   YYZZ    -317.3509
      XZZZ      29.1327   YZZZ     -72.2330   ZZZZ    -148.6668
 -----------------------------------------------------------------
 Total job time:  651.31s(wall), 4789.47s(cpu) 
 Sat Feb  3 11:34:18 2024

        *************************************************************
        *                                                           *
        *  Thank you very much for using Q-Chem.  Have a nice day.  *
        *                                                           *
        *************************************************************


