
Running Job 1 of 1 189-CPCM.in
qchem 189-CPCM.in_2411604.0 /expanse/lustre/scratch/selhajj/temp_project/qcscratch/31251301/qchem2411604/ 0
/cm/shared/apps/spack/cpu/opt/spack/linux-centos8-zen2/gcc-10.2.0/qchem-5.4-akfmr7b3t57bfs6qan3padb2wnb2i7cl/exe/qcprog.exe_s 189-CPCM.in_2411604.0 /expanse/lustre/scratch/selhajj/temp_project/qcscratch/31251301/qchem2411604/
                  Welcome to Q-Chem
     A Quantum Leap Into The Future Of Chemistry


 Q-Chem 5.4, Q-Chem, Inc., Pleasanton, CA (2021)

 License issued to: University of California, San Diego (site)

 E. Epifanovsky,  A. T. B. Gilbert,  Xintian Feng,  Joonho Lee,  Yuezhi Mao,  
 N. Mardirossian,  P. Pokhilko,  A. White,  M. Wormit,  M. P. Coons,  
 A. L. Dempwolff,  Zhengting Gan,  D. Hait,  P. R. Horn,  L. D. Jacobson,  
 I. Kaliman,  J. Kussmann,  A. W. Lange,  Ka Un Lao,  D. S. Levine,  Jie Liu,  
 S. C. McKenzie,  A. F. Morrison,  K. Nanda,  F. Plasser,  D. R. Rehn,  
 M. L. Vidal,  Zhi-Qiang You,  Ying Zhu,  B. Alam,  B. Albrecht,  
 A. Aldossary,  E. Alguire,  J. H. Andersen,  D. Barton,  K. Begam,  A. Behn,  
 Y. A. Bernard,  E. J. Berquist,  H. Burton,  A. Carreras,  K. Carter-Fenk,  
 R. Chakraborty,  A. D. Chien,  K. D. Closser,  V. Cofer-Shabica,  
 S. Dasgupta,  Jia Deng,  M. de Wergifosse,  M. Diedenhofen,  Hainam Do,  
 S. Ehlert,  Po-Tung Fang,  S. Fatehi,  Qingguo Feng,  J. Gayvert,  
 Qinghui Ge,  G. Gidofalvi,  M. Goldey,  J. Gomes,  C. Gonzalez-Espinoza,  
 S. Gulania,  A. Gunina,  M. W. D. Hanson-Heine,  P. H. P. Harbach,  
 A. W. Hauser,  M. F. Herbst,  M. Hernandez Vera,  M. Hodecker,  
 Z. C. Holden,  S. Houck,  Xunkun Huang,  Kerwin Hui,  B. C. Huynh,  
 M. Ivanov,  Hyunjun Ji,  Hanjie Jiang,  B. Kaduk,  S. Kaehler,  
 K. Khistyaev,  Jaehoon Kim,  P. Klunzinger,  Z. Koczor-Benda,  
 Joong Hoon Koh,  D. Kosenkov,  L. Koulias,  T. Kowalczyk,  C. M. Krauter,  
 K. Kue,  A. Kunitsa,  T. Kus,  A. Landau,  K. V. Lawler,  D. Lefrancois,  
 S. Lehtola,  Rain Li,  Yi-Pei Li,  Jiashu Liang,  M. Liebenthal,  
 Hung-Hsuan Lin,  You-Sheng Lin,  Fenglai Liu,  Kuan-Yu Liu,  
 M. Loipersberger,  A. Luenser,  A. Manjanath,  P. Manohar,  E. Mansoor,  
 S. F. Manzer,  Shan-Ping Mao,  A. V. Marenich,  T. Markovich,  S. Mason,  
 S. A. Maurer,  P. F. McLaughlin,  M. F. S. J. Menger,  J.-M. Mewes,  
 S. A. Mewes,  P. Morgante,  J. W. Mullinax,  T. S. Nguyen-Beck,  
 K. J. Oosterbaan,  G. Paran,  Alexander C. Paul,  Suranjan K. Paul,  
 F. Pavosevic,  Zheng Pei,  S. Prager,  E. I. Proynov,  E. Ramos,  B. Rana,  
 A. E. Rask,  A. Rettig,  R. M. Richard,  F. Rob,  E. Rossomme,  T. Scheele,  
 M. Scheurer,  M. Schneider,  N. Sergueev,  S. M. Sharada,  W. Skomorowski,  
 D. W. Small,  C. J. Stein,  Yu-Chuan Su,  E. J. Sundstrom,  Zhen Tao,  
 J. Thirman,  T. Tsuchimochi,  N. M. Tubman,  S. P. Veccham,  O. Vydrov,  
 J. Wenzel,  J. Witte,  A. Yamada,  Kun Yao,  S. Yeganeh,  S. R. Yost,  
 A. Zech,  Igor Ying Zhang,  Xing Zhang,  Yu Zhang,  D. Zuev,  
 A. Aspuru-Guzik,  A. T. Bell,  N. A. Besley,  K. B. Bravaya,  B. R. Brooks,  
 D. Casanova,  Jeng-Da Chai,  S. Coriani,  C. J. Cramer,  
 A. E. DePrince, III,  R. A. DiStasio Jr.,  A. Dreuw,  B. D. Dunietz,  
 T. R. Furlani,  W. A. Goddard III,  S. Grimme,  S. Hammes-Schiffer,  
 T. Head-Gordon,  W. J. Hehre,  Chao-Ping Hsu,  T.-C. Jagau,  Yousung Jung,  
 A. Klamt,  Jing Kong,  D. S. Lambrecht,  WanZhen Liang,  N. J. Mayhall,  
 C. W. McCurdy,  J. B. Neaton,  C. Ochsenfeld,  J. A. Parkhill,  R. Peverati,  
 V. A. Rassolov,  Yihan Shao,  L. V. Slipchenko,  T. Stauch,  R. P. Steele,  
 J. E. Subotnik,  A. J. W. Thom,  A. Tkatchenko,  D. G. Truhlar,  
 T. Van Voorhis,  T. A. Wesolowski,  K. B. Whaley,  H. L. Woodcock III,  
 P. M. Zimmerman,  S. Faraji,  P. M. W. Gill,  M. Head-Gordon,  
 J. M. Herbert,  A. I. Krylov

 Contributors to earlier versions of Q-Chem not listed above: 
 R. D. Adamson,  B. Austin,  R. Baer,  J. Baker,  G. J. O. Beran,  
 K. Brandhorst,  S. T. Brown,  E. F. C. Byrd,  A. K. Chakraborty,  
 G. K. L. Chan,  Chun-Min Chang,  Yunqing Chen,  C.-L. Cheng,  
 Siu Hung Chien,  D. M. Chipman,  D. L. Crittenden,  H. Dachsel,  
 R. J. Doerksen,  A. D. Dutoi,  R. G. Edgar,  J. Fosso-Tande,  
 L. Fusti-Molnar,  D. Ghosh,  A. Ghysels,  A. Golubeva-Zadorozhnaya,  
 J. Gonthier,  M. S. Gordon,  S. R. Gwaltney,  G. Hawkins,  J. E. Herr,  
 A. Heyden,  S. Hirata,  E. G. Hohenstein,  G. Kedziora,  F. J. Keil,  
 C. Kelley,  Jihan Kim,  R. A. King,  R. Z. Khaliullin,  P. P. Korambath,  
 W. Kurlancheek,  A. Laurent,  A. M. Lee,  M. S. Lee,  S. V. Levchenko,  
 Ching Yeh Lin,  D. Liotard,  E. Livshits,  R. C. Lochan,  I. Lotan,  
 L. A. Martinez-Martinez,  P. E. Maslen,  N. Nair,  D. P. O'Neill,  
 D. Neuhauser,  E. Neuscamman,  C. M. Oana,  R. Olivares-Amaya,  R. Olson,  
 T. M. Perrine,  B. Peters,  P. A. Pieniazek,  A. Prociuk,  Y. M. Rhee,  
 J. Ritchie,  M. A. Rohrdanz,  E. Rosta,  N. J. Russ,  H. F. Schaefer III,  
 M. W. Schmidt,  N. E. Schultz,  S. Sharma,  N. Shenvi,  C. D. Sherrill,  
 A. C. Simmonett,  A. Sodt,  T. Stein,  D. Stuck,  K. S. Thanthiriwatte,  
 V. Vanovschi,  L. Vogt,  Tao Wang,  A. Warshel,  M. A. Watson,  
 C. F. Williams,  Q. Wu,  X. Xu,  Jun Yang,  W. Zhang,  Yan Zhao

 Please cite Q-Chem as follows:
 Y. Shao et al., Mol. Phys. 113, 184-215 (2015)
 DOI: 10.1080/00268976.2014.952696

 Q-Chem 5.4.0 for Intel X86 EM64T Linux

 Parts of Q-Chem use Armadillo 9.800.1 (Horizon Scraper).
 http://arma.sourceforge.net/

 Q-Chem begins on Tue Jun 11 20:20:32 2024  

 Host: 
0

     Scratch files written to /expanse/lustre/scratch/selhajj/temp_project/qcscratch/31251301/qchem2411604//
 May1621 |scratch|qcdevops|jenkins|workspace|build_RNUM    
 Processing $rem in /cm/shared/apps/spack/cpu/opt/spack/linux-centos8-zen2/gcc-10.2.0/qchem-5.4-akfmr7b3t57bfs6qan3padb2wnb2i7cl/config/preferences:
 Processing $rem in /home/selhajj/.qchemrc:
 Symmetry turned off for PCM/SM12/SMD calculation

 Checking the input file for inconsistencies... 	...done.

--------------------------------------------------------------
User input:
--------------------------------------------------------------
$molecule
0 1
O                 -4.9304470000      0.9677020000      0.1875110000
C                 -3.7014840000      0.3869110000      0.1179480000
C                 -3.6597330000     -1.0106840000      0.0226490000
C                 -2.4381890000     -1.6575800000     -0.0513740000
C                 -1.2385300000     -0.9341840000     -0.0323890000
C                  0.0559870000     -1.6610290000     -0.1136820000
O                  0.0970790000     -2.8804020000     -0.1971700000
C                  1.2985360000     -0.8447720000     -0.0893020000
C                  2.5440510000     -1.4819380000     -0.1630240000
C                  3.7191430000     -0.7505310000     -0.1426390000
C                  3.6666350000      0.6466620000     -0.0470680000
O                  4.8535630000      1.3126410000     -0.0314750000
C                  2.4378820000      1.2975860000      0.0271990000
C                  1.2559180000      0.5564760000      0.0063510000
C                 -0.0433610000      1.2862180000      0.0877140000
O                 -0.0843960000      2.5035390000      0.1706850000
C                 -1.2904330000      0.4667220000      0.0634410000
C                 -2.5195130000      1.1228340000      0.1382360000
H                 -4.8415040000      1.9252640000      0.2494880000
H                 -4.5918650000     -1.5623120000      0.0085780000
H                 -2.3864880000     -2.7368020000     -0.1254900000
H                  2.5652470000     -2.5622390000     -0.2364340000
H                  4.6862150000     -1.2352410000     -0.1991440000
H                  4.7002880000      2.2616380000      0.0362660000
H                  2.3723610000      2.3781060000      0.1017550000
H                 -2.5269610000      2.2054140000      0.2113700000
$end
$rem
MAX_SCF_CYCLES=200
BASIS  =  6-311++G(d,p)
GUI  =  2
JOB_TYPE  =  SP
METHOD  =  B3LYP
SOLVENT_METHOD = PCM
$end
$pcm
theory = CPCM
$end
$solvent
dielectric 37.219
opticaldielectric 1.43
$end






--------------------------------------------------------------
 ----------------------------------------------------------------
             Standard Nuclear Orientation (Angstroms)
    I     Atom           X                Y                Z
 ----------------------------------------------------------------
    1      O      -4.9304470000     0.9677020000     0.1875110000
    2      C      -3.7014840000     0.3869110000     0.1179480000
    3      C      -3.6597330000    -1.0106840000     0.0226490000
    4      C      -2.4381890000    -1.6575800000    -0.0513740000
    5      C      -1.2385300000    -0.9341840000    -0.0323890000
    6      C       0.0559870000    -1.6610290000    -0.1136820000
    7      O       0.0970790000    -2.8804020000    -0.1971700000
    8      C       1.2985360000    -0.8447720000    -0.0893020000
    9      C       2.5440510000    -1.4819380000    -0.1630240000
   10      C       3.7191430000    -0.7505310000    -0.1426390000
   11      C       3.6666350000     0.6466620000    -0.0470680000
   12      O       4.8535630000     1.3126410000    -0.0314750000
   13      C       2.4378820000     1.2975860000     0.0271990000
   14      C       1.2559180000     0.5564760000     0.0063510000
   15      C      -0.0433610000     1.2862180000     0.0877140000
   16      O      -0.0843960000     2.5035390000     0.1706850000
   17      C      -1.2904330000     0.4667220000     0.0634410000
   18      C      -2.5195130000     1.1228340000     0.1382360000
   19      H      -4.8415040000     1.9252640000     0.2494880000
   20      H      -4.5918650000    -1.5623120000     0.0085780000
   21      H      -2.3864880000    -2.7368020000    -0.1254900000
   22      H       2.5652470000    -2.5622390000    -0.2364340000
   23      H       4.6862150000    -1.2352410000    -0.1991440000
   24      H       4.7002880000     2.2616380000     0.0362660000
   25      H       2.3723610000     2.3781060000     0.1017550000
   26      H      -2.5269610000     2.2054140000     0.2113700000
 ----------------------------------------------------------------
 Nuclear Repulsion Energy =        1200.93376879 hartrees
 There are       62 alpha and       62 beta electrons
 Requested basis set is 6-311++G(d,p)
 There are 148 shells and 452 basis functions

 Total QAlloc Memory Limit   8000 MB
 Mega-Array Size       188 MB
 MEM_STATIC part       192 MB
 Discretize the solute cavity surface with Lebedev spheres
	Using 110 Lebedev grid points for each H atom
	Using 194 Lebedev grid points for other atoms
	Atomic van der Waals radii will be scaled by 1.20
 Remove points where switching function is < 1.0e-08
 Keep 1788 surface tesserae and discard 2584 interior tesserae
 Molecular Surface Area = 254.826 Angst**2
 A cutoff of  1.0D-08 yielded   7582 shell pairs
 There are     73591 function pairs (     78920 Cartesian)
 Smallest overlap matrix eigenvalue = 7.81E-08

 Q-Chem warning in module stvman/mkSTV.C, line 323:

 Overlap eigenvalue is smaller than square root of threshold
 Use THRESH >= 12 to get rid of this warning

 Linear dependence detected in AO basis
 Tighter screening thresholds may be required for diffuse basis sets
 Use S2THRESH > 14 and THRESH = 14 in case of SCF convergence issues
 Number of orthogonalized atomic orbitals = 445
 Maximum deviation from orthogonality = 2.272E-10

 Scale SEOQF with 1.000000e-01/1.000000e-01/1.000000e-01

 Standard Electronic Orientation quadrupole field applied
 Nucleus-field energy     =     0.0000000555 hartrees
 Guess from superposition of atomic densities
 Warning:  Energy on first SCF cycle will be non-variational
 SAD guess density has 124.000000 electrons

 -----------------------------------------------------------------------
  General SCF calculation program by
  Eric Jon Sundstrom, Paul Horn, Yuezhi Mao, Dmitri Zuev, Alec White,
  David Stuck, Shaama M.S., Shane Yost, Joonho Lee, David Small,
  Daniel Levine, Susi Lehtola, Hugh Burton, Evgeny Epifanovsky,
  Bang C. Huynh
 -----------------------------------------------------------------------
 Exchange:     0.2000 Hartree-Fock + 0.0800 Slater + 0.7200 B88
 Correlation:  0.1900 VWN1RPA + 0.8100 LYP
 Using SG-1 standard quadrature grid
 using 8 threads for integral computing
 -------------------------------------------------------
 OpenMP Integral computing Module                
 Release: version 1.0, May 2013, Q-Chem Inc. Pittsburgh 
 -------------------------------------------------------
 A restricted SCF calculation will be
 performed using DIIS
 SCF converges when DIIS error is below 1.0e-05
 ---------------------------------------
  Cycle       Energy         DIIS error
 ---------------------------------------
    1    -843.9357068246      3.24e-02  
    2    -839.2008823900      3.67e-03  
    3    -838.8969851235      5.61e-03  
    4    -839.4403962616      1.31e-03  
    5    -839.4756266939      3.08e-04  
    6    -839.4773494812      1.02e-04  
    7    -839.4775647020      2.88e-05  
    8    -839.4775786743      1.12e-05  
    9    -839.4775771538      2.09e-06  Convergence criterion met
 ---------------------------------------
 SCF time:   CPU 316.79s  wall 41.00s 

************** Final PCM Free Energy Summary **************
 G_electrostatic  =      -0.02746244 hartree =     -17.23294196 kcal/mol
 G_cavitation     =       0.00000000 hartree =       0.00000000 kcal/mol
 G_dispersion     =       0.00000000 hartree =       0.00000000 kcal/mol
 G_repulsion      =       0.00000000 hartree =       0.00000000 kcal/mol
 --------------------------------------------------
 Non-electrostatic Free Energy =       0.00000000 hartree =       0.00000000 kcal/mol
 Total                         =      -0.02746244 hartree =     -17.23294196 kcal/mol
 --------------------------------------------------
 SCF Energy (H0 + V/2)                       =    -839.47757715 
 Solute Internal Energy (H0)                 =    -839.45011471 
 Total Free Energy (H0 + V/2 + non-elec)     =    -839.47757715 hartree
                                             = -526780.13035617 kcal/mol
***********************************************************

 SCF   energy in the final basis set =     -839.4775771538
 Total energy in the final basis set =     -839.4775771538
 
 --------------------------------------------------------------
 
                    Orbital Energies (a.u.)
 --------------------------------------------------------------
 
 Alpha MOs
 -- Occupied --
-19.1725 -19.1725 -19.1347 -19.1247 -10.2862 -10.2782 -10.2631 -10.2631
-10.2114 -10.2114 -10.2017 -10.2017 -10.1986 -10.1986 -10.1966 -10.1966
-10.1947 -10.1947  -1.0848  -1.0848  -1.0692  -1.0598  -0.8931  -0.8803
 -0.8094  -0.7800  -0.7795  -0.7651  -0.6913  -0.6800  -0.6430  -0.6409
 -0.5896  -0.5808  -0.5802  -0.5428  -0.5238  -0.5110  -0.4932  -0.4743
 -0.4620  -0.4589  -0.4550  -0.4544  -0.4507  -0.4354  -0.4337  -0.4240
 -0.4189  -0.4092  -0.3987  -0.3986  -0.3718  -0.3680  -0.3634  -0.3470
 -0.2893  -0.2843  -0.2822  -0.2753  -0.2604  -0.2485
 -- Virtual --
 -0.1164  -0.0697  -0.0326  -0.0200  -0.0070   0.0001   0.0070   0.0163
  0.0190   0.0325   0.0363   0.0375   0.0383   0.0439   0.0524   0.0572
  0.0630   0.0633   0.0658   0.0819   0.0882   0.0900   0.0926   0.0952
  0.0975   0.1041   0.1134   0.1160   0.1167   0.1178   0.1225   0.1289
  0.1320   0.1333   0.1359   0.1365   0.1391   0.1437   0.1529   0.1531
  0.1562   0.1678   0.1714   0.1717   0.1749   0.1797   0.1807   0.1898
  0.1907   0.1918   0.1952   0.1979   0.2028   0.2062   0.2138   0.2232
  0.2284   0.2332   0.2364   0.2391   0.2437   0.2455   0.2533   0.2549
  0.2587   0.2607   0.2641   0.2701   0.2706   0.2783   0.2810   0.2877
  0.2881   0.2943   0.2962   0.2985   0.3064   0.3097   0.3111   0.3116
  0.3135   0.3216   0.3250   0.3303   0.3329   0.3470   0.3481   0.3562
  0.3640   0.3677   0.3765   0.3768   0.3774   0.3828   0.3939   0.3961
  0.4044   0.4133   0.4213   0.4324   0.4396   0.4538   0.4841   0.4910
  0.5049   0.5182   0.5250   0.5322   0.5346   0.5413   0.5621   0.5644
  0.5669   0.5761   0.5783   0.5906   0.5907   0.6009   0.6043   0.6075
  0.6293   0.6293   0.6315   0.6344   0.6356   0.6399   0.6535   0.6560
  0.6570   0.6604   0.6677   0.6817   0.7032   0.7205   0.7213   0.7261
  0.7263   0.7379   0.7593   0.7611   0.7715   0.7766   0.8050   0.8194
  0.8305   0.8555   0.8652   0.8705   0.8723   0.8932   0.8957   0.9053
  0.9054   0.9151   0.9197   0.9198   0.9224   0.9412   0.9466   0.9665
  0.9683   0.9687   0.9856   0.9894   1.0004   1.0032   1.0091   1.0383
  1.0430   1.0488   1.0543   1.0687   1.0717   1.0821   1.0987   1.1067
  1.1080   1.1311   1.1386   1.1507   1.1654   1.1667   1.1853   1.1976
  1.1987   1.2070   1.2138   1.2255   1.2259   1.2370   1.2422   1.2766
  1.3187   1.3224   1.3245   1.3326   1.3554   1.4054   1.4061   1.4077
  1.4458   1.4628   1.4770   1.4918   1.5035   1.5050   1.5146   1.5152
  1.5347   1.5459   1.5739   1.5833   1.5952   1.5980   1.5990   1.6156
  1.6301   1.6565   1.6737   1.6849   1.6908   1.6957   1.7215   1.7245
  1.7316   1.7320   1.7566   1.7670   1.7960   1.8092   1.8153   1.8561
  1.8729   1.8804   1.8813   1.8892   1.9035   1.9192   1.9241   1.9289
  1.9310   1.9325   1.9725   1.9790   1.9918   1.9923   2.0107   2.0316
  2.0369   2.0442   2.0667   2.0884   2.0899   2.0922   2.1473   2.1572
  2.1608   2.1741   2.1800   2.2204   2.2531   2.3010   2.3194   2.3202
  2.3460   2.3582   2.3807   2.3820   2.4615   2.4820   2.5282   2.5372
  2.5892   2.6011   2.6066   2.6181   2.6203   2.6375   2.6594   2.6920
  2.6977   2.7242   2.7245   2.7309   2.7329   2.7456   2.7552   2.7626
  2.7685   2.7712   2.7726   2.7845   2.7941   2.8242   2.8357   2.8561
  2.8591   2.8655   2.8772   2.9219   2.9287   2.9359   2.9605   2.9953
  3.0306   3.0359   3.0681   3.0700   3.0735   3.0840   3.0909   3.1642
  3.1689   3.1701   3.1854   3.1955   3.2162   3.2338   3.2919   3.3267
  3.3338   3.3411   3.3522   3.4034   3.4108   3.4520   3.4634   3.5241
  3.5267   3.5406   3.5541   3.5644   3.5844   3.6319   3.6404   3.6925
  3.7837   3.8164   3.8445   3.9013   3.9030   4.0537   4.0745   4.1064
  4.1137   4.1753   4.2030   4.2345   4.2613   4.4554   4.7430   4.8286
  4.8471   4.9824   4.9848   5.0384   5.0549   5.2382   5.2643   5.4280
  5.4339   5.7188   5.7619   5.7632   5.8079  23.5111  23.6314  23.8662
 23.8918  23.9147  23.9268  23.9326  23.9425  24.0177  24.0502  24.0843
 24.0874  24.1625  24.1634  49.9223  49.9282  50.0322  50.0815
 --------------------------------------------------------------
 
          Ground-State Mulliken Net Atomic Charges

     Atom                 Charge (a.u.)
  ----------------------------------------
      1 O                    -0.268876
      2 C                    -0.628833
      3 C                    -0.196628
      4 C                     0.192501
      5 C                     0.105928
      6 C                    -0.564867
      7 O                    -0.313111
      8 C                     0.106747
      9 C                     0.192567
     10 C                    -0.195973
     11 C                    -0.629911
     12 O                    -0.268682
     13 C                     0.283703
     14 C                     0.467151
     15 C                    -0.682078
     16 O                    -0.283001
     17 C                     0.466718
     18 C                     0.283028
     19 H                     0.330099
     20 H                     0.246056
     21 H                     0.202241
     22 H                     0.202623
     23 H                     0.246096
     24 H                     0.329859
     25 H                     0.188184
     26 H                     0.188458
  ----------------------------------------
  Sum of atomic charges =     0.000000

 -----------------------------------------------------------------
                    Cartesian Multipole Moments
 -----------------------------------------------------------------
    Charge (ESU x 10^10)
                 0.0000
    Dipole Moment (Debye)
         X      -0.1289      Y       3.8068      Z       0.2589
       Tot       3.8178
    Quadrupole Moments (Debye-Ang)
        XX     -86.6865     XY       0.6247     YY    -104.5677
        XZ      -0.4099     YZ       0.0317     ZZ    -105.2232
    Octopole Moments (Debye-Ang^2)
       XXX      -5.1189    XXY      50.2654    XYY       1.6145
       YYY      56.9065    XXZ       3.4695    XYZ      -0.9965
       YYZ       3.1477    XZZ      -0.3076    YZZ       5.1024
       ZZZ       1.0187
    Hexadecapole Moments (Debye-Ang^3)
      XXXX   -4987.9225   XXXY    -106.7910   XXYY    -647.4493
      XYYY     -17.8934   YYYY   -1462.1131   XXXZ      51.6720
      XXYZ      16.6736   XYYZ      11.6177   YYYZ     -47.2362
      XXZZ    -871.4251   XYZZ     -23.4887   YYZZ    -253.5307
      XZZZ      57.3733   YZZZ     -41.6303   ZZZZ    -122.3220
 -----------------------------------------------------------------
 Total job time:  42.34s(wall), 323.22s(cpu) 
 Tue Jun 11 20:21:14 2024

        *************************************************************
        *                                                           *
        *  Thank you very much for using Q-Chem.  Have a nice day.  *
        *                                                           *
        *************************************************************


