
Running Job 1 of 1 052-SM12.in
qchem 052-SM12.in_2946157.0 /expanse/lustre/scratch/selhajj/temp_project/qcscratch/28444823/qchem2946157/ 0
/cm/shared/apps/spack/cpu/opt/spack/linux-centos8-zen2/gcc-10.2.0/qchem-5.4-akfmr7b3t57bfs6qan3padb2wnb2i7cl/exe/qcprog.exe_s 052-SM12.in_2946157.0 /expanse/lustre/scratch/selhajj/temp_project/qcscratch/28444823/qchem2946157/
                  Welcome to Q-Chem
     A Quantum Leap Into The Future Of Chemistry


 Q-Chem 5.4, Q-Chem, Inc., Pleasanton, CA (2021)

 License issued to: University of California, San Diego (site)

 E. Epifanovsky,  A. T. B. Gilbert,  Xintian Feng,  Joonho Lee,  Yuezhi Mao,  
 N. Mardirossian,  P. Pokhilko,  A. White,  M. Wormit,  M. P. Coons,  
 A. L. Dempwolff,  Zhengting Gan,  D. Hait,  P. R. Horn,  L. D. Jacobson,  
 I. Kaliman,  J. Kussmann,  A. W. Lange,  Ka Un Lao,  D. S. Levine,  Jie Liu,  
 S. C. McKenzie,  A. F. Morrison,  K. Nanda,  F. Plasser,  D. R. Rehn,  
 M. L. Vidal,  Zhi-Qiang You,  Ying Zhu,  B. Alam,  B. Albrecht,  
 A. Aldossary,  E. Alguire,  J. H. Andersen,  D. Barton,  K. Begam,  A. Behn,  
 Y. A. Bernard,  E. J. Berquist,  H. Burton,  A. Carreras,  K. Carter-Fenk,  
 R. Chakraborty,  A. D. Chien,  K. D. Closser,  V. Cofer-Shabica,  
 S. Dasgupta,  Jia Deng,  M. de Wergifosse,  M. Diedenhofen,  Hainam Do,  
 S. Ehlert,  Po-Tung Fang,  S. Fatehi,  Qingguo Feng,  J. Gayvert,  
 Qinghui Ge,  G. Gidofalvi,  M. Goldey,  J. Gomes,  C. Gonzalez-Espinoza,  
 S. Gulania,  A. Gunina,  M. W. D. Hanson-Heine,  P. H. P. Harbach,  
 A. W. Hauser,  M. F. Herbst,  M. Hernandez Vera,  M. Hodecker,  
 Z. C. Holden,  S. Houck,  Xunkun Huang,  Kerwin Hui,  B. C. Huynh,  
 M. Ivanov,  Hyunjun Ji,  Hanjie Jiang,  B. Kaduk,  S. Kaehler,  
 K. Khistyaev,  Jaehoon Kim,  P. Klunzinger,  Z. Koczor-Benda,  
 Joong Hoon Koh,  D. Kosenkov,  L. Koulias,  T. Kowalczyk,  C. M. Krauter,  
 K. Kue,  A. Kunitsa,  T. Kus,  A. Landau,  K. V. Lawler,  D. Lefrancois,  
 S. Lehtola,  Rain Li,  Yi-Pei Li,  Jiashu Liang,  M. Liebenthal,  
 Hung-Hsuan Lin,  You-Sheng Lin,  Fenglai Liu,  Kuan-Yu Liu,  
 M. Loipersberger,  A. Luenser,  A. Manjanath,  P. Manohar,  E. Mansoor,  
 S. F. Manzer,  Shan-Ping Mao,  A. V. Marenich,  T. Markovich,  S. Mason,  
 S. A. Maurer,  P. F. McLaughlin,  M. F. S. J. Menger,  J.-M. Mewes,  
 S. A. Mewes,  P. Morgante,  J. W. Mullinax,  T. S. Nguyen-Beck,  
 K. J. Oosterbaan,  G. Paran,  Alexander C. Paul,  Suranjan K. Paul,  
 F. Pavosevic,  Zheng Pei,  S. Prager,  E. I. Proynov,  E. Ramos,  B. Rana,  
 A. E. Rask,  A. Rettig,  R. M. Richard,  F. Rob,  E. Rossomme,  T. Scheele,  
 M. Scheurer,  M. Schneider,  N. Sergueev,  S. M. Sharada,  W. Skomorowski,  
 D. W. Small,  C. J. Stein,  Yu-Chuan Su,  E. J. Sundstrom,  Zhen Tao,  
 J. Thirman,  T. Tsuchimochi,  N. M. Tubman,  S. P. Veccham,  O. Vydrov,  
 J. Wenzel,  J. Witte,  A. Yamada,  Kun Yao,  S. Yeganeh,  S. R. Yost,  
 A. Zech,  Igor Ying Zhang,  Xing Zhang,  Yu Zhang,  D. Zuev,  
 A. Aspuru-Guzik,  A. T. Bell,  N. A. Besley,  K. B. Bravaya,  B. R. Brooks,  
 D. Casanova,  Jeng-Da Chai,  S. Coriani,  C. J. Cramer,  
 A. E. DePrince, III,  R. A. DiStasio Jr.,  A. Dreuw,  B. D. Dunietz,  
 T. R. Furlani,  W. A. Goddard III,  S. Grimme,  S. Hammes-Schiffer,  
 T. Head-Gordon,  W. J. Hehre,  Chao-Ping Hsu,  T.-C. Jagau,  Yousung Jung,  
 A. Klamt,  Jing Kong,  D. S. Lambrecht,  WanZhen Liang,  N. J. Mayhall,  
 C. W. McCurdy,  J. B. Neaton,  C. Ochsenfeld,  J. A. Parkhill,  R. Peverati,  
 V. A. Rassolov,  Yihan Shao,  L. V. Slipchenko,  T. Stauch,  R. P. Steele,  
 J. E. Subotnik,  A. J. W. Thom,  A. Tkatchenko,  D. G. Truhlar,  
 T. Van Voorhis,  T. A. Wesolowski,  K. B. Whaley,  H. L. Woodcock III,  
 P. M. Zimmerman,  S. Faraji,  P. M. W. Gill,  M. Head-Gordon,  
 J. M. Herbert,  A. I. Krylov

 Contributors to earlier versions of Q-Chem not listed above: 
 R. D. Adamson,  B. Austin,  R. Baer,  J. Baker,  G. J. O. Beran,  
 K. Brandhorst,  S. T. Brown,  E. F. C. Byrd,  A. K. Chakraborty,  
 G. K. L. Chan,  Chun-Min Chang,  Yunqing Chen,  C.-L. Cheng,  
 Siu Hung Chien,  D. M. Chipman,  D. L. Crittenden,  H. Dachsel,  
 R. J. Doerksen,  A. D. Dutoi,  R. G. Edgar,  J. Fosso-Tande,  
 L. Fusti-Molnar,  D. Ghosh,  A. Ghysels,  A. Golubeva-Zadorozhnaya,  
 J. Gonthier,  M. S. Gordon,  S. R. Gwaltney,  G. Hawkins,  J. E. Herr,  
 A. Heyden,  S. Hirata,  E. G. Hohenstein,  G. Kedziora,  F. J. Keil,  
 C. Kelley,  Jihan Kim,  R. A. King,  R. Z. Khaliullin,  P. P. Korambath,  
 W. Kurlancheek,  A. Laurent,  A. M. Lee,  M. S. Lee,  S. V. Levchenko,  
 Ching Yeh Lin,  D. Liotard,  E. Livshits,  R. C. Lochan,  I. Lotan,  
 L. A. Martinez-Martinez,  P. E. Maslen,  N. Nair,  D. P. O'Neill,  
 D. Neuhauser,  E. Neuscamman,  C. M. Oana,  R. Olivares-Amaya,  R. Olson,  
 T. M. Perrine,  B. Peters,  P. A. Pieniazek,  A. Prociuk,  Y. M. Rhee,  
 J. Ritchie,  M. A. Rohrdanz,  E. Rosta,  N. J. Russ,  H. F. Schaefer III,  
 M. W. Schmidt,  N. E. Schultz,  S. Sharma,  N. Shenvi,  C. D. Sherrill,  
 A. C. Simmonett,  A. Sodt,  T. Stein,  D. Stuck,  K. S. Thanthiriwatte,  
 V. Vanovschi,  L. Vogt,  Tao Wang,  A. Warshel,  M. A. Watson,  
 C. F. Williams,  Q. Wu,  X. Xu,  Jun Yang,  W. Zhang,  Yan Zhao

 Please cite Q-Chem as follows:
 Y. Shao et al., Mol. Phys. 113, 184-215 (2015)
 DOI: 10.1080/00268976.2014.952696

 Q-Chem 5.4.0 for Intel X86 EM64T Linux

 Parts of Q-Chem use Armadillo 9.800.1 (Horizon Scraper).
 http://arma.sourceforge.net/

 Q-Chem begins on Sat Feb  3 10:27:15 2024  

 Host: 
0

     Scratch files written to /expanse/lustre/scratch/selhajj/temp_project/qcscratch/28444823/qchem2946157//
 May1621 |scratch|qcdevops|jenkins|workspace|build_RNUM    
 Processing $rem in /cm/shared/apps/spack/cpu/opt/spack/linux-centos8-zen2/gcc-10.2.0/qchem-5.4-akfmr7b3t57bfs6qan3padb2wnb2i7cl/config/preferences:
 Processing $rem in /home/selhajj/.qchemrc:
 Symmetry turned off for PCM/SM12/SMD calculation
 Method-specific promolecule density matrix will be built for SM12 calculation

 Checking the input file for inconsistencies... 	...done.

--------------------------------------------------------------
User input:
--------------------------------------------------------------
$molecule
0 1
C                  1.1247380000      2.8557130000      1.4729510000
C                 -0.2367200000      2.5520660000      0.9394140000
C                 -0.5065130000      1.3452790000      0.3979210000
C                  0.5872250000      0.3343750000      0.2635840000
C                  1.9863460000      0.6747840000      0.6745750000
C                  2.2414190000      1.8862310000      1.2279500000
O                  1.3040510000      3.8786750000      2.1130260000
O                  0.3514270000     -0.7688520000     -0.2069890000
C                 -1.2447950000      3.6523390000      1.1079180000
C                 -1.8635240000      0.9335230000     -0.1083970000
C                  3.0133940000     -0.3942080000      0.4496520000
S                  3.8586900000      2.2631600000      1.8644090000
C                  4.1808630000      3.9939630000      1.3022600000
C                  5.6002090000      4.3587940000      1.7267650000
C                  6.0185910000      5.7252910000      1.1975090000
O                  5.4046740000      6.3652570000      0.3925220000
O                  7.1958030000      6.1992360000      1.6904650000
H                 -0.8492080000      4.5940580000      0.7196850000
H                 -1.4502440000      3.8247100000      2.1688260000
H                 -2.1810930000      3.4271030000      0.6010080000
H                 -2.6459570000      1.1582550000      0.6194120000
H                 -1.8753330000     -0.1336260000     -0.3222430000
H                 -2.1118700000      1.4635160000     -1.0339760000
H                  2.7426440000     -1.0040500000     -0.4116070000
H                  3.0626790000     -1.0680050000      1.3127220000
H                  4.0036500000      0.0416120000      0.3158320000
H                  3.4521900000      4.6595110000      1.7543200000
H                  4.0863290000      4.0362730000      0.2182550000
H                  6.3219200000      3.6231010000      1.3501450000
H                  5.6868570000      4.3528600000      2.8193920000
H                  7.5672090000      5.5902420000      2.3405150000
$end

$rem
BASIS  =  6-311++G(d,p)
GUI  =  2
JOB_TYPE  =  SP
METHOD  =  B3LYP
SCF_CONVERGENCE  = 8
SOLVENT_METHOD = sm12
$end

$smx
solvent dimethylformamide
charges CM5
$end





--------------------------------------------------------------
 ----------------------------------------------------------------
             Standard Nuclear Orientation (Angstroms)
    I     Atom           X                Y                Z
 ----------------------------------------------------------------
    1      C       1.1247380000     2.8557130000     1.4729510000
    2      C      -0.2367200000     2.5520660000     0.9394140000
    3      C      -0.5065130000     1.3452790000     0.3979210000
    4      C       0.5872250000     0.3343750000     0.2635840000
    5      C       1.9863460000     0.6747840000     0.6745750000
    6      C       2.2414190000     1.8862310000     1.2279500000
    7      O       1.3040510000     3.8786750000     2.1130260000
    8      O       0.3514270000    -0.7688520000    -0.2069890000
    9      C      -1.2447950000     3.6523390000     1.1079180000
   10      C      -1.8635240000     0.9335230000    -0.1083970000
   11      C       3.0133940000    -0.3942080000     0.4496520000
   12      S       3.8586900000     2.2631600000     1.8644090000
   13      C       4.1808630000     3.9939630000     1.3022600000
   14      C       5.6002090000     4.3587940000     1.7267650000
   15      C       6.0185910000     5.7252910000     1.1975090000
   16      O       5.4046740000     6.3652570000     0.3925220000
   17      O       7.1958030000     6.1992360000     1.6904650000
   18      H      -0.8492080000     4.5940580000     0.7196850000
   19      H      -1.4502440000     3.8247100000     2.1688260000
   20      H      -2.1810930000     3.4271030000     0.6010080000
   21      H      -2.6459570000     1.1582550000     0.6194120000
   22      H      -1.8753330000    -0.1336260000    -0.3222430000
   23      H      -2.1118700000     1.4635160000    -1.0339760000
   24      H       2.7426440000    -1.0040500000    -0.4116070000
   25      H       3.0626790000    -1.0680050000     1.3127220000
   26      H       4.0036500000     0.0416120000     0.3158320000
   27      H       3.4521900000     4.6595110000     1.7543200000
   28      H       4.0863290000     4.0362730000     0.2182550000
   29      H       6.3219200000     3.6231010000     1.3501450000
   30      H       5.6868570000     4.3528600000     2.8193920000
   31      H       7.5672090000     5.5902420000     2.3405150000
 ----------------------------------------------------------------
 Nuclear Repulsion Energy =        1291.42323424 hartrees
 There are       67 alpha and       67 beta electrons
 Requested basis set is 6-311++G(d,p)
 There are 179 shells and 480 basis functions

 Total QAlloc Memory Limit   8000 MB
 Mega-Array Size       188 MB
 MEM_STATIC part       192 MB
 A cutoff of  1.0D-11 yielded  11837 shell pairs
 There are     86013 function pairs (     91619 Cartesian)
 Smallest overlap matrix eigenvalue = 3.56E-07

 Q-Chem warning in module stvman/mkSTV.C, line 323:

 Overlap eigenvalue is smaller than square root of threshold
 Use THRESH >= 12 to get rid of this warning

 Linear dependence detected in AO basis
 Tighter screening thresholds may be required for diffuse basis sets
 Use S2THRESH > 14 and THRESH = 14 in case of SCF convergence issues
 Number of orthogonalized atomic orbitals = 478
 Maximum deviation from orthogonality = 2.361E-10

 Scale SEOQF with 1.000000e-02/1.000000e-02/1.000000e-01

 Standard Electronic Orientation quadrupole field applied
 Nucleus-field energy     =    -0.0000000057 hartrees
 ================ Generating on-the-fly Promolecule Density  ================
Attempting to make child job directory: /expanse/lustre/scratch/selhajj/temp_project/qcscratch/28444823/qchem2946157//Frg1/
Attempting to make child job directory: /expanse/lustre/scratch/selhajj/temp_project/qcscratch/28444823/qchem2946157//Frg2/
Attempting to make child job directory: /expanse/lustre/scratch/selhajj/temp_project/qcscratch/28444823/qchem2946157//Frg3/
Attempting to make child job directory: /expanse/lustre/scratch/selhajj/temp_project/qcscratch/28444823/qchem2946157//Frg4/
Creating input file /expanse/lustre/scratch/selhajj/temp_project/qcscratch/28444823/qchem2946157/Frg1.input
using default PutDataFrgm: nothing
calling putenv with: QCSCRATCH=/expanse/lustre/scratch/selhajj/temp_project/qcscratch/28444823/qchem2946157/ 
Spawning Job For Fragment 0
Done Job For Fragment 0
calling putenv with: QCSCRATCH=/expanse/lustre/scratch/selhajj/temp_project/qcscratch/28444823 
calling putenv with: QCTHREADS=8 
Creating input file /expanse/lustre/scratch/selhajj/temp_project/qcscratch/28444823/qchem2946157/Frg2.input
using default PutDataFrgm: nothing
calling putenv with: QCSCRATCH=/expanse/lustre/scratch/selhajj/temp_project/qcscratch/28444823/qchem2946157/ 
Spawning Job For Fragment 1
Done Job For Fragment 1
calling putenv with: QCSCRATCH=/expanse/lustre/scratch/selhajj/temp_project/qcscratch/28444823 
calling putenv with: QCTHREADS=8 
Creating input file /expanse/lustre/scratch/selhajj/temp_project/qcscratch/28444823/qchem2946157/Frg3.input
using default PutDataFrgm: nothing
calling putenv with: QCSCRATCH=/expanse/lustre/scratch/selhajj/temp_project/qcscratch/28444823/qchem2946157/ 
Spawning Job For Fragment 2
Done Job For Fragment 2
calling putenv with: QCSCRATCH=/expanse/lustre/scratch/selhajj/temp_project/qcscratch/28444823 
calling putenv with: QCTHREADS=8 
Creating input file /expanse/lustre/scratch/selhajj/temp_project/qcscratch/28444823/qchem2946157/Frg4.input
using default PutDataFrgm: nothing
calling putenv with: QCSCRATCH=/expanse/lustre/scratch/selhajj/temp_project/qcscratch/28444823/qchem2946157/ 
Spawning Job For Fragment 3
Done Job For Fragment 3
calling putenv with: QCSCRATCH=/expanse/lustre/scratch/selhajj/temp_project/qcscratch/28444823 
calling putenv with: QCTHREADS=8 
 Time for running child jobs:  CPU 0.01 s  wall 23.02 s
 ============= Method Specific Promolecule Density Constructed =============
 Guess from superposition of atomic densities
 Warning:  Energy on first SCF cycle will be non-variational
 SAD guess density has 134.000000 electrons

 -----------------------------------------------------------------------
  General SCF calculation program by
  Eric Jon Sundstrom, Paul Horn, Yuezhi Mao, Dmitri Zuev, Alec White,
  David Stuck, Shaama M.S., Shane Yost, Joonho Lee, David Small,
  Daniel Levine, Susi Lehtola, Hugh Burton, Evgeny Epifanovsky,
  Bang C. Huynh
 -----------------------------------------------------------------------
 Exchange:     0.2000 Hartree-Fock + 0.0800 Slater + 0.7200 B88
 Correlation:  0.1900 VWN1RPA + 0.8100 LYP
 Using SG-1 standard quadrature grid
 using 8 threads for integral computing
 -------------------------------------------------------
 OpenMP Integral computing Module                
 Release: version 1.0, May 2013, Q-Chem Inc. Pittsburgh 
 -------------------------------------------------------
 
 SM12 calculation using CM5 charges
 Citation of the SM12 model:
 Marenich, A.V.; Cramer, C.J.; Truhlar, D.G.
 J. Chem. Theory Comput. 2013, 9, 609-612.
 iSolventCode=          91
 Solvent: dimethylformamide                                               
 
Hirshfeld: reading atomic densities from disk.
warning:  vdwdata pointer should have been initialzed before dftman

 Charges (in A.U.) from CM5PAC (Nov. 11, 2011)
 -----------------------------------------------
 Center     Atomic      CM5         Hirshfeld
 Number     Number      Charge      Charge
 -----------------------------------------------
    1          6        0.037992    0.003694
    2          6       -0.011122   -0.001629
    3          6       -0.010837   -0.001232
    4          6        0.038364    0.006172
    5          6       -0.010715   -0.003437
    6          6        0.010090   -0.002066
    7          8       -0.074618   -0.021430
    8          8       -0.071655   -0.018230
    9          6       -0.146867   -0.004130
   10          6       -0.147584   -0.004397
   11          6       -0.147816   -0.006352
   12         16       -0.007680    0.031964
   13          6       -0.096565   -0.005172
   14          6       -0.104032   -0.006270
   15          6        0.063778    0.015505
   16          8       -0.059910   -0.013354
   17          8       -0.218870   -0.022089
   18          1        0.058863    0.004285
   19          1        0.057964    0.004205
   20          1        0.055958    0.002225
   21          1        0.055401    0.002807
   22          1        0.063822    0.005050
   23          1        0.055337    0.003290
   24          1        0.062036    0.004660
   25          1        0.054945    0.002452
   26          1        0.054500   -0.000212
   27          1        0.069548    0.004825
   28          1        0.063209    0.003253
   29          1        0.060068    0.001680
   30          1        0.060192    0.001697
   31          1        0.185468    0.011502
 -----------------------------------------------

 Dipole moment (in Debye)
 -----------------------------------------------
                 X        Y        Z     Total
 -----------------------------------------------
 CM5         -0.1196  -0.9230   0.5109   1.0617
 Hirshfeld    0.0203  -0.1785   0.1171   0.2144
 -----------------------------------------------

 A restricted SCF calculation will be
 performed using DIIS
 SCF converges when DIIS error is below 1.0e-08
 ---------------------------------------
  Cycle       Energy         DIIS error
 ---------------------------------------
Hirshfeld: reading atomic densities from disk.

 Charges (in A.U.) from CM5PAC (Nov. 11, 2011)
 -----------------------------------------------
 Center     Atomic      CM5         Hirshfeld
 Number     Number      Charge      Charge
 -----------------------------------------------
    1          6        0.394362    0.360064
    2          6       -0.021235   -0.011742
    3          6       -0.010255   -0.000650
    4          6        0.365399    0.333207
    5          6       -0.068791   -0.061513
    6          6       -0.005383   -0.017540
    7          8       -0.487300   -0.434113
    8          8       -0.513513   -0.460089
    9          6       -0.416074   -0.273338
   10          6       -0.416425   -0.273238
   11          6       -0.433145   -0.291681
   12         16        0.205666    0.245310
   13          6       -0.274862   -0.183469
   14          6       -0.267718   -0.169956
   15          6        0.551324    0.503050
   16          8       -0.585765   -0.539209
   17          8       -0.483010   -0.286229
   18          1        0.158937    0.104359
   19          1        0.160327    0.106569
   20          1        0.158111    0.104378
   21          1        0.162547    0.109953
   22          1        0.147648    0.088877
   23          1        0.164530    0.112483
   24          1        0.149710    0.092334
   25          1        0.159667    0.107174
   26          1        0.141594    0.086882
   27          1        0.131980    0.067258
   28          1        0.143570    0.083614
   29          1        0.170812    0.112424
   30          1        0.170800    0.112305
   31          1        0.446098    0.272133
 -----------------------------------------------

 Dipole moment (in Debye)
 -----------------------------------------------
                 X        Y        Z     Total
 -----------------------------------------------
 CM5          3.2814  -2.1351   4.2994   5.8148
 Hirshfeld    3.4214  -1.3906   3.9057   5.3753
 -----------------------------------------------

    1   -1168.4514656152      2.88e-02  
Hirshfeld: reading atomic densities from disk.

 Charges (in A.U.) from CM5PAC (Nov. 11, 2011)
 -----------------------------------------------
 Center     Atomic      CM5         Hirshfeld
 Number     Number      Charge      Charge
 -----------------------------------------------
    1          6       -0.266949   -0.301247
    2          6       -0.038012   -0.028518
    3          6       -0.040845   -0.031241
    4          6       -0.214541   -0.246732
    5          6        0.081035    0.088313
    6          6       -0.147039   -0.159195
    7          8        0.196973    0.250161
    8          8        0.252669    0.306094
    9          6        0.003324    0.146061
   10          6       -0.006962    0.136226
   11          6        0.012099    0.153563
   12         16       -0.295232   -0.255589
   13          6        0.045274    0.136667
   14          6       -0.044863    0.052900
   15          6       -0.284494   -0.332768
   16          8        0.277353    0.323909
   17          8       -0.272329   -0.075548
   18          1        0.029827   -0.024751
   19          1        0.031146   -0.022613
   20          1        0.035673   -0.018060
   21          1        0.031763   -0.020831
   22          1        0.025232   -0.033539
   23          1        0.032137   -0.019910
   24          1        0.031960   -0.025416
   25          1        0.034839   -0.017654
   26          1        0.019938   -0.034774
   27          1        0.066628    0.001905
   28          1        0.059452   -0.000503
   29          1        0.049127   -0.009261
   30          1        0.049660   -0.008835
   31          1        0.244709    0.070743
 -----------------------------------------------

 Dipole moment (in Debye)
 -----------------------------------------------
                 X        Y        Z     Total
 -----------------------------------------------
 CM5         -3.3809  -0.8148  -2.2976   4.1682
 Hirshfeld   -3.2410  -0.0703  -2.6914   4.2134
 -----------------------------------------------

    2   -1164.6369656480      3.99e-03  
Hirshfeld: reading atomic densities from disk.

 Charges (in A.U.) from CM5PAC (Nov. 11, 2011)
 -----------------------------------------------
 Center     Atomic      CM5         Hirshfeld
 Number     Number      Charge      Charge
 -----------------------------------------------
    1          6        0.241681    0.207384
    2          6        0.042279    0.051772
    3          6        0.030641    0.040246
    4          6        0.221800    0.189608
    5          6        0.014779    0.022057
    6          6        0.077317    0.065161
    7          8       -0.381120   -0.327933
    8          8       -0.422351   -0.368927
    9          6       -0.174048   -0.031312
   10          6       -0.176841   -0.033654
   11          6       -0.184257   -0.042794
   12         16       -0.057669   -0.018025
   13          6       -0.112066   -0.020673
   14          6       -0.087913    0.009849
   15          6        0.308807    0.260534
   16          8       -0.436410   -0.389854
   17          8       -0.317496   -0.120715
   18          1        0.080031    0.025453
   19          1        0.081844    0.028085
   20          1        0.078225    0.024492
   21          1        0.079463    0.026869
   22          1        0.077002    0.018231
   23          1        0.079784    0.027737
   24          1        0.077102    0.019726
   25          1        0.080833    0.028340
   26          1        0.069373    0.014661
   27          1        0.089141    0.024418
   28          1        0.088304    0.028349
   29          1        0.097325    0.038938
   30          1        0.096506    0.038010
   31          1        0.337500    0.163535
 -----------------------------------------------

 Dipole moment (in Debye)
 -----------------------------------------------
                 X        Y        Z     Total
 -----------------------------------------------
 CM5          0.9587  -1.6050   2.6070   3.2081
 Hirshfeld    1.0987  -0.8605   2.2133   2.6165
 -----------------------------------------------

    3   -1164.0676716698      6.59e-03  
Hirshfeld: reading atomic densities from disk.

 Charges (in A.U.) from CM5PAC (Nov. 11, 2011)
 -----------------------------------------------
 Center     Atomic      CM5         Hirshfeld
 Number     Number      Charge      Charge
 -----------------------------------------------
    1          6        0.167282    0.132984
    2          6       -0.018924   -0.009430
    3          6       -0.008086    0.001518
    4          6        0.164678    0.132486
    5          6       -0.015516   -0.008238
    6          6       -0.034067   -0.046223
    7          8       -0.258614   -0.205427
    8          8       -0.258157   -0.204732
    9          6       -0.229486   -0.086750
   10          6       -0.231039   -0.087851
   11          6       -0.235718   -0.094254
   12         16        0.012163    0.051806
   13          6       -0.143768   -0.052375
   14          6       -0.146486   -0.048723
   15          6        0.273627    0.225353
   16          8       -0.321832   -0.275277
   17          8       -0.397994   -0.201213
   18          1        0.102021    0.047442
   19          1        0.103594    0.049836
   20          1        0.099639    0.045907
   21          1        0.100653    0.048060
   22          1        0.097066    0.038295
   23          1        0.102115    0.050068
   24          1        0.097691    0.040315
   25          1        0.102693    0.050200
   26          1        0.087876    0.033164
   27          1        0.100542    0.035820
   28          1        0.099500    0.039544
   29          1        0.113957    0.055569
   30          1        0.113372    0.054877
   31          1        0.360787    0.186822
 -----------------------------------------------

 Dipole moment (in Debye)
 -----------------------------------------------
                 X        Y        Z     Total
 -----------------------------------------------
 CM5          0.4722  -2.1728   2.0231   3.0061
 Hirshfeld    0.6122  -1.4283   1.6293   2.2515
 -----------------------------------------------

    4   -1164.9822181549      1.39e-03  
Hirshfeld: reading atomic densities from disk.

 Charges (in A.U.) from CM5PAC (Nov. 11, 2011)
 -----------------------------------------------
 Center     Atomic      CM5         Hirshfeld
 Number     Number      Charge      Charge
 -----------------------------------------------
    1          6        0.172784    0.138486
    2          6        0.000911    0.010404
    3          6       -0.006615    0.002989
    4          6        0.172933    0.140741
    5          6        0.004454    0.011732
    6          6       -0.013142   -0.025299
    7          8       -0.279043   -0.225856
    8          8       -0.295501   -0.242076
    9          6       -0.221797   -0.079061
   10          6       -0.226488   -0.083301
   11          6       -0.229763   -0.088299
   12         16       -0.022627    0.017016
   13          6       -0.134071   -0.042678
   14          6       -0.149839   -0.052076
   15          6        0.245984    0.197711
   16          8       -0.317326   -0.270770
   17          8       -0.361620   -0.164839
   18          1        0.099969    0.045391
   19          1        0.101422    0.047663
   20          1        0.098419    0.044686
   21          1        0.099914    0.047320
   22          1        0.095220    0.036448
   23          1        0.101053    0.049006
   24          1        0.096700    0.039324
   25          1        0.100925    0.048432
   26          1        0.087256    0.032544
   27          1        0.100989    0.036266
   28          1        0.101223    0.041267
   29          1        0.113330    0.054943
   30          1        0.112434    0.053939
   31          1        0.351487    0.177521
 -----------------------------------------------

 Dipole moment (in Debye)
 -----------------------------------------------
                 X        Y        Z     Total
 -----------------------------------------------
 CM5          0.4388  -1.8162   1.9470   2.6985
 Hirshfeld    0.5788  -1.0717   1.5533   1.9739
 -----------------------------------------------

    5   -1165.0326186613      3.40e-04  
Hirshfeld: reading atomic densities from disk.

 Charges (in A.U.) from CM5PAC (Nov. 11, 2011)
 -----------------------------------------------
 Center     Atomic      CM5         Hirshfeld
 Number     Number      Charge      Charge
 -----------------------------------------------
    1          6        0.171352    0.137055
    2          6       -0.005596    0.003897
    3          6       -0.002661    0.006943
    4          6        0.167187    0.134995
    5          6       -0.004421    0.002857
    6          6       -0.013216   -0.025372
    7          8       -0.276117   -0.222929
    8          8       -0.282880   -0.229456
    9          6       -0.218764   -0.076028
   10          6       -0.221466   -0.078279
   11          6       -0.226213   -0.084749
   12         16       -0.018314    0.021329
   13          6       -0.133646   -0.042254
   14          6       -0.139399   -0.041637
   15          6        0.263669    0.215395
   16          8       -0.331711   -0.285155
   17          8       -0.372802   -0.176021
   18          1        0.098709    0.044131
   19          1        0.100292    0.046533
   20          1        0.097322    0.043589
   21          1        0.098292    0.045698
   22          1        0.093713    0.034942
   23          1        0.099389    0.047342
   24          1        0.095341    0.037965
   25          1        0.100016    0.047523
   26          1        0.086145    0.031432
   27          1        0.099647    0.034924
   28          1        0.099587    0.039632
   29          1        0.111354    0.052966
   30          1        0.110644    0.052149
   31          1        0.354122    0.180156
 -----------------------------------------------

 Dipole moment (in Debye)
 -----------------------------------------------
                 X        Y        Z     Total
 -----------------------------------------------
 CM5          0.4311  -2.0029   1.9899   2.8561
 Hirshfeld    0.5711  -1.2584   1.5962   2.1112
 -----------------------------------------------

    6   -1165.0346783823      1.51e-04  
Hirshfeld: reading atomic densities from disk.

 Charges (in A.U.) from CM5PAC (Nov. 11, 2011)
 -----------------------------------------------
 Center     Atomic      CM5         Hirshfeld
 Number     Number      Charge      Charge
 -----------------------------------------------
    1          6        0.173992    0.139695
    2          6       -0.003694    0.005799
    3          6       -0.003810    0.005794
    4          6        0.171842    0.139651
    5          6       -0.002589    0.004688
    6          6       -0.013717   -0.025873
    7          8       -0.277350   -0.224163
    8          8       -0.288852   -0.235428
    9          6       -0.219365   -0.076629
   10          6       -0.222586   -0.079398
   11          6       -0.226702   -0.085239
   12         16       -0.015549    0.024095
   13          6       -0.135453   -0.044060
   14          6       -0.141531   -0.043768
   15          6        0.260335    0.212062
   16          8       -0.326219   -0.279663
   17          8       -0.373869   -0.177088
   18          1        0.098796    0.044218
   19          1        0.100362    0.046603
   20          1        0.097156    0.043424
   21          1        0.098336    0.045742
   22          1        0.093913    0.035141
   23          1        0.099442    0.047395
   24          1        0.095195    0.037819
   25          1        0.099943    0.047450
   26          1        0.086033    0.031321
   27          1        0.099540    0.034818
   28          1        0.099428    0.039473
   29          1        0.111586    0.053198
   30          1        0.110891    0.052395
   31          1        0.354067    0.180102
 -----------------------------------------------

 Dipole moment (in Debye)
 -----------------------------------------------
                 X        Y        Z     Total
 -----------------------------------------------
 CM5          0.4267  -1.9579   1.9949   2.8275
 Hirshfeld    0.5667  -1.2134   1.6011   2.0873
 -----------------------------------------------

    7   -1165.0348825570      4.50e-05  
Hirshfeld: reading atomic densities from disk.

 Charges (in A.U.) from CM5PAC (Nov. 11, 2011)
 -----------------------------------------------
 Center     Atomic      CM5         Hirshfeld
 Number     Number      Charge      Charge
 -----------------------------------------------
    1          6        0.173551    0.139254
    2          6       -0.004037    0.005456
    3          6       -0.003868    0.005737
    4          6        0.170829    0.138637
    5          6       -0.002497    0.004781
    6          6       -0.014071   -0.026227
    7          8       -0.277375   -0.224188
    8          8       -0.286895   -0.233471
    9          6       -0.219709   -0.076973
   10          6       -0.222890   -0.079703
   11          6       -0.227079   -0.085615
   12         16       -0.015870    0.023773
   13          6       -0.135110   -0.043718
   14          6       -0.141939   -0.044176
   15          6        0.261030    0.212756
   16          8       -0.328301   -0.281745
   17          8       -0.372115   -0.175335
   18          1        0.098955    0.044377
   19          1        0.100502    0.046744
   20          1        0.097303    0.043571
   21          1        0.098450    0.045856
   22          1        0.094038    0.035267
   23          1        0.099582    0.047535
   24          1        0.095362    0.037986
   25          1        0.100084    0.047591
   26          1        0.086194    0.031482
   27          1        0.099567    0.034844
   28          1        0.099442    0.039486
   29          1        0.111701    0.053313
   30          1        0.110978    0.052483
   31          1        0.353762    0.179796
 -----------------------------------------------

 Dipole moment (in Debye)
 -----------------------------------------------
                 X        Y        Z     Total
 -----------------------------------------------
 CM5          0.4338  -1.9802   1.9939   2.8434
 Hirshfeld    0.5738  -1.2357   1.6002   2.1016
 -----------------------------------------------

    8   -1165.0350077322      1.73e-05  
Hirshfeld: reading atomic densities from disk.

 Charges (in A.U.) from CM5PAC (Nov. 11, 2011)
 -----------------------------------------------
 Center     Atomic      CM5         Hirshfeld
 Number     Number      Charge      Charge
 -----------------------------------------------
    1          6        0.173411    0.139114
    2          6       -0.004006    0.005487
    3          6       -0.003716    0.005889
    4          6        0.170782    0.138590
    5          6       -0.002725    0.004553
    6          6       -0.013667   -0.025823
    7          8       -0.277266   -0.224078
    8          8       -0.287322   -0.233898
    9          6       -0.219615   -0.076879
   10          6       -0.222762   -0.079575
   11          6       -0.227041   -0.085577
   12         16       -0.016299    0.023345
   13          6       -0.134893   -0.043500
   14          6       -0.141700   -0.043937
   15          6        0.261119    0.212846
   16          8       -0.328075   -0.281519
   17          8       -0.372691   -0.175910
   18          1        0.098951    0.044373
   19          1        0.100500    0.046741
   20          1        0.097311    0.043578
   21          1        0.098445    0.045851
   22          1        0.094024    0.035253
   23          1        0.099571    0.047524
   24          1        0.095399    0.038023
   25          1        0.100103    0.047610
   26          1        0.086238    0.031526
   27          1        0.099573    0.034850
   28          1        0.099440    0.039485
   29          1        0.111654    0.053266
   30          1        0.110928    0.052433
   31          1        0.353898    0.179933
 -----------------------------------------------

 Dipole moment (in Debye)
 -----------------------------------------------
                 X        Y        Z     Total
 -----------------------------------------------
 CM5          0.4290  -1.9738   1.9935   2.8380
 Hirshfeld    0.5690  -1.2294   1.5998   2.0963
 -----------------------------------------------

    9   -1165.0349948556      5.48e-06  
Hirshfeld: reading atomic densities from disk.

 Charges (in A.U.) from CM5PAC (Nov. 11, 2011)
 -----------------------------------------------
 Center     Atomic      CM5         Hirshfeld
 Number     Number      Charge      Charge
 -----------------------------------------------
    1          6        0.173535    0.139238
    2          6       -0.004008    0.005485
    3          6       -0.003755    0.005850
    4          6        0.170876    0.138684
    5          6       -0.002578    0.004700
    6          6       -0.013855   -0.026011
    7          8       -0.277449   -0.224261
    8          8       -0.287226   -0.233802
    9          6       -0.219591   -0.076854
   10          6       -0.222751   -0.079564
   11          6       -0.226969   -0.085505
   12         16       -0.016244    0.023400
   13          6       -0.135082   -0.043689
   14          6       -0.141670   -0.043908
   15          6        0.261138    0.212864
   16          8       -0.328149   -0.281593
   17          8       -0.372633   -0.175853
   18          1        0.098944    0.044365
   19          1        0.100500    0.046741
   20          1        0.097308    0.043575
   21          1        0.098441    0.045847
   22          1        0.094017    0.035246
   23          1        0.099561    0.047514
   24          1        0.095382    0.038006
   25          1        0.100102    0.047609
   26          1        0.086223    0.031511
   27          1        0.099582    0.034859
   28          1        0.099449    0.039494
   29          1        0.111653    0.053265
   30          1        0.110931    0.052436
   31          1        0.353891    0.179925
 -----------------------------------------------

 Dipole moment (in Debye)
 -----------------------------------------------
                 X        Y        Z     Total
 -----------------------------------------------
 CM5          0.4277  -1.9794   1.9922   2.8407
 Hirshfeld    0.5677  -1.2349   1.5984   2.0981
 -----------------------------------------------

   10   -1165.0349931942      1.40e-06  
Hirshfeld: reading atomic densities from disk.

 Charges (in A.U.) from CM5PAC (Nov. 11, 2011)
 -----------------------------------------------
 Center     Atomic      CM5         Hirshfeld
 Number     Number      Charge      Charge
 -----------------------------------------------
    1          6        0.173516    0.139219
    2          6       -0.003990    0.005503
    3          6       -0.003768    0.005836
    4          6        0.170877    0.138686
    5          6       -0.002670    0.004608
    6          6       -0.013758   -0.025914
    7          8       -0.277340   -0.224153
    8          8       -0.287304   -0.233879
    9          6       -0.219605   -0.076869
   10          6       -0.222766   -0.079579
   11          6       -0.227006   -0.085542
   12         16       -0.016232    0.023412
   13          6       -0.135027   -0.043635
   14          6       -0.141692   -0.043930
   15          6        0.261155    0.212881
   16          8       -0.328178   -0.281622
   17          8       -0.372621   -0.175840
   18          1        0.098948    0.044370
   19          1        0.100503    0.046744
   20          1        0.097308    0.043576
   21          1        0.098443    0.045849
   22          1        0.094019    0.035248
   23          1        0.099563    0.047516
   24          1        0.095388    0.038011
   25          1        0.100107    0.047614
   26          1        0.086233    0.031521
   27          1        0.099570    0.034848
   28          1        0.099436    0.039481
   29          1        0.111649    0.053261
   30          1        0.110928    0.052433
   31          1        0.353885    0.179920
 -----------------------------------------------

 Dipole moment (in Debye)
 -----------------------------------------------
                 X        Y        Z     Total
 -----------------------------------------------
 CM5          0.4283  -1.9768   1.9937   2.8401
 Hirshfeld    0.5683  -1.2324   1.5999   2.0979
 -----------------------------------------------

   11   -1165.0349931177      8.54e-07  
Hirshfeld: reading atomic densities from disk.

 Charges (in A.U.) from CM5PAC (Nov. 11, 2011)
 -----------------------------------------------
 Center     Atomic      CM5         Hirshfeld
 Number     Number      Charge      Charge
 -----------------------------------------------
    1          6        0.173520    0.139222
    2          6       -0.003995    0.005499
    3          6       -0.003744    0.005861
    4          6        0.170876    0.138684
    5          6       -0.002633    0.004645
    6          6       -0.013768   -0.025924
    7          8       -0.277392   -0.224205
    8          8       -0.287282   -0.233858
    9          6       -0.219609   -0.076873
   10          6       -0.222766   -0.079579
   11          6       -0.227007   -0.085544
   12         16       -0.016255    0.023388
   13          6       -0.135009   -0.043617
   14          6       -0.141694   -0.043932
   15          6        0.261155    0.212882
   16          8       -0.328163   -0.281607
   17          8       -0.372639   -0.175859
   18          1        0.098950    0.044372
   19          1        0.100503    0.046744
   20          1        0.097310    0.043577
   21          1        0.098441    0.045847
   22          1        0.094019    0.035247
   23          1        0.099563    0.047516
   24          1        0.095388    0.038012
   25          1        0.100107    0.047614
   26          1        0.086234    0.031522
   27          1        0.099567    0.034844
   28          1        0.099434    0.039478
   29          1        0.111649    0.053261
   30          1        0.110927    0.052432
   31          1        0.353888    0.179923
 -----------------------------------------------

 Dipole moment (in Debye)
 -----------------------------------------------
                 X        Y        Z     Total
 -----------------------------------------------
 CM5          0.4278  -1.9779   1.9930   2.8402
 Hirshfeld    0.5678  -1.2334   1.5992   2.0979
 -----------------------------------------------

   12   -1165.0349927088      2.95e-07  
Hirshfeld: reading atomic densities from disk.

 Charges (in A.U.) from CM5PAC (Nov. 11, 2011)
 -----------------------------------------------
 Center     Atomic      CM5         Hirshfeld
 Number     Number      Charge      Charge
 -----------------------------------------------
    1          6        0.173514    0.139216
    2          6       -0.003988    0.005505
    3          6       -0.003757    0.005848
    4          6        0.170876    0.138684
    5          6       -0.002635    0.004643
    6          6       -0.013773   -0.025930
    7          8       -0.277375   -0.224188
    8          8       -0.287290   -0.233865
    9          6       -0.219604   -0.076868
   10          6       -0.222765   -0.079578
   11          6       -0.227002   -0.085539
   12         16       -0.016252    0.023391
   13          6       -0.135023   -0.043630
   14          6       -0.141691   -0.043928
   15          6        0.261157    0.212883
   16          8       -0.328167   -0.281611
   17          8       -0.372638   -0.175857
   18          1        0.098950    0.044372
   19          1        0.100504    0.046745
   20          1        0.097309    0.043577
   21          1        0.098442    0.045848
   22          1        0.094019    0.035248
   23          1        0.099563    0.047516
   24          1        0.095389    0.038012
   25          1        0.100108    0.047615
   26          1        0.086235    0.031522
   27          1        0.099568    0.034846
   28          1        0.099435    0.039479
   29          1        0.111649    0.053261
   30          1        0.110927    0.052432
   31          1        0.353889    0.179923
 -----------------------------------------------

 Dipole moment (in Debye)
 -----------------------------------------------
                 X        Y        Z     Total
 -----------------------------------------------
 CM5          0.4279  -1.9777   1.9931   2.8402
 Hirshfeld    0.5678  -1.2332   1.5993   2.0979
 -----------------------------------------------

   13   -1165.0349931060      1.27e-07  
Hirshfeld: reading atomic densities from disk.

 Charges (in A.U.) from CM5PAC (Nov. 11, 2011)
 -----------------------------------------------
 Center     Atomic      CM5         Hirshfeld
 Number     Number      Charge      Charge
 -----------------------------------------------
    1          6        0.173518    0.139220
    2          6       -0.003991    0.005502
    3          6       -0.003754    0.005850
    4          6        0.170876    0.138684
    5          6       -0.002642    0.004636
    6          6       -0.013768   -0.025924
    7          8       -0.277377   -0.224190
    8          8       -0.287288   -0.233864
    9          6       -0.219605   -0.076869
   10          6       -0.222765   -0.079577
   11          6       -0.227004   -0.085540
   12         16       -0.016252    0.023391
   13          6       -0.135021   -0.043628
   14          6       -0.141691   -0.043929
   15          6        0.261155    0.212881
   16          8       -0.328165   -0.281609
   17          8       -0.372638   -0.175857
   18          1        0.098950    0.044372
   19          1        0.100504    0.046745
   20          1        0.097310    0.043577
   21          1        0.098441    0.045848
   22          1        0.094019    0.035248
   23          1        0.099563    0.047516
   24          1        0.095389    0.038013
   25          1        0.100108    0.047615
   26          1        0.086235    0.031523
   27          1        0.099568    0.034845
   28          1        0.099434    0.039479
   29          1        0.111649    0.053261
   30          1        0.110927    0.052432
   31          1        0.353888    0.179923
 -----------------------------------------------

 Dipole moment (in Debye)
 -----------------------------------------------
                 X        Y        Z     Total
 -----------------------------------------------
 CM5          0.4278  -1.9777   1.9931   2.8402
 Hirshfeld    0.5678  -1.2332   1.5993   2.0979
 -----------------------------------------------

   14   -1165.0349929571      4.27e-08  
Hirshfeld: reading atomic densities from disk.

 Charges (in A.U.) from CM5PAC (Nov. 11, 2011)
 -----------------------------------------------
 Center     Atomic      CM5         Hirshfeld
 Number     Number      Charge      Charge
 -----------------------------------------------
    1          6        0.173516    0.139218
    2          6       -0.003990    0.005503
    3          6       -0.003755    0.005850
    4          6        0.170877    0.138685
    5          6       -0.002639    0.004639
    6          6       -0.013770   -0.025926
    7          8       -0.277376   -0.224189
    8          8       -0.287289   -0.233864
    9          6       -0.219606   -0.076869
   10          6       -0.222765   -0.079578
   11          6       -0.227004   -0.085540
   12         16       -0.016253    0.023390
   13          6       -0.135019   -0.043627
   14          6       -0.141691   -0.043929
   15          6        0.261156    0.212882
   16          8       -0.328166   -0.281610
   17          8       -0.372638   -0.175857
   18          1        0.098950    0.044372
   19          1        0.100504    0.046745
   20          1        0.097310    0.043577
   21          1        0.098441    0.045848
   22          1        0.094019    0.035248
   23          1        0.099563    0.047516
   24          1        0.095389    0.038013
   25          1        0.100108    0.047615
   26          1        0.086235    0.031522
   27          1        0.099568    0.034845
   28          1        0.099434    0.039479
   29          1        0.111649    0.053261
   30          1        0.110927    0.052432
   31          1        0.353888    0.179923
 -----------------------------------------------

 Dipole moment (in Debye)
 -----------------------------------------------
                 X        Y        Z     Total
 -----------------------------------------------
 CM5          0.4278  -1.9777   1.9931   2.8402
 Hirshfeld    0.5678  -1.2332   1.5993   2.0979
 -----------------------------------------------

   15   -1165.0349930198      1.68e-08  
   16   -1165.0349930162      4.97e-09  Convergence criterion met
 ---------------------------------------
 SCF time:   CPU 6288.05s  wall 796.00s 
(1)  E-EN(liq) elect-nuc energy of solute              -1165.034993016 a.u.
(2)  G-P(liq) polarization free energy of solvation            -6.4477 kcal/mol
(3)  G-ENP(liq) elect-nuc-pol free energy of system    -1165.045268052 a.u.
(4)  G-CDS(liq) cavity-dispersion-solvent structure 
     free energy                                              -10.6004 kcal/mol
(5)  G-P-CDS(liq) = G-P(liq) + G-CDS(liq) = (2) + (4)         -17.0481 kcal/mol
(6)  G-S(liq) free energy of system = (1) + (5)        -1165.062160884 a.u.
 SCF   energy in the final basis set =    -1165.0621608843
 Total energy in the final basis set =    -1165.0621608843
 
 --------------------------------------------------------------
 
                    Orbital Energies (a.u.)
 --------------------------------------------------------------
 
 Alpha MOs
 -- Occupied --
-88.8619 -19.1795 -19.1339 -19.1330 -19.1234 -10.3193 -10.2831 -10.2787
-10.2316 -10.2163 -10.2100 -10.2092 -10.2086 -10.2055 -10.1710 -10.1709
-10.1697  -7.9478  -5.9118  -5.9078  -5.9017  -1.1172  -1.0687  -1.0653
 -1.0397  -0.8715  -0.8390  -0.8150  -0.7556  -0.7474  -0.7258  -0.6841
 -0.6592  -0.6417  -0.6187  -0.5783  -0.5750  -0.5406  -0.5320  -0.5002
 -0.4800  -0.4732  -0.4659  -0.4629  -0.4446  -0.4353  -0.4331  -0.4316
 -0.4246  -0.4199  -0.4153  -0.4074  -0.3998  -0.3963  -0.3907  -0.3872
 -0.3792  -0.3771  -0.3703  -0.3428  -0.3393  -0.3006  -0.2962  -0.2888
 -0.2775  -0.2704  -0.2379
 -- Virtual --
 -0.1269  -0.0258  -0.0126  -0.0102  -0.0033  -0.0015   0.0097   0.0166
  0.0246   0.0266   0.0331   0.0371   0.0394   0.0446   0.0481   0.0540
  0.0548   0.0619   0.0629   0.0699   0.0740   0.0767   0.0806   0.0837
  0.0911   0.0932   0.0980   0.1023   0.1038   0.1083   0.1103   0.1109
  0.1145   0.1197   0.1248   0.1273   0.1346   0.1362   0.1395   0.1399
  0.1451   0.1467   0.1486   0.1506   0.1543   0.1558   0.1607   0.1615
  0.1676   0.1692   0.1739   0.1755   0.1778   0.1800   0.1812   0.1863
  0.1892   0.1941   0.1962   0.1976   0.2020   0.2047   0.2105   0.2163
  0.2211   0.2230   0.2253   0.2262   0.2309   0.2348   0.2376   0.2422
  0.2441   0.2481   0.2513   0.2548   0.2597   0.2684   0.2690   0.2720
  0.2796   0.2839   0.2890   0.2921   0.2942   0.2978   0.2992   0.3112
  0.3142   0.3163   0.3184   0.3255   0.3312   0.3339   0.3346   0.3391
  0.3424   0.3477   0.3502   0.3573   0.3620   0.3650   0.3691   0.3760
  0.3822   0.3891   0.3951   0.3979   0.4069   0.4081   0.4205   0.4257
  0.4325   0.4467   0.4534   0.4665   0.4759   0.4798   0.4853   0.4948
  0.5059   0.5149   0.5228   0.5353   0.5413   0.5474   0.5625   0.5701
  0.5749   0.5812   0.5838   0.5962   0.5975   0.6160   0.6188   0.6216
  0.6245   0.6375   0.6438   0.6529   0.6566   0.6584   0.6635   0.6689
  0.6747   0.6796   0.6841   0.6882   0.6939   0.6974   0.7039   0.7090
  0.7298   0.7376   0.7392   0.7469   0.7491   0.7608   0.7650   0.7850
  0.7860   0.8036   0.8122   0.8318   0.8398   0.8554   0.8695   0.8741
  0.8879   0.8893   0.9053   0.9159   0.9225   0.9309   0.9376   0.9476
  0.9652   0.9764   0.9860   0.9948   1.0023   1.0211   1.0323   1.0444
  1.0490   1.0728   1.0764   1.0836   1.0941   1.1034   1.1257   1.1267
  1.1406   1.1499   1.1750   1.1969   1.2010   1.2042   1.2220   1.2231
  1.2436   1.2510   1.2519   1.2651   1.2804   1.2812   1.2951   1.3285
  1.3404   1.3496   1.3627   1.3787   1.3876   1.4090   1.4230   1.4348
  1.4388   1.4461   1.4631   1.4664   1.4747   1.4851   1.4982   1.5241
  1.5383   1.5686   1.5754   1.5797   1.5811   1.5853   1.5925   1.5960
  1.6118   1.6128   1.6231   1.6385   1.6395   1.6501   1.6526   1.6637
  1.6718   1.6840   1.6906   1.6998   1.7155   1.7407   1.7529   1.7631
  1.7742   1.7807   1.7858   1.8022   1.8139   1.8265   1.8424   1.8460
  1.8632   1.8774   1.8817   1.9019   1.9104   1.9167   1.9257   1.9432
  1.9539   1.9768   1.9972   2.0159   2.0494   2.0570   2.0787   2.0956
  2.1063   2.1160   2.1201   2.1416   2.1643   2.1728   2.1848   2.1889
  2.2155   2.2328   2.2418   2.2682   2.3001   2.3119   2.3310   2.3576
  2.3682   2.3727   2.3874   2.4677   2.4809   2.4994   2.5029   2.5083
  2.5282   2.5367   2.5492   2.5499   2.5641   2.5757   2.5813   2.5920
  2.6042   2.6204   2.6227   2.6274   2.6402   2.6521   2.6584   2.6664
  2.6804   2.7034   2.7232   2.7414   2.7640   2.7793   2.7898   2.8336
  2.8385   2.8527   2.8676   2.8744   2.8779   2.8818   2.9092   2.9238
  2.9400   2.9473   2.9695   2.9897   3.0052   3.0398   3.0437   3.0552
  3.0751   3.0944   3.1138   3.1453   3.1673   3.1795   3.1997   3.2105
  3.2239   3.2427   3.2586   3.3317   3.3570   3.3648   3.3798   3.4104
  3.4882   3.5185   3.5439   3.5664   3.6149   3.6537   3.7588   3.7667
  3.7898   3.7960   3.7971   3.8008   3.8205   3.8517   3.8744   3.8760
  3.8977   3.9888   4.0274   4.0641   4.1885   4.2054   4.2264   4.3121
  4.3804   4.7072   4.9583   5.0434   5.0541   5.0754   5.1791   5.2345
  5.2755   5.3572   5.5710   5.7115   5.7882   5.8648   8.0210  17.3841
 17.5059  17.5677  23.5482  23.6944  23.8096  23.8272  23.8591  23.8763
 23.8903  23.9679  23.9768  23.9833  24.1175  24.1814  49.8549  49.9989
 50.0008  50.0448 189.2045
 --------------------------------------------------------------
 
          Ground-State Mulliken Net Atomic Charges

     Atom                 Charge (a.u.)
  ----------------------------------------
      1 C                    -1.340183
      2 C                     1.176017
      3 C                    -0.044273
      4 C                    -2.447539
      5 C                     0.166511
      6 C                     1.762855
      7 O                    -0.241284
      8 O                    -0.274348
      9 C                    -0.066779
     10 C                    -0.156395
     11 C                     0.076266
     12 S                    -0.313050
     13 C                    -0.964312
     14 C                     0.596533
     15 C                    -0.374589
     16 O                    -0.414206
     17 O                    -0.158418
     18 H                     0.166086
     19 H                     0.199128
     20 H                     0.251632
     21 H                     0.215032
     22 H                     0.177414
     23 H                     0.228087
     24 H                     0.166157
     25 H                     0.227010
     26 H                     0.165982
     27 H                     0.143697
     28 H                     0.190418
     29 H                     0.289415
     30 H                     0.279484
     31 H                     0.317651
  ----------------------------------------
  Sum of atomic charges =     0.000000

 -----------------------------------------------------------------
                    Cartesian Multipole Moments
 -----------------------------------------------------------------
    Charge (ESU x 10^10)
                 0.0000
    Dipole Moment (Debye)
         X       0.2553      Y      -1.9553      Z       1.8195
       Tot       2.6831
    Quadrupole Moments (Debye-Ang)
        XX     -84.3255     XY     -16.8138     YY    -148.6419
        XZ      16.0298     YZ       5.7651     ZZ    -104.9513
    Octopole Moments (Debye-Ang^2)
       XXX    -593.7647    XXY    -307.9633    XYY    -459.6224
       YYY   -1205.8148    XXZ      25.3622    XYZ      76.5069
       YYZ     -80.8433    XZZ    -211.3214    YZZ    -265.6352
       ZZZ    -326.0446
    Hexadecapole Moments (Debye-Ang^3)
      XXXX   -6843.5331   XXXY   -3016.2035   XXYY   -3590.8551
      XYYY   -5013.4055   YYYY  -10261.0489   XXXZ     -95.0305
      XXYZ     250.0306   XYYZ     -31.8820   YYYZ   -1062.5171
      XXZZ   -1184.7896   XYZZ    -784.7723   YYZZ   -1320.0550
      XZZZ    -977.8005   YZZZ   -1085.6184   ZZZZ   -1136.4587
 -----------------------------------------------------------------
 Total job time:  822.98s(wall), 6296.03s(cpu) 
 Sat Feb  3 10:40:58 2024

        *************************************************************
        *                                                           *
        *  Thank you very much for using Q-Chem.  Have a nice day.  *
        *                                                           *
        *************************************************************


