
Running Job 1 of 1 234-rad-CPCM.in
qchem 234-rad-CPCM.in_2510739.0 /expanse/lustre/scratch/selhajj/temp_project/qcscratch/31257881/qchem2510739/ 0
/cm/shared/apps/spack/cpu/opt/spack/linux-centos8-zen2/gcc-10.2.0/qchem-5.4-akfmr7b3t57bfs6qan3padb2wnb2i7cl/exe/qcprog.exe_s 234-rad-CPCM.in_2510739.0 /expanse/lustre/scratch/selhajj/temp_project/qcscratch/31257881/qchem2510739/
                  Welcome to Q-Chem
     A Quantum Leap Into The Future Of Chemistry


 Q-Chem 5.4, Q-Chem, Inc., Pleasanton, CA (2021)

 License issued to: University of California, San Diego (site)

 E. Epifanovsky,  A. T. B. Gilbert,  Xintian Feng,  Joonho Lee,  Yuezhi Mao,  
 N. Mardirossian,  P. Pokhilko,  A. White,  M. Wormit,  M. P. Coons,  
 A. L. Dempwolff,  Zhengting Gan,  D. Hait,  P. R. Horn,  L. D. Jacobson,  
 I. Kaliman,  J. Kussmann,  A. W. Lange,  Ka Un Lao,  D. S. Levine,  Jie Liu,  
 S. C. McKenzie,  A. F. Morrison,  K. Nanda,  F. Plasser,  D. R. Rehn,  
 M. L. Vidal,  Zhi-Qiang You,  Ying Zhu,  B. Alam,  B. Albrecht,  
 A. Aldossary,  E. Alguire,  J. H. Andersen,  D. Barton,  K. Begam,  A. Behn,  
 Y. A. Bernard,  E. J. Berquist,  H. Burton,  A. Carreras,  K. Carter-Fenk,  
 R. Chakraborty,  A. D. Chien,  K. D. Closser,  V. Cofer-Shabica,  
 S. Dasgupta,  Jia Deng,  M. de Wergifosse,  M. Diedenhofen,  Hainam Do,  
 S. Ehlert,  Po-Tung Fang,  S. Fatehi,  Qingguo Feng,  J. Gayvert,  
 Qinghui Ge,  G. Gidofalvi,  M. Goldey,  J. Gomes,  C. Gonzalez-Espinoza,  
 S. Gulania,  A. Gunina,  M. W. D. Hanson-Heine,  P. H. P. Harbach,  
 A. W. Hauser,  M. F. Herbst,  M. Hernandez Vera,  M. Hodecker,  
 Z. C. Holden,  S. Houck,  Xunkun Huang,  Kerwin Hui,  B. C. Huynh,  
 M. Ivanov,  Hyunjun Ji,  Hanjie Jiang,  B. Kaduk,  S. Kaehler,  
 K. Khistyaev,  Jaehoon Kim,  P. Klunzinger,  Z. Koczor-Benda,  
 Joong Hoon Koh,  D. Kosenkov,  L. Koulias,  T. Kowalczyk,  C. M. Krauter,  
 K. Kue,  A. Kunitsa,  T. Kus,  A. Landau,  K. V. Lawler,  D. Lefrancois,  
 S. Lehtola,  Rain Li,  Yi-Pei Li,  Jiashu Liang,  M. Liebenthal,  
 Hung-Hsuan Lin,  You-Sheng Lin,  Fenglai Liu,  Kuan-Yu Liu,  
 M. Loipersberger,  A. Luenser,  A. Manjanath,  P. Manohar,  E. Mansoor,  
 S. F. Manzer,  Shan-Ping Mao,  A. V. Marenich,  T. Markovich,  S. Mason,  
 S. A. Maurer,  P. F. McLaughlin,  M. F. S. J. Menger,  J.-M. Mewes,  
 S. A. Mewes,  P. Morgante,  J. W. Mullinax,  T. S. Nguyen-Beck,  
 K. J. Oosterbaan,  G. Paran,  Alexander C. Paul,  Suranjan K. Paul,  
 F. Pavosevic,  Zheng Pei,  S. Prager,  E. I. Proynov,  E. Ramos,  B. Rana,  
 A. E. Rask,  A. Rettig,  R. M. Richard,  F. Rob,  E. Rossomme,  T. Scheele,  
 M. Scheurer,  M. Schneider,  N. Sergueev,  S. M. Sharada,  W. Skomorowski,  
 D. W. Small,  C. J. Stein,  Yu-Chuan Su,  E. J. Sundstrom,  Zhen Tao,  
 J. Thirman,  T. Tsuchimochi,  N. M. Tubman,  S. P. Veccham,  O. Vydrov,  
 J. Wenzel,  J. Witte,  A. Yamada,  Kun Yao,  S. Yeganeh,  S. R. Yost,  
 A. Zech,  Igor Ying Zhang,  Xing Zhang,  Yu Zhang,  D. Zuev,  
 A. Aspuru-Guzik,  A. T. Bell,  N. A. Besley,  K. B. Bravaya,  B. R. Brooks,  
 D. Casanova,  Jeng-Da Chai,  S. Coriani,  C. J. Cramer,  
 A. E. DePrince, III,  R. A. DiStasio Jr.,  A. Dreuw,  B. D. Dunietz,  
 T. R. Furlani,  W. A. Goddard III,  S. Grimme,  S. Hammes-Schiffer,  
 T. Head-Gordon,  W. J. Hehre,  Chao-Ping Hsu,  T.-C. Jagau,  Yousung Jung,  
 A. Klamt,  Jing Kong,  D. S. Lambrecht,  WanZhen Liang,  N. J. Mayhall,  
 C. W. McCurdy,  J. B. Neaton,  C. Ochsenfeld,  J. A. Parkhill,  R. Peverati,  
 V. A. Rassolov,  Yihan Shao,  L. V. Slipchenko,  T. Stauch,  R. P. Steele,  
 J. E. Subotnik,  A. J. W. Thom,  A. Tkatchenko,  D. G. Truhlar,  
 T. Van Voorhis,  T. A. Wesolowski,  K. B. Whaley,  H. L. Woodcock III,  
 P. M. Zimmerman,  S. Faraji,  P. M. W. Gill,  M. Head-Gordon,  
 J. M. Herbert,  A. I. Krylov

 Contributors to earlier versions of Q-Chem not listed above: 
 R. D. Adamson,  B. Austin,  R. Baer,  J. Baker,  G. J. O. Beran,  
 K. Brandhorst,  S. T. Brown,  E. F. C. Byrd,  A. K. Chakraborty,  
 G. K. L. Chan,  Chun-Min Chang,  Yunqing Chen,  C.-L. Cheng,  
 Siu Hung Chien,  D. M. Chipman,  D. L. Crittenden,  H. Dachsel,  
 R. J. Doerksen,  A. D. Dutoi,  R. G. Edgar,  J. Fosso-Tande,  
 L. Fusti-Molnar,  D. Ghosh,  A. Ghysels,  A. Golubeva-Zadorozhnaya,  
 J. Gonthier,  M. S. Gordon,  S. R. Gwaltney,  G. Hawkins,  J. E. Herr,  
 A. Heyden,  S. Hirata,  E. G. Hohenstein,  G. Kedziora,  F. J. Keil,  
 C. Kelley,  Jihan Kim,  R. A. King,  R. Z. Khaliullin,  P. P. Korambath,  
 W. Kurlancheek,  A. Laurent,  A. M. Lee,  M. S. Lee,  S. V. Levchenko,  
 Ching Yeh Lin,  D. Liotard,  E. Livshits,  R. C. Lochan,  I. Lotan,  
 L. A. Martinez-Martinez,  P. E. Maslen,  N. Nair,  D. P. O'Neill,  
 D. Neuhauser,  E. Neuscamman,  C. M. Oana,  R. Olivares-Amaya,  R. Olson,  
 T. M. Perrine,  B. Peters,  P. A. Pieniazek,  A. Prociuk,  Y. M. Rhee,  
 J. Ritchie,  M. A. Rohrdanz,  E. Rosta,  N. J. Russ,  H. F. Schaefer III,  
 M. W. Schmidt,  N. E. Schultz,  S. Sharma,  N. Shenvi,  C. D. Sherrill,  
 A. C. Simmonett,  A. Sodt,  T. Stein,  D. Stuck,  K. S. Thanthiriwatte,  
 V. Vanovschi,  L. Vogt,  Tao Wang,  A. Warshel,  M. A. Watson,  
 C. F. Williams,  Q. Wu,  X. Xu,  Jun Yang,  W. Zhang,  Yan Zhao

 Please cite Q-Chem as follows:
 Y. Shao et al., Mol. Phys. 113, 184-215 (2015)
 DOI: 10.1080/00268976.2014.952696

 Q-Chem 5.4.0 for Intel X86 EM64T Linux

 Parts of Q-Chem use Armadillo 9.800.1 (Horizon Scraper).
 http://arma.sourceforge.net/

 Q-Chem begins on Wed Jun 12 02:35:37 2024  

 Host: 
0

     Scratch files written to /expanse/lustre/scratch/selhajj/temp_project/qcscratch/31257881/qchem2510739//
 May1621 |scratch|qcdevops|jenkins|workspace|build_RNUM    
 Processing $rem in /cm/shared/apps/spack/cpu/opt/spack/linux-centos8-zen2/gcc-10.2.0/qchem-5.4-akfmr7b3t57bfs6qan3padb2wnb2i7cl/config/preferences:
 Processing $rem in /home/selhajj/.qchemrc:
 Symmetry turned off for PCM/SM12/SMD calculation

 Checking the input file for inconsistencies... 	...done.

--------------------------------------------------------------
User input:
--------------------------------------------------------------
$molecule
-1 2
C                  5.7258200000     -5.2348820000      1.1210680000
C                  6.6628240000     -5.1070330000      0.1161860000
C                  6.5391410000     -4.0718940000     -0.8357440000
C                  4.6398730000     -4.3458680000      1.2164740000
C                  4.5167870000     -3.3057600000      0.2589670000
C                  5.4798000000     -3.1904020000     -0.7573990000
C                  3.6630590000     -4.5164050000      2.3027600000
C                  2.5734940000     -3.5625690000      2.3327640000
C                  2.4697230000     -2.5572650000      1.3933850000
C                  3.3980780000     -2.3490090000      0.3152050000
O                  3.7723730000     -5.4411260000      3.1514060000
O                  3.2752400000     -1.4222610000     -0.5270380000
H                  5.8013800000     -6.0212250000      1.8613980000
H                  5.3624870000     -2.3881840000     -1.4751310000
Br                 8.1165540000     -6.3707780000      0.0647420000
Br                 7.8124680000     -3.8388040000     -2.2625700000
C                  1.5598180000     -3.7175320000      3.4347450000
H                  1.6408920000     -1.8552430000      1.4409170000
H                  2.0389650000     -3.6559610000      4.4175800000
H                  1.0857520000     -4.7039630000      3.3935460000
H                  0.7854430000     -2.9487630000      3.3683810000
$end
$rem
MAX_SCF_CYCLES=200
BASIS  =  6-311++G(d,p)
GUI  =  2
JOB_TYPE  =  SP
METHOD  =  B3LYP
SOLVENT_METHOD = PCM
$end
$pcm
theory = CPCM
$end
$solvent
dielectric 37.219
opticaldielectric 1.43
$end






--------------------------------------------------------------
 ----------------------------------------------------------------
             Standard Nuclear Orientation (Angstroms)
    I     Atom           X                Y                Z
 ----------------------------------------------------------------
    1      C       5.7258200000    -5.2348820000     1.1210680000
    2      C       6.6628240000    -5.1070330000     0.1161860000
    3      C       6.5391410000    -4.0718940000    -0.8357440000
    4      C       4.6398730000    -4.3458680000     1.2164740000
    5      C       4.5167870000    -3.3057600000     0.2589670000
    6      C       5.4798000000    -3.1904020000    -0.7573990000
    7      C       3.6630590000    -4.5164050000     2.3027600000
    8      C       2.5734940000    -3.5625690000     2.3327640000
    9      C       2.4697230000    -2.5572650000     1.3933850000
   10      C       3.3980780000    -2.3490090000     0.3152050000
   11      O       3.7723730000    -5.4411260000     3.1514060000
   12      O       3.2752400000    -1.4222610000    -0.5270380000
   13      H       5.8013800000    -6.0212250000     1.8613980000
   14      H       5.3624870000    -2.3881840000    -1.4751310000
   15      Br      8.1165540000    -6.3707780000     0.0647420000
   16      Br      7.8124680000    -3.8388040000    -2.2625700000
   17      C       1.5598180000    -3.7175320000     3.4347450000
   18      H       1.6408920000    -1.8552430000     1.4409170000
   19      H       2.0389650000    -3.6559610000     4.4175800000
   20      H       1.0857520000    -4.7039630000     3.3935460000
   21      H       0.7854430000    -2.9487630000     3.3683810000
 ----------------------------------------------------------------
 Nuclear Repulsion Energy =        1609.22283174 hartrees
 There are       80 alpha and       79 beta electrons
 Requested basis set is 6-311++G(d,p)
 There are 146 shells and 424 basis functions

 Total QAlloc Memory Limit   8000 MB
 Mega-Array Size       188 MB
 MEM_STATIC part       192 MB
 Discretize the solute cavity surface with Lebedev spheres
	Using 110 Lebedev grid points for each H atom
	Using 194 Lebedev grid points for other atoms
	Atomic van der Waals radii will be scaled by 1.20
 Remove points where switching function is < 1.0e-08
 Keep 1527 surface tesserae and discard 2043 interior tesserae
 Molecular Surface Area = 258.613 Angst**2
 A cutoff of  1.0D-08 yielded   7023 shell pairs
 There are     63772 function pairs (     68945 Cartesian)
 Smallest overlap matrix eigenvalue = 1.50E-07

 Q-Chem warning in module stvman/mkSTV.C, line 323:

 Overlap eigenvalue is smaller than square root of threshold
 Use THRESH >= 12 to get rid of this warning

 Linear dependence detected in AO basis
 Tighter screening thresholds may be required for diffuse basis sets
 Use S2THRESH > 14 and THRESH = 14 in case of SCF convergence issues
 Number of orthogonalized atomic orbitals = 420
 Maximum deviation from orthogonality = 1.752E-10

 Scale SEOQF with 1.000000e-02/1.000000e-02/1.000000e-01

 Standard Electronic Orientation quadrupole field applied
 Nucleus-field energy     =    -0.0000000064 hartrees
 Guess from superposition of atomic densities
 Warning:  Energy on first SCF cycle will be non-variational
 SAD guess density has 158.000000 electrons

 -----------------------------------------------------------------------
  General SCF calculation program by
  Eric Jon Sundstrom, Paul Horn, Yuezhi Mao, Dmitri Zuev, Alec White,
  David Stuck, Shaama M.S., Shane Yost, Joonho Lee, David Small,
  Daniel Levine, Susi Lehtola, Hugh Burton, Evgeny Epifanovsky,
  Bang C. Huynh
 -----------------------------------------------------------------------
 Exchange:     0.2000 Hartree-Fock + 0.0800 Slater + 0.7200 B88
 Correlation:  0.1900 VWN1RPA + 0.8100 LYP
 Using SG-1 standard quadrature grid
 using 8 threads for integral computing
 -------------------------------------------------------
 OpenMP Integral computing Module                
 Release: version 1.0, May 2013, Q-Chem Inc. Pittsburgh 
 -------------------------------------------------------
 A unrestricted SCF calculation will be
 performed using DIIS
 SCF converges when DIIS error is below 1.0e-05
 ---------------------------------------
  Cycle       Energy         DIIS error
 ---------------------------------------
    1   -5724.8745757412      1.53e-02  
    2   -5721.5409126104      1.90e-03  
    3   -5721.2275483063      2.90e-03  
    4   -5721.7914853071      6.27e-04  
    5   -5721.8197451187      1.50e-04  
    6   -5721.8215137212      5.28e-05  
    7   -5721.8217094332      1.86e-05  
    8   -5721.8217373138      1.18e-05  
    9   -5721.8217494628      4.34e-06  Convergence criterion met
 ---------------------------------------
 SCF time:   CPU 316.88s  wall 41.00s 
<S^2> =          0.758594792

************** Final PCM Free Energy Summary **************
 G_electrostatic  =      -0.07766512 hartree =     -48.73559872 kcal/mol
 G_cavitation     =       0.00000000 hartree =       0.00000000 kcal/mol
 G_dispersion     =       0.00000000 hartree =       0.00000000 kcal/mol
 G_repulsion      =       0.00000000 hartree =       0.00000000 kcal/mol
 --------------------------------------------------
 Non-electrostatic Free Energy =       0.00000000 hartree =       0.00000000 kcal/mol
 Total                         =      -0.07766512 hartree =     -48.73559872 kcal/mol
 --------------------------------------------------
 SCF Energy (H0 + V/2)                       =   -5721.82174946 
 Solute Internal Energy (H0)                 =   -5721.74408434 
 Total Free Energy (H0 + V/2 + non-elec)     =   -5721.82174946 hartree
                                             = -3590497.33916172 kcal/mol
***********************************************************

 SCF   energy in the final basis set =    -5721.8217494628
 Total energy in the final basis set =    -5721.8217494628
 
 --------------------------------------------------------------
 
                    Orbital Energies (a.u.)
 --------------------------------------------------------------
 
 Alpha MOs
 -- Occupied --
********-482.8377 -62.4905 -62.4905 -56.3110 -56.3110 -56.3072 -56.3072
-56.3070 -56.3069 -19.0830 -19.0829 -10.2445 -10.2439 -10.2285 -10.2265
-10.1901 -10.1897 -10.1859 -10.1852 -10.1781 -10.1629 -10.1573  -8.6992
 -8.6992  -6.5307  -6.5307  -6.5178  -6.5178  -6.5174  -6.5173  -2.6417
 -2.6415  -2.6379  -2.6379  -2.6377  -2.6376  -2.6274  -2.6274  -2.6273
 -2.6273  -1.0086  -1.0061  -0.8931  -0.8336  -0.8132  -0.7995  -0.7524
 -0.7413  -0.7012  -0.6637  -0.6262  -0.6001  -0.5649  -0.5134  -0.4937
 -0.4846  -0.4484  -0.4438  -0.4352  -0.4339  -0.4203  -0.4090  -0.3967
 -0.3887  -0.3875  -0.3774  -0.3751  -0.3593  -0.3550  -0.3246  -0.3153
 -0.3152  -0.2867  -0.2740  -0.2622  -0.2526  -0.2478  -0.2440  -0.1587
 -- Virtual --
 -0.0480  -0.0409  -0.0281  -0.0015   0.0029   0.0094   0.0161   0.0315
  0.0341   0.0369   0.0410   0.0449   0.0528   0.0538   0.0564   0.0608
  0.0693   0.0746   0.0757   0.0839   0.0888   0.0912   0.0968   0.1006
  0.1044   0.1119   0.1130   0.1194   0.1253   0.1259   0.1268   0.1352
  0.1377   0.1402   0.1460   0.1491   0.1598   0.1674   0.1690   0.1695
  0.1730   0.1736   0.1871   0.1895   0.1896   0.1911   0.2003   0.2048
  0.2094   0.2176   0.2200   0.2228   0.2270   0.2325   0.2381   0.2382
  0.2456   0.2524   0.2635   0.2677   0.2723   0.2753   0.2817   0.2863
  0.2961   0.3047   0.3050   0.3138   0.3194   0.3199   0.3206   0.3227
  0.3305   0.3383   0.3413   0.3510   0.3579   0.3626   0.3749   0.3848
  0.3957   0.4097   0.4100   0.4168   0.4171   0.4374   0.4424   0.4522
  0.4609   0.4622   0.4701   0.5100   0.5103   0.5183   0.5227   0.5479
  0.5512   0.5519   0.5592   0.5665   0.5672   0.5718   0.5721   0.5753
  0.5852   0.6045   0.6128   0.6192   0.6200   0.6364   0.6383   0.6457
  0.6493   0.6512   0.6647   0.6715   0.6769   0.6852   0.6902   0.6935
  0.7037   0.7177   0.7387   0.7466   0.7556   0.7622   0.7639   0.7775
  0.7923   0.8047   0.8166   0.8234   0.8372   0.8509   0.8639   0.8808
  0.8991   0.9139   0.9190   0.9289   0.9293   0.9490   0.9529   0.9682
  0.9695   0.9732   0.9827   1.0070   1.0173   1.0248   1.0342   1.0642
  1.0655   1.0932   1.1010   1.1249   1.1286   1.1477   1.1528   1.1600
  1.1980   1.2253   1.2300   1.2348   1.2370   1.2372   1.2576   1.2657
  1.3106   1.3236   1.3316   1.3788   1.3861   1.4256   1.4673   1.4703
  1.4946   1.4957   1.5003   1.5367   1.5437   1.5458   1.5546   1.5856
  1.6101   1.6126   1.6198   1.6647   1.6768   1.6809   1.6904   1.7201
  1.7287   1.7542   1.7943   1.8094   1.8179   1.8443   1.8516   1.8599
  1.8820   1.8949   1.9040   1.9314   1.9358   1.9387   1.9729   1.9874
  2.0079   2.0087   2.0211   2.0393   2.0517   2.0519   2.0726   2.0937
  2.1255   2.1414   2.1532   2.1922   2.1953   2.2289   2.2328   2.2494
  2.2768   2.2890   2.3372   2.3477   2.3661   2.3818   2.3894   2.4159
  2.4518   2.4993   2.5509   2.5637   2.5778   2.6118   2.6302   2.6524
  2.6595   2.6798   2.6860   2.7022   2.7467   2.7662   2.7678   2.7798
  2.7864   2.8189   2.8225   2.8650   2.8692   2.8729   2.8765   2.9287
  2.9573   2.9603   2.9691   3.0099   3.0341   3.0486   3.0550   3.0934
  3.1303   3.1850   3.1918   3.2240   3.2688   3.2923   3.3235   3.3473
  3.3519   3.4071   3.4686   3.4988   3.5408   3.5614   3.6013   3.6838
  3.7200   3.7906   3.8012   3.8312   3.8686   3.8978   4.0053   4.0087
  4.0601   4.0650   4.0745   4.1073   4.1483   4.1837   4.2181   4.2697
  4.2913   4.3061   4.3555   4.4121   4.4735   4.7863   4.8502   5.0729
  5.0868   5.2466   5.2832   5.7389   5.8226   6.7541   6.8436   7.5508
  7.5812   7.6676   7.6892   7.7317   7.8070  23.4601  23.7514  23.8803
 23.9104  23.9215  23.9508  23.9924  24.0088  24.0851  24.1443  24.1476
 48.0107  48.0858  50.0440  50.0889 289.7468 289.7790 289.8633 289.8933
289.9509 290.02891020.82601020.9187
 
 Beta MOs
 -- Occupied --
********-482.8377 -62.4905 -62.4905 -56.3111 -56.3110 -56.3072 -56.3071
-56.3070 -56.3069 -19.0769 -19.0769 -10.2441 -10.2434 -10.2269 -10.2247
-10.1902 -10.1897 -10.1853 -10.1845 -10.1765 -10.1618 -10.1574  -8.6992
 -8.6992  -6.5307  -6.5307  -6.5178  -6.5178  -6.5174  -6.5173  -2.6417
 -2.6415  -2.6379  -2.6378  -2.6378  -2.6376  -2.6273  -2.6273  -2.6273
 -2.6273  -0.9980  -0.9952  -0.8918  -0.8296  -0.8126  -0.7972  -0.7508
 -0.7395  -0.6972  -0.6571  -0.6251  -0.5970  -0.5616  -0.5119  -0.4909
 -0.4820  -0.4473  -0.4433  -0.4310  -0.4248  -0.4145  -0.4057  -0.3946
 -0.3875  -0.3767  -0.3726  -0.3575  -0.3550  -0.3530  -0.3224  -0.3151
 -0.3075  -0.2865  -0.2567  -0.2501  -0.2469  -0.2426  -0.2385
 -- Virtual --
 -0.0931  -0.0413  -0.0404  -0.0167  -0.0013   0.0034   0.0094   0.0163
  0.0316   0.0343   0.0398   0.0452   0.0501   0.0546   0.0564   0.0611
  0.0624   0.0697   0.0753   0.0758   0.0870   0.0890   0.0915   0.1006
  0.1023   0.1066   0.1120   0.1131   0.1199   0.1258   0.1261   0.1271
  0.1353   0.1387   0.1404   0.1463   0.1503   0.1601   0.1684   0.1693
  0.1697   0.1730   0.1745   0.1873   0.1899   0.1901   0.1971   0.2006
  0.2045   0.2115   0.2180   0.2214   0.2232   0.2298   0.2331   0.2388
  0.2412   0.2461   0.2534   0.2641   0.2693   0.2727   0.2760   0.2824
  0.2870   0.2968   0.3058   0.3094   0.3148   0.3217   0.3217   0.3238
  0.3245   0.3315   0.3395   0.3421   0.3518   0.3596   0.3639   0.3759
  0.3856   0.3965   0.4110   0.4121   0.4172   0.4179   0.4391   0.4427
  0.4531   0.4626   0.4632   0.4711   0.5106   0.5110   0.5201   0.5237
  0.5496   0.5524   0.5574   0.5601   0.5673   0.5682   0.5724   0.5728
  0.5763   0.5860   0.6054   0.6154   0.6209   0.6248   0.6375   0.6393
  0.6480   0.6505   0.6541   0.6670   0.6727   0.6774   0.6885   0.6936
  0.6940   0.7043   0.7185   0.7395   0.7474   0.7586   0.7625   0.7647
  0.7779   0.7926   0.8062   0.8179   0.8245   0.8379   0.8514   0.8648
  0.8830   0.9005   0.9154   0.9200   0.9303   0.9308   0.9499   0.9552
  0.9733   0.9737   0.9757   0.9839   1.0074   1.0208   1.0256   1.0350
  1.0673   1.0683   1.0992   1.1026   1.1256   1.1394   1.1493   1.1620
  1.1651   1.1994   1.2272   1.2346   1.2369   1.2398   1.2445   1.2653
  1.2678   1.3129   1.3258   1.3348   1.3826   1.3882   1.4287   1.4684
  1.4709   1.4967   1.4993   1.5010   1.5376   1.5446   1.5484   1.5554
  1.5872   1.6134   1.6144   1.6212   1.6683   1.6786   1.6861   1.6918
  1.7214   1.7300   1.7562   1.7996   1.8108   1.8204   1.8476   1.8551
  1.8624   1.8842   1.8979   1.9082   1.9344   1.9381   1.9406   1.9755
  1.9880   2.0094   2.0110   2.0227   2.0407   2.0532   2.0542   2.0742
  2.0978   2.1267   2.1422   2.1548   2.1932   2.1974   2.2310   2.2363
  2.2501   2.2789   2.2909   2.3402   2.3487   2.3701   2.3826   2.3901
  2.4186   2.4527   2.4998   2.5519   2.5663   2.5794   2.6128   2.6346
  2.6539   2.6655   2.6805   2.6868   2.7032   2.7479   2.7666   2.7734
  2.7866   2.7867   2.8204   2.8268   2.8719   2.8756   2.8789   2.8854
  2.9404   2.9697   2.9710   2.9803   3.0108   3.0385   3.0501   3.0621
  3.0979   3.1325   3.1876   3.1930   3.2282   3.2709   3.2937   3.3397
  3.3528   3.3633   3.4090   3.4700   3.5012   3.5446   3.5628   3.6033
  3.6857   3.7221   3.7912   3.8030   3.8345   3.8696   3.9000   4.0054
  4.0088   4.0602   4.0653   4.0746   4.1074   4.1516   4.1853   4.2181
  4.2723   4.2924   4.3084   4.3571   4.4137   4.4735   4.7915   4.8512
  5.0978   5.1124   5.2516   5.2883   5.7441   5.8278   6.7541   6.8436
  7.5509   7.5813   7.6676   7.6892   7.7317   7.8070  23.4607  23.7529
 23.8807  23.9113  23.9233  23.9526  23.9928  24.0094  24.0853  24.1445
 24.1489  48.0107  48.0859  50.0501  50.0950 289.7469 289.7790 289.8633
289.8933 289.9509 290.02891020.82601020.9187
 --------------------------------------------------------------
 
          Ground-State Mulliken Net Atomic Charges

     Atom                 Charge (a.u.)    Spin (a.u.)
  --------------------------------------------------------
      1 C                    -0.058470       0.021766
      2 C                    -0.108684       0.019539
      3 C                    -0.139509       0.036060
      4 C                     0.270920       0.013234
      5 C                     0.700348       0.069862
      6 C                    -0.049003       0.011592
      7 C                    -0.495781       0.116457
      8 C                     0.826842       0.094286
      9 C                    -0.502003       0.073877
     10 C                    -0.751172       0.089086
     11 O                    -0.478783       0.231434
     12 O                    -0.499775       0.216030
     13 H                     0.220298      -0.002281
     14 H                     0.215077      -0.002383
     15 Br                   -0.231340       0.001662
     16 Br                   -0.240827       0.002120
     17 C                    -0.364956       0.005499
     18 H                     0.170958      -0.008297
     19 H                     0.175464       0.005315
     20 H                     0.175724       0.005380
     21 H                     0.164672      -0.000236
  --------------------------------------------------------
  Sum of atomic charges =    -1.000000
  Sum of spin   charges =     1.000000

 -----------------------------------------------------------------
                    Cartesian Multipole Moments
 -----------------------------------------------------------------
    Charge (ESU x 10^10)
                -4.8032
    Dipole Moment (Debye)
         X     -21.1677      Y      17.7150      Z      -3.6249
       Tot      27.8395
    Quadrupole Moments (Debye-Ang)
        XX    -219.8550     XY      84.9466     YY    -203.3098
        XZ     -13.7016     YZ      29.0723     ZZ    -137.5572
    Octopole Moments (Debye-Ang^2)
       XXX   -2449.4427    XXY     934.6342    XYY   -1040.0873
       YYY    1922.4238    XXZ     -80.2427    XYZ     100.2195
       YYZ    -223.2777    XZZ    -708.5520    YZZ     610.8215
       ZZZ    -200.4427
    Hexadecapole Moments (Debye-Ang^3)
      XXXX  -27229.3769   XXXY   11045.8879   XXYY   -8382.3885
      XYYY   10583.7372   YYYY  -16161.9463   XXXZ     229.3622
      XXYZ     495.4340   XYYZ    -520.2263   YYYZ    1696.2712
      XXZZ   -4623.2035   XYZZ    3303.8073   YYZZ   -3374.8296
      XZZZ     -29.1490   YZZZ    1056.2615   ZZZZ   -2470.8048
 -----------------------------------------------------------------
 Total job time:  59.65s(wall), 325.64s(cpu) 
 Wed Jun 12 02:36:37 2024

        *************************************************************
        *                                                           *
        *  Thank you very much for using Q-Chem.  Have a nice day.  *
        *                                                           *
        *************************************************************


