 Entering Gaussian System, Link 0=g16
 Input=154.com
 Output=154.log
 Initial command:
 /sysapps/ubuntu-applications/gaussian/Gaussian/AVX2/g16/l1.exe "/scratch/selhajj1/4406760/Gau-198206.inp" -scrdir="/scratch/selhajj1/4406760/"
 Entering Link 1 = /sysapps/ubuntu-applications/gaussian/Gaussian/AVX2/g16/l1.exe PID=    198210.
  
 Copyright (c) 1988,1990,1992,1993,1995,1998,2003,2009,2016,
            Gaussian, Inc.  All Rights Reserved.
  
 This is part of the Gaussian(R) 16 program.  It is based on
 the Gaussian(R) 09 system (copyright 2009, Gaussian, Inc.),
 the Gaussian(R) 03 system (copyright 2003, Gaussian, Inc.),
 the Gaussian(R) 98 system (copyright 1998, Gaussian, Inc.),
 the Gaussian(R) 94 system (copyright 1995, Gaussian, Inc.),
 the Gaussian 92(TM) system (copyright 1992, Gaussian, Inc.),
 the Gaussian 90(TM) system (copyright 1990, Gaussian, Inc.),
 the Gaussian 88(TM) system (copyright 1988, Gaussian, Inc.),
 the Gaussian 86(TM) system (copyright 1986, Carnegie Mellon
 University), and the Gaussian 82(TM) system (copyright 1983,
 Carnegie Mellon University). Gaussian is a federally registered
 trademark of Gaussian, Inc.
  
 This software contains proprietary and confidential information,
 including trade secrets, belonging to Gaussian, Inc.
  
 This software is provided under written license and may be
 used, copied, transmitted, or stored only in accord with that
 written license.
  
 The following legend is applicable only to US Government
 contracts under FAR:
  
                    RESTRICTED RIGHTS LEGEND
  
 Use, reproduction and disclosure by the US Government is
 subject to restrictions as set forth in subparagraphs (a)
 and (c) of the Commercial Computer Software - Restricted
 Rights clause in FAR 52.227-19.
  
 Gaussian, Inc.
 340 Quinnipiac St., Bldg. 40, Wallingford CT 06492
  
  
 ---------------------------------------------------------------
 Warning -- This program may not be used in any manner that
 competes with the business of Gaussian, Inc. or will provide
 assistance to any competitor of Gaussian, Inc.  The licensee
 of this program is prohibited from giving any competitor of
 Gaussian, Inc. access to this program.  By using this program,
 the user acknowledges that Gaussian, Inc. is engaged in the
 business of creating and licensing software in the field of
 computational chemistry and represents and warrants to the
 licensee that it is not a competitor of Gaussian, Inc. and that
 it will not use this program in any manner prohibited above.
 ---------------------------------------------------------------
  

 Cite this work as:
 Gaussian 16, Revision A.03,
 M. J. Frisch, G. W. Trucks, H. B. Schlegel, G. E. Scuseria, 
 M. A. Robb, J. R. Cheeseman, G. Scalmani, V. Barone, 
 G. A. Petersson, H. Nakatsuji, X. Li, M. Caricato, A. V. Marenich, 
 J. Bloino, B. G. Janesko, R. Gomperts, B. Mennucci, H. P. Hratchian, 
 J. V. Ortiz, A. F. Izmaylov, J. L. Sonnenberg, D. Williams-Young, 
 F. Ding, F. Lipparini, F. Egidi, J. Goings, B. Peng, A. Petrone, 
 T. Henderson, D. Ranasinghe, V. G. Zakrzewski, J. Gao, N. Rega, 
 G. Zheng, W. Liang, M. Hada, M. Ehara, K. Toyota, R. Fukuda, 
 J. Hasegawa, M. Ishida, T. Nakajima, Y. Honda, O. Kitao, H. Nakai, 
 T. Vreven, K. Throssell, J. A. Montgomery, Jr., J. E. Peralta, 
 F. Ogliaro, M. J. Bearpark, J. J. Heyd, E. N. Brothers, K. N. Kudin, 
 V. N. Staroverov, T. A. Keith, R. Kobayashi, J. Normand, 
 K. Raghavachari, A. P. Rendell, J. C. Burant, S. S. Iyengar, 
 J. Tomasi, M. Cossi, J. M. Millam, M. Klene, C. Adamo, R. Cammi, 
 J. W. Ochterski, R. L. Martin, K. Morokuma, O. Farkas, 
 J. B. Foresman, and D. J. Fox, Gaussian, Inc., Wallingford CT, 2016.
 
 ******************************************
 Gaussian 16:  ES64L-G16RevA.03 25-Dec-2016
                10-Feb-2024 
 ******************************************
 %chk=154.chk
 %nproc=8
 Will use up to    8 processors via shared memory.
 %mem=30GB
 ----------------------------------------------------------------------
 #P UB3LYP/6-311++G(d,p) nosym opt freq SCRF=(PCM,Solvent=n,n-DiMethylF
 ormamide)
 ----------------------------------------------------------------------
 1/18=20,19=15,26=3,38=1/1,3;
 2/9=110,12=2,15=1,17=6,18=5,40=1/2;
 3/5=4,6=6,7=1111,11=2,25=1,30=1,70=2201,71=1,72=148,74=-5,116=2/1,2,3;
 4//1;
 5/5=2,38=5,53=148/2;
 6/7=2,8=2,9=2,10=2,28=1/1;
 7/30=1/1,2,3,16;
 1/18=20,19=15,26=3/3(2);
 2/9=110,15=1/2;
 99//99;
 2/9=110,15=1/2;
 3/5=4,6=6,7=1111,11=2,25=1,30=1,70=2205,71=1,72=148,74=-5,116=2/1,2,3;
 4/5=5,16=3,69=1/1;
 5/5=2,38=5,53=148/2;
 7/30=1/1,2,3,16;
 1/18=20,19=15,26=3/3(-5);
 2/9=110,15=1/2;
 6/7=2,8=2,9=2,10=2,19=2,28=1/1;
 99/9=1/99;
 Leave Link    1 at Sat Feb 10 15:46:29 2024, MaxMem=  4026531840 cpu:               0.7 elap:               0.1
 (Enter /sysapps/ubuntu-applications/gaussian/Gaussian/AVX2/g16/l101.exe)
 --------
 Oxidized
 --------
 Symbolic Z-matrix:
 Charge =  0 Multiplicity = 1
 C                    -4.40418  -0.34599   0.19596 
 C                    -2.92673  -0.63192   0.24064 
 C                    -2.45381  -1.91877   0.43082 
 C                    -1.08755  -2.20698   0.47886 
 C                    -0.16454  -1.1846    0.33163 
 C                     1.28355  -1.54479   0.38933 
 O                     1.64625  -2.69836   0.56349 
 C                     2.27239  -0.44528   0.22601 
 C                     3.63939  -0.73736   0.27314 
 C                     4.57497   0.27819   0.1214 
 C                     4.15046   1.59514  -0.07902 
 C                     2.79389   1.89261  -0.12693 
 C                     1.84456   0.87616   0.02507 
 C                     0.39411   1.22932  -0.03001 
 O                     0.07389   2.41011  -0.21065 
 C                    -0.59267   0.15466   0.13255 
 C                    -1.99191   0.43512   0.08828 
 N                    -2.45268   1.70125  -0.08813 
 H                    -4.70467   0.09256  -0.76342 
 H                    -4.70555   0.35372   0.98464 
 H                    -4.97985  -1.26214   0.33137 
 H                    -3.17051  -2.72551   0.54661 
 H                    -0.73008  -3.21694   0.62915 
 H                     3.94141  -1.76558   0.42931 
 H                     5.63401   0.04917   0.15837 
 H                     4.88099   2.38752  -0.19743 
 H                     2.445     2.90578  -0.28089 
 H                    -3.43695   1.88205  -0.16694 
 H                    -1.77317   2.44085  -0.22176 
 
 ITRead=  0  0  0  0  0  0  0  0  0  0  0  0  0  0  0  0  0  0  0  0
 ITRead=  0  0  0  0  0  0  0  0  0
 MicOpt= -1 -1 -1 -1 -1 -1 -1 -1 -1 -1 -1 -1 -1 -1 -1 -1 -1 -1 -1 -1
 MicOpt= -1 -1 -1 -1 -1 -1 -1 -1 -1
 NAtoms=     29 NQM=       29 NQMF=       0 NMMI=      0 NMMIF=      0
                NMic=       0 NMicF=      0.
                    Isotopes and Nuclear Properties:
 (Nuclear quadrupole moments (NQMom) in fm**2, nuclear magnetic moments (NMagM)
  in nuclear magnetons)

  Atom         1           2           3           4           5           6           7           8           9          10
 IAtWgt=          12          12          12          12          12          12          16          12          12          12
 AtmWgt=  12.0000000  12.0000000  12.0000000  12.0000000  12.0000000  12.0000000  15.9949146  12.0000000  12.0000000  12.0000000
 NucSpn=           0           0           0           0           0           0           0           0           0           0
 AtZEff=  -0.0000000  -0.0000000  -0.0000000  -0.0000000  -0.0000000  -0.0000000  -0.0000000  -0.0000000  -0.0000000  -0.0000000
 NQMom=    0.0000000   0.0000000   0.0000000   0.0000000   0.0000000   0.0000000   0.0000000   0.0000000   0.0000000   0.0000000
 NMagM=    0.0000000   0.0000000   0.0000000   0.0000000   0.0000000   0.0000000   0.0000000   0.0000000   0.0000000   0.0000000
 AtZNuc=   6.0000000   6.0000000   6.0000000   6.0000000   6.0000000   6.0000000   8.0000000   6.0000000   6.0000000   6.0000000

  Atom        11          12          13          14          15          16          17          18          19          20
 IAtWgt=          12          12          12          12          16          12          12          14           1           1
 AtmWgt=  12.0000000  12.0000000  12.0000000  12.0000000  15.9949146  12.0000000  12.0000000  14.0030740   1.0078250   1.0078250
 NucSpn=           0           0           0           0           0           0           0           2           1           1
 AtZEff=  -0.0000000  -0.0000000  -0.0000000  -0.0000000  -0.0000000  -0.0000000  -0.0000000  -0.0000000  -0.0000000  -0.0000000
 NQMom=    0.0000000   0.0000000   0.0000000   0.0000000   0.0000000   0.0000000   0.0000000   2.0440000   0.0000000   0.0000000
 NMagM=    0.0000000   0.0000000   0.0000000   0.0000000   0.0000000   0.0000000   0.0000000   0.4037610   2.7928460   2.7928460
 AtZNuc=   6.0000000   6.0000000   6.0000000   6.0000000   8.0000000   6.0000000   6.0000000   7.0000000   1.0000000   1.0000000

  Atom        21          22          23          24          25          26          27          28          29
 IAtWgt=           1           1           1           1           1           1           1           1           1
 AtmWgt=   1.0078250   1.0078250   1.0078250   1.0078250   1.0078250   1.0078250   1.0078250   1.0078250   1.0078250
 NucSpn=           1           1           1           1           1           1           1           1           1
 AtZEff=  -0.0000000  -0.0000000  -0.0000000  -0.0000000  -0.0000000  -0.0000000  -0.0000000  -0.0000000  -0.0000000
 NQMom=    0.0000000   0.0000000   0.0000000   0.0000000   0.0000000   0.0000000   0.0000000   0.0000000   0.0000000
 NMagM=    2.7928460   2.7928460   2.7928460   2.7928460   2.7928460   2.7928460   2.7928460   2.7928460   2.7928460
 AtZNuc=   1.0000000   1.0000000   1.0000000   1.0000000   1.0000000   1.0000000   1.0000000   1.0000000   1.0000000
 Leave Link  101 at Sat Feb 10 15:46:30 2024, MaxMem=  4026531840 cpu:               6.2 elap:               1.4
 (Enter /sysapps/ubuntu-applications/gaussian/Gaussian/AVX2/g16/l103.exe)

 GradGradGradGradGradGradGradGradGradGradGradGradGradGradGradGradGradGrad
 Berny optimization.
 Initialization pass.
                           ----------------------------
                           !    Initial Parameters    !
                           ! (Angstroms and Degrees)  !
 --------------------------                            --------------------------
 ! Name  Definition              Value          Derivative Info.                !
 --------------------------------------------------------------------------------
 ! R1    R(1,2)                  1.5055         estimate D2E/DX2                !
 ! R2    R(1,19)                 1.0968         estimate D2E/DX2                !
 ! R3    R(1,20)                 1.0966         estimate D2E/DX2                !
 ! R4    R(1,21)                 1.0904         estimate D2E/DX2                !
 ! R5    R(2,3)                  1.3841         estimate D2E/DX2                !
 ! R6    R(2,17)                 1.4268         estimate D2E/DX2                !
 ! R7    R(3,4)                  1.3972         estimate D2E/DX2                !
 ! R8    R(3,22)                 1.0853         estimate D2E/DX2                !
 ! R9    R(4,5)                  1.3852         estimate D2E/DX2                !
 ! R10   R(4,23)                 1.0818         estimate D2E/DX2                !
 ! R11   R(5,6)                  1.4933         estimate D2E/DX2                !
 ! R12   R(5,16)                 1.42           estimate D2E/DX2                !
 ! R13   R(6,7)                  1.2217         estimate D2E/DX2                !
 ! R14   R(6,8)                  1.4878         estimate D2E/DX2                !
 ! R15   R(8,9)                  1.3986         estimate D2E/DX2                !
 ! R16   R(8,13)                 1.4034         estimate D2E/DX2                !
 ! R17   R(9,10)                 1.3891         estimate D2E/DX2                !
 ! R18   R(9,24)                 1.083          estimate D2E/DX2                !
 ! R19   R(10,11)                1.3981         estimate D2E/DX2                !
 ! R20   R(10,25)                1.0842         estimate D2E/DX2                !
 ! R21   R(11,12)                1.3896         estimate D2E/DX2                !
 ! R22   R(11,26)                1.0842         estimate D2E/DX2                !
 ! R23   R(12,13)                1.3991         estimate D2E/DX2                !
 ! R24   R(12,27)                1.0826         estimate D2E/DX2                !
 ! R25   R(13,14)                1.4938         estimate D2E/DX2                !
 ! R26   R(14,15)                1.2367         estimate D2E/DX2                !
 ! R27   R(14,16)                1.468          estimate D2E/DX2                !
 ! R28   R(16,17)                1.4278         estimate D2E/DX2                !
 ! R29   R(17,18)                1.3589         estimate D2E/DX2                !
 ! R30   R(18,28)                1.0038         estimate D2E/DX2                !
 ! R31   R(18,29)                1.0132         estimate D2E/DX2                !
 ! A1    A(2,1,19)             111.7621         estimate D2E/DX2                !
 ! A2    A(2,1,20)             111.6876         estimate D2E/DX2                !
 ! A3    A(2,1,21)             110.7827         estimate D2E/DX2                !
 ! A4    A(19,1,20)            107.3783         estimate D2E/DX2                !
 ! A5    A(19,1,21)            107.4529         estimate D2E/DX2                !
 ! A6    A(20,1,21)            107.5594         estimate D2E/DX2                !
 ! A7    A(1,2,3)              121.0611         estimate D2E/DX2                !
 ! A8    A(1,2,17)             119.8529         estimate D2E/DX2                !
 ! A9    A(3,2,17)             119.0859         estimate D2E/DX2                !
 ! A10   A(2,3,4)              122.048          estimate D2E/DX2                !
 ! A11   A(2,3,22)             118.6932         estimate D2E/DX2                !
 ! A12   A(4,3,22)             119.2587         estimate D2E/DX2                !
 ! A13   A(3,4,5)              119.7146         estimate D2E/DX2                !
 ! A14   A(3,4,23)             121.3642         estimate D2E/DX2                !
 ! A15   A(5,4,23)             118.9212         estimate D2E/DX2                !
 ! A16   A(4,5,6)              117.6461         estimate D2E/DX2                !
 ! A17   A(4,5,16)             120.6685         estimate D2E/DX2                !
 ! A18   A(6,5,16)             121.6854         estimate D2E/DX2                !
 ! A19   A(5,6,7)              121.4084         estimate D2E/DX2                !
 ! A20   A(5,6,8)              117.5179         estimate D2E/DX2                !
 ! A21   A(7,6,8)              121.0737         estimate D2E/DX2                !
 ! A22   A(6,8,9)              119.4446         estimate D2E/DX2                !
 ! A23   A(6,8,13)             120.5946         estimate D2E/DX2                !
 ! A24   A(9,8,13)             119.9607         estimate D2E/DX2                !
 ! A25   A(8,9,10)             120.1261         estimate D2E/DX2                !
 ! A26   A(8,9,24)             118.4049         estimate D2E/DX2                !
 ! A27   A(10,9,24)            121.4689         estimate D2E/DX2                !
 ! A28   A(9,10,11)            119.9864         estimate D2E/DX2                !
 ! A29   A(9,10,25)            119.9827         estimate D2E/DX2                !
 ! A30   A(11,10,25)           120.0309         estimate D2E/DX2                !
 ! A31   A(10,11,12)           120.1977         estimate D2E/DX2                !
 ! A32   A(10,11,26)           119.9651         estimate D2E/DX2                !
 ! A33   A(12,11,26)           119.8372         estimate D2E/DX2                !
 ! A34   A(11,12,13)           120.2067         estimate D2E/DX2                !
 ! A35   A(11,12,27)           121.3231         estimate D2E/DX2                !
 ! A36   A(13,12,27)           118.4701         estimate D2E/DX2                !
 ! A37   A(8,13,12)            119.5223         estimate D2E/DX2                !
 ! A38   A(8,13,14)            121.5922         estimate D2E/DX2                !
 ! A39   A(12,13,14)           118.8854         estimate D2E/DX2                !
 ! A40   A(13,14,15)           118.8498         estimate D2E/DX2                !
 ! A41   A(13,14,16)           118.3929         estimate D2E/DX2                !
 ! A42   A(15,14,16)           122.7573         estimate D2E/DX2                !
 ! A43   A(5,16,14)            120.2162         estimate D2E/DX2                !
 ! A44   A(5,16,17)            119.0176         estimate D2E/DX2                !
 ! A45   A(14,16,17)           120.7657         estimate D2E/DX2                !
 ! A46   A(2,17,16)            119.4652         estimate D2E/DX2                !
 ! A47   A(2,17,18)            119.244          estimate D2E/DX2                !
 ! A48   A(16,17,18)           121.2895         estimate D2E/DX2                !
 ! A49   A(17,18,28)           120.6962         estimate D2E/DX2                !
 ! A50   A(17,18,29)           118.025          estimate D2E/DX2                !
 ! A51   A(28,18,29)           121.0476         estimate D2E/DX2                !
 ! D1    D(19,1,2,3)          -119.7051         estimate D2E/DX2                !
 ! D2    D(19,1,2,17)           60.4313         estimate D2E/DX2                !
 ! D3    D(20,1,2,3)           119.9727         estimate D2E/DX2                !
 ! D4    D(20,1,2,17)          -59.8908         estimate D2E/DX2                !
 ! D5    D(21,1,2,3)             0.0912         estimate D2E/DX2                !
 ! D6    D(21,1,2,17)         -179.7724         estimate D2E/DX2                !
 ! D7    D(1,2,3,4)           -179.8463         estimate D2E/DX2                !
 ! D8    D(1,2,3,22)             0.0977         estimate D2E/DX2                !
 ! D9    D(17,2,3,4)             0.0183         estimate D2E/DX2                !
 ! D10   D(17,2,3,22)          179.9623         estimate D2E/DX2                !
 ! D11   D(1,2,17,16)          179.9747         estimate D2E/DX2                !
 ! D12   D(1,2,17,18)            0.3774         estimate D2E/DX2                !
 ! D13   D(3,2,17,16)            0.1084         estimate D2E/DX2                !
 ! D14   D(3,2,17,18)         -179.4889         estimate D2E/DX2                !
 ! D15   D(2,3,4,5)             -0.0818         estimate D2E/DX2                !
 ! D16   D(2,3,4,23)           179.9328         estimate D2E/DX2                !
 ! D17   D(22,3,4,5)           179.9745         estimate D2E/DX2                !
 ! D18   D(22,3,4,23)           -0.0109         estimate D2E/DX2                !
 ! D19   D(3,4,5,6)           -179.9444         estimate D2E/DX2                !
 ! D20   D(3,4,5,16)             0.0159         estimate D2E/DX2                !
 ! D21   D(23,4,5,6)             0.0413         estimate D2E/DX2                !
 ! D22   D(23,4,5,16)         -179.9983         estimate D2E/DX2                !
 ! D23   D(4,5,6,7)             -0.1865         estimate D2E/DX2                !
 ! D24   D(4,5,6,8)            179.7862         estimate D2E/DX2                !
 ! D25   D(16,5,6,7)           179.8535         estimate D2E/DX2                !
 ! D26   D(16,5,6,8)            -0.1737         estimate D2E/DX2                !
 ! D27   D(4,5,16,14)         -179.6481         estimate D2E/DX2                !
 ! D28   D(4,5,16,17)            0.1091         estimate D2E/DX2                !
 ! D29   D(6,5,16,14)            0.3106         estimate D2E/DX2                !
 ! D30   D(6,5,16,17)         -179.9321         estimate D2E/DX2                !
 ! D31   D(5,6,8,9)           -179.9947         estimate D2E/DX2                !
 ! D32   D(5,6,8,13)            -0.0393         estimate D2E/DX2                !
 ! D33   D(7,6,8,9)             -0.0219         estimate D2E/DX2                !
 ! D34   D(7,6,8,13)           179.9336         estimate D2E/DX2                !
 ! D35   D(6,8,9,10)           179.9555         estimate D2E/DX2                !
 ! D36   D(6,8,9,24)            -0.0374         estimate D2E/DX2                !
 ! D37   D(13,8,9,10)           -0.0003         estimate D2E/DX2                !
 ! D38   D(13,8,9,24)         -179.9932         estimate D2E/DX2                !
 ! D39   D(6,8,13,12)         -179.9477         estimate D2E/DX2                !
 ! D40   D(6,8,13,14)            0.1102         estimate D2E/DX2                !
 ! D41   D(9,8,13,12)            0.0076         estimate D2E/DX2                !
 ! D42   D(9,8,13,14)         -179.9345         estimate D2E/DX2                !
 ! D43   D(8,9,10,11)           -0.0075         estimate D2E/DX2                !
 ! D44   D(8,9,10,25)          179.9975         estimate D2E/DX2                !
 ! D45   D(24,9,10,11)         179.9852         estimate D2E/DX2                !
 ! D46   D(24,9,10,25)          -0.0098         estimate D2E/DX2                !
 ! D47   D(9,10,11,12)           0.0079         estimate D2E/DX2                !
 ! D48   D(9,10,11,26)        -179.9987         estimate D2E/DX2                !
 ! D49   D(25,10,11,12)       -179.997          estimate D2E/DX2                !
 ! D50   D(25,10,11,26)         -0.0037         estimate D2E/DX2                !
 ! D51   D(10,11,12,13)         -0.0006         estimate D2E/DX2                !
 ! D52   D(10,11,12,27)        179.983          estimate D2E/DX2                !
 ! D53   D(26,11,12,13)       -179.9939         estimate D2E/DX2                !
 ! D54   D(26,11,12,27)         -0.0104         estimate D2E/DX2                !
 ! D55   D(11,12,13,8)          -0.0072         estimate D2E/DX2                !
 ! D56   D(11,12,13,14)        179.9365         estimate D2E/DX2                !
 ! D57   D(27,12,13,8)        -179.9912         estimate D2E/DX2                !
 ! D58   D(27,12,13,14)         -0.0475         estimate D2E/DX2                !
 ! D59   D(8,13,14,15)        -179.9401         estimate D2E/DX2                !
 ! D60   D(8,13,14,16)           0.0229         estimate D2E/DX2                !
 ! D61   D(12,13,14,15)          0.1174         estimate D2E/DX2                !
 ! D62   D(12,13,14,16)       -179.9196         estimate D2E/DX2                !
 ! D63   D(13,14,16,5)          -0.2332         estimate D2E/DX2                !
 ! D64   D(13,14,16,17)       -179.9861         estimate D2E/DX2                !
 ! D65   D(15,14,16,5)         179.7283         estimate D2E/DX2                !
 ! D66   D(15,14,16,17)         -0.0247         estimate D2E/DX2                !
 ! D67   D(5,16,17,2)           -0.1705         estimate D2E/DX2                !
 ! D68   D(5,16,17,18)         179.4183         estimate D2E/DX2                !
 ! D69   D(14,16,17,2)         179.5854         estimate D2E/DX2                !
 ! D70   D(14,16,17,18)         -0.8258         estimate D2E/DX2                !
 ! D71   D(2,17,18,28)          -3.6958         estimate D2E/DX2                !
 ! D72   D(2,17,18,29)        -178.228          estimate D2E/DX2                !
 ! D73   D(16,17,18,28)        176.7145         estimate D2E/DX2                !
 ! D74   D(16,17,18,29)          2.1823         estimate D2E/DX2                !
 --------------------------------------------------------------------------------
 Trust Radius=3.00D-01 FncErr=1.00D-07 GrdErr=1.00D-06 EigMax=2.50D+02 EigMin=1.00D-04
 Number of steps in this run=    166 maximum allowed number of steps=    174.
 GradGradGradGradGradGradGradGradGradGradGradGradGradGradGradGradGradGrad

 Leave Link  103 at Sat Feb 10 15:46:30 2024, MaxMem=  4026531840 cpu:               0.2 elap:               0.1
 (Enter /sysapps/ubuntu-applications/gaussian/Gaussian/AVX2/g16/l202.exe)
                          Input orientation:                          
 ---------------------------------------------------------------------
 Center     Atomic      Atomic             Coordinates (Angstroms)
 Number     Number       Type             X           Y           Z
 ---------------------------------------------------------------------
      1          6           0       -4.404184   -0.345988    0.195955
      2          6           0       -2.926729   -0.631920    0.240641
      3          6           0       -2.453814   -1.918766    0.430818
      4          6           0       -1.087550   -2.206981    0.478855
      5          6           0       -0.164537   -1.184597    0.331634
      6          6           0        1.283546   -1.544787    0.389328
      7          8           0        1.646246   -2.698356    0.563485
      8          6           0        2.272393   -0.445279    0.226012
      9          6           0        3.639388   -0.737363    0.273140
     10          6           0        4.574968    0.278194    0.121401
     11          6           0        4.150460    1.595140   -0.079020
     12          6           0        2.793893    1.892609   -0.126932
     13          6           0        1.844561    0.876159    0.025070
     14          6           0        0.394108    1.229319   -0.030011
     15          8           0        0.073892    2.410105   -0.210646
     16          6           0       -0.592674    0.154656    0.132550
     17          6           0       -1.991912    0.435116    0.088276
     18          7           0       -2.452678    1.701249   -0.088132
     19          1           0       -4.704674    0.092563   -0.763422
     20          1           0       -4.705551    0.353717    0.984638
     21          1           0       -4.979852   -1.262139    0.331374
     22          1           0       -3.170510   -2.725505    0.546608
     23          1           0       -0.730077   -3.216942    0.629149
     24          1           0        3.941405   -1.765580    0.429314
     25          1           0        5.634010    0.049171    0.158369
     26          1           0        4.880989    2.387522   -0.197433
     27          1           0        2.444999    2.905778   -0.280891
     28          1           0       -3.436951    1.882054   -0.166943
     29          1           0       -1.773165    2.440850   -0.221758
 ---------------------------------------------------------------------
                    Distance matrix (angstroms):
                    1          2          3          4          5
     1  C    0.000000
     2  C    1.505532   0.000000
     3  C    2.516492   1.384120   0.000000
     4  C    3.813579   2.433134   1.397159   0.000000
     5  C    4.323920   2.818410   2.406165   1.385242   0.000000
     6  C    5.815908   4.310667   3.756254   2.463455   1.493322
     7  O    6.502032   5.028567   4.175626   2.778894   2.371530
     8  C    6.677383   5.202492   4.954810   3.802202   2.548799
     9  C    8.053458   6.567044   6.208678   4.954396   3.830572
    10  C    9.001129   7.557644   7.370627   6.194189   4.964561
    11  C    8.776419   7.426209   7.498260   6.496468   5.149250
    12  C    7.545057   6.263695   6.509692   5.677959   4.293226
    13  C    6.369432   5.008591   5.143177   4.278896   2.894334
    14  C    5.055320   3.816467   4.270066   3.776561   2.503969
    15  O    5.273949   4.296662   5.053701   4.810597   3.643185
    16  C    3.844772   2.465400   2.802121   2.437654   1.420047
    17  C    2.537868   1.426767   2.423107   2.819769   2.453975
    18  N    2.842580   2.403434   3.657023   4.178434   3.706737
    19  H    1.096825   2.166589   3.246232   4.462594   4.841811
    20  H    1.096554   2.165461   3.246724   4.461269   4.838764
    21  H    1.090442   2.149587   2.611880   4.008053   4.815939
    22  H    2.703148   2.129822   1.085306   2.147599   3.384743
    23  H    4.682851   3.414463   2.166995   1.081849   2.130441
    24  H    8.468681   6.963623   6.397054   5.048532   4.147993
    25  H   10.046039   8.588184   8.328259   7.097345   5.930881
    26  H    9.687170   8.382684   8.528666   7.562426   6.204618
    27  H    7.596886   6.453121   6.912389   6.260705   4.890402
    28  H    2.455892   2.597406   3.971160   4.759931   4.512385
    29  H    3.855284   3.314580   4.460425   4.750080   4.004721
                    6          7          8          9         10
     6  C    0.000000
     7  O    1.221721   0.000000
     8  C    1.487753   2.362690   0.000000
     9  C    2.493075   2.811122   1.398646   0.000000
    10  C    3.772069   4.199131   2.415825   1.389133   0.000000
    11  C    4.277580   5.011787   2.789891   2.413666   1.398114
    12  C    3.789903   4.782335   2.421209   2.791357   2.416657
    13  C    2.511653   3.620273   1.403430   2.426190   2.796777
    14  C    2.943231   4.164939   2.529383   3.806781   4.290356
    15  O    4.179043   5.400736   3.630054   4.780519   4.991491
    16  C    2.544453   3.652143   2.928697   4.327333   5.169130
    17  C    3.839176   4.825004   4.356416   5.755034   6.568838
    18  N    4.972332   6.048331   5.199285   6.571957   7.173339
    19  H    6.314153   7.062867   7.067370   8.449060   9.323579
    20  H    6.310942   7.059592   7.064390   8.445987   9.320886
    21  H    6.270040   6.783935   7.298864   8.635397   9.680460
    22  H    4.610580   4.816862   5.909941   7.099451   8.318380
    23  H    2.628363   2.433137   4.106027   5.036594   6.373169
    24  H    2.667314   2.481094   2.137786   1.082975   2.161764
    25  H    4.639028   4.859556   3.398459   2.147167   1.084153
    26  H    5.361804   6.075254   3.874124   3.395279   2.155126
    27  H    4.648193   5.723399   3.393571   3.873757   3.406289
    28  H    5.859673   6.881321   6.177985   7.558412   8.175962
    29  H    5.059863   6.222573   4.989667   6.296165   6.715179
                   11         12         13         14         15
    11  C    0.000000
    12  C    1.389625   0.000000
    13  C    2.417631   1.399109   0.000000
    14  C    3.774441   2.491649   1.493844   0.000000
    15  O    4.159315   2.770057   2.354532   1.236698   0.000000
    16  C    4.961560   3.815317   2.544058   1.468014   2.376793
    17  C    6.253189   5.007447   3.862258   2.517507   2.873583
    18  N    6.603997   5.250203   4.377197   2.886224   2.626984
    19  H    9.007749   7.737816   6.642908   5.275195   5.339593
    20  H    9.005633   7.735983   6.640609   5.272828   5.338587
    21  H    9.575754   8.401999   7.158125   5.934426   6.270526
    22  H    8.523848   7.573291   6.196364   5.355336   6.121607
    23  H    6.890376   6.252802   4.873105   4.633306   5.745892
    24  H    3.405370   3.874086   3.396903   4.665160   5.727438
    25  H    2.155758   3.397930   3.880928   5.374459   6.051867
    26  H    1.084234   2.146131   3.399062   4.636978   4.807168
    27  H    2.160352   1.082563   2.138572   2.660754   2.423381
    28  H    7.593343   6.230981   5.379876   3.888679   3.550601
    29  H    5.985393   4.600824   3.949319   2.490311   1.847346
                   16         17         18         19         20
    16  C    0.000000
    17  C    1.427755   0.000000
    18  N    2.429046   1.358866   0.000000
    19  H    4.208939   2.863880   2.848749   0.000000
    20  H    4.204930   2.859008   2.835862   1.767460   0.000000
    21  H    4.614561   3.444932   3.917175   1.763383   1.764365
    22  H    3.887417   3.404216   4.529275   3.465739   3.468404
    23  H    3.410742   3.901576   5.260271   5.356258   5.355406
    24  H    4.932874   6.337477   7.291841   8.923564   8.920182
    25  H    6.227631   7.636004   8.257400  10.379787  10.376993
    26  H    5.920774   7.150545   7.366518   9.872797   9.870937
    27  H    4.119109   5.091820   5.047305   7.698366   7.697074
    28  H    3.341184   2.060802   1.003840   2.272705   2.295931
    29  H    2.597263   2.041308   1.013214   3.794944   3.796104
                   21         22         23         24         25
    21  H    0.000000
    22  H    2.336982   0.000000
    23  H    4.687271   2.490790   0.000000
    24  H    8.935987   7.177364   4.895828   0.000000
    25  H   10.695959   9.239542   7.168733   2.496326   0.000000
    26  H   10.527861   9.566780   7.973538   4.303938   2.482241
    27  H    8.536675   7.995627   6.956794   4.956330   4.303829
    28  H    3.537628   4.670091   5.827580   8.252327   9.260001
    29  H    4.929597   5.406864   5.815727   7.125606   7.793001
                   26         27         28         29
    26  H    0.000000
    27  H    2.491907   0.000000
    28  H    8.333340   5.971460   0.000000
    29  H    6.654412   4.244121   1.755973   0.000000
 Symmetry turned off by external request.
 Stoichiometry    C15H11NO2
 Framework group  C1[X(C15H11NO2)]
 Deg. of freedom    81
 Full point group                 C1      NOp   1
 Rotational constants (GHZ):           0.8988656           0.3151842           0.2336992
 Leave Link  202 at Sat Feb 10 15:46:30 2024, MaxMem=  4026531840 cpu:               0.4 elap:               0.1
 (Enter /sysapps/ubuntu-applications/gaussian/Gaussian/AVX2/g16/l301.exe)
 Standard basis: 6-311++G(d,p) (5D, 7F)
 Ernie: Thresh=  0.10000D-02 Tol=  0.10000D-05 Strict=F.
   473 basis functions,   747 primitive gaussians,   491 cartesian basis functions
    62 alpha electrons       62 beta electrons
       nuclear repulsion energy      1220.3716766516 Hartrees.
 IExCor=  402 DFT=T Ex+Corr=B3LYP ExCW=0 ScaHFX=  0.200000
 ScaDFX=  0.800000  0.720000  1.000000  0.810000 ScalE2=  1.000000  1.000000
 IRadAn=      5 IRanWt=     -1 IRanGd=            0 ICorTp=0 IEmpDi=  4
 NAtoms=   29 NActive=   29 NUniq=   29 SFac= 1.00D+00 NAtFMM=   60 NAOKFM=F Big=F
 Integral buffers will be    131072 words long.
 Raffenetti 2 integral format.
 Two-electron integral symmetry is turned off.
 ------------------------------------------------------------------------------
 Polarizable Continuum Model (PCM)
 =================================
 Model                : PCM.
 Atomic radii         : UFF (Universal Force Field).
 Polarization charges : Total charges.
 Charge compensation  : None.
 Solution method      : On-the-fly selection.
 Cavity type          : Scaled VdW (van der Waals Surface) (Alpha=1.100).
 Cavity algorithm     : GePol (No added spheres)
                        Default sphere list used, NSphG=   29.
                        Lebedev-Laikov grids with approx.  5.0 points / Ang**2.
                        Smoothing algorithm: York/Karplus (Gamma=1.0000).
                        Polarization charges: spherical gaussians, with
                                              point-specific exponents (IZeta= 3).
                        Self-potential: point-specific (ISelfS= 7).
                        Self-field    : sphere-specific E.n sum rule (ISelfD= 2).
 1st derivatives      : Analytical E(r).r(x)/FMM algorithm (CHGder, D1EAlg=3).
                        Cavity 1st derivative terms included.
 Solvent              : n,n-DiMethylFormamide, Eps=  37.219000 Eps(inf)=   2.046330
 ------------------------------------------------------------------------------
 GePol: Number of generator spheres                  =      29
 GePol: Total number of spheres                      =      29
 GePol: Number of exposed spheres                    =      29 (100.00%)
 GePol: Number of points                             =    2238
 GePol: Average weight of points                     =       0.13
 GePol: Minimum weight of points                     =   0.52D-10
 GePol: Maximum weight of points                     =    0.20577
 GePol: Number of points with low weight             =     132
 GePol: Fraction of low-weight points (<1% of avg)   =       5.90%
 GePol: Cavity surface area                          =    286.313 Ang**2
 GePol: Cavity volume                                =    315.701 Ang**3
 Leave Link  301 at Sat Feb 10 15:46:31 2024, MaxMem=  4026531840 cpu:               1.3 elap:               0.2
 (Enter /sysapps/ubuntu-applications/gaussian/Gaussian/AVX2/g16/l302.exe)
 NPDir=0 NMtPBC=     1 NCelOv=     1 NCel=       1 NClECP=     1 NCelD=      1
         NCelK=      1 NCelE2=     1 NClLst=     1 CellRange=     0.0.
 One-electron integrals computed using PRISM.
 NBasis=   473 RedAO= T EigKep=  1.32D-06  NBF=   473
 NBsUse=   465 1.00D-06 EigRej=  7.23D-07 NBFU=   465
 Precomputing XC quadrature grid using
 IXCGrd= 4 IRadAn=           5 IRanWt=          -1 IRanGd=           0 AccXCQ= 0.00D+00.
 Generated NRdTot=       0 NPtTot=           0 NUsed=           0 NTot=          32
 NSgBfM=   490   490   490   490   490 MxSgAt=    29 MxSgA2=    29.
 Leave Link  302 at Sat Feb 10 15:46:31 2024, MaxMem=  4026531840 cpu:               3.7 elap:               0.5
 (Enter /sysapps/ubuntu-applications/gaussian/Gaussian/AVX2/g16/l303.exe)
 DipDrv:  MaxL=1.
 Leave Link  303 at Sat Feb 10 15:46:31 2024, MaxMem=  4026531840 cpu:               0.7 elap:               0.1
 (Enter /sysapps/ubuntu-applications/gaussian/Gaussian/AVX2/g16/l401.exe)
 ExpMin= 3.60D-02 ExpMax= 8.59D+03 ExpMxC= 1.30D+03 IAcc=3 IRadAn=         5 AccDes= 0.00D+00
 Harris functional with IExCor=  402 and IRadAn=       5 diagonalized for initial guess.
 HarFok:  IExCor=  402 AccDes= 0.00D+00 IRadAn=         5 IDoV= 1 UseB2=F ITyADJ=14
 ICtDFT=  3500011 ScaDFX=  1.000000  1.000000  1.000000  1.000000
 FoFCou: FMM=F IPFlag=           0 FMFlag=      100000 FMFlg1=           0
         NFxFlg=           0 DoJE=T BraDBF=F KetDBF=T FulRan=T
         wScrn=  0.000000 ICntrl=       500 IOpCl=  0 I1Cent=   200000004 NGrid=           0
         NMat0=    1 NMatS0=      1 NMatT0=    0 NMatD0=    1 NMtDS0=    0 NMtDT0=    0
 Symmetry not used in FoFCou.
 Harris En= -783.691865250201    
 JPrj=0 DoOrth=F DoCkMO=F.
 Initial guess <Sx>= 0.0000 <Sy>= 0.0000 <Sz>= 0.0000 <S**2>= 0.0000 S= 0.0000
 Leave Link  401 at Sat Feb 10 15:46:34 2024, MaxMem=  4026531840 cpu:              17.5 elap:               2.3
 (Enter /sysapps/ubuntu-applications/gaussian/Gaussian/AVX2/g16/l502.exe)
 Two-electron integral symmetry not used.
 UHF open shell SCF:
 Using DIIS extrapolation, IDIIS=  1040.
 NGot=  4026531840 LenX=  4026042224 LenY=  4025800652
 Requested convergence on RMS density matrix=1.00D-08 within 128 cycles.
 Requested convergence on MAX density matrix=1.00D-06.
 Requested convergence on             energy=1.00D-06.
 No special actions if energy rises.
 Fock matrices will be formed incrementally for  20 cycles.

 Cycle   1  Pass 1  IDiag  1:
 FoFJK:  IHMeth= 1 ICntrl=       0 DoSepK=F KAlg= 0 I1Cent=           0 FoldK=F
 IRaf= 850000000 NMat=       1 IRICut=       1 DoRegI=T DoRafI=F ISym2E= 0 IDoP0=0 IntGTp=1.
 FoFCou: FMM=F IPFlag=           0 FMFlag=      100000 FMFlg1=           0
         NFxFlg=           0 DoJE=F BraDBF=F KetDBF=F FulRan=T
         wScrn=  0.000000 ICntrl=         0 IOpCl=  1 I1Cent=           0 NGrid=           0
         NMat0=    1 NMatS0=      1 NMatT0=    0 NMatD0=    1 NMtDS0=    0 NMtDT0=    0
 Symmetry not used in FoFCou.
 Inv3:  Mode=1 IEnd=    15025932.
 Iteration    1 A*A^-1 deviation from unit magnitude is 3.11D-15 for    623.
 Iteration    1 A*A^-1 deviation from orthogonality  is 2.11D-15 for   2073   1452.
 Iteration    1 A^-1*A deviation from unit magnitude is 3.11D-15 for   1455.
 Iteration    1 A^-1*A deviation from orthogonality  is 5.68D-13 for   1054   1029.
 E= -783.263534928326    
 DIIS: error= 3.37D-02 at cycle   1 NSaved=   1.
 NSaved= 1 IEnMin= 1 EnMin= -783.263534928326     IErMin= 1 ErrMin= 3.37D-02
 ErrMax= 3.37D-02  0.00D+00 EMaxC= 1.00D-01 BMatC= 2.03D+00 BMatP= 2.03D+00
 IDIUse=3 WtCom= 6.63D-01 WtEn= 3.37D-01
 Coeff-Com:  0.100D+01
 Coeff-En:   0.100D+01
 Coeff:      0.100D+01
 Gap=     0.092 Goal=   None    Shift=    0.000
 Gap=     0.092 Goal=   None    Shift=    0.000
 GapD=    0.092 DampG=0.500 DampE=0.500 DampFc=0.2500 IDamp=-1.
 Damping current iteration by 2.50D-01
 RMSDP=1.15D-02 MaxDP=8.16D-01              OVMax= 2.13D-01

 Cycle   2  Pass 1  IDiag  1:
 RMSU=  2.59D-03    CP:  9.77D-01
 E= -783.409780371780     Delta-E=       -0.146245443454 Rises=F Damp=T
 DIIS: error= 1.69D-02 at cycle   2 NSaved=   2.
 NSaved= 2 IEnMin= 2 EnMin= -783.409780371780     IErMin= 2 ErrMin= 1.69D-02
 ErrMax= 1.69D-02  0.00D+00 EMaxC= 1.00D-01 BMatC= 4.97D-01 BMatP= 2.03D+00
 IDIUse=3 WtCom= 8.31D-01 WtEn= 1.69D-01
 Coeff-Com: -0.702D+00 0.170D+01
 Coeff-En:   0.000D+00 0.100D+01
 Coeff:     -0.583D+00 0.158D+01
 Gap=     0.107 Goal=   None    Shift=    0.000
 Gap=     0.107 Goal=   None    Shift=    0.000
 RMSDP=6.56D-03 MaxDP=4.07D-01 DE=-1.46D-01 OVMax= 2.26D-01

 Cycle   3  Pass 1  IDiag  1:
 RMSU=  6.01D-03    CP:  9.36D-01  1.57D+00
 E= -783.630296983493     Delta-E=       -0.220516611713 Rises=F Damp=F
 DIIS: error= 1.60D-02 at cycle   3 NSaved=   3.
 NSaved= 3 IEnMin= 3 EnMin= -783.630296983493     IErMin= 3 ErrMin= 1.60D-02
 ErrMax= 1.60D-02  0.00D+00 EMaxC= 1.00D-01 BMatC= 2.04D-01 BMatP= 4.97D-01
 IDIUse=3 WtCom= 8.40D-01 WtEn= 1.60D-01
 Coeff-Com: -0.443D+00 0.941D+00 0.501D+00
 Coeff-En:   0.000D+00 0.000D+00 0.100D+01
 Coeff:     -0.372D+00 0.790D+00 0.581D+00
 Gap=     0.113 Goal=   None    Shift=    0.000
 Gap=     0.113 Goal=   None    Shift=    0.000
 RMSDP=3.15D-03 MaxDP=1.57D-01 DE=-2.21D-01 OVMax= 8.55D-02

 Cycle   4  Pass 1  IDiag  1:
 RMSU=  1.84D-03    CP:  9.54D-01  1.98D+00  6.51D-01
 E= -783.661880720874     Delta-E=       -0.031583737381 Rises=F Damp=F
 DIIS: error= 1.13D-02 at cycle   4 NSaved=   4.
 NSaved= 4 IEnMin= 4 EnMin= -783.661880720874     IErMin= 4 ErrMin= 1.13D-02
 ErrMax= 1.13D-02  0.00D+00 EMaxC= 1.00D-01 BMatC= 6.95D-02 BMatP= 2.04D-01
 IDIUse=3 WtCom= 8.87D-01 WtEn= 1.13D-01
 Coeff-Com: -0.777D-01 0.178D+00 0.372D+00 0.528D+00
 Coeff-En:   0.000D+00 0.000D+00 0.284D+00 0.716D+00
 Coeff:     -0.689D-01 0.158D+00 0.362D+00 0.549D+00
 Gap=     0.109 Goal=   None    Shift=    0.000
 Gap=     0.109 Goal=   None    Shift=    0.000
 RMSDP=1.92D-03 MaxDP=1.72D-01 DE=-3.16D-02 OVMax= 3.12D-02

 Cycle   5  Pass 1  IDiag  1:
 RMSU=  6.08D-04    CP:  9.27D-01  1.77D+00  7.15D-01  5.35D-01
 E= -783.676300218306     Delta-E=       -0.014419497432 Rises=F Damp=F
 DIIS: error= 1.49D-03 at cycle   5 NSaved=   5.
 NSaved= 5 IEnMin= 5 EnMin= -783.676300218306     IErMin= 5 ErrMin= 1.49D-03
 ErrMax= 1.49D-03  0.00D+00 EMaxC= 1.00D-01 BMatC= 2.34D-03 BMatP= 6.95D-02
 IDIUse=3 WtCom= 9.85D-01 WtEn= 1.49D-02
 Coeff-Com: -0.733D-02 0.198D-01 0.155D+00 0.298D+00 0.535D+00
 Coeff-En:   0.000D+00 0.000D+00 0.000D+00 0.000D+00 0.100D+01
 Coeff:     -0.722D-02 0.195D-01 0.153D+00 0.293D+00 0.542D+00
 Gap=     0.112 Goal=   None    Shift=    0.000
 Gap=     0.112 Goal=   None    Shift=    0.000
 RMSDP=4.89D-04 MaxDP=4.21D-02 DE=-1.44D-02 OVMax= 1.06D-02

 Cycle   6  Pass 1  IDiag  1:
 RMSU=  2.58D-04    CP:  9.20D-01  1.76D+00  7.24D-01  5.57D-01  8.18D-01
 E= -783.676774368350     Delta-E=       -0.000474150044 Rises=F Damp=F
 DIIS: error= 4.12D-04 at cycle   6 NSaved=   6.
 NSaved= 6 IEnMin= 6 EnMin= -783.676774368350     IErMin= 6 ErrMin= 4.12D-04
 ErrMax= 4.12D-04  0.00D+00 EMaxC= 1.00D-01 BMatC= 2.16D-04 BMatP= 2.34D-03
 IDIUse=3 WtCom= 9.96D-01 WtEn= 4.12D-03
 Coeff-Com:  0.984D-03-0.103D-02 0.537D-01 0.116D+00 0.307D+00 0.523D+00
 Coeff-En:   0.000D+00 0.000D+00 0.000D+00 0.000D+00 0.317D-01 0.968D+00
 Coeff:      0.980D-03-0.103D-02 0.535D-01 0.116D+00 0.306D+00 0.524D+00
 Gap=     0.112 Goal=   None    Shift=    0.000
 Gap=     0.112 Goal=   None    Shift=    0.000
 RMSDP=1.29D-04 MaxDP=1.02D-02 DE=-4.74D-04 OVMax= 4.10D-03

 Cycle   7  Pass 1  IDiag  1:
 RMSU=  6.06D-05    CP:  9.22D-01  1.76D+00  7.31D-01  5.71D-01  8.34D-01
                    CP:  7.54D-01
 E= -783.676824408019     Delta-E=       -0.000050039669 Rises=F Damp=F
 DIIS: error= 1.30D-04 at cycle   7 NSaved=   7.
 NSaved= 7 IEnMin= 7 EnMin= -783.676824408019     IErMin= 7 ErrMin= 1.30D-04
 ErrMax= 1.30D-04  0.00D+00 EMaxC= 1.00D-01 BMatC= 2.50D-05 BMatP= 2.16D-04
 IDIUse=3 WtCom= 9.99D-01 WtEn= 1.30D-03
 Coeff-Com:  0.138D-02-0.271D-02 0.148D-01 0.365D-01 0.127D+00 0.312D+00
 Coeff-Com:  0.510D+00
 Coeff-En:   0.000D+00 0.000D+00 0.000D+00 0.000D+00 0.000D+00 0.511D-01
 Coeff-En:   0.949D+00
 Coeff:      0.137D-02-0.271D-02 0.148D-01 0.364D-01 0.127D+00 0.312D+00
 Coeff:      0.511D+00
 Gap=     0.112 Goal=   None    Shift=    0.000
 Gap=     0.112 Goal=   None    Shift=    0.000
 RMSDP=2.62D-05 MaxDP=1.58D-03 DE=-5.00D-05 OVMax= 1.09D-03

 Cycle   8  Pass 1  IDiag  1:
 RMSU=  1.80D-05    CP:  9.22D-01  1.76D+00  7.29D-01  5.71D-01  8.24D-01
                    CP:  7.77D-01  8.60D-01
 E= -783.676830286404     Delta-E=       -0.000005878385 Rises=F Damp=F
 DIIS: error= 2.52D-05 at cycle   8 NSaved=   8.
 NSaved= 8 IEnMin= 8 EnMin= -783.676830286404     IErMin= 8 ErrMin= 2.52D-05
 ErrMax= 2.52D-05  0.00D+00 EMaxC= 1.00D-01 BMatC= 8.37D-07 BMatP= 2.50D-05
 IDIUse=1 WtCom= 1.00D+00 WtEn= 0.00D+00
 Coeff-Com:  0.542D-03-0.107D-02 0.292D-02 0.816D-02 0.363D-01 0.100D+00
 Coeff-Com:  0.219D+00 0.634D+00
 Coeff:      0.542D-03-0.107D-02 0.292D-02 0.816D-02 0.363D-01 0.100D+00
 Coeff:      0.219D+00 0.634D+00
 Gap=     0.112 Goal=   None    Shift=    0.000
 Gap=     0.112 Goal=   None    Shift=    0.000
 RMSDP=1.26D-05 MaxDP=8.46D-04 DE=-5.88D-06 OVMax= 3.32D-04

 Cycle   9  Pass 1  IDiag  1:
 RMSU=  5.46D-06    CP:  9.22D-01  1.76D+00  7.29D-01  5.71D-01  8.28D-01
                    CP:  7.59D-01  8.30D-01  6.95D-01
 E= -783.676830412158     Delta-E=       -0.000000125754 Rises=F Damp=F
 DIIS: error= 1.56D-05 at cycle   9 NSaved=   9.
 NSaved= 9 IEnMin= 9 EnMin= -783.676830412158     IErMin= 9 ErrMin= 1.56D-05
 ErrMax= 1.56D-05  0.00D+00 EMaxC= 1.00D-01 BMatC= 3.50D-07 BMatP= 8.37D-07
 IDIUse=1 WtCom= 1.00D+00 WtEn= 0.00D+00
 Coeff-Com:  0.171D-03-0.329D-03-0.129D-03 0.233D-03 0.609D-02 0.212D-01
 Coeff-Com:  0.660D-01 0.417D+00 0.490D+00
 Coeff:      0.171D-03-0.329D-03-0.129D-03 0.233D-03 0.609D-02 0.212D-01
 Coeff:      0.660D-01 0.417D+00 0.490D+00
 Gap=     0.112 Goal=   None    Shift=    0.000
 Gap=     0.112 Goal=   None    Shift=    0.000
 RMSDP=3.93D-06 MaxDP=3.01D-04 DE=-1.26D-07 OVMax= 1.29D-04

 Cycle  10  Pass 1  IDiag  1:
 RMSU=  1.83D-06    CP:  9.22D-01  1.76D+00  7.29D-01  5.71D-01  8.30D-01
                    CP:  7.62D-01  8.47D-01  6.99D-01  7.01D-01
 E= -783.676830507201     Delta-E=       -0.000000095042 Rises=F Damp=F
 DIIS: error= 1.89D-06 at cycle  10 NSaved=  10.
 NSaved=10 IEnMin=10 EnMin= -783.676830507201     IErMin=10 ErrMin= 1.89D-06
 ErrMax= 1.89D-06  0.00D+00 EMaxC= 1.00D-01 BMatC= 7.11D-09 BMatP= 3.50D-07
 IDIUse=1 WtCom= 1.00D+00 WtEn= 0.00D+00
 Coeff-Com:  0.471D-04-0.907D-04-0.184D-03-0.307D-03 0.882D-03 0.410D-02
 Coeff-Com:  0.162D-01 0.147D+00 0.212D+00 0.620D+00
 Coeff:      0.471D-04-0.907D-04-0.184D-03-0.307D-03 0.882D-03 0.410D-02
 Coeff:      0.162D-01 0.147D+00 0.212D+00 0.620D+00
 Gap=     0.112 Goal=   None    Shift=    0.000
 Gap=     0.112 Goal=   None    Shift=    0.000
 RMSDP=5.87D-07 MaxDP=6.54D-05 DE=-9.50D-08 OVMax= 1.44D-05

 Cycle  11  Pass 1  IDiag  1:
 RMSU=  2.77D-07    CP:  9.22D-01  1.76D+00  7.29D-01  5.71D-01  8.30D-01
                    CP:  7.62D-01  8.47D-01  7.09D-01  7.33D-01  8.93D-01
 E= -783.676830508639     Delta-E=       -0.000000001438 Rises=F Damp=F
 DIIS: error= 9.18D-07 at cycle  11 NSaved=  11.
 NSaved=11 IEnMin=11 EnMin= -783.676830508639     IErMin=11 ErrMin= 9.18D-07
 ErrMax= 9.18D-07  0.00D+00 EMaxC= 1.00D-01 BMatC= 1.22D-09 BMatP= 7.11D-09
 IDIUse=1 WtCom= 1.00D+00 WtEn= 0.00D+00
 Coeff-Com:  0.184D-05-0.494D-05-0.876D-04-0.204D-03-0.202D-03-0.877D-04
 Coeff-Com:  0.124D-02 0.329D-01 0.598D-01 0.333D+00 0.573D+00
 Coeff:      0.184D-05-0.494D-05-0.876D-04-0.204D-03-0.202D-03-0.877D-04
 Coeff:      0.124D-02 0.329D-01 0.598D-01 0.333D+00 0.573D+00
 Gap=     0.112 Goal=   None    Shift=    0.000
 Gap=     0.112 Goal=   None    Shift=    0.000
 RMSDP=1.68D-07 MaxDP=8.30D-06 DE=-1.44D-09 OVMax= 6.81D-06

 Cycle  12  Pass 1  IDiag  1:
 RMSU=  1.05D-07    CP:  9.22D-01  1.76D+00  7.29D-01  5.71D-01  8.30D-01
                    CP:  7.62D-01  8.49D-01  7.13D-01  7.34D-01  9.04D-01
                    CP:  9.12D-01
 E= -783.676830508885     Delta-E=       -0.000000000246 Rises=F Damp=F
 DIIS: error= 2.96D-07 at cycle  12 NSaved=  12.
 NSaved=12 IEnMin=12 EnMin= -783.676830508885     IErMin=12 ErrMin= 2.96D-07
 ErrMax= 2.96D-07  0.00D+00 EMaxC= 1.00D-01 BMatC= 8.99D-11 BMatP= 1.22D-09
 IDIUse=1 WtCom= 1.00D+00 WtEn= 0.00D+00
 Coeff-Com: -0.328D-05 0.462D-05-0.360D-04-0.920D-04-0.169D-03-0.303D-03
 Coeff-Com: -0.427D-03 0.831D-02 0.183D-01 0.134D+00 0.302D+00 0.538D+00
 Coeff:     -0.328D-05 0.462D-05-0.360D-04-0.920D-04-0.169D-03-0.303D-03
 Coeff:     -0.427D-03 0.831D-02 0.183D-01 0.134D+00 0.302D+00 0.538D+00
 Gap=     0.112 Goal=   None    Shift=    0.000
 Gap=     0.112 Goal=   None    Shift=    0.000
 RMSDP=5.76D-08 MaxDP=3.59D-06 DE=-2.46D-10 OVMax= 1.90D-06

 Cycle  13  Pass 1  IDiag  1:
 RMSU=  2.99D-08    CP:  9.22D-01  1.76D+00  7.29D-01  5.71D-01  8.30D-01
                    CP:  7.62D-01  8.49D-01  7.12D-01  7.36D-01  9.18D-01
                    CP:  9.25D-01  9.01D-01
 E= -783.676830508935     Delta-E=       -0.000000000050 Rises=F Damp=F
 DIIS: error= 9.36D-08 at cycle  13 NSaved=  13.
 NSaved=13 IEnMin=13 EnMin= -783.676830508935     IErMin=13 ErrMin= 9.36D-08
 ErrMax= 9.36D-08  0.00D+00 EMaxC= 1.00D-01 BMatC= 1.14D-11 BMatP= 8.99D-11
 IDIUse=1 WtCom= 1.00D+00 WtEn= 0.00D+00
 Coeff-Com: -0.240D-05 0.359D-05-0.375D-05-0.124D-04-0.515D-04-0.136D-03
 Coeff-Com: -0.487D-03-0.160D-02-0.126D-02 0.110D-01 0.616D-01 0.288D+00
 Coeff-Com:  0.643D+00
 Coeff:     -0.240D-05 0.359D-05-0.375D-05-0.124D-04-0.515D-04-0.136D-03
 Coeff:     -0.487D-03-0.160D-02-0.126D-02 0.110D-01 0.616D-01 0.288D+00
 Coeff:      0.643D+00
 Gap=     0.112 Goal=   None    Shift=    0.000
 Gap=     0.112 Goal=   None    Shift=    0.000
 RMSDP=3.31D-08 MaxDP=3.27D-06 DE=-4.98D-11 OVMax= 5.88D-07

 Cycle  14  Pass 1  IDiag  1:
 RMSU=  1.21D-08    CP:  9.22D-01  1.76D+00  7.29D-01  5.71D-01  8.30D-01
                    CP:  7.62D-01  8.49D-01  7.12D-01  7.37D-01  9.24D-01
                    CP:  9.39D-01  9.23D-01  7.71D-01
 E= -783.676830508924     Delta-E=        0.000000000011 Rises=F Damp=F
 DIIS: error= 4.03D-08 at cycle  14 NSaved=  14.
 NSaved=14 IEnMin=13 EnMin= -783.676830508935     IErMin=14 ErrMin= 4.03D-08
 ErrMax= 4.03D-08  0.00D+00 EMaxC= 1.00D-01 BMatC= 1.19D-12 BMatP= 1.14D-11
 IDIUse=1 WtCom= 1.00D+00 WtEn= 0.00D+00
 Coeff-Com: -0.112D-05 0.168D-05-0.157D-06-0.170D-05-0.190D-04-0.598D-04
 Coeff-Com: -0.250D-03-0.137D-02-0.177D-02-0.209D-02 0.153D-01 0.119D+00
 Coeff-Com:  0.347D+00 0.525D+00
 Coeff:     -0.112D-05 0.168D-05-0.157D-06-0.170D-05-0.190D-04-0.598D-04
 Coeff:     -0.250D-03-0.137D-02-0.177D-02-0.209D-02 0.153D-01 0.119D+00
 Coeff:      0.347D+00 0.525D+00
 Gap=     0.112 Goal=   None    Shift=    0.000
 Gap=     0.112 Goal=   None    Shift=    0.000
 RMSDP=6.81D-09 MaxDP=5.90D-07 DE= 1.14D-11 OVMax= 1.60D-07

 Error on total polarization charges =  0.01743
 SCF Done:  E(UB3LYP) =  -783.676830509     A.U. after   14 cycles
            NFock= 14  Conv=0.68D-08     -V/T= 2.0042
 <Sx>= 0.0000 <Sy>= 0.0000 <Sz>= 0.0000 <S**2>=-0.0000 S=-0.0000
 <L.S>=  0.00000000000    
 KE= 7.804084965453D+02 PE=-4.266592121434D+03 EE= 1.482135117729D+03
 Annihilation of the first spin contaminant:
 S**2 before annihilation    -0.0000,   after     0.0000
 Leave Link  502 at Sat Feb 10 15:50:08 2024, MaxMem=  4026531840 cpu:            1684.1 elap:             213.9
 (Enter /sysapps/ubuntu-applications/gaussian/Gaussian/AVX2/g16/l601.exe)
 Copying SCF densities to generalized density rwf, IOpCl= 1 IROHF=0.

 **********************************************************************

            Population analysis using the SCF density.

 **********************************************************************

 Alpha  occ. eigenvalues --  -19.12535 -19.12487 -14.33506 -10.27793 -10.27771
 Alpha  occ. eigenvalues --  -10.24628 -10.20599 -10.20430 -10.20245 -10.20198
 Alpha  occ. eigenvalues --  -10.20007 -10.19695 -10.19624 -10.19555 -10.19460
 Alpha  occ. eigenvalues --  -10.19273 -10.18514 -10.17839  -1.06096  -1.05805
 Alpha  occ. eigenvalues --   -0.94645  -0.88832  -0.86688  -0.81586  -0.78154
 Alpha  occ. eigenvalues --   -0.77628  -0.75785  -0.71718  -0.68065  -0.65826
 Alpha  occ. eigenvalues --   -0.63803  -0.61057  -0.58831  -0.57516  -0.54820
 Alpha  occ. eigenvalues --   -0.52816  -0.50858  -0.50083  -0.47596  -0.47141
 Alpha  occ. eigenvalues --   -0.46835  -0.45630  -0.45287  -0.44957  -0.44071
 Alpha  occ. eigenvalues --   -0.43587  -0.42926  -0.41604  -0.40192  -0.39023
 Alpha  occ. eigenvalues --   -0.38955  -0.37881  -0.37099  -0.36783  -0.36492
 Alpha  occ. eigenvalues --   -0.33446  -0.28610  -0.28458  -0.27682  -0.27176
 Alpha  occ. eigenvalues --   -0.26989  -0.22551
 Alpha virt. eigenvalues --   -0.11385  -0.06568  -0.03290  -0.01455  -0.00857
 Alpha virt. eigenvalues --   -0.00111   0.00677   0.01597   0.01853   0.03078
 Alpha virt. eigenvalues --    0.03445   0.03709   0.03738   0.03885   0.04519
 Alpha virt. eigenvalues --    0.05095   0.05438   0.05960   0.06159   0.06404
 Alpha virt. eigenvalues --    0.07266   0.08311   0.08560   0.08594   0.08858
 Alpha virt. eigenvalues --    0.09867   0.10634   0.11034   0.11130   0.11176
 Alpha virt. eigenvalues --    0.11189   0.11859   0.12310   0.12378   0.12771
 Alpha virt. eigenvalues --    0.12895   0.13263   0.13457   0.14305   0.14814
 Alpha virt. eigenvalues --    0.15036   0.15537   0.15621   0.15862   0.16292
 Alpha virt. eigenvalues --    0.16445   0.16906   0.17032   0.17209   0.18088
 Alpha virt. eigenvalues --    0.18546   0.18817   0.18899   0.19009   0.19157
 Alpha virt. eigenvalues --    0.20369   0.20440   0.20518   0.21463   0.21666
 Alpha virt. eigenvalues --    0.22054   0.22206   0.22369   0.23097   0.23127
 Alpha virt. eigenvalues --    0.23617   0.23729   0.24575   0.24800   0.25233
 Alpha virt. eigenvalues --    0.25764   0.25877   0.26158   0.26566   0.26742
 Alpha virt. eigenvalues --    0.27309   0.27808   0.27975   0.28661   0.29100
 Alpha virt. eigenvalues --    0.29476   0.29843   0.30810   0.31062   0.31134
 Alpha virt. eigenvalues --    0.31446   0.31725   0.31942   0.32423   0.33444
 Alpha virt. eigenvalues --    0.34175   0.34686   0.34738   0.34956   0.36046
 Alpha virt. eigenvalues --    0.36821   0.37073   0.38542   0.38812   0.39913
 Alpha virt. eigenvalues --    0.40072   0.41071   0.42043   0.42597   0.43869
 Alpha virt. eigenvalues --    0.45467   0.46085   0.47096   0.47770   0.48764
 Alpha virt. eigenvalues --    0.49981   0.52737   0.53308   0.53382   0.53928
 Alpha virt. eigenvalues --    0.54204   0.54808   0.55085   0.55402   0.57062
 Alpha virt. eigenvalues --    0.57741   0.58337   0.58784   0.59398   0.59697
 Alpha virt. eigenvalues --    0.60037   0.60315   0.60762   0.62915   0.63574
 Alpha virt. eigenvalues --    0.64030   0.64595   0.64831   0.65306   0.65759
 Alpha virt. eigenvalues --    0.66283   0.66382   0.66589   0.66615   0.68247
 Alpha virt. eigenvalues --    0.69014   0.70292   0.71094   0.72585   0.72984
 Alpha virt. eigenvalues --    0.73730   0.74300   0.74526   0.76049   0.77113
 Alpha virt. eigenvalues --    0.77533   0.78121   0.79296   0.81414   0.82014
 Alpha virt. eigenvalues --    0.82188   0.84830   0.85811   0.86630   0.86791
 Alpha virt. eigenvalues --    0.87236   0.89011   0.89537   0.91252   0.91352
 Alpha virt. eigenvalues --    0.91813   0.91973   0.92272   0.92693   0.93840
 Alpha virt. eigenvalues --    0.95156   0.96356   0.97008   0.97538   0.98060
 Alpha virt. eigenvalues --    0.98515   0.99320   0.99569   1.00226   1.01271
 Alpha virt. eigenvalues --    1.02179   1.03896   1.05251   1.06691   1.06953
 Alpha virt. eigenvalues --    1.08419   1.10137   1.10583   1.11674   1.12360
 Alpha virt. eigenvalues --    1.12894   1.15003   1.15628   1.17301   1.18932
 Alpha virt. eigenvalues --    1.20365   1.21175   1.22678   1.23010   1.24632
 Alpha virt. eigenvalues --    1.25943   1.28495   1.30861   1.31888   1.33045
 Alpha virt. eigenvalues --    1.33963   1.35029   1.35879   1.38973   1.43652
 Alpha virt. eigenvalues --    1.45154   1.46401   1.46616   1.47279   1.48821
 Alpha virt. eigenvalues --    1.49341   1.49731   1.50824   1.50945   1.52104
 Alpha virt. eigenvalues --    1.54482   1.55701   1.55710   1.56269   1.56429
 Alpha virt. eigenvalues --    1.58899   1.59380   1.59737   1.62718   1.64202
 Alpha virt. eigenvalues --    1.66032   1.66187   1.67160   1.69927   1.70017
 Alpha virt. eigenvalues --    1.71122   1.72257   1.73187   1.74155   1.75167
 Alpha virt. eigenvalues --    1.75678   1.76359   1.78632   1.79203   1.81709
 Alpha virt. eigenvalues --    1.82129   1.83711   1.86207   1.87167   1.87761
 Alpha virt. eigenvalues --    1.89025   1.89267   1.89486   1.91625   1.91943
 Alpha virt. eigenvalues --    1.93027   1.94016   1.95012   1.96263   1.96332
 Alpha virt. eigenvalues --    1.96783   1.98017   1.98901   2.00919   2.03596
 Alpha virt. eigenvalues --    2.05813   2.06574   2.07413   2.08405   2.12048
 Alpha virt. eigenvalues --    2.13437   2.15910   2.16317   2.17994   2.22897
 Alpha virt. eigenvalues --    2.24092   2.26576   2.27848   2.29373   2.30363
 Alpha virt. eigenvalues --    2.31828   2.33491   2.35323   2.35553   2.39085
 Alpha virt. eigenvalues --    2.43180   2.44899   2.45392   2.47652   2.47832
 Alpha virt. eigenvalues --    2.48869   2.52340   2.53030   2.53621   2.56693
 Alpha virt. eigenvalues --    2.59736   2.60445   2.61121   2.62269   2.63421
 Alpha virt. eigenvalues --    2.64865   2.66887   2.68822   2.70647   2.72074
 Alpha virt. eigenvalues --    2.72713   2.73946   2.74534   2.74751   2.75366
 Alpha virt. eigenvalues --    2.76415   2.77125   2.77858   2.78315   2.79445
 Alpha virt. eigenvalues --    2.79706   2.83234   2.83446   2.85276   2.85771
 Alpha virt. eigenvalues --    2.86603   2.87521   2.89073   2.89849   2.91448
 Alpha virt. eigenvalues --    2.92335   2.94653   2.95445   2.96675   3.00960
 Alpha virt. eigenvalues --    3.01356   3.05243   3.08180   3.09148   3.09791
 Alpha virt. eigenvalues --    3.12829   3.14893   3.18244   3.19502   3.22186
 Alpha virt. eigenvalues --    3.24233   3.27216   3.27429   3.31951   3.33877
 Alpha virt. eigenvalues --    3.34983   3.36598   3.40107   3.41243   3.46174
 Alpha virt. eigenvalues --    3.49349   3.52683   3.53203   3.54869   3.56628
 Alpha virt. eigenvalues --    3.57866   3.59543   3.64411   3.70592   3.77952
 Alpha virt. eigenvalues --    3.79157   3.81653   3.82705   3.85900   3.88695
 Alpha virt. eigenvalues --    4.01553   4.03009   4.06742   4.12195   4.18734
 Alpha virt. eigenvalues --    4.23434   4.26286   4.30328   4.47895   4.74939
 Alpha virt. eigenvalues --    4.82304   4.83236   4.85682   5.04399   5.05890
 Alpha virt. eigenvalues --    5.06661   5.25462   5.33006   5.74333   5.82722
 Alpha virt. eigenvalues --   23.52089  23.65473  23.86757  23.89421  23.91432
 Alpha virt. eigenvalues --   23.93293  23.94576  23.95212  23.97008  23.99283
 Alpha virt. eigenvalues --   24.05186  24.07865  24.08480  24.16737  24.17329
 Alpha virt. eigenvalues --   35.69397  50.03684  50.08504
  Beta  occ. eigenvalues --  -19.12535 -19.12487 -14.33506 -10.27793 -10.27771
  Beta  occ. eigenvalues --  -10.24628 -10.20599 -10.20430 -10.20245 -10.20198
  Beta  occ. eigenvalues --  -10.20007 -10.19695 -10.19624 -10.19555 -10.19460
  Beta  occ. eigenvalues --  -10.19273 -10.18514 -10.17839  -1.06096  -1.05805
  Beta  occ. eigenvalues --   -0.94645  -0.88832  -0.86688  -0.81586  -0.78154
  Beta  occ. eigenvalues --   -0.77628  -0.75785  -0.71718  -0.68065  -0.65826
  Beta  occ. eigenvalues --   -0.63803  -0.61057  -0.58831  -0.57516  -0.54820
  Beta  occ. eigenvalues --   -0.52816  -0.50858  -0.50083  -0.47596  -0.47141
  Beta  occ. eigenvalues --   -0.46835  -0.45630  -0.45287  -0.44957  -0.44071
  Beta  occ. eigenvalues --   -0.43587  -0.42926  -0.41604  -0.40192  -0.39023
  Beta  occ. eigenvalues --   -0.38955  -0.37881  -0.37099  -0.36783  -0.36492
  Beta  occ. eigenvalues --   -0.33446  -0.28610  -0.28458  -0.27682  -0.27176
  Beta  occ. eigenvalues --   -0.26989  -0.22551
  Beta virt. eigenvalues --   -0.11385  -0.06568  -0.03290  -0.01455  -0.00857
  Beta virt. eigenvalues --   -0.00111   0.00677   0.01597   0.01853   0.03078
  Beta virt. eigenvalues --    0.03445   0.03709   0.03738   0.03885   0.04519
  Beta virt. eigenvalues --    0.05095   0.05438   0.05960   0.06159   0.06404
  Beta virt. eigenvalues --    0.07266   0.08311   0.08560   0.08594   0.08858
  Beta virt. eigenvalues --    0.09867   0.10634   0.11034   0.11130   0.11176
  Beta virt. eigenvalues --    0.11189   0.11859   0.12310   0.12378   0.12771
  Beta virt. eigenvalues --    0.12895   0.13263   0.13457   0.14305   0.14814
  Beta virt. eigenvalues --    0.15036   0.15537   0.15621   0.15862   0.16292
  Beta virt. eigenvalues --    0.16445   0.16906   0.17032   0.17209   0.18088
  Beta virt. eigenvalues --    0.18546   0.18817   0.18899   0.19009   0.19157
  Beta virt. eigenvalues --    0.20369   0.20440   0.20518   0.21463   0.21666
  Beta virt. eigenvalues --    0.22054   0.22206   0.22369   0.23097   0.23127
  Beta virt. eigenvalues --    0.23617   0.23729   0.24575   0.24800   0.25233
  Beta virt. eigenvalues --    0.25764   0.25877   0.26158   0.26566   0.26742
  Beta virt. eigenvalues --    0.27309   0.27808   0.27975   0.28661   0.29100
  Beta virt. eigenvalues --    0.29476   0.29843   0.30810   0.31062   0.31134
  Beta virt. eigenvalues --    0.31446   0.31725   0.31942   0.32423   0.33444
  Beta virt. eigenvalues --    0.34175   0.34686   0.34738   0.34956   0.36046
  Beta virt. eigenvalues --    0.36821   0.37073   0.38542   0.38812   0.39913
  Beta virt. eigenvalues --    0.40072   0.41071   0.42043   0.42597   0.43869
  Beta virt. eigenvalues --    0.45467   0.46085   0.47096   0.47770   0.48764
  Beta virt. eigenvalues --    0.49981   0.52737   0.53308   0.53382   0.53928
  Beta virt. eigenvalues --    0.54204   0.54808   0.55085   0.55402   0.57062
  Beta virt. eigenvalues --    0.57741   0.58337   0.58784   0.59398   0.59697
  Beta virt. eigenvalues --    0.60037   0.60315   0.60762   0.62915   0.63574
  Beta virt. eigenvalues --    0.64030   0.64595   0.64831   0.65306   0.65759
  Beta virt. eigenvalues --    0.66283   0.66382   0.66589   0.66615   0.68247
  Beta virt. eigenvalues --    0.69014   0.70292   0.71094   0.72585   0.72984
  Beta virt. eigenvalues --    0.73730   0.74300   0.74526   0.76049   0.77113
  Beta virt. eigenvalues --    0.77533   0.78121   0.79296   0.81414   0.82014
  Beta virt. eigenvalues --    0.82188   0.84830   0.85811   0.86630   0.86791
  Beta virt. eigenvalues --    0.87236   0.89011   0.89537   0.91252   0.91352
  Beta virt. eigenvalues --    0.91813   0.91973   0.92272   0.92693   0.93840
  Beta virt. eigenvalues --    0.95156   0.96356   0.97008   0.97538   0.98060
  Beta virt. eigenvalues --    0.98515   0.99320   0.99569   1.00226   1.01271
  Beta virt. eigenvalues --    1.02179   1.03896   1.05251   1.06691   1.06953
  Beta virt. eigenvalues --    1.08419   1.10137   1.10583   1.11674   1.12360
  Beta virt. eigenvalues --    1.12894   1.15003   1.15628   1.17301   1.18932
  Beta virt. eigenvalues --    1.20365   1.21175   1.22678   1.23010   1.24632
  Beta virt. eigenvalues --    1.25943   1.28495   1.30861   1.31888   1.33045
  Beta virt. eigenvalues --    1.33963   1.35029   1.35879   1.38973   1.43652
  Beta virt. eigenvalues --    1.45154   1.46401   1.46616   1.47279   1.48821
  Beta virt. eigenvalues --    1.49341   1.49731   1.50824   1.50945   1.52104
  Beta virt. eigenvalues --    1.54482   1.55701   1.55710   1.56269   1.56429
  Beta virt. eigenvalues --    1.58899   1.59380   1.59737   1.62718   1.64202
  Beta virt. eigenvalues --    1.66032   1.66187   1.67160   1.69927   1.70017
  Beta virt. eigenvalues --    1.71122   1.72257   1.73187   1.74155   1.75167
  Beta virt. eigenvalues --    1.75678   1.76359   1.78632   1.79203   1.81709
  Beta virt. eigenvalues --    1.82129   1.83711   1.86207   1.87167   1.87761
  Beta virt. eigenvalues --    1.89025   1.89267   1.89486   1.91625   1.91943
  Beta virt. eigenvalues --    1.93027   1.94016   1.95012   1.96263   1.96332
  Beta virt. eigenvalues --    1.96783   1.98017   1.98901   2.00919   2.03596
  Beta virt. eigenvalues --    2.05813   2.06574   2.07413   2.08405   2.12048
  Beta virt. eigenvalues --    2.13437   2.15910   2.16317   2.17994   2.22897
  Beta virt. eigenvalues --    2.24092   2.26576   2.27848   2.29373   2.30363
  Beta virt. eigenvalues --    2.31828   2.33491   2.35323   2.35553   2.39085
  Beta virt. eigenvalues --    2.43180   2.44899   2.45392   2.47652   2.47832
  Beta virt. eigenvalues --    2.48869   2.52340   2.53030   2.53621   2.56693
  Beta virt. eigenvalues --    2.59736   2.60445   2.61121   2.62269   2.63421
  Beta virt. eigenvalues --    2.64865   2.66887   2.68822   2.70647   2.72074
  Beta virt. eigenvalues --    2.72713   2.73946   2.74534   2.74751   2.75366
  Beta virt. eigenvalues --    2.76415   2.77125   2.77858   2.78315   2.79445
  Beta virt. eigenvalues --    2.79706   2.83234   2.83446   2.85276   2.85771
  Beta virt. eigenvalues --    2.86603   2.87521   2.89073   2.89849   2.91448
  Beta virt. eigenvalues --    2.92335   2.94653   2.95445   2.96675   3.00960
  Beta virt. eigenvalues --    3.01356   3.05243   3.08180   3.09148   3.09791
  Beta virt. eigenvalues --    3.12829   3.14893   3.18244   3.19502   3.22186
  Beta virt. eigenvalues --    3.24233   3.27216   3.27429   3.31951   3.33877
  Beta virt. eigenvalues --    3.34983   3.36598   3.40107   3.41243   3.46174
  Beta virt. eigenvalues --    3.49349   3.52683   3.53203   3.54869   3.56628
  Beta virt. eigenvalues --    3.57866   3.59543   3.64411   3.70592   3.77952
  Beta virt. eigenvalues --    3.79157   3.81653   3.82705   3.85900   3.88695
  Beta virt. eigenvalues --    4.01553   4.03009   4.06742   4.12195   4.18734
  Beta virt. eigenvalues --    4.23434   4.26286   4.30328   4.47895   4.74939
  Beta virt. eigenvalues --    4.82304   4.83236   4.85682   5.04399   5.05890
  Beta virt. eigenvalues --    5.06661   5.25462   5.33006   5.74333   5.82722
  Beta virt. eigenvalues --   23.52089  23.65473  23.86757  23.89421  23.91432
  Beta virt. eigenvalues --   23.93293  23.94576  23.95212  23.97008  23.99283
  Beta virt. eigenvalues --   24.05186  24.07865  24.08480  24.16737  24.17329
  Beta virt. eigenvalues --   35.69397  50.03684  50.08504
          Condensed to atoms (all electrons):
               1          2          3          4          5          6
     1  C    7.103572  -0.051656  -0.879480   0.264008  -0.155970  -0.256251
     2  C   -0.051656  11.204330  -2.486002  -0.449476   1.432357  -1.891754
     3  C   -0.879480  -2.486002   9.802286   0.778586  -1.343307   0.996930
     4  C    0.264008  -0.449476   0.778586   9.497617   2.001595  -2.386869
     5  C   -0.155970   1.432357  -1.343307   2.001595  12.368569  -0.488206
     6  C   -0.256251  -1.891754   0.996930  -2.386869  -0.488206  11.586627
     7  O   -0.001028  -0.022081   0.081794   0.140185  -0.148348   0.716887
     8  C   -0.142870  -0.724882   0.697247  -0.631924  -0.451851   0.712778
     9  C   -0.011524  -0.183308  -0.034128  -0.154111  -0.627810  -1.764468
    10  C   -0.002336  -0.046437   0.000379  -0.137217  -0.316923  -0.326194
    11  C    0.001053   0.010582   0.009878   0.025645   0.135617  -0.018125
    12  C    0.005571  -0.005443  -0.120632  -0.180121  -1.149895  -1.115672
    13  C   -0.116636  -0.858069   0.013984  -2.102808  -5.165354  -0.774710
    14  C   -0.247210  -0.256519   0.153064  -0.603027   0.883599   1.444041
    15  O   -0.005478  -0.073520   0.011922  -0.029764  -0.201893  -0.001007
    16  C   -0.364687  -1.213696   0.154981  -1.194064  -1.302730   1.206507
    17  C    0.219528   1.281749  -1.335912   0.987992  -0.012405  -1.072579
    18  N   -0.036394  -0.189465   0.023538  -0.015258   0.011991   0.036030
    19  H    0.384365   0.025330  -0.051279  -0.010547   0.004403  -0.001418
    20  H    0.400931   0.049570  -0.079790  -0.015085   0.001030  -0.002880
    21  H    0.359853  -0.068972   0.027309   0.025180   0.005136  -0.010784
    22  H   -0.008905  -0.138641   0.494711  -0.052704  -0.038144   0.052573
    23  H    0.000407  -0.008587  -0.118714   0.369462   0.076190   0.022640
    24  H   -0.000402  -0.004150   0.000079  -0.018302  -0.060640  -0.008662
    25  H    0.000000   0.000245  -0.000397   0.000998   0.009963   0.021391
    26  H    0.000006  -0.000344   0.000257   0.000251  -0.004566  -0.008611
    27  H   -0.001020  -0.001033  -0.000384  -0.000276   0.003229  -0.002373
    28  H    0.004238  -0.062217   0.018400   0.002882  -0.012996   0.001850
    29  H   -0.014937   0.018600   0.010124  -0.000295   0.018907   0.008478
               7          8          9         10         11         12
     1  C   -0.001028  -0.142870  -0.011524  -0.002336   0.001053   0.005571
     2  C   -0.022081  -0.724882  -0.183308  -0.046437   0.010582  -0.005443
     3  C    0.081794   0.697247  -0.034128   0.000379   0.009878  -0.120632
     4  C    0.140185  -0.631924  -0.154111  -0.137217   0.025645  -0.180121
     5  C   -0.148348  -0.451851  -0.627810  -0.316923   0.135617  -1.149895
     6  C    0.716887   0.712778  -1.764468  -0.326194  -0.018125  -1.115672
     7  O    8.232834  -0.231988   0.107999   0.040901  -0.003545  -0.020324
     8  C   -0.231988  19.969223  -0.027106  -1.024716   1.267320  -3.522527
     9  C    0.107999  -0.027106   8.649348   0.526068  -0.669696   1.851767
    10  C    0.040901  -1.024716   0.526068   7.079150   0.123506  -0.161146
    11  C   -0.003545   1.267320  -0.669696   0.123506   7.493057  -0.821289
    12  C   -0.020324  -3.522527   1.851767  -0.161146  -0.821289   9.635287
    13  C   -0.358198  -2.822294  -0.047247   0.984654  -2.064640   1.520246
    14  C   -0.018782   0.393955  -1.180639  -0.325513   0.630836  -1.580157
    15  O    0.000093  -0.368142  -0.002006  -0.001096   0.038255   0.158050
    16  C   -0.198936  -5.656258  -0.804782  -0.219108   0.029034   0.799587
    17  C   -0.017964  -1.536461  -0.139407  -0.081529   0.025488   0.145927
    18  N   -0.000096   0.002536   0.000814   0.000654   0.002078   0.007018
    19  H   -0.000008   0.000219  -0.000048  -0.000046   0.000045  -0.000062
    20  H   -0.000004   0.000729   0.000089  -0.000016   0.000025   0.000355
    21  H   -0.000070  -0.003904  -0.000769  -0.000046   0.000054   0.000196
    22  H    0.003883   0.022962   0.003101   0.000092   0.000124   0.000221
    23  H   -0.011627  -0.051186  -0.004451   0.001585  -0.000370  -0.003096
    24  H   -0.008844  -0.004993   0.372094  -0.104056   0.000015   0.034856
    25  H    0.002408   0.019325  -0.077204   0.460012  -0.055031   0.001437
    26  H   -0.000244  -0.000152   0.000624  -0.058592   0.474614  -0.104048
    27  H    0.000448   0.077016   0.036979   0.015998  -0.142722   0.402880
    28  H    0.000019   0.000546   0.001498   0.000338  -0.001193   0.001436
    29  H   -0.000028   0.025145  -0.003257   0.000494   0.001173  -0.019661
              13         14         15         16         17         18
     1  C   -0.116636  -0.247210  -0.005478  -0.364687   0.219528  -0.036394
     2  C   -0.858069  -0.256519  -0.073520  -1.213696   1.281749  -0.189465
     3  C    0.013984   0.153064   0.011922   0.154981  -1.335912   0.023538
     4  C   -2.102808  -0.603027  -0.029764  -1.194064   0.987992  -0.015258
     5  C   -5.165354   0.883599  -0.201893  -1.302730  -0.012405   0.011991
     6  C   -0.774710   1.444041  -0.001007   1.206507  -1.072579   0.036030
     7  O   -0.358198  -0.018782   0.000093  -0.198936  -0.017964  -0.000096
     8  C   -2.822294   0.393955  -0.368142  -5.656258  -1.536461   0.002536
     9  C   -0.047247  -1.180639  -0.002006  -0.804782  -0.139407   0.000814
    10  C    0.984654  -0.325513  -0.001096  -0.219108  -0.081529   0.000654
    11  C   -2.064640   0.630836   0.038255   0.029034   0.025488   0.002078
    12  C    1.520246  -1.580157   0.158050   0.799587   0.145927   0.007018
    13  C   18.544828  -0.308989  -0.337295   1.034896  -1.475536   0.050281
    14  C   -0.308989   8.758195   0.730002  -0.282373  -1.926141   0.084245
    15  O   -0.337295   0.730002   8.238594   0.257176  -0.130697   0.012001
    16  C    1.034896  -0.282373   0.257176  11.866812   1.903080  -0.078654
    17  C   -1.475536  -1.926141  -0.130697   1.903080   9.153197  -0.070884
    18  N    0.050281   0.084245   0.012001  -0.078654  -0.070884   6.880020
    19  H   -0.000603  -0.000706  -0.000414  -0.010451   0.003352   0.000145
    20  H   -0.000100   0.001456  -0.000202  -0.013885  -0.008278   0.014209
    21  H   -0.002370  -0.004163  -0.000116  -0.007761   0.024857   0.002716
    22  H    0.008599  -0.003652   0.000142   0.016539  -0.013440  -0.004522
    23  H   -0.018937   0.007037   0.000215   0.034911   0.027906   0.000396
    24  H    0.127135   0.003045   0.000503   0.013860  -0.003528   0.000091
    25  H   -0.028670  -0.013914  -0.000224  -0.008234   0.000162  -0.000027
    26  H   -0.005727   0.027341   0.002103   0.009079   0.000626   0.000123
    27  H    0.055819  -0.035886  -0.009539  -0.056722  -0.005709  -0.001214
    28  H    0.005971   0.018860   0.010800   0.010006   0.001863   0.336984
    29  H    0.022356   0.084221   0.016122  -0.053658  -0.133395   0.361849
              19         20         21         22         23         24
     1  C    0.384365   0.400931   0.359853  -0.008905   0.000407  -0.000402
     2  C    0.025330   0.049570  -0.068972  -0.138641  -0.008587  -0.004150
     3  C   -0.051279  -0.079790   0.027309   0.494711  -0.118714   0.000079
     4  C   -0.010547  -0.015085   0.025180  -0.052704   0.369462  -0.018302
     5  C    0.004403   0.001030   0.005136  -0.038144   0.076190  -0.060640
     6  C   -0.001418  -0.002880  -0.010784   0.052573   0.022640  -0.008662
     7  O   -0.000008  -0.000004  -0.000070   0.003883  -0.011627  -0.008844
     8  C    0.000219   0.000729  -0.003904   0.022962  -0.051186  -0.004993
     9  C   -0.000048   0.000089  -0.000769   0.003101  -0.004451   0.372094
    10  C   -0.000046  -0.000016  -0.000046   0.000092   0.001585  -0.104056
    11  C    0.000045   0.000025   0.000054   0.000124  -0.000370   0.000015
    12  C   -0.000062   0.000355   0.000196   0.000221  -0.003096   0.034856
    13  C   -0.000603  -0.000100  -0.002370   0.008599  -0.018937   0.127135
    14  C   -0.000706   0.001456  -0.004163  -0.003652   0.007037   0.003045
    15  O   -0.000414  -0.000202  -0.000116   0.000142   0.000215   0.000503
    16  C   -0.010451  -0.013885  -0.007761   0.016539   0.034911   0.013860
    17  C    0.003352  -0.008278   0.024857  -0.013440   0.027906  -0.003528
    18  N    0.000145   0.014209   0.002716  -0.004522   0.000396   0.000091
    19  H    0.558572  -0.070715  -0.012809  -0.001372   0.000123  -0.000001
    20  H   -0.070715   0.559721  -0.011814  -0.001663   0.000138  -0.000003
    21  H   -0.012809  -0.011814   0.488309   0.002927   0.001024  -0.000005
    22  H   -0.001372  -0.001663   0.002927   0.503647  -0.015393   0.000023
    23  H    0.000123   0.000138   0.001024  -0.015393   0.509939  -0.000125
    24  H   -0.000001  -0.000003  -0.000005   0.000023  -0.000125   0.492366
    25  H   -0.000000   0.000000   0.000001  -0.000009  -0.000038  -0.013644
    26  H    0.000001  -0.000000  -0.000001   0.000004  -0.000040   0.001212
    27  H   -0.000008  -0.000009   0.000008  -0.000014  -0.000002   0.000893
    28  H    0.001511  -0.007423   0.001034   0.000696   0.000056  -0.000006
    29  H   -0.000357   0.000991  -0.000015  -0.000351   0.000432  -0.000034
              25         26         27         28         29
     1  C    0.000000   0.000006  -0.001020   0.004238  -0.014937
     2  C    0.000245  -0.000344  -0.001033  -0.062217   0.018600
     3  C   -0.000397   0.000257  -0.000384   0.018400   0.010124
     4  C    0.000998   0.000251  -0.000276   0.002882  -0.000295
     5  C    0.009963  -0.004566   0.003229  -0.012996   0.018907
     6  C    0.021391  -0.008611  -0.002373   0.001850   0.008478
     7  O    0.002408  -0.000244   0.000448   0.000019  -0.000028
     8  C    0.019325  -0.000152   0.077016   0.000546   0.025145
     9  C   -0.077204   0.000624   0.036979   0.001498  -0.003257
    10  C    0.460012  -0.058592   0.015998   0.000338   0.000494
    11  C   -0.055031   0.474614  -0.142722  -0.001193   0.001173
    12  C    0.001437  -0.104048   0.402880   0.001436  -0.019661
    13  C   -0.028670  -0.005727   0.055819   0.005971   0.022356
    14  C   -0.013914   0.027341  -0.035886   0.018860   0.084221
    15  O   -0.000224   0.002103  -0.009539   0.010800   0.016122
    16  C   -0.008234   0.009079  -0.056722   0.010006  -0.053658
    17  C    0.000162   0.000626  -0.005709   0.001863  -0.133395
    18  N   -0.000027   0.000123  -0.001214   0.336984   0.361849
    19  H   -0.000000   0.000001  -0.000008   0.001511  -0.000357
    20  H    0.000000  -0.000000  -0.000009  -0.007423   0.000991
    21  H    0.000001  -0.000001   0.000008   0.001034  -0.000015
    22  H   -0.000009   0.000004  -0.000014   0.000696  -0.000351
    23  H   -0.000038  -0.000040  -0.000002   0.000056   0.000432
    24  H   -0.013644   0.001212   0.000893  -0.000006  -0.000034
    25  H    0.490136  -0.014929   0.001540   0.000003   0.000009
    26  H   -0.014929   0.490271  -0.014351  -0.000015  -0.000117
    27  H    0.001540  -0.014351   0.488668   0.000063   0.000883
    28  H    0.000003  -0.000015   0.000063   0.372860  -0.016882
    29  H    0.000009  -0.000117   0.000883  -0.016882   0.326259
          Atomic-Atomic Spin Densities.
               1          2          3          4          5          6
     1  C   -0.000000  -0.000000   0.000000  -0.000000   0.000000   0.000000
     2  C   -0.000000  -0.000000   0.000000  -0.000000  -0.000000   0.000000
     3  C    0.000000   0.000000  -0.000000   0.000000  -0.000000  -0.000000
     4  C   -0.000000  -0.000000   0.000000  -0.000000  -0.000000   0.000000
     5  C    0.000000  -0.000000  -0.000000  -0.000000  -0.000000   0.000000
     6  C    0.000000   0.000000  -0.000000   0.000000   0.000000  -0.000000
     7  O   -0.000000  -0.000000   0.000000  -0.000000  -0.000000  -0.000000
     8  C    0.000000   0.000000  -0.000000   0.000000   0.000000  -0.000000
     9  C    0.000000   0.000000  -0.000000   0.000000   0.000000  -0.000000
    10  C    0.000000   0.000000  -0.000000   0.000000   0.000000   0.000000
    11  C   -0.000000  -0.000000   0.000000   0.000000   0.000000   0.000000
    12  C    0.000000   0.000000  -0.000000  -0.000000  -0.000000  -0.000000
    13  C    0.000000   0.000000  -0.000000   0.000000   0.000000   0.000000
    14  C    0.000000   0.000000  -0.000000   0.000000  -0.000000  -0.000000
    15  O    0.000000   0.000000  -0.000000   0.000000   0.000000  -0.000000
    16  C    0.000000   0.000000  -0.000000   0.000000   0.000000  -0.000000
    17  C   -0.000000  -0.000000   0.000000  -0.000000  -0.000000   0.000000
    18  N    0.000000   0.000000  -0.000000   0.000000   0.000000  -0.000000
    19  H   -0.000000  -0.000000   0.000000  -0.000000   0.000000   0.000000
    20  H   -0.000000  -0.000000   0.000000  -0.000000   0.000000   0.000000
    21  H   -0.000000  -0.000000   0.000000  -0.000000   0.000000   0.000000
    22  H    0.000000   0.000000  -0.000000   0.000000   0.000000  -0.000000
    23  H   -0.000000  -0.000000   0.000000  -0.000000  -0.000000   0.000000
    24  H    0.000000   0.000000  -0.000000   0.000000   0.000000  -0.000000
[...]
 -0.00036037,0.00005551,0.00032053,0.00007655,-0.00000878,-0.00025005,0
 .00010908,-0.00002711,-0.00024973,0.00011313,-0.00000925,0.00004470,-0
 .00005612,0.00000886,0.00132813,-0.00040477,0.00008526,0.08656475,-0.0
 0012091,-0.00010919,-0.00001747,0.00008958,0.00171572,0.00061890,-0.00
 095483,-0.00002382,0.00049651,0.08350343,-0.30751557,0.04149132,0.0071
 5171,-0.01888351,0.00331552,0.00228153,-0.00285218,-0.00028478,0.00201
 895,0.00272501,-0.00039016,-0.00014696,0.00009177,0.00000948,0.0000479
 1,0.00000472,-0.00000114,-0.00005893,-0.00002309,0.00000001,-0.0000613
 3,0.00005671,-0.00001117,0.00007277,0.00009889,-0.00001265,-0.00015800
 ,-0.00006481,-0.00000806,0.00123145,-0.00018858,0.00031772,-0.00036875
 ,-0.00064928,-0.00003729,-0.00381705,-0.00046300,0.00107241,-0.0002437
 6,0.00031793,-0.00020362,0.00008316,0.00003327,-0.00005785,0.00005568,
 -0.00002842,0.00000394,0.00005442,-0.00001862,0.00002716,0.00000011,-0
 .00000196,-0.00000057,0.00021555,0.00053108,-0.00060457,-0.09080922,0.
 32521670,0.00001911,-0.00001243,-0.00020891,-0.00006170,0.00061805,0.0
 0570446,0.00010759,0.00061686,0.00313135,-0.01283106,0.04148770,-0.041
 64387,-0.00103008,0.00323052,0.00238998,-0.00033779,-0.00028567,-0.004
 78488,-0.00041996,-0.00041912,0.00054021,0.00002599,0.00001293,0.00015
 685,-0.00000700,-0.00000022,-0.00000389,0.00000841,0.00000035,-0.00002
 050,0.00000879,-0.00001013,-0.00001811,-0.00000946,-0.00001181,0.00001
 906,0.00002292,-0.00000759,-0.00011248,-0.00018553,0.00031607,0.001820
 13,0.00005632,-0.00003497,-0.00085998,0.00054338,0.00105817,0.00653122
 ,0.00004192,-0.00020333,-0.00100334,-0.00001559,-0.00005834,-0.0003183
 0,-0.00000776,-0.00000658,0.00008122,-0.00001147,0.00003756,0.00007085
 ,0.00000010,-0.00000068,-0.00000579,-0.00001464,-0.00060135,-0.0033595
 1,0.01408388,-0.04572419,0.03187621,0.00000544,-0.00003840,0.00000583,
 -0.00003112,-0.00003304,0.00000496,0.00000768,-0.00007708,0.00001128,-
 0.00001310,-0.00015290,0.00002427,0.00047092,-0.00002202,0.00000240,-0
 .00041974,0.00221654,-0.00034002,0.00149591,-0.00144126,0.00020028,-0.
 00404623,0.02976567,-0.00447877,-0.08223548,0.07844470,-0.01181418,0.0
 1012412,-0.02155155,0.00324823,-0.00264154,-0.00308039,0.00046698,-0.0
 0076570,-0.00044163,0.00006743,-0.00584017,-0.00045785,0.00006637,0.00
 126951,0.00128872,-0.00019246,-0.00096031,0.00055809,-0.00008340,-0.00
 020412,-0.00005305,0.00000782,0.00019133,-0.00003250,0.00000631,-0.000
 07630,-0.00002108,0.00000255,0.00001339,0.00000230,0.00000229,0.000013
 24,0.00000139,-0.00000280,0.00000035,0.00000111,-0.00000020,0.00001541
 ,0.00000120,-0.00000003,-0.00004645,-0.00002970,0.00000393,0.08216437,
 0.00000148,-0.00000400,0.00000100,-0.00002043,-0.00003562,0.00000224,-
 0.00001299,0.00004402,-0.00001118,0.00005348,-0.00006527,0.00001898,0.
 00032609,0.00003254,0.00001232,-0.00079552,-0.00281892,-0.00018631,-0.
 00244852,0.00069101,-0.00007944,0.00338727,-0.00234354,0.00089695,0.07
 897184,-0.30976848,0.04063410,0.00806448,-0.01474738,0.00293098,-0.003
 37162,-0.00085844,0.00127297,-0.00053037,0.00033588,-0.00022503,0.0006
 0597,0.00143024,0.00080704,-0.00051179,0.00002370,0.00013125,0.0001705
 5,-0.00016489,-0.00004598,0.00015603,0.00010640,-0.00001517,-0.0000384
 2,0.00010554,-0.00001075,0.00006777,-0.00008205,0.00000932,0.00000726,
 -0.00000285,0.00000143,0.00000789,-0.00000215,-0.00000065,0.00000520,0
 .00000295,-0.00000050,0.00001655,0.00000247,-0.00000130,-0.00001925,0.
 00002167,0.00000181,-0.08459944,0.32797533,-0.00000028,0.00000095,0.00
 000321,0.00000264,0.00000161,-0.00002079,0.00000105,-0.00001090,-0.000
 02642,-0.00000796,0.00001882,0.00005590,-0.00004845,0.00000350,0.00007
 874,0.00011062,-0.00015684,-0.00410123,0.00036701,-0.00009511,0.000285
 39,-0.00054045,0.00088544,0.00350211,-0.01186124,0.04063996,-0.0455839
 6,-0.00121872,0.00293418,0.00427176,0.00050787,0.00127131,0.00738506,0
 .00008145,-0.00022371,-0.00112227,-0.00008918,0.00080753,0.00665188,0.
 00007369,0.00013029,0.00088143,-0.00002529,-0.00004462,-0.00045869,-0.
 00002241,-0.00001590,0.00000229,0.00000588,-0.00000921,0.00003844,-0.0
 0000937,0.00000540,-0.00003838,-0.00000349,-0.00000304,0.00000087,0.00
 000153,0.00000400,0.00000016,-0.00000077,-0.00000053,-0.00000071,-0.00
 000235,-0.00000138,-0.00000689,0.00000256,0.00000191,0.00003446,0.0127
 5533,-0.04531727,0.03337931,-0.00000371,0.00001293,-0.00000195,0.00004
 146,0.00005733,-0.00000835,0.00000946,-0.00004752,0.00000745,-0.000130
 12,0.00010336,-0.00001689,-0.00027880,-0.00033133,0.00004972,-0.000225
 82,0.00144060,-0.00021937,-0.00001250,-0.00049853,0.00007747,-0.000746
 05,-0.00373373,0.00056982,-0.01560229,0.00637952,-0.00095204,-0.325349
 53,0.05818615,-0.00867186,-0.00446046,-0.00070314,0.00010798,0.0014223
 6,0.00152828,-0.00022584,0.00042531,-0.00025872,0.00003750,0.00028088,
 -0.00001601,0.00000226,-0.00020754,0.00011435,-0.00001676,-0.00010465,
 -0.00011367,0.00001672,0.00000074,-0.00018116,0.00002807,-0.00008338,0
 .00013278,-0.00002368,-0.00001340,0.00000349,-0.00000242,-0.00001309,0
 .00000428,0.00000146,-0.00000725,-0.00000471,0.00000067,-0.00002741,-0
 .00000402,0.00000041,0.00001801,-0.00000351,0.00000067,0.00095838,0.00
 003597,-0.00000850,0.34368249,-0.00000142,0.00000974,-0.00000110,0.000
 00519,-0.00001152,-0.00000167,-0.00003355,-0.00001739,0.00000050,-0.00
 008454,0.00010137,-0.00003471,-0.00022290,-0.00039971,0.00002335,-0.00
 103435,0.00090359,-0.00011293,0.00015976,-0.00010804,0.00004149,-0.002
 98286,-0.00289005,0.00157682,-0.02417022,0.00851013,-0.00065123,0.0583
 0200,-0.07132221,0.00481565,0.02980804,-0.00165364,0.00084611,0.001060
 10,-0.00505649,0.00184645,-0.00038551,-0.00113145,0.00004315,-0.000033
 69,-0.00012771,-0.00018303,0.00018218,0.00018820,-0.00000268,0.0001142
 2,-0.00000621,0.00003372,-0.00000487,0.00001201,0.00000955,0.00001080,
 0.00001146,-0.00000185,-0.00000390,-0.00000030,-0.00000062,-0.00000431
 ,-0.00000025,0.00000066,0.00000015,-0.00000049,0.00000010,-0.00001711,
 0.00000246,0.00000497,0.00000993,-0.00000301,0.00000113,0.00070895,0.0
 0090617,-0.00079110,-0.06209940,0.07108988,0.00000024,-0.00000117,0.00
 000189,-0.00000060,-0.00000128,-0.00002145,0.00000512,0.00000037,-0.00
 001327,0.00001262,-0.00003398,-0.00012156,0.00003515,0.00002233,-0.000
 24499,0.00015332,-0.00010853,0.00018415,-0.00002249,0.00004165,0.00015
 380,0.00044536,0.00157057,0.00730243,0.00363638,-0.00064444,0.00432019
 ,-0.00867526,0.00479806,-0.03990928,-0.00448753,0.00086773,0.00395631,
 -0.00015824,0.00184547,0.00694945,0.00005548,0.00004258,-0.00084617,0.
 00000790,-0.00018519,-0.00132258,-0.00002638,-0.00000296,0.00017063,-0
 .00001899,0.00003269,0.00020777,0.00000129,0.00000870,0.00007451,-0.00
 000221,-0.00000026,0.00000531,0.00000218,0.00000089,-0.00000007,-0.000
 00118,-0.00000085,-0.00000005,-0.00000011,0.00000013,0.00000033,0.0000
 0234,0.00000509,0.00003536,-0.00000152,0.00000115,0.00000463,-0.000106
 97,-0.00078823,-0.00419339,0.00924675,-0.00671293,0.02716946,-0.000002
 52,-0.00002025,0.00000352,-0.00000758,0.00010284,-0.00001685,0.0000674
 7,-0.00007084,0.00001175,-0.00011034,-0.00006596,0.00000861,-0.0000141
 0,0.00019705,-0.00002877,0.00012109,0.00019977,-0.00003122,0.00005363,
 -0.00021598,0.00003358,-0.00041528,0.00079698,-0.00012005,0.00045316,0
 .00249000,-0.00037356,0.01031017,0.00913827,-0.00138165,-0.18536544,-0
 .13728580,0.02070105,-0.01603402,-0.02348576,0.00354548,-0.00471800,0.
 00254279,-0.00038243,0.00027631,-0.00173447,0.00026224,-0.00014014,0.0
 0037294,-0.00005520,-0.00069494,0.00012164,-0.00002007,0.00005787,-0.0
 0037239,0.00005741,-0.00011904,0.00016168,-0.00002928,-0.00000779,0.00
 000545,-0.00000193,-0.00000750,0.00000601,0.00000047,-0.00001331,-0.00
 000412,0.00000051,-0.00000812,-0.00000882,0.00000119,-0.00000530,-0.00
 001101,0.00000165,0.00033193,0.00044854,-0.00006775,0.00068011,-0.0005
 5586,0.00008871,0.19389992,0.00000149,0.00000691,0.00000493,0.00003533
 ,0.00003904,-0.00000548,0.00003022,-0.00002792,-0.00000147,-0.00005925
 ,0.00001033,0.00000330,-0.00010769,-0.00002908,0.00004243,0.00016663,0
 .00006278,-0.00022117,-0.00023762,-0.00008928,0.00004834,0.00087217,-0
 .00031903,-0.00008317,0.00293312,-0.00413620,0.00171204,-0.02140122,-0
 .01606561,0.00307887,-0.13728726,-0.20802974,0.02541524,0.00691692,0.0
 0889614,-0.00068394,0.00193114,0.00104787,0.00097001,0.00063212,0.0003
 8920,-0.00004073,-0.00021903,0.00004946,0.00001753,0.00002923,-0.00011
 763,-0.00000934,0.00003213,-0.00006970,-0.00000873,-0.00005774,0.00007
 506,-0.00001552,-0.00000417,0.00000243,-0.00000123,-0.00000633,0.00000
 197,0.00000019,-0.00000242,-0.00000228,0.00000071,-0.00000776,-0.00000
 320,0.00000031,0.00000729,0.00000145,-0.00000021,-0.00102422,-0.000707
 72,0.00007531,0.00016408,0.00107650,-0.00074478,0.14707693,0.21740834,
 -0.00000065,0.00000513,0.00003829,-0.00000529,-0.00000613,0.00000182,-
 0.00000468,-0.00000092,-0.00003587,0.00000913,0.00000360,0.00003220,0.
 00001430,0.00004280,0.00024770,-0.00002402,-0.00021978,-0.00137216,0.0
 0003629,0.00004870,0.00021938,-0.00012941,-0.00008933,-0.00086599,-0.0
 0043804,0.00171457,0.00699844,0.00322148,0.00307014,0.00385373,0.02071
 139,0.02542148,-0.04337351,-0.00105118,-0.00068199,0.00451433,-0.00029
 019,0.00097490,0.00735188,-0.00009440,-0.00004178,0.00012098,0.0000335
 0,0.00001739,0.00016111,-0.00000489,-0.00001000,-0.00018073,-0.0000040
 4,-0.00001086,-0.00013254,0.00000916,-0.00001149,-0.00000511,0.0000083
 9,0.00000189,-0.00000162,-0.00000699,-0.00000308,-0.00000122,0.0000003
 3,0.00000070,0.00000241,0.00000112,0.00000028,-0.00000115,-0.00000109,
 -0.00000026,-0.00000026,0.00015322,0.00007383,-0.00022212,-0.00002645,
 -0.00073796,-0.00369513,-0.02218062,-0.02882849,0.03053453,-0.00000444
 ,0.00002535,-0.00000397,-0.00004409,-0.00012481,0.00001793,-0.00014344
 ,0.00014817,-0.00002275,0.00019986,0.00019312,-0.00002814,-0.00003575,
 -0.00025310,0.00003824,0.00130526,-0.00052042,0.00007859,-0.00040221,-
 0.00068291,0.00010539,-0.00347425,-0.00279906,0.00042215,-0.00087246,-
 0.00042208,0.00006313,-0.00509643,0.00020593,-0.00003150,-0.00484710,0
 .02880210,-0.00433469,-0.08364367,0.08181605,-0.01234886,0.01236974,-0
 .01937353,0.00291567,-0.00058273,-0.00075083,0.00010987,-0.00121678,0.
 00065749,-0.00016678,0.00052131,0.00054420,-0.00007832,-0.00012497,0.0
 0027452,-0.00004322,0.00022632,-0.00014973,0.00002889,0.00000164,-0.00
 000720,-0.00000032,0.00000136,-0.00000687,0.00000215,0.00000872,0.0000
 0543,-0.00000075,-0.00000489,0.00001000,-0.00000157,0.00002100,0.00002
 049,-0.00000304,0.00011006,0.00005640,-0.00000863,-0.00028667,0.001299
 49,-0.00019539,0.00134116,-0.00043846,0.00006768,0.08491087,-0.0000053
 6,0.00001463,-0.00000009,-0.00002356,-0.00002804,0.00000024,-0.0000733
 4,0.00006314,-0.00001028,0.00008889,0.00013266,-0.00001544,-0.00017520
 ,-0.00011739,0.00000952,0.00136553,0.00005387,0.00011905,-0.00033284,-
 0.00077271,0.00004759,-0.00390875,-0.00098176,0.00116591,-0.00033573,0
 .00042588,-0.00024130,0.00046241,0.00165406,0.00088999,-0.00077375,-0.
 00022501,0.00072637,0.08118352,-0.30848723,0.04049006,0.00669158,-0.01
 828861,0.00331242,0.00225724,-0.00290541,-0.00014988,0.00224939,0.0027
 5107,-0.00041260,-0.00010121,0.00018017,-0.00002025,-0.00004332,-0.000
 08412,0.00002225,0.00009094,0.00004126,-0.00000406,-0.00000724,-0.0000
 0122,-0.00000175,-0.00000719,-0.00000050,0.00000185,-0.00000200,0.0000
 0036,-0.00000018,-0.00001283,0.00000053,-0.00000146,0.00002305,0.00000
 043,0.00000129,0.00006967,-0.00008415,-0.00011059,-0.00015179,-0.00008
 967,-0.00001020,0.00019607,0.00054035,-0.00073587,-0.08859798,0.326159
 28,0.00000063,-0.00000051,0.00001338,0.00000405,0.00000233,-0.00002371
 ,0.00001229,-0.00001168,-0.00000268,-0.00001584,-0.00001613,0.00003299
 ,0.00002620,0.00001182,-0.00006135,-0.00020401,0.00012110,0.00084267,0
 .00004895,0.00004044,-0.00048669,0.00059016,0.00116261,0.00659219,0.00
 004460,-0.00023959,-0.00113487,-0.00006889,0.00089284,0.00742262,0.000
 12676,0.00073082,0.00444726,-0.01225044,0.04049647,-0.04562676,-0.0010
 2169,0.00332938,0.00324206,-0.00032200,-0.00013747,-0.00388748,-0.0004
 0282,-0.00045037,0.00024205,0.00000869,-0.00002488,0.00004443,0.000009
 36,0.00001671,0.00006152,-0.00001634,-0.00000115,0.00001286,0.00000096
 ,0.,-0.00000021,0.00000114,0.00000028,-0.00000070,0.00000022,-0.000000
 17,-0.00000074,0.00000194,-0.00000147,-0.00000817,-0.00000352,0.000001
 08,0.00000775,-0.00001061,-0.00011051,-0.00080042,0.00002294,-0.000010
 00,-0.00015916,-0.00003299,-0.00072924,-0.00419667,0.01343058,-0.04506
 405,0.03343835,0.00103018,-0.00117844,0.00008958,-0.00080389,-0.003720
 68,0.00048449,-0.00148345,0.00108744,-0.00018218,0.00123441,-0.0000858
 9,0.00001383,-0.00045542,-0.00077486,0.00011186,-0.00003199,0.00022668
 ,-0.00003517,0.00013923,-0.00026589,0.00004179,-0.00008415,-0.00005639
 ,0.00000534,0.00005340,0.00006599,-0.00000925,0.00003949,-0.00005107,0
 .00000749,-0.00001394,0.00000500,-0.00000165,0.00004921,-0.00001363,0.
 00000428,-0.00021078,0.00014014,-0.00001815,-0.00082355,-0.00379006,0.
 00055804,-0.00284776,0.00172236,-0.00027677,0.00534494,0.00115723,-0.0
 0004003,-0.00684073,0.00736038,-0.00102209,-0.45315904,0.06682210,-0.0
 0192862,-0.00077021,-0.00101351,-0.00052687,-0.00083021,-0.00069177,0.
 00092527,-0.00007258,0.00018791,-0.00000092,0.00006455,-0.00004821,0.0
 0001574,-0.00001703,0.00001526,-0.00000035,-0.00000077,-0.00000962,0.0
 0000110,0.00000860,0.00000056,-0.00000001,0.00001108,0.00000657,-0.000
 00102,0.00000172,0.00000973,-0.00000135,0.46745016,0.00019795,-0.00025
 188,0.00015880,0.00162808,0.00005820,-0.00022419,0.00002908,0.00022478
 ,-0.00008656,0.00003027,0.00000584,-0.00005891,0.00117835,0.00053480,0
 .00022701,-0.00002014,-0.00048912,0.00014165,0.00014339,0.00003265,-0.
 00004800,0.00000227,-0.00003381,0.00001049,-0.00010911,0.00001751,0.00
 000805,0.00000345,0.00008531,-0.00001158,0.00006704,-0.00001353,0.0000
 0804,-0.00006047,0.00002726,-0.00000519,-0.00018333,0.00039243,-0.0001
 9823,0.00011826,-0.00273783,0.00027708,-0.00497404,0.00122380,0.000004
 33,0.00001173,-0.00493410,0.00134657,0.03431130,-0.00142179,-0.0013068
 8,0.06307669,-0.08305088,0.01095218,-0.00121955,-0.00080665,-0.0009060
 2,-0.00081844,-0.00044076,0.00110167,-0.00016248,0.00076472,-0.0002118
 4,-0.00001895,0.00006011,0.00002893,-0.00008281,-0.00000506,0.00000949
 ,-0.00001285,0.00000253,0.00000217,-0.00000460,0.00000459,-0.00000309,
 -0.00000724,-0.00000463,0.00000003,0.00003865,0.00002199,0.00000016,-0
 .07572674,0.07673664,0.00002175,0.00027301,0.00136815,-0.00025528,-0.0
 0056343,-0.00174484,-0.00010503,0.00003246,-0.00044731,0.00011857,-0.0
 0007659,-0.00032146,-0.00026399,0.00012861,0.00171745,-0.00001043,0.00
 016721,0.00037026,-0.00000847,-0.00007193,-0.00025509,-0.00001154,0.00
 001165,0.00004790,0.00003115,0.00001782,0.00008491,0.00000351,-0.00002
 218,0.00001006,-0.00001417,0.00000921,0.00004516,0.00001489,-0.0000055
 3,-0.00000294,0.00001986,-0.00021910,-0.00106405,-0.00009953,-0.000014
 30,-0.00080060,0.00053769,0.00019822,0.00164252,0.00029147,0.00164111,
 0.00411511,-0.00602400,0.00023241,-0.00578010,0.00070105,0.00992187,0.
 00249318,-0.00088306,-0.00040437,-0.00040142,0.00127107,0.00056366,-0.
 00072655,0.00001600,-0.00020725,-0.00084976,-0.00000421,0.00003825,0.0
 0028287,0.00001114,0.00001208,0.00005914,0.00000185,0.00000136,0.00001
 708,0.00000170,-0.00000265,-0.00001531,0.00000243,0.00000102,-0.000004
 85,-0.00000672,0.00000077,0.00002560,0.00260259,-0.00911439,0.00584415
 ,-0.00073743,-0.00011406,0.00002453,0.00010130,0.00954532,-0.00154326,
 0.00428567,-0.00243291,0.00036946,-0.00375177,-0.00097509,0.00012443,-
 0.00076527,0.00266938,-0.00040053,0.00104114,0.00028617,-0.00003576,-0
 .00055326,0.00029654,-0.00005037,0.00028880,0.00054882,-0.00008236,0.0
 0055082,-0.00018613,0.00003382,-0.00001629,-0.00036936,0.00005527,-0.0
 0019629,-0.00000537,0.00000010,0.00018118,-0.00036145,0.00006048,0.001
 90406,-0.00245852,0.00031728,-0.00153726,0.02312629,-0.00346461,0.0038
 6969,-0.01674909,0.00251441,-0.00697024,-0.00577318,0.00097579,0.02204
 339,0.00018700,0.00029388,-0.22511186,-0.17623811,0.02248976,0.0000180
 6,-0.00010308,0.00016159,0.00002248,-0.00015270,-0.00012796,0.00008743
 ,-0.00001874,0.00000113,-0.00002003,0.00033501,-0.00003868,-0.00010232
 ,-0.00005806,0.00001078,0.00010899,-0.00002480,0.00000409,0.00002485,-
 0.00002688,0.00000405,0.00005952,0.00001781,-0.00000304,-0.00023916,-0
 .00013596,0.00002102,-0.00698147,-0.01743576,0.00203969,0.21239527,0.0
 0055642,0.00057474,-0.00012945,0.00448778,-0.00066431,0.00069453,-0.00
 036227,-0.00134112,0.00043899,-0.00082230,0.00027058,-0.00001221,-0.00
 040824,-0.00002189,-0.00007568,0.00041995,-0.00010656,0.00000132,-0.00
 031657,0.00036412,-0.00004756,0.00011204,0.00010519,-0.00000446,-0.000
 03878,-0.00009079,-0.00000207,-0.00005696,0.00003253,-0.00000451,0.000
 00933,0.00000357,-0.00000472,-0.00018626,0.00001197,-0.00000619,0.0000
 8114,-0.00059419,0.00028979,0.00525952,0.00239528,-0.00040111,-0.00448
 158,-0.00684023,0.00036953,-0.00257069,-0.00021593,-0.00018178,-0.0190
 3321,-0.02667228,0.00290720,-0.17770881,-0.27645056,0.03557725,-0.0000
 9440,-0.00008072,-0.00023658,-0.00016700,-0.00004943,0.00025330,-0.000
 13551,0.00026283,-0.00001124,0.00018727,-0.00027894,-0.00003408,0.0000
 3234,0.00001474,-0.00001531,0.00001063,0.00000504,-0.00000220,-0.00001
 127,0.00000204,0.00000048,-0.00001846,-0.00000582,0.00000249,0.0000296
 0,0.00002615,-0.00000884,0.00861941,0.01399685,-0.00254899,0.18660691,
 0.29534713,-0.00007046,-0.00010714,-0.00017094,-0.00079527,0.00068052,
 0.00421749,-0.00000164,0.00052680,0.00140502,0.00020710,-0.00001107,0.
 00030004,0.00004885,-0.00014971,-0.00073112,-0.00008314,0.00000699,-0.
 00014968,0.00006267,-0.00006036,0.00010344,-0.00001931,-0.00000046,0.0
 0009622,0.00001171,-0.00000314,-0.00014075,0.00001088,-0.00000747,0.00
 001379,-0.00000242,-0.00000745,-0.00004246,0.00003057,-0.00000408,-0.0
 0001838,-0.00002377,0.00032728,0.00156655,-0.00082915,-0.00044478,0.00
 009609,0.00065059,0.00032717,-0.00474163,0.00058354,-0.00026820,-0.001
 99285,0.00300058,0.00442167,-0.00415781,0.02178214,0.03372461,-0.00667
 853,0.00023774,0.00017265,0.00001836,-0.00020900,-0.00015110,-0.000001
 93,0.00001769,-0.00000455,0.00019677,-0.00003131,-0.00003464,-0.000557
 57,-0.00000537,-0.00001540,-0.00008772,-0.00000188,-0.00000325,-0.0000
 1282,0.00000251,0.00000081,0.00000618,0.00000376,0.00000324,0.00001213
 ,-0.00000567,-0.00000928,-0.00003610,-0.00081697,-0.00210176,-0.005709
 28,-0.02375498,-0.03680790,0.01719748\\-0.00000124,-0.00000604,0.00000
 047,0.00000367,0.00001476,-0.00000474,0.00001496,-0.00000803,0.0000009
 9,-0.00001211,0.00000040,0.00000274,0.00001119,-0.00000371,-0.00000076
 ,-0.00001166,0.00002355,-0.00000655,0.00000044,-0.00001155,0.00000437,
 -0.00000031,-0.00000529,0.00000141,0.00000099,0.00000417,0.00000081,-0
 .00000293,-0.00000606,0.00000039,-0.00000573,0.00000605,-0.00000174,0.
 00000078,-0.00000134,-0.00000124,0.00000118,0.00000058,-0.00000528,0.0
 0000011,0.00001628,0.00000793,0.00000789,-0.00000962,-0.00000228,-0.00
 000706,-0.00000952,-0.00000208,-0.00000062,-0.00001236,0.00001440,0.00
 000150,-0.00000479,-0.00000461,-0.00000048,0.00000037,-0.00000108,-0.0
 0000126,0.00000090,0.00000146,0.00000110,-0.00000010,0.00000114,-0.000
 00055,-0.00000073,0.00000229,0.00000163,-0.00000040,0.00000264,-0.0000
 0008,0.00000064,0.00000106,0.00000053,0.00000049,-0.00000025,-0.000000
 12,0.00000125,-0.00000167,-0.00000030,0.00000138,-0.00000221,0.0000032
 8,0.00000430,-0.00000132,-0.00000481,0.00000442,-0.00000629\\\@


 ONLY A FOOL KNOWS EVERYTHING.

               -- THE CHEMIST ANALYST, SEPTEMBER 1946
 Job cpu time:       0 days  4 hours 58 minutes 32.2 seconds.
 Elapsed time:       0 days  0 hours 37 minutes 28.7 seconds.
 File lengths (MBytes):  RWF=   1240 Int=      0 D2E=      0 Chk=     35 Scr=      1
 Normal termination of Gaussian 16 at Sat Feb 10 17:18:47 2024.
