 Entering Gaussian System, Link 0=g16
 Input=190-rad.com
 Output=190-rad.log
 Initial command:
 /sysapps/ubuntu-applications/gaussian/Gaussian/AVX2/g16/l1.exe "/scratch/selhajj1/4261055/Gau-4128436.inp" -scrdir="/scratch/selhajj1/4261055/"
 Entering Link 1 = /sysapps/ubuntu-applications/gaussian/Gaussian/AVX2/g16/l1.exe PID=   4128438.
  
 Copyright (c) 1988,1990,1992,1993,1995,1998,2003,2009,2016,
            Gaussian, Inc.  All Rights Reserved.
  
 This is part of the Gaussian(R) 16 program.  It is based on
 the Gaussian(R) 09 system (copyright 2009, Gaussian, Inc.),
 the Gaussian(R) 03 system (copyright 2003, Gaussian, Inc.),
 the Gaussian(R) 98 system (copyright 1998, Gaussian, Inc.),
 the Gaussian(R) 94 system (copyright 1995, Gaussian, Inc.),
 the Gaussian 92(TM) system (copyright 1992, Gaussian, Inc.),
 the Gaussian 90(TM) system (copyright 1990, Gaussian, Inc.),
 the Gaussian 88(TM) system (copyright 1988, Gaussian, Inc.),
 the Gaussian 86(TM) system (copyright 1986, Carnegie Mellon
 University), and the Gaussian 82(TM) system (copyright 1983,
 Carnegie Mellon University). Gaussian is a federally registered
 trademark of Gaussian, Inc.
  
 This software contains proprietary and confidential information,
 including trade secrets, belonging to Gaussian, Inc.
  
 This software is provided under written license and may be
 used, copied, transmitted, or stored only in accord with that
 written license.
  
 The following legend is applicable only to US Government
 contracts under FAR:
  
                    RESTRICTED RIGHTS LEGEND
  
 Use, reproduction and disclosure by the US Government is
 subject to restrictions as set forth in subparagraphs (a)
 and (c) of the Commercial Computer Software - Restricted
 Rights clause in FAR 52.227-19.
  
 Gaussian, Inc.
 340 Quinnipiac St., Bldg. 40, Wallingford CT 06492
  
  
 ---------------------------------------------------------------
 Warning -- This program may not be used in any manner that
 competes with the business of Gaussian, Inc. or will provide
 assistance to any competitor of Gaussian, Inc.  The licensee
 of this program is prohibited from giving any competitor of
 Gaussian, Inc. access to this program.  By using this program,
 the user acknowledges that Gaussian, Inc. is engaged in the
 business of creating and licensing software in the field of
 computational chemistry and represents and warrants to the
 licensee that it is not a competitor of Gaussian, Inc. and that
 it will not use this program in any manner prohibited above.
 ---------------------------------------------------------------
  

 Cite this work as:
 Gaussian 16, Revision A.03,
 M. J. Frisch, G. W. Trucks, H. B. Schlegel, G. E. Scuseria, 
 M. A. Robb, J. R. Cheeseman, G. Scalmani, V. Barone, 
 G. A. Petersson, H. Nakatsuji, X. Li, M. Caricato, A. V. Marenich, 
 J. Bloino, B. G. Janesko, R. Gomperts, B. Mennucci, H. P. Hratchian, 
 J. V. Ortiz, A. F. Izmaylov, J. L. Sonnenberg, D. Williams-Young, 
 F. Ding, F. Lipparini, F. Egidi, J. Goings, B. Peng, A. Petrone, 
 T. Henderson, D. Ranasinghe, V. G. Zakrzewski, J. Gao, N. Rega, 
 G. Zheng, W. Liang, M. Hada, M. Ehara, K. Toyota, R. Fukuda, 
 J. Hasegawa, M. Ishida, T. Nakajima, Y. Honda, O. Kitao, H. Nakai, 
 T. Vreven, K. Throssell, J. A. Montgomery, Jr., J. E. Peralta, 
 F. Ogliaro, M. J. Bearpark, J. J. Heyd, E. N. Brothers, K. N. Kudin, 
 V. N. Staroverov, T. A. Keith, R. Kobayashi, J. Normand, 
 K. Raghavachari, A. P. Rendell, J. C. Burant, S. S. Iyengar, 
 J. Tomasi, M. Cossi, J. M. Millam, M. Klene, C. Adamo, R. Cammi, 
 J. W. Ochterski, R. L. Martin, K. Morokuma, O. Farkas, 
 J. B. Foresman, and D. J. Fox, Gaussian, Inc., Wallingford CT, 2016.
 
 ******************************************
 Gaussian 16:  ES64L-G16RevA.03 25-Dec-2016
                 7-Jan-2024 
 ******************************************
 %chk=190-rad.chk
 %nproc=8
 Will use up to    8 processors via shared memory.
 %mem=30GB
 --------------------------------------
 #P UB3LYP/6-311++G(d,p) nosym opt freq
 --------------------------------------
 1/18=20,19=15,26=3,38=1/1,3;
 2/9=110,12=2,15=1,17=6,18=5,40=1/2;
 3/5=4,6=6,7=1111,11=2,25=1,30=1,71=1,74=-5,116=2/1,2,3;
 4//1;
 5/5=2,38=5/2;
 6/7=2,8=2,9=2,10=2,28=1/1;
 7/30=1/1,2,3,16;
 1/18=20,19=15,26=3/3(2);
 2/9=110,15=1/2;
 99//99;
 2/9=110,15=1/2;
 3/5=4,6=6,7=1111,11=2,25=1,30=1,71=1,74=-5,116=2/1,2,3;
 4/5=5,16=3,69=1/1;
 5/5=2,38=5/2;
 7/30=1/1,2,3,16;
 1/18=20,19=15,26=3/3(-5);
 2/9=110,15=1/2;
 6/7=2,8=2,9=2,10=2,19=2,28=1/1;
 99/9=1/99;
 Leave Link    1 at Sun Jan  7 04:59:04 2024, MaxMem=  4026531840 cpu:               0.7 elap:               0.2
 (Enter /sysapps/ubuntu-applications/gaussian/Gaussian/AVX2/g16/l101.exe)
 -------
 Radical
 -------
 Symbolic Z-matrix:
 Charge = -2 Multiplicity = 2
 O                     1.51132  -2.88456  -0.55789 
 C                     1.47234  -1.54435  -0.27435 
 C                     2.71255  -0.91539  -0.11889 
 O                     3.80786  -1.72287  -0.26933 
 C                     2.79058   0.46369   0.14915 
 C                     1.62053   1.1908    0.2628 
 C                     0.35974   0.5827    0.12272 
 C                    -0.82565   1.44207   0.26117 
 O                    -0.73543   2.67359   0.49972 
 C                    -2.12146   0.79085   0.10625 
 C                    -3.30431   1.55654   0.22094 
 C                    -4.55175   0.98172   0.08187 
 C                    -4.65804  -0.40642  -0.18212 
 C                    -3.51512  -1.17249  -0.29807 
 C                    -2.22629  -0.60682  -0.16057 
 C                    -1.05382  -1.47768  -0.29494 
 O                    -1.19917  -2.70481  -0.52191 
 C                     0.25749  -0.82589  -0.14949 
 S                     4.41334   1.25423   0.4158 
 O                     5.36441   0.30093  -0.28794 
 O                     4.36521   2.58528  -0.22478 
 O                     4.64284   1.28188   1.87997 
 H                     2.4568   -3.09103  -0.61534 
 H                     4.60147  -1.10886  -0.30793 
 H                     1.65185   2.25484   0.45717 
 H                    -3.1868    2.61555   0.42381 
 H                    -5.44859   1.58947   0.17403 
 H                    -5.63736  -0.86595  -0.29272 
 H                    -3.56456  -2.23704  -0.49913 
 
 ITRead=  0  0  0  0  0  0  0  0  0  0  0  0  0  0  0  0  0  0  0  0
 ITRead=  0  0  0  0  0  0  0  0  0
 MicOpt= -1 -1 -1 -1 -1 -1 -1 -1 -1 -1 -1 -1 -1 -1 -1 -1 -1 -1 -1 -1
 MicOpt= -1 -1 -1 -1 -1 -1 -1 -1 -1
 NAtoms=     29 NQM=       29 NQMF=       0 NMMI=      0 NMMIF=      0
                NMic=       0 NMicF=      0.
                    Isotopes and Nuclear Properties:
 (Nuclear quadrupole moments (NQMom) in fm**2, nuclear magnetic moments (NMagM)
  in nuclear magnetons)

  Atom         1           2           3           4           5           6           7           8           9          10
 IAtWgt=          16          12          12          16          12          12          12          12          16          12
 AtmWgt=  15.9949146  12.0000000  12.0000000  15.9949146  12.0000000  12.0000000  12.0000000  12.0000000  15.9949146  12.0000000
 NucSpn=           0           0           0           0           0           0           0           0           0           0
 AtZEff=  -0.0000000  -0.0000000  -0.0000000  -0.0000000  -0.0000000  -0.0000000  -0.0000000  -0.0000000  -0.0000000  -0.0000000
 NQMom=    0.0000000   0.0000000   0.0000000   0.0000000   0.0000000   0.0000000   0.0000000   0.0000000   0.0000000   0.0000000
 NMagM=    0.0000000   0.0000000   0.0000000   0.0000000   0.0000000   0.0000000   0.0000000   0.0000000   0.0000000   0.0000000
 AtZNuc=   8.0000000   6.0000000   6.0000000   8.0000000   6.0000000   6.0000000   6.0000000   6.0000000   8.0000000   6.0000000

  Atom        11          12          13          14          15          16          17          18          19          20
 IAtWgt=          12          12          12          12          12          12          16          12          32          16
 AtmWgt=  12.0000000  12.0000000  12.0000000  12.0000000  12.0000000  12.0000000  15.9949146  12.0000000  31.9720718  15.9949146
 NucSpn=           0           0           0           0           0           0           0           0           0           0
 AtZEff=  -0.0000000  -0.0000000  -0.0000000  -0.0000000  -0.0000000  -0.0000000  -0.0000000  -0.0000000  -0.0000000  -0.0000000
 NQMom=    0.0000000   0.0000000   0.0000000   0.0000000   0.0000000   0.0000000   0.0000000   0.0000000   0.0000000   0.0000000
 NMagM=    0.0000000   0.0000000   0.0000000   0.0000000   0.0000000   0.0000000   0.0000000   0.0000000   0.0000000   0.0000000
 AtZNuc=   6.0000000   6.0000000   6.0000000   6.0000000   6.0000000   6.0000000   8.0000000   6.0000000  16.0000000   8.0000000

  Atom        21          22          23          24          25          26          27          28          29
 IAtWgt=          16          16           1           1           1           1           1           1           1
 AtmWgt=  15.9949146  15.9949146   1.0078250   1.0078250   1.0078250   1.0078250   1.0078250   1.0078250   1.0078250
 NucSpn=           0           0           1           1           1           1           1           1           1
 AtZEff=  -0.0000000  -0.0000000  -0.0000000  -0.0000000  -0.0000000  -0.0000000  -0.0000000  -0.0000000  -0.0000000
 NQMom=    0.0000000   0.0000000   0.0000000   0.0000000   0.0000000   0.0000000   0.0000000   0.0000000   0.0000000
 NMagM=    0.0000000   0.0000000   2.7928460   2.7928460   2.7928460   2.7928460   2.7928460   2.7928460   2.7928460
 AtZNuc=   8.0000000   8.0000000   1.0000000   1.0000000   1.0000000   1.0000000   1.0000000   1.0000000   1.0000000
 Leave Link  101 at Sun Jan  7 04:59:04 2024, MaxMem=  4026531840 cpu:               3.4 elap:               0.5
 (Enter /sysapps/ubuntu-applications/gaussian/Gaussian/AVX2/g16/l103.exe)

 GradGradGradGradGradGradGradGradGradGradGradGradGradGradGradGradGradGrad
 Berny optimization.
 Initialization pass.
                           ----------------------------
                           !    Initial Parameters    !
                           ! (Angstroms and Degrees)  !
 --------------------------                            --------------------------
 ! Name  Definition              Value          Derivative Info.                !
 --------------------------------------------------------------------------------
 ! R1    R(1,2)                  1.3704         estimate D2E/DX2                !
 ! R2    R(1,23)                 0.9695         estimate D2E/DX2                !
 ! R3    R(2,3)                  1.3992         estimate D2E/DX2                !
 ! R4    R(2,18)                 1.4169         estimate D2E/DX2                !
 ! R5    R(3,4)                  1.3691         estimate D2E/DX2                !
 ! R6    R(3,5)                  1.4071         estimate D2E/DX2                !
 ! R7    R(4,24)                 1.0041         estimate D2E/DX2                !
 ! R8    R(5,6)                  1.3822         estimate D2E/DX2                !
 ! R9    R(5,19)                 1.8247         estimate D2E/DX2                !
 ! R10   R(6,7)                  1.4068         estimate D2E/DX2                !
 ! R11   R(6,25)                 1.0821         estimate D2E/DX2                !
 ! R12   R(7,8)                  1.4707         estimate D2E/DX2                !
 ! R13   R(7,18)                 1.4383         estimate D2E/DX2                !
 ! R14   R(8,9)                  1.2576         estimate D2E/DX2                !
 ! R15   R(8,10)                 1.4585         estimate D2E/DX2                !
 ! R16   R(10,11)                1.4137         estimate D2E/DX2                !
 ! R17   R(10,15)                1.4268         estimate D2E/DX2                !
 ! R18   R(11,12)                1.3805         estimate D2E/DX2                !
 ! R19   R(11,26)                1.0847         estimate D2E/DX2                !
 ! R20   R(12,13)                1.417          estimate D2E/DX2                !
 ! R21   R(12,27)                1.0873         estimate D2E/DX2                !
 ! R22   R(13,14)                1.3808         estimate D2E/DX2                !
 ! R23   R(13,28)                1.0874         estimate D2E/DX2                !
 ! R24   R(14,15)                1.4142         estimate D2E/DX2                !
 ! R25   R(14,29)                1.0845         estimate D2E/DX2                !
 ! R26   R(15,16)                1.4667         estimate D2E/DX2                !
 ! R27   R(16,17)                1.2564         estimate D2E/DX2                !
 ! R28   R(16,18)                1.4716         estimate D2E/DX2                !
 ! R29   R(19,20)                1.5194         estimate D2E/DX2                !
 ! R30   R(19,21)                1.478          estimate D2E/DX2                !
 ! R31   R(19,22)                1.4823         estimate D2E/DX2                !
 ! A1    A(2,1,23)             104.3753         estimate D2E/DX2                !
 ! A2    A(1,2,3)              115.9357         estimate D2E/DX2                !
 ! A3    A(1,2,18)             122.5815         estimate D2E/DX2                !
 ! A4    A(3,2,18)             121.4822         estimate D2E/DX2                !
 ! A5    A(2,3,4)              115.5809         estimate D2E/DX2                !
 ! A6    A(2,3,5)              120.7223         estimate D2E/DX2                !
 ! A7    A(4,3,5)              123.6863         estimate D2E/DX2                !
 ! A8    A(3,4,24)             106.0137         estimate D2E/DX2                !
 ! A9    A(3,5,6)              118.9667         estimate D2E/DX2                !
 ! A10   A(3,5,19)             120.1187         estimate D2E/DX2                !
 ! A11   A(6,5,19)             120.8567         estimate D2E/DX2                !
 ! A12   A(5,6,7)              121.5382         estimate D2E/DX2                !
 ! A13   A(5,6,25)             120.4992         estimate D2E/DX2                !
 ! A14   A(7,6,25)             117.9613         estimate D2E/DX2                !
 ! A15   A(6,7,8)              117.4142         estimate D2E/DX2                !
 ! A16   A(6,7,18)             120.3911         estimate D2E/DX2                !
 ! A17   A(8,7,18)             122.1945         estimate D2E/DX2                !
 ! A18   A(7,8,9)              122.1568         estimate D2E/DX2                !
 ! A19   A(7,8,10)             116.4366         estimate D2E/DX2                !
 ! A20   A(9,8,10)             121.4067         estimate D2E/DX2                !
 ! A21   A(8,10,11)            119.5324         estimate D2E/DX2                !
 ! A22   A(8,10,15)            121.5027         estimate D2E/DX2                !
 ! A23   A(11,10,15)           118.9649         estimate D2E/DX2                !
 ! A24   A(10,11,12)           121.4896         estimate D2E/DX2                !
 ! A25   A(10,11,26)           116.959          estimate D2E/DX2                !
 ! A26   A(12,11,26)           121.5514         estimate D2E/DX2                !
 ! A27   A(11,12,13)           119.633          estimate D2E/DX2                !
 ! A28   A(11,12,27)           120.2684         estimate D2E/DX2                !
 ! A29   A(13,12,27)           120.0985         estimate D2E/DX2                !
 ! A30   A(12,13,14)           119.8056         estimate D2E/DX2                !
 ! A31   A(12,13,28)           120.0321         estimate D2E/DX2                !
 ! A32   A(14,13,28)           120.1623         estimate D2E/DX2                !
 ! A33   A(13,14,15)           121.6188         estimate D2E/DX2                !
 ! A34   A(13,14,29)           121.4958         estimate D2E/DX2                !
 ! A35   A(15,14,29)           116.8854         estimate D2E/DX2                !
 ! A36   A(10,15,14)           118.4881         estimate D2E/DX2                !
 ! A37   A(10,15,16)           122.6872         estimate D2E/DX2                !
 ! A38   A(14,15,16)           118.8246         estimate D2E/DX2                !
 ! A39   A(15,16,17)           120.2654         estimate D2E/DX2                !
 ! A40   A(15,16,18)           116.1235         estimate D2E/DX2                !
 ! A41   A(17,16,18)           123.6111         estimate D2E/DX2                !
 ! A42   A(2,18,7)             116.8923         estimate D2E/DX2                !
 ! A43   A(2,18,16)            122.0546         estimate D2E/DX2                !
 ! A44   A(7,18,16)            121.0527         estimate D2E/DX2                !
 ! A45   A(5,19,20)            102.5431         estimate D2E/DX2                !
 ! A46   A(5,19,21)            107.3311         estimate D2E/DX2                !
 ! A47   A(5,19,22)            106.8652         estimate D2E/DX2                !
 ! A48   A(20,19,21)           112.6246         estimate D2E/DX2                !
 ! A49   A(20,19,22)           111.8568         estimate D2E/DX2                !
 ! A50   A(21,19,22)           114.6052         estimate D2E/DX2                !
 ! D1    D(23,1,2,3)            -1.8197         estimate D2E/DX2                !
 ! D2    D(23,1,2,18)          177.9043         estimate D2E/DX2                !
 ! D3    D(1,2,3,4)             -0.0593         estimate D2E/DX2                !
 ! D4    D(1,2,3,5)            178.8034         estimate D2E/DX2                !
 ! D5    D(18,2,3,4)          -179.7866         estimate D2E/DX2                !
 ! D6    D(18,2,3,5)            -0.9239         estimate D2E/DX2                !
 ! D7    D(1,2,18,7)          -178.7308         estimate D2E/DX2                !
 ! D8    D(1,2,18,16)            1.019          estimate D2E/DX2                !
 ! D9    D(3,2,18,7)             0.9781         estimate D2E/DX2                !
 ! D10   D(3,2,18,16)         -179.272          estimate D2E/DX2                !
 ! D11   D(2,3,4,24)           169.3258         estimate D2E/DX2                !
 ! D12   D(5,3,4,24)            -9.4992         estimate D2E/DX2                !
 ! D13   D(2,3,5,6)              0.2665         estimate D2E/DX2                !
 ! D14   D(2,3,5,19)           177.5236         estimate D2E/DX2                !
 ! D15   D(4,3,5,6)            179.0338         estimate D2E/DX2                !
 ! D16   D(4,3,5,19)            -3.7092         estimate D2E/DX2                !
 ! D17   D(3,5,6,7)              0.2873         estimate D2E/DX2                !
 ! D18   D(3,5,6,25)          -179.2894         estimate D2E/DX2                !
 ! D19   D(19,5,6,7)          -176.9489         estimate D2E/DX2                !
 ! D20   D(19,5,6,25)            3.4744         estimate D2E/DX2                !
 ! D21   D(3,5,19,20)           22.961          estimate D2E/DX2                !
 ! D22   D(3,5,19,21)          141.7947         estimate D2E/DX2                !
 ! D23   D(3,5,19,22)          -94.8127         estimate D2E/DX2                !
 ! D24   D(6,5,19,20)         -159.8345         estimate D2E/DX2                !
 ! D25   D(6,5,19,21)          -41.0008         estimate D2E/DX2                !
 ! D26   D(6,5,19,22)           82.3918         estimate D2E/DX2                !
 ! D27   D(5,6,7,8)            179.993          estimate D2E/DX2                !
 ! D28   D(5,6,7,18)            -0.1994         estimate D2E/DX2                !
 ! D29   D(25,6,7,8)            -0.4199         estimate D2E/DX2                !
 ! D30   D(25,6,7,18)          179.3877         estimate D2E/DX2                !
 ! D31   D(6,7,8,9)             -0.2247         estimate D2E/DX2                !
 ! D32   D(6,7,8,10)           179.7418         estimate D2E/DX2                !
 ! D33   D(18,7,8,9)           179.9714         estimate D2E/DX2                !
 ! D34   D(18,7,8,10)           -0.0621         estimate D2E/DX2                !
 ! D35   D(6,7,18,2)            -0.4243         estimate D2E/DX2                !
 ! D36   D(6,7,18,16)          179.8232         estimate D2E/DX2                !
 ! D37   D(8,7,18,2)           179.3739         estimate D2E/DX2                !
 ! D38   D(8,7,18,16)           -0.3786         estimate D2E/DX2                !
 ! D39   D(7,8,10,11)         -179.7354         estimate D2E/DX2                !
 ! D40   D(7,8,10,15)            0.2166         estimate D2E/DX2                !
 ! D41   D(9,8,10,11)            0.2313         estimate D2E/DX2                !
 ! D42   D(9,8,10,15)         -179.8167         estimate D2E/DX2                !
 ! D43   D(8,10,11,12)        -179.9879         estimate D2E/DX2                !
 ! D44   D(8,10,11,26)          -0.0313         estimate D2E/DX2                !
 ! D45   D(15,10,11,12)          0.0589         estimate D2E/DX2                !
 ! D46   D(15,10,11,26)       -179.9845         estimate D2E/DX2                !
 ! D47   D(8,10,15,14)         179.9512         estimate D2E/DX2                !
 ! D48   D(8,10,15,16)           0.0688         estimate D2E/DX2                !
 ! D49   D(11,10,15,14)         -0.0965         estimate D2E/DX2                !
 ! D50   D(11,10,15,16)       -179.9789         estimate D2E/DX2                !
 ! D51   D(10,11,12,13)         -0.0102         estimate D2E/DX2                !
 ! D52   D(10,11,12,27)        179.9948         estimate D2E/DX2                !
 ! D53   D(26,11,12,13)       -179.9648         estimate D2E/DX2                !
 ! D54   D(26,11,12,27)          0.0401         estimate D2E/DX2                !
 ! D55   D(11,12,13,14)          0.0008         estimate D2E/DX2                !
 ! D56   D(11,12,13,28)        179.9918         estimate D2E/DX2                !
 ! D57   D(27,12,13,14)        179.9959         estimate D2E/DX2                !
 ! D58   D(27,12,13,28)         -0.0132         estimate D2E/DX2                !
 ! D59   D(12,13,14,15)         -0.042          estimate D2E/DX2                !
 ! D60   D(12,13,14,29)        179.9642         estimate D2E/DX2                !
 ! D61   D(28,13,14,15)        179.9671         estimate D2E/DX2                !
 ! D62   D(28,13,14,29)         -0.0268         estimate D2E/DX2                !
 ! D63   D(13,14,15,10)          0.0899         estimate D2E/DX2                !
 ! D64   D(13,14,15,16)        179.9769         estimate D2E/DX2                !
 ! D65   D(29,14,15,10)       -179.916          estimate D2E/DX2                !
 ! D66   D(29,14,15,16)         -0.029          estimate D2E/DX2                !
 ! D67   D(10,15,16,17)        179.5505         estimate D2E/DX2                !
 ! D68   D(10,15,16,18)         -0.49           estimate D2E/DX2                !
 ! D69   D(14,15,16,17)         -0.3315         estimate D2E/DX2                !
 ! D70   D(14,15,16,18)        179.6281         estimate D2E/DX2                !
 ! D71   D(15,16,18,2)        -179.1042         estimate D2E/DX2                !
 ! D72   D(15,16,18,7)           0.6354         estimate D2E/DX2                !
 ! D73   D(17,16,18,2)           0.8539         estimate D2E/DX2                !
 ! D74   D(17,16,18,7)        -179.4066         estimate D2E/DX2                !
 --------------------------------------------------------------------------------
 Trust Radius=3.00D-01 FncErr=1.00D-07 GrdErr=1.00D-06 EigMax=2.50D+02 EigMin=1.00D-04
 Number of steps in this run=    165 maximum allowed number of steps=    174.
 GradGradGradGradGradGradGradGradGradGradGradGradGradGradGradGradGradGrad

 Leave Link  103 at Sun Jan  7 04:59:05 2024, MaxMem=  4026531840 cpu:               0.5 elap:               0.2
 (Enter /sysapps/ubuntu-applications/gaussian/Gaussian/AVX2/g16/l202.exe)
                          Input orientation:                          
 ---------------------------------------------------------------------
 Center     Atomic      Atomic             Coordinates (Angstroms)
 Number     Number       Type             X           Y           Z
 ---------------------------------------------------------------------
      1          8           0        1.511321   -2.884560   -0.557891
      2          6           0        1.472340   -1.544348   -0.274354
      3          6           0        2.712554   -0.915390   -0.118888
      4          8           0        3.807861   -1.722869   -0.269332
      5          6           0        2.790579    0.463692    0.149150
      6          6           0        1.620534    1.190804    0.262800
      7          6           0        0.359740    0.582704    0.122715
      8          6           0       -0.825650    1.442074    0.261171
      9          8           0       -0.735430    2.673587    0.499715
     10          6           0       -2.121460    0.790849    0.106251
     11          6           0       -3.304305    1.556543    0.220941
     12          6           0       -4.551745    0.981721    0.081866
     13          6           0       -4.658040   -0.406417   -0.182115
     14          6           0       -3.515121   -1.172492   -0.298065
     15          6           0       -2.226288   -0.606821   -0.160569
     16          6           0       -1.053821   -1.477676   -0.294935
     17          8           0       -1.199174   -2.704814   -0.521906
     18          6           0        0.257491   -0.825892   -0.149491
     19         16           0        4.413337    1.254230    0.415795
     20          8           0        5.364412    0.300926   -0.287943
     21          8           0        4.365214    2.585276   -0.224781
     22          8           0        4.642839    1.281876    1.879971
     23          1           0        2.456803   -3.091025   -0.615336
     24          1           0        4.601467   -1.108857   -0.307933
     25          1           0        1.651851    2.254843    0.457167
     26          1           0       -3.186804    2.615554    0.423810
     27          1           0       -5.448585    1.589466    0.174027
     28          1           0       -5.637356   -0.865945   -0.292715
     29          1           0       -3.564563   -2.237039   -0.499127
 ---------------------------------------------------------------------
                    Distance matrix (angstroms):
                    1          2          3          4          5
     1  O    0.000000
     2  C    1.370431   0.000000
     3  C    2.348045   1.399246   0.000000
     4  O    2.589766   2.342339   1.369070   0.000000
     5  C    3.653382   2.439126   1.407053   2.447660   0.000000
     6  C    4.158612   2.791335   2.402966   3.681991   1.382249
     7  C    3.716353   2.433083   2.799713   4.166402   2.433894
     8  C    4.985184   3.806082   4.268603   5.636286   3.747918
     9  O    6.087645   4.823319   5.015179   6.368811   4.176035
    10  C    5.210260   4.302720   5.131241   6.451100   4.923109
    11  C    6.596986   5.716396   6.513719   7.847153   6.192503
    12  C    7.219293   6.541981   7.510617   8.793245   7.360883
    13  C    6.659085   6.235780   7.388417   8.568088   7.506581
    14  C    5.316371   5.001360   6.235555   7.343692   6.529851
    15  C    4.394961   3.817297   4.948648   6.137454   5.139152
    16  C    2.937418   2.527124   3.812183   4.867928   4.329611
    17  O    2.716687   2.923175   4.320426   5.108660   5.138859
    18  C    2.444789   1.416908   2.456884   3.663885   2.858102
    19  S    5.147751   4.117986   2.808167   3.114341   1.824663
    20  O    5.006646   4.307371   2.922389   2.553222   2.615752
    21  O    6.178574   5.042318   3.872617   4.344277   2.668411
    22  O    5.754022   4.762428   3.542515   3.787504   2.663838
    23  H    0.969466   1.864845   2.246165   1.953696   3.651282
    24  H    3.572758   3.159464   1.908182   1.004147   2.441547
    25  H    5.240568   3.873138   3.392242   4.582398   2.144714
    26  H    7.299820   6.284890   6.896703   8.260006   6.358856
    27  H    8.306197   7.610587   8.541914   9.841236   8.315757
    28  H    7.432947   7.142013   8.351866   9.484039   8.543610
    29  H    5.117356   5.089277   6.426005   7.393904   6.935563
                    6          7          8          9         10
     6  C    0.000000
     7  C    1.406773   0.000000
     8  C    2.459056   1.470658   0.000000
     9  O    2.793804   2.390255   1.257643   0.000000
    10  C    3.766562   2.489970   1.458498   2.370780   0.000000
    11  C    4.938578   3.792524   2.481623   2.815070   1.413706
    12  C    6.178469   4.927836   3.758704   4.195387   2.437891
    13  C    6.493809   5.123417   4.277924   5.033705   2.819723
    14  C    5.681082   4.274613   3.792355   4.812012   2.441407
    15  C    4.267170   2.860552   2.517463   3.663292   1.426767
    16  C    3.818904   2.533328   2.980982   4.238611   2.539096
    17  O    4.872613   3.695067   4.236674   5.494176   3.669449
    18  C    2.468792   1.438295   2.546666   3.695093   2.887674
    19  S    2.797710   4.119283   5.244633   5.341481   6.558514
    20  O    3.887393   5.029392   6.318276   6.592268   7.512236
    21  O    3.116979   4.491644   5.337427   5.152598   6.738434
    22  O    3.428974   4.682064   5.705309   5.724312   7.010202
    23  H    4.450228   4.294028   5.664958   6.683146   6.045670
    24  H    3.807905   4.586838   6.023681   6.591028   6.998441
    25  H    1.082099   2.139499   2.614769   2.424101   4.062548
    26  H    5.016606   4.098916   2.641695   2.453235   2.136668
    27  H    7.080908   5.895154   4.626105   4.847187   3.422301
    28  H    7.564111   6.183553   5.365282   6.097960   3.907130
    29  H    6.262258   4.872145   4.649255   5.754644   3.408392
                   11         12         13         14         15
    11  C    0.000000
    12  C    1.380532   0.000000
    13  C    2.418319   1.417008   0.000000
    14  C    2.785937   2.420655   1.380789   0.000000
    15  C    2.447001   2.826657   2.440091   1.414206   0.000000
    16  C    3.812780   4.292562   3.761744   2.480150   1.466670
    17  O    4.810672   5.019444   4.166754   2.785987   2.363705
    18  C    4.301117   5.142931   4.933505   3.791412   2.493446
    19  S    7.726018   8.975437   9.241489   8.322201   6.919561
    20  O    8.773950   9.946377  10.047939   9.000954   7.645846
    21  O    7.751031   9.065185   9.506375   8.730743   7.324036
    22  O    8.123110   9.373561   9.675168   8.793183   7.410525
    23  H    7.449135   8.135914   7.616810   6.280550   5.320660
    24  H    8.359743   9.397007   9.286965   8.116843   6.847773
    25  H    5.010679   6.343997   6.877915   6.246167   4.859082
    26  H    1.084650   2.156247   3.415258   3.870166   3.412886
    27  H    2.145046   1.087276   2.176085   3.404345   3.913928
    28  H    3.402267   2.175484   1.087409   2.144267   3.423447
    29  H    3.870077   3.416504   2.155775   1.084496   2.136168
                   16         17         18         19         20
    16  C    0.000000
    17  O    1.256388   0.000000
    18  C    1.471569   2.406432   0.000000
    19  S    6.152907   6.932070   4.681614   0.000000
    20  O    6.660119   7.222872   5.231590   1.519401   0.000000
    21  O    6.773363   7.683472   5.339955   1.477950   2.494121
    22  O    6.693077   7.469393   5.271876   1.482311   2.486520
    23  H    3.876859   3.677507   3.191365   4.875705   4.479588
    24  H    5.667317   6.019992   4.356065   2.478579   1.603113
    25  H    4.670976   5.803889   3.435579   2.937472   4.260996
    26  H    4.671268   5.757722   4.902590   7.721102   8.887485
    27  H    5.379706   6.081337   6.204669   9.870580  10.899296
    28  H    4.624177   4.809514   5.896723  10.296289  11.063476
    29  H    2.630998   2.411306   4.089215   8.756308   9.285066
                   21         22         23         24         25
    21  O    0.000000
    22  O    2.491166   0.000000
    23  H    6.001246   5.488859   0.000000
    24  H    3.702614   3.241025   2.936506   0.000000
    25  H    2.817193   3.452107   5.511489   4.538732   0.000000
    26  H    7.579879   8.074801   8.092909   8.663940   4.852196
    27  H    9.872251  10.239223   9.220914  10.417139   7.137162
    28  H   10.581444  10.724556   8.400624  10.241715   7.964558
    29  H    9.285007   9.241446   6.082733   8.245811   6.949998
                   26         27         28         29
    26  H    0.000000
    27  H    2.496177   0.000000
    28  H    4.317343   2.506497   0.000000
    29  H    4.954006   4.317964   2.493787   0.000000
 Symmetry turned off by external request.
 Stoichiometry    C14H7O7S(2-,2)
 Framework group  C1[X(C14H7O7S)]
 Deg. of freedom    81
 Full point group                 C1      NOp   1
 Rotational constants (GHZ):           0.5776577           0.1589145           0.1277645
 Leave Link  202 at Sun Jan  7 04:59:05 2024, MaxMem=  4026531840 cpu:               0.5 elap:               0.2
 (Enter /sysapps/ubuntu-applications/gaussian/Gaussian/AVX2/g16/l301.exe)
 Standard basis: 6-311++G(d,p) (5D, 7F)
 Ernie: Thresh=  0.10000D-02 Tol=  0.10000D-05 Strict=F.
   541 basis functions,   869 primitive gaussians,   563 cartesian basis functions
    83 alpha electrons       82 beta electrons
       nuclear repulsion energy      1901.6071098671 Hartrees.
 IExCor=  402 DFT=T Ex+Corr=B3LYP ExCW=0 ScaHFX=  0.200000
 ScaDFX=  0.800000  0.720000  1.000000  0.810000 ScalE2=  1.000000  1.000000
 IRadAn=      5 IRanWt=     -1 IRanGd=            0 ICorTp=0 IEmpDi=  4
 NAtoms=   29 NActive=   29 NUniq=   29 SFac= 1.00D+00 NAtFMM=   60 NAOKFM=F Big=F
 Integral buffers will be    131072 words long.
 Raffenetti 2 integral format.
 Two-electron integral symmetry is turned off.
 Leave Link  301 at Sun Jan  7 04:59:05 2024, MaxMem=  4026531840 cpu:               0.4 elap:               0.1
 (Enter /sysapps/ubuntu-applications/gaussian/Gaussian/AVX2/g16/l302.exe)
 NPDir=0 NMtPBC=     1 NCelOv=     1 NCel=       1 NClECP=     1 NCelD=      1
         NCelK=      1 NCelE2=     1 NClLst=     1 CellRange=     0.0.
 One-electron integrals computed using PRISM.
 NBasis=   541 RedAO= T EigKep=  1.07D-06  NBF=   541
 NBsUse=   534 1.00D-06 EigRej=  7.18D-07 NBFU=   534
 Precomputing XC quadrature grid using
 IXCGrd= 4 IRadAn=           5 IRanWt=          -1 IRanGd=           0 AccXCQ= 0.00D+00.
 Generated NRdTot=       0 NPtTot=           0 NUsed=           0 NTot=          32
 NSgBfM=   558   558   558   558   558 MxSgAt=    29 MxSgA2=    29.
 Leave Link  302 at Sun Jan  7 04:59:06 2024, MaxMem=  4026531840 cpu:               5.1 elap:               0.7
 (Enter /sysapps/ubuntu-applications/gaussian/Gaussian/AVX2/g16/l303.exe)
 DipDrv:  MaxL=1.
 Leave Link  303 at Sun Jan  7 04:59:06 2024, MaxMem=  4026531840 cpu:               1.2 elap:               0.2
 (Enter /sysapps/ubuntu-applications/gaussian/Gaussian/AVX2/g16/l401.exe)
 ExpMin= 3.60D-02 ExpMax= 9.34D+04 ExpMxC= 3.17D+03 IAcc=3 IRadAn=         5 AccDes= 0.00D+00
 Harris functional with IExCor=  402 and IRadAn=       5 diagonalized for initial guess.
 HarFok:  IExCor=  402 AccDes= 0.00D+00 IRadAn=         5 IDoV= 1 UseB2=F ITyADJ=14
 ICtDFT=  3500011 ScaDFX=  1.000000  1.000000  1.000000  1.000000
 FoFCou: FMM=F IPFlag=           0 FMFlag=      100000 FMFlg1=           0
         NFxFlg=           0 DoJE=T BraDBF=F KetDBF=T FulRan=T
         wScrn=  0.000000 ICntrl=       500 IOpCl=  0 I1Cent=   200000004 NGrid=           0
         NMat0=    1 NMatS0=      1 NMatT0=    0 NMatD0=    1 NMtDS0=    0 NMtDT0=    0
 Symmetry not used in FoFCou.
 Harris En= -1463.24361009378    
 JPrj=0 DoOrth=F DoCkMO=F.
 Initial guess <Sx>= 0.0000 <Sy>= 0.0000 <Sz>= 0.5000 <S**2>= 0.7500 S= 0.5000
 Leave Link  401 at Sun Jan  7 04:59:10 2024, MaxMem=  4026531840 cpu:              30.9 elap:               4.0
 (Enter /sysapps/ubuntu-applications/gaussian/Gaussian/AVX2/g16/l502.exe)
 Two-electron integral symmetry not used.
 UHF open shell SCF:
 Using DIIS extrapolation, IDIIS=  1040.
 NGot=  4026531840 LenX=  4025889512 LenY=  4025571980
 Requested convergence on RMS density matrix=1.00D-08 within 128 cycles.
 Requested convergence on MAX density matrix=1.00D-06.
 Requested convergence on             energy=1.00D-06.
 No special actions if energy rises.
 Fock matrices will be formed incrementally for  20 cycles.

 Cycle   1  Pass 1  IDiag  1:
 FoFJK:  IHMeth= 1 ICntrl=       0 DoSepK=F KAlg= 0 I1Cent=           0 FoldK=F
 IRaf= 810000000 NMat=       1 IRICut=       1 DoRegI=T DoRafI=F ISym2E= 0 IDoP0=0 IntGTp=1.
 FoFCou: FMM=F IPFlag=           0 FMFlag=      100000 FMFlg1=           0
         NFxFlg=           0 DoJE=F BraDBF=F KetDBF=F FulRan=T
         wScrn=  0.000000 ICntrl=         0 IOpCl=  1 I1Cent=           0 NGrid=           0
         NMat0=    1 NMatS0=      1 NMatT0=    0 NMatD0=    1 NMtDS0=    0 NMtDT0=    0
 Symmetry not used in FoFCou.
 E= -1462.04280918215    
 DIIS: error= 3.79D-02 at cycle   1 NSaved=   1.
 NSaved= 1 IEnMin= 1 EnMin= -1462.04280918215     IErMin= 1 ErrMin= 3.79D-02
 ErrMax= 3.79D-02  0.00D+00 EMaxC= 1.00D-01 BMatC= 4.34D+00 BMatP= 4.34D+00
 IDIUse=3 WtCom= 6.21D-01 WtEn= 3.79D-01
 Coeff-Com:  0.100D+01
 Coeff-En:   0.100D+01
 Coeff:      0.100D+01
 Gap=     0.071 Goal=   None    Shift=    0.000
 Gap=     0.166 Goal=   None    Shift=    0.000
 GapD=    0.071 DampG=0.500 DampE=0.500 DampFc=0.2500 IDamp=-1.
 Damping current iteration by 2.50D-01
 RMSDP=1.97D+00 MaxDP=2.05D+02              OVMax= 9.97D-01

 Cycle   2  Pass 1  IDiag  1:
 RMSU=  4.70D-01    CP:  2.30D+00
 E= -1462.12884454637     Delta-E=       -0.086035364223 Rises=F Damp=T
 DIIS: error= 2.12D-02 at cycle   2 NSaved=   2.
 NSaved= 2 IEnMin= 2 EnMin= -1462.12884454637     IErMin= 2 ErrMin= 2.12D-02
 ErrMax= 2.12D-02  0.00D+00 EMaxC= 1.00D-01 BMatC= 7.08D-01 BMatP= 4.34D+00
 IDIUse=3 WtCom= 7.88D-01 WtEn= 2.12D-01
 Coeff-Com: -0.254D+00 0.125D+01
 Coeff-En:   0.403D+00 0.597D+00
 Coeff:     -0.115D+00 0.111D+01
 Gap=    -0.009 Goal=   None    Shift=    0.000
 Gap=    -0.145 Goal=   None    Shift=    0.000
 RMSDP=4.80D-01 MaxDP=4.99D+01 DE=-8.60D-02 OVMax= 7.26D-01

 Cycle   3  Pass 1  IDiag  1:
 RMSU=  4.86D-02    CP:  1.69D+00 -4.72D-03
 E= -1462.17228930413     Delta-E=       -0.043444757751 Rises=F Damp=F
 DIIS: error= 6.36D-02 at cycle   3 NSaved=   3.
 NSaved= 3 IEnMin= 3 EnMin= -1462.17228930413     IErMin= 2 ErrMin= 2.12D-02
 ErrMax= 6.36D-02  0.00D+00 EMaxC= 1.00D-01 BMatC= 2.54D+00 BMatP= 7.08D-01
 IDIUse=2 WtCom= 0.00D+00 WtEn= 1.00D+00
 EnCoef did     3 forward-backward iterations
 Coeff-En:   0.929D-01 0.411D+00 0.496D+00
 Coeff:      0.929D-01 0.411D+00 0.496D+00
 Gap=     0.142 Goal=   None    Shift=    0.000
 Gap=     0.183 Goal=   None    Shift=    0.000
 RMSDP=4.00D-01 MaxDP=2.95D+01 DE=-4.34D-02 OVMax= 9.29D-01

 Cycle   4  Pass 1  IDiag  1:
 RMSU=  3.77D-01    CP:  1.89D+00  2.35D-01 -3.46D-01
 E= -1461.30401786951     Delta-E=        0.868271434613 Rises=F Damp=F
 DIIS: error= 1.09D-01 at cycle   4 NSaved=   4.
 NSaved= 4 IEnMin= 3 EnMin= -1462.17228930413     IErMin= 2 ErrMin= 2.12D-02
 ErrMax= 1.09D-01  0.00D+00 EMaxC= 1.00D-01 BMatC= 4.65D+00 BMatP= 7.08D-01
 IDIUse=2 WtCom= 0.00D+00 WtEn= 1.00D+00
 EnCoef did     2 forward-backward iterations
 Coeff-En:   0.119D+00 0.000D+00 0.560D+00 0.322D+00
 Coeff:      0.119D+00 0.000D+00 0.560D+00 0.322D+00
 Gap=     0.108 Goal=   None    Shift=    0.000
 Gap=    -0.109 Goal=   None    Shift=    0.000
 RMSDP=4.00D-01 MaxDP=2.99D+01 DE= 8.68D-01 OVMax= 9.24D-01

 Cycle   5  Pass 1  IDiag  1:
 RMSU=  1.33D-02    CP:  1.37D+00 -4.68D-04  4.93D-01 -7.45D-04
 E= -1462.71667028563     Delta-E=       -1.412652416113 Rises=F Damp=F
 DIIS: error= 2.43D-02 at cycle   5 NSaved=   5.
 NSaved= 5 IEnMin= 5 EnMin= -1462.71667028563     IErMin= 2 ErrMin= 2.12D-02
 ErrMax= 2.43D-02  0.00D+00 EMaxC= 1.00D-01 BMatC= 4.52D-01 BMatP= 7.08D-01
 IDIUse=3 WtCom= 7.57D-01 WtEn= 2.43D-01
 Coeff-Com: -0.111D+00 0.460D+00 0.283D+00 0.688D-01 0.300D+00
 Coeff-En:   0.000D+00 0.000D+00 0.889D-01 0.000D+00 0.911D+00
 Coeff:     -0.844D-01 0.348D+00 0.236D+00 0.521D-01 0.448D+00
 Gap=     0.082 Goal=   None    Shift=    0.000
 Gap=     0.217 Goal=   None    Shift=    0.000
 RMSDP=1.27D-02 MaxDP=8.89D-01 DE=-1.41D+00 OVMax= 3.58D-01

 Cycle   6  Pass 1  IDiag  1:
 RMSU=  6.96D-03    CP:  1.40D+00 -3.30D-03  6.46D-01 -9.08D-04  5.28D-01
 E= -1462.73563286620     Delta-E=       -0.018962580576 Rises=F Damp=F
 DIIS: error= 1.99D-02 at cycle   6 NSaved=   6.
 NSaved= 6 IEnMin= 6 EnMin= -1462.73563286620     IErMin= 6 ErrMin= 1.99D-02
 ErrMax= 1.99D-02  0.00D+00 EMaxC= 1.00D-01 BMatC= 3.87D-01 BMatP= 4.52D-01
 IDIUse=3 WtCom= 8.01D-01 WtEn= 1.99D-01
 Coeff-Com: -0.122D+00 0.217D+00 0.722D-01-0.111D-01 0.415D+00 0.429D+00
 Coeff-En:   0.000D+00 0.000D+00 0.000D+00 0.000D+00 0.462D+00 0.538D+00
 Coeff:     -0.979D-01 0.174D+00 0.579D-01-0.888D-02 0.424D+00 0.451D+00
 Gap=     0.074 Goal=   None    Shift=    0.000
 Gap=     0.124 Goal=   None    Shift=    0.000
 RMSDP=4.64D-03 MaxDP=3.14D-01 DE=-1.90D-02 OVMax= 1.88D-01

 Cycle   7  Pass 1  IDiag  1:
 RMSU=  2.50D-03    CP:  1.41D+00 -2.20D-03  6.33D-01 -1.79D-03  7.98D-01
                    CP:  8.31D-01
 E= -1462.82225531611     Delta-E=       -0.086622449907 Rises=F Damp=F
 DIIS: error= 3.25D-03 at cycle   7 NSaved=   7.
 NSaved= 7 IEnMin= 7 EnMin= -1462.82225531611     IErMin= 7 ErrMin= 3.25D-03
 ErrMax= 3.25D-03  0.00D+00 EMaxC= 1.00D-01 BMatC= 8.78D-03 BMatP= 3.87D-01
 IDIUse=3 WtCom= 9.67D-01 WtEn= 3.25D-02
 Coeff-Com: -0.425D-01 0.720D-01 0.187D-02-0.103D-02 0.155D+00 0.152D+00
 Coeff-Com:  0.663D+00
 Coeff-En:   0.000D+00 0.000D+00 0.000D+00 0.000D+00 0.000D+00 0.000D+00
 Coeff-En:   0.100D+01
 Coeff:     -0.411D-01 0.696D-01 0.181D-02-0.995D-03 0.150D+00 0.147D+00
 Coeff:      0.674D+00
 Gap=     0.061 Goal=   None    Shift=    0.000
 Gap=     0.131 Goal=   None    Shift=    0.000
 RMSDP=1.61D-03 MaxDP=1.10D-01 DE=-8.66D-02 OVMax= 4.58D-02

 Cycle   8  Pass 1  IDiag  1:
 RMSU=  1.18D-03    CP:  1.41D+00 -2.13D-03  6.35D-01 -1.67D-03  8.71D-01
                    CP:  7.86D-01  8.80D-01
 E= -1462.82361020889     Delta-E=       -0.001354892782 Rises=F Damp=F
 DIIS: error= 2.22D-03 at cycle   8 NSaved=   8.
 NSaved= 8 IEnMin= 8 EnMin= -1462.82361020889     IErMin= 8 ErrMin= 2.22D-03
 ErrMax= 2.22D-03  0.00D+00 EMaxC= 1.00D-01 BMatC= 5.27D-03 BMatP= 8.78D-03
 IDIUse=3 WtCom= 9.78D-01 WtEn= 2.22D-02
 Coeff-Com: -0.112D-01 0.201D-01-0.145D-01 0.140D-02 0.214D-01 0.611D-02
 Coeff-Com:  0.497D+00 0.480D+00
 Coeff-En:   0.000D+00 0.000D+00 0.000D+00 0.000D+00 0.000D+00 0.000D+00
 Coeff-En:   0.300D+00 0.700D+00
 Coeff:     -0.109D-01 0.197D-01-0.142D-01 0.136D-02 0.210D-01 0.598D-02
 Coeff:      0.492D+00 0.485D+00
 Gap=     0.061 Goal=   None    Shift=    0.000
 Gap=     0.132 Goal=   None    Shift=    0.000
 RMSDP=8.34D-04 MaxDP=7.02D-02 DE=-1.35D-03 OVMax= 2.00D-02

 Cycle   9  Pass 1  IDiag  1:
 RMSU=  5.11D-04    CP:  1.41D+00 -2.08D-03  6.29D-01 -1.85D-03  8.66D-01
                    CP:  7.89D-01  1.04D+00  6.36D-01
 E= -1462.82498059441     Delta-E=       -0.001370385522 Rises=F Damp=F
 DIIS: error= 5.62D-04 at cycle   9 NSaved=   9.
 NSaved= 9 IEnMin= 9 EnMin= -1462.82498059441     IErMin= 9 ErrMin= 5.62D-04
 ErrMax= 5.62D-04  0.00D+00 EMaxC= 1.00D-01 BMatC= 2.33D-04 BMatP= 5.27D-03
 IDIUse=3 WtCom= 9.94D-01 WtEn= 5.62D-03
 Coeff-Com: -0.121D-02 0.329D-02-0.588D-02 0.174D-02-0.996D-02-0.907D-02
 Coeff-Com:  0.113D+00 0.193D+00 0.715D+00
 Coeff-En:   0.000D+00 0.000D+00 0.000D+00 0.000D+00 0.000D+00 0.000D+00
 Coeff-En:   0.000D+00 0.000D+00 0.100D+01
 Coeff:     -0.120D-02 0.327D-02-0.585D-02 0.173D-02-0.991D-02-0.902D-02
 Coeff:      0.113D+00 0.192D+00 0.716D+00
 Gap=     0.060 Goal=   None    Shift=    0.000
 Gap=     0.132 Goal=   None    Shift=    0.000
 RMSDP=4.17D-04 MaxDP=4.43D-02 DE=-1.37D-03 OVMax= 8.72D-03

 Cycle  10  Pass 1  IDiag  1:
 RMSU=  2.25D-04    CP:  1.41D+00 -2.06D-03  6.30D-01 -1.85D-03  8.75D-01
                    CP:  7.98D-01  1.01D+00  7.85D-01  7.72D-01
 E= -1462.82507598258     Delta-E=       -0.000095388164 Rises=F Damp=F
 DIIS: error= 2.89D-04 at cycle  10 NSaved=  10.
 NSaved=10 IEnMin=10 EnMin= -1462.82507598258     IErMin=10 ErrMin= 2.89D-04
 ErrMax= 2.89D-04  0.00D+00 EMaxC= 1.00D-01 BMatC= 1.04D-04 BMatP= 2.33D-04
 IDIUse=3 WtCom= 9.97D-01 WtEn= 2.89D-03
 Coeff-Com: -0.189D-03 0.142D-02-0.238D-03 0.140D-03-0.105D-01-0.321D-02
 Coeff-Com: -0.444D-01-0.667D-02 0.445D+00 0.619D+00
 Coeff-En:   0.000D+00 0.000D+00 0.000D+00 0.000D+00 0.000D+00 0.000D+00
 Coeff-En:   0.000D+00 0.000D+00 0.000D+00 0.100D+01
 Coeff:     -0.188D-03 0.142D-02-0.237D-03 0.140D-03-0.104D-01-0.320D-02
 Coeff:     -0.443D-01-0.665D-02 0.444D+00 0.620D+00
 Gap=     0.061 Goal=   None    Shift=    0.000
 Gap=     0.132 Goal=   None    Shift=    0.000
 RMSDP=2.27D-04 MaxDP=1.95D-02 DE=-9.54D-05 OVMax= 6.17D-03

 Cycle  11  Pass 1  IDiag  1:
 RMSU=  1.13D-04    CP:  1.41D+00 -2.08D-03  6.29D-01 -1.87D-03  8.66D-01
                    CP:  7.99D-01  1.04D+00  7.50D-01  9.66D-01  6.92D-01
 E= -1462.82511277171     Delta-E=       -0.000036789129 Rises=F Damp=F
 DIIS: error= 1.59D-04 at cycle  11 NSaved=  11.
 NSaved=11 IEnMin=11 EnMin= -1462.82511277171     IErMin=11 ErrMin= 1.59D-04
 ErrMax= 1.59D-04  0.00D+00 EMaxC= 1.00D-01 BMatC= 2.76D-05 BMatP= 1.04D-04
 IDIUse=3 WtCom= 9.98D-01 WtEn= 1.59D-03
 Coeff-Com:  0.220D-03-0.349D-03 0.195D-02-0.206D-03-0.228D-02 0.454D-03
 Coeff-Com: -0.541D-01-0.627D-01 0.646D-01 0.382D+00 0.671D+00
 Coeff-En:   0.000D+00 0.000D+00 0.000D+00 0.000D+00 0.000D+00 0.000D+00
 Coeff-En:   0.000D+00 0.000D+00 0.000D+00 0.000D+00 0.100D+01
 Coeff:      0.219D-03-0.348D-03 0.195D-02-0.206D-03-0.227D-02 0.453D-03
 Coeff:     -0.540D-01-0.626D-01 0.645D-01 0.381D+00 0.671D+00
 Gap=     0.061 Goal=   None    Shift=    0.000
 Gap=     0.132 Goal=   None    Shift=    0.000
 RMSDP=2.09D-04 MaxDP=1.57D-02 DE=-3.68D-05 OVMax= 2.27D-03

 Cycle  12  Pass 1  IDiag  1:
 RMSU=  7.09D-05    CP:  1.41D+00 -2.08D-03  6.31D-01 -1.85D-03  8.69D-01
                    CP:  7.98D-01  1.03D+00  7.85D-01  9.28D-01  8.30D-01
                    CP:  6.56D-01
 E= -1462.82512395348     Delta-E=       -0.000011181776 Rises=F Damp=F
 DIIS: error= 8.61D-05 at cycle  12 NSaved=  12.
 NSaved=12 IEnMin=12 EnMin= -1462.82512395348     IErMin=12 ErrMin= 8.61D-05
 ErrMax= 8.61D-05  0.00D+00 EMaxC= 1.00D-01 BMatC= 1.07D-05 BMatP= 2.76D-05
 IDIUse=1 WtCom= 1.00D+00 WtEn= 0.00D+00
 Coeff-Com:  0.559D-03-0.126D-02 0.148D-02-0.212D-03 0.182D-02-0.327D-03
 Coeff-Com: -0.148D-01-0.367D-01-0.124D+00 0.403D-01 0.466D+00 0.668D+00
 Coeff:      0.559D-03-0.126D-02 0.148D-02-0.212D-03 0.182D-02-0.327D-03
 Coeff:     -0.148D-01-0.367D-01-0.124D+00 0.403D-01 0.466D+00 0.668D+00
 Gap=     0.061 Goal=   None    Shift=    0.000
 Gap=     0.132 Goal=   None    Shift=    0.000
 RMSDP=1.24D-04 MaxDP=1.20D-02 DE=-1.12D-05 OVMax= 1.73D-03

 Cycle  13  Pass 1  IDiag  1:
 RMSU=  3.64D-05    CP:  1.41D+00 -2.07D-03  6.30D-01 -1.86D-03  8.68D-01
                    CP:  7.95D-01  1.04D+00  7.93D-01  9.29D-01  8.39D-01
                    CP:  9.31D-01  8.20D-01
 E= -1462.82512789582     Delta-E=       -0.000003942334 Rises=F Damp=F
 DIIS: error= 4.57D-05 at cycle  13 NSaved=  13.
 NSaved=13 IEnMin=13 EnMin= -1462.82512789582     IErMin=13 ErrMin= 4.57D-05
 ErrMax= 4.57D-05  0.00D+00 EMaxC= 1.00D-01 BMatC= 2.70D-06 BMatP= 1.07D-05
 IDIUse=1 WtCom= 1.00D+00 WtEn= 0.00D+00
 Coeff-Com:  0.434D-03-0.747D-03 0.618D-03-0.122D-03 0.150D-02-0.378D-03
 Coeff-Com:  0.562D-02-0.455D-02-0.826D-01-0.541D-01 0.958D-01 0.358D+00
 Coeff-Com:  0.680D+00
 Coeff:      0.434D-03-0.747D-03 0.618D-03-0.122D-03 0.150D-02-0.378D-03
 Coeff:      0.562D-02-0.455D-02-0.826D-01-0.541D-01 0.958D-01 0.358D+00
 Coeff:      0.680D+00
 Gap=     0.061 Goal=   None    Shift=    0.000
 Gap=     0.132 Goal=   None    Shift=    0.000
 RMSDP=2.57D-05 MaxDP=2.39D-03 DE=-3.94D-06 OVMax= 6.12D-04

 Cycle  14  Pass 1  IDiag  1:
 RMSU=  1.09D-05    CP:  1.41D+00 -2.07D-03  6.30D-01 -1.86D-03  8.68D-01
                    CP:  7.94D-01  1.04D+00  7.94D-01  9.29D-01  8.09D-01
                    CP:  9.88D-01  9.83D-01  1.04D+00
 E= -1462.82512859382     Delta-E=       -0.000000698008 Rises=F Damp=F
 DIIS: error= 2.63D-05 at cycle  14 NSaved=  14.
 NSaved=14 IEnMin=14 EnMin= -1462.82512859382     IErMin=14 ErrMin= 2.63D-05
 ErrMax= 2.63D-05  0.00D+00 EMaxC= 1.00D-01 BMatC= 8.12D-07 BMatP= 2.70D-06
 IDIUse=1 WtCom= 1.00D+00 WtEn= 0.00D+00
 Coeff-Com:  0.292D-03-0.377D-03 0.429D-04-0.325D-04 0.385D-03-0.146D-03
 Coeff-Com:  0.808D-02 0.733D-02-0.174D-01-0.384D-01-0.702D-01 0.545D-01
 Coeff-Com:  0.423D+00 0.633D+00
 Coeff:      0.292D-03-0.377D-03 0.429D-04-0.325D-04 0.385D-03-0.146D-03
 Coeff:      0.808D-02 0.733D-02-0.174D-01-0.384D-01-0.702D-01 0.545D-01
 Coeff:      0.423D+00 0.633D+00
 Gap=     0.061 Goal=   None    Shift=    0.000
 Gap=     0.132 Goal=   None    Shift=    0.000
 RMSDP=1.83D-05 MaxDP=2.23D-03 DE=-6.98D-07 OVMax= 3.70D-04

 Cycle  15  Pass 1  IDiag  1:
 RMSU=  6.46D-06    CP:  1.41D+00 -2.07D-03  6.30D-01 -1.85D-03  8.68D-01
                    CP:  7.94D-01  1.03D+00  7.97D-01  9.10D-01  8.41D-01
                    CP:  9.75D-01  1.02D+00  1.06D+00  8.50D-01
 E= -1462.82512883957     Delta-E=       -0.000000245742 Rises=F Damp=F
 DIIS: error= 1.26D-05 at cycle  15 NSaved=  15.
 NSaved=15 IEnMin=15 EnMin= -1462.82512883957     IErMin=15 ErrMin= 1.26D-05
 ErrMax= 1.26D-05  0.00D+00 EMaxC= 1.00D-01 BMatC= 1.71D-07 BMatP= 8.12D-07
 IDIUse=1 WtCom= 1.00D+00 WtEn= 0.00D+00
 Coeff-Com:  0.158D-03-0.185D-03-0.465D-04 0.282D-05-0.737D-06 0.239D-05
 Coeff-Com:  0.423D-02 0.508D-02 0.392D-02-0.116D-01-0.609D-01-0.224D-01
 Coeff-Com:  0.126D+00 0.374D+00 0.581D+00
 Coeff:      0.158D-03-0.185D-03-0.465D-04 0.282D-05-0.737D-06 0.239D-05
 Coeff:      0.423D-02 0.508D-02 0.392D-02-0.116D-01-0.609D-01-0.224D-01
 Coeff:      0.126D+00 0.374D+00 0.581D+00
 Gap=     0.061 Goal=   None    Shift=    0.000
 Gap=     0.132 Goal=   None    Shift=    0.000
 RMSDP=8.43D-06 MaxDP=7.41D-04 DE=-2.46D-07 OVMax= 1.56D-04

 Cycle  16  Pass 1  IDiag  1:
 RMSU=  2.82D-06    CP:  1.41D+00 -2.07D-03  6.30D-01 -1.85D-03  8.67D-01
                    CP:  7.93D-01  1.03D+00  7.95D-01  9.12D-01  8.24D-01
                    CP:  9.93D-01  1.02D+00  1.14D+00  9.62D-01  7.87D-01
 E= -1462.82512889316     Delta-E=       -0.000000053594 Rises=F Damp=F
 DIIS: error= 7.31D-06 at cycle  16 NSaved=  16.
 NSaved=16 IEnMin=16 EnMin= -1462.82512889316     IErMin=16 ErrMin= 7.31D-06
 ErrMax= 7.31D-06  0.00D+00 EMaxC= 1.00D-01 BMatC= 3.94D-08 BMatP= 1.71D-07
 IDIUse=1 WtCom= 1.00D+00 WtEn= 0.00D+00
 Coeff-Com:  0.414D-05 0.212D-04-0.446D-04 0.370D-05-0.128D-03 0.428D-04
 Coeff-Com:  0.302D-03 0.766D-03 0.950D-02 0.681D-02-0.178D-01-0.355D-01
 Coeff-Com: -0.766D-01 0.724D-02 0.362D+00 0.743D+00
 Coeff:      0.414D-05 0.212D-04-0.446D-04 0.370D-05-0.128D-03 0.428D-04
 Coeff:      0.302D-03 0.766D-03 0.950D-02 0.681D-02-0.178D-01-0.355D-01
 Coeff:     -0.766D-01 0.724D-02 0.362D+00 0.743D+00
 Gap=     0.061 Goal=   None    Shift=    0.000
 Gap=     0.132 Goal=   None    Shift=    0.000
 RMSDP=5.25D-06 MaxDP=3.70D-04 DE=-5.36D-08 OVMax= 1.44D-04

 Cycle  17  Pass 1  IDiag  1:
 RMSU=  1.66D-06    CP:  1.41D+00 -2.07D-03  6.30D-01 -1.85D-03  8.67D-01
                    CP:  7.93D-01  1.03D+00  7.96D-01  9.10D-01  8.26D-01
                    CP:  9.76D-01  1.04D+00  1.13D+00  9.92D-01  9.82D-01
                    CP:  9.19D-01
 E= -1462.82512891774     Delta-E=       -0.000000024577 Rises=F Damp=F
 DIIS: error= 2.64D-06 at cycle  17 NSaved=  17.
 NSaved=17 IEnMin=17 EnMin= -1462.82512891774     IErMin=17 ErrMin= 2.64D-06
 ErrMax= 2.64D-06  0.00D+00 EMaxC= 1.00D-01 BMatC= 8.20D-09 BMatP= 3.94D-08
 IDIUse=1 WtCom= 1.00D+00 WtEn= 0.00D+00
 Coeff-Com: -0.386D-04 0.439D-04-0.563D-05 0.471D-05-0.349D-04-0.142D-04
 Coeff-Com: -0.105D-02-0.129D-02 0.344D-02 0.680D-02 0.929D-02-0.114D-01
 Coeff-Com: -0.656D-01-0.101D+00 0.348D-02 0.288D+00 0.870D+00
 Coeff:     -0.386D-04 0.439D-04-0.563D-05 0.471D-05-0.349D-04-0.142D-04
 Coeff:     -0.105D-02-0.129D-02 0.344D-02 0.680D-02 0.929D-02-0.114D-01
 Coeff:     -0.656D-01-0.101D+00 0.348D-02 0.288D+00 0.870D+00
 Gap=     0.061 Goal=   None    Shift=    0.000
 Gap=     0.132 Goal=   None    Shift=    0.000
 RMSDP=4.41D-06 MaxDP=5.21D-04 DE=-2.46D-08 OVMax= 9.13D-05

 Cycle  18  Pass 1  IDiag  1:
 RMSU=  1.24D-06    CP:  1.41D+00 -2.07D-03  6.30D-01 -1.85D-03  8.67D-01
                    CP:  7.93D-01  1.03D+00  7.96D-01  9.09D-01  8.25D-01
                    CP:  9.87D-01  1.03D+00  1.15D+00  1.02D+00  1.01D+00
                    CP:  1.00D+00  1.04D+00
 E= -1462.82512892486     Delta-E=       -0.000000007119 Rises=F Damp=F
 DIIS: error= 1.83D-06 at cycle  18 NSaved=  18.
 NSaved=18 IEnMin=18 EnMin= -1462.82512892486     IErMin=18 ErrMin= 1.83D-06
 ErrMax= 1.83D-06  0.00D+00 EMaxC= 1.00D-01 BMatC= 5.03D-09 BMatP= 8.20D-09
 IDIUse=1 WtCom= 1.00D+00 WtEn= 0.00D+00
 Coeff-Com: -0.405D-04 0.444D-04 0.165D-04-0.298D-06 0.279D-04-0.489D-04
 Coeff-Com: -0.895D-03-0.135D-02-0.144D-02 0.220D-02 0.141D-01 0.537D-02
 Coeff-Com: -0.159D-01-0.722D-01-0.132D+00-0.105D+00 0.605D+00 0.702D+00
 Coeff:     -0.405D-04 0.444D-04 0.165D-04-0.298D-06 0.279D-04-0.489D-04
 Coeff:     -0.895D-03-0.135D-02-0.144D-02 0.220D-02 0.141D-01 0.537D-02
 Coeff:     -0.159D-01-0.722D-01-0.132D+00-0.105D+00 0.605D+00 0.702D+00
 Gap=     0.061 Goal=   None    Shift=    0.000
 Gap=     0.132 Goal=   None    Shift=    0.000
 RMSDP=2.06D-06 MaxDP=1.63D-04 DE=-7.12D-09 OVMax= 6.87D-05

 Cycle  19  Pass 1  IDiag  1:
 RMSU=  5.80D-07    CP:  1.41D+00 -2.07D-03  6.30D-01 -1.85D-03  8.67D-01
                    CP:  7.93D-01  1.03D+00  7.96D-01  9.09D-01  8.26D-01
                    CP:  9.84D-01  1.03D+00  1.15D+00  1.02D+00  1.06D+00
                    CP:  1.06D+00  1.18D+00  9.88D-01
 E= -1462.82512892773     Delta-E=       -0.000000002874 Rises=F Damp=F
 DIIS: error= 1.41D-06 at cycle  19 NSaved=  19.
 NSaved=19 IEnMin=19 EnMin= -1462.82512892773     IErMin=19 ErrMin= 1.41D-06
 ErrMax= 1.41D-06  0.00D+00 EMaxC= 1.00D-01 BMatC= 1.13D-09 BMatP= 5.03D-09
 IDIUse=1 WtCom= 1.00D+00 WtEn= 0.00D+00
 Coeff-Com: -0.196D-04 0.238D-04 0.110D-04-0.583D-06 0.209D-04-0.294D-04
 Coeff-Com: -0.360D-03-0.572D-03-0.132D-02 0.104D-03 0.581D-02 0.425D-02
 Coeff-Com:  0.282D-02-0.178D-01-0.693D-01-0.125D+00 0.147D+00 0.383D+00
 Coeff-Com:  0.670D+00
 Coeff:     -0.196D-04 0.238D-04 0.110D-04-0.583D-06 0.209D-04-0.294D-04
 Coeff:     -0.360D-03-0.572D-03-0.132D-02 0.104D-03 0.581D-02 0.425D-02
 Coeff:      0.282D-02-0.178D-01-0.693D-01-0.125D+00 0.147D+00 0.383D+00
 Coeff:      0.670D+00
 Gap=     0.061 Goal=   None    Shift=    0.000
 Gap=     0.132 Goal=   None    Shift=    0.000
 RMSDP=5.53D-07 MaxDP=4.18D-05 DE=-2.87D-09 OVMax= 2.52D-05

 Cycle  20  Pass 1  IDiag  1:
 RMSU=  2.93D-07    CP:  1.41D+00 -2.07D-03  6.30D-01 -1.85D-03  8.67D-01
                    CP:  7.93D-01  1.03D+00  7.96D-01  9.09D-01  8.26D-01
                    CP:  9.85D-01  1.03D+00  1.15D+00  1.01D+00  1.05D+00
                    CP:  1.12D+00  1.25D+00  9.81D-01  9.77D-01
 E= -1462.82512892823     Delta-E=       -0.000000000505 Rises=F Damp=F
 DIIS: error= 5.21D-07 at cycle  20 NSaved=  20.
 NSaved=20 IEnMin=20 EnMin= -1462.82512892823     IErMin=20 ErrMin= 5.21D-07
 ErrMax= 5.21D-07  0.00D+00 EMaxC= 1.00D-01 BMatC= 2.85D-10 BMatP= 1.13D-09
 IDIUse=1 WtCom= 1.00D+00 WtEn= 0.00D+00
 Coeff-Com: -0.167D-05 0.378D-05 0.177D-05-0.263D-06 0.510D-05-0.300D-05
 Coeff-Com:  0.273D-04 0.229D-04-0.331D-03-0.465D-03-0.886D-03 0.712D-03
 Coeff-Com:  0.632D-02 0.128D-01 0.206D-04-0.452D-01-0.102D+00 0.434D-02
 Coeff-Com:  0.401D+00 0.724D+00
 Coeff:     -0.167D-05 0.378D-05 0.177D-05-0.263D-06 0.510D-05-0.300D-05
 Coeff:      0.273D-04 0.229D-04-0.331D-03-0.465D-03-0.886D-03 0.712D-03
 Coeff:      0.632D-02 0.128D-01 0.206D-04-0.452D-01-0.102D+00 0.434D-02
 Coeff:      0.401D+00 0.724D+00
 Gap=     0.061 Goal=   None    Shift=    0.000
 Gap=     0.132 Goal=   None    Shift=    0.000
 RMSDP=4.84D-07 MaxDP=4.21D-05 DE=-5.05D-10 OVMax= 1.60D-05

 Cycle  21  Pass 1  IDiag  1:
 Restarting incremental Fock formation.
 E= -1462.82512892845     Delta-E=       -0.000000000220 Rises=F Damp=F
 DIIS: error= 1.40D-07 at cycle  21 NSaved=  20.
 NSaved=20 IEnMin=20 EnMin= -1462.82512892845     IErMin=20 ErrMin= 1.40D-07
 ErrMax= 1.40D-07  0.00D+00 EMaxC= 1.00D-01 BMatC= 5.05D-11 BMatP= 2.85D-10
 IDIUse=1 WtCom= 1.00D+00 WtEn= 0.00D+00
 Coeff-Com:  0.210D-05-0.147D-05-0.735D-06-0.574D-06 0.245D-05 0.706D-04
 Coeff-Com:  0.102D-03 0.454D-04-0.241D-03-0.150D-02-0.350D-03 0.285D-02
 Coeff-Com:  0.103D-01 0.110D-01-0.410D-02-0.789D-01-0.645D-01 0.119D+00
 Coeff-Com:  0.427D+00 0.579D+00
 Coeff:      0.210D-05-0.147D-05-0.735D-06-0.574D-06 0.245D-05 0.706D-04
 Coeff:      0.102D-03 0.454D-04-0.241D-03-0.150D-02-0.350D-03 0.285D-02
 Coeff:      0.103D-01 0.110D-01-0.410D-02-0.789D-01-0.645D-01 0.119D+00
 Coeff:      0.427D+00 0.579D+00
 Gap=     0.061 Goal=   None    Shift=    0.000
 Gap=     0.132 Goal=   None    Shift=    0.000
 RMSDP=4.13D-07 MaxDP=3.50D-05 DE=-2.20D-10 OVMax= 2.38D-06

 Cycle  22  Pass 1  IDiag  1:
 RMSU=  2.15D-07    CP:  1.00D+00
 E= -1462.82512892838     Delta-E=        0.000000000074 Rises=F Damp=F
 DIIS: error= 5.73D-08 at cycle  22 NSaved=  20.
 NSaved=20 IEnMin=19 EnMin= -1462.82512892845     IErMin=20 ErrMin= 5.73D-08
 ErrMax= 5.73D-08  0.00D+00 EMaxC= 1.00D-01 BMatC= 1.26D-11 BMatP= 5.05D-11
 IDIUse=1 WtCom= 1.00D+00 WtEn= 0.00D+00
 Coeff-Com:  0.536D-06-0.501D-06-0.413D-06 0.270D-05 0.105D-04 0.275D-04
 Coeff-Com:  0.137D-03 0.813D-04-0.334D-03-0.452D-03-0.893D-03 0.451D-03
 Coeff-Com:  0.300D-02 0.844D-02-0.571D-02-0.298D-01-0.333D-01 0.500D-01
 Coeff-Com:  0.333D+00 0.675D+00
 Coeff:      0.536D-06-0.501D-06-0.413D-06 0.270D-05 0.105D-04 0.275D-04
 Coeff:      0.137D-03 0.813D-04-0.334D-03-0.452D-03-0.893D-03 0.451D-03
 Coeff:      0.300D-02 0.844D-02-0.571D-02-0.298D-01-0.333D-01 0.500D-01
 Coeff:      0.333D+00 0.675D+00
 Gap=     0.061 Goal=   None    Shift=    0.000
 Gap=     0.132 Goal=   None    Shift=    0.000
 RMSDP=1.52D-07 MaxDP=1.07D-05 DE= 7.41D-11 OVMax= 1.15D-06

 Cycle  23  Pass 1  IDiag  1:
 RMSU=  5.21D-08    CP:  1.00D+00  6.27D-01
 E= -1462.82512892841     Delta-E=       -0.000000000030 Rises=F Damp=F
 DIIS: error= 5.29D-08 at cycle  23 NSaved=  20.
 NSaved=20 IEnMin=18 EnMin= -1462.82512892845     IErMin=20 ErrMin= 5.29D-08
 ErrMax= 5.29D-08  0.00D+00 EMaxC= 1.00D-01 BMatC= 4.39D-12 BMatP= 1.26D-11
 IDIUse=1 WtCom= 1.00D+00 WtEn= 0.00D+00
 Coeff-Com: -0.105D-06-0.620D-06 0.559D-06-0.254D-05 0.796D-05 0.846D-04
 Coeff-Com:  0.692D-04 0.110D-05-0.243D-03-0.865D-03-0.121D-02 0.800D-03
 Coeff-Com:  0.739D-02 0.105D-01-0.102D-01-0.531D-01-0.699D-01 0.570D-01
 Coeff-Com:  0.407D+00 0.653D+00
 Coeff:     -0.105D-06-0.620D-06 0.559D-06-0.254D-05 0.796D-05 0.846D-04
 Coeff:      0.692D-04 0.110D-05-0.243D-03-0.865D-03-0.121D-02 0.800D-03
 Coeff:      0.739D-02 0.105D-01-0.102D-01-0.531D-01-0.699D-01 0.570D-01
 Coeff:      0.407D+00 0.653D+00
 Gap=     0.061 Goal=   None    Shift=    0.000
 Gap=     0.132 Goal=   None    Shift=    0.000
 RMSDP=3.93D-08 MaxDP=3.74D-06 DE=-3.05D-11 OVMax= 8.66D-07

 Cycle  24  Pass 1  IDiag  1:
 RMSU=  2.69D-08    CP:  1.00D+00  7.31D-01  9.37D-01
 E= -1462.82512892841     Delta-E=        0.000000000004 Rises=F Damp=F
 DIIS: error= 2.45D-08 at cycle  24 NSaved=  20.
 NSaved=20 IEnMin=17 EnMin= -1462.82512892845     IErMin=20 ErrMin= 2.45D-08
 ErrMax= 2.45D-08  0.00D+00 EMaxC= 1.00D-01 BMatC= 8.40D-13 BMatP= 4.39D-12
 IDIUse=1 WtCom= 1.00D+00 WtEn= 0.00D+00
 Coeff-Com: -0.342D-06-0.630D-06-0.101D-05 0.396D-05 0.234D-04 0.747D-05
 Coeff-Com:  0.417D-04-0.669D-04-0.219D-03-0.660D-03 0.917D-04 0.245D-02
 Coeff-Com:  0.601D-02 0.462D-03-0.203D-01-0.496D-01-0.594D-01 0.431D-01
 Coeff-Com:  0.367D+00 0.711D+00
 Coeff:     -0.342D-06-0.630D-06-0.101D-05 0.396D-05 0.234D-04 0.747D-05
 Coeff:      0.417D-04-0.669D-04-0.219D-03-0.660D-03 0.917D-04 0.245D-02
 Coeff:      0.601D-02 0.462D-03-0.203D-01-0.496D-01-0.594D-01 0.431D-01
 Coeff:      0.367D+00 0.711D+00
 Gap=     0.061 Goal=   None    Shift=    0.000
 Gap=     0.132 Goal=   None    Shift=    0.000
 RMSDP=1.80D-08 MaxDP=2.23D-06 DE= 4.09D-12 OVMax= 4.37D-07

 Cycle  25  Pass 1  IDiag  1:
 RMSU=  1.52D-08    CP:  1.00D+00  7.41D-01  1.04D+00  1.23D+00
 E= -1462.82512892846     Delta-E=       -0.000000000051 Rises=F Damp=F
 DIIS: error= 1.37D-08 at cycle  25 NSaved=  20.
 NSaved=20 IEnMin=20 EnMin= -1462.82512892846     IErMin=20 ErrMin= 1.37D-08
 ErrMax= 1.37D-08  0.00D+00 EMaxC= 1.00D-01 BMatC= 8.91D-14 BMatP= 8.40D-13
 IDIUse=1 WtCom= 1.00D+00 WtEn= 0.00D+00
 Coeff-Com: -0.287D-06-0.318D-07 0.477D-06-0.523D-05-0.129D-04 0.116D-04
 Coeff-Com:  0.174D-04 0.108D-03-0.134D-04-0.487D-04-0.401D-03-0.339D-03
 Coeff-Com:  0.164D-02 0.416D-02-0.401D-02-0.293D-01-0.502D-01 0.122D-01
 Coeff-Com:  0.225D+00 0.842D+00
 Coeff:     -0.287D-06-0.318D-07 0.477D-06-0.523D-05-0.129D-04 0.116D-04
 Coeff:      0.174D-04 0.108D-03-0.134D-04-0.487D-04-0.401D-03-0.339D-03
 Coeff:      0.164D-02 0.416D-02-0.401D-02-0.293D-01-0.502D-01 0.122D-01
 Coeff:      0.225D+00 0.842D+00
 Gap=     0.061 Goal=   None    Shift=    0.000
 Gap=     0.132 Goal=   None    Shift=    0.000
 RMSDP=7.15D-09 MaxDP=5.65D-07 DE=-5.09D-11 OVMax= 2.74D-07

 SCF Done:  E(UB3LYP) =  -1462.82512893     A.U. after   25 cycles
            NFock= 25  Conv=0.72D-08     -V/T= 2.0030
 <Sx>= 0.0000 <Sy>= 0.0000 <Sz>= 0.5000 <S**2>= 0.7605 S= 0.5052
 <L.S>=  0.00000000000    
 KE= 1.458413771401D+03 PE=-7.284185155854D+03 EE= 2.461339145657D+03
 Annihilation of the first spin contaminant:
 S**2 before annihilation     0.7605,   after     0.7501
 Leave Link  502 at Sun Jan  7 05:09:27 2024, MaxMem=  4026531840 cpu:            4887.5 elap:             617.0
 (Enter /sysapps/ubuntu-applications/gaussian/Gaussian/AVX2/g16/l601.exe)
 Copying SCF densities to generalized density rwf, IOpCl= 1 IROHF=0.

 **********************************************************************

            Population analysis using the SCF density.

 **********************************************************************

 Alpha  occ. eigenvalues --  -88.82382 -18.93600 -18.93221 -18.87212 -18.86524
 Alpha  occ. eigenvalues --  -18.86346 -18.85702 -18.85537 -10.02253 -10.02075
 Alpha  occ. eigenvalues --  -10.01103 -10.00925  -9.98071  -9.98016  -9.97870
 Alpha  occ. eigenvalues --   -9.97257  -9.97183  -9.96710  -9.96479  -9.96392
 Alpha  occ. eigenvalues --   -9.95959  -9.95531  -7.88237  -5.84528  -5.84475
 Alpha  occ. eigenvalues --   -5.84424  -0.88526  -0.86331  -0.82901  -0.78374
 Alpha  occ. eigenvalues --   -0.78092  -0.74872  -0.74559  -0.65519  -0.63958
 Alpha  occ. eigenvalues --   -0.57764  -0.54979  -0.54000  -0.52615  -0.46351
 Alpha  occ. eigenvalues --   -0.44067  -0.42760  -0.38891  -0.37844  -0.36363
 Alpha  occ. eigenvalues --   -0.35072  -0.32534  -0.29867  -0.28737  -0.27286
 Alpha  occ. eigenvalues --   -0.26198  -0.25746  -0.23295  -0.23131  -0.22750
 Alpha  occ. eigenvalues --   -0.22191  -0.21814  -0.21454  -0.20661  -0.19926
 Alpha  occ. eigenvalues --   -0.18790  -0.17963  -0.16711  -0.16501  -0.15802
 Alpha  occ. eigenvalues --   -0.15402  -0.14849  -0.14472  -0.13120  -0.11482
 Alpha  occ. eigenvalues --   -0.10621  -0.10542  -0.07605  -0.07300  -0.06842
 Alpha  occ. eigenvalues --   -0.05641  -0.05576  -0.03052  -0.02773  -0.02550
 Alpha  occ. eigenvalues --   -0.01592  -0.00644   0.07594
 Alpha virt. eigenvalues --    0.13682   0.15499   0.15620   0.17707   0.18187
 Alpha virt. eigenvalues --    0.18304   0.19564   0.20894   0.21313   0.21924
 Alpha virt. eigenvalues --    0.22148   0.23376   0.24375   0.24440   0.24704
 Alpha virt. eigenvalues --    0.24912   0.25109   0.25357   0.25743   0.26581
 Alpha virt. eigenvalues --    0.26669   0.27380   0.27616   0.28116   0.28163
 Alpha virt. eigenvalues --    0.28687   0.28857   0.29191   0.29823   0.30262
 Alpha virt. eigenvalues --    0.30662   0.30802   0.31333   0.31720   0.32183
 Alpha virt. eigenvalues --    0.32429   0.32707   0.32920   0.33454   0.34105
 Alpha virt. eigenvalues --    0.34452   0.34953   0.35143   0.35518   0.35655
 Alpha virt. eigenvalues --    0.36436   0.36739   0.37187   0.37650   0.38609
 Alpha virt. eigenvalues --    0.38767   0.39121   0.39381   0.40046   0.40289
 Alpha virt. eigenvalues --    0.40493   0.41374   0.41597   0.42003   0.42541
 Alpha virt. eigenvalues --    0.42896   0.43588   0.43761   0.44289   0.44437
 Alpha virt. eigenvalues --    0.44760   0.44842   0.45265   0.45613   0.46030
 Alpha virt. eigenvalues --    0.46618   0.46722   0.47130   0.47290   0.47446
 Alpha virt. eigenvalues --    0.47907   0.48241   0.48848   0.49365   0.49665
 Alpha virt. eigenvalues --    0.50178   0.50407   0.50790   0.51414   0.51705
 Alpha virt. eigenvalues --    0.51919   0.52050   0.52494   0.52713   0.52959
 Alpha virt. eigenvalues --    0.53525   0.54031   0.54254   0.54383   0.54633
 Alpha virt. eigenvalues --    0.54968   0.55267   0.55709   0.56152   0.57042
 Alpha virt. eigenvalues --    0.57144   0.58156   0.58430   0.58970   0.59364
 Alpha virt. eigenvalues --    0.59747   0.60608   0.61231   0.61748   0.62046
 Alpha virt. eigenvalues --    0.62426   0.62771   0.63560   0.64534   0.65431
 Alpha virt. eigenvalues --    0.66229   0.67045   0.67974   0.69464   0.70038
 Alpha virt. eigenvalues --    0.70884   0.71260   0.72372   0.73056   0.73840
 Alpha virt. eigenvalues --    0.74308   0.75405   0.76207   0.76775   0.77391
 Alpha virt. eigenvalues --    0.78229   0.78624   0.79091   0.79702   0.81065
 Alpha virt. eigenvalues --    0.81996   0.83102   0.83415   0.84378   0.84909
 Alpha virt. eigenvalues --    0.85674   0.85998   0.86784   0.87001   0.87860
 Alpha virt. eigenvalues --    0.88467   0.88754   0.89620   0.90270   0.90656
 Alpha virt. eigenvalues --    0.91254   0.91980   0.92690   0.93657   0.95179
 Alpha virt. eigenvalues --    0.96133   0.96524   0.98161   0.99404   1.00094
 Alpha virt. eigenvalues --    1.00602   1.01571   1.02345   1.02782   1.03920
 Alpha virt. eigenvalues --    1.04142   1.06272   1.08239   1.09532   1.10995
 Alpha virt. eigenvalues --    1.11956   1.12395   1.13662   1.14180   1.14834
 Alpha virt. eigenvalues --    1.15748   1.15898   1.16434   1.16907   1.18575
 Alpha virt. eigenvalues --    1.19439   1.20343   1.20682   1.21275   1.21797
 Alpha virt. eigenvalues --    1.23034   1.23457   1.24355   1.24758   1.25168
 Alpha virt. eigenvalues --    1.26181   1.26643   1.28659   1.28826   1.29441
 Alpha virt. eigenvalues --    1.30143   1.32416   1.32812   1.33117   1.34081
 Alpha virt. eigenvalues --    1.35538   1.36721   1.36977   1.38107   1.38595
 Alpha virt. eigenvalues --    1.38783   1.39671   1.40376   1.40591   1.41778
 Alpha virt. eigenvalues --    1.42708   1.43712   1.44344   1.44958   1.45984
 Alpha virt. eigenvalues --    1.46153   1.46671   1.47069   1.47771   1.48229
 Alpha virt. eigenvalues --    1.48731   1.50047   1.50596   1.52890   1.53458
 Alpha virt. eigenvalues --    1.54350   1.55903   1.56524   1.58938   1.61970
 Alpha virt. eigenvalues --    1.63583   1.64896   1.66538   1.68865   1.70175
 Alpha virt. eigenvalues --    1.70589   1.71231   1.72150   1.73487   1.73729
 Alpha virt. eigenvalues --    1.74163   1.75935   1.76668   1.78390   1.80238
 Alpha virt. eigenvalues --    1.80690   1.82154   1.84116   1.84616   1.84962
 Alpha virt. eigenvalues --    1.86034   1.87784   1.89013   1.90968   1.91812
 Alpha virt. eigenvalues --    1.93237   1.94305   1.96279   1.96452   1.97970
 Alpha virt. eigenvalues --    1.98205   1.98992   2.01414   2.02085   2.02572
 Alpha virt. eigenvalues --    2.05231   2.07634   2.09484   2.09939   2.10614
 Alpha virt. eigenvalues --    2.11585   2.12160   2.12390   2.13736   2.14337
 Alpha virt. eigenvalues --    2.15106   2.16306   2.17207   2.18544   2.18898
 Alpha virt. eigenvalues --    2.19420   2.20326   2.22321   2.23106   2.25546
 Alpha virt. eigenvalues --    2.27756   2.27968   2.28075   2.31307   2.35250
 Alpha virt. eigenvalues --    2.36656   2.37860   2.39603   2.40131   2.40815
 Alpha virt. eigenvalues --    2.43565   2.47708   2.48513   2.51985   2.53734
 Alpha virt. eigenvalues --    2.54205   2.55182   2.59065   2.59405   2.62041
 Alpha virt. eigenvalues --    2.63890   2.65325   2.67631   2.72663   2.74018
 Alpha virt. eigenvalues --    2.82851   2.83545   2.84839   2.85135   2.89095
 Alpha virt. eigenvalues --    2.89267   2.90015   2.91011   2.93178   2.95659
 Alpha virt. eigenvalues --    2.95908   2.96405   2.97680   2.98208   2.98730
 Alpha virt. eigenvalues --    2.99752   3.00040   3.01593   3.02631   3.05275
 Alpha virt. eigenvalues --    3.05620   3.06340   3.07227   3.07660   3.08792
 Alpha virt. eigenvalues --    3.09858   3.10201   3.10531   3.10857   3.10961
 Alpha virt. eigenvalues --    3.12353   3.16090   3.17018   3.17440   3.18615
 Alpha virt. eigenvalues --    3.19781   3.21301   3.24313   3.24626   3.26243
 Alpha virt. eigenvalues --    3.29435   3.30587   3.31529   3.32187   3.33424
 Alpha virt. eigenvalues --    3.34096   3.34729   3.35856   3.37412   3.38500
 Alpha virt. eigenvalues --    3.40199   3.41213   3.42706   3.43163   3.43833
 Alpha virt. eigenvalues --    3.47911   3.48928   3.52612   3.54499   3.55521
 Alpha virt. eigenvalues --    3.57755   3.59244   3.63417   3.63667   3.66067
 Alpha virt. eigenvalues --    3.69096   3.72311   3.73093   3.75966   3.76896
 Alpha virt. eigenvalues --    3.78281   3.79537   3.81001   3.82047   3.84845
 Alpha virt. eigenvalues --    3.88167   3.93011   4.01756   4.05669   4.08142
 Alpha virt. eigenvalues --    4.11429   4.13234   4.19279   4.23509   4.27959
 Alpha virt. eigenvalues --    4.39364   4.41023   4.43338   4.49896   4.53966
 Alpha virt. eigenvalues --    4.69908   5.01959   5.04182   5.08528   5.20086
 Alpha virt. eigenvalues --    5.25874   5.27410   5.27963   5.28912   5.30242
 Alpha virt. eigenvalues --    5.30963   5.31752   5.33342   5.34790   5.36500
 Alpha virt. eigenvalues --    5.50370   5.51576   5.52299   5.53065   5.72846
 Alpha virt. eigenvalues --    5.74849   5.91191   5.99230   6.03593   6.06742
 Alpha virt. eigenvalues --    8.42911  17.62614  17.65562  17.72304  23.70782
 Alpha virt. eigenvalues --   23.86938  24.09687  24.11530  24.13763  24.14373
 Alpha virt. eigenvalues --   24.16954  24.17969  24.20777  24.24588  24.24733
 Alpha virt. eigenvalues --   24.31795  24.37091  24.38482  50.12366  50.12530
 Alpha virt. eigenvalues --   50.15503  50.20013  50.22801  50.28550  50.34133
 Alpha virt. eigenvalues --  189.51875
  Beta  occ. eigenvalues --  -88.82383 -18.93582 -18.93192 -18.87212 -18.86521
  Beta  occ. eigenvalues --  -18.86341 -18.85168 -18.84928 -10.02181 -10.02048
  Beta  occ. eigenvalues --  -10.00978 -10.00790  -9.97997  -9.97942  -9.97857
  Beta  occ. eigenvalues --   -9.97285  -9.97212  -9.96670  -9.96336  -9.96254
  Beta  occ. eigenvalues --   -9.95931  -9.95513  -7.88237  -5.84528  -5.84475
  Beta  occ. eigenvalues --   -5.84425  -0.88518  -0.86273  -0.82847  -0.77432
  Beta  occ. eigenvalues --   -0.77064  -0.74867  -0.74553  -0.65266  -0.63842
  Beta  occ. eigenvalues --   -0.57361  -0.54781  -0.53830  -0.52421  -0.45808
  Beta  occ. eigenvalues --   -0.43825  -0.42513  -0.38818  -0.37773  -0.36188
  Beta  occ. eigenvalues --   -0.34880  -0.32428  -0.29711  -0.28619  -0.27142
  Beta  occ. eigenvalues --   -0.26085  -0.25609  -0.23245  -0.22909  -0.22686
  Beta  occ. eigenvalues --   -0.22092  -0.21652  -0.21233  -0.20458  -0.18952
  Beta  occ. eigenvalues --   -0.18269  -0.17737  -0.16636  -0.15862  -0.15374
  Beta  occ. eigenvalues --   -0.14756  -0.14546  -0.13195  -0.12896  -0.11148
  Beta  occ. eigenvalues --   -0.10602  -0.10196  -0.07559  -0.07021  -0.06789
  Beta  occ. eigenvalues --   -0.04997  -0.03638  -0.03023  -0.02167  -0.02040
  Beta  occ. eigenvalues --   -0.01048   0.00120
  Beta virt. eigenvalues --    0.13348   0.13665   0.15609   0.16272   0.17711
  Beta virt. eigenvalues --    0.18186   0.19307   0.19544   0.21291   0.21335
  Beta virt. eigenvalues --    0.21925   0.22180   0.23391   0.24427   0.24451
  Beta virt. eigenvalues --    0.24795   0.24921   0.25119   0.25762   0.25999
  Beta virt. eigenvalues --    0.26680   0.26686   0.27421   0.27896   0.28133
  Beta virt. eigenvalues --    0.28285   0.28855   0.29202   0.29799   0.29894
  Beta virt. eigenvalues --    0.30468   0.30724   0.30846   0.31420   0.31876
  Beta virt. eigenvalues --    0.32183   0.32426   0.32737   0.32994   0.33473
  Beta virt. eigenvalues --    0.34128   0.34482   0.35030   0.35192   0.35540
  Beta virt. eigenvalues --    0.35879   0.36497   0.36774   0.37243   0.37683
  Beta virt. eigenvalues --    0.38658   0.38885   0.39173   0.39431   0.40047
  Beta virt. eigenvalues --    0.40342   0.40630   0.41425   0.41664   0.42093
  Beta virt. eigenvalues --    0.42549   0.42981   0.43646   0.43834   0.44322
  Beta virt. eigenvalues --    0.44588   0.44845   0.45253   0.45391   0.45725
  Beta virt. eigenvalues --    0.46183   0.46701   0.46774   0.47232   0.47363
  Beta virt. eigenvalues --    0.47489   0.47977   0.48272   0.48918   0.49413
  Beta virt. eigenvalues --    0.49733   0.50406   0.50504   0.50884   0.51467
  Beta virt. eigenvalues --    0.51805   0.52049   0.52158   0.52566   0.52912
  Beta virt. eigenvalues --    0.53066   0.53574   0.54148   0.54327   0.54487
  Beta virt. eigenvalues --    0.54709   0.55021   0.55365   0.55772   0.56203
  Beta virt. eigenvalues --    0.57095   0.57209   0.58203   0.58483   0.59074
  Beta virt. eigenvalues --    0.59420   0.59821   0.60870   0.61256   0.61816
  Beta virt. eigenvalues --    0.62129   0.62476   0.62874   0.63607   0.64636
  Beta virt. eigenvalues --    0.65517   0.66276   0.67141   0.68057   0.69556
  Beta virt. eigenvalues --    0.70113   0.71003   0.71354   0.72465   0.73139
  Beta virt. eigenvalues --    0.74026   0.74426   0.75521   0.76301   0.76858
  Beta virt. eigenvalues --    0.77821   0.78351   0.78898   0.79184   0.79808
  Beta virt. eigenvalues --    0.81132   0.82080   0.83226   0.83495   0.84611
  Beta virt. eigenvalues --    0.85034   0.85828   0.86096   0.86947   0.87137
  Beta virt. eigenvalues --    0.87971   0.88664   0.89019   0.89739   0.90452
  Beta virt. eigenvalues --    0.90914   0.91405   0.92117   0.92793   0.93713
  Beta virt. eigenvalues --    0.95490   0.96200   0.96562   0.98226   0.99475
  Beta virt. eigenvalues --    1.00172   1.00759   1.01624   1.02528   1.02883
  Beta virt. eigenvalues --    1.03978   1.04234   1.06354   1.08288   1.09599
  Beta virt. eigenvalues --    1.11066   1.12166   1.12451   1.13725   1.14275
  Beta virt. eigenvalues --    1.15000   1.16015   1.16127   1.16637   1.17034
  Beta virt. eigenvalues --    1.18683   1.19534   1.20595   1.20806   1.21435
  Beta virt. eigenvalues --    1.21926   1.23214   1.23551   1.24435   1.24970
  Beta virt. eigenvalues --    1.25413   1.26284   1.26766   1.28797   1.28944
  Beta virt. eigenvalues --    1.29626   1.30487   1.32611   1.32916   1.33490
  Beta virt. eigenvalues --    1.34720   1.35629   1.36998   1.37302   1.38295
  Beta virt. eigenvalues --    1.38867   1.38998   1.39741   1.40469   1.40644
  Beta virt. eigenvalues --    1.41986   1.42815   1.43816   1.44477   1.45141
  Beta virt. eigenvalues --    1.46200   1.46786   1.46917   1.47231   1.48309
  Beta virt. eigenvalues --    1.48401   1.48919   1.50162   1.50747   1.52976
  Beta virt. eigenvalues --    1.53545   1.54574   1.55977   1.56695   1.59067
  Beta virt. eigenvalues --    1.62165   1.63693   1.64994   1.66712   1.68960
  Beta virt. eigenvalues --    1.70563   1.70752   1.71307   1.72212   1.73546
  Beta virt. eigenvalues --    1.74086   1.74505   1.76118   1.76708   1.78445
  Beta virt. eigenvalues --    1.80283   1.80891   1.82390   1.84211   1.84686
  Beta virt. eigenvalues --    1.85065   1.86142   1.87839   1.89098   1.91256
  Beta virt. eigenvalues --    1.91975   1.93388   1.94431   1.96423   1.96595
  Beta virt. eigenvalues --    1.98131   1.98460   1.99094   2.01507   2.02310
  Beta virt. eigenvalues --    2.02703   2.05521   2.07838   2.09766   2.10110
  Beta virt. eigenvalues --    2.10802   2.11806   2.12323   2.12548   2.13931
  Beta virt. eigenvalues --    2.14507   2.15231   2.16508   2.17394   2.18764
  Beta virt. eigenvalues --    2.19196   2.19586   2.20452   2.22431   2.23286
  Beta virt. eigenvalues --    2.25693   2.27895   2.28084   2.28302   2.31461
  Beta virt. eigenvalues --    2.35360   2.36794   2.37922   2.39820   2.40241
  Beta virt. eigenvalues --    2.40904   2.43701   2.47981   2.48750   2.52227
  Beta virt. eigenvalues --    2.53978   2.54549   2.55324   2.59315   2.59667
  Beta virt. eigenvalues --    2.62242   2.63975   2.65451   2.67652   2.72743
  Beta virt. eigenvalues --    2.74131   2.82951   2.83899   2.85170   2.85454
  Beta virt. eigenvalues --    2.89294   2.89484   2.90106   2.91050   2.93219
  Beta virt. eigenvalues --    2.95736   2.96270   2.96445   2.97764   2.98554
  Beta virt. eigenvalues --    2.98807   2.99819   3.00440   3.01606   3.02869
  Beta virt. eigenvalues --    3.05374   3.05783   3.06815   3.07380   3.07754
  Beta virt. eigenvalues --    3.09117   3.10086   3.10338   3.10640   3.11315
  Beta virt. eigenvalues --    3.11552   3.12431   3.17137   3.18050   3.18459
  Beta virt. eigenvalues --    3.19041   3.20499   3.21873   3.24455   3.24784
  Beta virt. eigenvalues --    3.26445   3.29534   3.31082   3.31662   3.32301
  Beta virt. eigenvalues --    3.33611   3.34258   3.34806   3.35934   3.37456
  Beta virt. eigenvalues --    3.39007   3.40345   3.41332   3.42812   3.43285
  Beta virt. eigenvalues --    3.43869   3.48036   3.49047   3.52754   3.54584
  Beta virt. eigenvalues --    3.57002   3.59231   3.59296   3.63480   3.63760
  Beta virt. eigenvalues --    3.66169   3.69164   3.72408   3.73270   3.76096
  Beta virt. eigenvalues --    3.76998   3.78409   3.79667   3.81103   3.82165
  Beta virt. eigenvalues --    3.84854   3.88306   3.93133   4.01895   4.06093
  Beta virt. eigenvalues --    4.08233   4.11542   4.13452   4.19312   4.23635
  Beta virt. eigenvalues --    4.28105   4.39480   4.41104   4.43419   4.50155
  Beta virt. eigenvalues --    4.54281   4.70200   5.02356   5.04378   5.08622
  Beta virt. eigenvalues --    5.20182   5.25890   5.27564   5.28062   5.28929
  Beta virt. eigenvalues --    5.31170   5.32416   5.33362   5.33927   5.34801
  Beta virt. eigenvalues --    5.36507   5.50767   5.51627   5.52727   5.53084
  Beta virt. eigenvalues --    5.72911   5.74900   5.91249   5.99663   6.03696
  Beta virt. eigenvalues --    6.07151   8.42911  17.62614  17.65561  17.72303
  Beta virt. eigenvalues --   23.70842  23.87006  24.09720  24.11636  24.13814
  Beta virt. eigenvalues --   24.14483  24.17081  24.18114  24.20835  24.24709
  Beta virt. eigenvalues --   24.24783  24.31814  24.37116  24.38515  50.12369
  Beta virt. eigenvalues --   50.12546  50.15515  50.20022  50.22824  50.29111
  Beta virt. eigenvalues --   50.34710 189.51875
          Condensed to atoms (all electrons):
               1          2          3          4          5          6
     1  O    8.173722   0.196564   0.380097   0.003283   0.032930   0.004325
     2  C    0.196564  34.744538   5.469480  -1.634973 -18.564806  -1.252774
     3  C    0.380097   5.469480  51.510154   0.021869 -11.680249 -13.576456
     4  O    0.003283  -1.634973   0.021869   8.541298   1.795528   0.154741
     5  C    0.032930 -18.564806 -11.680249   1.795528  63.788236   6.745336
     6  C    0.004325  -1.252774 -13.576456   0.154741   6.745336  31.225295
     7  C   -0.152272  -1.972503 -19.227607   0.096556 -10.908015   6.009097
     8  C   -0.000897  -1.505832  -0.133198  -0.048076  -3.325047 -11.469330
     9  O    0.000036  -0.019635   0.010070  -0.000012   0.212225   0.333928
[...]
 .00000805,-0.00148111,-0.00014310,-0.00007233,-0.00112248,-0.00012940,
 -0.00000366,0.00315753,-0.00265974,-0.00019569,0.00242446,-0.00189201,
 -0.00113004,-0.00005454,0.00325374,0.00072842,-0.00062022,0.00044928,0
 .00005713,-0.00047300,0.00022386,0.00023329,0.46500164,0.05621516,-0.0
 6026333,-0.01158316,0.04873326,-0.02174776,-0.00530059,0.00468121,-0.0
 0781776,-0.00237378,0.00195204,0.00270928,-0.00012308,0.00065876,-0.00
 002770,0.00030837,-0.00037227,0.00000071,0.00000258,0.00186581,0.00022
 635,-0.00015908,-0.00043492,-0.00041526,-0.00007414,0.00011791,-0.0000
 6140,0.00000288,0.00005216,0.00038494,0.00001035,0.00004688,-0.0000488
 1,-0.00000437,-0.00005929,0.00019713,0.00005017,0.00000813,-0.00019656
 ,-0.00007740,-0.00009999,0.00007236,0.00008587,0.00024932,-0.00032759,
 0.00003408,-0.00071653,-0.00010350,-0.00002171,-0.00103976,0.00025141,
 -0.00004577,-0.00229930,-0.00671963,-0.00159678,0.00037855,-0.00128306
 ,-0.00102004,0.00071382,0.00213446,0.00035473,-0.00003319,0.00072220,-
 0.00007270,0.00006018,0.00015255,0.00059336,-0.10764519,0.09338750,0.0
 1811682,-0.01244381,-0.01317613,0.01019049,-0.00457325,-0.00071680,0.0
 0114298,-0.00249483,0.00161567,0.00070125,0.00055266,-0.00214260,0.000
 26103,0.00028695,-0.00079946,-0.00004899,-0.00009015,-0.00005834,0.000
 31444,-0.00013318,0.00108086,-0.00008487,-0.00004367,0.00000183,0.0000
 2120,-0.00003445,-0.00007484,-0.00003388,0.00003811,0.00021625,0.00002
 607,-0.00001650,0.00001762,-0.00002880,0.00004954,-0.00003620,0.000018
 56,-0.00005585,0.00008931,-0.00004549,0.00004281,-0.00021312,0.0001037
 5,-0.00000666,-0.00043198,-0.00017414,0.00010165,-0.00014102,-0.000229
 39,-0.00008930,0.00043325,-0.00052513,-0.00137299,0.00065117,0.0001988
 8,-0.00038205,0.00048401,0.00021787,0.00059586,-0.00005211,-0.00003611
 ,0.00023304,-0.00018415,0.00003479,0.00019207,-0.00014703,-0.02875190,
 0.01962289,0.01455428,0.00377109,-0.00098358,0.00031640,0.00320579,0.0
 0416087,0.00132422,-0.05348733,-0.00445930,0.00348658,-0.21360210,-0.1
 2270748,0.01248861,0.00163749,-0.00035029,0.00069915,-0.00099766,-0.00
 278429,-0.00056135,0.00044384,-0.00083953,-0.00022313,-0.00065090,0.00
 058834,0.00010159,0.00016471,-0.00091564,-0.00016630,0.00009312,-0.000
 77277,-0.00011163,-0.00026149,0.00016146,0.00002408,0.00024927,-0.0003
 9049,-0.00006708,-0.00003769,0.00037733,0.00006637,0.00025309,-0.00010
 550,-0.00002210,-0.00057934,0.00080267,0.00013738,0.00056148,-0.000467
 28,-0.00005274,0.00035385,0.00041396,0.00006285,-0.00213583,0.00050608
 ,-0.00011213,0.03080000,-0.00789085,-0.01313237,-0.01975969,0.02297360
 ,0.01048447,-0.00661502,0.00528834,0.00091876,-0.00460615,0.00106468,0
 .00418757,-0.00455819,-0.00288920,-0.00136353,0.26484762,0.00051315,-0
 .00191352,-0.00070765,0.01115933,-0.00381195,-0.00077145,0.00760360,0.
 02789102,0.00125942,-0.14519954,-0.16473388,0.00390273,0.00029207,0.00
 038764,0.00175185,-0.00006224,-0.00250592,-0.00053218,-0.00031180,-0.0
 0119055,-0.00038226,-0.00068447,0.00016883,0.00001234,0.00004697,-0.00
 073493,-0.00012643,0.00012494,-0.00060254,-0.00012852,-0.00029473,0.00
 012082,0.00002345,0.00024420,-0.00035448,-0.00006267,-0.00013204,0.000
 36263,0.00006397,0.00040407,-0.00012695,0.00000528,-0.00057460,0.00082
 635,0.00014487,0.00105665,-0.00109933,-0.00017689,0.00006408,0.0004226
 3,0.00008498,-0.00131999,0.00297036,0.00072652,0.03335844,-0.02833386,
 -0.02188490,-0.00303988,0.02549955,0.01110854,-0.00654969,0.00607409,0
 .00063482,-0.00486309,0.00167843,0.00647388,-0.00204412,-0.00123309,0.
 00002465,0.10945594,0.14047750,-0.00179857,0.00037319,0.00053881,0.000
 95818,-0.00174661,0.00137041,0.00323547,0.00343762,0.00036791,0.012797
 93,0.00106631,-0.02094004,0.00014487,-0.00014724,-0.00022515,0.0003469
 6,0.00033933,-0.00058781,-0.00000922,-0.00034900,-0.00009802,-0.000107
 12,-0.00008254,0.00005541,-0.00000799,0.00002861,-0.00002295,0.0000980
 4,-0.00014134,0.00006383,-0.00009729,0.00003956,-0.00001287,0.00006390
 ,-0.00006387,-0.00000308,-0.00006962,0.00007678,-0.00000136,0.00013127
 ,-0.00000265,0.00002722,-0.00029330,0.00016018,-0.00007334,0.00027758,
 -0.00034732,-0.00008851,-0.00011185,0.00028241,0.00000809,-0.00066325,
 0.00020839,0.00073726,-0.00024890,-0.00652834,0.00317383,0.00193552,0.
 00135556,-0.01123975,-0.00029969,0.00102551,-0.00041527,0.00072522,0.0
 0105402,-0.00185416,0.00142660,0.00139886,-0.00103811,-0.01842615,-0.0
 0144815,0.03024163,0.00020064,0.00003591,0.00003029,-0.00137042,0.0000
 7597,-0.00001828,-0.00390165,0.00121076,-0.00004387,-0.00080172,0.0016
 2669,0.00041987,0.00339919,0.02534164,0.00501133,-0.05492727,-0.009975
 33,-0.00255240,0.00411443,-0.02752750,-0.00521716,-0.00149691,-0.00370
 708,-0.00068053,0.00092172,0.00292794,0.00055483,0.00144204,0.00061854
 ,0.00017529,-0.00036244,0.00023702,0.00002928,0.00022529,0.00014570,0.
 00003818,-0.00017910,-0.00005870,-0.00001761,0.00029947,0.00014331,0.0
 0003331,-0.00038364,-0.00020103,-0.00005484,0.00114548,-0.00181699,-0.
 00030433,-0.00059389,0.00025005,0.00003443,-0.00474543,-0.00087227,-0.
 00035680,-0.00072626,0.00427087,-0.00000273,0.00054784,-0.00126856,-0.
 00032757,0.00099153,-0.00157798,-0.00004075,0.00008076,-0.00059174,0.0
 0009317,-0.00005457,-0.00009382,-0.00002113,0.00078931,0.00066463,-0.0
 0002092,0.05542863,-0.00002365,0.00036109,0.00011620,-0.00008041,0.000
 11165,0.00026593,0.00208263,0.00081292,-0.00092591,0.00007894,-0.00034
 292,-0.00021622,0.00026734,-0.01048381,-0.00235134,-0.01023315,-0.3294
 1434,-0.05415258,-0.00256402,-0.01011930,-0.00264204,0.00109845,-0.002
 45759,0.00017301,0.00280292,0.00058567,0.00034281,-0.00021278,-0.00022
 160,-0.00009177,0.00000647,-0.00002906,-0.00002513,0.00002097,-0.00002
 540,-0.00000566,-0.00004985,0.00003796,0.00000995,0.00007971,0.0000060
 9,-0.00000580,-0.00020760,0.00007460,0.00003539,0.00047100,-0.00033209
 ,-0.00009701,-0.00018728,-0.00015323,-0.00002954,-0.00181386,0.0009503
 6,-0.00078666,-0.00025531,-0.00161863,0.00012876,-0.00018895,0.0005063
 8,0.00025996,-0.00105829,0.00015201,-0.00007178,-0.00001508,0.00021885
 ,0.00030230,0.00009065,0.00000322,0.00000720,-0.00021568,-0.00021478,0
 .00001415,0.01010815,0.35157728,0.00000178,0.00013244,-0.00021354,-0.0
 0011375,0.00027031,-0.00154174,0.00025028,-0.00100768,0.00661145,-0.00
 004000,-0.00023095,0.00045954,0.00053243,-0.00181231,0.00212636,-0.003
 07271,-0.05344200,-0.04514003,-0.00033290,-0.00318859,0.00287678,0.000
 21067,0.00017916,-0.00346462,0.00051081,0.00029038,-0.00067374,0.00001
 322,-0.00004435,0.00007172,-0.00002469,-0.00002831,0.00015421,0.000016
 04,0.00000438,-0.00000026,-0.00001417,0.00000296,-0.00002291,0.0000179
 3,-0.00000641,0.00004283,-0.00004807,0.00000618,-0.00005655,0.00009929
 ,-0.00014977,0.00018113,-0.00005783,-0.00003367,-0.00002195,-0.0005020
 2,-0.00100647,0.00533797,0.00001241,-0.00044877,-0.00182088,0.00049165
 ,-0.00004372,0.00013494,-0.00059330,0.00129373,-0.00046246,-0.00054450
 ,-0.00050025,-0.00136033,0.00001319,0.00000258,0.00001024,-0.00005867,
 0.00001272,0.00001002,0.00323468,0.05974483,0.03676389,0.00002365,-0.0
 0014263,-0.00003090,0.00005417,0.00001520,0.00000936,-0.00005315,0.000
 13707,0.00001738,0.00003657,-0.00005597,-0.00000925,0.00009801,-0.0002
 0021,-0.00002082,-0.00028143,-0.00016886,-0.00004489,0.00112625,-0.000
 88216,-0.00014814,-0.00092378,0.00329513,0.00067952,0.00038665,-0.0029
 4599,-0.00052602,0.00828438,0.02592580,0.00500152,-0.05857400,-0.02673
 556,-0.00556463,0.00114929,-0.02751641,-0.00525150,-0.00444686,-0.0012
 8544,-0.00055415,-0.00094031,0.00023215,0.00004252,-0.00455230,0.00157
 190,0.00004234,0.00102915,0.00115683,0.00025457,-0.00059458,0.00024017
 ,0.00002786,0.00013561,0.00030148,0.00004883,-0.00010577,0.00000737,-0
 .00001804,0.00005578,-0.00002656,-0.00001533,0.00003912,-0.00000357,-0
 .00000225,0.00003673,0.00000089,0.00002945,-0.00000812,0.00000281,0.00
 000040,-0.00001139,0.00000486,0.00000117,-0.00011520,0.00001935,0.0000
 0186,0.05700125,0.00003514,-0.00006054,-0.00001219,0.00001770,0.000099
 45,0.00002471,-0.00010865,-0.00002114,-0.00001533,0.00017463,-0.000058
 96,-0.00000798,0.00000665,0.00008499,0.00003760,0.00007294,-0.00001926
 ,-0.00003526,0.00000838,0.00009482,0.00003229,-0.00186127,-0.00347581,
 -0.00015026,-0.00252743,0.00234360,0.00052623,-0.00033686,-0.01598869,
 -0.00388504,-0.02546488,-0.31869279,-0.05365563,0.00181431,-0.00693578
 ,-0.00189514,-0.00241737,0.00167932,-0.00127633,0.00066277,0.00062215,
 0.00032024,0.00311295,0.00032498,-0.00092291,-0.00093627,-0.00047106,-
 0.00006649,0.00036188,-0.00044818,-0.00007083,0.00007312,-0.00006960,-
 0.00003163,-0.00015947,-0.00011298,-0.00005387,0.00007616,0.00002425,-
 0.00000226,0.00004187,0.00007367,-0.00000989,0.00005546,0.00003136,0.0
 0007035,-0.00000732,0.00001763,0.00000283,-0.00005031,-0.00004000,-0.0
 0000524,0.00000060,0.00003241,0.00000174,0.02780294,0.34079126,0.00000
 868,-0.00001541,-0.00000474,-0.00000020,0.00002174,-0.00000438,-0.0000
 1751,-0.00000131,0.00003629,0.00003771,-0.00001152,-0.00001252,-0.0000
 0030,0.00002589,-0.00008963,0.00000851,-0.00003239,0.00013750,0.000035
 37,-0.00000934,-0.00000667,-0.00032454,-0.00003104,-0.00298234,-0.0004
 6303,0.00052487,-0.00066863,0.00007513,-0.00321745,0.00387744,-0.00535
 490,-0.05371496,-0.04821775,0.00030505,-0.00259782,0.00282401,-0.00076
 465,-0.00124634,0.00783449,0.00011865,0.00031107,-0.00090696,0.0003364
 8,-0.00096449,0.00542481,-0.00015236,-0.00001791,-0.00024869,0.0000563
 4,-0.00007630,-0.00001756,0.00002257,-0.00001352,0.00007165,-0.0000371
 4,-0.00003567,0.00005160,0.00002409,0.00000432,-0.00001364,0.00000904,
 0.00002878,-0.00002398,0.00001205,0.00000534,-0.00002641,-0.00000291,0
 .00000309,0.00000204,-0.00001145,-0.00000915,0.00000331,-0.00000355,0.
 00000065,0.00002386,0.00600277,0.06003470,0.03814537,-0.00006044,0.000
 19080,0.00004049,-0.00004002,-0.00020225,-0.00004784,0.00018770,-0.000
 04368,-0.00000665,-0.00024068,0.00009207,0.00001635,-0.00015259,-0.000
 07038,-0.00001088,-0.00005329,0.00019556,0.00003352,-0.00062188,-0.000
 40468,-0.00006349,-0.00017865,0.00198247,0.00035729,-0.00009788,-0.000
 44453,-0.00009383,-0.00306601,-0.00445707,-0.00111490,-0.02049568,0.01
 947381,0.00311669,-0.23569069,0.12187525,0.01782287,0.00382729,-0.0035
 3592,-0.00056438,0.00175082,-0.00037716,-0.00015419,-0.00022254,-0.000
 89656,-0.00016172,0.00029872,-0.00031572,-0.00003183,-0.00007919,0.000
 41548,0.00007250,0.00000867,-0.00006220,-0.00001452,0.00034247,0.00021
 078,0.00007066,-0.00016026,-0.00001742,0.00001940,-0.00008886,-0.00013
 884,0.00002403,-0.00011703,-0.00006029,-0.00011968,0.00001979,-0.00002
 519,-0.00000298,0.00007604,0.00004578,0.00000511,0.00002841,-0.0000139
 0,-0.00000277,0.00121968,-0.00052870,0.00005262,0.25275887,0.00002815,
 -0.00010340,-0.00002033,0.00015937,0.00013819,0.00002231,-0.00019895,-
 0.00012265,-0.00001497,0.00016082,-0.00003765,-0.00000465,0.00000298,0
 .00017282,-0.00000797,0.00010080,0.00003655,0.00001546,-0.00031751,0.0
 0002405,0.00015218,0.00002796,0.00045757,-0.00003638,0.00008235,0.0000
 6875,-0.00002932,-0.00275742,-0.00018922,-0.00156877,-0.01163934,0.010
 18934,0.00129704,0.12206935,-0.14017037,-0.01806450,0.02783616,-0.0110
 6089,-0.00134112,-0.00254487,-0.00556982,-0.00209850,-0.00081104,-0.00
 018054,0.00003542,0.00020068,0.00001699,0.00018019,0.00025609,-0.00005
 365,-0.00000823,-0.00015997,-0.00015231,-0.00006635,-0.00021262,-0.000
 10904,-0.00004300,0.00008598,0.00001603,-0.00000607,0.00005476,0.00007
 827,-0.00000994,0.00007173,0.00003174,0.00007198,-0.00001508,0.0000206
 2,0.00000142,-0.00005001,-0.00003463,-0.00000385,0.00000155,0.00000080
 ,0.00000527,0.00056904,0.00069077,0.00106955,-0.13347043,0.14554540,0.
 00000456,-0.00001377,-0.00000842,0.00002395,0.00000735,0.00005394,-0.0
 0003076,-0.00001851,-0.00002105,0.00002289,-0.00000512,-0.00000979,0.0
 0000087,0.00001158,0.00009404,0.00001447,0.00000809,0.00001247,-0.0000
 6056,0.00016583,-0.00082688,-0.00001763,0.00000485,0.00063986,0.000005
 49,-0.00003621,0.00023480,-0.00077027,-0.00160651,0.00743448,-0.002747
 60,0.00206625,0.00208145,0.01785901,-0.01806832,-0.03115959,0.00534381
 ,-0.00212084,-0.00054412,-0.00056157,-0.00204196,0.00480932,-0.0001535
 2,0.00002511,-0.00043656,0.00006025,0.00015991,-0.00086641,0.00004958,
 -0.00000235,0.00002959,-0.00002831,-0.00006477,0.00018141,-0.00003023,
 -0.00002338,0.00002838,0.00001066,0.00000134,-0.00001167,0.00000543,0.
 00002047,-0.00001535,0.00001001,0.00000662,-0.00000940,-0.00000208,0.0
 0000305,0.00000277,-0.00000755,-0.00000590,-0.00000140,0.00000054,0.00
 000375,-0.00002139,0.00026131,0.00104462,-0.00469648,-0.01941804,0.020
 05188,0.02482614,-0.00006058,0.00020825,0.00004496,-0.00010484,-0.0004
 0419,-0.00008049,0.00016977,0.00000190,-0.00000653,-0.00032365,0.00011
 421,0.00002165,-0.00005513,-0.00001792,0.00000704,-0.00001684,-0.00000
 977,-0.00000841,-0.00000047,0.00005533,0.00000960,0.00035694,0.0002471
 3,0.00007806,-0.00021269,-0.00038447,-0.00008050,0.00003361,0.00086195
 ,0.00018160,0.00203403,-0.00081009,-0.00023553,-0.00024366,0.00181190,
 0.00033884,-0.26994304,-0.10067318,-0.02489392,-0.02102233,-0.01444480
 ,-0.00328292,-0.00194121,0.00474964,0.00064376,-0.00044765,-0.00184683
 ,-0.00036442,0.00000329,0.00046546,0.00007565,-0.00049495,0.00049736,0
 .00010290,0.00033215,0.00015870,0.00006357,-0.00015361,-0.00001663,0.0
 0001944,-0.00009156,-0.00011375,0.00001993,-0.00011386,-0.00004549,-0.
 00010772,0.00001278,-0.00003772,-0.00000767,0.00008528,0.00006292,0.00
 000534,0.00001269,-0.00000772,-0.00000194,-0.00017756,0.00013219,0.000
 01116,0.00084678,-0.00078625,-0.00006996,0.29029739,-0.00001036,0.0000
 7815,0.00002782,-0.00013907,-0.00001828,-0.00000764,0.00020152,0.00008
 549,-0.00000777,-0.00013921,0.00006777,0.00001288,0.00001673,-0.000121
 56,-0.00001540,-0.00012323,0.00002642,-0.00000262,0.00008612,-0.000157
 27,-0.00006546,-0.00023303,-0.00001900,0.00016293,-0.00022405,0.000073
 23,0.00000019,0.00079683,-0.00044105,0.00001257,0.00133855,-0.00587527
 ,-0.00205658,-0.02952754,-0.00694619,-0.00199831,-0.10084855,-0.104696
 93,-0.01685748,0.01659890,0.01059904,0.00205557,0.00306252,-0.00137356
 ,-0.00162636,0.00009234,0.00072805,0.00000941,-0.00006678,0.00002408,-
 0.00005025,0.00047157,-0.00008668,0.00016301,0.00014866,0.00005861,0.0
 0002310,-0.00006698,-0.00000457,0.00001131,-0.00004210,-0.00004730,0.0
 0000879,-0.00005066,-0.00001705,-0.00004424,0.00000230,-0.00001619,-0.
 00000694,0.00003978,0.00002466,0.00000427,0.00001967,-0.00000071,0.000
 00019,-0.00133192,-0.00037463,-0.00018427,0.00077445,0.00083494,0.0006
 1452,0.10981035,0.10686828,-0.00000455,0.00002878,-0.00003581,-0.00002
 767,-0.00001464,0.00001973,0.00004025,-0.00000454,0.00010740,-0.000033
 66,0.00001892,-0.00001288,0.00000243,-0.00002282,-0.00001686,-0.000030
 93,-0.00000287,0.00003826,0.00001610,-0.00006904,0.00019268,-0.0000210
 9,0.00017641,-0.00089023,-0.00004812,-0.00000719,0.00004014,0.00016797
 ,0.00002738,-0.00041195,0.00016534,-0.00211195,0.00483549,-0.00555721,
 -0.00121740,-0.00057059,-0.02493084,-0.01685692,-0.03210151,0.00257172
 ,0.00129032,0.00214152,0.00034177,-0.00159760,0.00740177,-0.00001938,-
 0.00003075,0.00064032,-0.00002352,-0.00003238,0.00027316,0.00010395,0.
 00016478,-0.00085538,0.00003501,0.00001183,0.00002572,-0.00001453,-0.0
 0000306,-0.00000486,-0.00001049,-0.00000389,-0.00000716,-0.00001354,-0
 .00000403,-0.00002919,0.00000145,-0.00000679,0.00001242,0.00001058,0.0
 0000382,0.00000191,0.00000467,0.00000033,-0.00000248,-0.00026432,-0.00
 014727,0.00039255,0.00022282,0.00057566,-0.00220801,0.02728559,0.01876
 614,0.02575511,0.00009239,0.00011447,0.00002277,-0.00046990,-0.0000772
 7,-0.00003647,0.00020304,0.00020414,0.00004527,0.00004313,0.00003219,0
 .00000219,-0.00006731,-0.00016815,-0.00002133,0.00003261,0.00017204,0.
 00003331,0.00006284,-0.00029469,-0.00004974,0.00079313,-0.00163344,-0.
 00028652,-0.00066188,-0.00004158,-0.00002615,-0.00506241,-0.00050230,-
 0.00034692,-0.00108012,0.00001996,0.00000046,-0.00366073,0.00220632,0.
 00012596,0.00472258,0.02554931,0.00483530,-0.05647377,-0.01508644,-0.0
 0323551,0.00395243,-0.02902326,-0.00548227,-0.00146077,-0.00369089,-0.
 00064905,0.00120818,0.00327157,0.00067296,0.00126045,0.00077692,0.0001
 6563,0.00000571,-0.00002078,-0.00001060,0.00000785,0.00002714,0.000006
 09,0.00000715,0.00001856,-0.00000482,0.00000199,0.00000635,0.00000589,
 0.00000614,0.00001037,0.00000549,-0.00002919,-0.00002545,0.00000072,0.
 00003107,0.00000097,0.00000106,0.00010816,-0.00005113,0.00001634,0.000
 00047,0.00125570,0.00022524,0.00121891,-0.00065684,0.00003022,0.055207
 85,-0.00003802,0.00017665,0.00004721,-0.00010183,-0.00026057,-0.000076
 75,0.00013371,0.00004495,0.00000449,-0.00014776,0.00004593,0.00001357,
 -0.00005560,-0.00007206,-0.00000246,-0.00001428,0.00001673,-0.00000179
 ,-0.00012343,0.00000280,-0.00000530,0.00065683,-0.00043855,-0.00001883
 ,-0.00033291,-0.00032863,-0.00007472,-0.00220471,0.00084322,-0.0009234
 1,-0.00042678,0.00074086,0.00030427,0.00327298,0.00098208,-0.00125516,
 -0.00358292,-0.01067480,-0.00270206,-0.01640273,-0.32048021,-0.0535182
 9,-0.00307912,-0.01141833,-0.00306778,0.00152484,-0.00334028,-0.000026
 02,0.00325795,0.00123388,0.00045027,-0.00024624,0.00002454,-0.00000717
 ,0.00020350,0.00009393,0.00003109,-0.00008862,-0.00000151,0.00001493,-
 0.00005272,-0.00006721,0.00001368,-0.00006742,-0.00002715,-0.00006178,
 0.00001566,-0.00001873,-0.00000804,0.00003914,0.00002591,0.00000141,0.
 00001200,-0.00001781,-0.00000363,0.00001228,-0.00014125,0.00014891,-0.
 00019153,-0.00053864,-0.00018758,0.00042153,0.00072751,0.00106878,0.01
 760621,0.34286674,-0.00000240,0.00004378,-0.00004888,-0.00003990,-0.00
 006584,0.00008376,0.00002977,0.00001115,0.00002509,-0.00002817,0.00001
 957,-0.00002785,-0.00000882,-0.00001840,-0.00000240,-0.00000105,0.0000
 0652,0.00001023,-0.00002081,-0.00001516,0.00002370,0.00014226,-0.00007
 377,-0.00029396,-0.00007726,-0.00006207,0.00001170,-0.00067016,-0.0008
 8171,0.00534173,-0.00008428,0.00031659,-0.00089477,0.00032916,-0.00129
 780,0.00790584,-0.00064299,-0.00200030,0.00283670,-0.00350724,-0.05346
 683,-0.04808464,-0.00056362,-0.00371772,0.00377556,0.00029841,-0.00016
 902,-0.00290304,0.00066395,0.00047343,-0.00071211,0.00000166,0.0000229
 2,0.00003629,0.00003714,0.00001252,0.00003110,-0.00001294,-0.00000232,
 -0.00000716,-0.00001063,-0.00000302,-0.00000878,-0.00001533,-0.0000042
 6,-0.00003254,0.00000494,-0.00001348,0.00004015,0.00000755,0.00000231,
 0.00000219,0.00000260,-0.00000376,-0.00000208,0.00002938,0.00014825,-0
 .00090454,-0.00004664,-0.00015441,0.00040787,0.00023093,0.00105065,-0.
 00473128,0.00395448,0.05984218,0.03812211\\0.00000132,-0.00000594,-0.0
 0000145,0.00000004,0.00001439,0.00000707,-0.00001770,0.00001750,-0.000
 01629,-0.00000431,-0.00000045,-0.00000259,-0.00001879,-0.00002861,0.00
 000638,0.00000390,-0.00000134,-0.00000345,0.00001221,0.00000985,-0.000
 00515,-0.00000157,-0.00000243,0.00005633,0.00000231,-0.00000947,-0.000
 02485,-0.00001800,-0.00000128,-0.00001655,-0.00000211,0.00000404,-0.00
 000279,0.00001506,-0.00000792,-0.00000072,-0.00000698,0.00000107,0.000
 00026,0.00000264,0.00000718,0.00000302,-0.00000564,0.00000457,0.000012
 47,-0.00000173,0.00000409,-0.00004471,0.00000519,0.00000492,0.00002089
 ,0.00000895,-0.00000901,0.00000204,0.00002697,0.00000338,-0.00001231,-
 0.00001944,0.00002033,-0.00000019,-0.00000340,0.00000001,-0.00000737,0
 .00000063,-0.00000460,0.00001681,0.00000140,0.00000082,0.00000091,0.00
 001836,-0.00002105,0.00001014,-0.00000111,0.00000153,0.00000250,0.0000
 0182,0.00000094,0.00000151,0.00000027,0.00000154,0.00000090,0.00000014
 ,-0.00000121,-0.00000117,-0.00000042,-0.00000285,-0.00000164\\\@


 FRICTION IS A DRAG,
 AND ENTROPY AIN'T WHAT IT USED TO BE.
 Job cpu time:       0 days 11 hours  4 minutes 51.4 seconds.
 Elapsed time:       0 days  1 hours 34 minutes 47.4 seconds.
 File lengths (MBytes):  RWF=   1631 Int=      0 D2E=      0 Chk=     33 Scr=      1
 Normal termination of Gaussian 16 at Sun Jan  7 07:09:07 2024.
