
Running Job 1 of 1 163-COSMO.in
qchem 163-COSMO.in_658319.0 /expanse/lustre/scratch/selhajj/temp_project/qcscratch/28871619/qchem658319/ 0
/cm/shared/apps/spack/cpu/opt/spack/linux-centos8-zen2/gcc-10.2.0/qchem-5.4-akfmr7b3t57bfs6qan3padb2wnb2i7cl/exe/qcprog.exe_s 163-COSMO.in_658319.0 /expanse/lustre/scratch/selhajj/temp_project/qcscratch/28871619/qchem658319/
                  Welcome to Q-Chem
     A Quantum Leap Into The Future Of Chemistry


 Q-Chem 5.4, Q-Chem, Inc., Pleasanton, CA (2021)

 License issued to: University of California, San Diego (site)

 E. Epifanovsky,  A. T. B. Gilbert,  Xintian Feng,  Joonho Lee,  Yuezhi Mao,  
 N. Mardirossian,  P. Pokhilko,  A. White,  M. Wormit,  M. P. Coons,  
 A. L. Dempwolff,  Zhengting Gan,  D. Hait,  P. R. Horn,  L. D. Jacobson,  
 I. Kaliman,  J. Kussmann,  A. W. Lange,  Ka Un Lao,  D. S. Levine,  Jie Liu,  
 S. C. McKenzie,  A. F. Morrison,  K. Nanda,  F. Plasser,  D. R. Rehn,  
 M. L. Vidal,  Zhi-Qiang You,  Ying Zhu,  B. Alam,  B. Albrecht,  
 A. Aldossary,  E. Alguire,  J. H. Andersen,  D. Barton,  K. Begam,  A. Behn,  
 Y. A. Bernard,  E. J. Berquist,  H. Burton,  A. Carreras,  K. Carter-Fenk,  
 R. Chakraborty,  A. D. Chien,  K. D. Closser,  V. Cofer-Shabica,  
 S. Dasgupta,  Jia Deng,  M. de Wergifosse,  M. Diedenhofen,  Hainam Do,  
 S. Ehlert,  Po-Tung Fang,  S. Fatehi,  Qingguo Feng,  J. Gayvert,  
 Qinghui Ge,  G. Gidofalvi,  M. Goldey,  J. Gomes,  C. Gonzalez-Espinoza,  
 S. Gulania,  A. Gunina,  M. W. D. Hanson-Heine,  P. H. P. Harbach,  
 A. W. Hauser,  M. F. Herbst,  M. Hernandez Vera,  M. Hodecker,  
 Z. C. Holden,  S. Houck,  Xunkun Huang,  Kerwin Hui,  B. C. Huynh,  
 M. Ivanov,  Hyunjun Ji,  Hanjie Jiang,  B. Kaduk,  S. Kaehler,  
 K. Khistyaev,  Jaehoon Kim,  P. Klunzinger,  Z. Koczor-Benda,  
 Joong Hoon Koh,  D. Kosenkov,  L. Koulias,  T. Kowalczyk,  C. M. Krauter,  
 K. Kue,  A. Kunitsa,  T. Kus,  A. Landau,  K. V. Lawler,  D. Lefrancois,  
 S. Lehtola,  Rain Li,  Yi-Pei Li,  Jiashu Liang,  M. Liebenthal,  
 Hung-Hsuan Lin,  You-Sheng Lin,  Fenglai Liu,  Kuan-Yu Liu,  
 M. Loipersberger,  A. Luenser,  A. Manjanath,  P. Manohar,  E. Mansoor,  
 S. F. Manzer,  Shan-Ping Mao,  A. V. Marenich,  T. Markovich,  S. Mason,  
 S. A. Maurer,  P. F. McLaughlin,  M. F. S. J. Menger,  J.-M. Mewes,  
 S. A. Mewes,  P. Morgante,  J. W. Mullinax,  T. S. Nguyen-Beck,  
 K. J. Oosterbaan,  G. Paran,  Alexander C. Paul,  Suranjan K. Paul,  
 F. Pavosevic,  Zheng Pei,  S. Prager,  E. I. Proynov,  E. Ramos,  B. Rana,  
 A. E. Rask,  A. Rettig,  R. M. Richard,  F. Rob,  E. Rossomme,  T. Scheele,  
 M. Scheurer,  M. Schneider,  N. Sergueev,  S. M. Sharada,  W. Skomorowski,  
 D. W. Small,  C. J. Stein,  Yu-Chuan Su,  E. J. Sundstrom,  Zhen Tao,  
 J. Thirman,  T. Tsuchimochi,  N. M. Tubman,  S. P. Veccham,  O. Vydrov,  
 J. Wenzel,  J. Witte,  A. Yamada,  Kun Yao,  S. Yeganeh,  S. R. Yost,  
 A. Zech,  Igor Ying Zhang,  Xing Zhang,  Yu Zhang,  D. Zuev,  
 A. Aspuru-Guzik,  A. T. Bell,  N. A. Besley,  K. B. Bravaya,  B. R. Brooks,  
 D. Casanova,  Jeng-Da Chai,  S. Coriani,  C. J. Cramer,  
 A. E. DePrince, III,  R. A. DiStasio Jr.,  A. Dreuw,  B. D. Dunietz,  
 T. R. Furlani,  W. A. Goddard III,  S. Grimme,  S. Hammes-Schiffer,  
 T. Head-Gordon,  W. J. Hehre,  Chao-Ping Hsu,  T.-C. Jagau,  Yousung Jung,  
 A. Klamt,  Jing Kong,  D. S. Lambrecht,  WanZhen Liang,  N. J. Mayhall,  
 C. W. McCurdy,  J. B. Neaton,  C. Ochsenfeld,  J. A. Parkhill,  R. Peverati,  
 V. A. Rassolov,  Yihan Shao,  L. V. Slipchenko,  T. Stauch,  R. P. Steele,  
 J. E. Subotnik,  A. J. W. Thom,  A. Tkatchenko,  D. G. Truhlar,  
 T. Van Voorhis,  T. A. Wesolowski,  K. B. Whaley,  H. L. Woodcock III,  
 P. M. Zimmerman,  S. Faraji,  P. M. W. Gill,  M. Head-Gordon,  
 J. M. Herbert,  A. I. Krylov

 Contributors to earlier versions of Q-Chem not listed above: 
 R. D. Adamson,  B. Austin,  R. Baer,  J. Baker,  G. J. O. Beran,  
 K. Brandhorst,  S. T. Brown,  E. F. C. Byrd,  A. K. Chakraborty,  
 G. K. L. Chan,  Chun-Min Chang,  Yunqing Chen,  C.-L. Cheng,  
 Siu Hung Chien,  D. M. Chipman,  D. L. Crittenden,  H. Dachsel,  
 R. J. Doerksen,  A. D. Dutoi,  R. G. Edgar,  J. Fosso-Tande,  
 L. Fusti-Molnar,  D. Ghosh,  A. Ghysels,  A. Golubeva-Zadorozhnaya,  
 J. Gonthier,  M. S. Gordon,  S. R. Gwaltney,  G. Hawkins,  J. E. Herr,  
 A. Heyden,  S. Hirata,  E. G. Hohenstein,  G. Kedziora,  F. J. Keil,  
 C. Kelley,  Jihan Kim,  R. A. King,  R. Z. Khaliullin,  P. P. Korambath,  
 W. Kurlancheek,  A. Laurent,  A. M. Lee,  M. S. Lee,  S. V. Levchenko,  
 Ching Yeh Lin,  D. Liotard,  E. Livshits,  R. C. Lochan,  I. Lotan,  
 L. A. Martinez-Martinez,  P. E. Maslen,  N. Nair,  D. P. O'Neill,  
 D. Neuhauser,  E. Neuscamman,  C. M. Oana,  R. Olivares-Amaya,  R. Olson,  
 T. M. Perrine,  B. Peters,  P. A. Pieniazek,  A. Prociuk,  Y. M. Rhee,  
 J. Ritchie,  M. A. Rohrdanz,  E. Rosta,  N. J. Russ,  H. F. Schaefer III,  
 M. W. Schmidt,  N. E. Schultz,  S. Sharma,  N. Shenvi,  C. D. Sherrill,  
 A. C. Simmonett,  A. Sodt,  T. Stein,  D. Stuck,  K. S. Thanthiriwatte,  
 V. Vanovschi,  L. Vogt,  Tao Wang,  A. Warshel,  M. A. Watson,  
 C. F. Williams,  Q. Wu,  X. Xu,  Jun Yang,  W. Zhang,  Yan Zhao

 Please cite Q-Chem as follows:
 Y. Shao et al., Mol. Phys. 113, 184-215 (2015)
 DOI: 10.1080/00268976.2014.952696

 Q-Chem 5.4.0 for Intel X86 EM64T Linux

 Parts of Q-Chem use Armadillo 9.800.1 (Horizon Scraper).
 http://arma.sourceforge.net/

 Q-Chem begins on Thu Feb 22 07:16:32 2024  

 Host: 
0

     Scratch files written to /expanse/lustre/scratch/selhajj/temp_project/qcscratch/28871619/qchem658319//
 May1621 |scratch|qcdevops|jenkins|workspace|build_RNUM    
 Processing $rem in /cm/shared/apps/spack/cpu/opt/spack/linux-centos8-zen2/gcc-10.2.0/qchem-5.4-akfmr7b3t57bfs6qan3padb2wnb2i7cl/config/preferences:
 Processing $rem in /home/selhajj/.qchemrc:

 Checking the input file for inconsistencies... 
 Q-Chem warning in module libgen/CheckREMs.C, line 172:

 Found a $solvent section, which is only used for PCM and Kirkwood-Onsager solvation models

	...done.

--------------------------------------------------------------
User input:
--------------------------------------------------------------
$molecule
-1 1
C                 -1.7942870000      1.9642040000     -5.1378580000
C                 -1.7405090000      0.6319020000     -5.5240270000
C                 -1.4321210000     -0.3594110000     -4.5850940000
C                 -1.5323200000      2.3238010000     -3.8096620000
C                 -1.2256790000      1.3339450000     -2.8728860000
C                 -1.1819610000     -0.0098180000     -3.2654250000
C                 -1.5977350000      3.7609100000     -3.4158050000
C                 -0.9610350000      1.6811550000     -1.4461400000
C                 -1.2454010000      4.1323220000     -2.0501650000
C                 -0.8738770000      3.1261270000     -1.0844580000
C                 -1.2273890000      5.5231940000     -1.6920930000
C                 -0.8289070000      5.8763290000     -0.3610550000
C                 -0.4311960000      4.9081610000      0.5189020000
C                 -0.4536870000      3.5442340000      0.1756630000
O                 -1.9356770000      4.5813130000     -4.2854480000
O                 -0.8299420000      0.7777260000     -0.6330130000
H                 -2.0369460000      2.7501320000     -5.8418190000
H                 -1.9394530000      0.3589330000     -6.5550110000
H                 -1.3910760000     -1.4003340000     -4.8876730000
H                 -0.9496560000     -0.7556390000     -2.5154200000
Br                 0.1647880000      2.3874120000      1.5828470000
N                 -1.5556120000      6.4976890000     -2.5534640000
S                 -0.9323170000      7.6079730000      0.2585300000
O                 -0.4849230000      8.4272230000     -0.9079700000
O                 -2.3663940000      7.7740340000      0.5784490000
O                 -0.0190660000      7.6423600000      1.4170290000
H                 -0.1038240000      5.2155920000      1.5037640000
H                 -1.8016050000      6.2291590000     -3.4967770000
H                 -1.3500820000      7.4569920000     -2.2705410000
$end
$rem
MAX_SCF_CYCLES=200
BASIS  =  6-311++G(d,p)
GUI  =  2
JOB_TYPE  =  SP
METHOD  =  B3LYP
SOLVENT_METHOD = COSMO
$end
$solvent
dielectric 37.219
opticaldielectric 1.43
$end





--------------------------------------------------------------
 ----------------------------------------------------------------
             Standard Nuclear Orientation (Angstroms)
    I     Atom           X                Y                Z
 ----------------------------------------------------------------
    1      C       3.8934796872    -2.2524047833    -0.1025091808
    2      C       5.2015274273    -1.7883059114    -0.1284038848
    3      C       5.4608328648    -0.4147526094    -0.0541622677
    4      C       2.8271083542    -1.3488515657    -0.0103946381
    5      C       3.0865762172     0.0217040286     0.0647496824
    6      C       4.4084505142     0.4843680221     0.0477937964
    7      C       1.4295704957    -1.8691964861     0.0181331447
    8      C       1.9745347838     1.0093392511     0.1836441612
    9      C       0.3250262778    -0.9169348403     0.0335785154
   10      C       0.5763214115     0.5041073571     0.0567798019
   11      C      -1.0210986973    -1.4147516365    -0.0229095225
   12      C      -2.0948413541    -0.4655963066    -0.0594506854
   13      C      -1.8285052208     0.8753025364    -0.0895005519
   14      C      -0.5125238179     1.3681861358    -0.0272556941
   15      O       1.2739462208    -3.1017732503     0.0091648256
   16      O       2.2470444575     2.1844537769     0.3821112361
   17      H       3.6649227565    -3.3095136700    -0.1515992212
   18      H       6.0238577829    -2.4918442688    -0.2047279581
   19      H       6.4833740172    -0.0531081179    -0.0737144691
   20      H       4.5789108610     1.5516268116     0.1157939693
   21      Br     -0.4067294813     3.2877341674    -0.0983766337
   22      N      -1.3087609149    -2.7245558204    -0.0544418999
   23      S      -3.8586611879    -0.9874059942     0.0396673611
   24      O      -3.9094858214    -2.2205136754    -0.8023044358
   25      O      -4.0593117321    -1.2505582161     1.4808444951
   26      O      -4.6149357392     0.1569189659    -0.5042986089
   27      H      -2.6635295592     1.5611879406    -0.1522299055
   28      H      -0.5357474343    -3.3763702980    -0.0613973676
   29      H      -2.2731639132    -2.9837875633    -0.2672235043
 ----------------------------------------------------------------
 Molecular Point Group                 C1    NOp =  1
 Largest Abelian Subgroup              C1    NOp =  1
 Nuclear Repulsion Energy =        2349.72773630 hartrees
 There are       95 alpha and       95 beta electrons
 Requested basis set is 6-311++G(d,p)
 There are 187 shells and 567 basis functions

 Total QAlloc Memory Limit   8000 MB
 Mega-Array Size       188 MB
 MEM_STATIC part       192 MB
 A cutoff of  1.0D-08 yielded  10755 shell pairs
 There are    105077 function pairs (    112801 Cartesian)
 Smallest overlap matrix eigenvalue = 5.35E-08

 Q-Chem warning in module stvman/mkSTV.C, line 323:

 Overlap eigenvalue is smaller than square root of threshold
 Use THRESH >= 12 to get rid of this warning

 Linear dependence detected in AO basis
 Tighter screening thresholds may be required for diffuse basis sets
 Use S2THRESH > 14 and THRESH = 14 in case of SCF convergence issues
 Number of orthogonalized atomic orbitals = 558
 Maximum deviation from orthogonality = 1.312E-10

 Scale SEOQF with 1.000000e-02/1.000000e-01/1.000000e-01

 Standard Electronic Orientation quadrupole field applied
 Nucleus-field energy     =     0.0000000586 hartrees
 Guess from superposition of atomic densities
 Warning:  Energy on first SCF cycle will be non-variational
 SAD guess density has 189.000000 electrons

 -----------------------------------------------------------------------
  General SCF calculation program by
  Eric Jon Sundstrom, Paul Horn, Yuezhi Mao, Dmitri Zuev, Alec White,
  David Stuck, Shaama M.S., Shane Yost, Joonho Lee, David Small,
  Daniel Levine, Susi Lehtola, Hugh Burton, Evgeny Epifanovsky,
  Bang C. Huynh
 -----------------------------------------------------------------------
 Exchange:     0.2000 Hartree-Fock + 0.0800 Slater + 0.7200 B88
 Correlation:  0.1900 VWN1RPA + 0.8100 LYP
 Using SG-1 standard quadrature grid
 using 8 threads for integral computing
 -------------------------------------------------------
 OpenMP Integral computing Module                
 Release: version 1.0, May 2013, Q-Chem Inc. Pittsburgh 
 -------------------------------------------------------
 A restricted SCF calculation will be
 performed using DIIS
 SCF converges when DIIS error is below 1.0e-05
 ---------------------------------------
  Cycle       Energy         DIIS error
 ---------------------------------------
    1   -3946.7129033536      2.89e-02  
    2   -3940.7385099279      4.19e-03  
    3   -3939.7621105953      7.29e-03  
    4   -3941.1914108215      1.36e-03  
    5   -3941.2536655447      5.09e-04  
    6   -3941.2613313608      1.93e-04  
    7   -3941.2624464373      5.93e-05  
    8   -3941.2625636609      2.29e-05  
    9   -3941.2625797723      8.00e-06  Convergence criterion met
 ---------------------------------------
 SCF time:   CPU 429.79s  wall 54.00s 
 SCF   energy in the final basis set =    -3941.2625797723
 Total energy in the final basis set =    -3941.2625797723
 Exchange:     0.2000 Hartree-Fock + 0.0800 Slater + 0.7200 B88
 Correlation:  0.1900 VWN1RPA + 0.8100 LYP
 Using SG-1 standard quadrature grid
 in get_qchem_info
 IBasis=      401111
 IBasis=      401111
 USING 1082 GRID
 MICHARGE=          -1
 Set epsilon to    37.2190017700195     
==== cosmo data ====
outfile: 163-COSMO.out.cosmo.0
phsran:    0.00000D+00
ampran:    0.10000D-04
volume:   2221.5936026
area:   1045.5320411
routf:      0.8500000
rsolv [a.u]:      2.4566438
disex:     10.0000000
disex2:   4841.6655147
fepsi:      0.9731320
eps :    37.2190018
lcavity:     1
nppa:  1082
nspa:    92
nsph:    32
maxnps:  2248
natoms:    29
Atom   Radius [a.u.] nuc. charge
    1      3.7794520    6
    2      3.7794520    6
    3      3.7794520    6
    4      3.7794520    6
    5      3.7794520    6
    6      3.7794520    6
    7      3.7794520    6
    8      3.7794520    6
    9      3.7794520    6
   10      3.7794520    6
   11      3.7794520    6
   12      3.7794520    6
   13      3.7794520    6
   14      3.7794520    6
   15      3.2503287    8
   16      3.2503287    8
   17      2.4566438    1
   18      2.4566438    1
   19      2.4566438    1
   20      2.4566438    1
   21      4.0818081   35
   22      3.4581986    7
   23      4.0818081   16
   24      3.2503287    8
   25      3.2503287    8
   26      3.2503287    8
   27      2.4566438    1
   28      2.4566438    1
   29      2.4566438    1
=== end cosmo data ===
 number of segments:         1177
 f_epsilon=  0.973132003749614     
Ediel:   -0.0820544
 A restricted SCF calculation will be
 performed using Roothaan-Hall, DIIS
 SCF converges when DIIS error is below 1.0e-05
 ---------------------------------------
  Cycle       Energy         DIIS error
 ---------------------------------------
 number of segments:         1177
 f_epsilon=  0.973132003749614     
Ediel:   -0.0986465
    1   -3941.3446376371      2.11e-04  Roothaan Step
 ---------------------------------------
  Cycle       Energy         DIIS error
 ---------------------------------------
 number of segments:         1177
 f_epsilon=  0.973132003749614     
Ediel:   -0.0941846
    1   -3941.3500342140      2.11e-04  
 number of segments:         1177
 f_epsilon=  0.973132003749614     
Ediel:   -0.0976541
    2   -3941.3464783021      3.97e-04  
 number of segments:         1177
 f_epsilon=  0.973132003749614     
Ediel:   -0.0979024
    3   -3941.3515763531      4.92e-05  
 number of segments:         1177
 f_epsilon=  0.973132003749614     
Ediel:   -0.0980139
    4   -3941.3516460137      1.50e-05  
    5   -3941.3516557580      5.23e-06  Convergence criterion met
 ---------------------------------------
 SCF time:   CPU 319.15s  wall 41.00s 
before final oc correction, ETot:     -3941.3516557580
 number of outlayer segments:          527
SCF energy after oc correction:     -3941.3565442339
 SCF   energy in the final basis set =    -3941.3565442339
 Total energy in the final basis set =    -3941.3516557580
 
 --------------------------------------------------------------
 
                    Orbital Energies (a.u.)
 --------------------------------------------------------------
 
 Alpha MOs
 -- Occupied --
******** -89.0653 -62.4891 -56.3096 -56.3058 -56.3053 -19.1285 -19.1235
-19.1107 -19.1092 -19.1084 -14.3299 -10.2843 -10.2778 -10.2580 -10.2492
-10.2241 -10.2181 -10.2101 -10.2089 -10.2027 -10.2020 -10.1926 -10.1920
-10.1915 -10.1906  -8.6978  -8.1240  -6.5295  -6.5168  -6.5153  -6.0867
 -6.0865  -6.0859  -2.6404  -2.6370  -2.6359  -2.6258  -2.6257  -1.1312
 -1.0650  -1.0558  -0.9979  -0.9933  -0.9494  -0.8906  -0.8797  -0.8213
 -0.8073  -0.7735  -0.7726  -0.7397  -0.6946  -0.6735  -0.6548  -0.6229
 -0.5990  -0.5854  -0.5763  -0.5497  -0.5338  -0.5110  -0.5090  -0.4976
 -0.4791  -0.4739  -0.4681  -0.4669  -0.4574  -0.4537  -0.4504  -0.4448
 -0.4354  -0.4205  -0.4189  -0.4088  -0.3933  -0.3782  -0.3725  -0.3627
 -0.3615  -0.3541  -0.3524  -0.3255  -0.3191  -0.3122  -0.3071  -0.3035
 -0.2851  -0.2804  -0.2755  -0.2742  -0.2736  -0.2614  -0.2265
 -- Virtual --
 -0.1178  -0.0674  -0.0405  -0.0226  -0.0195  -0.0023   0.0059   0.0136
  0.0208   0.0253   0.0280   0.0371   0.0383   0.0422   0.0437   0.0471
  0.0533   0.0575   0.0590   0.0670   0.0731   0.0753   0.0766   0.0827
  0.0839   0.0865   0.0974   0.1001   0.1029   0.1080   0.1094   0.1096
  0.1133   0.1147   0.1190   0.1245   0.1273   0.1282   0.1301   0.1308
  0.1398   0.1418   0.1422   0.1447   0.1525   0.1575   0.1607   0.1634
  0.1668   0.1705   0.1719   0.1761   0.1829   0.1857   0.1880   0.1894
  0.1967   0.1994   0.2013   0.2093   0.2122   0.2151   0.2167   0.2220
  0.2238   0.2263   0.2325   0.2366   0.2385   0.2398   0.2418   0.2464
  0.2520   0.2538   0.2578   0.2615   0.2632   0.2667   0.2703   0.2735
  0.2775   0.2789   0.2843   0.2891   0.2928   0.2983   0.2984   0.3029
  0.3033   0.3068   0.3090   0.3101   0.3118   0.3169   0.3200   0.3244
  0.3285   0.3301   0.3338   0.3401   0.3457   0.3491   0.3601   0.3620
  0.3638   0.3668   0.3759   0.3810   0.3884   0.3938   0.3983   0.4037
  0.4110   0.4115   0.4174   0.4241   0.4305   0.4387   0.4471   0.4479
  0.4581   0.4621   0.4774   0.4852   0.4911   0.5110   0.5191   0.5273
  0.5380   0.5425   0.5444   0.5501   0.5561   0.5600   0.5628   0.5703
  0.5837   0.5864   0.5971   0.6038   0.6054   0.6124   0.6192   0.6245
  0.6256   0.6317   0.6405   0.6474   0.6495   0.6555   0.6601   0.6750
  0.6820   0.6864   0.6957   0.7020   0.7066   0.7110   0.7212   0.7377
  0.7399   0.7444   0.7535   0.7618   0.7693   0.7754   0.7797   0.7859
  0.8136   0.8188   0.8288   0.8323   0.8473   0.8542   0.8570   0.8722
  0.8736   0.8782   0.8898   0.8937   0.9004   0.9035   0.9172   0.9238
  0.9278   0.9312   0.9357   0.9452   0.9478   0.9576   0.9701   0.9714
  0.9797   0.9910   0.9969   1.0052   1.0166   1.0209   1.0291   1.0415
  1.0453   1.0561   1.0749   1.0798   1.0846   1.0894   1.1022   1.1115
  1.1209   1.1246   1.1359   1.1424   1.1544   1.1610   1.1686   1.1734
  1.1760   1.1833   1.1974   1.2035   1.2069   1.2161   1.2213   1.2292
  1.2366   1.2456   1.2575   1.2733   1.2917   1.3003   1.3022   1.3134
  1.3206   1.3258   1.3543   1.3843   1.3997   1.4228   1.4411   1.4690
  1.4769   1.4917   1.4988   1.5032   1.5093   1.5197   1.5323   1.5477
  1.5617   1.5644   1.5773   1.5925   1.6001   1.6077   1.6194   1.6492
  1.6578   1.6632   1.6751   1.6923   1.7056   1.7213   1.7262   1.7333
  1.7381   1.7466   1.7562   1.7831   1.7869   1.8195   1.8238   1.8356
  1.8517   1.8644   1.8820   1.8886   1.8939   1.9003   1.9106   1.9161
  1.9344   1.9368   1.9523   1.9590   1.9663   1.9718   1.9805   1.9866
  2.0050   2.0142   2.0192   2.0411   2.0534   2.0618   2.0627   2.0969
  2.1166   2.1294   2.1341   2.1574   2.1857   2.2234   2.2505   2.2724
  2.2839   2.2989   2.3071   2.3288   2.3453   2.3588   2.3630   2.4152
  2.4349   2.4779   2.4791   2.4805   2.5053   2.5176   2.5653   2.5857
  2.6111   2.6273   2.6462   2.6513   2.6834   2.6904   2.7007   2.7180
  2.7382   2.7420   2.7488   2.7580   2.7584   2.7668   2.7820   2.7854
  2.7994   2.8153   2.8213   2.8316   2.8362   2.8403   2.8445   2.8506
  2.8546   2.8640   2.8685   2.8739   2.8765   2.8931   2.8974   2.9160
  2.9285   2.9566   2.9659   2.9735   2.9820   3.0007   3.0188   3.0286
  3.0543   3.0856   3.0868   3.0973   3.1182   3.1441   3.1531   3.1648
  3.1949   3.2121   3.2256   3.2293   3.2535   3.2584   3.3172   3.3237
  3.3449   3.3510   3.3777   3.4105   3.4253   3.4389   3.5047   3.5179
  3.5362   3.5537   3.5696   3.5835   3.5877   3.6037   3.6479   3.6749
  3.7884   3.8107   3.8190   3.9073   3.9250   4.0180   4.0296   4.0354
  4.0694   4.0945   4.1048   4.1829   4.2216   4.2471   4.2907   4.4372
  4.4568   4.7251   4.8123   4.8306   4.8511   5.0184   5.0389   5.0480
  5.0508   5.0616   5.0641   5.0771   5.0903   5.1117   5.1485   5.2511
  5.2789   5.3085   5.3301   5.7372   5.8182   6.8134   7.5745   7.7135
  7.7851   8.1986  17.3939  17.4112  17.4922  23.4622  23.6257  23.8396
 23.8580  23.8750  23.9190  23.9435  23.9506  23.9552  24.0027  24.0617
 24.0892  24.1393  24.1775  35.6976  48.0591  49.8867  49.8926  49.9538
 50.0309  50.0760 189.2887 289.7720 289.9101 290.00921020.8854
 --------------------------------------------------------------
 
          Ground-State Mulliken Net Atomic Charges

     Atom                 Charge (a.u.)
  ----------------------------------------
      1 C                     0.090930
      2 C                    -0.548744
      3 C                    -0.471484
      4 C                     0.291038
      5 C                     0.064711
      6 C                     0.187093
      7 C                    -0.394965
      8 C                    -1.134970
      9 C                     0.443874
     10 C                     0.949631
     11 C                     0.160840
     12 C                    -0.489492
     13 C                    -0.411371
     14 C                     0.166376
     15 O                    -0.344461
     16 O                    -0.223714
     17 H                     0.209089
     18 H                     0.224162
     19 H                     0.221597
     20 H                     0.210762
     21 Br                   -0.207083
     22 N                    -0.452149
     23 S                     0.577510
     24 O                    -0.424133
     25 O                    -0.348696
     26 O                    -0.327505
     27 H                     0.279805
     28 H                     0.370951
     29 H                     0.330389
  ----------------------------------------
  Sum of atomic charges =    -1.000009

 -----------------------------------------------------------------
                    Cartesian Multipole Moments
 -----------------------------------------------------------------
    Charge (ESU x 10^10)
                -4.8032
    Dipole Moment (Debye)
         X      19.4204      Y       1.9891      Z      -1.4311
       Tot      19.5743
    Quadrupole Moments (Debye-Ang)
        XX    -210.4790     XY     -24.9614     YY    -169.3149
        XZ       0.0637     YZ       0.6252     ZZ    -158.4794
    Octopole Moments (Debye-Ang^2)
       XXX     504.0224    XXY      73.3124    XYY      13.7602
       YYY      99.7231    XXZ     -12.1154    XYZ      -5.6752
       YYZ      -6.3315    XZZ      12.4561    YZZ      44.3301
       ZZZ      -9.0508
    Hexadecapole Moments (Debye-Ang^3)
      XXXX   -8627.9022   XXXY    -511.4750   XXYY   -1985.0863
      XYYY    -115.3949   YYYY   -3303.8829   XXXZ     -35.8547
      XXYZ      20.3292   XYYZ     -25.6371   YYYZ     -15.8248
      XXZZ   -1594.5255   XYZZ     -38.7360   YYZZ    -630.6848
      XZZZ      37.0922   YZZZ       1.2995   ZZZZ    -310.3889
 -----------------------------------------------------------------
 Total job time:  98.60s(wall), 757.27s(cpu) 
 Thu Feb 22 07:18:11 2024

        *************************************************************
        *                                                           *
        *  Thank you very much for using Q-Chem.  Have a nice day.  *
        *                                                           *
        *************************************************************


