
Running Job 1 of 1 335-an-SM12.in
qchem 335-an-SM12.in_480859.0 /expanse/lustre/scratch/selhajj/temp_project/qcscratch/28710176/qchem480859/ 0
/cm/shared/apps/spack/cpu/opt/spack/linux-centos8-zen2/gcc-10.2.0/qchem-5.4-akfmr7b3t57bfs6qan3padb2wnb2i7cl/exe/qcprog.exe_s 335-an-SM12.in_480859.0 /expanse/lustre/scratch/selhajj/temp_project/qcscratch/28710176/qchem480859/
                  Welcome to Q-Chem
     A Quantum Leap Into The Future Of Chemistry


 Q-Chem 5.4, Q-Chem, Inc., Pleasanton, CA (2021)

 License issued to: University of California, San Diego (site)

 E. Epifanovsky,  A. T. B. Gilbert,  Xintian Feng,  Joonho Lee,  Yuezhi Mao,  
 N. Mardirossian,  P. Pokhilko,  A. White,  M. Wormit,  M. P. Coons,  
 A. L. Dempwolff,  Zhengting Gan,  D. Hait,  P. R. Horn,  L. D. Jacobson,  
 I. Kaliman,  J. Kussmann,  A. W. Lange,  Ka Un Lao,  D. S. Levine,  Jie Liu,  
 S. C. McKenzie,  A. F. Morrison,  K. Nanda,  F. Plasser,  D. R. Rehn,  
 M. L. Vidal,  Zhi-Qiang You,  Ying Zhu,  B. Alam,  B. Albrecht,  
 A. Aldossary,  E. Alguire,  J. H. Andersen,  D. Barton,  K. Begam,  A. Behn,  
 Y. A. Bernard,  E. J. Berquist,  H. Burton,  A. Carreras,  K. Carter-Fenk,  
 R. Chakraborty,  A. D. Chien,  K. D. Closser,  V. Cofer-Shabica,  
 S. Dasgupta,  Jia Deng,  M. de Wergifosse,  M. Diedenhofen,  Hainam Do,  
 S. Ehlert,  Po-Tung Fang,  S. Fatehi,  Qingguo Feng,  J. Gayvert,  
 Qinghui Ge,  G. Gidofalvi,  M. Goldey,  J. Gomes,  C. Gonzalez-Espinoza,  
 S. Gulania,  A. Gunina,  M. W. D. Hanson-Heine,  P. H. P. Harbach,  
 A. W. Hauser,  M. F. Herbst,  M. Hernandez Vera,  M. Hodecker,  
 Z. C. Holden,  S. Houck,  Xunkun Huang,  Kerwin Hui,  B. C. Huynh,  
 M. Ivanov,  Hyunjun Ji,  Hanjie Jiang,  B. Kaduk,  S. Kaehler,  
 K. Khistyaev,  Jaehoon Kim,  P. Klunzinger,  Z. Koczor-Benda,  
 Joong Hoon Koh,  D. Kosenkov,  L. Koulias,  T. Kowalczyk,  C. M. Krauter,  
 K. Kue,  A. Kunitsa,  T. Kus,  A. Landau,  K. V. Lawler,  D. Lefrancois,  
 S. Lehtola,  Rain Li,  Yi-Pei Li,  Jiashu Liang,  M. Liebenthal,  
 Hung-Hsuan Lin,  You-Sheng Lin,  Fenglai Liu,  Kuan-Yu Liu,  
 M. Loipersberger,  A. Luenser,  A. Manjanath,  P. Manohar,  E. Mansoor,  
 S. F. Manzer,  Shan-Ping Mao,  A. V. Marenich,  T. Markovich,  S. Mason,  
 S. A. Maurer,  P. F. McLaughlin,  M. F. S. J. Menger,  J.-M. Mewes,  
 S. A. Mewes,  P. Morgante,  J. W. Mullinax,  T. S. Nguyen-Beck,  
 K. J. Oosterbaan,  G. Paran,  Alexander C. Paul,  Suranjan K. Paul,  
 F. Pavosevic,  Zheng Pei,  S. Prager,  E. I. Proynov,  E. Ramos,  B. Rana,  
 A. E. Rask,  A. Rettig,  R. M. Richard,  F. Rob,  E. Rossomme,  T. Scheele,  
 M. Scheurer,  M. Schneider,  N. Sergueev,  S. M. Sharada,  W. Skomorowski,  
 D. W. Small,  C. J. Stein,  Yu-Chuan Su,  E. J. Sundstrom,  Zhen Tao,  
 J. Thirman,  T. Tsuchimochi,  N. M. Tubman,  S. P. Veccham,  O. Vydrov,  
 J. Wenzel,  J. Witte,  A. Yamada,  Kun Yao,  S. Yeganeh,  S. R. Yost,  
 A. Zech,  Igor Ying Zhang,  Xing Zhang,  Yu Zhang,  D. Zuev,  
 A. Aspuru-Guzik,  A. T. Bell,  N. A. Besley,  K. B. Bravaya,  B. R. Brooks,  
 D. Casanova,  Jeng-Da Chai,  S. Coriani,  C. J. Cramer,  
 A. E. DePrince, III,  R. A. DiStasio Jr.,  A. Dreuw,  B. D. Dunietz,  
 T. R. Furlani,  W. A. Goddard III,  S. Grimme,  S. Hammes-Schiffer,  
 T. Head-Gordon,  W. J. Hehre,  Chao-Ping Hsu,  T.-C. Jagau,  Yousung Jung,  
 A. Klamt,  Jing Kong,  D. S. Lambrecht,  WanZhen Liang,  N. J. Mayhall,  
 C. W. McCurdy,  J. B. Neaton,  C. Ochsenfeld,  J. A. Parkhill,  R. Peverati,  
 V. A. Rassolov,  Yihan Shao,  L. V. Slipchenko,  T. Stauch,  R. P. Steele,  
 J. E. Subotnik,  A. J. W. Thom,  A. Tkatchenko,  D. G. Truhlar,  
 T. Van Voorhis,  T. A. Wesolowski,  K. B. Whaley,  H. L. Woodcock III,  
 P. M. Zimmerman,  S. Faraji,  P. M. W. Gill,  M. Head-Gordon,  
 J. M. Herbert,  A. I. Krylov

 Contributors to earlier versions of Q-Chem not listed above: 
 R. D. Adamson,  B. Austin,  R. Baer,  J. Baker,  G. J. O. Beran,  
 K. Brandhorst,  S. T. Brown,  E. F. C. Byrd,  A. K. Chakraborty,  
 G. K. L. Chan,  Chun-Min Chang,  Yunqing Chen,  C.-L. Cheng,  
 Siu Hung Chien,  D. M. Chipman,  D. L. Crittenden,  H. Dachsel,  
 R. J. Doerksen,  A. D. Dutoi,  R. G. Edgar,  J. Fosso-Tande,  
 L. Fusti-Molnar,  D. Ghosh,  A. Ghysels,  A. Golubeva-Zadorozhnaya,  
 J. Gonthier,  M. S. Gordon,  S. R. Gwaltney,  G. Hawkins,  J. E. Herr,  
 A. Heyden,  S. Hirata,  E. G. Hohenstein,  G. Kedziora,  F. J. Keil,  
 C. Kelley,  Jihan Kim,  R. A. King,  R. Z. Khaliullin,  P. P. Korambath,  
 W. Kurlancheek,  A. Laurent,  A. M. Lee,  M. S. Lee,  S. V. Levchenko,  
 Ching Yeh Lin,  D. Liotard,  E. Livshits,  R. C. Lochan,  I. Lotan,  
 L. A. Martinez-Martinez,  P. E. Maslen,  N. Nair,  D. P. O'Neill,  
 D. Neuhauser,  E. Neuscamman,  C. M. Oana,  R. Olivares-Amaya,  R. Olson,  
 T. M. Perrine,  B. Peters,  P. A. Pieniazek,  A. Prociuk,  Y. M. Rhee,  
 J. Ritchie,  M. A. Rohrdanz,  E. Rosta,  N. J. Russ,  H. F. Schaefer III,  
 M. W. Schmidt,  N. E. Schultz,  S. Sharma,  N. Shenvi,  C. D. Sherrill,  
 A. C. Simmonett,  A. Sodt,  T. Stein,  D. Stuck,  K. S. Thanthiriwatte,  
 V. Vanovschi,  L. Vogt,  Tao Wang,  A. Warshel,  M. A. Watson,  
 C. F. Williams,  Q. Wu,  X. Xu,  Jun Yang,  W. Zhang,  Yan Zhao

 Please cite Q-Chem as follows:
 Y. Shao et al., Mol. Phys. 113, 184-215 (2015)
 DOI: 10.1080/00268976.2014.952696

 Q-Chem 5.4.0 for Intel X86 EM64T Linux

 Parts of Q-Chem use Armadillo 9.800.1 (Horizon Scraper).
 http://arma.sourceforge.net/

 Q-Chem begins on Thu Feb 15 14:30:15 2024  

 Host: 
0

     Scratch files written to /expanse/lustre/scratch/selhajj/temp_project/qcscratch/28710176/qchem480859//
 May1621 |scratch|qcdevops|jenkins|workspace|build_RNUM    
 Processing $rem in /cm/shared/apps/spack/cpu/opt/spack/linux-centos8-zen2/gcc-10.2.0/qchem-5.4-akfmr7b3t57bfs6qan3padb2wnb2i7cl/config/preferences:
 Processing $rem in /home/selhajj/.qchemrc:
 Symmetry turned off for PCM/SM12/SMD calculation
 Method-specific promolecule density matrix will be built for SM12 calculation

 Checking the input file for inconsistencies... 	...done.

--------------------------------------------------------------
User input:
--------------------------------------------------------------
$molecule
-2 1
O                  0.1263790000      0.3167840000      2.7029640000
C                  0.0673960000      0.1207190000      1.4519070000
C                 -1.1932830000      0.0534820000      0.7293370000
C                 -2.4460020000      0.2397810000      1.3735440000
C                 -3.6426520000      0.1528670000      0.6682000000
C                 -3.6443440000     -0.0737380000     -0.7108400000
C                 -2.4144260000     -0.2023950000     -1.3847870000
C                 -1.2264640000     -0.1521350000     -0.6698570000
O                 -0.0665150000     -0.3403690000     -1.3920440000
C                  1.1574360000     -0.1725590000     -0.7788930000
C                  2.2742540000     -0.2423500000     -1.5991500000
C                  3.5624990000     -0.1352450000     -1.0402790000
C                  3.6905080000      0.0899830000      0.3330340000
C                  2.5648160000      0.1965360000      1.1445210000
C                  1.2556250000      0.0323240000      0.6173370000
H                 -2.4266630000      0.4334200000      2.4397970000
H                 -4.5899780000      0.2645300000      1.1927080000
H                 -4.5782950000     -0.1493940000     -1.2615630000
H                 -2.3728450000     -0.3710770000     -2.4564600000
H                  2.1322610000     -0.4093480000     -2.6624590000
H                  4.4408590000     -0.2262500000     -1.6739150000
H                  4.6834760000      0.1849870000      0.7689050000
H                  2.6459580000      0.3894480000      2.2079920000
$end

$rem
BASIS  =  6-311++G(d,p)
GUI  =  2
JOB_TYPE  =  SP
THRESH = 14
METHOD  =  B3LYP
SCF_CONVERGENCE  = 5
SOLVENT_METHOD = sm12
$end

$smx
solvent dimethylformamide
charges CM5
$end





--------------------------------------------------------------
 ----------------------------------------------------------------
             Standard Nuclear Orientation (Angstroms)
    I     Atom           X                Y                Z
 ----------------------------------------------------------------
    1      O       0.1263790000     0.3167840000     2.7029640000
    2      C       0.0673960000     0.1207190000     1.4519070000
    3      C      -1.1932830000     0.0534820000     0.7293370000
    4      C      -2.4460020000     0.2397810000     1.3735440000
    5      C      -3.6426520000     0.1528670000     0.6682000000
    6      C      -3.6443440000    -0.0737380000    -0.7108400000
    7      C      -2.4144260000    -0.2023950000    -1.3847870000
    8      C      -1.2264640000    -0.1521350000    -0.6698570000
    9      O      -0.0665150000    -0.3403690000    -1.3920440000
   10      C       1.1574360000    -0.1725590000    -0.7788930000
   11      C       2.2742540000    -0.2423500000    -1.5991500000
   12      C       3.5624990000    -0.1352450000    -1.0402790000
   13      C       3.6905080000     0.0899830000     0.3330340000
   14      C       2.5648160000     0.1965360000     1.1445210000
   15      C       1.2556250000     0.0323240000     0.6173370000
   16      H      -2.4266630000     0.4334200000     2.4397970000
   17      H      -4.5899780000     0.2645300000     1.1927080000
   18      H      -4.5782950000    -0.1493940000    -1.2615630000
   19      H      -2.3728450000    -0.3710770000    -2.4564600000
   20      H       2.1322610000    -0.4093480000    -2.6624590000
   21      H       4.4408590000    -0.2262500000    -1.6739150000
   22      H       4.6834760000     0.1849870000     0.7689050000
   23      H       2.6459580000     0.3894480000     2.2079920000
 ----------------------------------------------------------------
 Nuclear Repulsion Energy =         892.08262809 hartrees
 There are       52 alpha and       52 beta electrons
 Requested basis set is 6-311++G(d,p)
 There are 130 shells and 386 basis functions

 Total QAlloc Memory Limit   8000 MB
 Mega-Array Size       188 MB
 MEM_STATIC part       192 MB
 A cutoff of  1.0D-14 yielded   7223 shell pairs
 There are     65923 function pairs (     71015 Cartesian)
 Smallest overlap matrix eigenvalue = 1.06E-07
 Linear dependence detected in AO basis
 Tighter screening thresholds may be required for diffuse basis sets
 Use S2THRESH > 14 and THRESH = 14 in case of SCF convergence issues
 Number of orthogonalized atomic orbitals = 382
 Maximum deviation from orthogonality = 9.196E-11

 Scale SEOQF with 1.000000e-01/1.000000e-01/1.000000e-01

 Standard Electronic Orientation quadrupole field applied
 Nucleus-field energy     =     0.0000000017 hartrees
 ================ Generating on-the-fly Promolecule Density  ================
Attempting to make child job directory: /expanse/lustre/scratch/selhajj/temp_project/qcscratch/28710176/qchem480859//Frg1/
Attempting to make child job directory: /expanse/lustre/scratch/selhajj/temp_project/qcscratch/28710176/qchem480859//Frg2/
Attempting to make child job directory: /expanse/lustre/scratch/selhajj/temp_project/qcscratch/28710176/qchem480859//Frg3/
Creating input file /expanse/lustre/scratch/selhajj/temp_project/qcscratch/28710176/qchem480859/Frg1.input
using default PutDataFrgm: nothing
calling putenv with: QCSCRATCH=/expanse/lustre/scratch/selhajj/temp_project/qcscratch/28710176/qchem480859/ 
Spawning Job For Fragment 0
Done Job For Fragment 0
calling putenv with: QCSCRATCH=/expanse/lustre/scratch/selhajj/temp_project/qcscratch/28710176 
calling putenv with: QCTHREADS=8 
Creating input file /expanse/lustre/scratch/selhajj/temp_project/qcscratch/28710176/qchem480859/Frg2.input
using default PutDataFrgm: nothing
calling putenv with: QCSCRATCH=/expanse/lustre/scratch/selhajj/temp_project/qcscratch/28710176/qchem480859/ 
Spawning Job For Fragment 1
Done Job For Fragment 1
calling putenv with: QCSCRATCH=/expanse/lustre/scratch/selhajj/temp_project/qcscratch/28710176 
calling putenv with: QCTHREADS=8 
Creating input file /expanse/lustre/scratch/selhajj/temp_project/qcscratch/28710176/qchem480859/Frg3.input
using default PutDataFrgm: nothing
calling putenv with: QCSCRATCH=/expanse/lustre/scratch/selhajj/temp_project/qcscratch/28710176/qchem480859/ 
Spawning Job For Fragment 2
Done Job For Fragment 2
calling putenv with: QCSCRATCH=/expanse/lustre/scratch/selhajj/temp_project/qcscratch/28710176 
calling putenv with: QCTHREADS=8 
 Time for running child jobs:  CPU 0.01 s  wall 35.13 s
 ============= Method Specific Promolecule Density Constructed =============
 Guess from superposition of atomic densities
 Warning:  Energy on first SCF cycle will be non-variational
 SAD guess density has 102.000000 electrons

 -----------------------------------------------------------------------
  General SCF calculation program by
  Eric Jon Sundstrom, Paul Horn, Yuezhi Mao, Dmitri Zuev, Alec White,
  David Stuck, Shaama M.S., Shane Yost, Joonho Lee, David Small,
  Daniel Levine, Susi Lehtola, Hugh Burton, Evgeny Epifanovsky,
  Bang C. Huynh
 -----------------------------------------------------------------------
 Exchange:     0.2000 Hartree-Fock + 0.0800 Slater + 0.7200 B88
 Correlation:  0.1900 VWN1RPA + 0.8100 LYP
 Using SG-1 standard quadrature grid
 using 8 threads for integral computing
 -------------------------------------------------------
 OpenMP Integral computing Module                
 Release: version 1.0, May 2013, Q-Chem Inc. Pittsburgh 
 -------------------------------------------------------
 
 SM12 calculation using CM5 charges
 Citation of the SM12 model:
 Marenich, A.V.; Cramer, C.J.; Truhlar, D.G.
 J. Chem. Theory Comput. 2013, 9, 609-612.
 iSolventCode=          91
 Solvent: dimethylformamide                                               
 
Hirshfeld: reading atomic densities from disk.
warning:  vdwdata pointer should have been initialzed before dftman
 Inaccurate integrated density:
   Number of electrons =   104
   Numerical integral  =   102.002946645972
   Relative error      =    -1.9202436096 %

 Charges (in A.U.) from CM5PAC (Nov. 11, 2011)
 -----------------------------------------------
 Center     Atomic      CM5         Hirshfeld
 Number     Number      Charge      Charge
 -----------------------------------------------
    1          8       -0.059788   -0.016559
    2          6        0.038042    0.007601
    3          6        0.000824    0.000979
    4          6       -0.052344   -0.000819
    5          6       -0.057964   -0.003246
    6          6       -0.058053   -0.003170
    7          6       -0.049323    0.000327
    8          6        0.026507    0.006423
    9          8       -0.091484   -0.027791
   10          6        0.026737    0.006646
   11          6       -0.049233    0.000417
   12          6       -0.057872   -0.002989
   13          6       -0.057691   -0.002974
   14          6       -0.052334   -0.000810
   15          6        0.000981    0.001137
   16          1        0.064951    0.005158
   17          1        0.058250    0.003030
   18          1        0.058186    0.003004
   19          1        0.063623    0.004736
   20          1        0.063628    0.004742
   21          1        0.058193    0.003012
   22          1        0.058254    0.003034
   23          1        0.064962    0.005166
 -----------------------------------------------

 Dipole moment (in Debye)
 -----------------------------------------------
                 X        Y        Z     Total
 -----------------------------------------------
 CM5          0.0039   0.0647  -0.1824   0.1936
 Hirshfeld    0.0102   0.0155  -0.0347   0.0393
 -----------------------------------------------

 A restricted SCF calculation will be
 performed using DIIS
 SCF converges when DIIS error is below 1.0e-05
 ---------------------------------------
  Cycle       Energy         DIIS error
 ---------------------------------------
Hirshfeld: reading atomic densities from disk.

 Charges (in A.U.) from CM5PAC (Nov. 11, 2011)
 -----------------------------------------------
 Center     Atomic      CM5         Hirshfeld
 Number     Number      Charge      Charge
 -----------------------------------------------
    1          8       -0.797241   -0.754012
    2          6       -0.010066   -0.040507
    3          6       -0.157807   -0.157652
    4          6       -0.320341   -0.268817
    5          6       -0.260500   -0.205782
    6          6       -0.305581   -0.250698
    7          6       -0.301951   -0.252301
    8          6        0.173046    0.152962
    9          8       -0.170636   -0.106943
   10          6        0.173178    0.153087
   11          6       -0.301593   -0.251943
   12          6       -0.304935   -0.250053
   13          6       -0.260159   -0.205442
   14          6       -0.319933   -0.268410
   15          6       -0.157511   -0.157355
   16          1        0.151632    0.091840
   17          1        0.172206    0.116986
   18          1        0.166118    0.110936
   19          1        0.170237    0.111350
   20          1        0.170258    0.111372
   21          1        0.166185    0.111003
   22          1        0.172220    0.117000
   23          1        0.151677    0.091881
 -----------------------------------------------

 Dipole moment (in Debye)
 -----------------------------------------------
                 X        Y        Z     Total
 -----------------------------------------------
 CM5         -0.4949  -1.2654 -11.2574  11.3391
 Hirshfeld   -0.4885  -1.3146 -11.1097  11.1979
 -----------------------------------------------

    1    -654.4700435561      3.42e-02  
Hirshfeld: reading atomic densities from disk.

 Charges (in A.U.) from CM5PAC (Nov. 11, 2011)
 -----------------------------------------------
 Center     Atomic      CM5         Hirshfeld
 Number     Number      Charge      Charge
 -----------------------------------------------
    1          8        1.755133    1.798362
    2          6        0.105144    0.074704
    3          6        0.131611    0.131765
    4          6       -0.200014   -0.148490
    5          6       -0.223541   -0.168823
    6          6        0.031660    0.086543
    7          6        0.020447    0.070097
    8          6       -0.137040   -0.157123
    9          8       -0.299127   -0.235434
   10          6       -0.136791   -0.156882
   11          6        0.020539    0.070189
   12          6        0.031754    0.086637
   13          6       -0.223473   -0.168755
   14          6       -0.201224   -0.149701
   15          6        0.131406    0.131562
   16          1       -0.785808   -0.845601
   17          1       -0.447412   -0.502633
   18          1       -0.114836   -0.170018
   19          1       -0.059921   -0.118808
   20          1       -0.059547   -0.118433
   21          1       -0.113713   -0.168895
   22          1       -0.447969   -0.503189
   23          1       -0.783745   -0.843541
 -----------------------------------------------

 Dipole moment (in Debye)
 -----------------------------------------------
                 X        Y        Z     Total
 -----------------------------------------------
 CM5          0.2351  -0.9070   4.6025   4.6969
 Hirshfeld    0.2414  -0.9562   4.7502   4.8515
 -----------------------------------------------

    2    -650.2439826532      4.75e-03  
Hirshfeld: reading atomic densities from disk.

 Charges (in A.U.) from CM5PAC (Nov. 11, 2011)
 -----------------------------------------------
 Center     Atomic      CM5         Hirshfeld
 Number     Number      Charge      Charge
 -----------------------------------------------
    1          8       -0.979236   -0.936007
    2          6       -0.271180   -0.301621
    3          6       -0.112436   -0.112281
    4          6       -0.145185   -0.093661
    5          6       -0.088706   -0.033988
    6          6       -0.081402   -0.026519
    7          6       -0.033019    0.016631
    8          6        0.003776   -0.016308
    9          8       -0.168050   -0.104358
   10          6        0.003957   -0.016134
   11          6       -0.032985    0.016665
   12          6       -0.081204   -0.026322
   13          6       -0.088511   -0.033794
   14          6       -0.145077   -0.093554
   15          6       -0.112359   -0.112204
   16          1        0.031603   -0.028189
   17          1        0.037722   -0.017499
   18          1        0.036250   -0.018932
   19          1        0.058438   -0.000448
   20          1        0.058455   -0.000430
   21          1        0.036385   -0.018797
   22          1        0.037722   -0.017499
   23          1        0.031724   -0.028073
 -----------------------------------------------

 Dipole moment (in Debye)
 -----------------------------------------------
                 X        Y        Z     Total
 -----------------------------------------------
 CM5         -0.7391  -1.7584 -16.1470  16.2593
 Hirshfeld   -0.7328  -1.8076 -15.9993  16.1178
 -----------------------------------------------

    3    -646.9934009584      1.12e-02  
Hirshfeld: reading atomic densities from disk.

 Charges (in A.U.) from CM5PAC (Nov. 11, 2011)
 -----------------------------------------------
 Center     Atomic      CM5         Hirshfeld
 Number     Number      Charge      Charge
 -----------------------------------------------
    1          8       -0.713105   -0.669876
    2          6       -0.012442   -0.042882
    3          6       -0.097569   -0.097414
    4          6       -0.212535   -0.161011
    5          6       -0.172043   -0.117325
    6          6       -0.211529   -0.156646
    7          6       -0.176841   -0.127191
    8          6        0.066917    0.046833
    9          8       -0.167026   -0.103334
   10          6        0.067078    0.046988
   11          6       -0.176583   -0.126933
   12          6       -0.211038   -0.156156
   13          6       -0.171757   -0.117039
   14          6       -0.212254   -0.160730
   15          6       -0.097293   -0.097137
   16          1        0.042268   -0.017524
   17          1        0.065879    0.010659
   18          1        0.061694    0.006512
   19          1        0.077438    0.018552
   20          1        0.077451    0.018565
   21          1        0.061819    0.006638
   22          1        0.065871    0.010650
   23          1        0.042382   -0.017414
 -----------------------------------------------

 Dipole moment (in Debye)
 -----------------------------------------------
                 X        Y        Z     Total
 -----------------------------------------------
 CM5         -0.4233  -1.1123  -9.6209   9.6943
 Hirshfeld   -0.4170  -1.1616  -9.4732   9.5533
 -----------------------------------------------

    4    -650.3692963115      4.11e-03  
Hirshfeld: reading atomic densities from disk.

 Charges (in A.U.) from CM5PAC (Nov. 11, 2011)
 -----------------------------------------------
 Center     Atomic      CM5         Hirshfeld
 Number     Number      Charge      Charge
 -----------------------------------------------
    1          8       -0.531661   -0.488432
    2          6       -0.130883   -0.161323
    3          6       -0.119300   -0.119145
    4          6       -0.181294   -0.129770
    5          6       -0.153815   -0.099097
    6          6       -0.166772   -0.111889
    7          6       -0.155481   -0.105831
    8          6        0.026762    0.006678
    9          8       -0.249308   -0.185616
   10          6        0.026866    0.006776
   11          6       -0.155525   -0.105875
   12          6       -0.166636   -0.111754
   13          6       -0.153535   -0.098818
   14          6       -0.181386   -0.129862
   15          6       -0.119400   -0.119245
   16          1        0.037018   -0.022774
   17          1        0.055208   -0.000012
   18          1        0.042913   -0.012269
   19          1        0.068479    0.009592
   20          1        0.068562    0.009676
   21          1        0.043153   -0.012029
   22          1        0.055363    0.000143
   23          1        0.037210   -0.022587
 -----------------------------------------------

 Dipole moment (in Debye)
 -----------------------------------------------
                 X        Y        Z     Total
 -----------------------------------------------
 CM5         -0.3248  -0.6966  -7.3512   7.3913
 Hirshfeld   -0.3185  -0.7459  -7.2035   7.2490
 -----------------------------------------------

    5    -650.6885391359      1.18e-03  
Hirshfeld: reading atomic densities from disk.

 Charges (in A.U.) from CM5PAC (Nov. 11, 2011)
 -----------------------------------------------
 Center     Atomic      CM5         Hirshfeld
 Number     Number      Charge      Charge
 -----------------------------------------------
    1          8       -0.538533   -0.495304
    2          6        0.006266   -0.024174
    3          6       -0.074633   -0.074478
    4          6       -0.197578   -0.146054
    5          6       -0.179447   -0.124729
    6          6       -0.207750   -0.152867
    7          6       -0.190398   -0.140749
    8          6        0.056590    0.036506
    9          8       -0.184661   -0.120968
   10          6        0.056774    0.036683
   11          6       -0.190089   -0.140440
   12          6       -0.207124   -0.152241
   13          6       -0.178871   -0.124153
   14          6       -0.197061   -0.145537
   15          6       -0.074311   -0.074155
   16          1        0.012685   -0.047107
   17          1        0.042376   -0.012844
   18          1        0.035981   -0.019201
   19          1        0.056746   -0.002141
   20          1        0.056792   -0.002094
   21          1        0.036318   -0.018863
   22          1        0.042835   -0.012386
   23          1        0.013336   -0.046460
 -----------------------------------------------

 Dipole moment (in Debye)
 -----------------------------------------------
                 X        Y        Z     Total
 -----------------------------------------------
 CM5         -0.2482  -0.7760  -6.5826   6.6328
 Hirshfeld   -0.2418  -0.8252  -6.4349   6.4921
 -----------------------------------------------

    6    -650.7023759173      9.13e-04  
Hirshfeld: reading atomic densities from disk.

 Charges (in A.U.) from CM5PAC (Nov. 11, 2011)
 -----------------------------------------------
 Center     Atomic      CM5         Hirshfeld
 Number     Number      Charge      Charge
 -----------------------------------------------
    1          8       -0.509154   -0.465925
    2          6        0.010050   -0.020391
    3          6       -0.088391   -0.088236
    4          6       -0.205708   -0.154184
    5          6       -0.176734   -0.122016
    6          6       -0.193101   -0.138218
    7          6       -0.171942   -0.122292
    8          6        0.052622    0.032538
    9          8       -0.195601   -0.131908
   10          6        0.052852    0.032761
   11          6       -0.171452   -0.121803
   12          6       -0.192041   -0.137159
   13          6       -0.175056   -0.120339
   14          6       -0.203998   -0.152475
   15          6       -0.087910   -0.087754
   16          1       -0.009574   -0.069367
   17          1        0.031924   -0.023296
   18          1        0.039375   -0.015806
   19          1        0.061274    0.002387
   20          1        0.061435    0.002550
   21          1        0.040169   -0.015013
   22          1        0.033925   -0.021296
   23          1       -0.006657   -0.066453
 -----------------------------------------------

 Dipole moment (in Debye)
 -----------------------------------------------
                 X        Y        Z     Total
 -----------------------------------------------
 CM5         -0.1670  -0.9064  -7.3610   7.4184
 Hirshfeld   -0.1607  -0.9556  -7.2133   7.2780
 -----------------------------------------------

    7    -650.7279356749      2.76e-04  
Hirshfeld: reading atomic densities from disk.

 Charges (in A.U.) from CM5PAC (Nov. 11, 2011)
 -----------------------------------------------
 Center     Atomic      CM5         Hirshfeld
 Number     Number      Charge      Charge
 -----------------------------------------------
    1          8       -0.499748   -0.456519
    2          6        0.009472   -0.020968
    3          6       -0.080864   -0.080709
    4          6       -0.208260   -0.156736
    5          6       -0.184748   -0.130030
    6          6       -0.183428   -0.128546
    7          6       -0.169536   -0.119886
    8          6        0.058264    0.038180
    9          8       -0.190583   -0.126890
   10          6        0.058652    0.038561
   11          6       -0.168541   -0.118891
   12          6       -0.181355   -0.126472
   13          6       -0.180326   -0.125609
   14          6       -0.202888   -0.151364
   15          6       -0.079621   -0.079465
   16          1       -0.037166   -0.096958
   17          1        0.020258   -0.034962
   18          1        0.043513   -0.011668
   19          1        0.064926    0.006039
   20          1        0.065223    0.006337
   21          1        0.044957   -0.010225
   22          1        0.026033   -0.029188
   23          1       -0.027838   -0.087634
 -----------------------------------------------

 Dipole moment (in Debye)
 -----------------------------------------------
                 X        Y        Z     Total
 -----------------------------------------------
 CM5          0.0910  -1.0735  -8.2341   8.3042
 Hirshfeld    0.0974  -1.1227  -8.0863   8.1645
 -----------------------------------------------

    8    -650.7290032900      2.12e-04  
Hirshfeld: reading atomic densities from disk.

 Charges (in A.U.) from CM5PAC (Nov. 11, 2011)
 -----------------------------------------------
 Center     Atomic      CM5         Hirshfeld
 Number     Number      Charge      Charge
 -----------------------------------------------
    1          8       -0.499646   -0.456417
    2          6        0.009532   -0.020909
    3          6       -0.080894   -0.080739
    4          6       -0.208448   -0.156924
    5          6       -0.184821   -0.130103
    6          6       -0.183314   -0.128431
    7          6       -0.169419   -0.119769
    8          6        0.058268    0.038184
    9          8       -0.190540   -0.126847
   10          6        0.058662    0.038571
   11          6       -0.168403   -0.118753
   12          6       -0.181198   -0.126316
   13          6       -0.180287   -0.125570
   14          6       -0.202924   -0.151401
   15          6       -0.079619   -0.079464
   16          1       -0.037590   -0.097383
   17          1        0.020100   -0.035120
   18          1        0.043590   -0.011592
   19          1        0.064986    0.006099
   20          1        0.065289    0.006403
   21          1        0.045057   -0.010124
   22          1        0.026024   -0.029196
   23          1       -0.028003   -0.087799
 -----------------------------------------------

 Dipole moment (in Debye)
 -----------------------------------------------
                 X        Y        Z     Total
 -----------------------------------------------
 CM5          0.1025  -1.0759  -8.2479   8.3184
 Hirshfeld    0.1088  -1.1251  -8.1002   8.1786
 -----------------------------------------------

    9    -650.7285213227      2.51e-04  
Hirshfeld: reading atomic densities from disk.

 Charges (in A.U.) from CM5PAC (Nov. 11, 2011)
 -----------------------------------------------
 Center     Atomic      CM5         Hirshfeld
 Number     Number      Charge      Charge
 -----------------------------------------------
    1          8       -0.499690   -0.456461
    2          6        0.009857   -0.020584
    3          6       -0.080090   -0.079935
    4          6       -0.204504   -0.152980
    5          6       -0.182149   -0.127431
    6          6       -0.183411   -0.128528
    7          6       -0.169678   -0.120028
    8          6        0.057981    0.037897
    9          8       -0.190543   -0.126851
   10          6        0.058109    0.038019
   11          6       -0.169670   -0.120020
   12          6       -0.183275   -0.128392
   13          6       -0.182505   -0.127787
   14          6       -0.205419   -0.153896
   15          6       -0.080199   -0.080044
   16          1       -0.029366   -0.089158
   17          1        0.023549   -0.031672
   18          1        0.043017   -0.012165
   19          1        0.064389    0.005502
   20          1        0.064384    0.005498
   21          1        0.043194   -0.011987
   22          1        0.022906   -0.032314
   23          1       -0.030514   -0.090311
 -----------------------------------------------

 Dipole moment (in Debye)
 -----------------------------------------------
                 X        Y        Z     Total
 -----------------------------------------------
 CM5         -0.4183  -1.0494  -8.0875   8.1660
 Hirshfeld   -0.4120  -1.0986  -7.9398   8.0260
 -----------------------------------------------

   10    -650.7284934680      2.51e-04  
Hirshfeld: reading atomic densities from disk.

 Charges (in A.U.) from CM5PAC (Nov. 11, 2011)
 -----------------------------------------------
 Center     Atomic      CM5         Hirshfeld
 Number     Number      Charge      Charge
 -----------------------------------------------
    1          8       -0.499657   -0.456428
    2          6        0.009836   -0.020605
    3          6       -0.079961   -0.079806
    4          6       -0.203838   -0.152314
    5          6       -0.181626   -0.126908
    6          6       -0.183083   -0.128200
    7          6       -0.169460   -0.119810
    8          6        0.058079    0.037995
    9          8       -0.190580   -0.126887
   10          6        0.058146    0.038055
   11          6       -0.169682   -0.120032
   12          6       -0.183408   -0.128526
   13          6       -0.183109   -0.128391
   14          6       -0.206199   -0.154675
   15          6       -0.080374   -0.080219
   16          1       -0.028462   -0.088255
   17          1        0.024248   -0.030972
   18          1        0.043329   -0.011852
   19          1        0.064535    0.005649
   20          1        0.064453    0.005567
   21          1        0.043178   -0.012003
   22          1        0.022055   -0.033166
   23          1       -0.032044   -0.091841
 -----------------------------------------------

 Dipole moment (in Debye)
 -----------------------------------------------
                 X        Y        Z     Total
 -----------------------------------------------
 CM5         -0.5411  -1.0509  -8.0976   8.1835
 Hirshfeld   -0.5348  -1.1001  -7.9499   8.0435
 -----------------------------------------------

   11    -650.7288439792      2.52e-04  
Hirshfeld: reading atomic densities from disk.

 Charges (in A.U.) from CM5PAC (Nov. 11, 2011)
 -----------------------------------------------
 Center     Atomic      CM5         Hirshfeld
 Number     Number      Charge      Charge
 -----------------------------------------------
    1          8       -0.499685   -0.456456
    2          6        0.011984   -0.018456
    3          6       -0.079597   -0.079442
    4          6       -0.200374   -0.148850
    5          6       -0.182183   -0.127465
    6          6       -0.189930   -0.135047
    7          6       -0.173492   -0.123842
    8          6        0.057162    0.037078
    9          8       -0.192277   -0.128584
   10          6        0.057372    0.037281
   11          6       -0.173006   -0.123356
   12          6       -0.188786   -0.133904
   13          6       -0.180854   -0.126137
   14          6       -0.199387   -0.147864
   15          6       -0.079175   -0.079020
   16          1       -0.018354   -0.078147
   17          1        0.022579   -0.032641
   18          1        0.036818   -0.018364
   19          1        0.061012    0.002125
   20          1        0.061175    0.002289
   21          1        0.037896   -0.017285
   22          1        0.024313   -0.030908
   23          1       -0.016964   -0.076761
 -----------------------------------------------

 Dipole moment (in Debye)
 -----------------------------------------------
                 X        Y        Z     Total
 -----------------------------------------------
 CM5         -0.2039  -0.9483  -7.4537   7.5166
 Hirshfeld   -0.1976  -0.9976  -7.3060   7.3764
 -----------------------------------------------

   12    -650.7288177033      2.52e-04  
Hirshfeld: reading atomic densities from disk.

 Charges (in A.U.) from CM5PAC (Nov. 11, 2011)
 -----------------------------------------------
 Center     Atomic      CM5         Hirshfeld
 Number     Number      Charge      Charge
 -----------------------------------------------
    1          8       -0.500098   -0.456869
    2          6        0.012349   -0.018091
    3          6       -0.079430   -0.079275
    4          6       -0.203083   -0.151559
    5          6       -0.182421   -0.127703
    6          6       -0.186694   -0.131811
    7          6       -0.171362   -0.121712
    8          6        0.057699    0.037615
    9          8       -0.192197   -0.128505
   10          6        0.057932    0.037841
   11          6       -0.170825   -0.121175
   12          6       -0.185525   -0.130642
   13          6       -0.180682   -0.125965
   14          6       -0.201104   -0.149580
   15          6       -0.078736   -0.078580
   16          1       -0.027952   -0.087745
   17          1        0.022588   -0.032633
   18          1        0.040215   -0.014967
   19          1        0.062433    0.003546
   20          1        0.062523    0.003638
   21          1        0.040980   -0.014202
   22          1        0.024659   -0.030561
   23          1       -0.024940   -0.084736
 -----------------------------------------------

 Dipole moment (in Debye)
 -----------------------------------------------
                 X        Y        Z     Total
 -----------------------------------------------
 CM5         -0.1795  -1.0079  -7.8202   7.8869
 Hirshfeld   -0.1731  -1.0571  -7.6725   7.7469
 -----------------------------------------------

   13    -650.7304454319      2.56e-04  
Hirshfeld: reading atomic densities from disk.

 Charges (in A.U.) from CM5PAC (Nov. 11, 2011)
 -----------------------------------------------
 Center     Atomic      CM5         Hirshfeld
 Number     Number      Charge      Charge
 -----------------------------------------------
    1          8       -0.493813   -0.450584
    2          6        0.018364   -0.012077
    3          6       -0.077534   -0.077379
    4          6       -0.202276   -0.150752
    5          6       -0.188526   -0.133808
    6          6       -0.181512   -0.126629
    7          6       -0.165990   -0.116341
    8          6        0.059545    0.039461
    9          8       -0.191540   -0.127848
   10          6        0.059802    0.039712
   11          6       -0.165127   -0.115477
   12          6       -0.179431   -0.124549
   13          6       -0.187425   -0.132707
   14          6       -0.202352   -0.150828
   15          6       -0.076806   -0.076651
   16          1       -0.027413   -0.087206
   17          1        0.005793   -0.049427
   18          1        0.039114   -0.016068
   19          1        0.066783    0.007896
   20          1        0.067077    0.008191
   21          1        0.041249   -0.013932
   22          1        0.007742   -0.047478
   23          1       -0.029560   -0.089356
 -----------------------------------------------

 Dipole moment (in Debye)
 -----------------------------------------------
                 X        Y        Z     Total
 -----------------------------------------------
 CM5         -0.2459  -1.0834  -8.1676   8.2428
 Hirshfeld   -0.2396  -1.1327  -8.0199   8.1030
 -----------------------------------------------

   14    -650.7292603339      2.72e-04  
Hirshfeld: reading atomic densities from disk.

 Charges (in A.U.) from CM5PAC (Nov. 11, 2011)
 -----------------------------------------------
 Center     Atomic      CM5         Hirshfeld
 Number     Number      Charge      Charge
 -----------------------------------------------
    1          8       -0.486241   -0.443012
    2          6        0.021960   -0.008480
    3          6       -0.076781   -0.076626
    4          6       -0.202140   -0.150615
    5          6       -0.194236   -0.139518
    6          6       -0.178726   -0.123843
    7          6       -0.161288   -0.111638
    8          6        0.062051    0.041967
    9          8       -0.188566   -0.124874
   10          6        0.062313    0.042222
   11          6       -0.160138   -0.110489
   12          6       -0.175503   -0.120621
   13          6       -0.191138   -0.136420
   14          6       -0.201939   -0.150416
   15          6       -0.076168   -0.076012
   16          1       -0.032177   -0.091970
   17          1       -0.010336   -0.065556
   18          1        0.039575   -0.015606
   19          1        0.069988    0.011101
   20          1        0.070517    0.011631
   21          1        0.043457   -0.011725
   22          1       -0.004212   -0.059432
   23          1       -0.034215   -0.094012
 -----------------------------------------------

 Dipole moment (in Debye)
 -----------------------------------------------
                 X        Y        Z     Total
 -----------------------------------------------
 CM5         -0.0677  -1.1624  -8.5409   8.6199
 Hirshfeld   -0.0614  -1.2116  -8.3932   8.4804
 -----------------------------------------------

   15    -650.7314750859      2.26e-04  
Hirshfeld: reading atomic densities from disk.

 Charges (in A.U.) from CM5PAC (Nov. 11, 2011)
 -----------------------------------------------
 Center     Atomic      CM5         Hirshfeld
 Number     Number      Charge      Charge
 -----------------------------------------------
    1          8       -0.486062   -0.442833
    2          6        0.022079   -0.008362
    3          6       -0.076726   -0.076571
    4          6       -0.202176   -0.150652
    5          6       -0.194467   -0.139749
    6          6       -0.178648   -0.123765
    7          6       -0.161172   -0.111522
    8          6        0.062096    0.042012
    9          8       -0.188531   -0.124838
   10          6        0.062360    0.042270
   11          6       -0.160001   -0.110352
   12          6       -0.175354   -0.120472
   13          6       -0.191264   -0.136547
   14          6       -0.201951   -0.150427
   15          6       -0.076097   -0.075941
   16          1       -0.032235   -0.092027
   17          1       -0.010910   -0.066130
   18          1        0.039642   -0.015539
   19          1        0.070107    0.011220
   20          1        0.070638    0.011753
   21          1        0.043590   -0.011592
   22          1       -0.004561   -0.059782
   23          1       -0.034305   -0.094102
 -----------------------------------------------

 Dipole moment (in Debye)
 -----------------------------------------------
                 X        Y        Z     Total
 -----------------------------------------------
 CM5         -0.0585  -1.1648  -8.5527   8.6318
 Hirshfeld   -0.0522  -1.2140  -8.4049   8.4923
 -----------------------------------------------

   16    -650.7319739251      2.19e-04  
Hirshfeld: reading atomic densities from disk.

 Charges (in A.U.) from CM5PAC (Nov. 11, 2011)
 -----------------------------------------------
 Center     Atomic      CM5         Hirshfeld
 Number     Number      Charge      Charge
 -----------------------------------------------
    1          8       -0.470524   -0.427295
    2          6        0.031380    0.000940
    3          6       -0.073564   -0.073409
    4          6       -0.197220   -0.145696
    5          6       -0.204739   -0.150021
    6          6       -0.169985   -0.115102
    7          6       -0.152785   -0.103135
    8          6        0.067054    0.046970
    9          8       -0.184779   -0.121086
   10          6        0.066818    0.046728
   11          6       -0.152531   -0.102881
   12          6       -0.166942   -0.112060
   13          6       -0.204044   -0.149327
   14          6       -0.207943   -0.156419
   15          6       -0.075555   -0.075400
   16          1       -0.029320   -0.089112
   17          1       -0.042715   -0.097935
   18          1        0.045010   -0.010172
   19          1        0.076467    0.017581
   20          1        0.076966    0.018081
   21          1        0.050527   -0.004654
   22          1       -0.034332   -0.089552
   23          1       -0.051429   -0.111226
 -----------------------------------------------

 Dipole moment (in Debye)
 -----------------------------------------------
                 X        Y        Z     Total
 -----------------------------------------------
 CM5         -0.4666  -1.3147  -9.2534   9.3580
 Hirshfeld   -0.4603  -1.3640  -9.1057   9.2188
 -----------------------------------------------

   17    -650.7319825965      2.19e-04  
Hirshfeld: reading atomic densities from disk.

 Charges (in A.U.) from CM5PAC (Nov. 11, 2011)
 -----------------------------------------------
 Center     Atomic      CM5         Hirshfeld
 Number     Number      Charge      Charge
 -----------------------------------------------
    1          8       -0.476166   -0.432937
    2          6        0.030441    0.000000
    3          6       -0.073969   -0.073814
    4          6       -0.196171   -0.144647
    5          6       -0.198581   -0.143863
    6          6       -0.169024   -0.114141
    7          6       -0.154385   -0.104735
    8          6        0.067244    0.047160
    9          8       -0.185548   -0.121855
   10          6        0.066803    0.046712
   11          6       -0.154785   -0.105135
   12          6       -0.168770   -0.113887
   13          6       -0.204056   -0.149338
   14          6       -0.208730   -0.157207
   15          6       -0.076601   -0.076445
   16          1       -0.030128   -0.089921
   17          1       -0.026556   -0.081776
   18          1        0.043836   -0.011346
   19          1        0.074601    0.015714
   20          1        0.075051    0.016165
   21          1        0.046672   -0.008509
   22          1       -0.032848   -0.088069
   23          1       -0.052434   -0.112230
 -----------------------------------------------

 Dipole moment (in Debye)
 -----------------------------------------------
                 X        Y        Z     Total
 -----------------------------------------------
 CM5         -1.0404  -1.2826  -9.1144   9.2629
 Hirshfeld   -1.0341  -1.3318  -8.9667   9.1239
 -----------------------------------------------

   18    -650.7314160476      2.29e-04  
Hirshfeld: reading atomic densities from disk.

 Charges (in A.U.) from CM5PAC (Nov. 11, 2011)
 -----------------------------------------------
 Center     Atomic      CM5         Hirshfeld
 Number     Number      Charge      Charge
 -----------------------------------------------
    1          8       -0.472433   -0.429204
    2          6        0.033675    0.003235
    3          6       -0.073148   -0.072993
    4          6       -0.195272   -0.143748
    5          6       -0.202571   -0.147853
    6          6       -0.170100   -0.115217
    7          6       -0.153813   -0.104163
    8          6        0.067175    0.047091
    9          8       -0.184936   -0.121244
   10          6        0.067153    0.047062
   11          6       -0.154118   -0.104468
   12          6       -0.169615   -0.114732
   13          6       -0.205759   -0.151042
   14          6       -0.203787   -0.152264
   15          6       -0.075059   -0.074904
   16          1       -0.028238   -0.088031
   17          1       -0.038469   -0.093689
   18          1        0.041267   -0.013914
   19          1        0.075097    0.016210
   20          1        0.075805    0.016919
   21          1        0.045285   -0.009896
   22          1       -0.040375   -0.095595
   23          1       -0.041987   -0.101784
 -----------------------------------------------

 Dipole moment (in Debye)
 -----------------------------------------------
                 X        Y        Z     Total
 -----------------------------------------------
 CM5         -0.7023  -1.2716  -8.9765   9.0933
 Hirshfeld   -0.6960  -1.3208  -8.8288   8.9541
 -----------------------------------------------

   19    -650.7313889456      2.36e-04  
Hirshfeld: reading atomic densities from disk.

 Charges (in A.U.) from CM5PAC (Nov. 11, 2011)
 -----------------------------------------------
 Center     Atomic      CM5         Hirshfeld
 Number     Number      Charge      Charge
 -----------------------------------------------
    1          8       -0.468401   -0.425172
    2          6        0.037328    0.006888
    3          6       -0.071972   -0.071817
    4          6       -0.196614   -0.145090
    5          6       -0.207354   -0.152636
    6          6       -0.167029   -0.112146
    7          6       -0.151030   -0.101381
    8          6        0.068318    0.048235
    9          8       -0.183701   -0.120009
   10          6        0.068552    0.048462
   11          6       -0.151062   -0.101412
   12          6       -0.165213   -0.110331
   13          6       -0.206424   -0.151707
   14          6       -0.203055   -0.151531
   15          6       -0.073608   -0.073453
   16          1       -0.035416   -0.095209
   17          1       -0.051375   -0.106595
   18          1        0.041768   -0.013413
   19          1        0.076399    0.017512
   20          1        0.077349    0.018463
   21          1        0.047863   -0.007318
   22          1       -0.043780   -0.099001
   23          1       -0.045822   -0.105618
 -----------------------------------------------

 Dipole moment (in Debye)
 -----------------------------------------------
                 X        Y        Z     Total
 -----------------------------------------------
 CM5         -0.2889  -1.3317  -9.2733   9.3729
 Hirshfeld   -0.2825  -1.3809  -9.1256   9.2338
 -----------------------------------------------

   20    -650.7326540675      2.32e-04  
Hirshfeld: reading atomic densities from disk.

 Charges (in A.U.) from CM5PAC (Nov. 11, 2011)
 -----------------------------------------------
 Center     Atomic      CM5         Hirshfeld
 Number     Number      Charge      Charge
 -----------------------------------------------
    1          8       -0.452719   -0.409490
    2          6        0.047058    0.016618
    3          6       -0.068176   -0.068021
    4          6       -0.193416   -0.141892
    5          6       -0.224362   -0.169644
    6          6       -0.165285   -0.110402
    7          6       -0.145074   -0.095425
    8          6        0.070571    0.050487
    9          8       -0.181964   -0.118272
   10          6        0.071152    0.051061
   11          6       -0.143508   -0.093859
   12          6       -0.155110   -0.100227
   13          6       -0.204138   -0.149420
   14          6       -0.195746   -0.144222
   15          6       -0.069347   -0.069192
   16          1       -0.037522   -0.097314
   17          1       -0.101951   -0.157172
   18          1        0.033299   -0.021883
   19          1        0.077769    0.018882
   20          1        0.079372    0.020487
   21          1        0.049987   -0.005195
   22          1       -0.048788   -0.104008
   23          1       -0.046661   -0.106457
 -----------------------------------------------

 Dipole moment (in Debye)
 -----------------------------------------------
                 X        Y        Z     Total
 -----------------------------------------------
 CM5          1.5277  -1.4072  -9.4978   9.7223
 Hirshfeld    1.5340  -1.4564  -9.3501   9.5864
 -----------------------------------------------

   21    -650.7317956940      2.50e-04  
Hirshfeld: reading atomic densities from disk.

 Charges (in A.U.) from CM5PAC (Nov. 11, 2011)
 -----------------------------------------------
 Center     Atomic      CM5         Hirshfeld
 Number     Number      Charge      Charge
 -----------------------------------------------
    1          8       -0.438138   -0.394909
    2          6        0.063289    0.032848
    3          6       -0.063028   -0.062873
    4          6       -0.189153   -0.137629
    5          6       -0.242557   -0.187840
    6          6       -0.169000   -0.114117
    7          6       -0.143084   -0.093434
    8          6        0.073429    0.053345
    9          8       -0.179505   -0.115813
   10          6        0.074590    0.054500
   11          6       -0.140288   -0.090638
   12          6       -0.152515   -0.097633
   13          6       -0.204838   -0.150120
   14          6       -0.180820   -0.129296
   15          6       -0.062601   -0.062445
   16          1       -0.033575   -0.093367
   17          1       -0.153142   -0.208362
   18          1        0.021052   -0.034130
   19          1        0.077355    0.018468
   20          1        0.079479    0.020593
   21          1        0.046318   -0.008864
   22          1       -0.062315   -0.117536
   23          1       -0.025847   -0.085644
 -----------------------------------------------

 Dipole moment (in Debye)
 -----------------------------------------------
                 X        Y        Z     Total
 -----------------------------------------------
 CM5          3.3554  -1.3995  -9.1524   9.8480
 Hirshfeld    3.3617  -1.4487  -9.0047   9.7203
 -----------------------------------------------

   22    -650.7312300291      3.06e-04  
Hirshfeld: reading atomic densities from disk.

 Charges (in A.U.) from CM5PAC (Nov. 11, 2011)
 -----------------------------------------------
 Center     Atomic      CM5         Hirshfeld
 Number     Number      Charge      Charge
 -----------------------------------------------
    1          8       -0.432947   -0.389718
    2          6        0.070247    0.039806
    3          6       -0.064497   -0.064342
    4          6       -0.191647   -0.140123
    5          6       -0.254535   -0.199817
    6          6       -0.173777   -0.118894
    7          6       -0.140922   -0.091272
    8          6        0.076398    0.056314
    9          8       -0.176477   -0.112785
   10          6        0.077553    0.057463
   11          6       -0.136441   -0.086791
   12          6       -0.152032   -0.097150
   13          6       -0.204873   -0.150156
   14          6       -0.170813   -0.119289
   15          6       -0.061405   -0.061249
   16          1       -0.028762   -0.088554
   17          1       -0.183099   -0.238320
   18          1        0.013827   -0.041355
   19          1        0.079390    0.020503
   20          1        0.081619    0.022733
   21          1        0.043696   -0.011486
   22          1       -0.072236   -0.127456
   23          1       -0.003363   -0.063160
 -----------------------------------------------

 Dipole moment (in Debye)
 -----------------------------------------------
                 X        Y        Z     Total
 -----------------------------------------------
 CM5          4.6134  -1.3994  -9.0088  10.2177
 Hirshfeld    4.6197  -1.4486  -8.8611  10.0975
 -----------------------------------------------

   23    -650.7316484915      3.94e-04  
Hirshfeld: reading atomic densities from disk.

 Charges (in A.U.) from CM5PAC (Nov. 11, 2011)
 -----------------------------------------------
 Center     Atomic      CM5         Hirshfeld
 Number     Number      Charge      Charge
 -----------------------------------------------
    1          8       -0.436371   -0.393142
    2          6        0.063353    0.032913
    3          6       -0.065446   -0.065291
    4          6       -0.200472   -0.148948
    5          6       -0.268941   -0.214224
    6          6       -0.174256   -0.119373
    7          6       -0.141897   -0.092247
    8          6        0.074856    0.054772
    9          8       -0.176829   -0.113137
   10          6        0.076612    0.056522
   11          6       -0.136497   -0.086847
   12          6       -0.146208   -0.091326
   13          6       -0.192948   -0.138230
   14          6       -0.171519   -0.119995
   15          6       -0.062212   -0.062056
   16          1       -0.039274   -0.099066
   17          1       -0.211285   -0.266505
   18          1        0.023300   -0.031882
   19          1        0.081960    0.023074
   20          1        0.084142    0.025256
   21          1        0.057101    0.001919
   22          1       -0.039214   -0.094434
   23          1       -0.002997   -0.062794
 -----------------------------------------------

 Dipole moment (in Debye)
 -----------------------------------------------
                 X        Y        Z     Total
 -----------------------------------------------
 CM5          6.8564  -1.4839  -9.5927  11.8841
 Hirshfeld    6.8627  -1.5331  -9.4450  11.7752
 -----------------------------------------------

   24    -650.7324273213      3.82e-04  
Hirshfeld: reading atomic densities from disk.

 Charges (in A.U.) from CM5PAC (Nov. 11, 2011)
 -----------------------------------------------
 Center     Atomic      CM5         Hirshfeld
 Number     Number      Charge      Charge
 -----------------------------------------------
    1          8       -0.420478   -0.377249
    2          6        0.077698    0.047258
    3          6       -0.061325   -0.061170
    4          6       -0.197248   -0.145724
    5          6       -0.293301   -0.238583
    6          6       -0.175452   -0.120569
    7          6       -0.137032   -0.087382
    8          6        0.077895    0.057811
    9          8       -0.175054   -0.111362
   10          6        0.079971    0.059880
   11          6       -0.130380   -0.080730
   12          6       -0.135909   -0.081027
   13          6       -0.187673   -0.132955
   14          6       -0.162362   -0.110838
   15          6       -0.055866   -0.055711
   16          1       -0.032846   -0.092639
   17          1       -0.283596   -0.338816
   18          1        0.015471   -0.039711
   19          1        0.082952    0.024065
   20          1        0.084887    0.026001
   21          1        0.060530    0.005348
   22          1       -0.034697   -0.089918
   23          1       -0.001493   -0.061289
 -----------------------------------------------

 Dipole moment (in Debye)
 -----------------------------------------------
                 X        Y        Z     Total
 -----------------------------------------------
 CM5          9.5694  -1.5517  -9.7198  13.7279
 Hirshfeld    9.5757  -1.6009  -9.5721  13.6338
 -----------------------------------------------

   25    -650.7297372292      3.89e-04  
Hirshfeld: reading atomic densities from disk.

 Charges (in A.U.) from CM5PAC (Nov. 11, 2011)
 -----------------------------------------------
 Center     Atomic      CM5         Hirshfeld
 Number     Number      Charge      Charge
 -----------------------------------------------
    1          8       -0.414419   -0.371190
    2          6        0.083448    0.053008
    3          6       -0.060037   -0.059882
    4          6       -0.200952   -0.149428
    5          6       -0.308669   -0.253951
    6          6       -0.177649   -0.122766
    7          6       -0.135652   -0.086002
    8          6        0.078792    0.058709
    9          8       -0.174326   -0.110634
   10          6        0.081541    0.061451
   11          6       -0.127676   -0.078026
   12          6       -0.130868   -0.075986
   13          6       -0.179589   -0.124871
   14          6       -0.153423   -0.101899
   15          6       -0.052584   -0.052429
   16          1       -0.040424   -0.100216
   17          1       -0.322306   -0.377526
   18          1        0.010913   -0.044269
   19          1        0.083181    0.024294
   20          1        0.085506    0.026620
   21          1        0.063362    0.008180
   22          1       -0.021169   -0.076389
   23          1        0.007587   -0.052210
 -----------------------------------------------

 Dipole moment (in Debye)
 -----------------------------------------------
                 X        Y        Z     Total
 -----------------------------------------------
 CM5         11.8205  -1.5894  -9.8298  15.4556
 Hirshfeld   11.8268  -1.6386  -9.6821  15.3721
 -----------------------------------------------

   26    -650.7243434339      5.20e-04  
Hirshfeld: reading atomic densities from disk.

 Charges (in A.U.) from CM5PAC (Nov. 11, 2011)
 -----------------------------------------------
 Center     Atomic      CM5         Hirshfeld
 Number     Number      Charge      Charge
 -----------------------------------------------
    1          8       -0.430261   -0.387032
    2          6        0.067359    0.036919
    3          6       -0.064890   -0.064735
    4          6       -0.200875   -0.149350
    5          6       -0.269453   -0.214735
    6          6       -0.166936   -0.112054
    7          6       -0.136310   -0.086660
    8          6        0.077438    0.057355
    9          8       -0.176862   -0.113170
   10          6        0.079016    0.058925
   11          6       -0.131938   -0.082288
   12          6       -0.141135   -0.086252
   13          6       -0.198508   -0.143791
   14          6       -0.177536   -0.126012
   15          6       -0.060842   -0.060687
   16          1       -0.043715   -0.103507
   17          1       -0.218325   -0.273545
   18          1        0.032557   -0.022624
   19          1        0.084510    0.025623
   20          1        0.085870    0.026985
   21          1        0.061481    0.006299
   22          1       -0.050220   -0.105440
   23          1       -0.025511   -0.085308
 -----------------------------------------------

 Dipole moment (in Debye)
 -----------------------------------------------
                 X        Y        Z     Total
 -----------------------------------------------
 CM5          6.2011  -1.5908 -10.1806  12.0261
 Hirshfeld    6.2074  -1.6400 -10.0329  11.9113
 -----------------------------------------------

   27    -650.7201666308      5.96e-04  
Hirshfeld: reading atomic densities from disk.

 Charges (in A.U.) from CM5PAC (Nov. 11, 2011)
 -----------------------------------------------
 Center     Atomic      CM5         Hirshfeld
 Number     Number      Charge      Charge
 -----------------------------------------------
    1          8       -0.437917   -0.394688
    2          6        0.053132    0.022691
    3          6       -0.068319   -0.068164
    4          6       -0.209362   -0.157838
    5          6       -0.249541   -0.194823
    6          6       -0.151757   -0.096874
    7          6       -0.133668   -0.084018
    8          6        0.075882    0.055798
    9          8       -0.173774   -0.110081
   10          6        0.077111    0.057020
   11          6       -0.131932   -0.082282
   12          6       -0.138993   -0.084111
   13          6       -0.209215   -0.154497
   14          6       -0.200601   -0.149078
   15          6       -0.067054   -0.066899
   16          1       -0.060075   -0.119867
   17          1       -0.159023   -0.214243
   18          1        0.052615   -0.002567
   19          1        0.087917    0.029030
   20          1        0.088742    0.029856
   21          1        0.067373    0.012191
   22          1       -0.058375   -0.113596
   23          1       -0.057986   -0.117782
 -----------------------------------------------

 Dipole moment (in Debye)
 -----------------------------------------------
                 X        Y        Z     Total
 -----------------------------------------------
 CM5          3.1516  -1.7049 -11.1066  11.6703
 Hirshfeld    3.1579  -1.7542 -10.9589  11.5390
 -----------------------------------------------

   28    -650.7260989222      4.01e-04  
Hirshfeld: reading atomic densities from disk.

 Charges (in A.U.) from CM5PAC (Nov. 11, 2011)
 -----------------------------------------------
 Center     Atomic      CM5         Hirshfeld
 Number     Number      Charge      Charge
 -----------------------------------------------
    1          8       -0.448497   -0.405268
    2          6        0.042892    0.012451
    3          6       -0.073171   -0.073017
    4          6       -0.214074   -0.162550
    5          6       -0.237926   -0.183208
    6          6       -0.154048   -0.099165
    7          6       -0.136269   -0.086619
    8          6        0.073951    0.053867
    9          8       -0.177477   -0.113785
   10          6        0.074566    0.054476
   11          6       -0.134633   -0.084983
   12          6       -0.145037   -0.090155
   13          6       -0.208062   -0.153344
   14          6       -0.201764   -0.150240
   15          6       -0.071656   -0.071500
   16          1       -0.067425   -0.127217
   17          1       -0.121516   -0.176736
   18          1        0.058639    0.003457
   19          1        0.088887    0.030001
   20          1        0.089301    0.030415
   21          1        0.067011    0.011829
   22          1       -0.056317   -0.111537
   23          1       -0.052012   -0.111809
 -----------------------------------------------

 Dipole moment (in Debye)
 -----------------------------------------------
                 X        Y        Z     Total
 -----------------------------------------------
 CM5          2.1714  -1.6679 -11.0803  11.4136
 Hirshfeld    2.1777  -1.7171 -10.9326  11.2789
 -----------------------------------------------

   29    -650.7230118390      2.84e-04  
Hirshfeld: reading atomic densities from disk.

 Charges (in A.U.) from CM5PAC (Nov. 11, 2011)
 -----------------------------------------------
 Center     Atomic      CM5         Hirshfeld
 Number     Number      Charge      Charge
 -----------------------------------------------
    1          8       -0.457811   -0.414582
    2          6        0.030214   -0.000227
    3          6       -0.078563   -0.078408
    4          6       -0.224314   -0.172790
    5          6       -0.227049   -0.172332
    6          6       -0.153580   -0.098697
    7          6       -0.137170   -0.087520
    8          6        0.071792    0.051708
    9          8       -0.177362   -0.113670
   10          6        0.073404    0.053313
   11          6       -0.136096   -0.086446
   12          6       -0.150940   -0.096058
   13          6       -0.210717   -0.155999
   14          6       -0.203242   -0.151718
   15          6       -0.074117   -0.073962
   16          1       -0.077098   -0.136890
   17          1       -0.086485   -0.141705
   18          1        0.065958    0.010776
   19          1        0.090603    0.031717
   20          1        0.090749    0.031863
   21          1        0.067888    0.012706
   22          1       -0.058651   -0.113872
   23          1       -0.041905   -0.101701
 -----------------------------------------------

 Dipole moment (in Debye)
 -----------------------------------------------
                 X        Y        Z     Total
 -----------------------------------------------
 CM5          1.2033  -1.6598 -11.2095  11.3954
 Hirshfeld    1.2096  -1.7090 -11.0618  11.2582
 -----------------------------------------------

   30    -650.7243047545      1.94e-04  
Hirshfeld: reading atomic densities from disk.

 Charges (in A.U.) from CM5PAC (Nov. 11, 2011)
 -----------------------------------------------
 Center     Atomic      CM5         Hirshfeld
 Number     Number      Charge      Charge
 -----------------------------------------------
    1          8       -0.460639   -0.417410
    2          6        0.026928   -0.003512
    3          6       -0.079639   -0.079484
    4          6       -0.226568   -0.175044
    5          6       -0.219468   -0.164750
    6          6       -0.151381   -0.096498
    7          6       -0.137027   -0.087377
    8          6        0.070817    0.050733
    9          8       -0.177865   -0.114172
   10          6        0.071373    0.051282
   11          6       -0.136060   -0.086411
   12          6       -0.151766   -0.096884
   13          6       -0.215922   -0.161205
   14          6       -0.207348   -0.155824
   15          6       -0.076057   -0.075901
   16          1       -0.080981   -0.140773
   17          1       -0.062559   -0.117779
   18          1        0.071143    0.015961
   19          1        0.092140    0.033254
   20          1        0.091887    0.033001
   21          1        0.067849    0.012667
   22          1       -0.071604   -0.126824
   23          1       -0.041697   -0.101494
 -----------------------------------------------

 Dipole moment (in Debye)
 -----------------------------------------------
                 X        Y        Z     Total
 -----------------------------------------------
 CM5         -0.0050  -1.6644 -11.3085  11.4303
 Hirshfeld    0.0013  -1.7136 -11.1607  11.2915
 -----------------------------------------------

   31    -650.7239582985      9.36e-05  
Hirshfeld: reading atomic densities from disk.

 Charges (in A.U.) from CM5PAC (Nov. 11, 2011)
 -----------------------------------------------
 Center     Atomic      CM5         Hirshfeld
 Number     Number      Charge      Charge
 -----------------------------------------------
    1          8       -0.463747   -0.420518
    2          6        0.023999   -0.006442
    3          6       -0.081905   -0.081750
    4          6       -0.231305   -0.179781
    5          6       -0.218059   -0.163341
    6          6       -0.151440   -0.096557
    7          6       -0.138661   -0.089011
    8          6        0.070782    0.050698
    9          8       -0.178366   -0.114673
   10          6        0.072234    0.052143
   11          6       -0.138003   -0.088353
   12          6       -0.153175   -0.098293
   13          6       -0.211540   -0.156823
   14          6       -0.203305   -0.151781
   15          6       -0.076632   -0.076476
   16          1       -0.093074   -0.152866
   17          1       -0.055031   -0.110251
   18          1        0.070384    0.015202
   19          1        0.090796    0.031909
   20          1        0.090851    0.031965
   21          1        0.067224    0.012042
   22          1       -0.060646   -0.115867
   23          1       -0.035690   -0.095486
 -----------------------------------------------

 Dipole moment (in Debye)
 -----------------------------------------------
                 X        Y        Z     Total
 -----------------------------------------------
 CM5          0.4459  -1.6543 -11.2988  11.4280
 Hirshfeld    0.4522  -1.7035 -11.1511  11.2895
 -----------------------------------------------

   32    -650.7229482567      3.98e-05  
Hirshfeld: reading atomic densities from disk.

 Charges (in A.U.) from CM5PAC (Nov. 11, 2011)
 -----------------------------------------------
 Center     Atomic      CM5         Hirshfeld
 Number     Number      Charge      Charge
 -----------------------------------------------
    1          8       -0.462496   -0.419267
    2          6        0.025028   -0.005413
    3          6       -0.081836   -0.081681
    4          6       -0.231968   -0.180444
    5          6       -0.223600   -0.168882
    6          6       -0.151772   -0.096890
    7          6       -0.138535   -0.088886
    8          6        0.071405    0.051321
    9          8       -0.178207   -0.114515
   10          6        0.072963    0.052873
   11          6       -0.137441   -0.087791
   12          6       -0.150746   -0.095864
   13          6       -0.208503   -0.153785
   14          6       -0.202244   -0.150720
   15          6       -0.076496   -0.076341
   16          1       -0.093198   -0.152990
   17          1       -0.068162   -0.123382
   18          1        0.069236    0.014054
   19          1        0.091027    0.032141
   20          1        0.091323    0.032438
   21          1        0.068895    0.013713
   22          1       -0.053352   -0.108573
   23          1       -0.035673   -0.095469
 -----------------------------------------------

 Dipole moment (in Debye)
 -----------------------------------------------
                 X        Y        Z     Total
 -----------------------------------------------
 CM5          1.1898  -1.6706 -11.3729  11.5564
 Hirshfeld    1.1961  -1.7198 -11.2252  11.4190
 -----------------------------------------------

   33    -650.7229215283      5.80e-05  
Hirshfeld: reading atomic densities from disk.

 Charges (in A.U.) from CM5PAC (Nov. 11, 2011)
 -----------------------------------------------
 Center     Atomic      CM5         Hirshfeld
 Number     Number      Charge      Charge
 -----------------------------------------------
    1          8       -0.464133   -0.420904
    2          6        0.023155   -0.007286
    3          6       -0.082753   -0.082598
    4          6       -0.232765   -0.181241
    5          6       -0.222052   -0.167334
    6          6       -0.151577   -0.096694
    7          6       -0.138738   -0.089088
    8          6        0.070630    0.050547
    9          8       -0.178382   -0.114690
   10          6        0.072402    0.052312
   11          6       -0.137889   -0.088239
   12          6       -0.151079   -0.096197
   13          6       -0.207519   -0.152802
   14          6       -0.203179   -0.151656
   15          6       -0.077339   -0.077183
   16          1       -0.094327   -0.154119
   17          1       -0.064604   -0.119824
   18          1        0.069698    0.014516
   19          1        0.091091    0.032204
   20          1        0.091486    0.032601
   21          1        0.069540    0.014358
   22          1       -0.049549   -0.104769
   23          1       -0.036427   -0.096223
 -----------------------------------------------

 Dipole moment (in Debye)
 -----------------------------------------------
                 X        Y        Z     Total
 -----------------------------------------------
 CM5          1.1816  -1.6699 -11.4029  11.5849
 Hirshfeld    1.1879  -1.7191 -11.2552  11.4475
 -----------------------------------------------

   34    -650.7226709996      7.60e-05  
Hirshfeld: reading atomic densities from disk.

 Charges (in A.U.) from CM5PAC (Nov. 11, 2011)
 -----------------------------------------------
 Center     Atomic      CM5         Hirshfeld
 Number     Number      Charge      Charge
 -----------------------------------------------
    1          8       -0.462257   -0.419028
    2          6        0.021121   -0.009320
    3          6       -0.083627   -0.083472
    4          6       -0.235432   -0.183908
    5          6       -0.222553   -0.167835
    6          6       -0.150491   -0.095608
    7          6       -0.137972   -0.088322
    8          6        0.071779    0.051695
    9          8       -0.177947   -0.114255
   10          6        0.073179    0.053088
   11          6       -0.136932   -0.087282
   12          6       -0.149832   -0.094949
   13          6       -0.207954   -0.153237
   14          6       -0.204256   -0.152732
   15          6       -0.078405   -0.078249
   16          1       -0.099735   -0.159527
   17          1       -0.061856   -0.117077
   18          1        0.071806    0.016624
   19          1        0.092100    0.033213
   20          1        0.092436    0.033551
   21          1        0.071029    0.015848
   22          1       -0.050595   -0.105815
   23          1       -0.037902   -0.097699
 -----------------------------------------------

 Dipole moment (in Debye)
 -----------------------------------------------
                 X        Y        Z     Total
 -----------------------------------------------
 CM5          1.1450  -1.6968 -11.5726  11.7523
 Hirshfeld    1.1513  -1.7460 -11.4249  11.6147
 -----------------------------------------------

   35    -650.7224006432      7.19e-05  
Hirshfeld: reading atomic densities from disk.

 Charges (in A.U.) from CM5PAC (Nov. 11, 2011)
 -----------------------------------------------
 Center     Atomic      CM5         Hirshfeld
 Number     Number      Charge      Charge
 -----------------------------------------------
    1          8       -0.465129   -0.421900
    2          6        0.020585   -0.009856
    3          6       -0.084013   -0.083858
    4          6       -0.236358   -0.184834
    5          6       -0.221965   -0.167247
    6          6       -0.150649   -0.095766
    7          6       -0.138528   -0.088878
    8          6        0.071196    0.051112
    9          8       -0.177944   -0.114251
   10          6        0.073181    0.053091
   11          6       -0.137497   -0.087847
   12          6       -0.150275   -0.095393
   13          6       -0.208329   -0.153612
   14          6       -0.204526   -0.153002
   15          6       -0.077629   -0.077473
   16          1       -0.098997   -0.158789
   17          1       -0.059743   -0.114963
   18          1        0.072128    0.016946
   19          1        0.092533    0.033647
   20          1        0.092891    0.034005
   21          1        0.071584    0.016402
   22          1       -0.049385   -0.104605
   23          1       -0.037422   -0.097219
 -----------------------------------------------

 Dipole moment (in Debye)
 -----------------------------------------------
                 X        Y        Z     Total
 -----------------------------------------------
 CM5          1.1220  -1.6968 -11.5934  11.7705
 Hirshfeld    1.1283  -1.7460 -11.4457  11.6329
 -----------------------------------------------

   36    -650.7211034559      6.94e-05  
Hirshfeld: reading atomic densities from disk.

 Charges (in A.U.) from CM5PAC (Nov. 11, 2011)
 -----------------------------------------------
 Center     Atomic      CM5         Hirshfeld
 Number     Number      Charge      Charge
 -----------------------------------------------
    1          8       -0.466844   -0.423615
    2          6        0.017389   -0.013052
    3          6       -0.085346   -0.085191
    4          6       -0.237024   -0.185500
    5          6       -0.219770   -0.165052
    6          6       -0.151262   -0.096379
    7          6       -0.138245   -0.088595
    8          6        0.070788    0.050704
    9          8       -0.178421   -0.114728
   10          6        0.072307    0.052217
   11          6       -0.136995   -0.087345
   12          6       -0.151132   -0.096249
   13          6       -0.208926   -0.154209
   14          6       -0.205076   -0.153553
   15          6       -0.079389   -0.079234
   16          1       -0.096808   -0.156600
   17          1       -0.054532   -0.109752
   18          1        0.073029    0.017847
   19          1        0.093039    0.034153
   20          1        0.093337    0.034452
   21          1        0.071461    0.016280
   22          1       -0.052155   -0.107376
   23          1       -0.033716   -0.093512
 -----------------------------------------------

 Dipole moment (in Debye)
 -----------------------------------------------
                 X        Y        Z     Total
 -----------------------------------------------
 CM5          0.8858  -1.6868 -11.5723  11.7281
 Hirshfeld    0.8921  -1.7360 -11.4246  11.5901
 -----------------------------------------------

   37    -650.7210125391      6.56e-05  
Hirshfeld: reading atomic densities from disk.

 Charges (in A.U.) from CM5PAC (Nov. 11, 2011)
 -----------------------------------------------
 Center     Atomic      CM5         Hirshfeld
[...]
   18          1        0.072326    0.017144
   19          1        0.092966    0.034080
   20          1        0.092906    0.034020
   21          1        0.071238    0.016057
   22          1       -0.061638   -0.116859
   23          1       -0.060209   -0.120005
 -----------------------------------------------

 Dipole moment (in Debye)
 -----------------------------------------------
                 X        Y        Z     Total
 -----------------------------------------------
 CM5         -0.6165  -1.6753 -11.4677  11.6058
 Hirshfeld   -0.6102  -1.7245 -11.3199  11.4668
 -----------------------------------------------

   39    -650.7216565650      3.92e-05  
Hirshfeld: reading atomic densities from disk.

 Charges (in A.U.) from CM5PAC (Nov. 11, 2011)
 -----------------------------------------------
 Center     Atomic      CM5         Hirshfeld
 Number     Number      Charge      Charge
 -----------------------------------------------
    1          8       -0.463664   -0.420435
    2          6        0.021237   -0.009203
    3          6       -0.080654   -0.080499
    4          6       -0.219630   -0.168106
    5          6       -0.214896   -0.160179
    6          6       -0.151109   -0.096226
    7          6       -0.136924   -0.087274
    8          6        0.071066    0.050982
    9          8       -0.177589   -0.113896
   10          6        0.071214    0.051123
   11          6       -0.137003   -0.087353
   12          6       -0.151549   -0.096667
   13          6       -0.216644   -0.161926
   14          6       -0.220254   -0.168731
   15          6       -0.080608   -0.080452
   16          1       -0.064820   -0.124612
   17          1       -0.056201   -0.111421
   18          1        0.071828    0.016646
   19          1        0.092922    0.034035
   20          1        0.092902    0.034017
   21          1        0.071501    0.016319
   22          1       -0.061242   -0.116462
   23          1       -0.064262   -0.124059
 -----------------------------------------------

 Dipole moment (in Debye)
 -----------------------------------------------
                 X        Y        Z     Total
 -----------------------------------------------
 CM5         -0.6964  -1.6733 -11.4446  11.5872
 Hirshfeld   -0.6901  -1.7225 -11.2969  11.4483
 -----------------------------------------------

   40    -650.7216499017      1.32e-05  
Hirshfeld: reading atomic densities from disk.

 Charges (in A.U.) from CM5PAC (Nov. 11, 2011)
 -----------------------------------------------
 Center     Atomic      CM5         Hirshfeld
 Number     Number      Charge      Charge
 -----------------------------------------------
    1          8       -0.463783   -0.420554
    2          6        0.021000   -0.009440
    3          6       -0.080754   -0.080599
    4          6       -0.219504   -0.167980
    5          6       -0.215259   -0.160541
    6          6       -0.151231   -0.096349
    7          6       -0.137015   -0.087365
    8          6        0.071000    0.050916
    9          8       -0.177556   -0.113863
   10          6        0.071192    0.051101
   11          6       -0.136992   -0.087342
   12          6       -0.151325   -0.096443
   13          6       -0.216272   -0.161555
   14          6       -0.220464   -0.168941
   15          6       -0.080758   -0.080602
   16          1       -0.064257   -0.124049
   17          1       -0.057093   -0.112313
   18          1        0.071764    0.016582
   19          1        0.092965    0.034078
   20          1        0.092952    0.034067
   21          1        0.071741    0.016559
   22          1       -0.059960   -0.115181
   23          1       -0.064769   -0.124565
 -----------------------------------------------

 Dipole moment (in Debye)
 -----------------------------------------------
                 X        Y        Z     Total
 -----------------------------------------------
 CM5         -0.6386  -1.6740 -11.4514  11.5907
 Hirshfeld   -0.6323  -1.7232 -11.3037  11.4518
 -----------------------------------------------

   41    -650.7218131840      1.12e-05  
Hirshfeld: reading atomic densities from disk.

 Charges (in A.U.) from CM5PAC (Nov. 11, 2011)
 -----------------------------------------------
 Center     Atomic      CM5         Hirshfeld
 Number     Number      Charge      Charge
 -----------------------------------------------
    1          8       -0.463694   -0.420465
    2          6        0.021128   -0.009313
    3          6       -0.080638   -0.080483
    4          6       -0.219499   -0.167975
    5          6       -0.215484   -0.160766
    6          6       -0.151250   -0.096367
    7          6       -0.136978   -0.087329
    8          6        0.071059    0.050976
    9          8       -0.177603   -0.113911
   10          6        0.071212    0.051122
   11          6       -0.137005   -0.087355
   12          6       -0.151276   -0.096394
   13          6       -0.216090   -0.161373
   14          6       -0.220403   -0.168879
   15          6       -0.080677   -0.080522
   16          1       -0.064267   -0.124059
   17          1       -0.057738   -0.112958
   18          1        0.071646    0.016465
   19          1        0.092918    0.034031
   20          1        0.092933    0.034047
   21          1        0.071760    0.016578
   22          1       -0.059622   -0.114842
   23          1       -0.064813   -0.124609
 -----------------------------------------------

 Dipole moment (in Debye)
 -----------------------------------------------
                 X        Y        Z     Total
 -----------------------------------------------
 CM5         -0.6058  -1.6742 -11.4507  11.5883
 Hirshfeld   -0.5994  -1.7234 -11.3030  11.4494
 -----------------------------------------------

   42    -650.7217769259      1.18e-05  
Hirshfeld: reading atomic densities from disk.

 Charges (in A.U.) from CM5PAC (Nov. 11, 2011)
 -----------------------------------------------
 Center     Atomic      CM5         Hirshfeld
 Number     Number      Charge      Charge
 -----------------------------------------------
    1          8       -0.463651   -0.420422
    2          6        0.021136   -0.009304
    3          6       -0.080615   -0.080460
    4          6       -0.219493   -0.167969
    5          6       -0.215526   -0.160808
    6          6       -0.151232   -0.096349
    7          6       -0.136955   -0.087305
    8          6        0.071072    0.050988
    9          8       -0.177602   -0.113910
   10          6        0.071215    0.051125
   11          6       -0.136988   -0.087338
   12          6       -0.151251   -0.096369
   13          6       -0.216103   -0.161385
   14          6       -0.220434   -0.168911
   15          6       -0.080672   -0.080517
   16          1       -0.064253   -0.124045
   17          1       -0.057856   -0.113076
   18          1        0.071658    0.016476
   19          1        0.092935    0.034049
   20          1        0.092952    0.034066
   21          1        0.071787    0.016605
   22          1       -0.059619   -0.114840
   23          1       -0.064885   -0.124681
 -----------------------------------------------

 Dipole moment (in Debye)
 -----------------------------------------------
                 X        Y        Z     Total
 -----------------------------------------------
 CM5         -0.6039  -1.6747 -11.4528  11.5904
 Hirshfeld   -0.5976  -1.7239 -11.3051  11.4514
 -----------------------------------------------

   43    -650.7217980241      1.07e-05  
Hirshfeld: reading atomic densities from disk.

 Charges (in A.U.) from CM5PAC (Nov. 11, 2011)
 -----------------------------------------------
 Center     Atomic      CM5         Hirshfeld
 Number     Number      Charge      Charge
 -----------------------------------------------
    1          8       -0.463920   -0.420691
    2          6        0.020875   -0.009566
    3          6       -0.080747   -0.080592
    4          6       -0.219432   -0.167908
    5          6       -0.214807   -0.160090
    6          6       -0.151196   -0.096313
    7          6       -0.136981   -0.087331
    8          6        0.071022    0.050938
    9          8       -0.177669   -0.113976
   10          6        0.071170    0.051079
   11          6       -0.137095   -0.087446
   12          6       -0.151610   -0.096728
   13          6       -0.216521   -0.161803
   14          6       -0.220545   -0.169021
   15          6       -0.080795   -0.080640
   16          1       -0.064246   -0.124038
   17          1       -0.056107   -0.111328
   18          1        0.071899    0.016717
   19          1        0.092984    0.034098
   20          1        0.092973    0.034088
   21          1        0.071665    0.016483
   22          1       -0.060664   -0.115884
   23          1       -0.064628   -0.124425
 -----------------------------------------------

 Dipole moment (in Debye)
 -----------------------------------------------
                 X        Y        Z     Total
 -----------------------------------------------
 CM5         -0.7009  -1.6728 -11.4465  11.5893
 Hirshfeld   -0.6946  -1.7220 -11.2988  11.4503
 -----------------------------------------------

   44    -650.7217837142      1.07e-05  
Hirshfeld: reading atomic densities from disk.

 Charges (in A.U.) from CM5PAC (Nov. 11, 2011)
 -----------------------------------------------
 Center     Atomic      CM5         Hirshfeld
 Number     Number      Charge      Charge
 -----------------------------------------------
    1          8       -0.463547   -0.420318
    2          6        0.021223   -0.009218
    3          6       -0.080663   -0.080508
    4          6       -0.219687   -0.168162
    5          6       -0.215472   -0.160754
    6          6       -0.151221   -0.096338
    7          6       -0.136945   -0.087295
    8          6        0.071057    0.050974
    9          8       -0.177614   -0.113921
   10          6        0.071206    0.051115
   11          6       -0.136962   -0.087313
   12          6       -0.151388   -0.096505
   13          6       -0.216432   -0.161715
   14          6       -0.220068   -0.168544
   15          6       -0.080584   -0.080429
   16          1       -0.064368   -0.124160
   17          1       -0.057652   -0.112872
   18          1        0.071709    0.016528
   19          1        0.092942    0.034056
   20          1        0.092935    0.034049
   21          1        0.071618    0.016436
   22          1       -0.060573   -0.115793
   23          1       -0.063902   -0.123698
 -----------------------------------------------

 Dipole moment (in Debye)
 -----------------------------------------------
                 X        Y        Z     Total
 -----------------------------------------------
 CM5         -0.6225  -1.6732 -11.4420  11.5804
 Hirshfeld   -0.6161  -1.7224 -11.2943  11.4414
 -----------------------------------------------

   45    -650.7217823609      1.32e-05  
Hirshfeld: reading atomic densities from disk.

 Charges (in A.U.) from CM5PAC (Nov. 11, 2011)
 -----------------------------------------------
 Center     Atomic      CM5         Hirshfeld
 Number     Number      Charge      Charge
 -----------------------------------------------
    1          8       -0.462480   -0.419251
    2          6        0.022431   -0.008009
    3          6       -0.080190   -0.080035
    4          6       -0.219113   -0.167589
    5          6       -0.216622   -0.161905
    6          6       -0.151613   -0.096730
    7          6       -0.136877   -0.087228
    8          6        0.071114    0.051030
    9          8       -0.177218   -0.113526
   10          6        0.071507    0.051416
   11          6       -0.136863   -0.087213
   12          6       -0.151834   -0.096951
   13          6       -0.216839   -0.162122
   14          6       -0.218766   -0.167242
   15          6       -0.079939   -0.079783
   16          1       -0.063566   -0.123359
   17          1       -0.061366   -0.116586
   18          1        0.071246    0.016064
   19          1        0.092826    0.033939
   20          1        0.092825    0.033940
   21          1        0.071252    0.016071
   22          1       -0.062576   -0.117797
   23          1       -0.061762   -0.121559
 -----------------------------------------------

 Dipole moment (in Debye)
 -----------------------------------------------
                 X        Y        Z     Total
 -----------------------------------------------
 CM5         -0.5400  -1.6701 -11.3992  11.5335
 Hirshfeld   -0.5337  -1.7193 -11.2515  11.3946
 -----------------------------------------------

   46    -650.7218556067      1.06e-05  
   47    -650.7222240510      6.40e-06  Convergence criterion met
 ---------------------------------------
 SCF time:   CPU 10043.35s  wall 1308.00s 
(1)  E-EN(liq) elect-nuc energy of solute               -650.722224051 a.u.
(2)  G-P(liq) polarization free energy of solvation          -184.7458 kcal/mol
(3)  G-ENP(liq) elect-nuc-pol free energy of system     -651.016635216 a.u.
(4)  G-CDS(liq) cavity-dispersion-solvent structure 
     free energy                                               -6.9069 kcal/mol
(5)  G-P-CDS(liq) = G-P(liq) + G-CDS(liq) = (2) + (4)        -191.6527 kcal/mol
(6)  G-S(liq) free energy of system = (1) + (5)         -651.027642066 a.u.
 SCF   energy in the final basis set =     -651.0276420663
 Total energy in the final basis set =     -651.0276420663
 
 --------------------------------------------------------------
 
                    Orbital Energies (a.u.)
 --------------------------------------------------------------
 
 Alpha MOs
 -- Occupied --
-19.2297 -19.1047 -10.2937 -10.2937 -10.2632 -10.2295 -10.2294 -10.2287
-10.2287 -10.2281 -10.2280 -10.2253 -10.2253 -10.2221 -10.2220  -1.1475
 -1.0232  -0.9145  -0.9009  -0.8259  -0.8216  -0.7980  -0.7836  -0.7071
 -0.6944  -0.6506  -0.6436  -0.6055  -0.6022  -0.5496  -0.5395  -0.5236
 -0.5141  -0.5073  -0.4873  -0.4856  -0.4708  -0.4443  -0.4435  -0.4357
 -0.4254  -0.4225  -0.4110  -0.4069  -0.3845  -0.3806  -0.3189  -0.3065
 -0.3003  -0.2776  -0.2742  -0.1471
 -- Virtual --
 -0.1296  -0.1266  -0.1099  -0.1022  -0.0803  -0.0771  -0.0759  -0.0701
 -0.0589  -0.0560  -0.0429  -0.0377  -0.0369  -0.0288  -0.0129  -0.0126
 -0.0102  -0.0009   0.0010   0.0038   0.0047   0.0055   0.0057   0.0152
  0.0193   0.0235   0.0242   0.0341   0.0391   0.0424   0.0462   0.0467
  0.0499   0.0531   0.0538   0.0556   0.0639   0.0674   0.0791   0.0842
  0.0857   0.0920   0.0931   0.1018   0.1033   0.1074   0.1114   0.1121
  0.1259   0.1362   0.1413   0.1442   0.1505   0.1526   0.1600   0.1646
  0.1715   0.1810   0.1868   0.1892   0.1930   0.1989   0.2013   0.2027
  0.2105   0.2136   0.2227   0.2280   0.2303   0.2351   0.2419   0.2459
  0.2511   0.2540   0.2585   0.2617   0.2681   0.2812   0.2856   0.2972
  0.2984   0.3043   0.3154   0.3185   0.3377   0.3393   0.3512   0.3746
  0.3770   0.4231   0.4308   0.4623   0.4735   0.4827   0.4837   0.4868
  0.4883   0.4896   0.5031   0.5043   0.5128   0.5180   0.5212   0.5312
  0.5345   0.5447   0.5511   0.5547   0.5660   0.5817   0.5924   0.6036
  0.6107   0.6172   0.6223   0.6241   0.6595   0.6630   0.6699   0.6751
  0.6806   0.6893   0.6905   0.6958   0.7265   0.7365   0.7390   0.7603
  0.7667   0.7751   0.7846   0.7940   0.7978   0.8027   0.8254   0.8330
  0.8373   0.8487   0.8744   0.8800   0.8849   0.8954   0.9015   0.9114
  0.9273   0.9343   0.9558   0.9570   0.9617   0.9695   0.9804   0.9984
  1.0048   1.0142   1.0347   1.0406   1.0434   1.0559   1.0773   1.0775
  1.1054   1.1213   1.1263   1.1532   1.1717   1.2001   1.2064   1.2424
  1.2586   1.2670   1.2921   1.3203   1.3465   1.3839   1.4256   1.4526
  1.4606   1.4639   1.4668   1.4674   1.4873   1.5053   1.5120   1.5143
  1.5243   1.5597   1.5634   1.5669   1.5722   1.5926   1.6105   1.6287
  1.6360   1.6527   1.6731   1.6893   1.6915   1.7005   1.7388   1.7447
  1.7742   1.7916   1.7919   1.8131   1.8337   1.8524   1.8545   1.8578
  1.8775   1.8824   1.8913   1.9069   1.9143   1.9217   1.9239   1.9300
  1.9379   1.9554   1.9744   1.9882   2.0029   2.0126   2.0376   2.0483
  2.0847   2.1020   2.1901   2.2072   2.2084   2.2502   2.2686   2.2866
  2.3062   2.3277   2.3438   2.4039   2.4109   2.4161   2.4486   2.4564
  2.5199   2.5556   2.5566   2.5997   2.6072   2.6536   2.6582   2.6611
  2.6693   2.6797   2.6890   2.6948   2.7023   2.7078   2.7128   2.7237
  2.7265   2.7503   2.7554   2.7573   2.7693   2.7932   2.7998   2.8172
  2.8293   2.8302   2.8465   2.8641   2.9035   2.9382   2.9439   3.0195
  3.0301   3.0359   3.0631   3.0780   3.1453   3.1633   3.1753   3.1804
  3.2235   3.2822   3.2961   3.3118   3.3344   3.3675   3.3833   3.4714
  3.4820   3.4933   3.5035   3.5151   3.5491   3.6214   3.6671   3.7121
  3.8274   3.9779   3.9834   4.0110   4.0328   4.1076   4.1488   4.1927
  4.1961   4.2534   4.5481   4.7724   4.7896   4.9651   5.0645   5.2463
  5.3463   5.7539   5.8993  23.5054  23.6350  23.8569  23.8806  23.8840
 23.9239  23.9284  23.9823  23.9852  24.0354  24.0398  24.1188  24.1194
 49.9370  50.0469
 --------------------------------------------------------------
 
          Ground-State Mulliken Net Atomic Charges

     Atom                 Charge (a.u.)
  ----------------------------------------
      1 O                    -0.452945
      2 C                    -0.342821
      3 C                    -0.653364
      4 C                    -1.679751
      5 C                     1.047470
      6 C                     2.369483
      7 C                     0.874673
      8 C                    -0.368186
      9 O                     0.189886
     10 C                    -0.377037
     11 C                     0.867410
     12 C                     2.387385
     13 C                     1.035494
     14 C                    -1.703023
     15 C                    -0.637058
     16 H                    -2.122680
     17 H                    -1.270567
     18 H                     0.701639
     19 H                     0.435110
     20 H                     0.436393
     21 H                     0.707199
     22 H                    -1.331447
     23 H                    -2.113262
  ----------------------------------------
  Sum of atomic charges =    -2.000000

 -----------------------------------------------------------------
                    Cartesian Multipole Moments
 -----------------------------------------------------------------
    Charge (ESU x 10^10)
                -9.6064
    Dipole Moment (Debye)
         X      -1.2316      Y      -4.2233      Z     -20.8829
       Tot      21.3412
    Quadrupole Moments (Debye-Ang)
        XX    -224.0118     XY       0.1651     YY    -123.7047
        XZ       1.7354     YZ     -13.7290     ZZ    -173.8051
    Octopole Moments (Debye-Ang^2)
       XXX     -56.5746    XXY     -49.2037    XYY      -4.0950
       YYY     -42.9553    XXZ    -321.8515    XYZ       1.5344
       YYZ     -79.1793    XZZ       9.7426    YZZ     -58.4299
       ZZZ    -391.1010
    Hexadecapole Moments (Debye-Ang^3)
      XXXX   -7938.6903   XXXY       9.1238   XXYY   -1137.7054
      XYYY      15.2548   YYYY    -478.2186   XXXZ      73.7540
      XXYZ    -192.8418   XYYZ      29.6055   YYYZ    -198.8800
      XXZZ   -1919.8795   XYZZ      15.5234   YYZZ    -491.0136
      XZZZ     130.1680   YZZZ    -309.8189   ZZZZ   -2775.8897
 -----------------------------------------------------------------
 Total job time:  1348.92s(wall), 10050.71s(cpu) 
 Thu Feb 15 14:52:44 2024

        *************************************************************
        *                                                           *
        *  Thank you very much for using Q-Chem.  Have a nice day.  *
        *                                                           *
        *************************************************************


