
Running Job 1 of 1 024-SM12.in
qchem 024-SM12.in_4083591.0 /expanse/lustre/scratch/selhajj/temp_project/qcscratch/28444795/qchem4083591/ 0
/cm/shared/apps/spack/cpu/opt/spack/linux-centos8-zen2/gcc-10.2.0/qchem-5.4-akfmr7b3t57bfs6qan3padb2wnb2i7cl/exe/qcprog.exe_s 024-SM12.in_4083591.0 /expanse/lustre/scratch/selhajj/temp_project/qcscratch/28444795/qchem4083591/
                  Welcome to Q-Chem
     A Quantum Leap Into The Future Of Chemistry


 Q-Chem 5.4, Q-Chem, Inc., Pleasanton, CA (2021)

 License issued to: University of California, San Diego (site)

 E. Epifanovsky,  A. T. B. Gilbert,  Xintian Feng,  Joonho Lee,  Yuezhi Mao,  
 N. Mardirossian,  P. Pokhilko,  A. White,  M. Wormit,  M. P. Coons,  
 A. L. Dempwolff,  Zhengting Gan,  D. Hait,  P. R. Horn,  L. D. Jacobson,  
 I. Kaliman,  J. Kussmann,  A. W. Lange,  Ka Un Lao,  D. S. Levine,  Jie Liu,  
 S. C. McKenzie,  A. F. Morrison,  K. Nanda,  F. Plasser,  D. R. Rehn,  
 M. L. Vidal,  Zhi-Qiang You,  Ying Zhu,  B. Alam,  B. Albrecht,  
 A. Aldossary,  E. Alguire,  J. H. Andersen,  D. Barton,  K. Begam,  A. Behn,  
 Y. A. Bernard,  E. J. Berquist,  H. Burton,  A. Carreras,  K. Carter-Fenk,  
 R. Chakraborty,  A. D. Chien,  K. D. Closser,  V. Cofer-Shabica,  
 S. Dasgupta,  Jia Deng,  M. de Wergifosse,  M. Diedenhofen,  Hainam Do,  
 S. Ehlert,  Po-Tung Fang,  S. Fatehi,  Qingguo Feng,  J. Gayvert,  
 Qinghui Ge,  G. Gidofalvi,  M. Goldey,  J. Gomes,  C. Gonzalez-Espinoza,  
 S. Gulania,  A. Gunina,  M. W. D. Hanson-Heine,  P. H. P. Harbach,  
 A. W. Hauser,  M. F. Herbst,  M. Hernandez Vera,  M. Hodecker,  
 Z. C. Holden,  S. Houck,  Xunkun Huang,  Kerwin Hui,  B. C. Huynh,  
 M. Ivanov,  Hyunjun Ji,  Hanjie Jiang,  B. Kaduk,  S. Kaehler,  
 K. Khistyaev,  Jaehoon Kim,  P. Klunzinger,  Z. Koczor-Benda,  
 Joong Hoon Koh,  D. Kosenkov,  L. Koulias,  T. Kowalczyk,  C. M. Krauter,  
 K. Kue,  A. Kunitsa,  T. Kus,  A. Landau,  K. V. Lawler,  D. Lefrancois,  
 S. Lehtola,  Rain Li,  Yi-Pei Li,  Jiashu Liang,  M. Liebenthal,  
 Hung-Hsuan Lin,  You-Sheng Lin,  Fenglai Liu,  Kuan-Yu Liu,  
 M. Loipersberger,  A. Luenser,  A. Manjanath,  P. Manohar,  E. Mansoor,  
 S. F. Manzer,  Shan-Ping Mao,  A. V. Marenich,  T. Markovich,  S. Mason,  
 S. A. Maurer,  P. F. McLaughlin,  M. F. S. J. Menger,  J.-M. Mewes,  
 S. A. Mewes,  P. Morgante,  J. W. Mullinax,  T. S. Nguyen-Beck,  
 K. J. Oosterbaan,  G. Paran,  Alexander C. Paul,  Suranjan K. Paul,  
 F. Pavosevic,  Zheng Pei,  S. Prager,  E. I. Proynov,  E. Ramos,  B. Rana,  
 A. E. Rask,  A. Rettig,  R. M. Richard,  F. Rob,  E. Rossomme,  T. Scheele,  
 M. Scheurer,  M. Schneider,  N. Sergueev,  S. M. Sharada,  W. Skomorowski,  
 D. W. Small,  C. J. Stein,  Yu-Chuan Su,  E. J. Sundstrom,  Zhen Tao,  
 J. Thirman,  T. Tsuchimochi,  N. M. Tubman,  S. P. Veccham,  O. Vydrov,  
 J. Wenzel,  J. Witte,  A. Yamada,  Kun Yao,  S. Yeganeh,  S. R. Yost,  
 A. Zech,  Igor Ying Zhang,  Xing Zhang,  Yu Zhang,  D. Zuev,  
 A. Aspuru-Guzik,  A. T. Bell,  N. A. Besley,  K. B. Bravaya,  B. R. Brooks,  
 D. Casanova,  Jeng-Da Chai,  S. Coriani,  C. J. Cramer,  
 A. E. DePrince, III,  R. A. DiStasio Jr.,  A. Dreuw,  B. D. Dunietz,  
 T. R. Furlani,  W. A. Goddard III,  S. Grimme,  S. Hammes-Schiffer,  
 T. Head-Gordon,  W. J. Hehre,  Chao-Ping Hsu,  T.-C. Jagau,  Yousung Jung,  
 A. Klamt,  Jing Kong,  D. S. Lambrecht,  WanZhen Liang,  N. J. Mayhall,  
 C. W. McCurdy,  J. B. Neaton,  C. Ochsenfeld,  J. A. Parkhill,  R. Peverati,  
 V. A. Rassolov,  Yihan Shao,  L. V. Slipchenko,  T. Stauch,  R. P. Steele,  
 J. E. Subotnik,  A. J. W. Thom,  A. Tkatchenko,  D. G. Truhlar,  
 T. Van Voorhis,  T. A. Wesolowski,  K. B. Whaley,  H. L. Woodcock III,  
 P. M. Zimmerman,  S. Faraji,  P. M. W. Gill,  M. Head-Gordon,  
 J. M. Herbert,  A. I. Krylov

 Contributors to earlier versions of Q-Chem not listed above: 
 R. D. Adamson,  B. Austin,  R. Baer,  J. Baker,  G. J. O. Beran,  
 K. Brandhorst,  S. T. Brown,  E. F. C. Byrd,  A. K. Chakraborty,  
 G. K. L. Chan,  Chun-Min Chang,  Yunqing Chen,  C.-L. Cheng,  
 Siu Hung Chien,  D. M. Chipman,  D. L. Crittenden,  H. Dachsel,  
 R. J. Doerksen,  A. D. Dutoi,  R. G. Edgar,  J. Fosso-Tande,  
 L. Fusti-Molnar,  D. Ghosh,  A. Ghysels,  A. Golubeva-Zadorozhnaya,  
 J. Gonthier,  M. S. Gordon,  S. R. Gwaltney,  G. Hawkins,  J. E. Herr,  
 A. Heyden,  S. Hirata,  E. G. Hohenstein,  G. Kedziora,  F. J. Keil,  
 C. Kelley,  Jihan Kim,  R. A. King,  R. Z. Khaliullin,  P. P. Korambath,  
 W. Kurlancheek,  A. Laurent,  A. M. Lee,  M. S. Lee,  S. V. Levchenko,  
 Ching Yeh Lin,  D. Liotard,  E. Livshits,  R. C. Lochan,  I. Lotan,  
 L. A. Martinez-Martinez,  P. E. Maslen,  N. Nair,  D. P. O'Neill,  
 D. Neuhauser,  E. Neuscamman,  C. M. Oana,  R. Olivares-Amaya,  R. Olson,  
 T. M. Perrine,  B. Peters,  P. A. Pieniazek,  A. Prociuk,  Y. M. Rhee,  
 J. Ritchie,  M. A. Rohrdanz,  E. Rosta,  N. J. Russ,  H. F. Schaefer III,  
 M. W. Schmidt,  N. E. Schultz,  S. Sharma,  N. Shenvi,  C. D. Sherrill,  
 A. C. Simmonett,  A. Sodt,  T. Stein,  D. Stuck,  K. S. Thanthiriwatte,  
 V. Vanovschi,  L. Vogt,  Tao Wang,  A. Warshel,  M. A. Watson,  
 C. F. Williams,  Q. Wu,  X. Xu,  Jun Yang,  W. Zhang,  Yan Zhao

 Please cite Q-Chem as follows:
 Y. Shao et al., Mol. Phys. 113, 184-215 (2015)
 DOI: 10.1080/00268976.2014.952696

 Q-Chem 5.4.0 for Intel X86 EM64T Linux

 Parts of Q-Chem use Armadillo 9.800.1 (Horizon Scraper).
 http://arma.sourceforge.net/

 Q-Chem begins on Sat Feb  3 10:27:15 2024  

 Host: 
0

     Scratch files written to /expanse/lustre/scratch/selhajj/temp_project/qcscratch/28444795/qchem4083591//
 May1621 |scratch|qcdevops|jenkins|workspace|build_RNUM    
 Processing $rem in /cm/shared/apps/spack/cpu/opt/spack/linux-centos8-zen2/gcc-10.2.0/qchem-5.4-akfmr7b3t57bfs6qan3padb2wnb2i7cl/config/preferences:
 Processing $rem in /home/selhajj/.qchemrc:
 Symmetry turned off for PCM/SM12/SMD calculation
 Method-specific promolecule density matrix will be built for SM12 calculation

 Checking the input file for inconsistencies... 	...done.

--------------------------------------------------------------
User input:
--------------------------------------------------------------
$molecule
0 1
C                 -1.6505370000      0.7864660000      1.6295100000
C                 -2.9003030000      1.0617410000      0.7802280000
C                 -2.8634130000      0.9932610000     -0.5856880000
C                 -1.6594400000      0.6621960000     -1.2942880000
C                 -0.4097990000      0.3864210000     -0.4449840000
C                 -0.4466880000      0.4549060000      0.9209320000
O                 -1.5434420000      0.5787070000     -2.5079730000
O                 -1.7667550000      0.8690730000      2.8432340000
Br                 1.1234540000      0.1074930000      1.9491680000
Br                -4.4337210000      1.3400110000     -1.6138960000
N                  0.6600740000      0.0868740000     -1.1851680000
N                 -3.9702650000      1.3609320000      1.5204270000
H                  0.5400020000      0.0734650000     -2.1897340000
H                  1.5502130000     -0.1170800000     -0.7591750000
H                 -3.8501610000      1.3744700000      2.5249880000
H                 -4.8604870000      1.5645520000      1.0944490000
$end

$rem
BASIS  =  6-311++G(d,p)
GUI  =  2
JOB_TYPE  =  SP
METHOD  =  B3LYP
SCF_CONVERGENCE  = 8
SOLVENT_METHOD = sm12
$end

$smx
solvent dimethylformamide
charges CM5
$end





--------------------------------------------------------------
 ----------------------------------------------------------------
             Standard Nuclear Orientation (Angstroms)
    I     Atom           X                Y                Z
 ----------------------------------------------------------------
    1      C      -1.6505370000     0.7864660000     1.6295100000
    2      C      -2.9003030000     1.0617410000     0.7802280000
    3      C      -2.8634130000     0.9932610000    -0.5856880000
    4      C      -1.6594400000     0.6621960000    -1.2942880000
    5      C      -0.4097990000     0.3864210000    -0.4449840000
    6      C      -0.4466880000     0.4549060000     0.9209320000
    7      O      -1.5434420000     0.5787070000    -2.5079730000
    8      O      -1.7667550000     0.8690730000     2.8432340000
    9      Br      1.1234540000     0.1074930000     1.9491680000
   10      Br     -4.4337210000     1.3400110000    -1.6138960000
   11      N       0.6600740000     0.0868740000    -1.1851680000
   12      N      -3.9702650000     1.3609320000     1.5204270000
   13      H       0.5400020000     0.0734650000    -2.1897340000
   14      H       1.5502130000    -0.1170800000    -0.7591750000
   15      H      -3.8501610000     1.3744700000     2.5249880000
   16      H      -4.8604870000     1.5645520000     1.0944490000
 ----------------------------------------------------------------
 Nuclear Repulsion Energy =        1307.98125216 hartrees
 There are       70 alpha and       70 beta electrons
 Requested basis set is 6-311++G(d,p)
 There are 118 shells and 344 basis functions

 Total QAlloc Memory Limit   8000 MB
 Mega-Array Size       188 MB
 MEM_STATIC part       192 MB
 A cutoff of  1.0D-11 yielded   5356 shell pairs
 There are     48551 function pairs (     52874 Cartesian)
 Smallest overlap matrix eigenvalue = 5.66E-07

 Q-Chem warning in module stvman/mkSTV.C, line 323:

 Overlap eigenvalue is smaller than square root of threshold
 Use THRESH >= 12 to get rid of this warning

 Linear dependence detected in AO basis
 Tighter screening thresholds may be required for diffuse basis sets
 Use S2THRESH > 14 and THRESH = 14 in case of SCF convergence issues
 Number of orthogonalized atomic orbitals = 342
 Maximum deviation from orthogonality = 9.097E-11

 Scale SEOQF with 1.000000e-01/1.000000e-01/1.000000e-01

 Standard Electronic Orientation quadrupole field applied
 Nucleus-field energy     =     0.0000000014 hartrees
 ================ Generating on-the-fly Promolecule Density  ================
Attempting to make child job directory: /expanse/lustre/scratch/selhajj/temp_project/qcscratch/28444795/qchem4083591//Frg1/
Attempting to make child job directory: /expanse/lustre/scratch/selhajj/temp_project/qcscratch/28444795/qchem4083591//Frg2/
Attempting to make child job directory: /expanse/lustre/scratch/selhajj/temp_project/qcscratch/28444795/qchem4083591//Frg3/
Attempting to make child job directory: /expanse/lustre/scratch/selhajj/temp_project/qcscratch/28444795/qchem4083591//Frg4/
Attempting to make child job directory: /expanse/lustre/scratch/selhajj/temp_project/qcscratch/28444795/qchem4083591//Frg5/
Creating input file /expanse/lustre/scratch/selhajj/temp_project/qcscratch/28444795/qchem4083591/Frg1.input
using default PutDataFrgm: nothing
calling putenv with: QCSCRATCH=/expanse/lustre/scratch/selhajj/temp_project/qcscratch/28444795/qchem4083591/ 
Spawning Job For Fragment 0
Done Job For Fragment 0
calling putenv with: QCSCRATCH=/expanse/lustre/scratch/selhajj/temp_project/qcscratch/28444795 
calling putenv with: QCTHREADS=8 
Creating input file /expanse/lustre/scratch/selhajj/temp_project/qcscratch/28444795/qchem4083591/Frg2.input
using default PutDataFrgm: nothing
calling putenv with: QCSCRATCH=/expanse/lustre/scratch/selhajj/temp_project/qcscratch/28444795/qchem4083591/ 
Spawning Job For Fragment 1
Done Job For Fragment 1
calling putenv with: QCSCRATCH=/expanse/lustre/scratch/selhajj/temp_project/qcscratch/28444795 
calling putenv with: QCTHREADS=8 
Creating input file /expanse/lustre/scratch/selhajj/temp_project/qcscratch/28444795/qchem4083591/Frg3.input
using default PutDataFrgm: nothing
calling putenv with: QCSCRATCH=/expanse/lustre/scratch/selhajj/temp_project/qcscratch/28444795/qchem4083591/ 
Spawning Job For Fragment 2
Done Job For Fragment 2
calling putenv with: QCSCRATCH=/expanse/lustre/scratch/selhajj/temp_project/qcscratch/28444795 
calling putenv with: QCTHREADS=8 
Creating input file /expanse/lustre/scratch/selhajj/temp_project/qcscratch/28444795/qchem4083591/Frg4.input
using default PutDataFrgm: nothing
calling putenv with: QCSCRATCH=/expanse/lustre/scratch/selhajj/temp_project/qcscratch/28444795/qchem4083591/ 
Spawning Job For Fragment 3
Done Job For Fragment 3
calling putenv with: QCSCRATCH=/expanse/lustre/scratch/selhajj/temp_project/qcscratch/28444795 
calling putenv with: QCTHREADS=8 
Creating input file /expanse/lustre/scratch/selhajj/temp_project/qcscratch/28444795/qchem4083591/Frg5.input
using default PutDataFrgm: nothing
calling putenv with: QCSCRATCH=/expanse/lustre/scratch/selhajj/temp_project/qcscratch/28444795/qchem4083591/ 
Spawning Job For Fragment 4
Done Job For Fragment 4
calling putenv with: QCSCRATCH=/expanse/lustre/scratch/selhajj/temp_project/qcscratch/28444795 
calling putenv with: QCTHREADS=8 
 Time for running child jobs:  CPU 0.01 s  wall 6.28 s
 ============= Method Specific Promolecule Density Constructed =============
 Guess from superposition of atomic densities
 Warning:  Energy on first SCF cycle will be non-variational
 SAD guess density has 140.000000 electrons

 -----------------------------------------------------------------------
  General SCF calculation program by
  Eric Jon Sundstrom, Paul Horn, Yuezhi Mao, Dmitri Zuev, Alec White,
  David Stuck, Shaama M.S., Shane Yost, Joonho Lee, David Small,
  Daniel Levine, Susi Lehtola, Hugh Burton, Evgeny Epifanovsky,
  Bang C. Huynh
 -----------------------------------------------------------------------
 Exchange:     0.2000 Hartree-Fock + 0.0800 Slater + 0.7200 B88
 Correlation:  0.1900 VWN1RPA + 0.8100 LYP
 Using SG-1 standard quadrature grid
 using 8 threads for integral computing
 -------------------------------------------------------
 OpenMP Integral computing Module                
 Release: version 1.0, May 2013, Q-Chem Inc. Pittsburgh 
 -------------------------------------------------------
 
 SM12 calculation using CM5 charges
 Citation of the SM12 model:
 Marenich, A.V.; Cramer, C.J.; Truhlar, D.G.
 J. Chem. Theory Comput. 2013, 9, 609-612.
 iSolventCode=          91
 Solvent: dimethylformamide                                               
 
Hirshfeld: reading atomic densities from disk.
warning:  vdwdata pointer should have been initialzed before dftman

 Charges (in A.U.) from CM5PAC (Nov. 11, 2011)
 -----------------------------------------------
 Center     Atomic      CM5         Hirshfeld
 Number     Number      Charge      Charge
 -----------------------------------------------
    1          6        0.043330    0.005278
    2          6        0.069095    0.001784
    3          6       -0.012201   -0.005030
    4          6        0.043330    0.005278
    5          6        0.069095    0.001784
    6          6       -0.012201   -0.005030
    7          8       -0.068200   -0.019248
    8          8       -0.068199   -0.019247
    9         35        0.043452    0.023733
   10         35        0.043452    0.023733
   11          7       -0.480373   -0.021219
   12          7       -0.480373   -0.021219
   13          1        0.208332    0.010270
   14          1        0.196725    0.004593
   15          1        0.208332    0.010270
   16          1        0.196725    0.004593
 -----------------------------------------------

 Dipole moment (in Debye)
 -----------------------------------------------
                 X        Y        Z     Total
 -----------------------------------------------
 CM5         -0.0026   0.0012   0.0003   0.0028
 Hirshfeld   -0.0026   0.0011   0.0003   0.0028
 -----------------------------------------------

 A restricted SCF calculation will be
 performed using DIIS
 SCF converges when DIIS error is below 1.0e-08
 ---------------------------------------
  Cycle       Energy         DIIS error
 ---------------------------------------
Hirshfeld: reading atomic densities from disk.

 Charges (in A.U.) from CM5PAC (Nov. 11, 2011)
 -----------------------------------------------
 Center     Atomic      CM5         Hirshfeld
 Number     Number      Charge      Charge
 -----------------------------------------------
    1          6        0.300321    0.262269
    2          6        0.192795    0.125484
    3          6       -0.138957   -0.131786
    4          6        0.300322    0.262270
    5          6        0.192795    0.125484
    6          6       -0.138957   -0.131786
    7          8       -0.569971   -0.521019
    8          8       -0.569971   -0.521019
    9         35        0.078489    0.058770
   10         35        0.078489    0.058770
   11          7       -0.643048   -0.183893
   12          7       -0.643048   -0.183893
   13          1        0.394186    0.196123
   14          1        0.386321    0.194189
   15          1        0.394186    0.196124
   16          1        0.386321    0.194189
 -----------------------------------------------

 Dipole moment (in Debye)
 -----------------------------------------------
                 X        Y        Z     Total
 -----------------------------------------------
 CM5         -0.0020   0.0019   0.0002   0.0027
 Hirshfeld   -0.0020   0.0018   0.0002   0.0027
 -----------------------------------------------

    1   -5642.0643912472      3.48e-02  
Hirshfeld: reading atomic densities from disk.

 Charges (in A.U.) from CM5PAC (Nov. 11, 2011)
 -----------------------------------------------
 Center     Atomic      CM5         Hirshfeld
 Number     Number      Charge      Charge
 -----------------------------------------------
    1          6       -0.184808   -0.222860
    2          6       -0.049369   -0.116680
    3          6       -0.035751   -0.028580
    4          6       -0.184810   -0.222862
    5          6       -0.049370   -0.116681
    6          6       -0.035751   -0.028580
    7          8        0.324476    0.373428
    8          8        0.324476    0.373428
    9         35       -0.141390   -0.161109
   10         35       -0.141390   -0.161109
   11          7       -0.448362    0.010792
   12          7       -0.448362    0.010793
   13          1        0.265248    0.067186
   14          1        0.270185    0.078053
   15          1        0.265248    0.067186
   16          1        0.270186    0.078053
 -----------------------------------------------

 Dipole moment (in Debye)
 -----------------------------------------------
                 X        Y        Z     Total
 -----------------------------------------------
 CM5         -0.0039   0.0006   0.0004   0.0040
 Hirshfeld   -0.0039   0.0005   0.0004   0.0040
 -----------------------------------------------

    2   -5639.2419812432      4.11e-03  
Hirshfeld: reading atomic densities from disk.

 Charges (in A.U.) from CM5PAC (Nov. 11, 2011)
 -----------------------------------------------
 Center     Atomic      CM5         Hirshfeld
 Number     Number      Charge      Charge
 -----------------------------------------------
    1          6        0.194712    0.156660
    2          6        0.183509    0.116198
    3          6       -0.008845   -0.001674
    4          6        0.194712    0.156660
    5          6        0.183509    0.116198
    6          6       -0.008845   -0.001674
    7          8       -0.436155   -0.387204
    8          8       -0.436155   -0.387203
    9         35       -0.063165   -0.082885
   10         35       -0.063165   -0.082884
   11          7       -0.491620   -0.032465
   12          7       -0.491619   -0.032465
   13          1        0.315338    0.117275
   14          1        0.306452    0.114320
   15          1        0.315338    0.117275
   16          1        0.306452    0.114320
 -----------------------------------------------

 Dipole moment (in Debye)
 -----------------------------------------------
                 X        Y        Z     Total
 -----------------------------------------------
 CM5         -0.0034   0.0025   0.0003   0.0042
 Hirshfeld   -0.0034   0.0025   0.0003   0.0042
 -----------------------------------------------

    3   -5638.7990341314      7.55e-03  
Hirshfeld: reading atomic densities from disk.

 Charges (in A.U.) from CM5PAC (Nov. 11, 2011)
 -----------------------------------------------
 Center     Atomic      CM5         Hirshfeld
 Number     Number      Charge      Charge
 -----------------------------------------------
    1          6        0.158949    0.120897
    2          6        0.121694    0.054382
    3          6       -0.092414   -0.085243
    4          6        0.158949    0.120897
    5          6        0.121693    0.054382
    6          6       -0.092414   -0.085243
    7          8       -0.297220   -0.248268
    8          8       -0.297220   -0.248268
    9         35        0.012169   -0.007550
   10         35        0.012170   -0.007550
   11          7       -0.569655   -0.110501
   12          7       -0.569655   -0.110500
   13          1        0.337964    0.139902
   14          1        0.328692    0.136560
   15          1        0.337964    0.139902
   16          1        0.328692    0.136560
 -----------------------------------------------

 Dipole moment (in Debye)
 -----------------------------------------------
                 X        Y        Z     Total
 -----------------------------------------------
 CM5         -0.0028   0.0017   0.0003   0.0032
 Hirshfeld   -0.0028   0.0016   0.0003   0.0032
 -----------------------------------------------

    4   -5639.3904160331      1.66e-03  
Hirshfeld: reading atomic densities from disk.

 Charges (in A.U.) from CM5PAC (Nov. 11, 2011)
 -----------------------------------------------
 Center     Atomic      CM5         Hirshfeld
 Number     Number      Charge      Charge
 -----------------------------------------------
    1          6        0.147075    0.109023
    2          6        0.131254    0.063943
    3          6       -0.069385   -0.062214
    4          6        0.147075    0.109022
    5          6        0.131254    0.063943
    6          6       -0.069385   -0.062214
    7          8       -0.313282   -0.264330
    8          8       -0.313282   -0.264330
    9         35       -0.016041   -0.035760
   10         35       -0.016041   -0.035760
   11          7       -0.539673   -0.080519
   12          7       -0.539673   -0.080519
   13          1        0.334102    0.136040
   14          1        0.326140    0.134008
   15          1        0.334102    0.136040
   16          1        0.326140    0.134008
 -----------------------------------------------

 Dipole moment (in Debye)
 -----------------------------------------------
                 X        Y        Z     Total
 -----------------------------------------------
 CM5         -0.0029   0.0018   0.0003   0.0034
 Hirshfeld   -0.0029   0.0017   0.0003   0.0034
 -----------------------------------------------

    5   -5639.4261922875      4.12e-04  
Hirshfeld: reading atomic densities from disk.

 Charges (in A.U.) from CM5PAC (Nov. 11, 2011)
 -----------------------------------------------
 Center     Atomic      CM5         Hirshfeld
 Number     Number      Charge      Charge
 -----------------------------------------------
    1          6        0.156771    0.118719
    2          6        0.131547    0.064236
    3          6       -0.069550   -0.062379
    4          6        0.156771    0.118719
    5          6        0.131547    0.064236
    6          6       -0.069550   -0.062379
    7          8       -0.312110   -0.263158
    8          8       -0.312110   -0.263158
    9         35       -0.015667   -0.035386
   10         35       -0.015667   -0.035386
   11          7       -0.549568   -0.090414
   12          7       -0.549568   -0.090414
   13          1        0.333607    0.135544
   14          1        0.325159    0.133027
   15          1        0.333607    0.135544
   16          1        0.325160    0.133027
 -----------------------------------------------

 Dipole moment (in Debye)
 -----------------------------------------------
                 X        Y        Z     Total
 -----------------------------------------------
 CM5         -0.0029   0.0018   0.0003   0.0034
 Hirshfeld   -0.0029   0.0018   0.0003   0.0034
 -----------------------------------------------

    6   -5639.4273939073      1.16e-04  
Hirshfeld: reading atomic densities from disk.

 Charges (in A.U.) from CM5PAC (Nov. 11, 2011)
 -----------------------------------------------
 Center     Atomic      CM5         Hirshfeld
 Number     Number      Charge      Charge
 -----------------------------------------------
    1          6        0.154399    0.116347
    2          6        0.131113    0.063802
    3          6       -0.072620   -0.065450
    4          6        0.154399    0.116347
    5          6        0.131113    0.063802
    6          6       -0.072620   -0.065449
    7          8       -0.312763   -0.263811
    8          8       -0.312763   -0.263811
    9         35       -0.012591   -0.032310
   10         35       -0.012591   -0.032310
   11          7       -0.546182   -0.087028
   12          7       -0.546182   -0.087028
   13          1        0.333638    0.135575
   14          1        0.325196    0.133064
   15          1        0.333638    0.135576
   16          1        0.325196    0.133064
 -----------------------------------------------

 Dipole moment (in Debye)
 -----------------------------------------------
                 X        Y        Z     Total
 -----------------------------------------------
 CM5         -0.0029   0.0018   0.0003   0.0034
 Hirshfeld   -0.0029   0.0017   0.0003   0.0034
 -----------------------------------------------

    7   -5639.4279863191      4.70e-05  
Hirshfeld: reading atomic densities from disk.

 Charges (in A.U.) from CM5PAC (Nov. 11, 2011)
 -----------------------------------------------
 Center     Atomic      CM5         Hirshfeld
 Number     Number      Charge      Charge
 -----------------------------------------------
    1          6        0.154369    0.116316
    2          6        0.131013    0.063701
    3          6       -0.071336   -0.064165
    4          6        0.154368    0.116316
    5          6        0.131012    0.063701
    6          6       -0.071336   -0.064165
    7          8       -0.312753   -0.263802
    8          8       -0.312753   -0.263802
    9         35       -0.012823   -0.032542
   10         35       -0.012823   -0.032542
   11          7       -0.547371   -0.088216
   12          7       -0.547370   -0.088216
   13          1        0.333741    0.135678
   14          1        0.325351    0.133219
   15          1        0.333741    0.135679
   16          1        0.325351    0.133219
 -----------------------------------------------

 Dipole moment (in Debye)
 -----------------------------------------------
                 X        Y        Z     Total
 -----------------------------------------------
 CM5         -0.0029   0.0018   0.0003   0.0034
 Hirshfeld   -0.0029   0.0017   0.0003   0.0034
 -----------------------------------------------

    8   -5639.4278957455      1.40e-05  
Hirshfeld: reading atomic densities from disk.

 Charges (in A.U.) from CM5PAC (Nov. 11, 2011)
 -----------------------------------------------
 Center     Atomic      CM5         Hirshfeld
 Number     Number      Charge      Charge
 -----------------------------------------------
    1          6        0.154573    0.116521
    2          6        0.131181    0.063870
    3          6       -0.071752   -0.064581
    4          6        0.154573    0.116520
    5          6        0.131181    0.063870
    6          6       -0.071752   -0.064581
    7          8       -0.312863   -0.263911
    8          8       -0.312863   -0.263911
    9         35       -0.012909   -0.032628
   10         35       -0.012908   -0.032628
   11          7       -0.547067   -0.087912
   12          7       -0.547067   -0.087912
   13          1        0.333714    0.135652
   14          1        0.325312    0.133180
   15          1        0.333714    0.135652
   16          1        0.325312    0.133180
 -----------------------------------------------

 Dipole moment (in Debye)
 -----------------------------------------------
                 X        Y        Z     Total
 -----------------------------------------------
 CM5         -0.0029   0.0018   0.0003   0.0034
 Hirshfeld   -0.0029   0.0017   0.0003   0.0034
 -----------------------------------------------

    9   -5639.4279276006      5.33e-06  
Hirshfeld: reading atomic densities from disk.

 Charges (in A.U.) from CM5PAC (Nov. 11, 2011)
 -----------------------------------------------
 Center     Atomic      CM5         Hirshfeld
 Number     Number      Charge      Charge
 -----------------------------------------------
    1          6        0.154520    0.116467
    2          6        0.131116    0.063805
    3          6       -0.071600   -0.064429
    4          6        0.154519    0.116467
    5          6        0.131116    0.063805
    6          6       -0.071600   -0.064429
    7          8       -0.312911   -0.263959
    8          8       -0.312911   -0.263959
    9         35       -0.012904   -0.032623
   10         35       -0.012903   -0.032623
   11          7       -0.547039   -0.087885
   12          7       -0.547039   -0.087884
   13          1        0.333704    0.135642
   14          1        0.325303    0.133171
   15          1        0.333704    0.135642
   16          1        0.325303    0.133171
 -----------------------------------------------

 Dipole moment (in Debye)
 -----------------------------------------------
                 X        Y        Z     Total
 -----------------------------------------------
 CM5         -0.0029   0.0018   0.0003   0.0034
 Hirshfeld   -0.0029   0.0017   0.0003   0.0034
 -----------------------------------------------

   10   -5639.4279197323      1.92e-06  
Hirshfeld: reading atomic densities from disk.

 Charges (in A.U.) from CM5PAC (Nov. 11, 2011)
 -----------------------------------------------
 Center     Atomic      CM5         Hirshfeld
 Number     Number      Charge      Charge
 -----------------------------------------------
    1          6        0.154506    0.116453
    2          6        0.131156    0.063845
    3          6       -0.071624   -0.064453
    4          6        0.154506    0.116453
    5          6        0.131156    0.063845
    6          6       -0.071624   -0.064453
    7          8       -0.312923   -0.263971
    8          8       -0.312923   -0.263971
    9         35       -0.012897   -0.032617
   10         35       -0.012897   -0.032616
   11          7       -0.547031   -0.087877
   12          7       -0.547031   -0.087876
   13          1        0.333702    0.135639
   14          1        0.325301    0.133169
   15          1        0.333702    0.135640
   16          1        0.325302    0.133169
 -----------------------------------------------

 Dipole moment (in Debye)
 -----------------------------------------------
                 X        Y        Z     Total
 -----------------------------------------------
 CM5         -0.0029   0.0018   0.0003   0.0034
 Hirshfeld   -0.0029   0.0017   0.0003   0.0034
 -----------------------------------------------

   11   -5639.4279197812      5.72e-07  
Hirshfeld: reading atomic densities from disk.

 Charges (in A.U.) from CM5PAC (Nov. 11, 2011)
 -----------------------------------------------
 Center     Atomic      CM5         Hirshfeld
 Number     Number      Charge      Charge
 -----------------------------------------------
    1          6        0.154517    0.116464
    2          6        0.131136    0.063825
    3          6       -0.071622   -0.064451
    4          6        0.154516    0.116464
    5          6        0.131136    0.063825
    6          6       -0.071622   -0.064451
    7          8       -0.312925   -0.263973
    8          8       -0.312925   -0.263973
    9         35       -0.012894   -0.032613
   10         35       -0.012894   -0.032613
   11          7       -0.547023   -0.087868
   12          7       -0.547023   -0.087868
   13          1        0.333701    0.135639
   14          1        0.325301    0.133169
   15          1        0.333701    0.135639
   16          1        0.325301    0.133168
 -----------------------------------------------

 Dipole moment (in Debye)
 -----------------------------------------------
                 X        Y        Z     Total
 -----------------------------------------------
 CM5         -0.0029   0.0018   0.0003   0.0034
 Hirshfeld   -0.0029   0.0017   0.0003   0.0034
 -----------------------------------------------

   12   -5639.4279193782      1.81e-07  
Hirshfeld: reading atomic densities from disk.

 Charges (in A.U.) from CM5PAC (Nov. 11, 2011)
 -----------------------------------------------
 Center     Atomic      CM5         Hirshfeld
 Number     Number      Charge      Charge
 -----------------------------------------------
    1          6        0.154515    0.116462
    2          6        0.131142    0.063830
    3          6       -0.071624   -0.064453
    4          6        0.154514    0.116462
    5          6        0.131141    0.063830
    6          6       -0.071624   -0.064453
    7          8       -0.312926   -0.263974
    8          8       -0.312926   -0.263974
    9         35       -0.012895   -0.032614
   10         35       -0.012895   -0.032614
   11          7       -0.547022   -0.087868
   12          7       -0.547022   -0.087867
   13          1        0.333700    0.135638
   14          1        0.325300    0.133168
   15          1        0.333700    0.135638
   16          1        0.325300    0.133168
 -----------------------------------------------

 Dipole moment (in Debye)
 -----------------------------------------------
                 X        Y        Z     Total
 -----------------------------------------------
 CM5         -0.0029   0.0018   0.0003   0.0034
 Hirshfeld   -0.0029   0.0017   0.0003   0.0034
 -----------------------------------------------

   13   -5639.4279193974      7.25e-08  
Hirshfeld: reading atomic densities from disk.

 Charges (in A.U.) from CM5PAC (Nov. 11, 2011)
 -----------------------------------------------
 Center     Atomic      CM5         Hirshfeld
 Number     Number      Charge      Charge
 -----------------------------------------------
    1          6        0.154515    0.116462
    2          6        0.131141    0.063830
    3          6       -0.071624   -0.064453
    4          6        0.154514    0.116462
    5          6        0.131141    0.063830
    6          6       -0.071624   -0.064453
    7          8       -0.312926   -0.263974
    8          8       -0.312926   -0.263974
    9         35       -0.012895   -0.032614
   10         35       -0.012895   -0.032614
   11          7       -0.547021   -0.087867
   12          7       -0.547021   -0.087867
   13          1        0.333700    0.135638
   14          1        0.325300    0.133168
   15          1        0.333700    0.135638
   16          1        0.325300    0.133168
 -----------------------------------------------

 Dipole moment (in Debye)
 -----------------------------------------------
                 X        Y        Z     Total
 -----------------------------------------------
 CM5         -0.0029   0.0018   0.0003   0.0034
 Hirshfeld   -0.0029   0.0017   0.0003   0.0034
 -----------------------------------------------

   14   -5639.4279193836      1.44e-08  
   15   -5639.4279193683      3.25e-09  Convergence criterion met
 ---------------------------------------
 SCF time:   CPU 1362.24s  wall 171.00s 
(1)  E-EN(liq) elect-nuc energy of solute              -5639.427919368 a.u.
(2)  G-P(liq) polarization free energy of solvation            -5.1155 kcal/mol
(3)  G-ENP(liq) elect-nuc-pol free energy of system    -5639.436071458 a.u.
(4)  G-CDS(liq) cavity-dispersion-solvent structure 
     free energy                                               -6.6215 kcal/mol
(5)  G-P-CDS(liq) = G-P(liq) + G-CDS(liq) = (2) + (4)         -11.7370 kcal/mol
(6)  G-S(liq) free energy of system = (1) + (5)        -5639.446623526 a.u.
 SCF   energy in the final basis set =    -5639.4466235262
 Total energy in the final basis set =    -5639.4466235262
 
 --------------------------------------------------------------
 
                    Orbital Energies (a.u.)
 --------------------------------------------------------------
 
 Alpha MOs
 -- Occupied --
********-482.8417 -62.4945 -62.4945 -56.3150 -56.3150 -56.3110 -56.3110
-56.3110 -56.3110 -19.1326 -19.1326 -14.3660 -14.3660 -10.2911 -10.2911
-10.2709 -10.2709 -10.2355 -10.2355  -8.7033  -8.7033  -6.5350  -6.5350
 -6.5215  -6.5215  -6.5215  -6.5215  -2.6460  -2.6460  -2.6418  -2.6418
 -2.6417  -2.6417  -2.6313  -2.6313  -2.6313  -2.6313  -1.0733  -1.0706
 -0.9694  -0.9681  -0.8618  -0.8331  -0.7908  -0.7351  -0.7059  -0.6408
 -0.6247  -0.6019  -0.5442  -0.5347  -0.5257  -0.4866  -0.4723  -0.4574
 -0.4543  -0.4338  -0.4289  -0.4021  -0.4005  -0.3664  -0.3246  -0.3183
 -0.3085  -0.3084  -0.2974  -0.2869  -0.2605  -0.2305
 -- Virtual --
 -0.1202  -0.0241  -0.0238  -0.0083   0.0036   0.0063   0.0069   0.0280
  0.0284   0.0396   0.0436   0.0557   0.0596   0.0622   0.0753   0.0763
  0.0889   0.0919   0.0926   0.0973   0.0990   0.1139   0.1170   0.1191
  0.1267   0.1284   0.1417   0.1424   0.1490   0.1565   0.1577   0.1598
  0.1735   0.1822   0.1822   0.1827   0.1907   0.2025   0.2081   0.2112
  0.2148   0.2168   0.2199   0.2250   0.2299   0.2312   0.2496   0.2562
  0.2665   0.2734   0.2804   0.2819   0.3022   0.3037   0.3112   0.3113
  0.3125   0.3211   0.3236   0.3293   0.3559   0.3647   0.3925   0.4061
  0.4149   0.4161   0.4256   0.4324   0.4360   0.4363   0.4477   0.4531
  0.4904   0.4949   0.5019   0.5293   0.5389   0.5534   0.5564   0.5572
  0.5623   0.5655   0.5850   0.5878   0.5889   0.6116   0.6219   0.6227
  0.6230   0.6385   0.6860   0.6913   0.7207   0.7294   0.7330   0.7401
  0.7439   0.7520   0.7668   0.8048   0.8154   0.8192   0.8260   0.8365
  0.8369   0.8569   0.8636   0.8693   0.8868   0.8931   0.8965   0.9289
  0.9472   0.9494   0.9970   0.9970   1.0258   1.0470   1.0675   1.0726
  1.0943   1.1175   1.1221   1.1458   1.1560   1.1633   1.1807   1.2161
  1.2242   1.2286   1.2344   1.2388   1.2489   1.2580   1.2853   1.2947
  1.3327   1.4052   1.4489   1.4933   1.5496   1.5575   1.5604   1.5658
  1.6097   1.6533   1.6745   1.6851   1.7070   1.7191   1.7296   1.7609
  1.7650   1.7688   1.7764   1.8247   1.8300   1.8542   1.8564   1.8608
  1.9661   2.0243   2.0353   2.0449   2.0691   2.0845   2.1056   2.1137
  2.1470   2.1610   2.2150   2.2370   2.2655   2.2793   2.3237   2.3318
  2.3996   2.4042   2.4066   2.4089   2.4493   2.4766   2.4841   2.5929
  2.6183   2.6604   2.7092   2.7384   2.7388   2.8045   2.8181   2.8585
  2.8640   2.8824   2.9007   2.9074   2.9293   2.9506   2.9769   3.0006
  3.0122   3.0635   3.0924   3.0961   3.1423   3.2076   3.2566   3.3192
  3.3219   3.3324   3.3479   3.4167   3.5095   3.5176   3.6010   3.6363
  3.6417   3.8085   3.8371   3.8502   3.9457   3.9985   4.0062   4.0435
  4.0688   4.0818   4.0994   4.1020   4.1632   4.2563   4.2868   4.4262
  4.4447   4.6994   4.7529   4.7680   4.9153   5.0245   5.0400   5.0604
  5.2422   5.2642   5.7121   5.7768   6.7461   6.7965   7.5647   7.5790
  7.6804   7.7049   7.7729   7.7743  23.5445  23.6817  23.8598  23.9369
 24.0572  24.0930  35.6204  35.6619  48.0033  48.0436  50.0043  50.0405
289.7610 289.7750 289.8762 289.9046 289.9963 289.99801020.81701020.8673
 --------------------------------------------------------------
 
          Ground-State Mulliken Net Atomic Charges

     Atom                 Charge (a.u.)
  ----------------------------------------
      1 C                    -0.962864
      2 C                     0.083844
      3 C                     0.793536
      4 C                    -0.962852
      5 C                     0.083828
      6 C                     0.793546
      7 O                    -0.318957
      8 O                    -0.318958
      9 Br                   -0.148747
     10 Br                   -0.148745
     11 N                    -0.149768
     12 N                    -0.149771
     13 H                     0.351807
     14 H                     0.351147
     15 H                     0.351807
     16 H                     0.351147
  ----------------------------------------
  Sum of atomic charges =     0.000000

 -----------------------------------------------------------------
                    Cartesian Multipole Moments
 -----------------------------------------------------------------
    Charge (ESU x 10^10)
                 0.0000
    Dipole Moment (Debye)
         X       0.0002      Y       0.0006      Z      -0.0000
       Tot       0.0006
    Quadrupole Moments (Debye-Ang)
        XX     -76.4067     XY      -5.4313     YY     -94.3866
        XZ     -13.1884     YZ       2.7898     ZZ    -107.1425
    Octopole Moments (Debye-Ang^2)
       XXX     379.3709    XXY     -37.3446    XYY     148.3607
       YYY    -204.9903    XXZ      30.8479    XYZ     -15.0765
       YYZ     -11.7819    XZZ     172.9094    YZZ     -76.6261
       ZZZ     -53.8807
    Hexadecapole Moments (Debye-Ang^3)
      XXXX   -3450.0171   XXXY     419.5711   XXYY    -720.5367
      XYYY     616.5327   YYYY    -543.5866   XXXZ    -515.0995
      XXYZ      74.5467   XYYZ    -134.0238   YYYZ      42.0049
      XXZZ    -875.9353   XYZZ     189.7580   YYZZ    -370.9084
      XZZZ    -370.8901   YZZZ      36.8938   ZZZZ   -1804.1099
 -----------------------------------------------------------------
 Total job time:  180.06s(wall), 1368.31s(cpu) 
 Sat Feb  3 10:30:15 2024

        *************************************************************
        *                                                           *
        *  Thank you very much for using Q-Chem.  Have a nice day.  *
        *                                                           *
        *************************************************************


