
Running Job 1 of 1 349-an-CPCM.in
qchem 349-an-CPCM.in_895344.0 /expanse/lustre/scratch/selhajj/temp_project/qcscratch/31258565/qchem895344/ 0
/cm/shared/apps/spack/cpu/opt/spack/linux-centos8-zen2/gcc-10.2.0/qchem-5.4-akfmr7b3t57bfs6qan3padb2wnb2i7cl/exe/qcprog.exe_s 349-an-CPCM.in_895344.0 /expanse/lustre/scratch/selhajj/temp_project/qcscratch/31258565/qchem895344/
                  Welcome to Q-Chem
     A Quantum Leap Into The Future Of Chemistry


 Q-Chem 5.4, Q-Chem, Inc., Pleasanton, CA (2021)

 License issued to: University of California, San Diego (site)

 E. Epifanovsky,  A. T. B. Gilbert,  Xintian Feng,  Joonho Lee,  Yuezhi Mao,  
 N. Mardirossian,  P. Pokhilko,  A. White,  M. Wormit,  M. P. Coons,  
 A. L. Dempwolff,  Zhengting Gan,  D. Hait,  P. R. Horn,  L. D. Jacobson,  
 I. Kaliman,  J. Kussmann,  A. W. Lange,  Ka Un Lao,  D. S. Levine,  Jie Liu,  
 S. C. McKenzie,  A. F. Morrison,  K. Nanda,  F. Plasser,  D. R. Rehn,  
 M. L. Vidal,  Zhi-Qiang You,  Ying Zhu,  B. Alam,  B. Albrecht,  
 A. Aldossary,  E. Alguire,  J. H. Andersen,  D. Barton,  K. Begam,  A. Behn,  
 Y. A. Bernard,  E. J. Berquist,  H. Burton,  A. Carreras,  K. Carter-Fenk,  
 R. Chakraborty,  A. D. Chien,  K. D. Closser,  V. Cofer-Shabica,  
 S. Dasgupta,  Jia Deng,  M. de Wergifosse,  M. Diedenhofen,  Hainam Do,  
 S. Ehlert,  Po-Tung Fang,  S. Fatehi,  Qingguo Feng,  J. Gayvert,  
 Qinghui Ge,  G. Gidofalvi,  M. Goldey,  J. Gomes,  C. Gonzalez-Espinoza,  
 S. Gulania,  A. Gunina,  M. W. D. Hanson-Heine,  P. H. P. Harbach,  
 A. W. Hauser,  M. F. Herbst,  M. Hernandez Vera,  M. Hodecker,  
 Z. C. Holden,  S. Houck,  Xunkun Huang,  Kerwin Hui,  B. C. Huynh,  
 M. Ivanov,  Hyunjun Ji,  Hanjie Jiang,  B. Kaduk,  S. Kaehler,  
 K. Khistyaev,  Jaehoon Kim,  P. Klunzinger,  Z. Koczor-Benda,  
 Joong Hoon Koh,  D. Kosenkov,  L. Koulias,  T. Kowalczyk,  C. M. Krauter,  
 K. Kue,  A. Kunitsa,  T. Kus,  A. Landau,  K. V. Lawler,  D. Lefrancois,  
 S. Lehtola,  Rain Li,  Yi-Pei Li,  Jiashu Liang,  M. Liebenthal,  
 Hung-Hsuan Lin,  You-Sheng Lin,  Fenglai Liu,  Kuan-Yu Liu,  
 M. Loipersberger,  A. Luenser,  A. Manjanath,  P. Manohar,  E. Mansoor,  
 S. F. Manzer,  Shan-Ping Mao,  A. V. Marenich,  T. Markovich,  S. Mason,  
 S. A. Maurer,  P. F. McLaughlin,  M. F. S. J. Menger,  J.-M. Mewes,  
 S. A. Mewes,  P. Morgante,  J. W. Mullinax,  T. S. Nguyen-Beck,  
 K. J. Oosterbaan,  G. Paran,  Alexander C. Paul,  Suranjan K. Paul,  
 F. Pavosevic,  Zheng Pei,  S. Prager,  E. I. Proynov,  E. Ramos,  B. Rana,  
 A. E. Rask,  A. Rettig,  R. M. Richard,  F. Rob,  E. Rossomme,  T. Scheele,  
 M. Scheurer,  M. Schneider,  N. Sergueev,  S. M. Sharada,  W. Skomorowski,  
 D. W. Small,  C. J. Stein,  Yu-Chuan Su,  E. J. Sundstrom,  Zhen Tao,  
 J. Thirman,  T. Tsuchimochi,  N. M. Tubman,  S. P. Veccham,  O. Vydrov,  
 J. Wenzel,  J. Witte,  A. Yamada,  Kun Yao,  S. Yeganeh,  S. R. Yost,  
 A. Zech,  Igor Ying Zhang,  Xing Zhang,  Yu Zhang,  D. Zuev,  
 A. Aspuru-Guzik,  A. T. Bell,  N. A. Besley,  K. B. Bravaya,  B. R. Brooks,  
 D. Casanova,  Jeng-Da Chai,  S. Coriani,  C. J. Cramer,  
 A. E. DePrince, III,  R. A. DiStasio Jr.,  A. Dreuw,  B. D. Dunietz,  
 T. R. Furlani,  W. A. Goddard III,  S. Grimme,  S. Hammes-Schiffer,  
 T. Head-Gordon,  W. J. Hehre,  Chao-Ping Hsu,  T.-C. Jagau,  Yousung Jung,  
 A. Klamt,  Jing Kong,  D. S. Lambrecht,  WanZhen Liang,  N. J. Mayhall,  
 C. W. McCurdy,  J. B. Neaton,  C. Ochsenfeld,  J. A. Parkhill,  R. Peverati,  
 V. A. Rassolov,  Yihan Shao,  L. V. Slipchenko,  T. Stauch,  R. P. Steele,  
 J. E. Subotnik,  A. J. W. Thom,  A. Tkatchenko,  D. G. Truhlar,  
 T. Van Voorhis,  T. A. Wesolowski,  K. B. Whaley,  H. L. Woodcock III,  
 P. M. Zimmerman,  S. Faraji,  P. M. W. Gill,  M. Head-Gordon,  
 J. M. Herbert,  A. I. Krylov

 Contributors to earlier versions of Q-Chem not listed above: 
 R. D. Adamson,  B. Austin,  R. Baer,  J. Baker,  G. J. O. Beran,  
 K. Brandhorst,  S. T. Brown,  E. F. C. Byrd,  A. K. Chakraborty,  
 G. K. L. Chan,  Chun-Min Chang,  Yunqing Chen,  C.-L. Cheng,  
 Siu Hung Chien,  D. M. Chipman,  D. L. Crittenden,  H. Dachsel,  
 R. J. Doerksen,  A. D. Dutoi,  R. G. Edgar,  J. Fosso-Tande,  
 L. Fusti-Molnar,  D. Ghosh,  A. Ghysels,  A. Golubeva-Zadorozhnaya,  
 J. Gonthier,  M. S. Gordon,  S. R. Gwaltney,  G. Hawkins,  J. E. Herr,  
 A. Heyden,  S. Hirata,  E. G. Hohenstein,  G. Kedziora,  F. J. Keil,  
 C. Kelley,  Jihan Kim,  R. A. King,  R. Z. Khaliullin,  P. P. Korambath,  
 W. Kurlancheek,  A. Laurent,  A. M. Lee,  M. S. Lee,  S. V. Levchenko,  
 Ching Yeh Lin,  D. Liotard,  E. Livshits,  R. C. Lochan,  I. Lotan,  
 L. A. Martinez-Martinez,  P. E. Maslen,  N. Nair,  D. P. O'Neill,  
 D. Neuhauser,  E. Neuscamman,  C. M. Oana,  R. Olivares-Amaya,  R. Olson,  
 T. M. Perrine,  B. Peters,  P. A. Pieniazek,  A. Prociuk,  Y. M. Rhee,  
 J. Ritchie,  M. A. Rohrdanz,  E. Rosta,  N. J. Russ,  H. F. Schaefer III,  
 M. W. Schmidt,  N. E. Schultz,  S. Sharma,  N. Shenvi,  C. D. Sherrill,  
 A. C. Simmonett,  A. Sodt,  T. Stein,  D. Stuck,  K. S. Thanthiriwatte,  
 V. Vanovschi,  L. Vogt,  Tao Wang,  A. Warshel,  M. A. Watson,  
 C. F. Williams,  Q. Wu,  X. Xu,  Jun Yang,  W. Zhang,  Yan Zhao

 Please cite Q-Chem as follows:
 Y. Shao et al., Mol. Phys. 113, 184-215 (2015)
 DOI: 10.1080/00268976.2014.952696

 Q-Chem 5.4.0 for Intel X86 EM64T Linux

 Parts of Q-Chem use Armadillo 9.800.1 (Horizon Scraper).
 http://arma.sourceforge.net/

 Q-Chem begins on Wed Jun 12 03:15:38 2024  

 Host: 
0

     Scratch files written to /expanse/lustre/scratch/selhajj/temp_project/qcscratch/31258565/qchem895344//
 May1621 |scratch|qcdevops|jenkins|workspace|build_RNUM    
 Processing $rem in /cm/shared/apps/spack/cpu/opt/spack/linux-centos8-zen2/gcc-10.2.0/qchem-5.4-akfmr7b3t57bfs6qan3padb2wnb2i7cl/config/preferences:
 Processing $rem in /home/selhajj/.qchemrc:
 Symmetry turned off for PCM/SM12/SMD calculation

 Checking the input file for inconsistencies... 	...done.

--------------------------------------------------------------
User input:
--------------------------------------------------------------
$molecule
-2 1
C                 -3.6299360000      0.1992280000      0.8407020000
C                 -3.6585520000     -0.1736490000     -0.4977660000
C                 -2.4414620000     -0.3646650000     -1.1931290000
C                 -1.1808610000     -0.1915480000     -0.5814160000
N                 -0.0298940000     -0.3860980000     -1.2887150000
C                  1.1512380000     -0.1996120000     -0.6286890000
C                  2.3836170000     -0.3815610000     -1.2916780000
C                  3.6300360000     -0.1992740000     -0.6470030000
C                  3.6584170000      0.1736740000      0.6915320000
C                  2.4414410000      0.3646680000      1.3868130000
C                  1.1808310000      0.1915210000      0.7750850000
N                  0.0298660000      0.3860930000      1.4824630000
C                 -1.1512450000      0.1996040000      0.8224340000
C                 -2.3836770000      0.3815510000      1.4855060000
H                 -4.5557910000      0.3516580000      1.3950280000
H                 -4.6070810000     -0.3196140000     -1.0141010000
H                 -2.4434900000     -0.6569870000     -2.2420920000
H                  2.3413530000     -0.6737240000     -2.3397650000
H                  4.5559330000     -0.3516240000     -1.2010990000
H                  4.6069370000      0.3196580000      1.2079950000
H                  2.4435360000      0.6570050000      2.4357870000
H                 -2.3412140000      0.6736960000      2.5335620000
$end
$rem
MAX_SCF_CYCLES=200
BASIS  =  6-311++G(d,p)
GUI  =  2
JOB_TYPE  =  SP
METHOD  =  B3LYP
SOLVENT_METHOD = PCM
$end
$pcm
theory = CPCM
$end
$solvent
dielectric 37.219
opticaldielectric 1.43
$end






--------------------------------------------------------------
 ----------------------------------------------------------------
             Standard Nuclear Orientation (Angstroms)
    I     Atom           X                Y                Z
 ----------------------------------------------------------------
    1      C      -3.6299360000     0.1992280000     0.8407020000
    2      C      -3.6585520000    -0.1736490000    -0.4977660000
    3      C      -2.4414620000    -0.3646650000    -1.1931290000
    4      C      -1.1808610000    -0.1915480000    -0.5814160000
    5      N      -0.0298940000    -0.3860980000    -1.2887150000
    6      C       1.1512380000    -0.1996120000    -0.6286890000
    7      C       2.3836170000    -0.3815610000    -1.2916780000
    8      C       3.6300360000    -0.1992740000    -0.6470030000
    9      C       3.6584170000     0.1736740000     0.6915320000
   10      C       2.4414410000     0.3646680000     1.3868130000
   11      C       1.1808310000     0.1915210000     0.7750850000
   12      N       0.0298660000     0.3860930000     1.4824630000
   13      C      -1.1512450000     0.1996040000     0.8224340000
   14      C      -2.3836770000     0.3815510000     1.4855060000
   15      H      -4.5557910000     0.3516580000     1.3950280000
   16      H      -4.6070810000    -0.3196140000    -1.0141010000
   17      H      -2.4434900000    -0.6569870000    -2.2420920000
   18      H       2.3413530000    -0.6737240000    -2.3397650000
   19      H       4.5559330000    -0.3516240000    -1.2010990000
   20      H       4.6069370000     0.3196580000     1.2079950000
   21      H       2.4435360000     0.6570050000     2.4357870000
   22      H      -2.3412140000     0.6736960000     2.5335620000
 ----------------------------------------------------------------
 Nuclear Repulsion Energy =         772.21893972 hartrees
 There are       48 alpha and       48 beta electrons
 Requested basis set is 6-311++G(d,p)
 There are 124 shells and 364 basis functions

 Total QAlloc Memory Limit   8000 MB
 Mega-Array Size       188 MB
 MEM_STATIC part       192 MB
 Discretize the solute cavity surface with Lebedev spheres
	Using 110 Lebedev grid points for each H atom
	Using 194 Lebedev grid points for other atoms
	Atomic van der Waals radii will be scaled by 1.20
 Remove points where switching function is < 1.0e-08
 Keep 1552 surface tesserae and discard 2044 interior tesserae
 Molecular Surface Area = 215.051 Angst**2
 A cutoff of  1.0D-08 yielded   5746 shell pairs
 There are     52087 function pairs (     55936 Cartesian)
 Smallest overlap matrix eigenvalue = 8.42E-08

 Q-Chem warning in module stvman/mkSTV.C, line 323:

 Overlap eigenvalue is smaller than square root of threshold
 Use THRESH >= 12 to get rid of this warning

 Linear dependence detected in AO basis
 Tighter screening thresholds may be required for diffuse basis sets
 Use S2THRESH > 14 and THRESH = 14 in case of SCF convergence issues
 Number of orthogonalized atomic orbitals = 361
 Maximum deviation from orthogonality = 1.273E-10

 Scale SEOQF with 1.000000e-01/1.000000e-01/1.000000e-01

 Standard Electronic Orientation quadrupole field applied
 Nucleus-field energy     =     0.0000000089 hartrees
 Guess from superposition of atomic densities
 Warning:  Energy on first SCF cycle will be non-variational
 SAD guess density has 94.000000 electrons

 -----------------------------------------------------------------------
  General SCF calculation program by
  Eric Jon Sundstrom, Paul Horn, Yuezhi Mao, Dmitri Zuev, Alec White,
  David Stuck, Shaama M.S., Shane Yost, Joonho Lee, David Small,
  Daniel Levine, Susi Lehtola, Hugh Burton, Evgeny Epifanovsky,
  Bang C. Huynh
 -----------------------------------------------------------------------
 Exchange:     0.2000 Hartree-Fock + 0.0800 Slater + 0.7200 B88
 Correlation:  0.1900 VWN1RPA + 0.8100 LYP
 Using SG-1 standard quadrature grid
 using 8 threads for integral computing
 -------------------------------------------------------
 OpenMP Integral computing Module                
 Release: version 1.0, May 2013, Q-Chem Inc. Pittsburgh 
 -------------------------------------------------------
 A restricted SCF calculation will be
 performed using DIIS
 SCF converges when DIIS error is below 1.0e-05
 ---------------------------------------
  Cycle       Energy         DIIS error
 ---------------------------------------
    1    -575.0778855845      3.46e-02  
    2    -571.5938630820      4.34e-03  
    3    -571.0264762148      6.29e-03  
    4    -571.9137982105      1.56e-03  
    5    -571.9469938909      6.59e-04  
    6    -571.9547554115      1.23e-04  
    7    -571.9550210935      6.05e-05  
    8    -571.9550795137      1.16e-05  
    9    -571.9550808847      1.56e-06  Convergence criterion met
 ---------------------------------------
 SCF time:   CPU 183.69s  wall 23.00s 

************** Final PCM Free Energy Summary **************
 G_electrostatic  =      -0.28940838 hartree =    -181.60649911 kcal/mol
 G_cavitation     =       0.00000000 hartree =       0.00000000 kcal/mol
 G_dispersion     =       0.00000000 hartree =       0.00000000 kcal/mol
 G_repulsion      =       0.00000000 hartree =       0.00000000 kcal/mol
 --------------------------------------------------
 Non-electrostatic Free Energy =       0.00000000 hartree =       0.00000000 kcal/mol
 Total                         =      -0.28940838 hartree =    -181.60649911 kcal/mol
 --------------------------------------------------
 SCF Energy (H0 + V/2)                       =    -571.95508088 
 Solute Internal Energy (H0)                 =    -571.66567251 
 Total Free Energy (H0 + V/2 + non-elec)     =    -571.95508088 hartree
                                             = -358907.23024169 kcal/mol
***********************************************************

 SCF   energy in the final basis set =     -571.9550808847
 Total energy in the final basis set =     -571.9550808847
 
 --------------------------------------------------------------
 
                    Orbital Energies (a.u.)
 --------------------------------------------------------------
 
 Alpha MOs
 -- Occupied --
-14.2325 -14.2324 -10.1638 -10.1638 -10.1634 -10.1634 -10.1333 -10.1333
-10.1327 -10.1327 -10.1232 -10.1232 -10.1232 -10.1232  -0.9030  -0.8331
 -0.8083  -0.7792  -0.7082  -0.7062  -0.6780  -0.6357  -0.5837  -0.5569
 -0.5496  -0.5152  -0.4949  -0.4462  -0.4397  -0.4291  -0.4144  -0.3897
 -0.3818  -0.3799  -0.3772  -0.3434  -0.3326  -0.3290  -0.3135  -0.3086
 -0.2907  -0.2807  -0.2497  -0.2203  -0.2166  -0.1958  -0.1738  -0.0924
 -- Virtual --
  0.0048   0.0097   0.0130   0.0174   0.0207   0.0283   0.0298   0.0353
  0.0485   0.0490   0.0500   0.0612   0.0695   0.0696   0.0733   0.0734
  0.0819   0.0976   0.1000   0.1038   0.1048   0.1212   0.1214   0.1238
  0.1283   0.1314   0.1365   0.1379   0.1408   0.1409   0.1421   0.1453
  0.1456   0.1490   0.1611   0.1618   0.1661   0.1748   0.1767   0.1814
  0.1891   0.1911   0.1968   0.2012   0.2080   0.2190   0.2212   0.2264
  0.2315   0.2340   0.2446   0.2457   0.2460   0.2604   0.2615   0.2646
  0.2734   0.2747   0.2827   0.2929   0.2964   0.2971   0.3053   0.3054
  0.3062   0.3137   0.3223   0.3231   0.3308   0.3320   0.3358   0.3367
  0.3441   0.3522   0.3574   0.3609   0.3663   0.3862   0.3871   0.3963
  0.4104   0.4134   0.4184   0.4262   0.4670   0.4926   0.5064   0.5186
  0.5465   0.5634   0.5660   0.5673   0.5783   0.5832   0.5858   0.5990
  0.6014   0.6076   0.6183   0.6190   0.6221   0.6244   0.6293   0.6294
  0.6397   0.6517   0.6665   0.6792   0.6973   0.7016   0.7257   0.7523
  0.7558   0.7587   0.7615   0.7686   0.7837   0.7936   0.8138   0.8245
  0.8304   0.8353   0.8399   0.8604   0.8707   0.8816   0.8846   0.8883
  0.8969   0.9031   0.9053   0.9153   0.9202   0.9351   0.9462   0.9872
  0.9882   1.0005   1.0063   1.0159   1.0173   1.0230   1.0353   1.0397
  1.0522   1.0553   1.0602   1.0608   1.0681   1.0811   1.1072   1.1079
  1.1266   1.1394   1.1509   1.1526   1.1752   1.2180   1.2218   1.2367
  1.2588   1.3279   1.3412   1.3618   1.3890   1.4765   1.4828   1.5053
  1.5467   1.5509   1.5549   1.5928   1.5946   1.5966   1.6005   1.6017
  1.6084   1.6177   1.6400   1.6534   1.6538   1.6764   1.6848   1.6973
  1.7300   1.7390   1.7434   1.7646   1.7697   1.7707   1.7718   1.8504
  1.8564   1.8716   1.8802   1.8873   1.9005   1.9252   1.9342   1.9456
  1.9531   1.9626   1.9856   1.9879   1.9936   2.0125   2.0151   2.0455
  2.0468   2.0482   2.0614   2.0657   2.0846   2.1257   2.2060   2.2187
  2.2457   2.2784   2.3195   2.3268   2.3503   2.3558   2.3780   2.4135
  2.4147   2.4629   2.4837   2.4911   2.5041   2.5092   2.5584   2.5690
  2.5720   2.6491   2.7063   2.7080   2.7259   2.7333   2.7336   2.7370
  2.7457   2.7514   2.7646   2.7731   2.7758   2.7809   2.8067   2.8263
  2.8371   2.8429   2.8455   2.8504   2.8616   2.8705   2.8764   2.8774
  2.8856   2.9138   2.9726   2.9739   2.9906   3.0171   3.0780   3.1006
  3.1128   3.1204   3.1643   3.2034   3.3198   3.3275   3.3862   3.3920
  3.4341   3.4802   3.4988   3.5119   3.5786   3.5823   3.5865   3.5883
  3.6312   3.9435   3.9567   3.9782   3.9840   4.0053   4.0733   4.0821
  4.0863   4.1538   4.1726   4.1932   4.2149   4.4674   4.5964   4.8449
  4.8727   5.1048   5.4665  23.6380  23.7596  23.9543  23.9707  23.9868
 24.0060  24.0779  24.0820  24.0884  24.0941  24.1949  24.1979  35.6809
 35.8431
 --------------------------------------------------------------
 
          Ground-State Mulliken Net Atomic Charges

     Atom                 Charge (a.u.)
  ----------------------------------------
      1 C                    -0.364476
      2 C                    -0.363805
      3 C                    -0.327872
      4 C                     0.107967
      5 N                    -0.392225
      6 C                     0.111320
      7 C                    -0.330955
      8 C                    -0.363938
      9 C                    -0.363439
     10 C                    -0.328274
     11 C                     0.107392
     12 N                    -0.392216
     13 C                     0.111441
     14 C                    -0.330520
     15 H                     0.150345
     16 H                     0.150377
     17 H                     0.129504
     18 H                     0.129519
     19 H                     0.150403
     20 H                     0.150396
     21 H                     0.129526
     22 H                     0.129529
  ----------------------------------------
  Sum of atomic charges =    -2.000000

 -----------------------------------------------------------------
                    Cartesian Multipole Moments
 -----------------------------------------------------------------
    Charge (ESU x 10^10)
                -9.6064
    Dipole Moment (Debye)
         X       0.0019      Y       0.0002      Z      -0.9299
       Tot       0.9299
    Quadrupole Moments (Debye-Ang)
        XX    -129.6831     XY       0.0419     YY     -98.6299
        XZ       0.3935     YZ      -3.4233     ZZ    -109.9682
    Octopole Moments (Debye-Ang^2)
       XXX       0.0326    XXY       0.0003    XYY       0.0036
       YYY       0.0022    XXZ     -12.5634    XYZ       0.0045
       YYZ      -9.5529    XZZ       0.0822    YZZ      -0.6617
       ZZZ     -31.9342
    Hexadecapole Moments (Debye-Ang^3)
      XXXX   -3749.3857   XXXY       5.5625   XXYY    -692.3733
      XYYY       4.4168   YYYY    -196.7553   XXXZ      32.9983
      XXYZ      -6.2451   XYYZ      10.1147   YYYZ    -106.9277
      XXZZ    -713.6794   XYZZ       0.1378   YYZZ    -182.2703
      XZZZ      25.5489   YZZZ     -96.1415   ZZZZ    -874.6664
 -----------------------------------------------------------------
 Total job time:  33.41s(wall), 190.83s(cpu) 
 Wed Jun 12 03:16:11 2024

        *************************************************************
        *                                                           *
        *  Thank you very much for using Q-Chem.  Have a nice day.  *
        *                                                           *
        *************************************************************


