 Entering Gaussian System, Link 0=g16
 Input=201-rad.com
 Output=201-rad.log
 Initial command:
 /sysapps/ubuntu-applications/gaussian/Gaussian/AVX2/g16/l1.exe "/scratch/selhajj1/4407320/Gau-3734281.inp" -scrdir="/scratch/selhajj1/4407320/"
 Entering Link 1 = /sysapps/ubuntu-applications/gaussian/Gaussian/AVX2/g16/l1.exe PID=   3734283.
  
 Copyright (c) 1988,1990,1992,1993,1995,1998,2003,2009,2016,
            Gaussian, Inc.  All Rights Reserved.
  
 This is part of the Gaussian(R) 16 program.  It is based on
 the Gaussian(R) 09 system (copyright 2009, Gaussian, Inc.),
 the Gaussian(R) 03 system (copyright 2003, Gaussian, Inc.),
 the Gaussian(R) 98 system (copyright 1998, Gaussian, Inc.),
 the Gaussian(R) 94 system (copyright 1995, Gaussian, Inc.),
 the Gaussian 92(TM) system (copyright 1992, Gaussian, Inc.),
 the Gaussian 90(TM) system (copyright 1990, Gaussian, Inc.),
 the Gaussian 88(TM) system (copyright 1988, Gaussian, Inc.),
 the Gaussian 86(TM) system (copyright 1986, Carnegie Mellon
 University), and the Gaussian 82(TM) system (copyright 1983,
 Carnegie Mellon University). Gaussian is a federally registered
 trademark of Gaussian, Inc.
  
 This software contains proprietary and confidential information,
 including trade secrets, belonging to Gaussian, Inc.
  
 This software is provided under written license and may be
 used, copied, transmitted, or stored only in accord with that
 written license.
  
 The following legend is applicable only to US Government
 contracts under FAR:
  
                    RESTRICTED RIGHTS LEGEND
  
 Use, reproduction and disclosure by the US Government is
 subject to restrictions as set forth in subparagraphs (a)
 and (c) of the Commercial Computer Software - Restricted
 Rights clause in FAR 52.227-19.
  
 Gaussian, Inc.
 340 Quinnipiac St., Bldg. 40, Wallingford CT 06492
  
  
 ---------------------------------------------------------------
 Warning -- This program may not be used in any manner that
 competes with the business of Gaussian, Inc. or will provide
 assistance to any competitor of Gaussian, Inc.  The licensee
 of this program is prohibited from giving any competitor of
 Gaussian, Inc. access to this program.  By using this program,
 the user acknowledges that Gaussian, Inc. is engaged in the
 business of creating and licensing software in the field of
 computational chemistry and represents and warrants to the
 licensee that it is not a competitor of Gaussian, Inc. and that
 it will not use this program in any manner prohibited above.
 ---------------------------------------------------------------
  

 Cite this work as:
 Gaussian 16, Revision A.03,
 M. J. Frisch, G. W. Trucks, H. B. Schlegel, G. E. Scuseria, 
 M. A. Robb, J. R. Cheeseman, G. Scalmani, V. Barone, 
 G. A. Petersson, H. Nakatsuji, X. Li, M. Caricato, A. V. Marenich, 
 J. Bloino, B. G. Janesko, R. Gomperts, B. Mennucci, H. P. Hratchian, 
 J. V. Ortiz, A. F. Izmaylov, J. L. Sonnenberg, D. Williams-Young, 
 F. Ding, F. Lipparini, F. Egidi, J. Goings, B. Peng, A. Petrone, 
 T. Henderson, D. Ranasinghe, V. G. Zakrzewski, J. Gao, N. Rega, 
 G. Zheng, W. Liang, M. Hada, M. Ehara, K. Toyota, R. Fukuda, 
 J. Hasegawa, M. Ishida, T. Nakajima, Y. Honda, O. Kitao, H. Nakai, 
 T. Vreven, K. Throssell, J. A. Montgomery, Jr., J. E. Peralta, 
 F. Ogliaro, M. J. Bearpark, J. J. Heyd, E. N. Brothers, K. N. Kudin, 
 V. N. Staroverov, T. A. Keith, R. Kobayashi, J. Normand, 
 K. Raghavachari, A. P. Rendell, J. C. Burant, S. S. Iyengar, 
 J. Tomasi, M. Cossi, J. M. Millam, M. Klene, C. Adamo, R. Cammi, 
 J. W. Ochterski, R. L. Martin, K. Morokuma, O. Farkas, 
 J. B. Foresman, and D. J. Fox, Gaussian, Inc., Wallingford CT, 2016.
 
 ******************************************
 Gaussian 16:  ES64L-G16RevA.03 25-Dec-2016
                10-Feb-2024 
 ******************************************
 %chk=201-rad.chk
 %nproc=8
 Will use up to    8 processors via shared memory.
 %mem=30GB
 ----------------------------------------------------------------------
 #P UB3LYP/6-311++G(d,p) nosym opt freq SCRF=(PCM,Solvent=n,n-DiMethylF
 ormamide)
 ----------------------------------------------------------------------
 1/18=20,19=15,26=3,38=1/1,3;
 2/9=110,12=2,15=1,17=6,18=5,40=1/2;
 3/5=4,6=6,7=1111,11=2,25=1,30=1,70=2201,71=1,72=148,74=-5,116=2/1,2,3;
 4//1;
 5/5=2,38=5,53=148/2;
 6/7=2,8=2,9=2,10=2,28=1/1;
 7/30=1/1,2,3,16;
 1/18=20,19=15,26=3/3(2);
 2/9=110,15=1/2;
 99//99;
 2/9=110,15=1/2;
 3/5=4,6=6,7=1111,11=2,25=1,30=1,70=2205,71=1,72=148,74=-5,116=2/1,2,3;
 4/5=5,16=3,69=1/1;
 5/5=2,38=5,53=148/2;
 7/30=1/1,2,3,16;
 1/18=20,19=15,26=3/3(-5);
 2/9=110,15=1/2;
 6/7=2,8=2,9=2,10=2,19=2,28=1/1;
 99/9=1/99;
 Leave Link    1 at Sat Feb 10 21:58:21 2024, MaxMem=  4026531840 cpu:               0.7 elap:               0.1
 (Enter /sysapps/ubuntu-applications/gaussian/Gaussian/AVX2/g16/l101.exe)
 -------
 Radical
 -------
 Symbolic Z-matrix:
 Charge = -1 Multiplicity = 2
 O                    -2.73791   2.5094   -0.45406 
 C                    -2.6604    1.1802   -0.22065 
 C                    -3.83499   0.45033  -0.09888 
 C                    -3.78331  -0.93131   0.14354 
 C                    -2.56959  -1.58482   0.26447 
 C                    -1.3632   -0.87179   0.14586 
 C                    -0.0904   -1.60991   0.28195 
 O                    -0.10558  -2.83612   0.49668 
 C                     1.14963  -0.82876   0.15137 
 C                     2.42905  -1.43278   0.2639 
 O                     2.53979  -2.78322   0.5013 
 C                     3.58308  -0.67089   0.13622 
 C                     3.52831   0.70658  -0.10565 
 C                     2.30464   1.3424   -0.22346 
 O                     2.29128   2.67628  -0.45756 
 C                     1.09333   0.58981  -0.09766 
 C                    -0.16873   1.27397  -0.22408 
 O                    -0.21106   2.55976  -0.44974 
 C                    -1.392     0.52684  -0.09946 
 H                    -1.78977   2.82397  -0.50425 
 H                    -4.77985   0.9735   -0.19553 
 H                    -4.71086  -1.4886    0.23632 
 H                    -2.50936  -2.64929   0.4513 
 H                     3.48061  -2.98517   0.5415 
 H                     4.5509   -1.16008   0.22697 
 H                     4.43363   1.29425  -0.20408 
 H                     1.32275   2.92546  -0.50631 
 
 ITRead=  0  0  0  0  0  0  0  0  0  0  0  0  0  0  0  0  0  0  0  0
 ITRead=  0  0  0  0  0  0  0
 MicOpt= -1 -1 -1 -1 -1 -1 -1 -1 -1 -1 -1 -1 -1 -1 -1 -1 -1 -1 -1 -1
 MicOpt= -1 -1 -1 -1 -1 -1 -1
 NAtoms=     27 NQM=       27 NQMF=       0 NMMI=      0 NMMIF=      0
                NMic=       0 NMicF=      0.
                    Isotopes and Nuclear Properties:
 (Nuclear quadrupole moments (NQMom) in fm**2, nuclear magnetic moments (NMagM)
  in nuclear magnetons)

  Atom         1           2           3           4           5           6           7           8           9          10
 IAtWgt=          16          12          12          12          12          12          12          16          12          12
 AtmWgt=  15.9949146  12.0000000  12.0000000  12.0000000  12.0000000  12.0000000  12.0000000  15.9949146  12.0000000  12.0000000
 NucSpn=           0           0           0           0           0           0           0           0           0           0
 AtZEff=  -0.0000000  -0.0000000  -0.0000000  -0.0000000  -0.0000000  -0.0000000  -0.0000000  -0.0000000  -0.0000000  -0.0000000
 NQMom=    0.0000000   0.0000000   0.0000000   0.0000000   0.0000000   0.0000000   0.0000000   0.0000000   0.0000000   0.0000000
 NMagM=    0.0000000   0.0000000   0.0000000   0.0000000   0.0000000   0.0000000   0.0000000   0.0000000   0.0000000   0.0000000
 AtZNuc=   8.0000000   6.0000000   6.0000000   6.0000000   6.0000000   6.0000000   6.0000000   8.0000000   6.0000000   6.0000000

  Atom        11          12          13          14          15          16          17          18          19          20
 IAtWgt=          16          12          12          12          16          12          12          16          12           1
 AtmWgt=  15.9949146  12.0000000  12.0000000  12.0000000  15.9949146  12.0000000  12.0000000  15.9949146  12.0000000   1.0078250
 NucSpn=           0           0           0           0           0           0           0           0           0           1
 AtZEff=  -0.0000000  -0.0000000  -0.0000000  -0.0000000  -0.0000000  -0.0000000  -0.0000000  -0.0000000  -0.0000000  -0.0000000
 NQMom=    0.0000000   0.0000000   0.0000000   0.0000000   0.0000000   0.0000000   0.0000000   0.0000000   0.0000000   0.0000000
 NMagM=    0.0000000   0.0000000   0.0000000   0.0000000   0.0000000   0.0000000   0.0000000   0.0000000   0.0000000   2.7928460
 AtZNuc=   8.0000000   6.0000000   6.0000000   6.0000000   8.0000000   6.0000000   6.0000000   8.0000000   6.0000000   1.0000000

  Atom        21          22          23          24          25          26          27
 IAtWgt=           1           1           1           1           1           1           1
 AtmWgt=   1.0078250   1.0078250   1.0078250   1.0078250   1.0078250   1.0078250   1.0078250
 NucSpn=           1           1           1           1           1           1           1
 AtZEff=  -0.0000000  -0.0000000  -0.0000000  -0.0000000  -0.0000000  -0.0000000  -0.0000000
 NQMom=    0.0000000   0.0000000   0.0000000   0.0000000   0.0000000   0.0000000   0.0000000
 NMagM=    2.7928460   2.7928460   2.7928460   2.7928460   2.7928460   2.7928460   2.7928460
 AtZNuc=   1.0000000   1.0000000   1.0000000   1.0000000   1.0000000   1.0000000   1.0000000
 Leave Link  101 at Sat Feb 10 21:58:21 2024, MaxMem=  4026531840 cpu:               3.1 elap:               0.4
 (Enter /sysapps/ubuntu-applications/gaussian/Gaussian/AVX2/g16/l103.exe)

 GradGradGradGradGradGradGradGradGradGradGradGradGradGradGradGradGradGrad
 Berny optimization.
 Initialization pass.
                           ----------------------------
                           !    Initial Parameters    !
                           ! (Angstroms and Degrees)  !
 --------------------------                            --------------------------
 ! Name  Definition              Value          Derivative Info.                !
 --------------------------------------------------------------------------------
 ! R1    R(1,2)                  1.3518         estimate D2E/DX2                !
 ! R2    R(1,20)                 1.0002         estimate D2E/DX2                !
 ! R3    R(2,3)                  1.3882         estimate D2E/DX2                !
 ! R4    R(2,19)                 1.4319         estimate D2E/DX2                !
 ! R5    R(3,4)                  1.4037         estimate D2E/DX2                !
 ! R6    R(3,21)                 1.0843         estimate D2E/DX2                !
 ! R7    R(4,5)                  1.3838         estimate D2E/DX2                !
 ! R8    R(4,22)                 1.0861         estimate D2E/DX2                !
 ! R9    R(5,6)                  1.4064         estimate D2E/DX2                !
 ! R10   R(5,23)                 1.0824         estimate D2E/DX2                !
 ! R11   R(6,7)                  1.4776         estimate D2E/DX2                !
 ! R12   R(6,19)                 1.4203         estimate D2E/DX2                !
 ! R13   R(7,8)                  1.245          estimate D2E/DX2                !
 ! R14   R(7,9)                  1.4714         estimate D2E/DX2                !
 ! R15   R(9,10)                 1.4193         estimate D2E/DX2                !
 ! R16   R(9,16)                 1.4414         estimate D2E/DX2                !
 ! R17   R(10,11)                1.3756         estimate D2E/DX2                !
 ! R18   R(10,12)                1.3887         estimate D2E/DX2                !
 ! R19   R(11,24)                0.9631         estimate D2E/DX2                !
 ! R20   R(12,13)                1.3996         estimate D2E/DX2                !
 ! R21   R(12,25)                1.0882         estimate D2E/DX2                !
 ! R22   R(13,14)                1.384          estimate D2E/DX2                !
 ! R23   R(13,26)                1.0838         estimate D2E/DX2                !
 ! R24   R(14,15)                1.3543         estimate D2E/DX2                !
 ! R25   R(14,16)                1.4316         estimate D2E/DX2                !
 ! R26   R(15,27)                1.0013         estimate D2E/DX2                !
 ! R27   R(16,17)                1.4411         estimate D2E/DX2                !
 ! R28   R(17,18)                1.3061         estimate D2E/DX2                !
 ! R29   R(17,19)                1.4388         estimate D2E/DX2                !
 ! A1    A(2,1,20)             105.2815         estimate D2E/DX2                !
 ! A2    A(1,2,3)              118.9217         estimate D2E/DX2                !
 ! A3    A(1,2,19)             120.9353         estimate D2E/DX2                !
 ! A4    A(3,2,19)             120.143          estimate D2E/DX2                !
 ! A5    A(2,3,4)              120.0989         estimate D2E/DX2                !
 ! A6    A(2,3,21)             118.4097         estimate D2E/DX2                !
 ! A7    A(4,3,21)             121.4914         estimate D2E/DX2                !
 ! A8    A(3,4,5)              120.8126         estimate D2E/DX2                !
 ! A9    A(3,4,22)             119.2346         estimate D2E/DX2                !
 ! A10   A(5,4,22)             119.9528         estimate D2E/DX2                !
 ! A11   A(4,5,6)              120.3701         estimate D2E/DX2                !
 ! A12   A(4,5,23)             121.8931         estimate D2E/DX2                !
 ! A13   A(6,5,23)             117.7368         estimate D2E/DX2                !
 ! A14   A(5,6,7)              118.5465         estimate D2E/DX2                !
 ! A15   A(5,6,19)             119.7651         estimate D2E/DX2                !
 ! A16   A(7,6,19)             121.6883         estimate D2E/DX2                !
 ! A17   A(6,7,8)              119.828          estimate D2E/DX2                !
 ! A18   A(6,7,9)              116.9091         estimate D2E/DX2                !
 ! A19   A(8,7,9)              123.2629         estimate D2E/DX2                !
 ! A20   A(7,9,10)             121.7857         estimate D2E/DX2                !
 ! A21   A(7,9,16)             120.3261         estimate D2E/DX2                !
 ! A22   A(10,9,16)            117.8882         estimate D2E/DX2                !
 ! A23   A(9,10,11)            120.2673         estimate D2E/DX2                !
 ! A24   A(9,10,12)            120.5525         estimate D2E/DX2                !
 ! A25   A(11,10,12)           119.1802         estimate D2E/DX2                !
 ! A26   A(10,11,24)           106.9598         estimate D2E/DX2                !
 ! A27   A(10,12,13)           121.5549         estimate D2E/DX2                !
 ! A28   A(10,12,25)           118.9967         estimate D2E/DX2                !
 ! A29   A(13,12,25)           119.4485         estimate D2E/DX2                !
 ! A30   A(12,13,14)           120.0955         estimate D2E/DX2                !
 ! A31   A(12,13,26)           121.1078         estimate D2E/DX2                !
 ! A32   A(14,13,26)           118.7967         estimate D2E/DX2                !
 ! A33   A(13,14,15)           118.4179         estimate D2E/DX2                !
 ! A34   A(13,14,16)           119.9407         estimate D2E/DX2                !
 ! A35   A(15,14,16)           121.6414         estimate D2E/DX2                !
 ! A36   A(14,15,27)           105.2523         estimate D2E/DX2                !
 ! A37   A(9,16,14)            119.9683         estimate D2E/DX2                !
 ! A38   A(9,16,17)            121.1039         estimate D2E/DX2                !
 ! A39   A(14,16,17)           118.9278         estimate D2E/DX2                !
 ! A40   A(16,17,18)           120.7226         estimate D2E/DX2                !
 ! A41   A(16,17,19)           119.3697         estimate D2E/DX2                !
 ! A42   A(18,17,19)           119.9077         estimate D2E/DX2                !
 ! A43   A(2,19,6)             118.8102         estimate D2E/DX2                !
 ! A44   A(2,19,17)            120.587          estimate D2E/DX2                !
 ! A45   A(6,19,17)            120.6028         estimate D2E/DX2                !
 ! D1    D(20,1,2,3)          -179.9988         estimate D2E/DX2                !
 ! D2    D(20,1,2,19)            0.0009         estimate D2E/DX2                !
 ! D3    D(1,2,3,4)            179.9973         estimate D2E/DX2                !
 ! D4    D(1,2,3,21)            -0.0013         estimate D2E/DX2                !
 ! D5    D(19,2,3,4)            -0.0024         estimate D2E/DX2                !
 ! D6    D(19,2,3,21)          179.999          estimate D2E/DX2                !
 ! D7    D(1,2,19,6)          -179.9998         estimate D2E/DX2                !
 ! D8    D(1,2,19,17)           -0.0031         estimate D2E/DX2                !
 ! D9    D(3,2,19,6)            -0.0001         estimate D2E/DX2                !
 ! D10   D(3,2,19,17)          179.9965         estimate D2E/DX2                !
 ! D11   D(2,3,4,5)              0.0028         estimate D2E/DX2                !
 ! D12   D(2,3,4,22)          -179.9977         estimate D2E/DX2                !
 ! D13   D(21,3,4,5)          -179.9987         estimate D2E/DX2                !
 ! D14   D(21,3,4,22)            0.0008         estimate D2E/DX2                !
 ! D15   D(3,4,5,6)             -0.0005         estimate D2E/DX2                !
 ! D16   D(3,4,5,23)          -179.9976         estimate D2E/DX2                !
 ! D17   D(22,4,5,6)           179.9999         estimate D2E/DX2                !
 ! D18   D(22,4,5,23)            0.0029         estimate D2E/DX2                !
 ! D19   D(4,5,6,7)            179.9995         estimate D2E/DX2                !
 ! D20   D(4,5,6,19)            -0.002          estimate D2E/DX2                !
 ! D21   D(23,5,6,7)            -0.0034         estimate D2E/DX2                !
 ! D22   D(23,5,6,19)          179.9952         estimate D2E/DX2                !
 ! D23   D(5,6,7,8)              0.0059         estimate D2E/DX2                !
 ! D24   D(5,6,7,9)            179.9912         estimate D2E/DX2                !
 ! D25   D(19,6,7,8)          -179.9926         estimate D2E/DX2                !
 ! D26   D(19,6,7,9)            -0.0073         estimate D2E/DX2                !
 ! D27   D(5,6,19,2)             0.0023         estimate D2E/DX2                !
 ! D28   D(5,6,19,17)         -179.9944         estimate D2E/DX2                !
 ! D29   D(7,6,19,2)          -179.9992         estimate D2E/DX2                !
 ! D30   D(7,6,19,17)            0.0041         estimate D2E/DX2                !
 ! D31   D(6,7,9,10)          -179.9965         estimate D2E/DX2                !
 ! D32   D(6,7,9,16)             0.0039         estimate D2E/DX2                !
 ! D33   D(8,7,9,10)            -0.0118         estimate D2E/DX2                !
 ! D34   D(8,7,9,16)           179.9886         estimate D2E/DX2                !
 ! D35   D(7,9,10,11)           -0.0012         estimate D2E/DX2                !
 ! D36   D(7,9,10,12)          179.9983         estimate D2E/DX2                !
 ! D37   D(16,9,10,11)         179.9985         estimate D2E/DX2                !
 ! D38   D(16,9,10,12)          -0.0021         estimate D2E/DX2                !
 ! D39   D(7,9,16,14)         -179.9963         estimate D2E/DX2                !
 ! D40   D(7,9,16,17)            0.0027         estimate D2E/DX2                !
 ! D41   D(10,9,16,14)           0.0041         estimate D2E/DX2                !
 ! D42   D(10,9,16,17)        -179.9969         estimate D2E/DX2                !
 ! D43   D(9,10,11,24)         179.9957         estimate D2E/DX2                !
 ! D44   D(12,10,11,24)         -0.0038         estimate D2E/DX2                !
 ! D45   D(9,10,12,13)           0.0001         estimate D2E/DX2                !
 ! D46   D(9,10,12,25)        -179.9983         estimate D2E/DX2                !
 ! D47   D(11,10,12,13)        179.9996         estimate D2E/DX2                !
 ! D48   D(11,10,12,25)          0.0012         estimate D2E/DX2                !
 ! D49   D(10,12,13,14)         -0.0002         estimate D2E/DX2                !
 ! D50   D(10,12,13,26)       -179.998          estimate D2E/DX2                !
 ! D51   D(25,12,13,14)        179.9982         estimate D2E/DX2                !
 ! D52   D(25,12,13,26)          0.0004         estimate D2E/DX2                !
 ! D53   D(12,13,14,15)       -179.9956         estimate D2E/DX2                !
 ! D54   D(12,13,14,16)          0.0022         estimate D2E/DX2                !
 ! D55   D(26,13,14,15)          0.0023         estimate D2E/DX2                !
 ! D56   D(26,13,14,16)       -179.9999         estimate D2E/DX2                !
 ! D57   D(13,14,15,27)        179.9956         estimate D2E/DX2                !
 ! D58   D(16,14,15,27)         -0.0022         estimate D2E/DX2                !
 ! D59   D(13,14,16,9)          -0.0042         estimate D2E/DX2                !
 ! D60   D(13,14,16,17)        179.9968         estimate D2E/DX2                !
 ! D61   D(15,14,16,9)         179.9936         estimate D2E/DX2                !
 ! D62   D(15,14,16,17)         -0.0055         estimate D2E/DX2                !
 ! D63   D(9,16,17,18)         179.9986         estimate D2E/DX2                !
 ! D64   D(9,16,17,19)          -0.0061         estimate D2E/DX2                !
 ! D65   D(14,16,17,18)         -0.0024         estimate D2E/DX2                !
 ! D66   D(14,16,17,19)        179.9929         estimate D2E/DX2                !
 ! D67   D(16,17,19,2)        -179.9939         estimate D2E/DX2                !
 ! D68   D(16,17,19,6)           0.0027         estimate D2E/DX2                !
 ! D69   D(18,17,19,2)           0.0014         estimate D2E/DX2                !
 ! D70   D(18,17,19,6)         179.998          estimate D2E/DX2                !
 --------------------------------------------------------------------------------
 Trust Radius=3.00D-01 FncErr=1.00D-07 GrdErr=1.00D-06 EigMax=2.50D+02 EigMin=1.00D-04
 Number of steps in this run=    154 maximum allowed number of steps=    162.
 GradGradGradGradGradGradGradGradGradGradGradGradGradGradGradGradGradGrad

 Leave Link  103 at Sat Feb 10 21:58:21 2024, MaxMem=  4026531840 cpu:               0.2 elap:               0.1
 (Enter /sysapps/ubuntu-applications/gaussian/Gaussian/AVX2/g16/l202.exe)
                          Input orientation:                          
 ---------------------------------------------------------------------
 Center     Atomic      Atomic             Coordinates (Angstroms)
 Number     Number       Type             X           Y           Z
 ---------------------------------------------------------------------
      1          8           0       -2.737907    2.509397   -0.454064
      2          6           0       -2.660400    1.180200   -0.220651
      3          6           0       -3.834991    0.450325   -0.098875
      4          6           0       -3.783314   -0.931306    0.143536
      5          6           0       -2.569594   -1.584817    0.264471
      6          6           0       -1.363196   -0.871788    0.145862
      7          6           0       -0.090402   -1.609909    0.281949
      8          8           0       -0.105576   -2.836124    0.496677
      9          6           0        1.149627   -0.828762    0.151373
     10          6           0        2.429054   -1.432779    0.263897
     11          8           0        2.539793   -2.783216    0.501300
     12          6           0        3.583080   -0.670885    0.136217
     13          6           0        3.528307    0.706577   -0.105646
     14          6           0        2.304639    1.342397   -0.223461
     15          8           0        2.291279    2.676279   -0.457560
     16          6           0        1.093332    0.589807   -0.097663
     17          6           0       -0.168731    1.273968   -0.224083
     18          8           0       -0.211058    2.559761   -0.449738
     19          6           0       -1.391997    0.526838   -0.099462
     20          1           0       -1.789770    2.823965   -0.504248
     21          1           0       -4.779850    0.973502   -0.195528
     22          1           0       -4.710858   -1.488604    0.236320
     23          1           0       -2.509355   -2.649285    0.451303
     24          1           0        3.480609   -2.985171    0.541497
     25          1           0        4.550901   -1.160081    0.226969
     26          1           0        4.433628    1.294246   -0.204083
     27          1           0        1.322750    2.925463   -0.506310
 ---------------------------------------------------------------------
                    Distance matrix (angstroms):
                    1          2          3          4          5
     1  O    0.000000
     2  C    1.351759   0.000000
     3  C    2.359985   1.388240   0.000000
     4  C    3.645331   2.419096   1.403687   0.000000
     5  C    4.160194   2.808720   2.423851   1.383770   0.000000
     6  C    3.698940   2.455143   2.813832   2.420851   1.406369
     7  C    4.951735   3.826513   4.290867   3.757294   2.479381
     8  O    6.033877   4.813787   5.006392   4.156777   2.773278
     9  C    5.159727   4.323267   5.152194   4.934013   3.796974
    10  C    6.538632   5.741514   6.551026   6.233737   5.000960
    11  O    7.535157   6.578137   7.173135   6.598428   5.253388
    12  C    7.100528   6.521880   7.506008   7.370999   6.221504
    13  C    6.529701   6.207869   7.367759   7.496970   6.524712
    14  C    5.180959   4.967688   6.205350   6.509039   5.706558
    15  O    5.031955   5.178176   6.527994   7.090604   6.504333
    16  C    4.300028   3.801867   4.930297   5.114063   4.275179
    17  C    2.860042   2.493435   3.759724   4.250128   3.765034
    18  O    2.527355   2.820451   4.207816   5.029964   4.821858
    19  C    2.422345   1.431927   2.444192   2.811339   2.445050
    20  H    1.000218   1.881592   3.159339   4.300686   4.542732
    21  H    2.568140   2.129653   1.084350   2.176314   3.412012
    22  H    4.511450   3.396427   2.153821   1.086061   2.143609
    23  H    5.242511   3.890924   3.415785   2.160820   1.082417
    24  H    8.357713   7.459435   8.107448   7.559187   6.216325
    25  H    8.188748   7.594744   8.545336   8.337772   7.133250
    26  H    7.278049   7.094964   8.312240   8.520097   7.586413
    27  H    4.082251   4.358099   5.735382   6.431863   6.007252
                    6          7          8          9         10
     6  C    0.000000
     7  C    1.477615   0.000000
     8  O    2.358664   1.244967   0.000000
     9  C    2.513197   1.471364   2.392545   0.000000
    10  C    3.835336   2.525739   2.906529   1.419307   0.000000
    11  O    4.360415   2.888371   2.645902   2.423819   1.375610
    12  C    4.950364   3.794400   4.292362   2.438616   1.388726
    13  C    5.145998   4.314092   5.110639   2.842788   2.433467
    14  C    4.300236   3.835071   4.877271   2.487667   2.820390
    15  O    5.129141   4.958900   6.086220   3.736239   4.174187
    16  C    2.868814   2.526674   3.677992   1.441363   2.450660
    17  C    2.483521   2.928985   4.173289   2.510081   3.783265
    18  O    3.668472   4.235100   5.479270   3.700660   4.839405
    19  C    1.420270   2.530872   3.649627   2.891439   4.309589
    20  H    3.776665   4.813024   5.989572   4.734164   6.042217
    21  H    3.898098   5.375213   6.069698   6.207028   7.613774
    22  H    3.405214   4.622273   4.805436   5.898126   7.140183
    23  H    2.136930   2.638241   2.411456   4.097854   5.089488
    24  H    5.299562   3.835470   3.589561   3.199340   1.895455
    25  H    5.921675   4.663374   4.956273   3.418209   2.139617
    26  H    6.198172   5.397888   6.177005   3.926598   3.416722
    27  H    4.696674   4.815387   6.020131   3.815327   4.561951
                   11         12         13         14         15
    11  O    0.000000
    12  C    2.384046   0.000000
    13  C    3.677526   1.399607   0.000000
    14  C    4.195385   2.411863   1.384020   0.000000
    15  O    5.548627   3.636596   2.352405   1.354335   0.000000
    16  C    3.718641   2.800516   2.437786   1.431601   2.432687
    17  C    4.931838   4.241268   3.742199   2.474316   2.841239
    18  O    6.084329   5.017559   4.187546   2.803909   2.505060
    19  C    5.174586   5.122643   4.923590   3.787563   4.279586
    20  H    7.155188   6.441404   5.737958   4.363264   4.083987
    21  H    8.256856   8.529517   8.312930   7.094142   7.277979
    22  H    7.370086   8.334752   8.533440   7.579127   8.176652
    23  H    5.051171   6.413354   6.930034   6.289942   7.227292
    24  H    0.963087   2.351738   3.748343   4.549276   5.870659
    25  H    2.598919   1.088222   2.154238   3.392783   4.504679
    26  H    4.550810   2.168173   1.083813   2.129622   2.562016
    27  H    5.923300   4.296004   3.154119   1.884199   1.001258
                   16         17         18         19         20
    16  C    0.000000
    17  C    1.441132   0.000000
    18  O    2.388746   1.306130   0.000000
    19  C    2.486127   1.438789   2.376991   0.000000
    20  H    3.670021   2.260255   1.601595   2.366193   0.000000
    21  H    5.886516   4.620986   4.843005   3.418521   3.529887
    22  H    6.174136   5.336168   6.091645   3.897383   5.261126
    23  H    4.875698   4.618071   5.764391   3.411684   5.602441
    24  H    4.346042   5.660747   6.734777   6.040474   7.913061
    25  H    3.888737   5.329444   6.080412   6.186299   7.524055
    26  H    3.415426   4.602447   4.820268   5.876884   6.415670
    27  H    2.382208   2.243124   1.577817   3.645378   3.114175
                   21         22         23         24         25
    21  H    0.000000
    22  H    2.500644   0.000000
    23  H    4.324133   2.498002   0.000000
    24  H    9.189640   8.332645   6.000052   0.000000
    25  H    9.580897   9.267588   7.219091   2.139020   0.000000
    26  H    9.219063   9.568690   8.011615   4.447195   2.494650
    27  H    6.414707   7.512650   6.832267   6.378860   5.258358
                   26         27
    26  H    0.000000
    27  H    3.525588   0.000000
 Symmetry turned off by external request.
 Stoichiometry    C14H8O5(1-,2)
 Framework group  C1[X(C14H8O5)]
 Deg. of freedom    75
 Full point group                 C1      NOp   1
 Rotational constants (GHZ):           0.6226132           0.3458963           0.2223619
 Leave Link  202 at Sat Feb 10 21:58:21 2024, MaxMem=  4026531840 cpu:               0.5 elap:               0.1
 (Enter /sysapps/ubuntu-applications/gaussian/Gaussian/AVX2/g16/l301.exe)
 Standard basis: 6-311++G(d,p) (5D, 7F)
 Ernie: Thresh=  0.10000D-02 Tol=  0.10000D-05 Strict=F.
   474 basis functions,   756 primitive gaussians,   493 cartesian basis functions
    67 alpha electrons       66 beta electrons
       nuclear repulsion energy      1375.2939417440 Hartrees.
 IExCor=  402 DFT=T Ex+Corr=B3LYP ExCW=0 ScaHFX=  0.200000
 ScaDFX=  0.800000  0.720000  1.000000  0.810000 ScalE2=  1.000000  1.000000
 IRadAn=      5 IRanWt=     -1 IRanGd=            0 ICorTp=0 IEmpDi=  4
 NAtoms=   27 NActive=   27 NUniq=   27 SFac= 1.00D+00 NAtFMM=   60 NAOKFM=F Big=F
 Integral buffers will be    131072 words long.
 Raffenetti 2 integral format.
 Two-electron integral symmetry is turned off.
 ------------------------------------------------------------------------------
 Polarizable Continuum Model (PCM)
 =================================
 Model                : PCM.
 Atomic radii         : UFF (Universal Force Field).
 Polarization charges : Total charges.
 Charge compensation  : None.
 Solution method      : On-the-fly selection.
 Cavity type          : Scaled VdW (van der Waals Surface) (Alpha=1.100).
 Cavity algorithm     : GePol (No added spheres)
                        Default sphere list used, NSphG=   27.
                        Lebedev-Laikov grids with approx.  5.0 points / Ang**2.
                        Smoothing algorithm: York/Karplus (Gamma=1.0000).
                        Polarization charges: spherical gaussians, with
                                              point-specific exponents (IZeta= 3).
                        Self-potential: point-specific (ISelfS= 7).
                        Self-field    : sphere-specific E.n sum rule (ISelfD= 2).
 1st derivatives      : Analytical E(r).r(x)/FMM algorithm (CHGder, D1EAlg=3).
                        Cavity 1st derivative terms included.
 Solvent              : n,n-DiMethylFormamide, Eps=  37.219000 Eps(inf)=   2.046330
 ------------------------------------------------------------------------------
 GePol: Number of generator spheres                  =      27
 GePol: Total number of spheres                      =      27
 GePol: Number of exposed spheres                    =      27 (100.00%)
 GePol: Number of points                             =    2261
 GePol: Average weight of points                     =       0.12
 GePol: Minimum weight of points                     =   0.28D-10
 GePol: Maximum weight of points                     =    0.20577
 GePol: Number of points with low weight             =     140
 GePol: Fraction of low-weight points (<1% of avg)   =       6.19%
 GePol: Cavity surface area                          =    272.442 Ang**2
 GePol: Cavity volume                                =    303.466 Ang**3
 Leave Link  301 at Sat Feb 10 21:58:22 2024, MaxMem=  4026531840 cpu:               1.3 elap:               0.3
 (Enter /sysapps/ubuntu-applications/gaussian/Gaussian/AVX2/g16/l302.exe)
 NPDir=0 NMtPBC=     1 NCelOv=     1 NCel=       1 NClECP=     1 NCelD=      1
         NCelK=      1 NCelE2=     1 NClLst=     1 CellRange=     0.0.
 One-electron integrals computed using PRISM.
 NBasis=   474 RedAO= T EigKep=  1.84D-06  NBF=   474
 NBsUse=   466 1.00D-06 EigRej=  9.85D-07 NBFU=   466
 Precomputing XC quadrature grid using
 IXCGrd= 4 IRadAn=           5 IRanWt=          -1 IRanGd=           0 AccXCQ= 0.00D+00.
 Generated NRdTot=       0 NPtTot=           0 NUsed=           0 NTot=          32
 NSgBfM=   491   491   491   491   491 MxSgAt=    27 MxSgA2=    27.
 Leave Link  302 at Sat Feb 10 21:58:24 2024, MaxMem=  4026531840 cpu:              18.8 elap:               2.8
 (Enter /sysapps/ubuntu-applications/gaussian/Gaussian/AVX2/g16/l303.exe)
 DipDrv:  MaxL=1.
 Leave Link  303 at Sat Feb 10 21:58:25 2024, MaxMem=  4026531840 cpu:               1.4 elap:               0.3
 (Enter /sysapps/ubuntu-applications/gaussian/Gaussian/AVX2/g16/l401.exe)
 ExpMin= 3.60D-02 ExpMax= 8.59D+03 ExpMxC= 1.30D+03 IAcc=3 IRadAn=         5 AccDes= 0.00D+00
 Harris functional with IExCor=  402 and IRadAn=       5 diagonalized for initial guess.
 HarFok:  IExCor=  402 AccDes= 0.00D+00 IRadAn=         5 IDoV= 1 UseB2=F ITyADJ=14
 ICtDFT=  3500011 ScaDFX=  1.000000  1.000000  1.000000  1.000000
 FoFCou: FMM=F IPFlag=           0 FMFlag=      100000 FMFlg1=           0
         NFxFlg=           0 DoJE=T BraDBF=F KetDBF=T FulRan=T
         wScrn=  0.000000 ICntrl=       500 IOpCl=  0 I1Cent=   200000004 NGrid=           0
         NMat0=    1 NMatS0=      1 NMatT0=    0 NMatD0=    1 NMtDS0=    0 NMtDT0=    0
 Symmetry not used in FoFCou.
 Harris En= -914.931878663051    
 JPrj=0 DoOrth=F DoCkMO=F.
 Initial guess <Sx>= 0.0000 <Sy>= 0.0000 <Sz>= 0.5000 <S**2>= 0.7500 S= 0.5000
 Leave Link  401 at Sat Feb 10 21:58:28 2024, MaxMem=  4026531840 cpu:              26.7 elap:               3.4
 (Enter /sysapps/ubuntu-applications/gaussian/Gaussian/AVX2/g16/l502.exe)
 Two-electron integral symmetry not used.
 UHF open shell SCF:
 Using DIIS extrapolation, IDIIS=  1040.
 NGot=  4026531840 LenX=  4026038378 LenY=  4025794836
 Requested convergence on RMS density matrix=1.00D-08 within 128 cycles.
 Requested convergence on MAX density matrix=1.00D-06.
 Requested convergence on             energy=1.00D-06.
 No special actions if energy rises.
 Fock matrices will be formed incrementally for  20 cycles.

 Cycle   1  Pass 1  IDiag  1:
 FoFJK:  IHMeth= 1 ICntrl=       0 DoSepK=F KAlg= 0 I1Cent=           0 FoldK=F
 IRaf= 850000000 NMat=       1 IRICut=       1 DoRegI=T DoRafI=F ISym2E= 0 IDoP0=0 IntGTp=1.
 FoFCou: FMM=F IPFlag=           0 FMFlag=      100000 FMFlg1=           0
         NFxFlg=           0 DoJE=F BraDBF=F KetDBF=F FulRan=T
         wScrn=  0.000000 ICntrl=         0 IOpCl=  1 I1Cent=           0 NGrid=           0
         NMat0=    1 NMatS0=      1 NMatT0=    0 NMatD0=    1 NMtDS0=    0 NMtDT0=    0
 Symmetry not used in FoFCou.
 Inv3:  Mode=1 IEnd=    15336363.
 Iteration    1 A*A^-1 deviation from unit magnitude is 2.89D-15 for   1448.
 Iteration    1 A*A^-1 deviation from orthogonality  is 2.44D-15 for   1988   1896.
 Iteration    1 A^-1*A deviation from unit magnitude is 3.11D-15 for    193.
 Iteration    1 A^-1*A deviation from orthogonality  is 2.21D-15 for   1138    736.
 E= -914.404921640685    
 DIIS: error= 4.04D-02 at cycle   1 NSaved=   1.
 NSaved= 1 IEnMin= 1 EnMin= -914.404921640685     IErMin= 1 ErrMin= 4.04D-02
 ErrMax= 4.04D-02  0.00D+00 EMaxC= 1.00D-01 BMatC= 2.37D+00 BMatP= 2.37D+00
 IDIUse=3 WtCom= 5.96D-01 WtEn= 4.04D-01
 Coeff-Com:  0.100D+01
 Coeff-En:   0.100D+01
 Coeff:      0.100D+01
 Gap=     0.088 Goal=   None    Shift=    0.000
 Gap=     0.120 Goal=   None    Shift=    0.000
 GapD=    0.088 DampG=0.500 DampE=0.500 DampFc=0.2500 IDamp=-1.
 Damping current iteration by 2.50D-01
 RMSDP=1.72D-02 MaxDP=9.96D-01              OVMax= 3.00D-01

 Cycle   2  Pass 1  IDiag  1:
 RMSU=  4.19D-03    CP:  9.78D-01
 E= -914.565516095927     Delta-E=       -0.160594455243 Rises=F Damp=T
 DIIS: error= 2.26D-02 at cycle   2 NSaved=   2.
 NSaved= 2 IEnMin= 2 EnMin= -914.565516095927     IErMin= 2 ErrMin= 2.26D-02
 ErrMax= 2.26D-02  0.00D+00 EMaxC= 1.00D-01 BMatC= 5.51D-01 BMatP= 2.37D+00
 IDIUse=3 WtCom= 7.74D-01 WtEn= 2.26D-01
 Coeff-Com: -0.705D+00 0.170D+01
 Coeff-En:   0.000D+00 0.100D+01
 Coeff:     -0.546D+00 0.155D+01
 Gap=     0.130 Goal=   None    Shift=    0.000
 Gap=     0.167 Goal=   None    Shift=    0.000
 RMSDP=5.33D-03 MaxDP=3.56D-01 DE=-1.61D-01 OVMax= 2.05D-01

 Cycle   3  Pass 1  IDiag  1:
 RMSU=  3.94D-03    CP:  9.09D-01  6.52D-01
 E= -914.816277955143     Delta-E=       -0.250761859216 Rises=F Damp=F
 DIIS: error= 1.33D-02 at cycle   3 NSaved=   3.
 NSaved= 3 IEnMin= 3 EnMin= -914.816277955143     IErMin= 3 ErrMin= 1.33D-02
 ErrMax= 1.33D-02  0.00D+00 EMaxC= 1.00D-01 BMatC= 1.82D-01 BMatP= 5.51D-01
 IDIUse=3 WtCom= 8.67D-01 WtEn= 1.33D-01
 Coeff-Com: -0.392D+00 0.893D+00 0.499D+00
 Coeff-En:   0.000D+00 0.000D+00 0.100D+01
 Coeff:     -0.340D+00 0.775D+00 0.566D+00
 Gap=     0.098 Goal=   None    Shift=    0.000
 Gap=     0.119 Goal=   None    Shift=    0.000
 RMSDP=2.60D-03 MaxDP=1.29D-01 DE=-2.51D-01 OVMax= 9.25D-02

 Cycle   4  Pass 1  IDiag  1:
 RMSU=  1.92D-03    CP:  9.38D-01  8.54D-01  8.18D-01
 E= -914.846978797516     Delta-E=       -0.030700842373 Rises=F Damp=F
 DIIS: error= 7.18D-03 at cycle   4 NSaved=   4.
 NSaved= 4 IEnMin= 4 EnMin= -914.846978797516     IErMin= 4 ErrMin= 7.18D-03
 ErrMax= 7.18D-03  0.00D+00 EMaxC= 1.00D-01 BMatC= 5.39D-02 BMatP= 1.82D-01
 IDIUse=3 WtCom= 9.28D-01 WtEn= 7.18D-02
 Coeff-Com: -0.815D-01 0.195D+00 0.356D+00 0.531D+00
 Coeff-En:   0.000D+00 0.000D+00 0.241D+00 0.759D+00
 Coeff:     -0.757D-01 0.181D+00 0.348D+00 0.547D+00
 Gap=     0.098 Goal=   None    Shift=    0.000
 Gap=     0.116 Goal=   None    Shift=    0.000
 RMSDP=1.56D-03 MaxDP=8.76D-02 DE=-3.07D-02 OVMax= 3.54D-02

 Cycle   5  Pass 1  IDiag  1:
 RMSU=  5.15D-04    CP:  9.15D-01  7.02D-01  8.80D-01  5.92D-01
 E= -914.857656392863     Delta-E=       -0.010677595346 Rises=F Damp=F
 DIIS: error= 1.30D-03 at cycle   5 NSaved=   5.
 NSaved= 5 IEnMin= 5 EnMin= -914.857656392863     IErMin= 5 ErrMin= 1.30D-03
 ErrMax= 1.30D-03  0.00D+00 EMaxC= 1.00D-01 BMatC= 2.88D-03 BMatP= 5.39D-02
 IDIUse=3 WtCom= 9.87D-01 WtEn= 1.30D-02
 Coeff-Com: -0.832D-02 0.239D-01 0.149D+00 0.308D+00 0.528D+00
 Coeff-En:   0.000D+00 0.000D+00 0.000D+00 0.000D+00 0.100D+01
 Coeff:     -0.821D-02 0.236D-01 0.147D+00 0.304D+00 0.534D+00
 Gap=     0.098 Goal=   None    Shift=    0.000
 Gap=     0.117 Goal=   None    Shift=    0.000
 RMSDP=5.34D-04 MaxDP=3.09D-02 DE=-1.07D-02 OVMax= 9.22D-03

 Cycle   6  Pass 1  IDiag  1:
 RMSU=  2.55D-04    CP:  9.06D-01  7.17D-01  8.88D-01  5.57D-01  8.38D-01
 E= -914.858225522747     Delta-E=       -0.000569129884 Rises=F Damp=F
 DIIS: error= 4.69D-04 at cycle   6 NSaved=   6.
 NSaved= 6 IEnMin= 6 EnMin= -914.858225522747     IErMin= 6 ErrMin= 4.69D-04
 ErrMax= 4.69D-04  0.00D+00 EMaxC= 1.00D-01 BMatC= 2.91D-04 BMatP= 2.88D-03
 IDIUse=3 WtCom= 9.95D-01 WtEn= 4.69D-03
 Coeff-Com:  0.232D-02-0.405D-02 0.429D-01 0.105D+00 0.296D+00 0.558D+00
 Coeff-En:   0.000D+00 0.000D+00 0.000D+00 0.000D+00 0.000D+00 0.100D+01
 Coeff:      0.231D-02-0.403D-02 0.427D-01 0.105D+00 0.294D+00 0.560D+00
 Gap=     0.099 Goal=   None    Shift=    0.000
 Gap=     0.118 Goal=   None    Shift=    0.000
 RMSDP=1.26D-04 MaxDP=5.24D-03 DE=-5.69D-04 OVMax= 2.77D-03

 Cycle   7  Pass 1  IDiag  1:
 RMSU=  5.83D-05    CP:  9.07D-01  7.02D-01  8.93D-01  5.74D-01  8.73D-01
                    CP:  7.95D-01
 E= -914.858286686955     Delta-E=       -0.000061164208 Rises=F Damp=F
 DIIS: error= 2.21D-04 at cycle   7 NSaved=   7.
 NSaved= 7 IEnMin= 7 EnMin= -914.858286686955     IErMin= 7 ErrMin= 2.21D-04
 ErrMax= 2.21D-04  0.00D+00 EMaxC= 1.00D-01 BMatC= 4.97D-05 BMatP= 2.91D-04
 IDIUse=3 WtCom= 9.98D-01 WtEn= 2.21D-03
 Coeff-Com:  0.293D-02-0.621D-02 0.156D-02 0.109D-01 0.921D-01 0.315D+00
 Coeff-Com:  0.584D+00
 Coeff-En:   0.000D+00 0.000D+00 0.000D+00 0.000D+00 0.000D+00 0.000D+00
 Coeff-En:   0.100D+01
 Coeff:      0.292D-02-0.619D-02 0.156D-02 0.109D-01 0.919D-01 0.314D+00
 Coeff:      0.585D+00
 Gap=     0.099 Goal=   None    Shift=    0.000
 Gap=     0.118 Goal=   None    Shift=    0.000
 RMSDP=4.90D-05 MaxDP=2.99D-03 DE=-6.12D-05 OVMax= 1.87D-03

 Cycle   8  Pass 1  IDiag  1:
 RMSU=  2.78D-05    CP:  9.08D-01  7.01D-01  8.93D-01  5.75D-01  8.87D-01
                    CP:  7.60D-01  8.15D-01
 E= -914.858302070400     Delta-E=       -0.000015383444 Rises=F Damp=F
 DIIS: error= 9.08D-05 at cycle   8 NSaved=   8.
 NSaved= 8 IEnMin= 8 EnMin= -914.858302070400     IErMin= 8 ErrMin= 9.08D-05
 ErrMax= 9.08D-05  0.00D+00 EMaxC= 1.00D-01 BMatC= 8.98D-06 BMatP= 4.97D-05
 IDIUse=1 WtCom= 1.00D+00 WtEn= 0.00D+00
 Coeff-Com:  0.990D-03-0.181D-02-0.812D-02-0.203D-01-0.310D-01-0.332D-01
 Coeff-Com:  0.229D+00 0.864D+00
 Coeff:      0.990D-03-0.181D-02-0.812D-02-0.203D-01-0.310D-01-0.332D-01
 Coeff:      0.229D+00 0.864D+00
 Gap=     0.099 Goal=   None    Shift=    0.000
 Gap=     0.118 Goal=   None    Shift=    0.000
 RMSDP=2.15D-05 MaxDP=9.40D-04 DE=-1.54D-05 OVMax= 1.48D-03

 Cycle   9  Pass 1  IDiag  1:
 RMSU=  1.68D-05    CP:  9.08D-01  6.99D-01  8.93D-01  5.73D-01  8.92D-01
                    CP:  7.61D-01  9.48D-01  9.75D-01
 E= -914.858306883121     Delta-E=       -0.000004812722 Rises=F Damp=F
 DIIS: error= 7.75D-05 at cycle   9 NSaved=   9.
 NSaved= 9 IEnMin= 9 EnMin= -914.858306883121     IErMin= 9 ErrMin= 7.75D-05
 ErrMax= 7.75D-05  0.00D+00 EMaxC= 1.00D-01 BMatC= 5.62D-06 BMatP= 8.98D-06
 IDIUse=1 WtCom= 1.00D+00 WtEn= 0.00D+00
 Coeff-Com: -0.122D-03 0.555D-03-0.666D-02-0.201D-01-0.575D-01-0.144D+00
 Coeff-Com: -0.278D-01 0.650D+00 0.606D+00
 Coeff:     -0.122D-03 0.555D-03-0.666D-02-0.201D-01-0.575D-01-0.144D+00
 Coeff:     -0.278D-01 0.650D+00 0.606D+00
 Gap=     0.099 Goal=   None    Shift=    0.000
 Gap=     0.118 Goal=   None    Shift=    0.000
 RMSDP=1.31D-05 MaxDP=5.44D-04 DE=-4.81D-06 OVMax= 1.14D-03

 Cycle  10  Pass 1  IDiag  1:
 RMSU=  8.56D-06    CP:  9.08D-01  6.97D-01  8.94D-01  5.71D-01  8.98D-01
                    CP:  7.56D-01  1.02D+00  1.12D+00  1.08D+00
 E= -914.858309326677     Delta-E=       -0.000002443556 Rises=F Damp=F
 DIIS: error= 3.46D-05 at cycle  10 NSaved=  10.
 NSaved=10 IEnMin=10 EnMin= -914.858309326677     IErMin=10 ErrMin= 3.46D-05
 ErrMax= 3.46D-05  0.00D+00 EMaxC= 1.00D-01 BMatC= 4.21D-07 BMatP= 5.62D-06
 IDIUse=1 WtCom= 1.00D+00 WtEn= 0.00D+00
 Coeff-Com: -0.229D-03 0.509D-03 0.974D-04-0.142D-02-0.996D-02-0.329D-01
 Coeff-Com: -0.475D-01-0.248D-01 0.174D+00 0.942D+00
 Coeff:     -0.229D-03 0.509D-03 0.974D-04-0.142D-02-0.996D-02-0.329D-01
 Coeff:     -0.475D-01-0.248D-01 0.174D+00 0.942D+00
 Gap=     0.099 Goal=   None    Shift=    0.000
 Gap=     0.118 Goal=   None    Shift=    0.000
 RMSDP=6.10D-06 MaxDP=3.54D-04 DE=-2.44D-06 OVMax= 5.04D-04

 Cycle  11  Pass 1  IDiag  1:
 RMSU=  4.49D-06    CP:  9.08D-01  6.97D-01  8.94D-01  5.71D-01  8.94D-01
                    CP:  7.53D-01  1.04D+00  1.18D+00  1.18D+00  9.23D-01
 E= -914.858309744531     Delta-E=       -0.000000417854 Rises=F Damp=F
 DIIS: error= 1.28D-05 at cycle  11 NSaved=  11.
 NSaved=11 IEnMin=11 EnMin= -914.858309744531     IErMin=11 ErrMin= 1.28D-05
 ErrMax= 1.28D-05  0.00D+00 EMaxC= 1.00D-01 BMatC= 1.51D-07 BMatP= 4.21D-07
 IDIUse=1 WtCom= 1.00D+00 WtEn= 0.00D+00
 Coeff-Com: -0.831D-04 0.152D-03 0.108D-02 0.228D-02 0.374D-02 0.490D-02
 Coeff-Com: -0.190D-01-0.118D+00 0.591D-02 0.474D+00 0.645D+00
 Coeff:     -0.831D-04 0.152D-03 0.108D-02 0.228D-02 0.374D-02 0.490D-02
 Coeff:     -0.190D-01-0.118D+00 0.591D-02 0.474D+00 0.645D+00
 Gap=     0.099 Goal=   None    Shift=    0.000
 Gap=     0.118 Goal=   None    Shift=    0.000
 RMSDP=2.13D-06 MaxDP=1.08D-04 DE=-4.18D-07 OVMax= 2.32D-04

 Cycle  12  Pass 1  IDiag  1:
 RMSU=  1.57D-06    CP:  9.08D-01  6.97D-01  8.93D-01  5.71D-01  8.96D-01
                    CP:  7.51D-01  1.04D+00  1.19D+00  1.20D+00  1.00D+00
                    CP:  1.02D+00
 E= -914.858309839308     Delta-E=       -0.000000094777 Rises=F Damp=F
 DIIS: error= 1.01D-05 at cycle  12 NSaved=  12.
 NSaved=12 IEnMin=12 EnMin= -914.858309839308     IErMin=12 ErrMin= 1.01D-05
 ErrMax= 1.01D-05  0.00D+00 EMaxC= 1.00D-01 BMatC= 5.21D-08 BMatP= 1.51D-07
 IDIUse=1 WtCom= 1.00D+00 WtEn= 0.00D+00
 Coeff-Com:  0.589D-04-0.138D-03 0.531D-03 0.176D-02 0.630D-02 0.155D-01
 Coeff-Com:  0.983D-02-0.533D-01-0.556D-01-0.175D+00 0.353D+00 0.897D+00
 Coeff:      0.589D-04-0.138D-03 0.531D-03 0.176D-02 0.630D-02 0.155D-01
 Coeff:      0.983D-02-0.533D-01-0.556D-01-0.175D+00 0.353D+00 0.897D+00
 Gap=     0.099 Goal=   None    Shift=    0.000
 Gap=     0.118 Goal=   None    Shift=    0.000
 RMSDP=1.75D-06 MaxDP=8.38D-05 DE=-9.48D-08 OVMax= 1.67D-04

 Cycle  13  Pass 1  IDiag  1:
 RMSU=  1.20D-06    CP:  9.08D-01  6.97D-01  8.93D-01  5.71D-01  8.95D-01
                    CP:  7.51D-01  1.04D+00  1.16D+00  1.25D+00  1.06D+00
                    CP:  1.10D+00  1.05D+00
 E= -914.858309887822     Delta-E=       -0.000000048514 Rises=F Damp=F
 DIIS: error= 3.17D-06 at cycle  13 NSaved=  13.
 NSaved=13 IEnMin=13 EnMin= -914.858309887822     IErMin=13 ErrMin= 3.17D-06
 ErrMax= 3.17D-06  0.00D+00 EMaxC= 1.00D-01 BMatC= 8.26D-09 BMatP= 5.21D-08
 IDIUse=1 WtCom= 1.00D+00 WtEn= 0.00D+00
 Coeff-Com:  0.369D-04-0.742D-04-0.578D-04 0.108D-03 0.166D-02 0.462D-02
 Coeff-Com:  0.769D-02 0.815D-02-0.164D-01-0.188D+00-0.287D-01 0.308D+00
 Coeff-Com:  0.903D+00
 Coeff:      0.369D-04-0.742D-04-0.578D-04 0.108D-03 0.166D-02 0.462D-02
 Coeff:      0.769D-02 0.815D-02-0.164D-01-0.188D+00-0.287D-01 0.308D+00
 Coeff:      0.903D+00
 Gap=     0.099 Goal=   None    Shift=    0.000
 Gap=     0.118 Goal=   None    Shift=    0.000
 RMSDP=8.76D-07 MaxDP=4.95D-05 DE=-4.85D-08 OVMax= 9.60D-05

 Cycle  14  Pass 1  IDiag  1:
 RMSU=  4.61D-07    CP:  9.08D-01  6.97D-01  8.93D-01  5.71D-01  8.95D-01
                    CP:  7.50D-01  1.04D+00  1.16D+00  1.25D+00  1.04D+00
                    CP:  1.17D+00  1.26D+00  1.24D+00
 E= -914.858309896943     Delta-E=       -0.000000009121 Rises=F Damp=F
 DIIS: error= 1.89D-06 at cycle  14 NSaved=  14.
 NSaved=14 IEnMin=14 EnMin= -914.858309896943     IErMin=14 ErrMin= 1.89D-06
 ErrMax= 1.89D-06  0.00D+00 EMaxC= 1.00D-01 BMatC= 4.52D-09 BMatP= 8.26D-09
 IDIUse=1 WtCom= 1.00D+00 WtEn= 0.00D+00
 Coeff-Com:  0.812D-05-0.148D-04-0.161D-03-0.336D-03-0.377D-03-0.564D-03
 Coeff-Com:  0.258D-02 0.174D-01 0.339D-02-0.826D-01-0.971D-01-0.114D-01
 Coeff-Com:  0.587D+00 0.582D+00
 Coeff:      0.812D-05-0.148D-04-0.161D-03-0.336D-03-0.377D-03-0.564D-03
 Coeff:      0.258D-02 0.174D-01 0.339D-02-0.826D-01-0.971D-01-0.114D-01
 Coeff:      0.587D+00 0.582D+00
 Gap=     0.099 Goal=   None    Shift=    0.000
 Gap=     0.118 Goal=   None    Shift=    0.000
 RMSDP=3.84D-07 MaxDP=2.68D-05 DE=-9.12D-09 OVMax= 3.50D-05

 Cycle  15  Pass 1  IDiag  1:
 RMSU=  2.22D-07    CP:  9.08D-01  6.97D-01  8.93D-01  5.71D-01  8.95D-01
                    CP:  7.50D-01  1.04D+00  1.16D+00  1.25D+00  1.04D+00
                    CP:  1.21D+00  1.31D+00  1.35D+00  1.09D+00
 E= -914.858309899018     Delta-E=       -0.000000002075 Rises=F Damp=F
 DIIS: error= 5.45D-07 at cycle  15 NSaved=  15.
 NSaved=15 IEnMin=15 EnMin= -914.858309899018     IErMin=15 ErrMin= 5.45D-07
 ErrMax= 5.45D-07  0.00D+00 EMaxC= 1.00D-01 BMatC= 2.93D-10 BMatP= 4.52D-09
 IDIUse=1 WtCom= 1.00D+00 WtEn= 0.00D+00
 Coeff-Com: -0.112D-04 0.191D-04-0.233D-04-0.892D-04-0.485D-03-0.104D-02
 Coeff-Com: -0.114D-02 0.705D-03 0.464D-02 0.257D-01-0.896D-02-0.772D-01
 Coeff-Com: -0.771D-01 0.918D-01 0.104D+01
 Coeff:     -0.112D-04 0.191D-04-0.233D-04-0.892D-04-0.485D-03-0.104D-02
 Coeff:     -0.114D-02 0.705D-03 0.464D-02 0.257D-01-0.896D-02-0.772D-01
 Coeff:     -0.771D-01 0.918D-01 0.104D+01
 Gap=     0.099 Goal=   None    Shift=    0.000
 Gap=     0.118 Goal=   None    Shift=    0.000
 RMSDP=1.99D-07 MaxDP=1.10D-05 DE=-2.07D-09 OVMax= 2.08D-05

 Cycle  16  Pass 1  IDiag  1:
 RMSU=  1.09D-07    CP:  9.08D-01  6.97D-01  8.93D-01  5.71D-01  8.95D-01
                    CP:  7.50D-01  1.05D+00  1.16D+00  1.25D+00  1.04D+00
                    CP:  1.20D+00  1.31D+00  1.44D+00  1.18D+00  1.19D+00
 E= -914.858309899322     Delta-E=       -0.000000000304 Rises=F Damp=F
 DIIS: error= 2.98D-07 at cycle  16 NSaved=  16.
 NSaved=16 IEnMin=16 EnMin= -914.858309899322     IErMin=16 ErrMin= 2.98D-07
 ErrMax= 2.98D-07  0.00D+00 EMaxC= 1.00D-01 BMatC= 1.24D-10 BMatP= 2.93D-10
 IDIUse=1 WtCom= 1.00D+00 WtEn= 0.00D+00
 Coeff-Com: -0.638D-05 0.106D-04 0.134D-04 0.947D-05-0.196D-03-0.446D-03
 Coeff-Com: -0.958D-03-0.225D-02 0.200D-02 0.264D-01 0.110D-01-0.424D-01
 Coeff-Com: -0.130D+00-0.356D-01 0.568D+00 0.605D+00
 Coeff:     -0.638D-05 0.106D-04 0.134D-04 0.947D-05-0.196D-03-0.446D-03
 Coeff:     -0.958D-03-0.225D-02 0.200D-02 0.264D-01 0.110D-01-0.424D-01
 Coeff:     -0.130D+00-0.356D-01 0.568D+00 0.605D+00
 Gap=     0.099 Goal=   None    Shift=    0.000
 Gap=     0.118 Goal=   None    Shift=    0.000
 RMSDP=7.30D-08 MaxDP=3.94D-06 DE=-3.04D-10 OVMax= 8.13D-06

 Cycle  17  Pass 1  IDiag  1:
 RMSU=  4.97D-08    CP:  9.08D-01  6.97D-01  8.93D-01  5.71D-01  8.95D-01
                    CP:  7.50D-01  1.05D+00  1.16D+00  1.25D+00  1.04D+00
                    CP:  1.20D+00  1.31D+00  1.44D+00  1.27D+00  1.27D+00
                    CP:  8.42D-01
 E= -914.858309899369     Delta-E=       -0.000000000046 Rises=F Damp=F
 DIIS: error= 1.67D-07 at cycle  17 NSaved=  17.
 NSaved=17 IEnMin=17 EnMin= -914.858309899369     IErMin=17 ErrMin= 1.67D-07
 ErrMax= 1.67D-07  0.00D+00 EMaxC= 1.00D-01 BMatC= 2.52D-11 BMatP= 1.24D-10
 IDIUse=1 WtCom= 1.00D+00 WtEn= 0.00D+00
 Coeff-Com:  0.686D-06-0.827D-06 0.106D-04 0.245D-04 0.335D-04 0.465D-04
 Coeff-Com: -0.123D-03-0.116D-02-0.388D-03 0.436D-02 0.803D-02 0.144D-02
 Coeff-Com: -0.350D-01-0.392D-01-0.650D-01 0.315D+00 0.812D+00
 Coeff:      0.686D-06-0.827D-06 0.106D-04 0.245D-04 0.335D-04 0.465D-04
 Coeff:     -0.123D-03-0.116D-02-0.388D-03 0.436D-02 0.803D-02 0.144D-02
 Coeff:     -0.350D-01-0.392D-01-0.650D-01 0.315D+00 0.812D+00
 Gap=     0.099 Goal=   None    Shift=    0.000
 Gap=     0.118 Goal=   None    Shift=    0.000
 RMSDP=3.96D-08 MaxDP=1.60D-06 DE=-4.64D-11 OVMax= 4.45D-06

 Cycle  18  Pass 1  IDiag  1:
 RMSU=  2.16D-08    CP:  9.08D-01  6.97D-01  8.93D-01  5.71D-01  8.95D-01
                    CP:  7.50D-01  1.05D+00  1.16D+00  1.25D+00  1.04D+00
                    CP:  1.20D+00  1.31D+00  1.44D+00  1.28D+00  1.32D+00
                    CP:  1.00D+00  9.64D-01
 E= -914.858309899384     Delta-E=       -0.000000000016 Rises=F Damp=F
 DIIS: error= 5.31D-08 at cycle  18 NSaved=  18.
 NSaved=18 IEnMin=18 EnMin= -914.858309899384     IErMin=18 ErrMin= 5.31D-08
 ErrMax= 5.31D-08  0.00D+00 EMaxC= 1.00D-01 BMatC= 3.44D-12 BMatP= 2.52D-11
 IDIUse=1 WtCom= 1.00D+00 WtEn= 0.00D+00
 Coeff-Com:  0.138D-05-0.206D-05 0.442D-05 0.120D-04 0.414D-04 0.778D-04
 Coeff-Com:  0.455D-04-0.331D-03-0.386D-03-0.743D-03 0.292D-02 0.486D-02
 Coeff-Com: -0.270D-02-0.145D-01-0.935D-01 0.919D-01 0.383D+00 0.629D+00
 Coeff:      0.138D-05-0.206D-05 0.442D-05 0.120D-04 0.414D-04 0.778D-04
 Coeff:      0.455D-04-0.331D-03-0.386D-03-0.743D-03 0.292D-02 0.486D-02
 Coeff:     -0.270D-02-0.145D-01-0.935D-01 0.919D-01 0.383D+00 0.629D+00
 Gap=     0.099 Goal=   None    Shift=    0.000
 Gap=     0.118 Goal=   None    Shift=    0.000
 RMSDP=9.71D-09 MaxDP=5.49D-07 DE=-1.57D-11 OVMax= 1.28D-06

 Error on total polarization charges =  0.02057
 SCF Done:  E(UB3LYP) =  -914.858309899     A.U. after   18 cycles
            NFock= 18  Conv=0.97D-08     -V/T= 2.0038
 <Sx>= 0.0000 <Sy>= 0.0000 <Sz>= 0.5000 <S**2>= 0.7597 S= 0.5049
 <L.S>=  0.00000000000    
 KE= 9.113545877139D+02 PE=-4.909860262648D+03 EE= 1.708353423291D+03
 Annihilation of the first spin contaminant:
 S**2 before annihilation     0.7597,   after     0.7501
 Leave Link  502 at Sat Feb 10 22:04:56 2024, MaxMem=  4026531840 cpu:            3067.3 elap:             388.0
 (Enter /sysapps/ubuntu-applications/gaussian/Gaussian/AVX2/g16/l601.exe)
 Copying SCF densities to generalized density rwf, IOpCl= 1 IROHF=0.

 **********************************************************************

            Population analysis using the SCF density.

 **********************************************************************

 Alpha  occ. eigenvalues --  -19.15131 -19.13593 -19.13189 -19.10225 -19.07762
 Alpha  occ. eigenvalues --  -10.23962 -10.23871 -10.23748 -10.23450 -10.23433
 Alpha  occ. eigenvalues --  -10.18472 -10.18368 -10.18043 -10.17765 -10.17705
 Alpha  occ. eigenvalues --  -10.17664 -10.17189 -10.16791 -10.16456  -1.06342
 Alpha  occ. eigenvalues --   -1.06228  -1.05234  -1.01000  -1.00683  -0.86400
 Alpha  occ. eigenvalues --   -0.84822  -0.79254  -0.75068  -0.74813  -0.73712
 Alpha  occ. eigenvalues --   -0.67724  -0.64896  -0.64150  -0.59507  -0.58933
 Alpha  occ. eigenvalues --   -0.56147  -0.53971  -0.52903  -0.51126  -0.49066
 Alpha  occ. eigenvalues --   -0.47857  -0.47203  -0.45208  -0.44471  -0.44259
 Alpha  occ. eigenvalues --   -0.42851  -0.42501  -0.41749  -0.41281  -0.40392
 Alpha  occ. eigenvalues --   -0.39717  -0.38784  -0.38475  -0.37281  -0.37238
 Alpha  occ. eigenvalues --   -0.36455  -0.35883  -0.34761  -0.33259  -0.31315
 Alpha  occ. eigenvalues --   -0.27662  -0.26771  -0.25536  -0.23760  -0.23447
 Alpha  occ. eigenvalues --   -0.21787  -0.14570
 Alpha virt. eigenvalues --   -0.04666  -0.02846  -0.00253   0.00369   0.00937
 Alpha virt. eigenvalues --    0.01096   0.01951   0.02206   0.03838   0.04238
 Alpha virt. eigenvalues --    0.04459   0.04649   0.04675   0.06003   0.06295
 Alpha virt. eigenvalues --    0.06655   0.06873   0.06897   0.07929   0.08652
 Alpha virt. eigenvalues --    0.09315   0.09619   0.10001   0.10985   0.11235
 Alpha virt. eigenvalues --    0.11314   0.11739   0.12059   0.12476   0.12995
 Alpha virt. eigenvalues --    0.13117   0.13606   0.13878   0.14172   0.14207
 Alpha virt. eigenvalues --    0.14355   0.15594   0.15885   0.16526   0.16793
 Alpha virt. eigenvalues --    0.17410   0.17711   0.17843   0.18191   0.18377
 Alpha virt. eigenvalues --    0.18581   0.19018   0.19720   0.20394   0.20796
 Alpha virt. eigenvalues --    0.20837   0.21693   0.21836   0.22232   0.23219
 Alpha virt. eigenvalues --    0.23314   0.23860   0.24515   0.24963   0.25303
 Alpha virt. eigenvalues --    0.25673   0.25947   0.26186   0.26941   0.27737
 Alpha virt. eigenvalues --    0.27762   0.27954   0.28247   0.28547   0.29041
 Alpha virt. eigenvalues --    0.29065   0.29557   0.29715   0.29744   0.30118
 Alpha virt. eigenvalues --    0.30483   0.31190   0.31871   0.32002   0.32128
 Alpha virt. eigenvalues --    0.32480   0.33186   0.33317   0.33690   0.34069
 Alpha virt. eigenvalues --    0.34288   0.34798   0.35169   0.35597   0.36726
 Alpha virt. eigenvalues --    0.36990   0.37639   0.38102   0.38621   0.39060
 Alpha virt. eigenvalues --    0.40220   0.40659   0.42598   0.42847   0.44312
 Alpha virt. eigenvalues --    0.45001   0.47682   0.48319   0.48743   0.49771
 Alpha virt. eigenvalues --    0.50707   0.52572   0.53945   0.54086   0.54481
 Alpha virt. eigenvalues --    0.55051   0.56143   0.56144   0.57154   0.58436
 Alpha virt. eigenvalues --    0.59690   0.59724   0.60359   0.61043   0.61410
 Alpha virt. eigenvalues --    0.61905   0.62661   0.63743   0.64143   0.64659
 Alpha virt. eigenvalues --    0.65466   0.65526   0.66005   0.66676   0.66706
 Alpha virt. eigenvalues --    0.67413   0.67889   0.68652   0.69506   0.69816
 Alpha virt. eigenvalues --    0.70223   0.72797   0.74301   0.75979   0.77023
 Alpha virt. eigenvalues --    0.77990   0.79135   0.80312   0.80349   0.80675
 Alpha virt. eigenvalues --    0.81569   0.83835   0.84968   0.85980   0.87318
 Alpha virt. eigenvalues --    0.87545   0.88691   0.89808   0.90305   0.91718
 Alpha virt. eigenvalues --    0.92691   0.93402   0.93656   0.94934   0.95098
 Alpha virt. eigenvalues --    0.96827   0.97670   0.98541   0.98839   0.99224
 Alpha virt. eigenvalues --    1.00247   1.00465   1.02927   1.03875   1.04885
 Alpha virt. eigenvalues --    1.05611   1.06830   1.07956   1.08651   1.08682
 Alpha virt. eigenvalues --    1.09111   1.09578   1.10600   1.11657   1.12573
 Alpha virt. eigenvalues --    1.13496   1.14893   1.16862   1.17952   1.18261
 Alpha virt. eigenvalues --    1.20139   1.21964   1.22298   1.22611   1.22911
 Alpha virt. eigenvalues --    1.24470   1.25113   1.25828   1.26446   1.27630
 Alpha virt. eigenvalues --    1.28282   1.31928   1.33849   1.34976   1.36393
 Alpha virt. eigenvalues --    1.39754   1.41574   1.42492   1.43934   1.44509
 Alpha virt. eigenvalues --    1.46031   1.47168   1.48742   1.49494   1.50773
 Alpha virt. eigenvalues --    1.51638   1.51961   1.52761   1.53360   1.55575
 Alpha virt. eigenvalues --    1.55726   1.57749   1.58835   1.58869   1.61275
 Alpha virt. eigenvalues --    1.61588   1.63004   1.63485   1.66020   1.67744
 Alpha virt. eigenvalues --    1.69528   1.70702   1.72292   1.72690   1.75291
 Alpha virt. eigenvalues --    1.75438   1.76993   1.78998   1.79093   1.81320
 Alpha virt. eigenvalues --    1.84246   1.85484   1.87353   1.88342   1.88534
 Alpha virt. eigenvalues --    1.89981   1.90673   1.92443   1.92926   1.93622
 Alpha virt. eigenvalues --    1.94496   1.94634   1.95985   1.96764   1.96921
 Alpha virt. eigenvalues --    1.97092   1.99748   2.00241   2.00575   2.03858
 Alpha virt. eigenvalues --    2.04974   2.06061   2.09364   2.10833   2.11493
 Alpha virt. eigenvalues --    2.13067   2.14550   2.16435   2.17422   2.18012
 Alpha virt. eigenvalues --    2.19845   2.24528   2.29459   2.31359   2.32410
 Alpha virt. eigenvalues --    2.34852   2.36429   2.38353   2.42370   2.42945
 Alpha virt. eigenvalues --    2.45356   2.47746   2.50155   2.55392   2.56338
 Alpha virt. eigenvalues --    2.59227   2.61671   2.63413   2.63621   2.65591
 Alpha virt. eigenvalues --    2.68348   2.68846   2.71055   2.72624   2.73985
 Alpha virt. eigenvalues --    2.74292   2.74563   2.75437   2.76979   2.78946
 Alpha virt. eigenvalues --    2.79465   2.79789   2.80258   2.81197   2.81237
 Alpha virt. eigenvalues --    2.82777   2.84603   2.85208   2.87231   2.87360
 Alpha virt. eigenvalues --    2.89959   2.92042   2.94416   2.96497   3.01971
 Alpha virt. eigenvalues --    3.02848   3.08701   3.10169   3.10229   3.10869
 Alpha virt. eigenvalues --    3.11008   3.12092   3.13070   3.13117   3.15593
 Alpha virt. eigenvalues --    3.16719   3.19667   3.19990   3.20029   3.21396
 Alpha virt. eigenvalues --    3.21969   3.24373   3.25369   3.27142   3.28593
 Alpha virt. eigenvalues --    3.35117   3.35695   3.38364   3.39385   3.42880
 Alpha virt. eigenvalues --    3.44210   3.45551   3.48346   3.52073   3.54067
 Alpha virt. eigenvalues --    3.57056   3.58558   3.61145   3.63548   3.66910
 Alpha virt. eigenvalues --    3.67390   3.71524   3.83013   3.85280   3.90882
 Alpha virt. eigenvalues --    3.92745   3.93161   3.96335   4.05931   4.09007
 Alpha virt. eigenvalues --    4.12953   4.14944   4.21123   4.23378   4.29587
 Alpha virt. eigenvalues --    4.32372   4.49985   4.82618   4.83942   4.85814
 Alpha virt. eigenvalues --    5.00428   5.01936   5.02895   5.06553   5.09189
 Alpha virt. eigenvalues --    5.28570   5.36627   5.49675   5.51979   5.53877
 Alpha virt. eigenvalues --    5.70627   5.76183   5.81089   5.84579   5.86292
 Alpha virt. eigenvalues --   23.51332  23.67785  23.86509  23.88577  23.90936
 Alpha virt. eigenvalues --   23.92920  23.94902  23.96948  23.99155  24.03821
 Alpha virt. eigenvalues --   24.05440  24.08842  24.16885  24.18632  49.95388
 Alpha virt. eigenvalues --   49.98984  50.02566  50.05861  50.11518
  Beta  occ. eigenvalues --  -19.15107 -19.13560 -19.13134 -19.09785 -19.07279
  Beta  occ. eigenvalues --  -10.23830 -10.23744 -10.23642 -10.23368 -10.23354
  Beta  occ. eigenvalues --  -10.18494 -10.18292 -10.18074 -10.17649 -10.17585
  Beta  occ. eigenvalues --  -10.17576 -10.17116 -10.16749 -10.16458  -1.06274
  Beta  occ. eigenvalues --   -1.06039  -1.05131  -1.00191  -0.99951  -0.86140
  Beta  occ. eigenvalues --   -0.84671  -0.78860  -0.74873  -0.74507  -0.73541
  Beta  occ. eigenvalues --   -0.67064  -0.64684  -0.63947  -0.59376  -0.58756
  Beta  occ. eigenvalues --   -0.56018  -0.53768  -0.52780  -0.51008  -0.48842
  Beta  occ. eigenvalues --   -0.47684  -0.47067  -0.45113  -0.44142  -0.43630
  Beta  occ. eigenvalues --   -0.42592  -0.42349  -0.41371  -0.40926  -0.39699
  Beta  occ. eigenvalues --   -0.39590  -0.38697  -0.37436  -0.37147  -0.36368
  Beta  occ. eigenvalues --   -0.35751  -0.35600  -0.34634  -0.32545  -0.30633
  Beta  occ. eigenvalues --   -0.26449  -0.26011  -0.25084  -0.23321  -0.22544
  Beta  occ. eigenvalues --   -0.20965
  Beta virt. eigenvalues --   -0.09172  -0.03388  -0.01820  -0.00237   0.00378
  Beta virt. eigenvalues --    0.00957   0.01488   0.01966   0.02215   0.03852
  Beta virt. eigenvalues --    0.04257   0.04562   0.04693   0.05585   0.06307
  Beta virt. eigenvalues --    0.06358   0.06770   0.06902   0.07771   0.07945
  Beta virt. eigenvalues --    0.08683   0.09417   0.09766   0.10046   0.11032
  Beta virt. eigenvalues --    0.11248   0.11332   0.11759   0.12075   0.12492
  Beta virt. eigenvalues --    0.13028   0.13228   0.13631   0.14114   0.14254
  Beta virt. eigenvalues --    0.14375   0.14491   0.15648   0.15944   0.16533
  Beta virt. eigenvalues --    0.16798   0.17512   0.17778   0.18011   0.18360
  Beta virt. eigenvalues --    0.18447   0.18624   0.19143   0.19769   0.20550
  Beta virt. eigenvalues --    0.20820   0.21177   0.21712   0.21883   0.22291
  Beta virt. eigenvalues --    0.23253   0.23363   0.24270   0.24602   0.25007
  Beta virt. eigenvalues --    0.25344   0.25786   0.26047   0.26245   0.27000
  Beta virt. eigenvalues --    0.27779   0.27884   0.28094   0.28408   0.28587
  Beta virt. eigenvalues --    0.29119   0.29127   0.29622   0.29824   0.30038
  Beta virt. eigenvalues --    0.30203   0.30540   0.31288   0.31972   0.32077
  Beta virt. eigenvalues --    0.32192   0.32598   0.33244   0.33391   0.33770
  Beta virt. eigenvalues --    0.34233   0.34507   0.34912   0.35208   0.35633
  Beta virt. eigenvalues --    0.36745   0.37032   0.37737   0.38186   0.38736
  Beta virt. eigenvalues --    0.39169   0.40316   0.40709   0.42683   0.43090
  Beta virt. eigenvalues --    0.44396   0.45083   0.47790   0.48453   0.48896
  Beta virt. eigenvalues --    0.49916   0.50889   0.52652   0.54196   0.54206
  Beta virt. eigenvalues --    0.54595   0.55273   0.56227   0.56633   0.57312
  Beta virt. eigenvalues --    0.58516   0.59790   0.60003   0.60743   0.61259
  Beta virt. eigenvalues --    0.61573   0.62013   0.62728   0.63844   0.64516
  Beta virt. eigenvalues --    0.64738   0.65523   0.65954   0.66136   0.66738
  Beta virt. eigenvalues --    0.66940   0.67463   0.68105   0.68709   0.69589
  Beta virt. eigenvalues --    0.70147   0.70321   0.72944   0.74579   0.76031
  Beta virt. eigenvalues --    0.77072   0.78051   0.79168   0.80369   0.80547
  Beta virt. eigenvalues --    0.80750   0.81652   0.83919   0.85127   0.86178
  Beta virt. eigenvalues --    0.87423   0.87659   0.88822   0.89979   0.90381
  Beta virt. eigenvalues --    0.91881   0.92765   0.93502   0.93802   0.95240
  Beta virt. eigenvalues --    0.95399   0.96889   0.97796   0.98820   0.99015
  Beta virt. eigenvalues --    0.99393   1.00453   1.00609   1.03043   1.04143
  Beta virt. eigenvalues --    1.04968   1.06006   1.06965   1.08172   1.08823
  Beta virt. eigenvalues --    1.08969   1.09414   1.10155   1.11052   1.11724
  Beta virt. eigenvalues --    1.13131   1.13971   1.15030   1.16980   1.18290
  Beta virt. eigenvalues --    1.18382   1.20318   1.22054   1.22553   1.22706
  Beta virt. eigenvalues --    1.23380   1.24961   1.25245   1.25965   1.26842
  Beta virt. eigenvalues --    1.27796   1.28450   1.32064   1.34060   1.35020
  Beta virt. eigenvalues --    1.36546   1.39826   1.41632   1.42640   1.44095
  Beta virt. eigenvalues --    1.44708   1.46168   1.47431   1.48846   1.49892
  Beta virt. eigenvalues --    1.50851   1.51723   1.52055   1.53142   1.53440
  Beta virt. eigenvalues --    1.55818   1.55925   1.57930   1.58961   1.59044
  Beta virt. eigenvalues --    1.61422   1.61840   1.63168   1.63714   1.66172
  Beta virt. eigenvalues --    1.67863   1.69811   1.70811   1.72652   1.72844
  Beta virt. eigenvalues --    1.75437   1.75570   1.77073   1.79226   1.79368
  Beta virt. eigenvalues --    1.81457   1.84426   1.85547   1.87578   1.88453
  Beta virt. eigenvalues --    1.88840   1.90294   1.90956   1.92600   1.93133
  Beta virt. eigenvalues --    1.93783   1.94762   1.94764   1.96184   1.96960
  Beta virt. eigenvalues --    1.97074   1.97449   1.99925   2.00567   2.00753
  Beta virt. eigenvalues --    2.04063   2.05072   2.06253   2.09475   2.11157
  Beta virt. eigenvalues --    2.11691   2.13224   2.14673   2.16765   2.17514
  Beta virt. eigenvalues --    2.18142   2.20066   2.24816   2.29591   2.31708
  Beta virt. eigenvalues --    2.32761   2.35057   2.36760   2.38455   2.42535
  Beta virt. eigenvalues --    2.43040   2.45455   2.47910   2.50259   2.55459
  Beta virt. eigenvalues --    2.56420   2.59370   2.62200   2.63444   2.63961
  Beta virt. eigenvalues --    2.65705   2.68892   2.68907   2.71629   2.72644
  Beta virt. eigenvalues --    2.74049   2.74327   2.74956   2.75461   2.77010
  Beta virt. eigenvalues --    2.78999   2.79512   2.80321   2.80356   2.81321
  Beta virt. eigenvalues --    2.81719   2.83296   2.84765   2.85981   2.87719
  Beta virt. eigenvalues --    2.88087   2.89974   2.92437   2.95403   2.97474
  Beta virt. eigenvalues --    3.02557   3.02951   3.08981   3.10305   3.10480
  Beta virt. eigenvalues --    3.11055   3.11134   3.12340   3.13400   3.13465
  Beta virt. eigenvalues --    3.15709   3.16808   3.19804   3.20153   3.20192
  Beta virt. eigenvalues --    3.21478   3.22093   3.24811   3.25744   3.28425
  Beta virt. eigenvalues --    3.28781   3.35194   3.36932   3.38439   3.39506
  Beta virt. eigenvalues --    3.42982   3.44320   3.45680   3.48483   3.52224
  Beta virt. eigenvalues --    3.54205   3.57167   3.58660   3.61288   3.63729
  Beta virt. eigenvalues --    3.67014   3.67530   3.71632   3.83409   3.85464
  Beta virt. eigenvalues --    3.90958   3.92948   3.93213   3.96503   4.06064
  Beta virt. eigenvalues --    4.09184   4.13058   4.15068   4.21227   4.23457
  Beta virt. eigenvalues --    4.29814   4.32639   4.50275   4.82920   4.84178
  Beta virt. eigenvalues --    4.85959   5.00568   5.02142   5.03143   5.08297
  Beta virt. eigenvalues --    5.11113   5.28925   5.36898   5.49715   5.52061
  Beta virt. eigenvalues --    5.53985   5.70834   5.76345   5.81307   5.84847
  Beta virt. eigenvalues --    5.86387  23.51414  23.67850  23.86645  23.88686
  Beta virt. eigenvalues --   23.91035  23.93020  23.95031  23.96978  23.99243
  Beta virt. eigenvalues --   24.03890  24.05532  24.08884  24.16984  24.18683
  Beta virt. eigenvalues --   49.95416  49.99034  50.02617  50.06296  50.11987
          Condensed to atoms (all electrons):
               1          2          3          4          5          6
     1  O    8.289510   0.320757  -0.433752   0.051933   0.018448  -0.007116
     2  C    0.320757  13.568420   1.005618  -0.374221   2.221757  -1.249884
     3  C   -0.433752   1.005618  10.007765   0.315877  -0.780090  -0.047992
     4  C    0.051933  -0.374221   0.315877   8.490920   0.251455  -1.873287
     5  C    0.018448   2.221757  -0.780090   0.251455   9.614759   0.368339
     6  C   -0.007116  -1.249884  -0.047992  -1.873287   0.368339   9.655820
     7  C    0.012845  -0.829653  -0.293430  -0.236511  -1.823118   0.450852
     8  O   -0.000015  -0.021115  -0.014670   0.107246   0.069760  -0.374242
     9  C   -0.029305  -2.556910  -0.529289  -0.055192  -1.309892  -1.381928
    10  C   -0.004801  -0.984923  -0.122125   0.142320  -0.284053  -0.632178
    11  O   -0.000001  -0.000578  -0.000282   0.001411   0.021506   0.056053
    12  C   -0.000291  -0.330814  -0.016280   0.038611  -0.011368   0.273074
    13  C    0.005454  -0.033648  -0.000571  -0.012115  -0.092441  -0.315703
    14  C   -0.011058  -0.852491  -0.045317  -0.230036  -0.530500  -1.479292
    15  O   -0.002236  -0.010926   0.005130  -0.000606  -0.005250  -0.021475
    16  C   -0.058552  -0.576610   0.391655  -0.454981  -1.040520  -0.679418
    17  C   -0.194393  -2.990888  -0.555229  -0.356826  -0.824168   1.638138
    18  O    0.029768  -0.150010  -0.017114  -0.000817   0.001400   0.023851
    19  C    0.227593   0.008891  -3.162576   0.232900   0.048978   1.311686
    20  H    0.211441  -0.060873   0.037583  -0.000078  -0.000281  -0.010497
    21  H   -0.027913  -0.139450   0.640003  -0.050245   0.013791   0.015832
    22  H    0.001107   0.013381  -0.137563   0.475771  -0.094820  -0.033317
    23  H    0.000091   0.035452   0.011115  -0.088525   0.372871   0.016166
    24  H   -0.000007  -0.001854  -0.000027   0.000165  -0.006105  -0.026465
    25  H   -0.000002   0.001452   0.000362  -0.000010   0.001752   0.014308
    26  H    0.000047   0.001297  -0.000003  -0.000175  -0.001629  -0.012675
    27  H    0.000490  -0.005407  -0.000013   0.000300  -0.005026   0.008751
               7          8          9         10         11         12
     1  O    0.012845  -0.000015  -0.029305  -0.004801  -0.000001  -0.000291
     2  C   -0.829653  -0.021115  -2.556910  -0.984923  -0.000578  -0.330814
     3  C   -0.293430  -0.014670  -0.529289  -0.122125  -0.000282  -0.016280
     4  C   -0.236511   0.107246  -0.055192   0.142320   0.001411   0.038611
     5  C   -1.823118   0.069760  -1.309892  -0.284053   0.021506  -0.011368
     6  C    0.450852  -0.374242  -1.381928  -0.632178   0.056053   0.273074
     7  C    9.540536   0.593310   0.207312  -3.389940  -0.016827  -0.906442
     8  O    0.593310   8.387738  -0.245146   0.017647  -0.000117   0.044975
     9  C    0.207312  -0.245146  11.800134   1.467941  -0.507962  -2.356839
    10  C   -3.389940   0.017647   1.467941  13.521076   0.135950   0.686988
    11  O   -0.016827  -0.000117  -0.507962   0.135950   8.146176   0.318821
    12  C   -0.906442   0.044975  -2.356839   0.686988   0.318821  10.865505
    13  C   -0.270335  -0.009392  -0.394861  -1.649513   0.081823   0.779032
    14  C   -1.603332   0.000681   0.322618   3.088811  -0.007914   0.249458
    15  O    0.018283  -0.000071   0.020128   0.020814   0.000229   0.052230
    16  C    1.697279  -0.044803   2.888212  -1.469052  -0.109092  -1.706239
    17  C    1.573047  -0.027823   0.828927  -1.566931   0.004448  -0.924211
    18  O   -0.005054   0.000115  -0.001679  -0.002055   0.000018  -0.003731
    19  C    1.598010  -0.052709  -2.486669  -2.775498  -0.018701  -0.957301
    20  H    0.006022  -0.000144   0.005647  -0.006237   0.000001   0.000692
    21  H   -0.015055  -0.000315  -0.011193  -0.001410  -0.000008  -0.000053
    22  H    0.022976   0.002739   0.011548   0.003474   0.000015   0.000303
    23  H    0.013117  -0.000796  -0.028945  -0.023365  -0.000195  -0.004131
    24  H   -0.055353  -0.001425   0.156774   0.262301   0.165665  -0.307008
    25  H    0.059610   0.001959   0.009988  -0.204776  -0.019217   0.425695
    26  H   -0.025090  -0.000336   0.002898   0.050824  -0.000949  -0.028839
    27  H   -0.007258   0.000049  -0.005811   0.023399   0.000285   0.010447
              13         14         15         16         17         18
     1  O    0.005454  -0.011058  -0.002236  -0.058552  -0.194393   0.029768
     2  C   -0.033648  -0.852491  -0.010926  -0.576610  -2.990888  -0.150010
     3  C   -0.000571  -0.045317   0.005130   0.391655  -0.555229  -0.017114
     4  C   -0.012115  -0.230036  -0.000606  -0.454981  -0.356826  -0.000817
     5  C   -0.092441  -0.530500  -0.005250  -1.040520  -0.824168   0.001400
     6  C   -0.315703  -1.479292  -0.021475  -0.679418   1.638138   0.023851
     7  C   -0.270335  -1.603332   0.018283   1.697279   1.573047  -0.005054
     8  O   -0.009392   0.000681  -0.000071  -0.044803  -0.027823   0.000115
     9  C   -0.394861   0.322618   0.020128   2.888212   0.828927  -0.001679
    10  C   -1.649513   3.088811   0.020814  -1.469052  -1.566931  -0.002055
    11  O    0.081823  -0.007914   0.000229  -0.109092   0.004448   0.000018
    12  C    0.779032   0.249458   0.052230  -1.706239  -0.924211  -0.003731
    13  C   10.306824  -0.258106  -0.458604  -2.784313  -0.023073  -0.025825
    14  C   -0.258106  14.110218   0.327576  -1.033031  -4.074758  -0.170730
    15  O   -0.458604   0.327576   8.318799   0.176346  -0.193316   0.029208
    16  C   -2.784313  -1.033031   0.176346  11.378348   0.932966  -0.183087
    17  C   -0.023073  -4.074758  -0.193316   0.932966  11.017261   0.489065
    18  O   -0.025825  -0.170730   0.029208  -0.183087   0.489065   8.551557
    19  C    0.715095  -1.378041  -0.041111  -1.831909   1.457075  -0.123345
    20  H    0.005422   0.008966   0.001425   0.008151   0.089644   0.068899
    21  H    0.000217   0.001713   0.000057   0.006829  -0.009919   0.000597
    22  H    0.000220   0.000309  -0.000013  -0.005400   0.002715  -0.000158
    23  H    0.002543  -0.001442  -0.000039  -0.004854  -0.004393  -0.000057
    24  H   -0.031372   0.039825  -0.000051   0.028525  -0.011249   0.000014
    25  H   -0.044138  -0.032089   0.001464   0.070675   0.016826  -0.000215
    26  H    0.601814  -0.150307  -0.030351  -0.108820  -0.006335   0.000665
    27  H    0.028831  -0.012122   0.206709  -0.079009   0.085479   0.064695
              19         20         21         22         23         24
     1  O    0.227593   0.211441  -0.027913   0.001107   0.000091  -0.000007
     2  C    0.008891  -0.060873  -0.139450   0.013381   0.035452  -0.001854
     3  C   -3.162576   0.037583   0.640003  -0.137563   0.011115  -0.000027
     4  C    0.232900  -0.000078  -0.050245   0.475771  -0.088525   0.000165
     5  C    0.048978  -0.000281   0.013791  -0.094820   0.372871  -0.006105
     6  C    1.311686  -0.010497   0.015832  -0.033317   0.016166  -0.026465
     7  C    1.598010   0.006022  -0.015055   0.022976   0.013117  -0.055353
     8  O   -0.052709  -0.000144  -0.000315   0.002739  -0.000796  -0.001425
     9  C   -2.486669   0.005647  -0.011193   0.011548  -0.028945   0.156774
    10  C   -2.775498  -0.006237  -0.001410   0.003474  -0.023365   0.262301
    11  O   -0.018701   0.000001  -0.000008   0.000015  -0.000195   0.165665
    12  C   -0.957301   0.000692  -0.000053   0.000303  -0.004131  -0.307008
    13  C    0.715095   0.005422   0.000217   0.000220   0.002543  -0.031372
    14  C   -1.378041   0.008966   0.001713   0.000309  -0.001442   0.039825
    15  O   -0.041111   0.001425   0.000057  -0.000013  -0.000039  -0.000051
    16  C   -1.831909   0.008151   0.006829  -0.005400  -0.004854   0.028525
    17  C    1.457075   0.089644  -0.009919   0.002715  -0.004393  -0.011249
    18  O   -0.123345   0.068899   0.000597  -0.000158  -0.000057   0.000014
    19  C   12.915506  -0.074275  -0.115524   0.053332   0.039542  -0.009409
    20  H   -0.074275   0.314162   0.000373  -0.000042   0.000868  -0.000038
    21  H   -0.115524   0.000373   0.525081  -0.018929   0.001201  -0.000001
    22  H    0.053332  -0.000042  -0.018929   0.527687  -0.016479   0.000001
    23  H    0.039542   0.000868   0.001201  -0.016479   0.522973  -0.000065
    24  H   -0.009409  -0.000038  -0.000001   0.000001  -0.000065   0.506794
    25  H    0.002192   0.000023   0.000002  -0.000007  -0.000090  -0.002716
    26  H    0.009265  -0.000189  -0.000000   0.000002   0.000010   0.000930
    27  H   -0.019018  -0.003972  -0.000222   0.000007  -0.000222   0.000175
              25         26         27
     1  O   -0.000002   0.000047   0.000490
     2  C    0.001452   0.001297  -0.005407
     3  C    0.000362  -0.000003  -0.000013
     4  C   -0.000010  -0.000175   0.000300
     5  C    0.001752  -0.001629  -0.005026
     6  C    0.014308  -0.012675   0.008751
     7  C    0.059610  -0.025090  -0.007258
     8  O    0.001959  -0.000336   0.000049
     9  C    0.009988   0.002898  -0.005811
    10  C   -0.204776   0.050824   0.023399
    11  O   -0.019217  -0.000949   0.000285
    12  C    0.425695  -0.028839   0.010447
    13  C   -0.044138   0.601814   0.028831
    14  C   -0.032089  -0.150307  -0.012122
    15  O    0.001464  -0.030351   0.206709
    16  C    0.070675  -0.108820  -0.079009
    17  C    0.016826  -0.006335   0.085479
    18  O   -0.000215   0.000665   0.064695
    19  C    0.002192   0.009265  -0.019018
    20  H    0.000023  -0.000189  -0.003972
    21  H    0.000002  -0.000000  -0.000222
    22  H   -0.000007   0.000002   0.000007
    23  H   -0.000090   0.000010  -0.000222
    24  H   -0.002716   0.000930   0.000175
    25  H    0.543949  -0.018409  -0.000015
    26  H   -0.018409   0.521010  -0.000254
    27  H   -0.000015  -0.000254   0.309046
          Atomic-Atomic Spin Densities.
               1          2          3          4          5          6
     1  O    0.015230  -0.015976  -0.002441   0.000754   0.000008  -0.002594
     2  C   -0.015976  -0.028607   0.036635  -0.013886  -0.017974   0.044657
     3  C   -0.002441   0.036635  -0.004678  -0.035869   0.000155   0.020812
     4  C    0.000754  -0.013886  -0.035869   0.025649   0.037412   0.019853
     5  C    0.000008  -0.017974   0.000155   0.037412  -0.045484  -0.042910
     6  C   -0.002594   0.044657   0.020812   0.019853  -0.042910   0.095803
     7  C    0.000299   0.007395  -0.009072   0.006909   0.034516   0.020063
     8  O    0.000015  -0.000297   0.000211  -0.000113   0.008723  -0.019746
     9  C    0.001320   0.030304   0.006505  -0.003066  -0.000761   0.036920
    10  C    0.000389   0.009843   0.000216  -0.001661  -0.007939   0.001530
    11  O   -0.000000   0.000068   0.000011  -0.000030  -0.000588   0.001832
[...]
 -0.00002703,-0.00042858,-0.00138367,0.00045529,0.01068143,-0.00497905,
 0.00067871,-0.00772886,-0.01183315,0.00061880,0.00045414,0.00050825,-0
 .00001239,0.10418026,0.12749639,0.01359069,0.01041090,-0.02068077,0.00
 756390,0.00523080,-0.00271715,-0.00051267,0.00120662,0.00267234,0.0002
 6237,0.00036225,0.00159650,-0.00001352,-0.00008776,0.00010073,0.000208
 58,-0.00001567,-0.00059151,-0.00005787,0.00006889,-0.00013156,0.000040
 78,-0.00014326,0.00006830,-0.00010423,0.00000033,0.00024446,0.00004903
 ,0.00005787,-0.00007185,0.00000837,-0.00005616,-0.00002669,-0.00001490
 ,-0.00005282,0.00005881,0.00000800,0.00000210,-0.00029021,0.00005063,0
 .00003294,0.00028381,0.00018082,0.00002109,0.00024947,0.00007130,0.000
 51933,0.00108202,-0.00191710,0.00052218,-0.00079377,0.00101062,0.00073
 597,-0.00838148,-0.00001932,-0.00006913,0.00027118,-0.02015647,-0.0184
 2613,0.02902901,0.00253827,0.00096495,-0.00021342,-0.01982478,0.016289
 11,-0.00259270,-0.27230301,0.11438807,-0.01773475,0.00377966,-0.002142
 31,0.00034739,0.00173228,-0.00047175,0.00011028,-0.00010452,-0.0007393
 6,0.00011781,0.00023077,-0.00041399,0.00005775,-0.00006922,0.00045150,
 -0.00006443,0.00006936,-0.00002228,0.00000925,-0.00006991,-0.00017025,
 0.00003136,-0.00004775,0.00015115,-0.00003224,0.00004580,0.00011361,-0
 .00001983,-0.00005196,-0.00014954,0.00002746,-0.00006600,0.00028831,-0
 .00005480,-0.00002664,-0.00011628,0.00002112,-0.00048861,-0.00041713,0
 .00006667,-0.00020863,0.00157277,-0.00026520,0.00027043,-0.00033357,0.
 00005543,-0.00286946,-0.00393538,0.00073564,-0.00018168,0.00003208,-0.
 00000929,0.28691385,0.00107447,0.00184714,-0.00090602,-0.01502368,0.00
 950828,-0.00068981,0.11625314,-0.11893748,0.01399125,0.02775808,-0.008
 78431,0.00151558,-0.00132133,-0.00491358,0.00186936,-0.00072648,-0.000
 62076,-0.00001847,0.00019616,0.00000335,-0.00010632,0.00022702,0.00002
 760,-0.00000812,-0.00004863,-0.00016659,0.00006098,0.00010833,0.000097
 49,-0.00002117,0.00001414,-0.00006154,0.00001264,-0.00002820,-0.000167
 21,0.00003367,-0.00008712,0.00014116,-0.00002260,0.00009125,-0.0000096
 6,0.00001496,0.00000304,0.00007704,-0.00001739,-0.00034409,-0.00007864
 ,-0.00008530,-0.00040543,0.00038652,-0.00001093,0.00010900,0.00021775,
 -0.00004446,-0.00273955,-0.00149408,0.00126322,-0.00026513,0.00011533,
 -0.00012330,-0.12563343,0.12200905,-0.00022735,-0.00090987,-0.00356496
 ,0.00268894,-0.00092860,0.00498940,-0.01802365,0.01403446,-0.03407754,
 -0.00472680,0.00171822,0.00105767,0.00024570,0.00185487,0.00571075,0.0
 0013206,0.00000620,-0.00072586,-0.00002880,-0.00009657,-0.00059593,-0.
 00004137,-0.00000933,0.00000107,0.00000131,0.00005326,0.00016010,-0.00
 001547,-0.00001827,-0.00000724,-0.00000320,0.00001149,-0.00000011,0.00
 000368,0.00002915,0.00001187,0.00001545,-0.00001591,0.00003484,-0.0000
 1692,0.00001160,0.00005904,-0.00000008,-0.00001523,-0.00001460,0.00006
 359,-0.00008789,-0.00055046,0.00007284,-0.00001819,0.00029900,-0.00002
 013,-0.00004559,-0.00001113,0.00052119,0.00126608,0.00560658,0.0000380
 4,-0.00012604,-0.00061195,0.01948380,-0.01605406,0.02513724,-0.0000561
 6,-0.00048399,0.00008355,0.00168047,0.00158710,-0.00022766,0.00411550,
 0.00269296,-0.00046342,-0.25877718,-0.12033032,0.02216512,-0.01915232,
 -0.01625626,0.00292909,-0.00296908,0.00416020,-0.00059446,-0.00018053,
 -0.00162495,0.00026280,-0.00008926,0.00032499,-0.00003948,-0.00059978,
 0.00037784,-0.00007327,-0.00003421,-0.00032384,0.00005855,-0.00005783,
 0.00014199,-0.00003067,-0.00007874,0.00016728,-0.00003254,0.00006389,-
 0.00010865,0.00002060,-0.00008657,0.00017961,-0.00003445,-0.00005500,-
 0.00017309,0.00003079,0.00002720,0.00003904,-0.00000311,0.00019259,0.0
 0030409,-0.00005578,-0.00014559,-0.00043003,0.00007737,0.00014100,0.00
 051580,-0.00010226,0.00014697,0.00009164,-0.00001936,0.00067208,-0.000
 41376,0.00003927,0.27387543,-0.00193774,-0.00137947,0.00026024,0.00212
 291,-0.00377991,0.00175454,-0.02752720,-0.01124107,0.00265956,-0.12018
 489,-0.13071202,0.01694404,0.01387466,0.01130387,-0.00135821,0.0031736
 3,-0.00047788,0.00133634,0.00025738,0.00054911,-0.00003066,-0.00010442
 ,0.00007781,0.00003478,0.00036585,-0.00002039,-0.00010994,-0.00009805,
 -0.00002278,0.00000381,-0.00001478,0.00006860,-0.00001739,0.00005781,0
 .00017853,-0.00002186,0.00005982,-0.00016956,0.00002875,-0.00013257,0.
 00009365,-0.00000886,-0.00004258,-0.00006536,0.00000656,0.00008734,-0.
 00018110,0.00007594,-0.00019263,0.00015637,-0.00016554,-0.00021999,-0.
 00001899,0.00001991,0.00059702,-0.00059056,-0.00007499,0.00050981,-0.0
 0032340,0.00001135,0.00044128,0.00121442,-0.00079858,0.12945726,0.1346
 2908,0.00032561,0.00024117,0.00001319,-0.00031897,0.00175594,0.0063087
 3,0.00465174,0.00241664,0.00275741,0.02214433,0.01695797,-0.03959330,-
 0.00217288,-0.00112063,0.00415157,-0.00048234,0.00134662,0.00741170,-0
 .00001810,-0.00003807,0.00035232,0.00003593,0.00002932,0.00026998,-0.0
 0006033,-0.00012064,-0.00067507,0.00002124,0.00000210,-0.00001492,0.00
 000463,-0.00001844,-0.00001142,-0.00001215,-0.00003017,0.00005513,-0.0
 0001358,0.00003422,-0.00002440,0.00003008,-0.00000995,0.00005192,0.000
 00809,0.00001004,-0.00002984,-0.00002796,0.00009007,0.00025314,0.00004
 413,-0.00017078,-0.00076678,0.00003462,0.00003012,0.00007160,-0.000118
 16,-0.00009734,-0.00101320,-0.00008548,0.00001592,-0.00022306,-0.00010
 349,-0.00078641,-0.00330442,-0.02392398,-0.01963520,0.02850091,0.00036
 343,-0.00002098,-0.00000154,-0.00127160,0.00002747,-0.00000802,-0.0040
 5849,0.00149576,-0.00015637,0.00253945,0.02770663,-0.00466525,-0.05593
 603,0.00851898,-0.00137803,0.00653132,-0.02647186,0.00447655,-0.000756
 81,-0.00166123,0.00022130,0.00029119,0.00157643,-0.00035361,0.00083952
 ,0.00053745,-0.00006551,-0.00025925,0.00006576,-0.00000572,0.00009219,
 -0.00001839,0.00000318,0.00009170,0.00010188,-0.00002081,-0.00007482,-
 0.00006916,0.00001431,0.00009011,0.00000406,-0.00000040,-0.00009423,0.
 00012408,-0.00002361,0.00007919,-0.00020320,0.00003279,0.00099979,-0.0
 0120353,0.00020231,-0.00057091,-0.00036173,0.00006785,-0.00481951,-0.0
 0124738,0.00025792,-0.00009897,0.00008544,-0.00001553,0.00002612,0.001
 21491,-0.00020434,0.00132574,-0.00062922,0.00005163,0.05448002,0.00005
 391,-0.00001631,-0.00008454,-0.00028800,0.00042259,-0.00022352,0.00234
 206,0.00145932,0.00096726,-0.00180972,-0.00864748,0.00193268,0.0080283
 7,-0.33097070,0.05013080,-0.00071691,-0.01304984,0.00265177,0.00162531
 ,-0.00390494,0.00001914,0.00290514,0.00203308,-0.00042223,-0.00004241,
 0.00025357,-0.00005058,-0.00016772,-0.00023813,0.00005598,-0.00000583,
 0.00013746,-0.00003002,0.00004333,0.00015404,-0.00002318,-0.00001794,-
 0.00012812,0.00002154,-0.00002782,0.00008539,-0.00001189,-0.00007101,-
 0.00003376,0.00000558,-0.00004616,-0.00010840,0.00001115,0.00057798,-0
 .00037175,0.00013899,-0.00032598,-0.00033098,0.00004783,-0.00244526,0.
 00060300,0.00083744,-0.00006712,0.00003816,-0.00003264,-0.00016824,-0.
 00042005,0.00014053,0.00009776,0.00068464,-0.00090497,-0.00958841,0.35
 233582,-0.00001659,-0.00007367,-0.00051623,0.00006264,-0.00022466,-0.0
 0086050,-0.00031212,0.00099733,0.00722115,0.00031199,0.00174727,0.0024
 2340,-0.00108384,0.05010058,-0.04268271,-0.00007933,0.00282842,0.00215
 521,-0.00020009,0.00003608,-0.00320037,-0.00064812,-0.00039651,-0.0000
 1902,-0.00003611,-0.00007802,-0.00007654,0.00003898,0.00004777,0.00008
 116,-0.00000052,-0.00002466,-0.00002234,-0.00001001,-0.00003251,0.0000
 2136,0.00000309,0.00002684,-0.00001275,0.00000065,-0.00000982,0.000039
 54,0.00001326,0.00000550,-0.00000266,0.00000453,0.00002527,-0.00005182
 ,-0.00009996,0.00014357,0.00042348,0.00005859,0.00004809,-0.00006012,0
 .00047351,0.00082939,0.00534208,0.00000736,-0.00003475,-0.00014954,0.0
 0003087,0.00013171,0.00039050,-0.00006559,-0.00091600,-0.00458194,0.00
 156794,-0.05517373,0.03414484,0.00003813,-0.00002720,0.00000386,0.0000
 3619,0.00007289,-0.00001667,-0.00004575,-0.00001865,0.00000396,0.00004
 506,0.00006185,-0.00001526,-0.00003330,0.00000687,0.00000667,0.0000225
 8,0.00019091,0.00001689,-0.00092891,-0.00214721,0.00032783,-0.00225938
 ,0.00112905,-0.00035547,0.00364766,-0.00068261,0.00018985,-0.00561452,
 0.00259889,-0.00056307,-0.48616362,0.11295936,-0.03196439,0.00371429,-
 0.00700346,0.00141434,-0.00109933,0.00032859,-0.00006128,0.00071338,0.
 00044688,-0.00006673,-0.00001926,-0.00077720,0.00013733,-0.00043900,-0
 .00083787,0.00009256,-0.00016106,0.00030782,-0.00004625,0.00007425,-0.
 00029619,0.00005017,-0.00011409,0.00000453,-0.00000426,-0.00007541,0.0
 0000898,-0.00000119,0.00000500,0.00000102,-0.00000027,-0.00000187,0.00
 000182,0.00000002,0.00002739,0.00001726,-0.00000396,0.48890661,-0.0000
 5613,0.00022484,-0.00004776,-0.00020475,-0.00025039,0.00006245,0.00008
 889,0.00028984,-0.00005449,0.00007405,-0.00029146,0.00006685,-0.000253
 77,0.00006745,-0.00005518,0.00014452,-0.00002276,-0.00009393,-0.000146
 73,-0.00082508,0.00008725,-0.00214248,0.00071573,-0.00008372,-0.001903
 10,-0.00610395,0.00139250,0.04827427,-0.02148242,0.00474956,0.06118415
 ,-0.05681860,0.01140930,0.00299425,0.00284514,-0.00064631,-0.00005076,
 -0.00099572,-0.00004267,-0.00049829,-0.00000680,0.00001649,-0.00020741
 ,0.00055037,-0.00008305,0.00166849,0.00053526,0.00015267,-0.00033204,-
 0.00093643,0.00013817,0.00007585,0.00050465,-0.00009505,0.00020055,0.0
 0027887,-0.00001378,0.00008717,-0.00004786,0.00001498,-0.00001646,0.00
 001408,-0.00000176,-0.00002269,-0.00001057,0.00000396,0.00002218,-0.00
 000237,0.00000585,-0.10667896,0.08170609,0.00000733,-0.00004765,-0.000
 02730,0.00004541,0.00006266,0.00008974,-0.00001838,-0.00005807,-0.0000
 2324,-0.00000960,0.00006667,0.00008072,0.00003762,-0.00004469,-0.00016
 942,-0.00002003,-0.00007420,-0.00053192,-0.00000881,-0.00005517,-0.000
 33938,0.00018302,0.00005545,0.00093956,0.00053237,0.00144946,0.0015532
 1,-0.00926134,0.00365515,-0.00271157,-0.02219379,0.01256893,-0.0079912
 1,-0.00042599,-0.00085010,0.00021185,0.00001552,-0.00004922,-0.0011282
 4,0.00007693,0.00003696,0.00017212,0.00004052,-0.00009685,0.00008477,-
 0.00034019,0.00010841,0.00111394,0.00006045,0.00016182,-0.00013127,-0.
 00001602,-0.00009150,0.00000965,-0.00003948,-0.00001540,0.00015467,-0.
 00001424,0.00001126,0.00001870,0.00000316,-0.00000125,0.00000327,0.000
 00446,0.00000292,0.00000627,0.00000141,0.00000441,0.00002384,0.0308009
 4,-0.01706948,0.00804214,-0.00006621,0.00012170,-0.00001957,0.00000449
 ,-0.00013823,0.00002294,0.00001402,0.00002980,-0.00000472,-0.00008017,
 -0.00008362,0.00001504,-0.00007058,0.00017893,-0.00002650,-0.00050265,
 -0.00036662,0.00005666,-0.00008142,0.00167071,-0.00027950,0.00008994,-
 0.00039556,0.00006882,-0.00267914,-0.00438545,0.00063758,-0.01969956,0
 .01536347,-0.00320318,0.00241987,0.00140847,-0.00016761,-0.27580426,0.
 10554208,-0.02324468,0.00233544,-0.00123612,0.00023262,0.00197972,-0.0
 0110584,0.00012501,-0.00024108,0.00045451,-0.00009252,0.00019954,-0.00
 056813,0.00012112,0.00021102,-0.00026218,0.00005038,-0.00016903,0.0003
 5288,-0.00006317,-0.00002060,-0.00004387,0.00000401,0.00007980,-0.0000
 2290,0.00000323,-0.00001226,0.00000510,-0.00000059,-0.00002824,0.00000
 346,-0.00000076,0.00000976,-0.00001630,0.00000266,-0.00017873,-0.00240
 537,0.00055950,0.29140606,0.00007556,-0.00010085,0.00001337,0.00014794
 ,0.00015636,-0.00002177,-0.00004937,-0.00022083,0.00003704,-0.00008588
 ,0.00022998,-0.00003292,0.00017439,0.00005489,0.00000511,-0.00046221,0
 .00001154,-0.00011725,-0.00032361,0.00007665,0.00006184,0.00009414,0.0
 0049999,-0.00007037,-0.00274030,-0.00116172,0.00107047,-0.01514571,0.0
 0669349,-0.00072252,-0.00194406,0.00327783,-0.00137973,0.10590182,-0.1
 0941964,0.01612753,0.02903738,-0.00917902,0.00254848,-0.00169222,-0.00
 387333,0.00178945,0.00201035,-0.00128407,0.00029329,-0.00039694,-0.000
 79606,-0.00003516,0.00018470,0.00034723,-0.00013045,0.00025299,-0.0002
 1677,0.00004636,-0.00015176,-0.00027372,0.00008892,-0.00012714,0.00003
 438,-0.00000120,0.00001067,-0.00000666,-0.00000075,0.00000463,0.000011
 99,-0.00000162,0.00000473,0.00000756,-0.00000487,0.00043863,-0.0002357
 4,0.00033864,-0.11432719,0.11455549,-0.00001538,0.00002326,-0.00001765
 ,-0.00003871,-0.00003502,0.00002841,0.00001246,0.00005699,-0.00001552,
 0.00002104,-0.00005542,0.00003643,-0.00004722,-0.00000331,0.00005797,0
 .00011488,-0.00011366,-0.00057108,-0.00000852,0.00008604,0.00051516,0.
 00000078,-0.00010710,-0.00000639,0.00046332,0.00102381,0.00487070,0.00
 217735,-0.00028209,0.00419712,0.00047816,-0.00131851,-0.00376621,-0.02
 326160,0.01633158,-0.03402518,-0.00525994,0.00195036,0.00183546,0.0002
 0381,0.00175896,0.00560478,-0.00037357,0.00029769,0.00024300,0.0001422
 7,0.00000074,-0.00095420,-0.00006455,-0.00014934,-0.00033652,-0.000042
 96,0.00006844,0.00001495,0.00004788,0.00011663,0.00021398,0.00002707,-
 0.00000416,0.00002315,-0.00000252,0.00000009,-0.00000944,-0.00000126,-
 0.00000218,0.00000551,-0.00000187,-0.00000466,-0.00001583,0.00003799,0
 .00024618,0.00058292,0.02516674,-0.01906827,0.02499024,-0.00003637,0.0
 0008413,-0.00001461,0.00001123,-0.00025601,0.00004578,-0.00009255,0.00
 006804,-0.00001143,0.00002020,-0.00002571,0.00000417,-0.00007178,-0.00
 000026,-0.00000109,0.00013140,0.00004297,-0.00001104,0.00021398,0.0004
 0610,-0.00004911,-0.00011537,-0.00044733,0.00006075,-0.00007406,0.0006
 2166,-0.00009925,0.00155428,0.00168003,-0.00036986,0.00017131,-0.00018
 655,0.00003765,0.00548520,0.00313913,-0.00051551,-0.25621143,-0.124504
 44,0.01948978,-0.01904984,-0.01840323,0.00298640,0.00276277,-0.0011062
 2,0.00025071,-0.00350970,0.00396901,-0.00081061,-0.00015822,-0.0016139
 5,0.00026851,0.00028556,0.00033262,-0.00005631,-0.00056658,0.00041495,
 -0.00006419,0.00006324,-0.00001788,0.00000298,-0.00002453,-0.00000487,
 0.00000097,-0.00001300,-0.00000513,0.00000112,-0.00000144,-0.00000832,
 0.00000171,-0.00000824,0.00006108,-0.00001081,0.00070710,-0.00041524,0
 .00013858,0.26878259,-0.00002088,0.00007357,-0.00001415,-0.00007847,-0
 .00003221,0.00001224,0.00006349,0.00013231,-0.00001765,0.00003784,-0.0
 0015153,0.00003011,-0.00013657,0.00002606,-0.00001409,0.00012118,-0.00
 017055,0.00007680,-0.00012360,0.00025549,-0.00012668,-0.00004962,-0.00
 015621,0.00003081,0.00045777,-0.00055905,-0.00007705,0.00217531,-0.003
 34231,0.00176060,-0.00116030,-0.00169876,0.00034078,-0.02629411,-0.011
 21944,0.00194475,-0.12605201,-0.13615353,0.01718914,0.01227437,0.00951
 583,-0.00060209,-0.00091188,0.00165847,-0.00098777,0.00251045,-0.00082
 032,0.00117666,0.00036402,0.00022794,0.00001623,-0.00010341,0.00032573
 ,-0.00006297,0.00033498,-0.00000489,-0.00009926,0.00003641,-0.00000712
 ,0.00000413,0.00000155,0.00000788,-0.00000255,-0.00000731,-0.00000452,
 -0.00000031,0.00000445,-0.00000309,0.00000090,-0.00015541,0.00030070,-
 0.00006354,0.00026359,0.00115885,-0.00085391,0.13622794,0.14052918,0.0
 0000280,-0.00001295,-0.00000833,0.00001325,0.00000893,0.00003422,-0.00
 001163,-0.00001439,0.00003576,-0.00000482,0.00002776,0.00001826,0.0000
 2062,-0.00001221,-0.00004558,-0.00001772,0.00007135,0.00024591,0.00004
 084,-0.00011153,-0.00044596,0.00000717,0.00002340,0.00005401,-0.000099
 16,-0.00005794,-0.00099151,-0.00048242,0.00173423,0.00573149,0.0002095
 4,0.00033363,0.00017689,0.00480405,0.00240646,0.00122547,0.01975475,0.
 01716850,-0.03472265,-0.00247282,-0.00099558,0.00543260,0.00019706,-0.
 00097849,-0.00350143,-0.00055872,0.00115515,0.00537709,-0.00008057,-0.
 00000559,0.00027452,0.00002269,-0.00006706,-0.00001169,-0.00006458,-0.
 00008922,-0.00053869,-0.00000492,0.00000292,0.00001571,-0.00000060,-0.
 00000259,-0.00000645,0.00000098,-0.00000059,-0.00000707,-0.00000089,0.
 00000065,0.00000164,0.00002583,-0.00005777,-0.00000771,0.00002459,-0.0
 0086032,-0.00334747,-0.02129210,-0.01952905,0.02562257,0.00727033,0.00
 240971,-0.00049034,-0.00188558,-0.00256739,0.00043223,0.00076780,0.000
 72245,-0.00012735,-0.00036522,-0.00007762,0.00001644,0.00072273,0.0008
 8831,-0.00013952,0.00002285,-0.00077233,0.00011520,0.00122630,-0.00279
 240,0.00042493,-0.00046024,0.00242918,-0.00035767,0.00021533,-0.001531
 03,0.00032636,-0.00441084,-0.00004384,-0.00007258,0.00029989,-0.001360
 98,0.00024232,0.00208781,0.00415328,-0.00071707,0.00575138,-0.01123052
 ,0.00208024,-0.00084438,0.03284977,-0.00586679,-0.31817251,0.06836959,
 -0.01496131,-0.00643271,-0.00102265,0.00011507,0.00691944,-0.03683479,
 0.00658547,0.02079291,0.02930173,-0.00502754,0.00201483,0.00683417,-0.
 00122446,-0.01047713,0.00201217,-0.00020984,0.00006532,-0.00001398,0.0
 0000213,0.00008451,0.00007915,-0.00001499,0.00015514,0.00012202,-0.000
 02153,-0.00008806,0.00004346,-0.00000995,0.00017717,-0.00047630,0.0000
 8576,-0.00025574,0.00022024,-0.00003324,0.29481868,0.00210651,0.000589
 71,-0.00008535,0.00009494,-0.00037177,0.00011002,0.00011632,-0.0000976
 0,-0.00003123,-0.00008551,0.00024428,-0.00003724,0.00038170,-0.0000185
 0,-0.00000727,-0.00071717,0.00012779,0.00004263,-0.00013254,-0.0007906
 1,0.00006344,0.00022034,0.00112676,-0.00015153,0.00110947,-0.00047319,
 -0.00004303,-0.00050153,-0.00041381,0.00012085,-0.00024715,0.00070161,
 -0.00015718,0.00182471,0.00048834,0.00023174,-0.00185307,-0.00616005,0
 .00148924,0.04616965,-0.02523407,0.00467448,0.04677242,-0.06551182,0.0
 0883621,-0.00084287,0.00063885,-0.00002201,-0.01057114,-0.00833653,0.0
 0128747,0.01000609,-0.01005502,0.00030815,0.00064301,-0.00102253,0.000
 41048,-0.00278479,0.00031487,-0.00019367,0.00002489,-0.00000651,0.0000
 0333,0.00003271,0.00002952,0.00000042,-0.00001514,0.00001130,-0.000005
 35,0.00004940,-0.00000288,-0.00000562,-0.00003732,-0.00034780,0.000036
 88,-0.00005250,0.00011153,-0.00013769,-0.09171141,0.11445816,-0.000292
 16,-0.00003574,0.00025578,-0.00001626,0.00006984,0.00028652,-0.0000254
 0,-0.00001914,-0.00029228,0.00001878,-0.00003914,0.00004787,-0.0000756
 9,-0.00000777,-0.00010521,0.00014560,0.00003542,0.00035059,0.00003937,
 0.00010864,-0.00019988,-0.00004879,-0.00019981,0.00005704,-0.00018008,
 -0.00008460,-0.00082270,0.00004011,0.00013292,0.00022257,0.00005293,-0
 .00016804,-0.00005168,-0.00033325,0.00023917,0.00155479,0.00036288,0.0
 0144876,0.00214569,-0.00822385,0.00457998,-0.00237613,-0.01113871,0.00
 898795,-0.01991835,0.00008029,-0.00005348,0.00048362,0.00195432,0.0011
 4406,-0.00090156,-0.00146810,0.00043583,-0.00870174,-0.00012129,0.0004
 6814,0.00122269,0.00036763,-0.00020031,-0.00104466,-0.00000473,0.00000
 472,0.00001877,-0.00000528,0.00000126,0.00003605,0.00000431,-0.0000038
 3,-0.00001582,-0.00000941,-0.00000126,-0.00002612,0.00001192,0.0000266
 8,-0.00015428,0.00001682,-0.00013210,-0.00061159,0.01884804,-0.0167381
 7,0.02854005\\0.00002720,-0.00000673,0.00000892,0.00002181,0.00001619,
 0.00000190,-0.00001330,-0.00003180,0.00001114,0.00000652,0.00001793,0.
 00000458,-0.00003385,0.00000185,0.00000679,-0.00000412,0.00000800,0.00
 000614,0.00001061,-0.00000733,-0.00000729,0.00002173,0.00001930,-0.000
 00767,-0.00000154,0.00000752,0.00000045,-0.00000570,-0.00000173,-0.000
 01751,-0.00000572,-0.00001488,0.00003357,-0.00002019,0.00002828,-0.000
 00535,0.00002812,-0.00003217,0.00000172,-0.00001452,0.00001329,-0.0000
 0619,-0.00000920,-0.00001224,-0.00000384,0.00001754,-0.00001191,-0.000
 00390,-0.00000099,0.00004456,-0.00001571,-0.00001314,-0.00003222,0.000
 01384,-0.00002346,-0.00000678,0.00000611,-0.00000310,0.00000593,-0.000
 00173,0.00000290,0.00000637,0.00000858,-0.00000122,0.00000097,0.000010
 58,0.00001269,0.00000150,0.00000410,-0.00000084,-0.00000799,-0.0000254
 5,0.00000367,-0.00000470,-0.00000699,-0.00000419,0.00000302,-0.0000128
 7,0.00000228,-0.00000425,-0.00000393\\\@


 I FIND THAT THE THREE TRULY GREAT TIMES FOR THINKING THOUGHTS
 ARE WHEN I AM STANDING IN THE SHOWER, SITTING ON THE JOHN, OR WALKING.

                                    -- COLIN FLETCHER
 Job cpu time:       0 days 11 hours  7 minutes 46.5 seconds.
 Elapsed time:       0 days  1 hours 27 minutes 56.3 seconds.
 File lengths (MBytes):  RWF=   1221 Int=      0 D2E=      0 Chk=     35 Scr=      1
 Normal termination of Gaussian 16 at Sun Feb 11 00:24:29 2024.
