
Running Job 1 of 1 240-CPCM.in
qchem 240-CPCM.in_1518968.0 /expanse/lustre/scratch/selhajj/temp_project/qcscratch/31257822/qchem1518968/ 0
/cm/shared/apps/spack/cpu/opt/spack/linux-centos8-zen2/gcc-10.2.0/qchem-5.4-akfmr7b3t57bfs6qan3padb2wnb2i7cl/exe/qcprog.exe_s 240-CPCM.in_1518968.0 /expanse/lustre/scratch/selhajj/temp_project/qcscratch/31257822/qchem1518968/
                  Welcome to Q-Chem
     A Quantum Leap Into The Future Of Chemistry


 Q-Chem 5.4, Q-Chem, Inc., Pleasanton, CA (2021)

 License issued to: University of California, San Diego (site)

 E. Epifanovsky,  A. T. B. Gilbert,  Xintian Feng,  Joonho Lee,  Yuezhi Mao,  
 N. Mardirossian,  P. Pokhilko,  A. White,  M. Wormit,  M. P. Coons,  
 A. L. Dempwolff,  Zhengting Gan,  D. Hait,  P. R. Horn,  L. D. Jacobson,  
 I. Kaliman,  J. Kussmann,  A. W. Lange,  Ka Un Lao,  D. S. Levine,  Jie Liu,  
 S. C. McKenzie,  A. F. Morrison,  K. Nanda,  F. Plasser,  D. R. Rehn,  
 M. L. Vidal,  Zhi-Qiang You,  Ying Zhu,  B. Alam,  B. Albrecht,  
 A. Aldossary,  E. Alguire,  J. H. Andersen,  D. Barton,  K. Begam,  A. Behn,  
 Y. A. Bernard,  E. J. Berquist,  H. Burton,  A. Carreras,  K. Carter-Fenk,  
 R. Chakraborty,  A. D. Chien,  K. D. Closser,  V. Cofer-Shabica,  
 S. Dasgupta,  Jia Deng,  M. de Wergifosse,  M. Diedenhofen,  Hainam Do,  
 S. Ehlert,  Po-Tung Fang,  S. Fatehi,  Qingguo Feng,  J. Gayvert,  
 Qinghui Ge,  G. Gidofalvi,  M. Goldey,  J. Gomes,  C. Gonzalez-Espinoza,  
 S. Gulania,  A. Gunina,  M. W. D. Hanson-Heine,  P. H. P. Harbach,  
 A. W. Hauser,  M. F. Herbst,  M. Hernandez Vera,  M. Hodecker,  
 Z. C. Holden,  S. Houck,  Xunkun Huang,  Kerwin Hui,  B. C. Huynh,  
 M. Ivanov,  Hyunjun Ji,  Hanjie Jiang,  B. Kaduk,  S. Kaehler,  
 K. Khistyaev,  Jaehoon Kim,  P. Klunzinger,  Z. Koczor-Benda,  
 Joong Hoon Koh,  D. Kosenkov,  L. Koulias,  T. Kowalczyk,  C. M. Krauter,  
 K. Kue,  A. Kunitsa,  T. Kus,  A. Landau,  K. V. Lawler,  D. Lefrancois,  
 S. Lehtola,  Rain Li,  Yi-Pei Li,  Jiashu Liang,  M. Liebenthal,  
 Hung-Hsuan Lin,  You-Sheng Lin,  Fenglai Liu,  Kuan-Yu Liu,  
 M. Loipersberger,  A. Luenser,  A. Manjanath,  P. Manohar,  E. Mansoor,  
 S. F. Manzer,  Shan-Ping Mao,  A. V. Marenich,  T. Markovich,  S. Mason,  
 S. A. Maurer,  P. F. McLaughlin,  M. F. S. J. Menger,  J.-M. Mewes,  
 S. A. Mewes,  P. Morgante,  J. W. Mullinax,  T. S. Nguyen-Beck,  
 K. J. Oosterbaan,  G. Paran,  Alexander C. Paul,  Suranjan K. Paul,  
 F. Pavosevic,  Zheng Pei,  S. Prager,  E. I. Proynov,  E. Ramos,  B. Rana,  
 A. E. Rask,  A. Rettig,  R. M. Richard,  F. Rob,  E. Rossomme,  T. Scheele,  
 M. Scheurer,  M. Schneider,  N. Sergueev,  S. M. Sharada,  W. Skomorowski,  
 D. W. Small,  C. J. Stein,  Yu-Chuan Su,  E. J. Sundstrom,  Zhen Tao,  
 J. Thirman,  T. Tsuchimochi,  N. M. Tubman,  S. P. Veccham,  O. Vydrov,  
 J. Wenzel,  J. Witte,  A. Yamada,  Kun Yao,  S. Yeganeh,  S. R. Yost,  
 A. Zech,  Igor Ying Zhang,  Xing Zhang,  Yu Zhang,  D. Zuev,  
 A. Aspuru-Guzik,  A. T. Bell,  N. A. Besley,  K. B. Bravaya,  B. R. Brooks,  
 D. Casanova,  Jeng-Da Chai,  S. Coriani,  C. J. Cramer,  
 A. E. DePrince, III,  R. A. DiStasio Jr.,  A. Dreuw,  B. D. Dunietz,  
 T. R. Furlani,  W. A. Goddard III,  S. Grimme,  S. Hammes-Schiffer,  
 T. Head-Gordon,  W. J. Hehre,  Chao-Ping Hsu,  T.-C. Jagau,  Yousung Jung,  
 A. Klamt,  Jing Kong,  D. S. Lambrecht,  WanZhen Liang,  N. J. Mayhall,  
 C. W. McCurdy,  J. B. Neaton,  C. Ochsenfeld,  J. A. Parkhill,  R. Peverati,  
 V. A. Rassolov,  Yihan Shao,  L. V. Slipchenko,  T. Stauch,  R. P. Steele,  
 J. E. Subotnik,  A. J. W. Thom,  A. Tkatchenko,  D. G. Truhlar,  
 T. Van Voorhis,  T. A. Wesolowski,  K. B. Whaley,  H. L. Woodcock III,  
 P. M. Zimmerman,  S. Faraji,  P. M. W. Gill,  M. Head-Gordon,  
 J. M. Herbert,  A. I. Krylov

 Contributors to earlier versions of Q-Chem not listed above: 
 R. D. Adamson,  B. Austin,  R. Baer,  J. Baker,  G. J. O. Beran,  
 K. Brandhorst,  S. T. Brown,  E. F. C. Byrd,  A. K. Chakraborty,  
 G. K. L. Chan,  Chun-Min Chang,  Yunqing Chen,  C.-L. Cheng,  
 Siu Hung Chien,  D. M. Chipman,  D. L. Crittenden,  H. Dachsel,  
 R. J. Doerksen,  A. D. Dutoi,  R. G. Edgar,  J. Fosso-Tande,  
 L. Fusti-Molnar,  D. Ghosh,  A. Ghysels,  A. Golubeva-Zadorozhnaya,  
 J. Gonthier,  M. S. Gordon,  S. R. Gwaltney,  G. Hawkins,  J. E. Herr,  
 A. Heyden,  S. Hirata,  E. G. Hohenstein,  G. Kedziora,  F. J. Keil,  
 C. Kelley,  Jihan Kim,  R. A. King,  R. Z. Khaliullin,  P. P. Korambath,  
 W. Kurlancheek,  A. Laurent,  A. M. Lee,  M. S. Lee,  S. V. Levchenko,  
 Ching Yeh Lin,  D. Liotard,  E. Livshits,  R. C. Lochan,  I. Lotan,  
 L. A. Martinez-Martinez,  P. E. Maslen,  N. Nair,  D. P. O'Neill,  
 D. Neuhauser,  E. Neuscamman,  C. M. Oana,  R. Olivares-Amaya,  R. Olson,  
 T. M. Perrine,  B. Peters,  P. A. Pieniazek,  A. Prociuk,  Y. M. Rhee,  
 J. Ritchie,  M. A. Rohrdanz,  E. Rosta,  N. J. Russ,  H. F. Schaefer III,  
 M. W. Schmidt,  N. E. Schultz,  S. Sharma,  N. Shenvi,  C. D. Sherrill,  
 A. C. Simmonett,  A. Sodt,  T. Stein,  D. Stuck,  K. S. Thanthiriwatte,  
 V. Vanovschi,  L. Vogt,  Tao Wang,  A. Warshel,  M. A. Watson,  
 C. F. Williams,  Q. Wu,  X. Xu,  Jun Yang,  W. Zhang,  Yan Zhao

 Please cite Q-Chem as follows:
 Y. Shao et al., Mol. Phys. 113, 184-215 (2015)
 DOI: 10.1080/00268976.2014.952696

 Q-Chem 5.4.0 for Intel X86 EM64T Linux

 Parts of Q-Chem use Armadillo 9.800.1 (Horizon Scraper).
 http://arma.sourceforge.net/

 Q-Chem begins on Wed Jun 12 02:35:34 2024  

 Host: 
0

     Scratch files written to /expanse/lustre/scratch/selhajj/temp_project/qcscratch/31257822/qchem1518968//
 May1621 |scratch|qcdevops|jenkins|workspace|build_RNUM    
 Processing $rem in /cm/shared/apps/spack/cpu/opt/spack/linux-centos8-zen2/gcc-10.2.0/qchem-5.4-akfmr7b3t57bfs6qan3padb2wnb2i7cl/config/preferences:
 Processing $rem in /home/selhajj/.qchemrc:
 Symmetry turned off for PCM/SM12/SMD calculation

 Checking the input file for inconsistencies... 	...done.

--------------------------------------------------------------
User input:
--------------------------------------------------------------
$molecule
0 1
O                  2.7290710000     -2.7081710000     -1.3568140000
C                  2.2231930000     -1.7371550000     -0.8138060000
C                  0.7552560000     -1.5923460000     -0.7503020000
C                  0.1114840000     -0.5571600000     -0.1735920000
C                 -1.3997970000     -0.4894150000     -0.1552140000
C                 -1.9618410000      0.7183770000     -0.9440990000
C                 -3.4966100000      0.6873410000     -0.9749910000
C                 -4.0913110000      0.6278210000      0.4386710000
C                 -3.5267250000     -0.5585900000      1.2319810000
C                 -1.9920570000     -0.5342930000      1.2745560000
C                  0.9195320000      0.5410020000      0.4569420000
O                  0.3793500000      1.4960620000      0.9918400000
C                  2.4107660000      0.4350550000      0.4151820000
C                  3.1833580000      1.4452630000      0.9949400000
C                  4.5716450000      1.3640910000      0.9652280000
C                  5.1994300000      0.2741290000      0.3567910000
C                  4.4378450000     -0.7355290000     -0.2223540000
C                  3.0438920000     -0.6591010000     -0.1954000000
H                  0.2032110000     -2.4034450000     -1.2156020000
H                 -1.7451390000     -1.3950700000     -0.6712480000
H                 -1.6206430000      1.6446280000     -0.4749120000
H                 -1.5648280000      0.7061070000     -1.9647500000
H                 -3.8705330000      1.5677720000     -1.5075120000
H                 -3.8331040000     -0.1877280000     -1.5466650000
H                 -3.8571850000      1.5600260000      0.9681050000
H                 -5.1830170000      0.5626540000      0.3870260000
H                 -3.8647660000     -1.4961830000      0.7710540000
H                 -3.9219670000     -0.5552210000      2.2529290000
H                 -1.6163740000     -1.4192170000      1.7992010000
H                 -1.6519850000      0.3418050000      1.8324960000
H                  2.6789650000      2.2822030000      1.4617390000
H                  5.1676050000      2.1496060000      1.4158380000
H                  6.2816890000      0.2148430000      0.3358370000
H                  4.9015920000     -1.5901650000     -0.6996880000
$end
$rem
MAX_SCF_CYCLES=200
BASIS  =  6-311++G(d,p)
GUI  =  2
JOB_TYPE  =  SP
METHOD  =  B3LYP
SOLVENT_METHOD = PCM
$end
$pcm
theory = CPCM
$end
$solvent
dielectric 37.219
opticaldielectric 1.43
$end






--------------------------------------------------------------
 ----------------------------------------------------------------
             Standard Nuclear Orientation (Angstroms)
    I     Atom           X                Y                Z
 ----------------------------------------------------------------
    1      O       2.7290710000    -2.7081710000    -1.3568140000
    2      C       2.2231930000    -1.7371550000    -0.8138060000
    3      C       0.7552560000    -1.5923460000    -0.7503020000
    4      C       0.1114840000    -0.5571600000    -0.1735920000
    5      C      -1.3997970000    -0.4894150000    -0.1552140000
    6      C      -1.9618410000     0.7183770000    -0.9440990000
    7      C      -3.4966100000     0.6873410000    -0.9749910000
    8      C      -4.0913110000     0.6278210000     0.4386710000
    9      C      -3.5267250000    -0.5585900000     1.2319810000
   10      C      -1.9920570000    -0.5342930000     1.2745560000
   11      C       0.9195320000     0.5410020000     0.4569420000
   12      O       0.3793500000     1.4960620000     0.9918400000
   13      C       2.4107660000     0.4350550000     0.4151820000
   14      C       3.1833580000     1.4452630000     0.9949400000
   15      C       4.5716450000     1.3640910000     0.9652280000
   16      C       5.1994300000     0.2741290000     0.3567910000
   17      C       4.4378450000    -0.7355290000    -0.2223540000
   18      C       3.0438920000    -0.6591010000    -0.1954000000
   19      H       0.2032110000    -2.4034450000    -1.2156020000
   20      H      -1.7451390000    -1.3950700000    -0.6712480000
   21      H      -1.6206430000     1.6446280000    -0.4749120000
   22      H      -1.5648280000     0.7061070000    -1.9647500000
   23      H      -3.8705330000     1.5677720000    -1.5075120000
   24      H      -3.8331040000    -0.1877280000    -1.5466650000
   25      H      -3.8571850000     1.5600260000     0.9681050000
   26      H      -5.1830170000     0.5626540000     0.3870260000
   27      H      -3.8647660000    -1.4961830000     0.7710540000
   28      H      -3.9219670000    -0.5552210000     2.2529290000
   29      H      -1.6163740000    -1.4192170000     1.7992010000
   30      H      -1.6519850000     0.3418050000     1.8324960000
   31      H       2.6789650000     2.2822030000     1.4617390000
   32      H       5.1676050000     2.1496060000     1.4158380000
   33      H       6.2816890000     0.2148430000     0.3358370000
   34      H       4.9015920000    -1.5901650000    -0.6996880000
 ----------------------------------------------------------------
 Nuclear Repulsion Energy =        1252.17199590 hartrees
 There are       64 alpha and       64 beta electrons
 Requested basis set is 6-311++G(d,p)
 There are 188 shells and 508 basis functions

 Total QAlloc Memory Limit   8000 MB
 Mega-Array Size       188 MB
 MEM_STATIC part       192 MB
 Discretize the solute cavity surface with Lebedev spheres
	Using 110 Lebedev grid points for each H atom
	Using 194 Lebedev grid points for other atoms
	Atomic van der Waals radii will be scaled by 1.20
 Remove points where switching function is < 1.0e-08
 Keep 2143 surface tesserae and discard 3109 interior tesserae
 Molecular Surface Area = 281.332 Angst**2
 A cutoff of  1.0D-08 yielded  12354 shell pairs
 There are     91309 function pairs (     97191 Cartesian)
 Smallest overlap matrix eigenvalue = 2.28E-07

 Q-Chem warning in module stvman/mkSTV.C, line 323:

 Overlap eigenvalue is smaller than square root of threshold
 Use THRESH >= 12 to get rid of this warning

 Linear dependence detected in AO basis
 Tighter screening thresholds may be required for diffuse basis sets
 Use S2THRESH > 14 and THRESH = 14 in case of SCF convergence issues
 Number of orthogonalized atomic orbitals = 504
 Maximum deviation from orthogonality = 7.251E-10

 Scale SEOQF with 1.000000e-02/1.000000e-01/1.000000e-01

 Standard Electronic Orientation quadrupole field applied
 Nucleus-field energy     =     0.0000000066 hartrees
 Guess from superposition of atomic densities
 Warning:  Energy on first SCF cycle will be non-variational
 SAD guess density has 128.000000 electrons

 -----------------------------------------------------------------------
  General SCF calculation program by
  Eric Jon Sundstrom, Paul Horn, Yuezhi Mao, Dmitri Zuev, Alec White,
  David Stuck, Shaama M.S., Shane Yost, Joonho Lee, David Small,
  Daniel Levine, Susi Lehtola, Hugh Burton, Evgeny Epifanovsky,
  Bang C. Huynh
 -----------------------------------------------------------------------
 Exchange:     0.2000 Hartree-Fock + 0.0800 Slater + 0.7200 B88
 Correlation:  0.1900 VWN1RPA + 0.8100 LYP
 Using SG-1 standard quadrature grid
 using 8 threads for integral computing
 -------------------------------------------------------
 OpenMP Integral computing Module                
 Release: version 1.0, May 2013, Q-Chem Inc. Pittsburgh 
 -------------------------------------------------------
 A restricted SCF calculation will be
 performed using DIIS
 SCF converges when DIIS error is below 1.0e-05
 ---------------------------------------
  Cycle       Energy         DIIS error
 ---------------------------------------
    1    -774.1131858969      2.87e-02  
    2    -769.6774075193      3.34e-03  
    3    -769.3197799975      5.10e-03  
    4    -769.9759577541      1.13e-03  
    5    -770.0092002390      3.15e-04  
    6    -770.0116734956      8.36e-05  
    7    -770.0118800902      2.29e-05  
    8    -770.0118900914      8.12e-06  Convergence criterion met
 ---------------------------------------
 SCF time:   CPU 413.85s  wall 56.00s 

************** Final PCM Free Energy Summary **************
 G_electrostatic  =      -0.01378505 hartree =      -8.65025146 kcal/mol
 G_cavitation     =       0.00000000 hartree =       0.00000000 kcal/mol
 G_dispersion     =       0.00000000 hartree =       0.00000000 kcal/mol
 G_repulsion      =       0.00000000 hartree =       0.00000000 kcal/mol
 --------------------------------------------------
 Non-electrostatic Free Energy =       0.00000000 hartree =       0.00000000 kcal/mol
 Total                         =      -0.01378505 hartree =      -8.65025146 kcal/mol
 --------------------------------------------------
 SCF Energy (H0 + V/2)                       =    -770.01189009 
 Solute Internal Energy (H0)                 =    -769.99810504 
 Total Free Energy (H0 + V/2 + non-elec)     =    -770.01189009 hartree
                                             = -483189.75381494 kcal/mol
***********************************************************

 SCF   energy in the final basis set =     -770.0118900914
 Total energy in the final basis set =     -770.0118900914
 
 --------------------------------------------------------------
 
                    Orbital Energies (a.u.)
 --------------------------------------------------------------
 
 Alpha MOs
 -- Occupied --
-19.1359 -19.1340 -10.2853 -10.2814 -10.2160 -10.2067 -10.2056 -10.2006
-10.1965 -10.1962 -10.1959 -10.1955 -10.1839 -10.1625 -10.1625 -10.1596
-10.1596 -10.1579  -1.0698  -1.0659  -0.8894  -0.8538  -0.8218  -0.7806
 -0.7770  -0.7397  -0.7395  -0.6924  -0.6514  -0.6401  -0.6081  -0.6031
 -0.5824  -0.5593  -0.5339  -0.5284  -0.5000  -0.4832  -0.4695  -0.4638
 -0.4528  -0.4505  -0.4499  -0.4374  -0.4374  -0.4313  -0.4203  -0.4197
 -0.3877  -0.3876  -0.3786  -0.3773  -0.3743  -0.3677  -0.3442  -0.3424
 -0.3208  -0.3104  -0.3085  -0.2904  -0.2841  -0.2779  -0.2752  -0.2725
 -- Virtual --
 -0.1252  -0.0560  -0.0309  -0.0052   0.0015   0.0069   0.0140   0.0160
  0.0190   0.0234   0.0322   0.0353   0.0370   0.0401   0.0420   0.0462
  0.0577   0.0594   0.0632   0.0640   0.0664   0.0734   0.0804   0.0837
  0.0895   0.0928   0.0944   0.0994   0.1055   0.1064   0.1111   0.1123
  0.1147   0.1239   0.1240   0.1251   0.1305   0.1319   0.1338   0.1352
  0.1369   0.1378   0.1424   0.1436   0.1446   0.1474   0.1545   0.1557
  0.1592   0.1615   0.1644   0.1657   0.1692   0.1721   0.1735   0.1774
  0.1791   0.1820   0.1843   0.1887   0.1917   0.1984   0.1998   0.2013
  0.2028   0.2071   0.2126   0.2157   0.2215   0.2237   0.2242   0.2297
  0.2364   0.2408   0.2445   0.2470   0.2502   0.2521   0.2528   0.2583
  0.2589   0.2609   0.2669   0.2711   0.2727   0.2757   0.2863   0.2864
  0.2924   0.2955   0.2975   0.2981   0.2994   0.3085   0.3094   0.3178
  0.3234   0.3262   0.3340   0.3348   0.3349   0.3427   0.3465   0.3498
  0.3548   0.3551   0.3595   0.3607   0.3710   0.3717   0.3738   0.3805
  0.3859   0.3911   0.3946   0.4044   0.4167   0.4262   0.4417   0.4516
  0.4552   0.4718   0.4796   0.4933   0.5022   0.5027   0.5184   0.5239
  0.5332   0.5373   0.5506   0.5510   0.5579   0.5700   0.5792   0.5842
  0.5945   0.5953   0.6000   0.6087   0.6093   0.6164   0.6187   0.6252
  0.6341   0.6380   0.6444   0.6459   0.6476   0.6562   0.6649   0.6676
  0.6732   0.6894   0.6934   0.6985   0.7059   0.7120   0.7131   0.7228
  0.7304   0.7338   0.7429   0.7460   0.7592   0.7632   0.7653   0.7687
  0.7759   0.7786   0.7861   0.7902   0.7920   0.7928   0.8072   0.8143
  0.8332   0.8458   0.8553   0.8607   0.8800   0.8823   0.8880   0.8924
  0.9114   0.9216   0.9289   0.9343   0.9374   0.9429   0.9538   0.9667
  0.9687   0.9795   0.9865   1.0037   1.0186   1.0275   1.0430   1.0488
  1.0628   1.0765   1.0828   1.0833   1.1009   1.1047   1.1057   1.1193
  1.1334   1.1411   1.1684   1.1827   1.1924   1.1996   1.2057   1.2262
  1.2298   1.2437   1.2517   1.2686   1.2852   1.2959   1.3008   1.3180
  1.3443   1.3799   1.3885   1.4259   1.4517   1.4631   1.4776   1.4934
  1.5058   1.5110   1.5182   1.5227   1.5256   1.5340   1.5573   1.5644
  1.5664   1.5759   1.5933   1.5969   1.5990   1.6122   1.6233   1.6251
  1.6318   1.6340   1.6391   1.6546   1.6575   1.6604   1.6648   1.6798
  1.6994   1.7132   1.7170   1.7296   1.7350   1.7397   1.7436   1.7556
  1.7566   1.7758   1.7931   1.7946   1.8052   1.8150   1.8218   1.8310
  1.8357   1.8427   1.8534   1.8774   1.8858   1.8897   1.8991   1.9086
  1.9117   1.9297   1.9305   1.9483   1.9580   1.9635   1.9794   1.9986
  2.0087   2.0182   2.0193   2.0420   2.0591   2.0702   2.0829   2.1019
  2.1200   2.1429   2.1455   2.1645   2.1923   2.2267   2.2357   2.2504
  2.2507   2.2597   2.2855   2.2885   2.2960   2.3263   2.3468   2.3496
  2.3630   2.3697   2.3756   2.3949   2.3988   2.4346   2.4477   2.4767
  2.4945   2.4973   2.5063   2.5285   2.5594   2.5633   2.5919   2.6063
  2.6284   2.6366   2.6471   2.6734   2.6770   2.6834   2.7060   2.7076
  2.7148   2.7176   2.7343   2.7409   2.7434   2.7556   2.7668   2.7717
  2.7780   2.7899   2.8069   2.8110   2.8163   2.8212   2.8273   2.8413
  2.8513   2.8612   2.8696   2.8757   2.8901   2.8916   2.9004   2.9063
  2.9291   2.9423   2.9528   2.9600   2.9690   2.9811   3.0080   3.0537
  3.0539   3.0795   3.0892   3.1056   3.1398   3.1479   3.1661   3.2019
  3.2158   3.2285   3.2773   3.3235   3.3419   3.3469   3.3632   3.3764
  3.3996   3.4399   3.4988   3.5146   3.5291   3.5526   3.5866   3.5926
  3.6458   3.7159   3.7864   3.7944   3.8090   3.8272   3.8406   3.8515
  3.9143   4.0300   4.0512   4.1001   4.1187   4.1238   4.1594   4.1924
  4.2235   4.2698   4.2855   4.3083   4.3630   4.4287   4.7161   4.8369
  5.0434   5.0688   5.2229   5.2937   5.7324   5.8154  23.5552  23.7314
 23.8335  23.8671  23.9137  23.9193  23.9440  23.9479  23.9528  23.9537
 23.9568  23.9790  24.0505  24.0821  24.1717  24.1943  50.0172  50.0588
 --------------------------------------------------------------
 
          Ground-State Mulliken Net Atomic Charges

     Atom                 Charge (a.u.)
  ----------------------------------------
      1 O                    -0.309872
      2 C                    -0.533978
      3 C                    -0.222506
      4 C                     0.545184
      5 C                     0.661061
      6 C                    -0.568310
      7 C                    -0.380174
      8 C                    -0.427744
      9 C                    -0.379735
     10 C                    -0.566243
     11 C                    -0.656002
     12 O                    -0.250636
     13 C                    -0.200173
     14 C                     0.175411
     15 C                    -0.457074
     16 C                    -0.344449
     17 C                     0.121678
     18 C                     0.816084
     19 H                     0.256286
     20 H                     0.211870
     21 H                     0.181015
     22 H                     0.182583
     23 H                     0.180697
     24 H                     0.138298
     25 H                     0.122121
     26 H                     0.182633
     27 H                     0.138185
     28 H                     0.180816
     29 H                     0.182499
     30 H                     0.181180
     31 H                     0.198879
     32 H                     0.224076
     33 H                     0.225940
     34 H                     0.190401
  ----------------------------------------
  Sum of atomic charges =     0.000000

 -----------------------------------------------------------------
                    Cartesian Multipole Moments
 -----------------------------------------------------------------
    Charge (ESU x 10^10)
                 0.0000
    Dipole Moment (Debye)
         X       0.2826      Y       1.3581      Z       0.7635
       Tot       1.5835
    Quadrupole Moments (Debye-Ang)
        XX     -88.1984     XY      14.1651     YY    -116.8095
        XZ       8.2743     YZ      -4.4647     ZZ    -110.6083
    Octopole Moments (Debye-Ang^2)
       XXX     -67.8855    XXY      54.5751    XYY     -85.5406
       YYY      62.9724    XXZ      19.5019    XYZ      -4.6434
       YYZ       8.4275    XZZ     -73.9763    YZZ      19.0062
       ZZZ     -27.3494
    Hexadecapole Moments (Debye-Ang^3)
      XXXX   -5140.8424   XXXY     262.2543   XXYY   -1203.0495
      XYYY     234.6411   YYYY   -1119.5212   XXXZ     115.6426
      XXYZ     -33.9288   XYYZ      83.1028   YYYZ    -204.4527
      XXZZ   -1139.6764   XYZZ      74.5462   YYZZ    -297.2817
      XZZZ       0.2647   YZZZ    -172.5120   ZZZZ    -637.7200
 -----------------------------------------------------------------
 Total job time:  65.64s(wall), 422.80s(cpu) 
 Wed Jun 12 02:36:39 2024

        *************************************************************
        *                                                           *
        *  Thank you very much for using Q-Chem.  Have a nice day.  *
        *                                                           *
        *************************************************************


