
Running Job 1 of 1 325-rad-CPCM.in
qchem 325-rad-CPCM.in_677106.0 /expanse/lustre/scratch/selhajj/temp_project/qcscratch/31258508/qchem677106/ 0
/cm/shared/apps/spack/cpu/opt/spack/linux-centos8-zen2/gcc-10.2.0/qchem-5.4-akfmr7b3t57bfs6qan3padb2wnb2i7cl/exe/qcprog.exe_s 325-rad-CPCM.in_677106.0 /expanse/lustre/scratch/selhajj/temp_project/qcscratch/31258508/qchem677106/
                  Welcome to Q-Chem
     A Quantum Leap Into The Future Of Chemistry


 Q-Chem 5.4, Q-Chem, Inc., Pleasanton, CA (2021)

 License issued to: University of California, San Diego (site)

 E. Epifanovsky,  A. T. B. Gilbert,  Xintian Feng,  Joonho Lee,  Yuezhi Mao,  
 N. Mardirossian,  P. Pokhilko,  A. White,  M. Wormit,  M. P. Coons,  
 A. L. Dempwolff,  Zhengting Gan,  D. Hait,  P. R. Horn,  L. D. Jacobson,  
 I. Kaliman,  J. Kussmann,  A. W. Lange,  Ka Un Lao,  D. S. Levine,  Jie Liu,  
 S. C. McKenzie,  A. F. Morrison,  K. Nanda,  F. Plasser,  D. R. Rehn,  
 M. L. Vidal,  Zhi-Qiang You,  Ying Zhu,  B. Alam,  B. Albrecht,  
 A. Aldossary,  E. Alguire,  J. H. Andersen,  D. Barton,  K. Begam,  A. Behn,  
 Y. A. Bernard,  E. J. Berquist,  H. Burton,  A. Carreras,  K. Carter-Fenk,  
 R. Chakraborty,  A. D. Chien,  K. D. Closser,  V. Cofer-Shabica,  
 S. Dasgupta,  Jia Deng,  M. de Wergifosse,  M. Diedenhofen,  Hainam Do,  
 S. Ehlert,  Po-Tung Fang,  S. Fatehi,  Qingguo Feng,  J. Gayvert,  
 Qinghui Ge,  G. Gidofalvi,  M. Goldey,  J. Gomes,  C. Gonzalez-Espinoza,  
 S. Gulania,  A. Gunina,  M. W. D. Hanson-Heine,  P. H. P. Harbach,  
 A. W. Hauser,  M. F. Herbst,  M. Hernandez Vera,  M. Hodecker,  
 Z. C. Holden,  S. Houck,  Xunkun Huang,  Kerwin Hui,  B. C. Huynh,  
 M. Ivanov,  Hyunjun Ji,  Hanjie Jiang,  B. Kaduk,  S. Kaehler,  
 K. Khistyaev,  Jaehoon Kim,  P. Klunzinger,  Z. Koczor-Benda,  
 Joong Hoon Koh,  D. Kosenkov,  L. Koulias,  T. Kowalczyk,  C. M. Krauter,  
 K. Kue,  A. Kunitsa,  T. Kus,  A. Landau,  K. V. Lawler,  D. Lefrancois,  
 S. Lehtola,  Rain Li,  Yi-Pei Li,  Jiashu Liang,  M. Liebenthal,  
 Hung-Hsuan Lin,  You-Sheng Lin,  Fenglai Liu,  Kuan-Yu Liu,  
 M. Loipersberger,  A. Luenser,  A. Manjanath,  P. Manohar,  E. Mansoor,  
 S. F. Manzer,  Shan-Ping Mao,  A. V. Marenich,  T. Markovich,  S. Mason,  
 S. A. Maurer,  P. F. McLaughlin,  M. F. S. J. Menger,  J.-M. Mewes,  
 S. A. Mewes,  P. Morgante,  J. W. Mullinax,  T. S. Nguyen-Beck,  
 K. J. Oosterbaan,  G. Paran,  Alexander C. Paul,  Suranjan K. Paul,  
 F. Pavosevic,  Zheng Pei,  S. Prager,  E. I. Proynov,  E. Ramos,  B. Rana,  
 A. E. Rask,  A. Rettig,  R. M. Richard,  F. Rob,  E. Rossomme,  T. Scheele,  
 M. Scheurer,  M. Schneider,  N. Sergueev,  S. M. Sharada,  W. Skomorowski,  
 D. W. Small,  C. J. Stein,  Yu-Chuan Su,  E. J. Sundstrom,  Zhen Tao,  
 J. Thirman,  T. Tsuchimochi,  N. M. Tubman,  S. P. Veccham,  O. Vydrov,  
 J. Wenzel,  J. Witte,  A. Yamada,  Kun Yao,  S. Yeganeh,  S. R. Yost,  
 A. Zech,  Igor Ying Zhang,  Xing Zhang,  Yu Zhang,  D. Zuev,  
 A. Aspuru-Guzik,  A. T. Bell,  N. A. Besley,  K. B. Bravaya,  B. R. Brooks,  
 D. Casanova,  Jeng-Da Chai,  S. Coriani,  C. J. Cramer,  
 A. E. DePrince, III,  R. A. DiStasio Jr.,  A. Dreuw,  B. D. Dunietz,  
 T. R. Furlani,  W. A. Goddard III,  S. Grimme,  S. Hammes-Schiffer,  
 T. Head-Gordon,  W. J. Hehre,  Chao-Ping Hsu,  T.-C. Jagau,  Yousung Jung,  
 A. Klamt,  Jing Kong,  D. S. Lambrecht,  WanZhen Liang,  N. J. Mayhall,  
 C. W. McCurdy,  J. B. Neaton,  C. Ochsenfeld,  J. A. Parkhill,  R. Peverati,  
 V. A. Rassolov,  Yihan Shao,  L. V. Slipchenko,  T. Stauch,  R. P. Steele,  
 J. E. Subotnik,  A. J. W. Thom,  A. Tkatchenko,  D. G. Truhlar,  
 T. Van Voorhis,  T. A. Wesolowski,  K. B. Whaley,  H. L. Woodcock III,  
 P. M. Zimmerman,  S. Faraji,  P. M. W. Gill,  M. Head-Gordon,  
 J. M. Herbert,  A. I. Krylov

 Contributors to earlier versions of Q-Chem not listed above: 
 R. D. Adamson,  B. Austin,  R. Baer,  J. Baker,  G. J. O. Beran,  
 K. Brandhorst,  S. T. Brown,  E. F. C. Byrd,  A. K. Chakraborty,  
 G. K. L. Chan,  Chun-Min Chang,  Yunqing Chen,  C.-L. Cheng,  
 Siu Hung Chien,  D. M. Chipman,  D. L. Crittenden,  H. Dachsel,  
 R. J. Doerksen,  A. D. Dutoi,  R. G. Edgar,  J. Fosso-Tande,  
 L. Fusti-Molnar,  D. Ghosh,  A. Ghysels,  A. Golubeva-Zadorozhnaya,  
 J. Gonthier,  M. S. Gordon,  S. R. Gwaltney,  G. Hawkins,  J. E. Herr,  
 A. Heyden,  S. Hirata,  E. G. Hohenstein,  G. Kedziora,  F. J. Keil,  
 C. Kelley,  Jihan Kim,  R. A. King,  R. Z. Khaliullin,  P. P. Korambath,  
 W. Kurlancheek,  A. Laurent,  A. M. Lee,  M. S. Lee,  S. V. Levchenko,  
 Ching Yeh Lin,  D. Liotard,  E. Livshits,  R. C. Lochan,  I. Lotan,  
 L. A. Martinez-Martinez,  P. E. Maslen,  N. Nair,  D. P. O'Neill,  
 D. Neuhauser,  E. Neuscamman,  C. M. Oana,  R. Olivares-Amaya,  R. Olson,  
 T. M. Perrine,  B. Peters,  P. A. Pieniazek,  A. Prociuk,  Y. M. Rhee,  
 J. Ritchie,  M. A. Rohrdanz,  E. Rosta,  N. J. Russ,  H. F. Schaefer III,  
 M. W. Schmidt,  N. E. Schultz,  S. Sharma,  N. Shenvi,  C. D. Sherrill,  
 A. C. Simmonett,  A. Sodt,  T. Stein,  D. Stuck,  K. S. Thanthiriwatte,  
 V. Vanovschi,  L. Vogt,  Tao Wang,  A. Warshel,  M. A. Watson,  
 C. F. Williams,  Q. Wu,  X. Xu,  Jun Yang,  W. Zhang,  Yan Zhao

 Please cite Q-Chem as follows:
 Y. Shao et al., Mol. Phys. 113, 184-215 (2015)
 DOI: 10.1080/00268976.2014.952696

 Q-Chem 5.4.0 for Intel X86 EM64T Linux

 Parts of Q-Chem use Armadillo 9.800.1 (Horizon Scraper).
 http://arma.sourceforge.net/

 Q-Chem begins on Wed Jun 12 03:15:35 2024  

 Host: 
0

     Scratch files written to /expanse/lustre/scratch/selhajj/temp_project/qcscratch/31258508/qchem677106//
 May1621 |scratch|qcdevops|jenkins|workspace|build_RNUM    
 Processing $rem in /cm/shared/apps/spack/cpu/opt/spack/linux-centos8-zen2/gcc-10.2.0/qchem-5.4-akfmr7b3t57bfs6qan3padb2wnb2i7cl/config/preferences:
 Processing $rem in /home/selhajj/.qchemrc:
 Symmetry turned off for PCM/SM12/SMD calculation

 Checking the input file for inconsistencies... 	...done.

--------------------------------------------------------------
User input:
--------------------------------------------------------------
$molecule
-1 2
C                 -1.7977400000      2.8011950000     -0.7501200000
C                 -2.9023300000      1.9975220000     -0.5349130000
C                 -2.7311550000      0.6462740000     -0.1668430000
C                 -0.4834390000      2.3072990000     -0.6117870000
C                 -0.3177680000      0.9355880000     -0.2381750000
C                 -1.4557870000      0.1292370000     -0.0223040000
C                  0.6541440000      3.2075490000     -0.8530660000
C                  2.0296840000      2.6314610000     -0.6920540000
C                  2.1071840000      1.2341910000     -0.3118440000
C                  1.0163600000      0.4382550000     -0.0987890000
O                  0.4791740000      4.4022590000     -1.1782240000
O                  3.0616820000      3.3126790000     -0.8739090000
H                 -1.9036970000      3.8423310000     -1.0335630000
H                 -3.9024660000      2.4055780000     -0.6489460000
H                 -3.5962600000      0.0124220000      0.0029280000
H                 -1.3122990000     -0.9073550000      0.2601080000
H                  3.1125280000      0.8297870000     -0.1987160000
O                  1.1416850000     -0.8966230000      0.2647310000
H                  2.0824490000     -1.0912790000      0.3209260000
$end
$rem
MAX_SCF_CYCLES=200
BASIS  =  6-311++G(d,p)
GUI  =  2
JOB_TYPE  =  SP
METHOD  =  B3LYP
SOLVENT_METHOD = PCM
$end
$pcm
theory = CPCM
$end
$solvent
dielectric 37.219
opticaldielectric 1.43
$end






--------------------------------------------------------------
 ----------------------------------------------------------------
             Standard Nuclear Orientation (Angstroms)
    I     Atom           X                Y                Z
 ----------------------------------------------------------------
    1      C      -1.7977400000     2.8011950000    -0.7501200000
    2      C      -2.9023300000     1.9975220000    -0.5349130000
    3      C      -2.7311550000     0.6462740000    -0.1668430000
    4      C      -0.4834390000     2.3072990000    -0.6117870000
    5      C      -0.3177680000     0.9355880000    -0.2381750000
    6      C      -1.4557870000     0.1292370000    -0.0223040000
    7      C       0.6541440000     3.2075490000    -0.8530660000
    8      C       2.0296840000     2.6314610000    -0.6920540000
    9      C       2.1071840000     1.2341910000    -0.3118440000
   10      C       1.0163600000     0.4382550000    -0.0987890000
   11      O       0.4791740000     4.4022590000    -1.1782240000
   12      O       3.0616820000     3.3126790000    -0.8739090000
   13      H      -1.9036970000     3.8423310000    -1.0335630000
   14      H      -3.9024660000     2.4055780000    -0.6489460000
   15      H      -3.5962600000     0.0124220000     0.0029280000
   16      H      -1.3122990000    -0.9073550000     0.2601080000
   17      H       3.1125280000     0.8297870000    -0.1987160000
   18      O       1.1416850000    -0.8966230000     0.2647310000
   19      H       2.0824490000    -1.0912790000     0.3209260000
 ----------------------------------------------------------------
 Nuclear Repulsion Energy =         722.96397904 hartrees
 There are       46 alpha and       45 beta electrons
 Requested basis set is 6-311++G(d,p)
 There are 108 shells and 328 basis functions

 Total QAlloc Memory Limit   8000 MB
 Mega-Array Size       188 MB
 MEM_STATIC part       192 MB
 Discretize the solute cavity surface with Lebedev spheres
	Using 110 Lebedev grid points for each H atom
	Using 194 Lebedev grid points for other atoms
	Atomic van der Waals radii will be scaled by 1.20
 Remove points where switching function is < 1.0e-08
 Keep 1374 surface tesserae and discard 1808 interior tesserae
 Molecular Surface Area = 199.006 Angst**2
 A cutoff of  1.0D-08 yielded   4617 shell pairs
 There are     44287 function pairs (     47629 Cartesian)
 Smallest overlap matrix eigenvalue = 2.97E-07

 Q-Chem warning in module stvman/mkSTV.C, line 323:

 Overlap eigenvalue is smaller than square root of threshold
 Use THRESH >= 12 to get rid of this warning

 Linear dependence detected in AO basis
 Tighter screening thresholds may be required for diffuse basis sets
 Use S2THRESH > 14 and THRESH = 14 in case of SCF convergence issues
 Number of orthogonalized atomic orbitals = 326
 Maximum deviation from orthogonality = 2.477E-10

 Scale SEOQF with 1.000000e-01/1.000000e-01/1.000000e-01

 Standard Electronic Orientation quadrupole field applied
 Nucleus-field energy     =     0.0000000433 hartrees
 Guess from superposition of atomic densities
 Warning:  Energy on first SCF cycle will be non-variational
 SAD guess density has 90.000000 electrons

 -----------------------------------------------------------------------
  General SCF calculation program by
  Eric Jon Sundstrom, Paul Horn, Yuezhi Mao, Dmitri Zuev, Alec White,
  David Stuck, Shaama M.S., Shane Yost, Joonho Lee, David Small,
  Daniel Levine, Susi Lehtola, Hugh Burton, Evgeny Epifanovsky,
  Bang C. Huynh
 -----------------------------------------------------------------------
 Exchange:     0.2000 Hartree-Fock + 0.0800 Slater + 0.7200 B88
 Correlation:  0.1900 VWN1RPA + 0.8100 LYP
 Using SG-1 standard quadrature grid
 using 8 threads for integral computing
 -------------------------------------------------------
 OpenMP Integral computing Module                
 Release: version 1.0, May 2013, Q-Chem Inc. Pittsburgh 
 -------------------------------------------------------
 A unrestricted SCF calculation will be
 performed using DIIS
 SCF converges when DIIS error is below 1.0e-05
 ---------------------------------------
  Cycle       Energy         DIIS error
 ---------------------------------------
    1    -613.4506248145      1.83e-02  
    2    -610.3885086837      2.42e-03  
    3    -610.0493610484      3.87e-03  
    4    -610.6321093261      8.28e-04  
    5    -610.6635842031      1.62e-04  
    6    -610.6646364706      7.77e-05  
    7    -610.6649120451      2.26e-05  
    8    -610.6649370235      1.45e-05  
    9    -610.6649492855      5.41e-06  Convergence criterion met
 ---------------------------------------
 SCF time:   CPU 177.09s  wall 23.00s 
<S^2> =          0.757995666

************** Final PCM Free Energy Summary **************
 G_electrostatic  =      -0.10779726 hartree =     -67.64380383 kcal/mol
 G_cavitation     =       0.00000000 hartree =       0.00000000 kcal/mol
 G_dispersion     =       0.00000000 hartree =       0.00000000 kcal/mol
 G_repulsion      =       0.00000000 hartree =       0.00000000 kcal/mol
 --------------------------------------------------
 Non-electrostatic Free Energy =       0.00000000 hartree =       0.00000000 kcal/mol
 Total                         =      -0.10779726 hartree =     -67.64380383 kcal/mol
 --------------------------------------------------
 SCF Energy (H0 + V/2)                       =    -610.66494929 
 Solute Internal Energy (H0)                 =    -610.55715202 
 Total Free Energy (H0 + V/2 + non-elec)     =    -610.66494929 hartree
                                             = -383198.03928440 kcal/mol
***********************************************************

 SCF   energy in the final basis set =     -610.6649492855
 Total energy in the final basis set =     -610.6649492855
 
 --------------------------------------------------------------
 
                    Orbital Energies (a.u.)
 --------------------------------------------------------------
 
 Alpha MOs
 -- Occupied --
-19.1559 -19.0800 -19.0756 -10.2373 -10.2205 -10.2185 -10.1822 -10.1748
-10.1743 -10.1724 -10.1717 -10.1697 -10.1566  -1.0617  -1.0163  -0.9895
 -0.8630  -0.8018  -0.7558  -0.7302  -0.6830  -0.6243  -0.5968  -0.5864
 -0.5253  -0.5154  -0.4991  -0.4511  -0.4467  -0.4307  -0.4270  -0.4234
 -0.4136  -0.3975  -0.3910  -0.3868  -0.3675  -0.3516  -0.3431  -0.3402
 -0.2832  -0.2630  -0.2604  -0.2275  -0.2248  -0.1532
 -- Virtual --
 -0.0363  -0.0068  -0.0020   0.0086   0.0162   0.0305   0.0310   0.0419
  0.0500   0.0506   0.0591   0.0617   0.0707   0.0769   0.0867   0.0934
  0.0945   0.0996   0.1082   0.1140   0.1155   0.1194   0.1244   0.1276
  0.1324   0.1399   0.1420   0.1460   0.1509   0.1518   0.1580   0.1615
  0.1617   0.1756   0.1900   0.1948   0.1955   0.2099   0.2102   0.2147
  0.2211   0.2232   0.2297   0.2365   0.2409   0.2452   0.2527   0.2611
  0.2625   0.2708   0.2737   0.2802   0.2855   0.2883   0.2961   0.2971
  0.3013   0.3061   0.3119   0.3160   0.3221   0.3328   0.3344   0.3400
  0.3469   0.3512   0.3549   0.3699   0.3788   0.3832   0.4002   0.4053
  0.4179   0.4305   0.4535   0.4690   0.4816   0.5195   0.5323   0.5365
  0.5471   0.5495   0.5677   0.5899   0.5923   0.5972   0.5978   0.6020
  0.6060   0.6109   0.6328   0.6386   0.6389   0.6493   0.6536   0.6713
  0.6803   0.7024   0.7127   0.7399   0.7545   0.7553   0.7587   0.7811
  0.7900   0.8156   0.8254   0.8393   0.8640   0.8682   0.8871   0.8954
  0.9041   0.9195   0.9331   0.9404   0.9513   0.9558   0.9697   0.9785
  0.9940   1.0378   1.0421   1.0477   1.0609   1.0750   1.0806   1.0841
  1.1142   1.1198   1.1232   1.1339   1.1396   1.1430   1.1849   1.2080
  1.2207   1.2413   1.2497   1.2637   1.2938   1.2953   1.3168   1.3368
  1.3748   1.3852   1.4133   1.4954   1.5021   1.5044   1.5254   1.5273
  1.5361   1.5680   1.5717   1.6222   1.6255   1.6300   1.6624   1.6735
  1.7097   1.7128   1.7237   1.7501   1.7505   1.7596   1.7730   1.8037
  1.8198   1.8338   1.8542   1.8817   1.8949   1.9079   1.9210   1.9328
  1.9459   1.9563   1.9710   1.9898   2.0144   2.0260   2.0527   2.0824
  2.0845   2.1380   2.1442   2.1674   2.1704   2.2094   2.2705   2.3123
  2.3232   2.3702   2.3822   2.4429   2.4819   2.5056   2.5267   2.6040
  2.6087   2.6402   2.6642   2.6660   2.7083   2.7088   2.7230   2.7456
  2.7554   2.7659   2.7681   2.7830   2.7917   2.8015   2.8437   2.8613
  2.8692   2.9025   2.9038   2.9329   2.9388   2.9451   2.9583   3.0396
  3.0504   3.0838   3.0881   3.1092   3.1557   3.1968   3.2114   3.2412
  3.3022   3.3070   3.3244   3.3597   3.3829   3.4200   3.4508   3.4863
  3.5299   3.5499   3.5740   3.6017   3.6724   3.6997   3.7816   3.8317
  3.8982   4.0480   4.0681   4.1162   4.1900   4.2044   4.2514   4.3726
  4.7785   4.8421   4.9996   5.0414   5.1124   5.1863   5.3186   5.4704
  5.6748   5.7448   5.8541  23.5554  23.7897  23.9080  23.9176  23.9453
 23.9700  24.0258  24.1136  24.1576  24.1883  49.9430  50.0065  50.1083
 
 Beta MOs
 -- Occupied --
-19.1549 -19.0736 -19.0706 -10.2349 -10.2189 -10.2163 -10.1814 -10.1744
-10.1743 -10.1718 -10.1713 -10.1693 -10.1574  -1.0593  -1.0061  -0.9790
 -0.8607  -0.7983  -0.7531  -0.7287  -0.6746  -0.6220  -0.5930  -0.5842
 -0.5236  -0.5134  -0.4962  -0.4489  -0.4448  -0.4265  -0.4199  -0.4180
 -0.4093  -0.3886  -0.3850  -0.3791  -0.3589  -0.3501  -0.3392  -0.3189
 -0.2724  -0.2573  -0.2507  -0.2222  -0.2170
 -- Virtual --
 -0.0868  -0.0286  -0.0018   0.0079   0.0087   0.0165   0.0306   0.0312
  0.0499   0.0511   0.0568   0.0592   0.0618   0.0728   0.0792   0.0871
  0.0937   0.1001   0.1018   0.1083   0.1141   0.1166   0.1195   0.1270
  0.1277   0.1327   0.1402   0.1429   0.1462   0.1519   0.1534   0.1582
  0.1615   0.1625   0.1756   0.1934   0.1954   0.1961   0.2106   0.2112
  0.2157   0.2234   0.2281   0.2304   0.2372   0.2417   0.2469   0.2532
  0.2640   0.2647   0.2716   0.2748   0.2813   0.2872   0.2892   0.2972
  0.2993   0.3022   0.3071   0.3127   0.3172   0.3236   0.3336   0.3389
  0.3410   0.3480   0.3516   0.3560   0.3705   0.3800   0.3841   0.4027
  0.4063   0.4196   0.4323   0.4547   0.4705   0.4836   0.5213   0.5378
  0.5382   0.5489   0.5506   0.5687   0.5907   0.5935   0.5987   0.6013
  0.6026   0.6103   0.6125   0.6354   0.6397   0.6413   0.6535   0.6550
  0.6719   0.6821   0.7071   0.7135   0.7410   0.7549   0.7580   0.7599
  0.7821   0.7901   0.8158   0.8263   0.8408   0.8650   0.8687   0.8902
  0.8979   0.9052   0.9215   0.9345   0.9429   0.9533   0.9611   0.9717
  0.9791   0.9968   1.0387   1.0459   1.0491   1.0643   1.0773   1.0840
  1.0861   1.1224   1.1251   1.1278   1.1392   1.1405   1.1486   1.1873
  1.2155   1.2226   1.2434   1.2608   1.2706   1.2958   1.2975   1.3195
  1.3388   1.3778   1.3876   1.4145   1.4966   1.5053   1.5070   1.5264
  1.5279   1.5393   1.5693   1.5728   1.6248   1.6285   1.6309   1.6642
  1.6742   1.7126   1.7200   1.7270   1.7527   1.7531   1.7614   1.7755
  1.8079   1.8260   1.8351   1.8557   1.8841   1.8971   1.9107   1.9244
  1.9352   1.9489   1.9589   1.9726   1.9910   2.0160   2.0282   2.0550
  2.0842   2.0859   2.1401   2.1455   2.1705   2.1717   2.2124   2.2726
  2.3158   2.3261   2.3737   2.3851   2.4439   2.4821   2.5062   2.5272
  2.6098   2.6133   2.6406   2.6661   2.6700   2.7099   2.7163   2.7234
  2.7460   2.7557   2.7684   2.7734   2.7833   2.7925   2.8047   2.8510
  2.8622   2.8753   2.9035   2.9074   2.9435   2.9506   2.9585   2.9737
  3.0455   3.0577   3.0876   3.0911   3.1128   3.1604   3.1988   3.2130
  3.2424   3.3043   3.3226   3.3260   3.3616   3.3984   3.4212   3.4521
  3.4887   3.5311   3.5515   3.5764   3.6032   3.6747   3.7019   3.7850
  3.8355   3.8998   4.0490   4.0695   4.1176   4.1922   4.2064   4.2546
  4.3758   4.7832   4.8433   5.0043   5.0648   5.1362   5.1909   5.3234
  5.4715   5.6791   5.7467   5.8593  23.5563  23.7909  23.9104  23.9196
 23.9458  23.9708  24.0266  24.1140  24.1580  24.1887  49.9441  50.0119
 50.1141
 --------------------------------------------------------------
 
          Ground-State Mulliken Net Atomic Charges

     Atom                 Charge (a.u.)    Spin (a.u.)
  --------------------------------------------------------
      1 C                     0.222260       0.068143
      2 C                    -0.389072       0.013368
      3 C                    -0.439306       0.063873
      4 C                     0.025822       0.014845
      5 C                    -0.261877       0.044455
      6 C                     0.220285       0.014707
      7 C                    -0.287073       0.142562
      8 C                    -0.111559       0.160317
      9 C                     0.253529      -0.074663
     10 C                    -0.130158       0.113379
     11 O                    -0.508144       0.244171
     12 O                    -0.546091       0.177252
     13 H                     0.164262      -0.004406
     14 H                     0.199470      -0.001715
     15 H                     0.197713      -0.004578
     16 H                     0.187007       0.000949
     17 H                     0.181963       0.001688
     18 O                    -0.291739       0.026514
     19 H                     0.312710      -0.000862
  --------------------------------------------------------
  Sum of atomic charges =    -1.000000
  Sum of spin   charges =     1.000000

 -----------------------------------------------------------------
                    Cartesian Multipole Moments
 -----------------------------------------------------------------
    Charge (ESU x 10^10)
                -4.8032
    Dipole Moment (Debye)
         X      -7.0218      Y     -18.8962      Z       5.0338
       Tot      20.7777
    Quadrupole Moments (Debye-Ang)
        XX     -92.8791     XY     -34.6850     YY    -153.1490
        XZ       9.2748     YZ      19.2816     ZZ     -85.7823
    Octopole Moments (Debye-Ang^2)
       XXX     -99.4294    XXY    -233.6519    XYY    -129.9360
       YYY    -735.3570    XXZ      61.6078    XYZ      34.7668
       YYZ     120.7435    XZZ      -7.9906    YZZ    -162.4879
       ZZZ     116.0804
    Hexadecapole Moments (Debye-Ang^3)
      XXXX   -1849.8574   XXXY    -479.5971   XXYY   -1018.9435
      XYYY    -619.5691   YYYY   -4002.7409   XXXZ     125.9970
      XXYZ     183.3309   XYYZ     146.5854   YYYZ     702.0546
      XXZZ    -373.5956   XYZZ     -69.7176   YYZZ    -582.7258
      XZZZ      33.9616   YZZZ     364.6058   ZZZZ    -281.0723
 -----------------------------------------------------------------
 Total job time:  35.04s(wall), 186.12s(cpu) 
 Wed Jun 12 03:16:10 2024

        *************************************************************
        *                                                           *
        *  Thank you very much for using Q-Chem.  Have a nice day.  *
        *                                                           *
        *************************************************************


