 Entering Gaussian System, Link 0=g16
 Input=171-rad.com
 Output=171-rad.log
 Initial command:
 /sysapps/ubuntu-applications/gaussian/Gaussian/AVX2/g16/l1.exe "/scratch/selhajj1/4221747/Gau-161466.inp" -scrdir="/scratch/selhajj1/4221747/"
 Entering Link 1 = /sysapps/ubuntu-applications/gaussian/Gaussian/AVX2/g16/l1.exe PID=    161509.
  
 Copyright (c) 1988,1990,1992,1993,1995,1998,2003,2009,2016,
            Gaussian, Inc.  All Rights Reserved.
  
 This is part of the Gaussian(R) 16 program.  It is based on
 the Gaussian(R) 09 system (copyright 2009, Gaussian, Inc.),
 the Gaussian(R) 03 system (copyright 2003, Gaussian, Inc.),
 the Gaussian(R) 98 system (copyright 1998, Gaussian, Inc.),
 the Gaussian(R) 94 system (copyright 1995, Gaussian, Inc.),
 the Gaussian 92(TM) system (copyright 1992, Gaussian, Inc.),
 the Gaussian 90(TM) system (copyright 1990, Gaussian, Inc.),
 the Gaussian 88(TM) system (copyright 1988, Gaussian, Inc.),
 the Gaussian 86(TM) system (copyright 1986, Carnegie Mellon
 University), and the Gaussian 82(TM) system (copyright 1983,
 Carnegie Mellon University). Gaussian is a federally registered
 trademark of Gaussian, Inc.
  
 This software contains proprietary and confidential information,
 including trade secrets, belonging to Gaussian, Inc.
  
 This software is provided under written license and may be
 used, copied, transmitted, or stored only in accord with that
 written license.
  
 The following legend is applicable only to US Government
 contracts under FAR:
  
                    RESTRICTED RIGHTS LEGEND
  
 Use, reproduction and disclosure by the US Government is
 subject to restrictions as set forth in subparagraphs (a)
 and (c) of the Commercial Computer Software - Restricted
 Rights clause in FAR 52.227-19.
  
 Gaussian, Inc.
 340 Quinnipiac St., Bldg. 40, Wallingford CT 06492
  
  
 ---------------------------------------------------------------
 Warning -- This program may not be used in any manner that
 competes with the business of Gaussian, Inc. or will provide
 assistance to any competitor of Gaussian, Inc.  The licensee
 of this program is prohibited from giving any competitor of
 Gaussian, Inc. access to this program.  By using this program,
 the user acknowledges that Gaussian, Inc. is engaged in the
 business of creating and licensing software in the field of
 computational chemistry and represents and warrants to the
 licensee that it is not a competitor of Gaussian, Inc. and that
 it will not use this program in any manner prohibited above.
 ---------------------------------------------------------------
  

 Cite this work as:
 Gaussian 16, Revision A.03,
 M. J. Frisch, G. W. Trucks, H. B. Schlegel, G. E. Scuseria, 
 M. A. Robb, J. R. Cheeseman, G. Scalmani, V. Barone, 
 G. A. Petersson, H. Nakatsuji, X. Li, M. Caricato, A. V. Marenich, 
 J. Bloino, B. G. Janesko, R. Gomperts, B. Mennucci, H. P. Hratchian, 
 J. V. Ortiz, A. F. Izmaylov, J. L. Sonnenberg, D. Williams-Young, 
 F. Ding, F. Lipparini, F. Egidi, J. Goings, B. Peng, A. Petrone, 
 T. Henderson, D. Ranasinghe, V. G. Zakrzewski, J. Gao, N. Rega, 
 G. Zheng, W. Liang, M. Hada, M. Ehara, K. Toyota, R. Fukuda, 
 J. Hasegawa, M. Ishida, T. Nakajima, Y. Honda, O. Kitao, H. Nakai, 
 T. Vreven, K. Throssell, J. A. Montgomery, Jr., J. E. Peralta, 
 F. Ogliaro, M. J. Bearpark, J. J. Heyd, E. N. Brothers, K. N. Kudin, 
 V. N. Staroverov, T. A. Keith, R. Kobayashi, J. Normand, 
 K. Raghavachari, A. P. Rendell, J. C. Burant, S. S. Iyengar, 
 J. Tomasi, M. Cossi, J. M. Millam, M. Klene, C. Adamo, R. Cammi, 
 J. W. Ochterski, R. L. Martin, K. Morokuma, O. Farkas, 
 J. B. Foresman, and D. J. Fox, Gaussian, Inc., Wallingford CT, 2016.
 
 ******************************************
 Gaussian 16:  ES64L-G16RevA.03 25-Dec-2016
                21-Dec-2023 
 ******************************************
 %chk=171-rad.chk
 %nproc=8
 Will use up to    8 processors via shared memory.
 %mem=30GB
 --------------------------------------
 #P UB3LYP/6-311++G(d,p) nosym opt freq
 --------------------------------------
 1/18=20,19=15,26=3,38=1/1,3;
 2/9=110,12=2,15=1,17=6,18=5,40=1/2;
 3/5=4,6=6,7=1111,11=2,25=1,30=1,71=1,74=-5,116=2/1,2,3;
 4//1;
 5/5=2,38=5/2;
 6/7=2,8=2,9=2,10=2,28=1/1;
 7/30=1/1,2,3,16;
 1/18=20,19=15,26=3/3(2);
 2/9=110,15=1/2;
 99//99;
 2/9=110,15=1/2;
 3/5=4,6=6,7=1111,11=2,25=1,30=1,71=1,74=-5,116=2/1,2,3;
 4/5=5,16=3,69=1/1;
 5/5=2,38=5/2;
 7/30=1/1,2,3,16;
 1/18=20,19=15,26=3/3(-5);
 2/9=110,15=1/2;
 6/7=2,8=2,9=2,10=2,19=2,28=1/1;
 99/9=1/99;
 Leave Link    1 at Thu Dec 21 05:34:01 2023, MaxMem=  4026531840 cpu:               0.9 elap:               0.1
 (Enter /sysapps/ubuntu-applications/gaussian/Gaussian/AVX2/g16/l101.exe)
 -------
 Radical
 -------
 Symbolic Z-matrix:
 Charge = -1 Multiplicity = 2
 C                    -1.26679   1.92462  -4.24084 
 C                    -1.27842   0.53012  -4.29998 
 C                    -1.05323  -0.21748  -3.14517 
 C                    -1.03632   2.57412  -3.02044 
 C                    -0.81199   1.82967  -1.87092 
 C                    -0.81633   0.42944  -1.93125 
 C                    -1.00432   4.0442   -2.96377 
 C                    -0.54281   2.51032  -0.59479 
 C                    -0.99667   4.73353  -1.64325 
 C                    -0.76919   3.97744  -0.47646 
 C                    -1.18569   6.13662  -1.57334 
 C                    -1.18636   6.72741  -0.30505 
 C                    -0.9602    5.97765   0.85235 
 C                    -0.72328   4.60064   0.79625 
 O                    -0.96819   4.67543  -4.01686 
 O                    -0.12      1.85136   0.35224 
 H                    -1.43687   2.50212  -5.14796 
 H                    -1.45928   0.02815  -5.24793 
 H                    -1.05808  -1.30434  -3.18986 
 H                    -0.63497  -0.16091  -1.03477 
 H                    -1.01787   6.49408   1.80683 
 H                    -1.40521   7.78523  -0.18571 
 N                    -1.52223   6.892    -2.71258 
 C                    -1.06935   8.26976  -2.80075 
 H                    -1.29766   6.36225  -3.5682 
 H                     0.00715   8.34898  -2.61619 
 H                    -1.61175   8.91734  -2.1053 
 H                    -1.2645    8.64628  -3.81009 
 N                    -0.60033   3.84774   1.98234 
 C                     0.15868   4.42129   3.09307 
 C                     0.35914   3.3825    4.20353 
 O                     1.189     3.9002    5.24053 
 H                    -0.27931   2.8949    1.75048 
 H                    -0.35901   5.2857    3.52413 
 H                     1.14013   4.76965   2.74751 
 H                     0.82212   2.46872   3.81526 
 H                    -0.60407   3.10543   4.64434 
 H                     2.09139   3.96681   4.88333 
 
 ITRead=  0  0  0  0  0  0  0  0  0  0  0  0  0  0  0  0  0  0  0  0
 ITRead=  0  0  0  0  0  0  0  0  0  0  0  0  0  0  0  0  0  0
 MicOpt= -1 -1 -1 -1 -1 -1 -1 -1 -1 -1 -1 -1 -1 -1 -1 -1 -1 -1 -1 -1
 MicOpt= -1 -1 -1 -1 -1 -1 -1 -1 -1 -1 -1 -1 -1 -1 -1 -1 -1 -1
 NAtoms=     38 NQM=       38 NQMF=       0 NMMI=      0 NMMIF=      0
                NMic=       0 NMicF=      0.
                    Isotopes and Nuclear Properties:
 (Nuclear quadrupole moments (NQMom) in fm**2, nuclear magnetic moments (NMagM)
  in nuclear magnetons)

  Atom         1           2           3           4           5           6           7           8           9          10
 IAtWgt=          12          12          12          12          12          12          12          12          12          12
 AtmWgt=  12.0000000  12.0000000  12.0000000  12.0000000  12.0000000  12.0000000  12.0000000  12.0000000  12.0000000  12.0000000
 NucSpn=           0           0           0           0           0           0           0           0           0           0
 AtZEff=  -0.0000000  -0.0000000  -0.0000000  -0.0000000  -0.0000000  -0.0000000  -0.0000000  -0.0000000  -0.0000000  -0.0000000
 NQMom=    0.0000000   0.0000000   0.0000000   0.0000000   0.0000000   0.0000000   0.0000000   0.0000000   0.0000000   0.0000000
 NMagM=    0.0000000   0.0000000   0.0000000   0.0000000   0.0000000   0.0000000   0.0000000   0.0000000   0.0000000   0.0000000
 AtZNuc=   6.0000000   6.0000000   6.0000000   6.0000000   6.0000000   6.0000000   6.0000000   6.0000000   6.0000000   6.0000000

  Atom        11          12          13          14          15          16          17          18          19          20
 IAtWgt=          12          12          12          12          16          16           1           1           1           1
 AtmWgt=  12.0000000  12.0000000  12.0000000  12.0000000  15.9949146  15.9949146   1.0078250   1.0078250   1.0078250   1.0078250
 NucSpn=           0           0           0           0           0           0           1           1           1           1
 AtZEff=  -0.0000000  -0.0000000  -0.0000000  -0.0000000  -0.0000000  -0.0000000  -0.0000000  -0.0000000  -0.0000000  -0.0000000
 NQMom=    0.0000000   0.0000000   0.0000000   0.0000000   0.0000000   0.0000000   0.0000000   0.0000000   0.0000000   0.0000000
 NMagM=    0.0000000   0.0000000   0.0000000   0.0000000   0.0000000   0.0000000   2.7928460   2.7928460   2.7928460   2.7928460
 AtZNuc=   6.0000000   6.0000000   6.0000000   6.0000000   8.0000000   8.0000000   1.0000000   1.0000000   1.0000000   1.0000000

  Atom        21          22          23          24          25          26          27          28          29          30
 IAtWgt=           1           1          14          12           1           1           1           1          14          12
 AtmWgt=   1.0078250   1.0078250  14.0030740  12.0000000   1.0078250   1.0078250   1.0078250   1.0078250  14.0030740  12.0000000
 NucSpn=           1           1           2           0           1           1           1           1           2           0
 AtZEff=  -0.0000000  -0.0000000  -0.0000000  -0.0000000  -0.0000000  -0.0000000  -0.0000000  -0.0000000  -0.0000000  -0.0000000
 NQMom=    0.0000000   0.0000000   2.0440000   0.0000000   0.0000000   0.0000000   0.0000000   0.0000000   2.0440000   0.0000000
 NMagM=    2.7928460   2.7928460   0.4037610   0.0000000   2.7928460   2.7928460   2.7928460   2.7928460   0.4037610   0.0000000
 AtZNuc=   1.0000000   1.0000000   7.0000000   6.0000000   1.0000000   1.0000000   1.0000000   1.0000000   7.0000000   6.0000000

  Atom        31          32          33          34          35          36          37          38
 IAtWgt=          12          16           1           1           1           1           1           1
 AtmWgt=  12.0000000  15.9949146   1.0078250   1.0078250   1.0078250   1.0078250   1.0078250   1.0078250
 NucSpn=           0           0           1           1           1           1           1           1
 AtZEff=  -0.0000000  -0.0000000  -0.0000000  -0.0000000  -0.0000000  -0.0000000  -0.0000000  -0.0000000
 NQMom=    0.0000000   0.0000000   0.0000000   0.0000000   0.0000000   0.0000000   0.0000000   0.0000000
 NMagM=    0.0000000   0.0000000   2.7928460   2.7928460   2.7928460   2.7928460   2.7928460   2.7928460
 AtZNuc=   6.0000000   8.0000000   1.0000000   1.0000000   1.0000000   1.0000000   1.0000000   1.0000000
 Leave Link  101 at Thu Dec 21 05:34:01 2023, MaxMem=  4026531840 cpu:               2.8 elap:               0.6
 (Enter /sysapps/ubuntu-applications/gaussian/Gaussian/AVX2/g16/l103.exe)

 GradGradGradGradGradGradGradGradGradGradGradGradGradGradGradGradGradGrad
 Berny optimization.
 Initialization pass.
                           ----------------------------
                           !    Initial Parameters    !
                           ! (Angstroms and Degrees)  !
 --------------------------                            --------------------------
 ! Name  Definition              Value          Derivative Info.                !
 --------------------------------------------------------------------------------
 ! R1    R(1,2)                  1.3958         estimate D2E/DX2                !
 ! R2    R(1,4)                  1.4016         estimate D2E/DX2                !
 ! R3    R(1,17)                 1.0887         estimate D2E/DX2                !
 ! R4    R(2,3)                  1.394          estimate D2E/DX2                !
 ! R5    R(2,18)                 1.0878         estimate D2E/DX2                !
 ! R6    R(3,6)                  1.3958         estimate D2E/DX2                !
 ! R7    R(3,19)                 1.0878         estimate D2E/DX2                !
 ! R8    R(4,5)                  1.3878         estimate D2E/DX2                !
 ! R9    R(4,7)                  1.4715         estimate D2E/DX2                !
 ! R10   R(5,6)                  1.4015         estimate D2E/DX2                !
 ! R11   R(5,8)                  1.4711         estimate D2E/DX2                !
 ! R12   R(6,20)                 1.0886         estimate D2E/DX2                !
 ! R13   R(7,9)                  1.4896         estimate D2E/DX2                !
 ! R14   R(7,15)                 1.2283         estimate D2E/DX2                !
 ! R15   R(8,10)                 1.4892         estimate D2E/DX2                !
 ! R16   R(8,16)                 1.2288         estimate D2E/DX2                !
 ! R17   R(9,10)                 1.4088         estimate D2E/DX2                !
 ! R18   R(9,11)                 1.4175         estimate D2E/DX2                !
 ! R19   R(10,14)                1.4178         estimate D2E/DX2                !
 ! R20   R(11,12)                1.3991         estimate D2E/DX2                !
 ! R21   R(11,23)                1.4077         estimate D2E/DX2                !
 ! R22   R(12,13)                1.3974         estimate D2E/DX2                !
 ! R23   R(12,22)                1.0868         estimate D2E/DX2                !
 ! R24   R(13,14)                1.3984         estimate D2E/DX2                !
 ! R25   R(13,21)                1.0868         estimate D2E/DX2                !
 ! R26   R(14,29)                1.4102         estimate D2E/DX2                !
 ! R27   R(23,24)                1.453          estimate D2E/DX2                !
 ! R28   R(23,25)                1.0311         estimate D2E/DX2                !
 ! R29   R(24,26)                1.0951         estimate D2E/DX2                !
 ! R30   R(24,27)                1.0942         estimate D2E/DX2                !
 ! R31   R(24,28)                1.0948         estimate D2E/DX2                !
 ! R32   R(29,30)                1.4625         estimate D2E/DX2                !
 ! R33   R(29,33)                1.0319         estimate D2E/DX2                !
 ! R34   R(30,31)                1.5338         estimate D2E/DX2                !
 ! R35   R(30,34)                1.0959         estimate D2E/DX2                !
 ! R36   R(30,35)                1.0973         estimate D2E/DX2                !
 ! R37   R(31,32)                1.4255         estimate D2E/DX2                !
 ! R38   R(31,36)                1.0955         estimate D2E/DX2                !
 ! R39   R(31,37)                1.0949         estimate D2E/DX2                !
 ! R40   R(32,38)                0.9728         estimate D2E/DX2                !
 ! A1    A(2,1,4)              120.0825         estimate D2E/DX2                !
 ! A2    A(2,1,17)             119.5605         estimate D2E/DX2                !
 ! A3    A(4,1,17)             120.3569         estimate D2E/DX2                !
 ! A4    A(1,2,3)              119.9574         estimate D2E/DX2                !
 ! A5    A(1,2,18)             119.956          estimate D2E/DX2                !
 ! A6    A(3,2,18)             120.0861         estimate D2E/DX2                !
 ! A7    A(2,3,6)              119.9558         estimate D2E/DX2                !
 ! A8    A(2,3,19)             120.0722         estimate D2E/DX2                !
 ! A9    A(6,3,19)             119.9716         estimate D2E/DX2                !
 ! A10   A(1,4,5)              119.9502         estimate D2E/DX2                !
 ! A11   A(1,4,7)              120.0047         estimate D2E/DX2                !
 ! A12   A(5,4,7)              120.0327         estimate D2E/DX2                !
 ! A13   A(4,5,6)              119.9853         estimate D2E/DX2                !
 ! A14   A(4,5,8)              119.9937         estimate D2E/DX2                !
 ! A15   A(6,5,8)              120.0095         estimate D2E/DX2                !
 ! A16   A(3,6,5)              120.0669         estimate D2E/DX2                !
 ! A17   A(3,6,20)             119.547          estimate D2E/DX2                !
 ! A18   A(5,6,20)             120.3862         estimate D2E/DX2                !
 ! A19   A(4,7,9)              119.772          estimate D2E/DX2                !
 ! A20   A(4,7,15)             118.752          estimate D2E/DX2                !
 ! A21   A(9,7,15)             121.4702         estimate D2E/DX2                !
 ! A22   A(5,8,10)             119.7966         estimate D2E/DX2                !
 ! A23   A(5,8,16)             118.9073         estimate D2E/DX2                !
 ! A24   A(10,8,16)            121.2918         estimate D2E/DX2                !
 ! A25   A(7,9,10)             119.1208         estimate D2E/DX2                !
 ! A26   A(7,9,11)             120.0719         estimate D2E/DX2                !
 ! A27   A(10,9,11)            120.7912         estimate D2E/DX2                !
 ! A28   A(8,10,9)             119.1738         estimate D2E/DX2                !
 ! A29   A(8,10,14)            119.9623         estimate D2E/DX2                !
 ! A30   A(9,10,14)            120.8476         estimate D2E/DX2                !
 ! A31   A(9,11,12)            117.5636         estimate D2E/DX2                !
 ! A32   A(9,11,23)            121.5408         estimate D2E/DX2                !
 ! A33   A(12,11,23)           120.4572         estimate D2E/DX2                !
 ! A34   A(11,12,13)           121.6105         estimate D2E/DX2                !
 ! A35   A(11,12,22)           120.7059         estimate D2E/DX2                !
 ! A36   A(13,12,22)           117.6365         estimate D2E/DX2                !
 ! A37   A(12,13,14)           121.5013         estimate D2E/DX2                !
 ! A38   A(12,13,21)           117.6369         estimate D2E/DX2                !
 ! A39   A(14,13,21)           120.8083         estimate D2E/DX2                !
 ! A40   A(10,14,13)           117.6037         estimate D2E/DX2                !
 ! A41   A(10,14,29)           121.542          estimate D2E/DX2                !
 ! A42   A(13,14,29)           120.4479         estimate D2E/DX2                !
 ! A43   A(11,23,24)           118.9085         estimate D2E/DX2                !
 ! A44   A(11,23,25)           110.1081         estimate D2E/DX2                !
 ! A45   A(24,23,25)           111.6503         estimate D2E/DX2                !
 ! A46   A(23,24,26)           111.3939         estimate D2E/DX2                !
 ! A47   A(23,24,27)           111.6004         estimate D2E/DX2                !
 ! A48   A(23,24,28)           109.0564         estimate D2E/DX2                !
 ! A49   A(26,24,27)           109.7169         estimate D2E/DX2                !
 ! A50   A(26,24,28)           107.8018         estimate D2E/DX2                !
 ! A51   A(27,24,28)           107.1017         estimate D2E/DX2                !
 ! A52   A(14,29,30)           118.3364         estimate D2E/DX2                !
 ! A53   A(14,29,33)           109.3377         estimate D2E/DX2                !
 ! A54   A(30,29,33)           111.7988         estimate D2E/DX2                !
 ! A55   A(29,30,31)           110.6158         estimate D2E/DX2                !
 ! A56   A(29,30,34)           111.279          estimate D2E/DX2                !
 ! A57   A(29,30,35)           110.459          estimate D2E/DX2                !
 ! A58   A(31,30,34)           108.1301         estimate D2E/DX2                !
 ! A59   A(31,30,35)           109.0342         estimate D2E/DX2                !
 ! A60   A(34,30,35)           107.2162         estimate D2E/DX2                !
 ! A61   A(30,31,32)           110.9045         estimate D2E/DX2                !
 ! A62   A(30,31,36)           111.3197         estimate D2E/DX2                !
 ! A63   A(30,31,37)           110.3587         estimate D2E/DX2                !
 ! A64   A(32,31,36)           108.3446         estimate D2E/DX2                !
 ! A65   A(32,31,37)           108.1286         estimate D2E/DX2                !
 ! A66   A(36,31,37)           107.6618         estimate D2E/DX2                !
 ! A67   A(31,32,38)           107.3237         estimate D2E/DX2                !
 ! D1    D(4,1,2,3)             -0.3528         estimate D2E/DX2                !
 ! D2    D(4,1,2,18)           179.8899         estimate D2E/DX2                !
 ! D3    D(17,1,2,3)           179.5956         estimate D2E/DX2                !
 ! D4    D(17,1,2,18)           -0.1617         estimate D2E/DX2                !
 ! D5    D(2,1,4,5)              0.3608         estimate D2E/DX2                !
 ! D6    D(2,1,4,7)            179.0805         estimate D2E/DX2                !
 ! D7    D(17,1,4,5)          -179.5872         estimate D2E/DX2                !
 ! D8    D(17,1,4,7)            -0.8674         estimate D2E/DX2                !
 ! D9    D(1,2,3,6)             -0.004          estimate D2E/DX2                !
 ! D10   D(1,2,3,19)          -179.7646         estimate D2E/DX2                !
 ! D11   D(18,2,3,6)           179.753          estimate D2E/DX2                !
 ! D12   D(18,2,3,19)           -0.0076         estimate D2E/DX2                !
 ! D13   D(2,3,6,5)              0.3528         estimate D2E/DX2                !
 ! D14   D(2,3,6,20)          -179.6113         estimate D2E/DX2                !
 ! D15   D(19,3,6,5)          -179.8864         estimate D2E/DX2                !
 ! D16   D(19,3,6,20)            0.1496         estimate D2E/DX2                !
 ! D17   D(1,4,5,6)             -0.0119         estimate D2E/DX2                !
 ! D18   D(1,4,5,8)            178.7548         estimate D2E/DX2                !
 ! D19   D(7,4,5,6)           -178.7312         estimate D2E/DX2                !
 ! D20   D(7,4,5,8)              0.0354         estimate D2E/DX2                !
 ! D21   D(1,4,7,9)            169.4094         estimate D2E/DX2                !
 ! D22   D(1,4,7,15)           -11.4558         estimate D2E/DX2                !
 ! D23   D(5,4,7,9)            -11.8719         estimate D2E/DX2                !
 ! D24   D(5,4,7,15)           167.2629         estimate D2E/DX2                !
 ! D25   D(4,5,6,3)             -0.3449         estimate D2E/DX2                !
 ! D26   D(4,5,6,20)           179.6189         estimate D2E/DX2                !
 ! D27   D(8,5,6,3)           -179.1113         estimate D2E/DX2                !
 ! D28   D(8,5,6,20)             0.8524         estimate D2E/DX2                !
 ! D29   D(4,5,8,10)            11.8167         estimate D2E/DX2                !
 ! D30   D(4,5,8,16)          -167.4474         estimate D2E/DX2                !
 ! D31   D(6,5,8,10)          -169.417          estimate D2E/DX2                !
 ! D32   D(6,5,8,16)            11.3189         estimate D2E/DX2                !
 ! D33   D(4,7,9,10)            11.7519         estimate D2E/DX2                !
 ! D34   D(4,7,9,11)          -169.6962         estimate D2E/DX2                !
 ! D35   D(15,7,9,10)         -167.3588         estimate D2E/DX2                !
 ! D36   D(15,7,9,11)           11.1932         estimate D2E/DX2                !
 ! D37   D(5,8,10,9)           -11.7315         estimate D2E/DX2                !
 ! D38   D(5,8,10,14)          169.7244         estimate D2E/DX2                !
 ! D39   D(16,8,10,9)          167.5146         estimate D2E/DX2                !
 ! D40   D(16,8,10,14)         -11.0295         estimate D2E/DX2                !
 ! D41   D(7,9,10,8)            -0.0066         estimate D2E/DX2                !
 ! D42   D(7,9,10,14)          178.5243         estimate D2E/DX2                !
 ! D43   D(11,9,10,8)         -178.5478         estimate D2E/DX2                !
 ! D44   D(11,9,10,14)          -0.0169         estimate D2E/DX2                !
 ! D45   D(7,9,11,12)          179.1835         estimate D2E/DX2                !
 ! D46   D(7,9,11,23)            6.7506         estimate D2E/DX2                !
 ! D47   D(10,9,11,12)          -2.2891         estimate D2E/DX2                !
 ! D48   D(10,9,11,23)        -174.722          estimate D2E/DX2                !
 ! D49   D(8,10,14,13)        -179.1814         estimate D2E/DX2                !
 ! D50   D(8,10,14,29)          -6.4697         estimate D2E/DX2                !
 ! D51   D(9,10,14,13)           2.2992         estimate D2E/DX2                !
 ! D52   D(9,10,14,29)         175.0109         estimate D2E/DX2                !
 ! D53   D(9,11,12,13)           2.335          estimate D2E/DX2                !
 ! D54   D(9,11,12,22)        -175.1087         estimate D2E/DX2                !
 ! D55   D(23,11,12,13)        174.8539         estimate D2E/DX2                !
 ! D56   D(23,11,12,22)         -2.5898         estimate D2E/DX2                !
 ! D57   D(9,11,23,24)        -149.2501         estimate D2E/DX2                !
 ! D58   D(9,11,23,25)         -18.6339         estimate D2E/DX2                !
 ! D59   D(12,11,23,24)         38.5333         estimate D2E/DX2                !
 ! D60   D(12,11,23,25)        169.1495         estimate D2E/DX2                !
 ! D61   D(11,12,13,14)         -0.0371         estimate D2E/DX2                !
 ! D62   D(11,12,13,21)       -177.3975         estimate D2E/DX2                !
 ! D63   D(22,12,13,14)        177.482          estimate D2E/DX2                !
 ! D64   D(22,12,13,21)          0.1216         estimate D2E/DX2                !
 ! D65   D(12,13,14,10)         -2.2891         estimate D2E/DX2                !
 ! D66   D(12,13,14,29)       -175.0845         estimate D2E/DX2                !
 ! D67   D(21,13,14,10)        174.9882         estimate D2E/DX2                !
 ! D68   D(21,13,14,29)          2.1928         estimate D2E/DX2                !
 ! D69   D(10,14,29,30)        146.1024         estimate D2E/DX2                !
 ! D70   D(10,14,29,33)         16.5805         estimate D2E/DX2                !
 ! D71   D(13,14,29,30)        -41.3906         estimate D2E/DX2                !
 ! D72   D(13,14,29,33)       -170.9125         estimate D2E/DX2                !
 ! D73   D(11,23,24,26)         51.3628         estimate D2E/DX2                !
 ! D74   D(11,23,24,27)        -71.6499         estimate D2E/DX2                !
 ! D75   D(11,23,24,28)        170.2259         estimate D2E/DX2                !
 ! D76   D(25,23,24,26)        -78.5589         estimate D2E/DX2                !
 ! D77   D(25,23,24,27)        158.4284         estimate D2E/DX2                !
 ! D78   D(25,23,24,28)         40.3041         estimate D2E/DX2                !
 ! D79   D(14,29,30,31)       -171.5166         estimate D2E/DX2                !
 ! D80   D(14,29,30,34)         68.2647         estimate D2E/DX2                !
 ! D81   D(14,29,30,35)        -50.7028         estimate D2E/DX2                !
 ! D82   D(33,29,30,31)        -43.1372         estimate D2E/DX2                !
 ! D83   D(33,29,30,34)       -163.3559         estimate D2E/DX2                !
 ! D84   D(33,29,30,35)         77.6766         estimate D2E/DX2                !
 ! D85   D(29,30,31,32)        175.3197         estimate D2E/DX2                !
 ! D86   D(29,30,31,36)         54.6074         estimate D2E/DX2                !
 ! D87   D(29,30,31,37)        -64.8785         estimate D2E/DX2                !
 ! D88   D(34,30,31,32)        -62.5957         estimate D2E/DX2                !
 ! D89   D(34,30,31,36)        176.6921         estimate D2E/DX2                !
 ! D90   D(34,30,31,37)         57.2061         estimate D2E/DX2                !
 ! D91   D(35,30,31,32)         53.6625         estimate D2E/DX2                !
 ! D92   D(35,30,31,36)        -67.0498         estimate D2E/DX2                !
 ! D93   D(35,30,31,37)        173.4643         estimate D2E/DX2                !
 ! D94   D(30,31,32,38)        -70.531          estimate D2E/DX2                !
 ! D95   D(36,31,32,38)         51.9266         estimate D2E/DX2                !
 ! D96   D(37,31,32,38)        168.3435         estimate D2E/DX2                !
 --------------------------------------------------------------------------------
 Trust Radius=3.00D-01 FncErr=1.00D-07 GrdErr=1.00D-06 EigMax=2.50D+02 EigMin=1.00D-04
 Number of steps in this run=    213 maximum allowed number of steps=    228.
 GradGradGradGradGradGradGradGradGradGradGradGradGradGradGradGradGradGrad

 Leave Link  103 at Thu Dec 21 05:34:01 2023, MaxMem=  4026531840 cpu:               0.2 elap:               0.1
 (Enter /sysapps/ubuntu-applications/gaussian/Gaussian/AVX2/g16/l202.exe)
                          Input orientation:                          
 ---------------------------------------------------------------------
 Center     Atomic      Atomic             Coordinates (Angstroms)
 Number     Number       Type             X           Y           Z
 ---------------------------------------------------------------------
      1          6           0       -1.266790    1.924620   -4.240840
      2          6           0       -1.278420    0.530120   -4.299980
      3          6           0       -1.053230   -0.217480   -3.145170
      4          6           0       -1.036320    2.574120   -3.020440
      5          6           0       -0.811990    1.829670   -1.870920
      6          6           0       -0.816330    0.429440   -1.931250
      7          6           0       -1.004320    4.044200   -2.963770
      8          6           0       -0.542810    2.510320   -0.594790
      9          6           0       -0.996670    4.733530   -1.643250
     10          6           0       -0.769190    3.977440   -0.476460
     11          6           0       -1.185690    6.136620   -1.573340
     12          6           0       -1.186360    6.727410   -0.305050
     13          6           0       -0.960200    5.977650    0.852350
     14          6           0       -0.723280    4.600640    0.796250
     15          8           0       -0.968190    4.675430   -4.016860
     16          8           0       -0.120000    1.851360    0.352240
     17          1           0       -1.436870    2.502120   -5.147960
     18          1           0       -1.459280    0.028150   -5.247930
     19          1           0       -1.058080   -1.304340   -3.189860
     20          1           0       -0.634970   -0.160910   -1.034770
     21          1           0       -1.017870    6.494080    1.806830
     22          1           0       -1.405210    7.785230   -0.185710
     23          7           0       -1.522230    6.892000   -2.712580
     24          6           0       -1.069350    8.269760   -2.800750
     25          1           0       -1.297660    6.362250   -3.568200
     26          1           0        0.007150    8.348980   -2.616190
     27          1           0       -1.611750    8.917340   -2.105300
     28          1           0       -1.264500    8.646280   -3.810090
     29          7           0       -0.600330    3.847740    1.982340
     30          6           0        0.158680    4.421290    3.093070
     31          6           0        0.359140    3.382500    4.203530
     32          8           0        1.189000    3.900200    5.240530
     33          1           0       -0.279310    2.894900    1.750480
     34          1           0       -0.359010    5.285700    3.524130
     35          1           0        1.140130    4.769650    2.747510
     36          1           0        0.822120    2.468720    3.815260
     37          1           0       -0.604070    3.105430    4.644340
     38          1           0        2.091390    3.966810    4.883330
 ---------------------------------------------------------------------
                    Distance matrix (angstroms):
                    1          2          3          4          5
     1  C    0.000000
     2  C    1.395802   0.000000
     3  C    2.415511   1.393988   0.000000
     4  C    1.401550   2.423586   2.794436   0.000000
     5  C    2.415032   2.794051   2.423372   1.387777   0.000000
     6  C    2.787953   2.415480   1.395790   2.415447   1.401536
     7  C    2.488457   3.769529   4.265819   1.471520   2.476985
     8  C    3.763093   4.265061   3.769066   2.476166   1.471139
     9  C    3.835416   4.980588   5.174115   2.561499   2.918620
    10  C    4.316507   5.173262   4.979964   2.917619   2.561107
    11  C    4.986289   6.235063   6.546967   3.848093   4.333362
    12  C    6.209968   7.373896   7.504366   4.964441   5.155576
    13  C    6.516259   7.504889   7.373497   5.156386   4.964263
    14  C    5.729639   6.545905   6.233614   4.332655   3.847069
    15  O    2.776020   4.166533   4.970678   2.326585   3.567605
    16  O    4.734647   4.973003   4.169280   3.568893   2.328468
    17  H    1.088715   2.152431   3.399202   2.166095   3.403183
    18  H    2.155895   1.087793   2.155646   3.409189   3.881837
    19  H    3.402103   2.155495   1.087789   3.882220   3.409132
    20  H    3.876534   3.398992   2.152192   3.403580   2.166308
    21  H    7.583946   8.539897   8.340779   6.218437   5.943480
    22  H    7.128113   8.341458   8.539652   5.943689   6.217760
    23  N    5.203431   6.561463   7.138053   4.356027   5.180735
    24  C    6.509504   7.886281   8.494241   5.699971   6.511956
    25  H    4.488425   5.877892   6.597844   3.836440   4.864249
    26  H    6.747949   8.100766   8.648032   5.882283   6.612701
    27  H    7.319676   8.676012   9.210766   6.434675   7.136499
    28  H    6.735448   8.130943   8.891175   6.127539   7.101501
    29  N    6.547559   7.136803   6.559153   5.180734   4.354885
    30  C    7.877281   8.477243   7.867817   6.497312   5.683299
    31  C    8.722181   9.117421   8.304098   7.401792   6.378226
    32  O    9.991506  10.414746   9.607437   8.657607   7.672273
    33  H    6.149185   6.572554   5.852628   4.841244   3.812217
    34  H    8.509740   9.202041   8.674474   7.116376   6.423075
    35  H    7.919880   8.572638   8.025333   6.544198   5.812413
    36  H    8.340284   8.603927   7.692866   7.084610   5.950743
    37  H    8.987766   9.332086   8.480563   7.695322   6.642244
    38  H    9.934706  10.368203   9.584035   8.613462   7.656166
                    6          7          8          9         10
     6  C    0.000000
     7  C    3.764031   0.000000
     8  C    2.488172   2.859693   0.000000
     9  C    4.317483   1.489633   2.499584   0.000000
    10  C    3.834963   2.499291   1.489191   1.408836   0.000000
    11  C    5.730308   2.518812   3.810631   1.417490   2.457372
    12  C    6.515050   3.781739   4.275740   2.408800   2.786709
    13  C    6.209007   4.278194   3.780318   2.788760   2.408954
    14  C    4.984659   3.811346   2.517340   2.458366   1.417842
    15  O    4.732997   1.228314   4.071758   2.374492   3.614031
    16  O    2.778679   4.072652   1.228765   3.613507   2.372427
    17  H    3.876635   2.708467   4.640126   4.178033   4.944217
    18  H    3.402174   4.642524   5.352831   5.945446   6.232178
    19  H    2.156046   5.353586   4.642362   6.233109   5.945014
    20  H    1.088614   4.641165   2.708790   4.945363   4.177998
    21  H    7.126971   5.362902   4.675875   3.873375   3.407159
    22  H    7.582964   4.676926   5.360574   3.406494   3.871475
    23  N    6.547782   2.905390   4.964214   2.465496   3.749928
    24  C    7.892444   4.229203   6.189883   3.721560   4.890443
    25  H    6.173291   2.413450   4.924259   2.539440   3.940235
    26  H    7.991644   4.435653   6.203101   3.876306   4.928642
    27  H    8.526865   4.985322   6.668896   4.253949   5.269311
    28  H    8.440815   4.686480   6.964840   4.480685   5.758167
    29  N    5.200732   4.966468   2.904066   3.753214   2.468002
    30  C    6.490709   6.179003   4.212387   4.885187   3.714766
    31  C    6.909256   7.325780   4.959646   6.152100   4.850710
    32  O    8.215957   8.493640   6.243548   7.270352   6.043546
    33  H    4.463409   4.906188   2.391156   3.925884   2.524111
    34  H    7.318031   6.637062   4.970113   5.235773   4.229008
    35  H    6.675025   6.143587   4.371250   4.883236   3.829763
    36  H    6.313918   7.195364   4.616634   6.183259   4.819478
    37  H    7.102419   7.676251   5.273177   6.506814   5.197139
    38  H    8.210135   8.436017   6.250614   7.260869   6.075391
                   11         12         13         14         15
    11  C    0.000000
    12  C    1.399140   0.000000
    13  C    2.441329   1.397449   0.000000
    14  C    2.861471   2.439356   1.398369   0.000000
    15  O    2.855376   4.246852   5.040342   4.819917   0.000000
    16  O    4.817365   5.034384   4.240556   2.849497   5.271037
    17  H    5.103978   6.431921   6.950557   6.344023   2.494459
    18  H    7.133784   8.329864   8.535751   7.614557   4.832589
    19  H    7.615596   8.535080   8.329251   7.132317   6.037355
    20  H    6.344465   6.948775   6.430312   5.102234   5.691580
    21  H    3.403159   2.131401   1.086765   2.166373   6.101256
    22  H    2.166015   1.086794   2.131419   3.401601   4.953741
    23  N    1.407738   2.436411   3.722988   4.266209   2.630834
    24  C    2.463809   2.936163   4.314026   5.149817   3.795835
    25  H    2.010700   3.285404   4.450063   4.741477   1.776291
    26  H    2.721202   3.065179   4.311582   5.121360   4.050696
    27  H    2.863025   2.866644   4.220662   5.276578   4.697024
    28  H    3.362686   3.996683   5.380756   6.154550   3.987255
    29  N    4.269014   3.723988   2.437806   1.410243   6.067190
    30  C    5.150250   4.321405   2.948724   2.466861   7.203161
    31  C    6.583609   5.822739   4.439129   3.776911   8.426641
    32  O    7.554439   6.662500   5.309518   4.888666   9.536966
    33  H    4.730545   4.442530   3.282316   2.004299   6.075118
    34  H    5.233705   4.174405   2.824647   2.836076   7.590129
    35  H    5.093897   4.308538   3.076082   2.703382   7.085943
    36  H    6.820689   6.256787   4.926265   4.005966   8.331679
    37  H    6.941609   6.160703   4.770290   4.130092   8.809873
    38  H    7.558830   6.729327   5.441000   5.002832   9.438038
                   16         17         18         19         20
    16  O    0.000000
    17  H    5.692964   0.000000
    18  H    6.039840   2.476090   0.000000
    19  H    4.835795   4.297299   2.484380   0.000000
    20  H    2.497643   4.965189   4.297202   2.476059   0.000000
    21  H    4.947409   8.029969   9.579809   9.261959   7.246392
    22  H    6.095241   7.248185   9.262898   9.579441   8.028407
    23  N    6.063615   5.020897   7.317404   8.223334   7.303822
    24  C    7.213769   6.237799   8.606095   9.582010   8.624591
    25  H    6.091376   4.173203   6.555031   7.679658   7.029157
    26  H    7.144705   6.533056   8.849445   9.728844   8.679368
    27  H    7.628427   7.102352   9.429585  10.293958   9.193191
    28  H    8.050206   6.290494   8.739421   9.972068   9.255555
    29  N    2.621731   7.304223   8.222157   7.314719   5.017313
    30  C    3.767539   8.610666   9.565028   8.587116   6.218159
    31  C    4.172098   9.563006  10.192566   8.867762   6.401859
    32  O    5.459543  10.806042  11.489732  10.159138   7.694080
    33  H    1.751979   7.005904   7.654301   6.530472   4.149950
    34  H    4.681101   9.171436  10.285984   9.433715   7.108114
    35  H    3.980159   8.609359   9.652244   8.773702   6.462743
    36  H    3.641597   9.243563   9.659326   8.175747   5.706212
    37  H    4.497681   9.846150  10.395097   9.001494   6.551505
    38  H    5.467737  10.734091  11.435153  10.143006   7.713301
                   21         22         23         24         25
    21  H    0.000000
    22  H    2.405684   0.000000
    23  N    4.564842   2.682653   0.000000
    24  C    4.938166   2.680673   1.452961   0.000000
    25  H    5.383921   3.671196   1.031093   2.068743   0.000000
    26  H    4.904531   2.867021   2.114494   1.095076   2.560459
    27  H    4.640005   2.238115   2.116319   1.094170   2.960948
    28  H    6.020181   3.727913   2.085294   1.094814   2.297042
    29  N    2.684820   4.566410   5.670952   6.530864   6.133313
    30  C    2.708347   4.950984   6.529582   7.145341   7.089483
    31  C    4.162002   6.462383   7.980521   8.659436   8.486677
    32  O    4.836195   7.160130   8.919282   9.426313   9.478338
    33  H    3.674608   5.378830   6.118869   7.087099   6.430234
    34  H    2.200772   4.594028   6.544450   7.029460   7.234720
    35  H    2.918133   4.916936   6.434680   6.922121   6.954667
    36  H    4.860337   7.016697   8.226426   9.000073   8.612115
    37  H    4.439104   6.772868   8.324987   9.072825   8.861927
    38  H    5.051677   7.245806   8.905775   9.356855   9.415527
                   26         27         28         29         30
    26  H    0.000000
    27  H    1.790218   0.000000
    28  H    1.769429   1.760785   0.000000
    29  N    6.463488   6.590343   7.551116   0.000000
    30  C    6.931476   7.097319   8.217640   1.462456   0.000000
    31  C    8.443838   8.620916   9.724284   2.463882   1.533750
    32  O    9.105848   9.326152  10.509931   3.717560   2.438171
    33  H    6.992629   7.274079   8.060329   1.031851   2.079483
    34  H    6.871775   6.815325   8.118140   2.122046   1.095911
    35  H    6.547100   6.951686   7.988280   2.112961   1.097274
    36  H    8.752439   9.086333  10.033055   2.699010   2.185004
    37  H    8.976843   8.963892  10.129885   2.763563   2.172490
    38  H    8.932540   9.330699  10.427607   3.959202   2.673378
                   31         32         33         34         35
    31  C    0.000000
    32  O    1.425500   0.000000
    33  H    2.581245   3.917526   0.000000
    34  H    2.144643   2.694805   2.977937   0.000000
    35  H    2.157342   2.640735   2.554127   1.765465   0.000000
    36  H    1.095490   2.053078   2.378675   3.068420   2.556462
    37  H    1.094922   2.049927   2.919626   2.463433   3.067544
    38  H    1.950445   0.972798   4.072341   3.096991   2.472079
                   36         37         38
    36  H    0.000000
    37  H    1.768274   0.000000
    38  H    2.235194   2.839823   0.000000
 Symmetry turned off by external request.
 Stoichiometry    C17H16N2O3(1-,2)
 Framework group  C1[X(C17H16N2O3)]
 Deg. of freedom   108
 Full point group                 C1      NOp   1
 Rotational constants (GHZ):           0.3506484           0.2095994           0.1332511
 Leave Link  202 at Thu Dec 21 05:34:02 2023, MaxMem=  4026531840 cpu:               0.6 elap:               0.2
 (Enter /sysapps/ubuntu-applications/gaussian/Gaussian/AVX2/g16/l301.exe)
 Standard basis: 6-311++G(d,p) (5D, 7F)
 Ernie: Thresh=  0.10000D-02 Tol=  0.10000D-05 Strict=F.
   596 basis functions,   936 primitive gaussians,   618 cartesian basis functions
    79 alpha electrons       78 beta electrons
       nuclear repulsion energy      1720.9443108926 Hartrees.
 IExCor=  402 DFT=T Ex+Corr=B3LYP ExCW=0 ScaHFX=  0.200000
 ScaDFX=  0.800000  0.720000  1.000000  0.810000 ScalE2=  1.000000  1.000000
 IRadAn=      5 IRanWt=     -1 IRanGd=            0 ICorTp=0 IEmpDi=  4
 NAtoms=   38 NActive=   38 NUniq=   38 SFac= 1.00D+00 NAtFMM=   60 NAOKFM=F Big=F
 Integral buffers will be    131072 words long.
 Raffenetti 2 integral format.
 Two-electron integral symmetry is turned off.
 Leave Link  301 at Thu Dec 21 05:34:02 2023, MaxMem=  4026531840 cpu:               0.4 elap:               0.1
 (Enter /sysapps/ubuntu-applications/gaussian/Gaussian/AVX2/g16/l302.exe)
 NPDir=0 NMtPBC=     1 NCelOv=     1 NCel=       1 NClECP=     1 NCelD=      1
         NCelK=      1 NCelE2=     1 NClLst=     1 CellRange=     0.0.
 One-electron integrals computed using PRISM.
 NBasis=   596 RedAO= T EigKep=  1.13D-06  NBF=   596
 NBsUse=   588 1.00D-06 EigRej=  7.27D-07 NBFU=   588
 Precomputing XC quadrature grid using
 IXCGrd= 4 IRadAn=           5 IRanWt=          -1 IRanGd=           0 AccXCQ= 0.00D+00.
 Generated NRdTot=       0 NPtTot=           0 NUsed=           0 NTot=          32
 NSgBfM=   612   612   612   612   612 MxSgAt=    38 MxSgA2=    38.
 Leave Link  302 at Thu Dec 21 05:34:03 2023, MaxMem=  4026531840 cpu:               6.8 elap:               1.0
 (Enter /sysapps/ubuntu-applications/gaussian/Gaussian/AVX2/g16/l303.exe)
 DipDrv:  MaxL=1.
 Leave Link  303 at Thu Dec 21 05:34:03 2023, MaxMem=  4026531840 cpu:               1.4 elap:               0.3
 (Enter /sysapps/ubuntu-applications/gaussian/Gaussian/AVX2/g16/l401.exe)
 ExpMin= 3.60D-02 ExpMax= 8.59D+03 ExpMxC= 1.30D+03 IAcc=3 IRadAn=         5 AccDes= 0.00D+00
 Harris functional with IExCor=  402 and IRadAn=       5 diagonalized for initial guess.
 HarFok:  IExCor=  402 AccDes= 0.00D+00 IRadAn=         5 IDoV= 1 UseB2=F ITyADJ=14
 ICtDFT=  3500011 ScaDFX=  1.000000  1.000000  1.000000  1.000000
 FoFCou: FMM=F IPFlag=           0 FMFlag=      100000 FMFlg1=           0
         NFxFlg=           0 DoJE=T BraDBF=F KetDBF=T FulRan=T
         wScrn=  0.000000 ICntrl=       500 IOpCl=  0 I1Cent=   200000004 NGrid=           0
         NMat0=    1 NMatS0=      1 NMatT0=    0 NMatD0=    1 NMtDS0=    0 NMtDT0=    0
 Symmetry not used in FoFCou.
 Harris En= -993.120000663572    
 JPrj=0 DoOrth=F DoCkMO=F.
 Initial guess <Sx>= 0.0000 <Sy>= 0.0000 <Sz>= 0.5000 <S**2>= 0.7500 S= 0.5000
 Leave Link  401 at Thu Dec 21 05:34:09 2023, MaxMem=  4026531840 cpu:              49.8 elap:               6.3
 (Enter /sysapps/ubuntu-applications/gaussian/Gaussian/AVX2/g16/l502.exe)
 Two-electron integral symmetry not used.
 UHF open shell SCF:
 Using DIIS extrapolation, IDIIS=  1040.
 NGot=  4026531840 LenX=  4025758608 LenY=  4025376066
 Requested convergence on RMS density matrix=1.00D-08 within 128 cycles.
 Requested convergence on MAX density matrix=1.00D-06.
 Requested convergence on             energy=1.00D-06.
 No special actions if energy rises.
 Fock matrices will be formed incrementally for  20 cycles.

 Cycle   1  Pass 1  IDiag  1:
 FoFJK:  IHMeth= 1 ICntrl=       0 DoSepK=F KAlg= 0 I1Cent=           0 FoldK=F
 IRaf= 800000000 NMat=       1 IRICut=       1 DoRegI=T DoRafI=F ISym2E= 0 IDoP0=0 IntGTp=1.
 FoFCou: FMM=F IPFlag=           0 FMFlag=      100000 FMFlg1=           0
         NFxFlg=           0 DoJE=F BraDBF=F KetDBF=F FulRan=T
         wScrn=  0.000000 ICntrl=         0 IOpCl=  1 I1Cent=           0 NGrid=           0
         NMat0=    1 NMatS0=      1 NMatT0=    0 NMatD0=    1 NMtDS0=    0 NMtDT0=    0
 Symmetry not used in FoFCou.
 E= -992.366997211567    
 DIIS: error= 2.58D-02 at cycle   1 NSaved=   1.
 NSaved= 1 IEnMin= 1 EnMin= -992.366997211567     IErMin= 1 ErrMin= 2.58D-02
 ErrMax= 2.58D-02  0.00D+00 EMaxC= 1.00D-01 BMatC= 2.76D+00 BMatP= 2.76D+00
 IDIUse=3 WtCom= 7.42D-01 WtEn= 2.58D-01
 Coeff-Com:  0.100D+01
 Coeff-En:   0.100D+01
 Coeff:      0.100D+01
 Gap=     0.072 Goal=   None    Shift=    0.000
 Gap=     0.118 Goal=   None    Shift=    0.000
 GapD=    0.072 DampG=0.500 DampE=0.500 DampFc=0.2500 IDamp=-1.
 Damping current iteration by 2.50D-01
 RMSDP=9.97D-02 MaxDP=2.61D+01              OVMax= 9.93D-01

 Cycle   2  Pass 1  IDiag  1:
 RMSU=  2.28D-02    CP:  1.19D+00
 E= -992.567334048059     Delta-E=       -0.200336836492 Rises=F Damp=T
 DIIS: error= 1.37D-02 at cycle   2 NSaved=   2.
 NSaved= 2 IEnMin= 2 EnMin= -992.567334048059     IErMin= 2 ErrMin= 1.37D-02
 ErrMax= 1.37D-02  0.00D+00 EMaxC= 1.00D-01 BMatC= 6.20D-01 BMatP= 2.76D+00
 IDIUse=3 WtCom= 8.63D-01 WtEn= 1.37D-01
 Coeff-Com: -0.668D+00 0.167D+01
 Coeff-En:   0.000D+00 0.100D+01
 Coeff:     -0.577D+00 0.158D+01
 Gap=     0.009 Goal=   None    Shift=    0.000
 Gap=     0.241 Goal=   None    Shift=    0.000
 RMSDP=2.22D-02 MaxDP=6.08D+00 DE=-2.00D-01 OVMax= 9.18D-01

 Cycle   3  Pass 1  IDiag  1:
 RMSU=  8.89D-03    CP:  1.01D+00  2.05D-01
 E= -992.876636206769     Delta-E=       -0.309302158710 Rises=F Damp=F
 DIIS: error= 1.48D-02 at cycle   3 NSaved=   3.
 NSaved= 3 IEnMin= 3 EnMin= -992.876636206769     IErMin= 2 ErrMin= 1.37D-02
 ErrMax= 1.48D-02  0.00D+00 EMaxC= 1.00D-01 BMatC= 3.48D-01 BMatP= 6.20D-01
 IDIUse=3 WtCom= 8.52D-01 WtEn= 1.48D-01
 Coeff-Com: -0.476D+00 0.103D+01 0.449D+00
 Coeff-En:   0.000D+00 0.000D+00 0.100D+01
 Coeff:     -0.405D+00 0.875D+00 0.531D+00
 Gap=     0.065 Goal=   None    Shift=    0.000
 Gap=     0.116 Goal=   None    Shift=    0.000
 RMSDP=6.20D-03 MaxDP=5.03D-01 DE=-3.09D-01 OVMax= 1.81D-01

 Cycle   4  Pass 1  IDiag  1:
 RMSU=  5.73D-03    CP:  1.02D+00  2.97D-01  8.78D-01
 E= -992.930892771505     Delta-E=       -0.054256564736 Rises=F Damp=F
 DIIS: error= 8.68D-03 at cycle   4 NSaved=   4.
 NSaved= 4 IEnMin= 4 EnMin= -992.930892771505     IErMin= 4 ErrMin= 8.68D-03
 ErrMax= 8.68D-03  0.00D+00 EMaxC= 1.00D-01 BMatC= 1.01D-01 BMatP= 3.48D-01
 IDIUse=3 WtCom= 9.13D-01 WtEn= 8.68D-02
 Coeff-Com: -0.184D+00 0.336D+00 0.354D+00 0.494D+00
 Coeff-En:   0.000D+00 0.000D+00 0.260D+00 0.740D+00
 Coeff:     -0.168D+00 0.307D+00 0.346D+00 0.515D+00
 Gap=     0.066 Goal=   None    Shift=    0.000
 Gap=     0.110 Goal=   None    Shift=    0.000
 RMSDP=4.94D-03 MaxDP=4.79D-01 DE=-5.43D-02 OVMax= 7.70D-02

 Cycle   5  Pass 1  IDiag  1:
 RMSU=  3.59D-03    CP:  1.00D+00  3.66D-01  1.16D+00  7.32D-01
 E= -992.953471422965     Delta-E=       -0.022578651460 Rises=F Damp=F
 DIIS: error= 1.55D-03 at cycle   5 NSaved=   5.
 NSaved= 5 IEnMin= 5 EnMin= -992.953471422965     IErMin= 5 ErrMin= 1.55D-03
 ErrMax= 1.55D-03  0.00D+00 EMaxC= 1.00D-01 BMatC= 4.41D-03 BMatP= 1.01D-01
 IDIUse=3 WtCom= 9.84D-01 WtEn= 1.55D-02
 Coeff-Com: -0.643D-01 0.104D+00 0.125D+00 0.250D+00 0.584D+00
 Coeff-En:   0.000D+00 0.000D+00 0.000D+00 0.000D+00 0.100D+01
 Coeff:     -0.633D-01 0.103D+00 0.123D+00 0.246D+00 0.591D+00
 Gap=     0.063 Goal=   None    Shift=    0.000
 Gap=     0.112 Goal=   None    Shift=    0.000
 RMSDP=6.95D-04 MaxDP=5.62D-02 DE=-2.26D-02 OVMax= 3.06D-02

 Cycle   6  Pass 1  IDiag  1:
 RMSU=  5.13D-04    CP:  1.00D+00  3.68D-01  1.14D+00  8.01D-01  9.73D-01
 E= -992.954364014201     Delta-E=       -0.000892591236 Rises=F Damp=F
 DIIS: error= 9.91D-04 at cycle   6 NSaved=   6.
 NSaved= 6 IEnMin= 6 EnMin= -992.954364014201     IErMin= 6 ErrMin= 9.91D-04
 ErrMax= 9.91D-04  0.00D+00 EMaxC= 1.00D-01 BMatC= 1.58D-03 BMatP= 4.41D-03
 IDIUse=3 WtCom= 9.90D-01 WtEn= 9.91D-03
 Coeff-Com: -0.154D-01 0.206D-01 0.120D-01 0.575D-01 0.408D+00 0.518D+00
 Coeff-En:   0.000D+00 0.000D+00 0.000D+00 0.000D+00 0.239D+00 0.761D+00
 Coeff:     -0.152D-01 0.204D-01 0.119D-01 0.569D-01 0.406D+00 0.520D+00
 Gap=     0.066 Goal=   None    Shift=    0.000
 Gap=     0.112 Goal=   None    Shift=    0.000
 RMSDP=4.09D-04 MaxDP=5.08D-02 DE=-8.93D-04 OVMax= 1.57D-02

 Cycle   7  Pass 1  IDiag  1:
 RMSU=  3.62D-04    CP:  1.00D+00  3.65D-01  1.15D+00  7.85D-01  9.82D-01
                    CP:  8.36D-01
 E= -992.954750239369     Delta-E=       -0.000386225168 Rises=F Damp=F
 DIIS: error= 3.68D-04 at cycle   7 NSaved=   7.
 NSaved= 7 IEnMin= 7 EnMin= -992.954750239369     IErMin= 7 ErrMin= 3.68D-04
 ErrMax= 3.68D-04  0.00D+00 EMaxC= 1.00D-01 BMatC= 2.49D-04 BMatP= 1.58D-03
 IDIUse=3 WtCom= 9.96D-01 WtEn= 3.68D-03
 Coeff-Com:  0.223D-03-0.295D-02-0.946D-02-0.130D-02 0.175D+00 0.334D+00
 Coeff-Com:  0.505D+00
 Coeff-En:   0.000D+00 0.000D+00 0.000D+00 0.000D+00 0.000D+00 0.448D-01
 Coeff-En:   0.955D+00
 Coeff:      0.223D-03-0.293D-02-0.942D-02-0.130D-02 0.175D+00 0.333D+00
 Coeff:      0.506D+00
 Gap=     0.067 Goal=   None    Shift=    0.000
 Gap=     0.113 Goal=   None    Shift=    0.000
 RMSDP=2.01D-04 MaxDP=2.25D-02 DE=-3.86D-04 OVMax= 7.33D-03

 Cycle   8  Pass 1  IDiag  1:
 RMSU=  9.16D-05    CP:  1.00D+00  3.68D-01  1.15D+00  7.84D-01  1.01D+00
                    CP:  9.26D-01  8.12D-01
 E= -992.954816550615     Delta-E=       -0.000066311246 Rises=F Damp=F
 DIIS: error= 1.84D-04 at cycle   8 NSaved=   8.
 NSaved= 8 IEnMin= 8 EnMin= -992.954816550615     IErMin= 8 ErrMin= 1.84D-04
 ErrMax= 1.84D-04  0.00D+00 EMaxC= 1.00D-01 BMatC= 3.90D-05 BMatP= 2.49D-04
 IDIUse=3 WtCom= 9.98D-01 WtEn= 1.84D-03
 Coeff-Com:  0.378D-02-0.558D-02-0.520D-02-0.150D-01-0.153D-01 0.260D-01
 Coeff-Com:  0.269D+00 0.743D+00
 Coeff-En:   0.000D+00 0.000D+00 0.000D+00 0.000D+00 0.000D+00 0.000D+00
 Coeff-En:   0.000D+00 0.100D+01
 Coeff:      0.378D-02-0.557D-02-0.519D-02-0.150D-01-0.152D-01 0.260D-01
 Coeff:      0.268D+00 0.743D+00
 Gap=     0.067 Goal=   None    Shift=    0.000
 Gap=     0.113 Goal=   None    Shift=    0.000
 RMSDP=7.53D-05 MaxDP=6.20D-03 DE=-6.63D-05 OVMax= 3.82D-03

 Cycle   9  Pass 1  IDiag  1:
 RMSU=  6.82D-05    CP:  1.00D+00  3.68D-01  1.15D+00  7.82D-01  1.02D+00
                    CP:  9.48D-01  8.66D-01  1.04D+00
 E= -992.954829995072     Delta-E=       -0.000013444456 Rises=F Damp=F
 DIIS: error= 9.20D-05 at cycle   9 NSaved=   9.
 NSaved= 9 IEnMin= 9 EnMin= -992.954829995072     IErMin= 9 ErrMin= 9.20D-05
 ErrMax= 9.20D-05  0.00D+00 EMaxC= 1.00D-01 BMatC= 1.46D-05 BMatP= 3.90D-05
 IDIUse=1 WtCom= 1.00D+00 WtEn= 0.00D+00
 Coeff-Com:  0.166D-02-0.149D-02 0.342D-04-0.869D-02-0.447D-01-0.576D-01
 Coeff-Com:  0.640D-01 0.470D+00 0.577D+00
 Coeff:      0.166D-02-0.149D-02 0.342D-04-0.869D-02-0.447D-01-0.576D-01
 Coeff:      0.640D-01 0.470D+00 0.577D+00
 Gap=     0.068 Goal=   None    Shift=    0.000
 Gap=     0.113 Goal=   None    Shift=    0.000
 RMSDP=5.47D-05 MaxDP=6.62D-03 DE=-1.34D-05 OVMax= 2.06D-03

 Cycle  10  Pass 1  IDiag  1:
 RMSU=  2.96D-05    CP:  1.00D+00  3.67D-01  1.15D+00  7.78D-01  1.01D+00
                    CP:  9.63D-01  8.82D-01  1.23D+00  9.36D-01
 E= -992.954834836652     Delta-E=       -0.000004841580 Rises=F Damp=F
 DIIS: error= 5.09D-05 at cycle  10 NSaved=  10.
 NSaved=10 IEnMin=10 EnMin= -992.954834836652     IErMin=10 ErrMin= 5.09D-05
 ErrMax= 5.09D-05  0.00D+00 EMaxC= 1.00D-01 BMatC= 3.64D-06 BMatP= 1.46D-05
 IDIUse=1 WtCom= 1.00D+00 WtEn= 0.00D+00
 Coeff-Com:  0.130D-03 0.890D-04 0.171D-02-0.359D-03-0.201D-01-0.455D-01
 Coeff-Com: -0.534D-01 0.159D-01 0.370D+00 0.732D+00
 Coeff:      0.130D-03 0.890D-04 0.171D-02-0.359D-03-0.201D-01-0.455D-01
 Coeff:     -0.534D-01 0.159D-01 0.370D+00 0.732D+00
 Gap=     0.068 Goal=   None    Shift=    0.000
 Gap=     0.113 Goal=   None    Shift=    0.000
 RMSDP=2.56D-05 MaxDP=2.48D-03 DE=-4.84D-06 OVMax= 1.18D-03

 Cycle  11  Pass 1  IDiag  1:
 RMSU=  1.63D-05    CP:  1.00D+00  3.67D-01  1.15D+00  7.78D-01  1.01D+00
                    CP:  9.69D-01  8.90D-01  1.29D+00  1.18D+00  9.17D-01
 E= -992.954836175583     Delta-E=       -0.000001338931 Rises=F Damp=F
 DIIS: error= 1.62D-05 at cycle  11 NSaved=  11.
 NSaved=11 IEnMin=11 EnMin= -992.954836175583     IErMin=11 ErrMin= 1.62D-05
 ErrMax= 1.62D-05  0.00D+00 EMaxC= 1.00D-01 BMatC= 8.17D-07 BMatP= 3.64D-06
 IDIUse=1 WtCom= 1.00D+00 WtEn= 0.00D+00
 Coeff-Com: -0.220D-03 0.354D-03 0.102D-02 0.999D-03-0.553D-02-0.195D-01
 Coeff-Com: -0.415D-01-0.644D-01 0.139D+00 0.445D+00 0.545D+00
 Coeff:     -0.220D-03 0.354D-03 0.102D-02 0.999D-03-0.553D-02-0.195D-01
 Coeff:     -0.415D-01-0.644D-01 0.139D+00 0.445D+00 0.545D+00
 Gap=     0.068 Goal=   None    Shift=    0.000
 Gap=     0.113 Goal=   None    Shift=    0.000
 RMSDP=9.38D-06 MaxDP=9.92D-04 DE=-1.34D-06 OVMax= 3.52D-04

 Cycle  12  Pass 1  IDiag  1:
 RMSU=  5.89D-06    CP:  1.00D+00  3.67D-01  1.15D+00  7.77D-01  1.01D+00
                    CP:  9.71D-01  8.95D-01  1.32D+00  1.18D+00  9.86D-01
                    CP:  8.08D-01
 E= -992.954836408531     Delta-E=       -0.000000232948 Rises=F Damp=F
 DIIS: error= 7.30D-06 at cycle  12 NSaved=  12.
 NSaved=12 IEnMin=12 EnMin= -992.954836408531     IErMin=12 ErrMin= 7.30D-06
 ErrMax= 7.30D-06  0.00D+00 EMaxC= 1.00D-01 BMatC= 1.33D-07 BMatP= 8.17D-07
 IDIUse=1 WtCom= 1.00D+00 WtEn= 0.00D+00
 Coeff-Com: -0.107D-03 0.117D-03 0.117D-03 0.424D-03 0.102D-02-0.611D-03
 Coeff-Com: -0.782D-02-0.345D-01-0.626D-02 0.617D-01 0.310D+00 0.676D+00
 Coeff:     -0.107D-03 0.117D-03 0.117D-03 0.424D-03 0.102D-02-0.611D-03
 Coeff:     -0.782D-02-0.345D-01-0.626D-02 0.617D-01 0.310D+00 0.676D+00
 Gap=     0.068 Goal=   None    Shift=    0.000
 Gap=     0.113 Goal=   None    Shift=    0.000
 RMSDP=4.82D-06 MaxDP=6.26D-04 DE=-2.33D-07 OVMax= 1.39D-04

 Cycle  13  Pass 1  IDiag  1:
 RMSU=  2.81D-06    CP:  1.00D+00  3.67D-01  1.15D+00  7.77D-01  1.01D+00
                    CP:  9.69D-01  8.94D-01  1.32D+00  1.21D+00  9.71D-01
                    CP:  8.70D-01  8.51D-01
 E= -992.954836454100     Delta-E=       -0.000000045568 Rises=F Damp=F
 DIIS: error= 2.29D-06 at cycle  13 NSaved=  13.
 NSaved=13 IEnMin=13 EnMin= -992.954836454100     IErMin=13 ErrMin= 2.29D-06
 ErrMax= 2.29D-06  0.00D+00 EMaxC= 1.00D-01 BMatC= 2.06D-08 BMatP= 1.33D-07
 IDIUse=1 WtCom= 1.00D+00 WtEn= 0.00D+00
 Coeff-Com: -0.373D-04 0.502D-04-0.762D-04 0.256D-04 0.121D-02 0.248D-02
 Coeff-Com:  0.294D-02-0.661D-02-0.222D-01-0.476D-01 0.724D-01 0.323D+00
 Coeff-Com:  0.675D+00
 Coeff:     -0.373D-04 0.502D-04-0.762D-04 0.256D-04 0.121D-02 0.248D-02
 Coeff:      0.294D-02-0.661D-02-0.222D-01-0.476D-01 0.724D-01 0.323D+00
 Coeff:      0.675D+00
 Gap=     0.068 Goal=   None    Shift=    0.000
 Gap=     0.113 Goal=   None    Shift=    0.000
 RMSDP=1.91D-06 MaxDP=1.50D-04 DE=-4.56D-08 OVMax= 7.97D-05

 Cycle  14  Pass 1  IDiag  1:
 RMSU=  1.26D-06    CP:  1.00D+00  3.67D-01  1.15D+00  7.77D-01  1.01D+00
                    CP:  9.69D-01  8.96D-01  1.32D+00  1.20D+00  9.91D-01
                    CP:  8.78D-01  9.40D-01  9.32D-01
 E= -992.954836463739     Delta-E=       -0.000000009640 Rises=F Damp=F
 DIIS: error= 2.05D-06 at cycle  14 NSaved=  14.
 NSaved=14 IEnMin=14 EnMin= -992.954836463739     IErMin=14 ErrMin= 2.05D-06
 ErrMax= 2.05D-06  0.00D+00 EMaxC= 1.00D-01 BMatC= 6.79D-09 BMatP= 2.06D-08
 IDIUse=1 WtCom= 1.00D+00 WtEn= 0.00D+00
 Coeff-Com:  0.175D-04-0.201D-04-0.586D-04-0.875D-04 0.432D-03 0.136D-02
 Coeff-Com:  0.382D-02 0.553D-02-0.685D-02-0.444D-01-0.469D-01-0.357D-01
 Coeff-Com:  0.367D+00 0.756D+00
 Coeff:      0.175D-04-0.201D-04-0.586D-04-0.875D-04 0.432D-03 0.136D-02
 Coeff:      0.382D-02 0.553D-02-0.685D-02-0.444D-01-0.469D-01-0.357D-01
 Coeff:      0.367D+00 0.756D+00
 Gap=     0.068 Goal=   None    Shift=    0.000
 Gap=     0.113 Goal=   None    Shift=    0.000
 RMSDP=1.19D-06 MaxDP=9.44D-05 DE=-9.64D-09 OVMax= 6.11D-05

 Cycle  15  Pass 1  IDiag  1:
 RMSU=  8.82D-07    CP:  1.00D+00  3.67D-01  1.15D+00  7.77D-01  1.01D+00
                    CP:  9.69D-01  8.97D-01  1.32D+00  1.21D+00  9.76D-01
                    CP:  8.99D-01  9.49D-01  1.00D+00  8.57D-01
 E= -992.954836468096     Delta-E=       -0.000000004356 Rises=F Damp=F
 DIIS: error= 1.26D-06 at cycle  15 NSaved=  15.
 NSaved=15 IEnMin=15 EnMin= -992.954836468096     IErMin=15 ErrMin= 1.26D-06
 ErrMax= 1.26D-06  0.00D+00 EMaxC= 1.00D-01 BMatC= 1.38D-09 BMatP= 6.79D-09
 IDIUse=1 WtCom= 1.00D+00 WtEn= 0.00D+00
 Coeff-Com:  0.104D-04-0.126D-04-0.440D-05-0.296D-04-0.699D-05-0.767D-04
 Coeff-Com:  0.116D-02 0.274D-02 0.279D-02-0.827D-02-0.330D-01-0.830D-01
 Coeff-Com: -0.743D-02 0.275D+00 0.850D+00
 Coeff:      0.104D-04-0.126D-04-0.440D-05-0.296D-04-0.699D-05-0.767D-04
 Coeff:      0.116D-02 0.274D-02 0.279D-02-0.827D-02-0.330D-01-0.830D-01
 Coeff:     -0.743D-02 0.275D+00 0.850D+00
 Gap=     0.068 Goal=   None    Shift=    0.000
 Gap=     0.113 Goal=   None    Shift=    0.000
 RMSDP=7.15D-07 MaxDP=5.61D-05 DE=-4.36D-09 OVMax= 3.86D-05

 Cycle  16  Pass 1  IDiag  1:
 RMSU=  3.28D-07    CP:  1.00D+00  3.67D-01  1.15D+00  7.77D-01  1.01D+00
                    CP:  9.68D-01  8.97D-01  1.32D+00  1.21D+00  9.69D-01
                    CP:  8.99D-01  9.62D-01  1.06D+00  1.09D+00  1.05D+00
 E= -992.954836469467     Delta-E=       -0.000000001372 Rises=F Damp=F
 DIIS: error= 5.61D-07 at cycle  16 NSaved=  16.
 NSaved=16 IEnMin=16 EnMin= -992.954836469467     IErMin=16 ErrMin= 5.61D-07
 ErrMax= 5.61D-07  0.00D+00 EMaxC= 1.00D-01 BMatC= 5.71D-10 BMatP= 1.38D-09
 IDIUse=1 WtCom= 1.00D+00 WtEn= 0.00D+00
 Coeff-Com:  0.292D-06-0.189D-05 0.152D-04 0.140D-04-0.131D-03-0.591D-03
 Coeff-Com: -0.460D-03-0.759D-03 0.408D-02 0.107D-01-0.816D-04-0.309D-01
 Coeff-Com: -0.131D+00-0.116D+00 0.447D+00 0.819D+00
 Coeff:      0.292D-06-0.189D-05 0.152D-04 0.140D-04-0.131D-03-0.591D-03
 Coeff:     -0.460D-03-0.759D-03 0.408D-02 0.107D-01-0.816D-04-0.309D-01
 Coeff:     -0.131D+00-0.116D+00 0.447D+00 0.819D+00
 Gap=     0.068 Goal=   None    Shift=    0.000
 Gap=     0.113 Goal=   None    Shift=    0.000
 RMSDP=3.60D-07 MaxDP=2.07D-05 DE=-1.37D-09 OVMax= 2.98D-05

 Cycle  17  Pass 1  IDiag  1:
 RMSU=  2.21D-07    CP:  1.00D+00  3.67D-01  1.15D+00  7.77D-01  1.01D+00
                    CP:  9.68D-01  8.97D-01  1.31D+00  1.21D+00  9.70D-01
                    CP:  9.02D-01  9.56D-01  1.06D+00  1.16D+00  1.27D+00
                    CP:  1.25D+00
 E= -992.954836470029     Delta-E=       -0.000000000562 Rises=F Damp=F
 DIIS: error= 4.28D-07 at cycle  17 NSaved=  17.
 NSaved=17 IEnMin=17 EnMin= -992.954836470029     IErMin=17 ErrMin= 4.28D-07
 ErrMax= 4.28D-07  0.00D+00 EMaxC= 1.00D-01 BMatC= 1.62D-10 BMatP= 5.71D-10
 IDIUse=1 WtCom= 1.00D+00 WtEn= 0.00D+00
 Coeff-Com: -0.342D-05 0.402D-05 0.792D-05 0.133D-04-0.580D-04-0.302D-03
 Coeff-Com: -0.410D-03-0.123D-02 0.125D-02 0.720D-02 0.990D-02 0.824D-02
 Coeff-Com: -0.612D-01-0.131D+00-0.611D-01 0.402D+00 0.826D+00
 Coeff:     -0.342D-05 0.402D-05 0.792D-05 0.133D-04-0.580D-04-0.302D-03
 Coeff:     -0.410D-03-0.123D-02 0.125D-02 0.720D-02 0.990D-02 0.824D-02
 Coeff:     -0.612D-01-0.131D+00-0.611D-01 0.402D+00 0.826D+00
 Gap=     0.068 Goal=   None    Shift=    0.000
 Gap=     0.113 Goal=   None    Shift=    0.000
 RMSDP=2.98D-07 MaxDP=2.29D-05 DE=-5.62D-10 OVMax= 1.49D-05

 Cycle  18  Pass 1  IDiag  1:
 RMSU=  1.41D-07    CP:  1.00D+00  3.67D-01  1.15D+00  7.77D-01  1.01D+00
                    CP:  9.68D-01  8.98D-01  1.31D+00  1.21D+00  9.69D-01
                    CP:  9.05D-01  9.53D-01  1.07D+00  1.20D+00  1.37D+00
                    CP:  1.45D+00  8.56D-01
 E= -992.954836470172     Delta-E=       -0.000000000143 Rises=F Damp=F
 DIIS: error= 1.26D-07 at cycle  18 NSaved=  18.
 NSaved=18 IEnMin=18 EnMin= -992.954836470172     IErMin=18 ErrMin= 1.26D-07
 ErrMax= 1.26D-07  0.00D+00 EMaxC= 1.00D-01 BMatC= 5.68D-11 BMatP= 1.62D-10
 IDIUse=1 WtCom= 1.00D+00 WtEn= 0.00D+00
 Coeff-Com: -0.201D-05 0.276D-05 0.625D-06 0.366D-05 0.341D-06-0.308D-04
 Coeff-Com: -0.893D-04-0.567D-03-0.365D-03 0.112D-02 0.618D-02 0.133D-01
 Coeff-Com:  0.881D-03-0.437D-01-0.173D+00 0.206D-01 0.526D+00 0.650D+00
 Coeff:     -0.201D-05 0.276D-05 0.625D-06 0.366D-05 0.341D-06-0.308D-04
 Coeff:     -0.893D-04-0.567D-03-0.365D-03 0.112D-02 0.618D-02 0.133D-01
 Coeff:      0.881D-03-0.437D-01-0.173D+00 0.206D-01 0.526D+00 0.650D+00
 Gap=     0.068 Goal=   None    Shift=    0.000
 Gap=     0.113 Goal=   None    Shift=    0.000
 RMSDP=1.12D-07 MaxDP=6.50D-06 DE=-1.43D-10 OVMax= 7.20D-06

 Cycle  19  Pass 1  IDiag  1:
 RMSU=  6.43D-08    CP:  1.00D+00  3.67D-01  1.15D+00  7.77D-01  1.01D+00
                    CP:  9.68D-01  8.98D-01  1.31D+00  1.21D+00  9.69D-01
                    CP:  9.05D-01  9.55D-01  1.07D+00  1.21D+00  1.43D+00
                    CP:  1.52D+00  1.05D+00  8.22D-01
 E= -992.954836470197     Delta-E=       -0.000000000025 Rises=F Damp=F
 DIIS: error= 8.46D-08 at cycle  19 NSaved=  19.
 NSaved=19 IEnMin=19 EnMin= -992.954836470197     IErMin=19 ErrMin= 8.46D-08
 ErrMax= 8.46D-08  0.00D+00 EMaxC= 1.00D-01 BMatC= 1.27D-11 BMatP= 5.68D-11
 IDIUse=1 WtCom= 1.00D+00 WtEn= 0.00D+00
 Coeff-Com: -0.238D-07 0.127D-06-0.136D-05-0.169D-05 0.613D-05 0.308D-04
 Coeff-Com:  0.214D-04-0.923D-04-0.385D-03-0.731D-03 0.183D-02 0.595D-02
 Coeff-Com:  0.130D-01 0.209D-03-0.924D-01-0.747D-01 0.141D+00 0.401D+00
 Coeff-Com:  0.605D+00
 Coeff:     -0.238D-07 0.127D-06-0.136D-05-0.169D-05 0.613D-05 0.308D-04
 Coeff:      0.214D-04-0.923D-04-0.385D-03-0.731D-03 0.183D-02 0.595D-02
 Coeff:      0.130D-01 0.209D-03-0.924D-01-0.747D-01 0.141D+00 0.401D+00
 Coeff:      0.605D+00
 Gap=     0.068 Goal=   None    Shift=    0.000
 Gap=     0.113 Goal=   None    Shift=    0.000
 RMSDP=7.11D-08 MaxDP=7.85D-06 DE=-2.46D-11 OVMax= 2.04D-06

 Cycle  20  Pass 1  IDiag  1:
 RMSU=  2.35D-08    CP:  1.00D+00  3.67D-01  1.15D+00  7.77D-01  1.01D+00
                    CP:  9.68D-01  8.98D-01  1.31D+00  1.21D+00  9.69D-01
                    CP:  9.06D-01  9.56D-01  1.07D+00  1.21D+00  1.42D+00
                    CP:  1.58D+00  1.09D+00  9.31D-01  8.76D-01
 E= -992.954836470222     Delta-E=       -0.000000000025 Rises=F Damp=F
 DIIS: error= 1.43D-08 at cycle  20 NSaved=  20.
 NSaved=20 IEnMin=20 EnMin= -992.954836470222     IErMin=20 ErrMin= 1.43D-08
 ErrMax= 1.43D-08  0.00D+00 EMaxC= 1.00D-01 BMatC= 1.58D-12 BMatP= 1.27D-11
 IDIUse=1 WtCom= 1.00D+00 WtEn= 0.00D+00
 Coeff-Com:  0.151D-06-0.715D-07-0.461D-06-0.101D-05 0.391D-05 0.207D-04
 Coeff-Com:  0.270D-04 0.467D-04-0.119D-03-0.549D-03-0.105D-03 0.554D-03
 Coeff-Com:  0.645D-02 0.686D-02-0.186D-01-0.410D-01-0.949D-02 0.968D-01
 Coeff-Com:  0.313D+00 0.646D+00
 Coeff:      0.151D-06-0.715D-07-0.461D-06-0.101D-05 0.391D-05 0.207D-04
 Coeff:      0.270D-04 0.467D-04-0.119D-03-0.549D-03-0.105D-03 0.554D-03
 Coeff:      0.645D-02 0.686D-02-0.186D-01-0.410D-01-0.949D-02 0.968D-01
 Coeff:      0.313D+00 0.646D+00
 Gap=     0.068 Goal=   None    Shift=    0.000
 Gap=     0.113 Goal=   None    Shift=    0.000
 RMSDP=1.67D-08 MaxDP=1.14D-06 DE=-2.50D-11 OVMax= 5.79D-07

 Cycle  21  Pass 1  IDiag  1:
 Restarting incremental Fock formation.
 E= -992.954836470203     Delta-E=        0.000000000019 Rises=F Damp=F
 DIIS: error= 8.50D-09 at cycle  21 NSaved=  20.
 NSaved=20 IEnMin=19 EnMin= -992.954836470222     IErMin=20 ErrMin= 8.50D-09
 ErrMax= 8.50D-09  0.00D+00 EMaxC= 1.00D-01 BMatC= 2.36D-13 BMatP= 1.58D-12
 IDIUse=1 WtCom= 1.00D+00 WtEn= 0.00D+00
 Coeff-Com:  0.506D-07 0.969D-07 0.120D-06 0.108D-05 0.400D-05 0.640D-05
 Coeff-Com:  0.263D-04 0.809D-05-0.115D-03-0.311D-03-0.669D-03 0.830D-03
 Coeff-Com:  0.271D-02 0.824D-02-0.594D-02-0.299D-01-0.299D-01 0.382D-01
 Coeff-Com:  0.297D+00 0.719D+00
 Coeff:      0.506D-07 0.969D-07 0.120D-06 0.108D-05 0.400D-05 0.640D-05
 Coeff:      0.263D-04 0.809D-05-0.115D-03-0.311D-03-0.669D-03 0.830D-03
 Coeff:      0.271D-02 0.824D-02-0.594D-02-0.299D-01-0.299D-01 0.382D-01
 Coeff:      0.297D+00 0.719D+00
 Gap=     0.068 Goal=   None    Shift=    0.000
 Gap=     0.113 Goal=   None    Shift=    0.000
 RMSDP=6.59D-09 MaxDP=8.36D-07 DE= 1.91D-11 OVMax= 2.38D-07

 SCF Done:  E(UB3LYP) =  -992.954836470     A.U. after   21 cycles
            NFock= 21  Conv=0.66D-08     -V/T= 2.0038
 <Sx>= 0.0000 <Sy>= 0.0000 <Sz>= 0.5000 <S**2>= 0.7580 S= 0.5040
 <L.S>=  0.00000000000    
 KE= 9.891549624562D+02 PE=-5.778332641690D+03 EE= 2.075278531870D+03
 Annihilation of the first spin contaminant:
 S**2 before annihilation     0.7580,   after     0.7500
 Leave Link  502 at Thu Dec 21 05:50:02 2023, MaxMem=  4026531840 cpu:            6698.2 elap:             952.8
 (Enter /sysapps/ubuntu-applications/gaussian/Gaussian/AVX2/g16/l601.exe)
 Copying SCF densities to generalized density rwf, IOpCl= 1 IROHF=0.

 **********************************************************************

            Population analysis using the SCF density.

 **********************************************************************

 Alpha  occ. eigenvalues --  -19.04694 -18.95428 -18.95372 -14.18936 -14.18772
 Alpha  occ. eigenvalues --  -10.13127 -10.10337 -10.10336 -10.09952 -10.09110
 Alpha  occ. eigenvalues --  -10.08616 -10.08580 -10.06077 -10.06022 -10.05686
 Alpha  occ. eigenvalues --  -10.05683 -10.05053 -10.04983 -10.04911 -10.04866
 Alpha  occ. eigenvalues --  -10.04828 -10.04809  -0.94574  -0.90224  -0.89975
 Alpha  occ. eigenvalues --   -0.80848  -0.80168  -0.74422  -0.71905  -0.66456
 Alpha  occ. eigenvalues --   -0.64840  -0.63202  -0.62704  -0.60622  -0.56166
 Alpha  occ. eigenvalues --   -0.53607  -0.53485  -0.51516  -0.49885  -0.46699
 Alpha  occ. eigenvalues --   -0.44894  -0.42898  -0.41746  -0.40737  -0.38983
 Alpha  occ. eigenvalues --   -0.37597  -0.37269  -0.35862  -0.34784  -0.34663
 Alpha  occ. eigenvalues --   -0.33954  -0.33316  -0.32428  -0.31391  -0.30947
 Alpha  occ. eigenvalues --   -0.30525  -0.30183  -0.29880  -0.28966  -0.27708
 Alpha  occ. eigenvalues --   -0.26800  -0.26622  -0.26422  -0.25841  -0.25102
 Alpha  occ. eigenvalues --   -0.24500  -0.23473  -0.22905  -0.22439  -0.20173
 Alpha  occ. eigenvalues --   -0.19433  -0.15087  -0.13929  -0.13850  -0.13189
 Alpha  occ. eigenvalues --   -0.12076  -0.11182  -0.06960  -0.00524
 Alpha virt. eigenvalues --    0.06242   0.06996   0.07584   0.08021   0.09101
 Alpha virt. eigenvalues --    0.09362   0.09805   0.09958   0.10736   0.10942
 Alpha virt. eigenvalues --    0.11318   0.12042   0.12312   0.13012   0.13183
 Alpha virt. eigenvalues --    0.14114   0.14573   0.14929   0.15317   0.15560
 Alpha virt. eigenvalues --    0.15938   0.16505   0.16674   0.17241   0.17507
 Alpha virt. eigenvalues --    0.17884   0.18171   0.18232   0.18672   0.18794
 Alpha virt. eigenvalues --    0.19046   0.19389   0.19892   0.19950   0.20326
 Alpha virt. eigenvalues --    0.20550   0.20748   0.21104   0.21424   0.21890
 Alpha virt. eigenvalues --    0.21928   0.22629   0.22879   0.23012   0.23343
 Alpha virt. eigenvalues --    0.23511   0.23828   0.24203   0.24615   0.24876
 Alpha virt. eigenvalues --    0.25349   0.25812   0.25920   0.26167   0.26326
 Alpha virt. eigenvalues --    0.26749   0.27098   0.27487   0.27746   0.28114
 Alpha virt. eigenvalues --    0.28380   0.28878   0.29118   0.29465   0.29821
 Alpha virt. eigenvalues --    0.30150   0.30453   0.30861   0.31381   0.31603
 Alpha virt. eigenvalues --    0.31898   0.31988   0.32396   0.32648   0.32803
 Alpha virt. eigenvalues --    0.33033   0.33669   0.34753   0.34831   0.35361
 Alpha virt. eigenvalues --    0.35696   0.35892   0.36050   0.36407   0.36579
 Alpha virt. eigenvalues --    0.36685   0.37316   0.37473   0.37679   0.37863
 Alpha virt. eigenvalues --    0.38487   0.38709   0.38945   0.39050   0.39285
 Alpha virt. eigenvalues --    0.39688   0.40029   0.40347   0.40667   0.40875
 Alpha virt. eigenvalues --    0.40957   0.41559   0.41755   0.42101   0.42540
 Alpha virt. eigenvalues --    0.43315   0.43330   0.43597   0.43802   0.44034
 Alpha virt. eigenvalues --    0.44617   0.44806   0.45173   0.45409   0.45713
 Alpha virt. eigenvalues --    0.46088   0.46413   0.46547   0.47230   0.47745
 Alpha virt. eigenvalues --    0.47983   0.48441   0.48655   0.49326   0.49880
 Alpha virt. eigenvalues --    0.50102   0.50847   0.51595   0.52181   0.52807
 Alpha virt. eigenvalues --    0.53554   0.53877   0.55531   0.56637   0.57086
 Alpha virt. eigenvalues --    0.57763   0.58903   0.59503   0.60075   0.60941
 Alpha virt. eigenvalues --    0.62572   0.63507   0.63919   0.65199   0.65407
 Alpha virt. eigenvalues --    0.66317   0.66596   0.67754   0.68198   0.69179
 Alpha virt. eigenvalues --    0.69481   0.70148   0.70886   0.71464   0.71720
 Alpha virt. eigenvalues --    0.72020   0.72459   0.73022   0.73728   0.74721
 Alpha virt. eigenvalues --    0.75028   0.75393   0.75733   0.76618   0.76989
 Alpha virt. eigenvalues --    0.77443   0.77685   0.78193   0.79279   0.79357
 Alpha virt. eigenvalues --    0.79875   0.80244   0.80802   0.81053   0.82190
 Alpha virt. eigenvalues --    0.82242   0.83199   0.83502   0.84023   0.84248
 Alpha virt. eigenvalues --    0.84412   0.85471   0.86133   0.86778   0.87237
 Alpha virt. eigenvalues --    0.88056   0.88553   0.88682   0.89306   0.90614
 Alpha virt. eigenvalues --    0.91302   0.92539   0.93087   0.94246   0.95409
 Alpha virt. eigenvalues --    0.95945   0.96662   0.97368   0.97871   0.98215
 Alpha virt. eigenvalues --    0.99470   0.99962   1.00856   1.01741   1.02482
 Alpha virt. eigenvalues --    1.02851   1.03556   1.03875   1.05362   1.05790
 Alpha virt. eigenvalues --    1.06529   1.07020   1.07475   1.07843   1.08914
 Alpha virt. eigenvalues --    1.09460   1.09701   1.10648   1.11270   1.11715
 Alpha virt. eigenvalues --    1.12055   1.13808   1.14484   1.15160   1.16372
 Alpha virt. eigenvalues --    1.17050   1.17585   1.18447   1.19610   1.20372
 Alpha virt. eigenvalues --    1.20515   1.21222   1.21482   1.23324   1.23691
 Alpha virt. eigenvalues --    1.25420   1.26526   1.26778   1.28725   1.28789
 Alpha virt. eigenvalues --    1.29804   1.32220   1.33342   1.33946   1.34849
 Alpha virt. eigenvalues --    1.36663   1.38079   1.39124   1.39997   1.40264
 Alpha virt. eigenvalues --    1.41340   1.41914   1.44625   1.45871   1.46202
 Alpha virt. eigenvalues --    1.47765   1.48917   1.52125   1.52643   1.54106
 Alpha virt. eigenvalues --    1.54783   1.56627   1.57229   1.58169   1.60616
 Alpha virt. eigenvalues --    1.61160   1.62331   1.62875   1.62924   1.63148
 Alpha virt. eigenvalues --    1.63931   1.64434   1.65175   1.65400   1.66073
 Alpha virt. eigenvalues --    1.66900   1.67468   1.68307   1.68734   1.70771
 Alpha virt. eigenvalues --    1.71206   1.71869   1.72709   1.72834   1.73525
 Alpha virt. eigenvalues --    1.74569   1.75609   1.76700   1.77911   1.78110
 Alpha virt. eigenvalues --    1.78671   1.80026   1.81486   1.82088   1.82993
 Alpha virt. eigenvalues --    1.83696   1.84074   1.85155   1.85650   1.86310
 Alpha virt. eigenvalues --    1.87236   1.88829   1.88993   1.90051   1.91542
 Alpha virt. eigenvalues --    1.91965   1.93646   1.94334   1.96429   1.96892
 Alpha virt. eigenvalues --    1.97996   1.99181   1.99918   2.00940   2.03119
 Alpha virt. eigenvalues --    2.04382   2.04898   2.05820   2.06690   2.06981
 Alpha virt. eigenvalues --    2.07629   2.08104   2.09451   2.10577   2.11300
 Alpha virt. eigenvalues --    2.11710   2.12687   2.13029   2.13678   2.14823
 Alpha virt. eigenvalues --    2.15070   2.15397   2.16977   2.18862   2.19563
 Alpha virt. eigenvalues --    2.20670   2.20832   2.23161   2.23245   2.24117
 Alpha virt. eigenvalues --    2.25221   2.26935   2.29044   2.29308   2.31326
 Alpha virt. eigenvalues --    2.32979   2.33423   2.37505   2.40064   2.41075
 Alpha virt. eigenvalues --    2.42454   2.43373   2.46286   2.48296   2.49399
 Alpha virt. eigenvalues --    2.51834   2.53093   2.53979   2.54677   2.54940
 Alpha virt. eigenvalues --    2.56603   2.57986   2.58323   2.59313   2.59905
 Alpha virt. eigenvalues --    2.60981   2.63037   2.64362   2.65875   2.67892
 Alpha virt. eigenvalues --    2.68824   2.70702   2.72620   2.74322   2.76136
 Alpha virt. eigenvalues --    2.76850   2.77186   2.78243   2.79654   2.80241
 Alpha virt. eigenvalues --    2.81582   2.82379   2.82902   2.83548   2.84207
 Alpha virt. eigenvalues --    2.85248   2.85911   2.87004   2.88278   2.88644
 Alpha virt. eigenvalues --    2.89383   2.90813   2.91275   2.91727   2.92833
 Alpha virt. eigenvalues --    2.93630   2.93849   2.94739   2.95610   2.96706
 Alpha virt. eigenvalues --    2.99036   2.99906   3.00624   3.01104   3.01547
 Alpha virt. eigenvalues --    3.02908   3.04490   3.05013   3.06534   3.08160
 Alpha virt. eigenvalues --    3.09418   3.09732   3.12358   3.12693   3.14498
 Alpha virt. eigenvalues --    3.19018   3.20206   3.21040   3.23049   3.24096
 Alpha virt. eigenvalues --    3.25018   3.26033   3.26369   3.28218   3.31520
 Alpha virt. eigenvalues --    3.32036   3.32806   3.35068   3.36208   3.37174
 Alpha virt. eigenvalues --    3.41442   3.45298   3.47422   3.48294   3.48802
 Alpha virt. eigenvalues --    3.49892   3.52534   3.52935   3.55150   3.56862
 Alpha virt. eigenvalues --    3.60971   3.65768   3.66338   3.67667   3.69492
 Alpha virt. eigenvalues --    3.72175   3.72681   3.76123   3.77626   3.85533
 Alpha virt. eigenvalues --    3.85971   3.88157   3.90389   3.91364   3.92015
 Alpha virt. eigenvalues --    3.96137   3.97971   3.98828   4.08563   4.09010
 Alpha virt. eigenvalues --    4.11034   4.15470   4.20145   4.21728   4.24635
 Alpha virt. eigenvalues --    4.29787   4.31104   4.32726   4.38787   4.41935
 Alpha virt. eigenvalues --    4.59079   4.88050   4.95267   4.95612   4.98226
 Alpha virt. eigenvalues --    5.02602   5.11218   5.17904   5.21481   5.21960
 Alpha virt. eigenvalues --    5.24000   5.46595   5.46777   5.49477   5.70665
 Alpha virt. eigenvalues --    5.93186   6.00401  23.67071  23.80310  23.92245
 Alpha virt. eigenvalues --   23.99640  24.03678  24.05000  24.06233  24.06931
 Alpha virt. eigenvalues --   24.08529  24.09588  24.10321  24.16266  24.17587
 Alpha virt. eigenvalues --   24.20416  24.22779  24.28516  24.30573  35.75792
 Alpha virt. eigenvalues --   35.78265  49.99460  50.20120  50.25341
  Beta  occ. eigenvalues --  -19.04694 -18.94928 -18.94876 -14.18923 -14.18761
  Beta  occ. eigenvalues --  -10.13127 -10.10167 -10.10152 -10.09950 -10.09108
  Beta  occ. eigenvalues --  -10.08608 -10.08578 -10.06021 -10.05963 -10.05699
  Beta  occ. eigenvalues --  -10.05696 -10.05007 -10.04934 -10.04825 -10.04770
  Beta  occ. eigenvalues --  -10.04735 -10.04711  -0.94573  -0.89378  -0.89117
  Beta  occ. eigenvalues --   -0.80785  -0.80124  -0.74211  -0.71770  -0.66082
  Beta  occ. eigenvalues --   -0.64780  -0.63026  -0.62505  -0.60536  -0.56046
  Beta  occ. eigenvalues --   -0.53461  -0.52880  -0.51361  -0.49659  -0.46621
  Beta  occ. eigenvalues --   -0.44748  -0.42840  -0.41475  -0.40627  -0.38939
  Beta  occ. eigenvalues --   -0.37529  -0.37191  -0.35577  -0.34665  -0.34559
  Beta  occ. eigenvalues --   -0.33869  -0.33269  -0.32305  -0.31260  -0.30901
  Beta  occ. eigenvalues --   -0.30103  -0.29878  -0.29359  -0.28616  -0.27394
  Beta  occ. eigenvalues --   -0.26688  -0.26449  -0.25743  -0.25020  -0.24443
  Beta  occ. eigenvalues --   -0.24171  -0.23288  -0.22576  -0.21530  -0.20069
  Beta  occ. eigenvalues --   -0.19174  -0.13879  -0.13281  -0.13044  -0.12683
  Beta  occ. eigenvalues --   -0.11650  -0.10726  -0.06308
  Beta virt. eigenvalues --    0.05005   0.06263   0.07493   0.07929   0.08024
  Beta virt. eigenvalues --    0.09108   0.09382   0.09903   0.10679   0.10858
  Beta virt. eigenvalues --    0.11048   0.11335   0.12150   0.12425   0.13024
  Beta virt. eigenvalues --    0.13227   0.14123   0.14619   0.15015   0.15336
  Beta virt. eigenvalues --    0.15582   0.15964   0.16662   0.16955   0.17517
  Beta virt. eigenvalues --    0.17557   0.17911   0.18220   0.18728   0.18807
  Beta virt. eigenvalues --    0.19040   0.19386   0.19494   0.19952   0.19972
  Beta virt. eigenvalues --    0.20347   0.20595   0.20787   0.21218   0.21447
  Beta virt. eigenvalues --    0.21930   0.22035   0.22668   0.22905   0.23058
  Beta virt. eigenvalues --    0.23355   0.23545   0.23881   0.24378   0.24713
  Beta virt. eigenvalues --    0.24892   0.25397   0.25850   0.25974   0.26168
  Beta virt. eigenvalues --    0.26377   0.26781   0.27171   0.27512   0.27810
  Beta virt. eigenvalues --    0.28167   0.28532   0.28967   0.29164   0.29507
  Beta virt. eigenvalues --    0.29912   0.30170   0.30511   0.30914   0.31422
  Beta virt. eigenvalues --    0.31640   0.31972   0.32146   0.32478   0.32682
  Beta virt. eigenvalues --    0.32895   0.33098   0.33716   0.34796   0.34984
  Beta virt. eigenvalues --    0.35486   0.35768   0.35960   0.36084   0.36591
  Beta virt. eigenvalues --    0.36658   0.36853   0.37369   0.37578   0.37761
  Beta virt. eigenvalues --    0.37937   0.38594   0.38769   0.38982   0.39102
  Beta virt. eigenvalues --    0.39347   0.39752   0.40106   0.40415   0.40742
[...]
 6142,-0.00041446,-0.00080818,0.00001529,-0.00000869,0.00002464,0.00008
 047,-0.00016946,-0.00001583,-0.00002395,0.00005750,0.00001969,0.000016
 03,0.00005338,0.00000332,-0.00001374,-0.00001108,0.00000290,0.00002057
 ,-0.00001463,-0.00001284,-0.00000230,-0.00000314,-0.00000600,0.0136371
 5,-0.01515834,-0.00537659,-0.13840814,0.10648335,0.04951232,-0.0015674
 5,0.00170454,0.00124997,0.00029764,-0.00126375,-0.00051679,-0.00053230
 ,-0.00021579,-0.00189924,0.14515761,-0.00001070,-0.00008413,-0.0000736
 5,-0.00000883,0.00006808,-0.00001873,0.00000229,-0.00006593,0.00000225
 ,0.00000793,0.00018806,0.00005597,0.00002685,-0.00009633,-0.00019785,-
 0.00002155,0.00007775,-0.00000515,0.00005489,-0.00013458,0.00035345,0.
 00029079,-0.00035669,0.00098106,-0.00006783,0.00017888,-0.00026503,-0.
 00005518,0.00009739,-0.00008017,0.00029547,-0.00038233,0.00013054,0.00
 044387,0.00029584,0.00017573,-0.00054133,-0.00029679,-0.00009524,-0.00
 010451,-0.00130935,0.00187294,-0.00007555,0.00022398,-0.00039841,-0.00
 044268,-0.00065046,-0.00148795,-0.00000213,0.00001011,-0.00000604,-0.0
 0000235,-0.00000972,-0.00002076,0.00000234,-0.00001978,-0.00000339,0.0
 0000447,0.00002392,0.00002454,-0.00024338,0.00011580,0.00171349,-0.000
 04849,0.00004865,-0.00002441,-0.00026320,0.00042438,-0.00027512,0.0000
 2051,-0.00023769,-0.00004439,-0.00002020,-0.00006201,-0.00000185,0.000
 05557,0.00005049,0.00002266,-0.00002928,0.00005074,0.00004307,-0.00000
 165,0.00001286,-0.00001425,0.00001085,-0.01407363,-0.01259770,0.104017
 27,-0.17187486,-0.05589875,0.01525493,-0.02125830,-0.00797337,-0.00121
 432,0.00322396,-0.00005674,0.00156093,0.00247410,-0.00133057,-0.111937
 67,0.19718002,-0.00002453,-0.00003411,-0.00005665,0.00001640,0.0000051
 5,0.00004334,-0.00002211,-0.00001977,-0.00008855,0.00000672,0.00000268
 ,0.00010031,0.00007949,-0.00010740,-0.00044676,-0.00002352,0.00013270,
 0.00003101,0.00003766,-0.00007908,0.00019005,0.00044507,-0.00037541,0.
 00135467,-0.00011667,-0.00029125,0.00009650,-0.00052893,-0.00007455,-0
 .00074063,0.00006666,0.00015889,0.00046909,-0.00051838,0.00040284,-0.0
 0026544,0.00030448,0.00051010,-0.00000156,0.00076015,-0.00268834,0.003
 42795,-0.00004638,0.00012103,-0.00023698,-0.00064449,-0.00114119,-0.00
 210092,0.00000048,0.00000125,-0.00000654,-0.00000152,-0.00000506,-0.00
 001118,0.00000087,-0.00001110,-0.00000571,0.00000058,0.00003482,0.0000
 2176,0.00069530,0.00144550,-0.00134129,0.00001587,0.00002215,-0.000047
 47,-0.00003472,0.00024014,-0.00022456,-0.00001341,-0.00014937,-0.00003
 073,0.00004443,-0.00001467,-0.00000222,0.00003222,0.00002081,0.0000175
 5,-0.00002205,0.00003233,0.00003091,-0.00000173,0.00000807,-0.00000370
 ,0.00842176,-0.02866477,-0.01723433,0.04800053,-0.05750830,-0.07340073
 ,-0.01445697,0.01913692,0.00710240,0.00102144,-0.00110344,0.00203892,0
 .00118484,0.00331938,-0.00303685,-0.05105372,0.06841888,0.08774632,0.0
 0000357,-0.00014365,-0.00008777,-0.00000235,0.00007473,-0.00000963,0.0
 0001088,-0.00013130,-0.00005332,0.00000145,0.00032073,0.00011353,-0.00
 003048,-0.00029025,-0.00019617,-0.00000690,0.00019343,0.00000224,0.000
 09792,-0.00017583,0.00071874,0.00007874,0.00108582,0.00068537,-0.00005
 998,0.00000467,-0.00031485,-0.00017852,-0.00103237,-0.00130593,0.00023
 914,-0.00018232,0.00079014,0.00001288,0.00018773,-0.00064316,0.0003243
 6,0.00089392,0.00029851,0.00193667,-0.00436231,0.00559578,-0.00012425,
 0.00033388,-0.00074081,0.00020950,-0.00035888,-0.00034961,-0.00000644,
 0.00002508,-0.00000280,-0.00000862,-0.00002146,-0.00003427,-0.00000458
 ,-0.00004002,-0.00000802,-0.00000451,0.00001095,0.00003333,-0.00051921
 ,0.00046688,0.00044657,-0.00008445,0.00009661,-0.00004240,-0.00034900,
 0.00080904,-0.00085778,-0.00008973,-0.00052706,-0.00008312,0.00004913,
 -0.00000506,0.00001061,0.00016300,0.00011437,0.00006445,-0.00003219,0.
 00008342,0.00008218,-0.00000429,0.00002892,-0.00003621,-0.01118988,-0.
 01144943,-0.01815831,-0.21801942,-0.06531734,0.04610221,0.00030861,0.0
 0071370,-0.00208429,0.00321050,0.00217954,0.00086712,-0.00212881,0.000
 84909,0.00039426,-0.02098395,-0.00664566,0.00735766,0.24514303,0.00001
 155,-0.00010721,-0.00006173,-0.00001972,0.00008376,-0.00004407,0.00001
 472,-0.00009549,0.00003832,0.00000116,0.00028872,0.00003831,-0.0000554
 5,-0.00012601,0.00004717,0.00002443,0.00006117,-0.00002970,0.00004385,
 -0.00010135,0.00049736,-0.00007087,0.00056796,0.00018893,-0.00012295,0
 .00041426,-0.00048559,0.00030310,-0.00049846,-0.00011855,0.00002859,-0
 .00053357,-0.00000948,-0.00014800,-0.00021030,0.00038247,-0.00038097,0
 .00121739,-0.00078862,0.00185492,-0.00137124,0.00218839,-0.00008817,0.
 00025214,-0.00048497,0.00040708,-0.00031576,-0.00005414,-0.00000377,0.
 00001761,-0.00000052,-0.00000432,-0.00001263,-0.00002095,-0.00000266,-
 0.00002482,-0.00000330,-0.00000866,0.00000028,0.00002011,0.00047722,0.
 00002720,-0.00009762,-0.00001020,0.00006538,-0.00000985,-0.00014931,0.
 00046883,-0.00042910,-0.00003980,-0.00026833,-0.00004570,0.00003532,-0
 .00004163,-0.00002170,0.00007870,0.00006701,0.00002695,-0.00001815,0.0
 0005329,0.00004267,-0.00000225,0.00001656,-0.00002060,-0.01666571,-0.0
 0720028,-0.00860052,-0.06629799,-0.07813208,0.02002754,-0.02369810,-0.
 01076440,0.00679067,0.00094370,0.00135606,-0.00201152,-0.00190414,0.00
 022954,0.00026260,0.02038439,0.00831879,-0.00452855,0.08383786,0.08777
 945,0.00002806,0.00000076,-0.00000117,-0.00000644,-0.00004577,0.000028
 48,-0.00001540,-0.00000706,-0.00009398,0.00001355,-0.00003786,0.000029
 78,-0.00016530,-0.00011740,-0.00016578,0.00002631,0.00011326,0.0000084
 1,0.00000254,-0.00008251,0.00010115,-0.00012854,0.00066457,0.00021063,
 0.00022638,-0.00046868,0.00033747,0.00052681,-0.00117538,-0.00167177,0
 .00011863,0.00050022,0.00059827,0.00013533,0.00013857,-0.00092026,0.00
 108554,0.00097316,0.00126696,-0.00043982,-0.00382146,0.00657301,-0.000
 02283,0.00002985,-0.00012462,0.00036208,-0.00020811,-0.00023564,-0.000
 00373,0.00000296,-0.00000460,-0.00000072,-0.00000618,-0.00000884,-0.00
 000196,-0.00001415,-0.00000593,0.00000262,0.00000893,0.00001130,-0.000
 81991,0.00018902,-0.00009522,-0.00002540,0.00001431,-0.00001381,-0.000
 14900,0.00012839,-0.00027084,0.00000844,-0.00013320,-0.00002543,-0.000
 01267,0.00004601,0.00002959,0.00002528,0.00002042,0.00002305,-0.000011
 27,0.00001623,0.00002740,-0.00000229,0.00000543,-0.00001331,-0.0308332
 8,-0.01487467,-0.00613956,0.04258969,0.01793667,-0.05689595,0.02144598
 ,0.00922330,-0.00680652,0.00074906,-0.00017607,0.00188109,-0.00223219,
 0.00039907,0.00006363,0.00946181,0.00416423,-0.00095174,-0.03946426,-0
 .01580944,0.06577173,0.00000287,0.00000082,0.00002732,-0.00000271,-0.0
 0000045,-0.00002559,0.00000923,-0.00000748,0.00003456,-0.00000774,0.00
 003179,-0.00004234,0.00002435,0.00002826,0.00018808,-0.00000562,-0.000
 03113,-0.00003660,-0.00000203,0.00004317,-0.00001807,-0.00010820,0.000
 45035,-0.00049546,-0.00000539,0.00003396,-0.00005319,-0.00002328,-0.00
 011810,0.00000426,-0.00000715,-0.00007088,-0.00008190,0.00004012,-0.00
 011551,0.00009739,-0.00001211,0.00018800,0.00004706,-0.00009755,-0.000
 41527,-0.00005956,0.00000582,-0.00003502,0.00002892,0.00021783,-0.0005
 4556,0.00064206,0.00000026,0.00000224,0.00000317,0.00000016,-0.0000000
 8,0.00000306,-0.00000092,-0.00000246,-0.00000228,-0.00000333,-0.000013
 23,-0.00001214,-0.00002138,-0.00007919,-0.00005139,-0.00000170,-0.0000
 0539,0.00001024,0.00000112,-0.00002129,-0.00000037,0.00000195,0.000019
 64,0.00000369,-0.00000316,0.00001238,0.00000547,-0.00000383,-0.0000015
 2,-0.00000262,0.00000331,-0.00000371,-0.00000486,-0.00000032,-0.000000
 53,-0.00000023,0.00061114,0.00004364,-0.00010314,-0.00073278,0.0018394
 6,0.00244391,-0.13234657,0.10392483,0.04760241,0.01112129,-0.01660551,
 -0.01253096,-0.00041855,0.00048835,-0.00084830,0.00143074,0.00000436,-
 0.00097736,0.00090851,-0.00000084,-0.00063384,0.13252717,-0.00000894,-
 0.00000249,-0.00002236,0.00000545,-0.00000001,0.00003130,-0.00001026,0
 .00000580,-0.00003652,0.00001234,-0.00003380,0.00005335,-0.00001700,-0
 .00003939,-0.00017671,-0.00000412,0.00004296,0.00003250,0.00001169,-0.
 00003052,0.00002420,0.00011873,-0.00035756,0.00050489,0.00001520,-0.00
 002663,0.00005754,-0.00000007,0.00006800,-0.00001663,0.00002208,0.0000
 5026,0.00012322,-0.00001374,0.00021032,-0.00009316,-0.00005396,-0.0002
 7986,-0.00010413,-0.00011677,0.00023770,0.00060951,-0.00000927,0.00003
 076,-0.00002528,-0.00030680,0.00043916,-0.00049780,0.00000072,-0.00000
 193,-0.00000180,0.00000079,0.00000024,-0.00000197,0.00000196,0.0000027
 8,0.00000114,0.00000736,0.00001095,0.00000409,0.00005416,0.00021536,0.
 00011360,0.00000360,0.00000584,-0.00001884,-0.00001566,0.00005396,-0.0
 0001720,0.00000064,-0.00003348,-0.00000742,0.00000700,-0.00001194,-0.0
 0000243,0.00000781,0.00000242,0.00000309,-0.00000833,0.00000693,0.0000
 0698,-0.00000022,0.00000120,0.00000167,-0.00119183,0.00110571,-0.00127
 810,0.01623475,-0.02002293,-0.00711329,0.10214842,-0.19227467,-0.05602
 089,-0.00152924,-0.00775436,-0.01359690,0.00075882,0.00012522,0.000920
 17,-0.00020486,-0.00258719,0.00342932,-0.00065745,0.00086598,-0.000654
 65,-0.11104731,0.21154722,0.00000091,-0.00000080,0.00000159,-0.0000024
 2,0.00000356,-0.00000917,0.00000111,-0.00000035,0.00001078,-0.00000488
 ,0.00001581,-0.00001504,0.00000466,0.00001620,0.00003548,0.00000279,-0
 .00001620,-0.00000066,0.00000381,-0.00001123,0.00001440,-0.00001192,0.
 00000807,-0.00014804,-0.00001136,0.00004128,-0.00002790,-0.00000159,-0
 .00001594,0.00009031,0.00000232,-0.00002262,-0.00005453,0.00006626,-0.
 00015494,-0.00000368,-0.00003977,0.00038262,-0.00010818,0.00003095,0.0
 0004586,-0.00007159,-0.00000175,0.00001239,-0.00001388,0.00005472,-0.0
 0002292,-0.00000047,-0.00000027,0.00000083,-0.00000089,-0.00000033,-0.
 00000090,-0.00000183,0.00000065,-0.00000008,0.00000143,-0.00000154,-0.
 00000142,0.00000099,-0.00009623,-0.00018728,-0.00010873,-0.00000129,0.
 00000535,0.00000874,-0.00001385,0.00000201,-0.00001151,-0.00000044,-0.
 00001040,-0.00000055,-0.00000479,-0.00000260,-0.00000450,0.00000280,0.
 00000324,0.00000153,0.00000076,0.00000219,0.00000089,-0.00000035,0.000
 00061,-0.00000342,0.00100260,0.00064475,0.00243217,-0.01383236,0.01900
 242,0.00733207,0.04459339,-0.05750804,-0.07250190,0.00594381,-0.028683
 18,-0.02389417,-0.00020015,-0.00054128,-0.00014725,-0.00055253,0.00330
 021,-0.00332056,0.00039760,-0.00074488,0.00092485,-0.04478666,0.070473
 50,0.09042660,0.00000357,0.00000270,-0.00000848,0.00000326,0.00000018,
 0.00001276,0.00000233,0.00000477,-0.00001160,0.00000065,-0.00001516,0.
 00001851,-0.00001621,-0.00000480,-0.00004341,0.00001178,0.00000492,0.0
 0001476,-0.00000417,0.00000205,0.00000639,0.00003000,-0.00009360,0.000
 09234,-0.00001522,0.00004652,-0.00000873,0.00002281,0.00000705,0.00009
 009,0.00000384,-0.00000866,-0.00000736,-0.00002572,0.00002334,0.000004
 84,-0.00005063,-0.00001334,-0.00008096,0.00016950,0.00023492,0.0000154
 7,0.00000662,0.00000503,0.00000665,0.00010673,0.00015600,-0.00011834,-
 0.00000137,-0.00000108,0.00000050,-0.00000140,0.00000079,0.00000127,-0
 .00000241,0.00000367,0.00000244,-0.00001045,0.00000076,0.00000262,0.00
 000937,0.00003509,-0.00000534,-0.00000496,-0.00000055,0.,0.00000629,0.
 00000994,0.00000084,-0.00000484,-0.00000566,-0.00000115,-0.00000147,-0
 .00000368,-0.00000154,0.00000445,0.00000187,-0.00000015,-0.00000050,-0
 .00000004,0.00000007,0.00000025,0.00000007,0.00000224,0.00084136,0.000
 44465,0.00068371,0.00346208,0.00122627,-0.00107848,-0.26275948,-0.0737
 3894,0.06995806,-0.01575315,-0.00845093,-0.00340228,-0.00034745,-0.000
 31638,0.00022795,0.00097031,-0.00040392,0.00007165,0.00119421,0.000518
 86,-0.00098349,-0.01491369,-0.00466135,0.00641826,0.28640807,0.0000002
 2,0.00000156,-0.00000132,0.00000012,-0.00000361,0.00000955,-0.00000342
 ,0.00000081,-0.00001022,0.00000753,-0.00001382,0.00001393,0.00000089,-
 0.00001407,-0.00002866,0.00000111,0.00001556,0.00000367,-0.00000881,0.
 00001652,0.00001084,0.00000617,0.00005172,0.00006108,-0.00002723,-0.00
 000142,0.00000393,0.00000781,-0.00005109,-0.00008414,0.00000525,-0.000
 00344,0.00001139,0.00003360,0.00004262,-0.00001238,0.00009948,0.000042
 98,-0.00004749,0.00042771,-0.00024830,0.00033652,0.00000474,-0.0000027
 7,-0.00000175,-0.00007194,-0.00000613,0.00001355,-0.00000024,-0.000000
 03,0.00000065,0.00000033,0.00000031,0.00000063,0.00000037,0.00000019,-
 0.00000094,0.00000320,0.00000042,-0.00000113,-0.00009868,0.00006669,0.
 00005697,-0.00000724,-0.00000232,-0.00000063,-0.00000287,0.00001255,-0
 .00000663,-0.00000783,-0.00000552,-0.00000023,-0.00000251,0.00000121,0
 .00000254,0.00000538,0.00000251,-0.00000018,0.00000079,-0.00000127,-0.
 00000049,0.00000051,0.00000046,0.00000152,0.00027593,0.00101212,-0.001
 53028,-0.02250873,-0.00902837,0.00889864,-0.06917982,-0.07637283,0.022
 82399,-0.01499095,-0.00513221,-0.00039119,0.00009270,0.00011263,0.0001
 5122,-0.00036727,0.00074655,-0.00089106,0.00010618,-0.00270985,0.00322
 788,0.02256640,0.00895300,-0.00673039,0.08521991,0.08326152,0.00000107
 ,-0.00000226,0.00001190,-0.00000793,0.00000575,-0.00002396,0.00000289,
 -0.00000620,0.00002997,-0.00000787,0.00002917,-0.00003452,0.00002550,0
 .00002965,0.00010316,-0.00000672,-0.00002651,-0.00002046,0.00000248,0.
 00000224,-0.00000412,-0.00007938,0.00007083,-0.00021751,-0.00000182,0.
 00006482,-0.00004819,0.00006162,0.00006286,0.00016794,-0.00000154,-0.0
 0008603,-0.00007503,-0.00001555,-0.00010527,0.00012222,-0.00013654,0.0
 0000975,-0.00006006,-0.00037091,0.00012041,-0.00050119,-0.00000615,-0.
 00000494,0.00000362,-0.00007306,-0.00019222,0.00022168,0.00000143,0.00
 000138,-0.00000007,0.00000143,-0.00000061,-0.00000061,0.00000175,-0.00
 000214,-0.00000070,0.00000741,-0.00000563,-0.00000414,0.00008803,-0.00
 009343,-0.00006009,0.00000647,0.00000119,0.00000591,-0.00000473,-0.000
 00184,-0.00000064,0.00000655,0.00000709,-0.00000003,0.00000585,0.00000
 110,-0.00000201,-0.00000452,-0.00000129,-0.00000109,0.00000060,0.00000
 179,-0.00000062,-0.00000097,0.00000070,-0.00000144,-0.00087904,-0.0004
 1304,0.00214006,0.02233202,0.00849049,-0.00607923,0.07944691,0.0271983
 4,-0.07145918,-0.03482152,-0.01452419,0.00291603,0.00057429,0.00000710
 ,-0.00053545,-0.00064089,-0.00062161,0.00111189,-0.00153365,0.00290008
 ,-0.00298120,0.00949748,0.00385944,-0.00117074,-0.06904189,-0.02378646
 ,0.08116767,-0.00000373,0.00003193,0.00000476,0.00001014,-0.00002299,0
 .00004153,-0.00001070,0.00003388,-0.00002853,0.00001050,-0.00010704,0.
 00003570,-0.00001802,0.00002533,-0.00007219,-0.00000061,-0.00000894,0.
 00003038,-0.00002736,0.00006194,-0.00013467,0.00001457,-0.00012776,-0.
 00000858,-0.00000706,0.00000601,0.00007677,0.00000660,0.00001331,0.000
 15177,-0.00002665,0.00010965,-0.00008605,-0.00001656,0.00011285,-0.000
 04387,-0.00003271,-0.00033468,0.00001945,0.00020009,0.00083533,-0.0005
 4600,0.00003028,-0.00007211,0.00017275,-0.00001113,0.00019944,0.000070
 72,0.00000233,-0.00000732,0.00000320,0.00000290,0.00000719,0.00001245,
 0.00000145,0.00001685,0.00000314,0.00000162,-0.00000381,-0.00001201,0.
 00000617,0.00006039,0.00000290,0.00000499,-0.00002049,-0.00000222,0.00
 006177,-0.00013527,0.00015425,0.00001381,0.00008777,0.00000949,-0.0000
 0682,0.00000192,-0.00000077,-0.00002393,-0.00002126,-0.00001334,0.0000
 0113,-0.00001535,-0.00001412,0.00000243,-0.00000589,0.00001511,0.00055
 535,-0.00061763,0.00155268,0.00106282,0.00152897,0.00100088,-0.0185196
 3,-0.00744372,0.00712907,-0.40903520,-0.17298163,0.09573985,-0.0000138
 4,-0.00029526,-0.00001016,-0.00034263,0.00008710,-0.00007775,-0.000064
 52,0.00072658,-0.00085577,0.00181214,0.00044565,0.00103711,0.00065565,
 -0.00158881,-0.00442912,0.42370435,0.00000330,-0.00001547,0.00001051,-
 0.00000721,0.00001145,-0.00003930,0.00001432,-0.00002035,0.00003466,-0
 .00001117,0.00006474,-0.00004698,0.00001030,0.00001309,0.00012345,-0.0
 0000027,-0.00001249,-0.00003747,0.00001775,-0.00001287,0.00004680,-0.0
 0003933,0.00018696,-0.00021912,-0.00002661,0.00003120,-0.00004546,0.00
 002175,-0.00009016,0.00001814,0.00000687,-0.00007290,-0.00002720,0.000
 00524,-0.00010804,0.00009960,-0.00004073,0.00018669,0.00001702,0.00006
 103,-0.00017183,0.00011994,-0.00000858,0.00000554,-0.00005499,0.000142
 05,-0.00027939,0.00017796,-0.00000150,0.00000458,-0.00000031,-0.000001
 73,-0.00000350,-0.00000470,-0.00000272,-0.00001213,-0.00000363,-0.0000
 0550,-0.00000336,0.00000380,0.00003250,-0.00005411,-0.00003742,0.00000
 328,-0.00000546,0.00001423,-0.00001508,0.00000761,-0.00004398,0.000002
 61,0.00000434,0.00000588,0.00000132,0.00001145,0.00000768,-0.00000403,
 0.00000266,0.00000191,0.00000558,0.00000025,-0.00000034,-0.00000132,0.
 00000067,-0.00000735,-0.00015946,-0.00093791,0.00024631,0.00326708,0.0
 0262013,0.00002935,-0.01626572,-0.00675744,0.00396346,-0.16463241,-0.0
 7544841,0.03109944,-0.00031971,0.00015894,-0.00014037,0.00039483,-0.00
 031057,0.00024444,-0.00107615,0.00036204,-0.00017067,-0.00055721,-0.00
 052505,0.00069453,-0.00023125,-0.00074488,-0.00299052,0.17941790,0.081
 91394,-0.00000134,0.00004132,0.00000898,0.00001019,-0.00002937,0.00004
 399,-0.00000664,0.00004014,-0.00003112,0.00001464,-0.00013018,0.000031
 89,-0.00001261,0.00004001,-0.00007023,0.00000345,-0.00001657,0.0000297
 9,-0.00003932,0.00009422,-0.00017721,-0.00001102,-0.00010233,-0.000063
 77,-0.00000094,0.00000473,0.00007182,-0.00000308,0.00004453,0.00011819
 ,-0.00006251,0.00010443,-0.00015134,-0.00000426,0.00013115,0.00000400,
 0.00000953,-0.00029166,-0.00005509,0.00010052,0.00073222,-0.00069908,0
 .00004396,-0.00009936,0.00021730,0.00004788,0.00017122,0.00010016,0.00
 000136,-0.00000899,0.00000416,0.00000247,0.00000911,0.00001662,-0.0000
 0098,0.00001987,0.00000333,-0.00000400,-0.00000614,-0.00001216,-0.0000
 0944,0.00008351,0.00000804,0.00000195,-0.00002735,0.00000207,0.0000915
 3,-0.00018277,0.00019919,0.00000647,0.00012577,0.00001512,-0.00001240,
 0.00000627,0.00000078,-0.00003022,-0.00002576,-0.00001698,0.00000784,-
 0.00002321,-0.00002296,0.00000354,-0.00000771,0.00001984,0.00107484,0.
 00055406,0.00080412,-0.00414396,-0.00223278,0.00094741,-0.03665620,-0.
 01608324,0.00452568,0.14075336,0.05192136,-0.07745581,-0.00001676,-0.0
 0030244,0.00008545,0.00043530,0.00023211,-0.00022755,0.00204605,0.0009
 6954,-0.00046064,0.00012781,-0.00056342,0.00033737,-0.00283821,-0.0021
 0297,-0.00471976,-0.10092881,-0.03308932,0.07656843\\0.00000160,-0.000
 00934,0.00001079,0.00000031,-0.00000118,-0.00000328,0.00000164,-0.0000
 0324,0.00000028,-0.00000702,0.00001165,-0.00001377,0.00000469,-0.00000
 924,0.00001828,-0.00000268,0.00000649,-0.00001334,0.00000985,0.0000088
 6,-0.00002011,0.00000327,-0.00001280,0.00001545,-0.00000233,-0.0000130
 4,0.00000217,-0.00000325,-0.00000422,-0.00001488,0.00000278,0.00001245
 ,0.00001423,-0.00000361,0.00000164,-0.00001132,0.00000057,-0.00000646,
 0.00000658,0.00000370,0.00001574,0.00000169,-0.00000412,-0.00000839,0.
 00001468,-0.00000352,0.00000530,-0.00001638,0.00000006,0.00000385,-0.0
 0000245,0.00000013,0.00000332,-0.00000070,0.00000094,0.00000081,0.0000
 0294,0.00000224,-0.00000120,0.00000436,-0.00000044,-0.00000144,-0.0000
 0099,0.00000052,0.,-0.00000122,-0.00000592,-0.00000241,-0.00000114,-0.
 00000230,-0.00000106,-0.00000470,0.00000417,0.00000489,0.00000471,0.00
 000077,0.00000076,0.00000128,0.00000076,-0.00000041,0.00000141,-0.0000
 0255,-0.00000121,0.00000193,-0.00000292,-0.00001066,-0.00000305,0.0000
 0169,-0.00000209,0.00000706,-0.00000193,0.00000131,-0.00000245,-0.0000
 0276,0.00000601,0.00000027,-0.00000101,0.00001010,0.00000117,0.0000000
 1,0.00000039,0.00000158,-0.00000183,0.00000067,-0.00000095,0.00000234,
 0.00000244,-0.00000196,0.00000130,-0.00000285,-0.00000004,0.00000483,-
 0.00000541,0.00000188\\\@


 HE WHO LAUGHS LAST PROBABLY DIDN'T GET THE JOKE.
 Job cpu time:       1 days  2 hours 47 minutes 24.1 seconds.
 Elapsed time:       0 days  3 hours 21 minutes 34.4 seconds.
 File lengths (MBytes):  RWF=   2414 Int=      0 D2E=      0 Chk=     40 Scr=      1
 Normal termination of Gaussian 16 at Thu Dec 21 13:31:09 2023.
