
Running Job 1 of 1 192-rad-SM12.in
qchem 192-rad-SM12.in_136363.0 /expanse/lustre/scratch/selhajj/temp_project/qcscratch/28446388/qchem136363/ 0
/cm/shared/apps/spack/cpu/opt/spack/linux-centos8-zen2/gcc-10.2.0/qchem-5.4-akfmr7b3t57bfs6qan3padb2wnb2i7cl/exe/qcprog.exe_s 192-rad-SM12.in_136363.0 /expanse/lustre/scratch/selhajj/temp_project/qcscratch/28446388/qchem136363/
                  Welcome to Q-Chem
     A Quantum Leap Into The Future Of Chemistry


 Q-Chem 5.4, Q-Chem, Inc., Pleasanton, CA (2021)

 License issued to: University of California, San Diego (site)

 E. Epifanovsky,  A. T. B. Gilbert,  Xintian Feng,  Joonho Lee,  Yuezhi Mao,  
 N. Mardirossian,  P. Pokhilko,  A. White,  M. Wormit,  M. P. Coons,  
 A. L. Dempwolff,  Zhengting Gan,  D. Hait,  P. R. Horn,  L. D. Jacobson,  
 I. Kaliman,  J. Kussmann,  A. W. Lange,  Ka Un Lao,  D. S. Levine,  Jie Liu,  
 S. C. McKenzie,  A. F. Morrison,  K. Nanda,  F. Plasser,  D. R. Rehn,  
 M. L. Vidal,  Zhi-Qiang You,  Ying Zhu,  B. Alam,  B. Albrecht,  
 A. Aldossary,  E. Alguire,  J. H. Andersen,  D. Barton,  K. Begam,  A. Behn,  
 Y. A. Bernard,  E. J. Berquist,  H. Burton,  A. Carreras,  K. Carter-Fenk,  
 R. Chakraborty,  A. D. Chien,  K. D. Closser,  V. Cofer-Shabica,  
 S. Dasgupta,  Jia Deng,  M. de Wergifosse,  M. Diedenhofen,  Hainam Do,  
 S. Ehlert,  Po-Tung Fang,  S. Fatehi,  Qingguo Feng,  J. Gayvert,  
 Qinghui Ge,  G. Gidofalvi,  M. Goldey,  J. Gomes,  C. Gonzalez-Espinoza,  
 S. Gulania,  A. Gunina,  M. W. D. Hanson-Heine,  P. H. P. Harbach,  
 A. W. Hauser,  M. F. Herbst,  M. Hernandez Vera,  M. Hodecker,  
 Z. C. Holden,  S. Houck,  Xunkun Huang,  Kerwin Hui,  B. C. Huynh,  
 M. Ivanov,  Hyunjun Ji,  Hanjie Jiang,  B. Kaduk,  S. Kaehler,  
 K. Khistyaev,  Jaehoon Kim,  P. Klunzinger,  Z. Koczor-Benda,  
 Joong Hoon Koh,  D. Kosenkov,  L. Koulias,  T. Kowalczyk,  C. M. Krauter,  
 K. Kue,  A. Kunitsa,  T. Kus,  A. Landau,  K. V. Lawler,  D. Lefrancois,  
 S. Lehtola,  Rain Li,  Yi-Pei Li,  Jiashu Liang,  M. Liebenthal,  
 Hung-Hsuan Lin,  You-Sheng Lin,  Fenglai Liu,  Kuan-Yu Liu,  
 M. Loipersberger,  A. Luenser,  A. Manjanath,  P. Manohar,  E. Mansoor,  
 S. F. Manzer,  Shan-Ping Mao,  A. V. Marenich,  T. Markovich,  S. Mason,  
 S. A. Maurer,  P. F. McLaughlin,  M. F. S. J. Menger,  J.-M. Mewes,  
 S. A. Mewes,  P. Morgante,  J. W. Mullinax,  T. S. Nguyen-Beck,  
 K. J. Oosterbaan,  G. Paran,  Alexander C. Paul,  Suranjan K. Paul,  
 F. Pavosevic,  Zheng Pei,  S. Prager,  E. I. Proynov,  E. Ramos,  B. Rana,  
 A. E. Rask,  A. Rettig,  R. M. Richard,  F. Rob,  E. Rossomme,  T. Scheele,  
 M. Scheurer,  M. Schneider,  N. Sergueev,  S. M. Sharada,  W. Skomorowski,  
 D. W. Small,  C. J. Stein,  Yu-Chuan Su,  E. J. Sundstrom,  Zhen Tao,  
 J. Thirman,  T. Tsuchimochi,  N. M. Tubman,  S. P. Veccham,  O. Vydrov,  
 J. Wenzel,  J. Witte,  A. Yamada,  Kun Yao,  S. Yeganeh,  S. R. Yost,  
 A. Zech,  Igor Ying Zhang,  Xing Zhang,  Yu Zhang,  D. Zuev,  
 A. Aspuru-Guzik,  A. T. Bell,  N. A. Besley,  K. B. Bravaya,  B. R. Brooks,  
 D. Casanova,  Jeng-Da Chai,  S. Coriani,  C. J. Cramer,  
 A. E. DePrince, III,  R. A. DiStasio Jr.,  A. Dreuw,  B. D. Dunietz,  
 T. R. Furlani,  W. A. Goddard III,  S. Grimme,  S. Hammes-Schiffer,  
 T. Head-Gordon,  W. J. Hehre,  Chao-Ping Hsu,  T.-C. Jagau,  Yousung Jung,  
 A. Klamt,  Jing Kong,  D. S. Lambrecht,  WanZhen Liang,  N. J. Mayhall,  
 C. W. McCurdy,  J. B. Neaton,  C. Ochsenfeld,  J. A. Parkhill,  R. Peverati,  
 V. A. Rassolov,  Yihan Shao,  L. V. Slipchenko,  T. Stauch,  R. P. Steele,  
 J. E. Subotnik,  A. J. W. Thom,  A. Tkatchenko,  D. G. Truhlar,  
 T. Van Voorhis,  T. A. Wesolowski,  K. B. Whaley,  H. L. Woodcock III,  
 P. M. Zimmerman,  S. Faraji,  P. M. W. Gill,  M. Head-Gordon,  
 J. M. Herbert,  A. I. Krylov

 Contributors to earlier versions of Q-Chem not listed above: 
 R. D. Adamson,  B. Austin,  R. Baer,  J. Baker,  G. J. O. Beran,  
 K. Brandhorst,  S. T. Brown,  E. F. C. Byrd,  A. K. Chakraborty,  
 G. K. L. Chan,  Chun-Min Chang,  Yunqing Chen,  C.-L. Cheng,  
 Siu Hung Chien,  D. M. Chipman,  D. L. Crittenden,  H. Dachsel,  
 R. J. Doerksen,  A. D. Dutoi,  R. G. Edgar,  J. Fosso-Tande,  
 L. Fusti-Molnar,  D. Ghosh,  A. Ghysels,  A. Golubeva-Zadorozhnaya,  
 J. Gonthier,  M. S. Gordon,  S. R. Gwaltney,  G. Hawkins,  J. E. Herr,  
 A. Heyden,  S. Hirata,  E. G. Hohenstein,  G. Kedziora,  F. J. Keil,  
 C. Kelley,  Jihan Kim,  R. A. King,  R. Z. Khaliullin,  P. P. Korambath,  
 W. Kurlancheek,  A. Laurent,  A. M. Lee,  M. S. Lee,  S. V. Levchenko,  
 Ching Yeh Lin,  D. Liotard,  E. Livshits,  R. C. Lochan,  I. Lotan,  
 L. A. Martinez-Martinez,  P. E. Maslen,  N. Nair,  D. P. O'Neill,  
 D. Neuhauser,  E. Neuscamman,  C. M. Oana,  R. Olivares-Amaya,  R. Olson,  
 T. M. Perrine,  B. Peters,  P. A. Pieniazek,  A. Prociuk,  Y. M. Rhee,  
 J. Ritchie,  M. A. Rohrdanz,  E. Rosta,  N. J. Russ,  H. F. Schaefer III,  
 M. W. Schmidt,  N. E. Schultz,  S. Sharma,  N. Shenvi,  C. D. Sherrill,  
 A. C. Simmonett,  A. Sodt,  T. Stein,  D. Stuck,  K. S. Thanthiriwatte,  
 V. Vanovschi,  L. Vogt,  Tao Wang,  A. Warshel,  M. A. Watson,  
 C. F. Williams,  Q. Wu,  X. Xu,  Jun Yang,  W. Zhang,  Yan Zhao

 Please cite Q-Chem as follows:
 Y. Shao et al., Mol. Phys. 113, 184-215 (2015)
 DOI: 10.1080/00268976.2014.952696

 Q-Chem 5.4.0 for Intel X86 EM64T Linux

 Parts of Q-Chem use Armadillo 9.800.1 (Horizon Scraper).
 http://arma.sourceforge.net/

 Q-Chem begins on Sat Feb  3 12:51:45 2024  

 Host: 
0

     Scratch files written to /expanse/lustre/scratch/selhajj/temp_project/qcscratch/28446388/qchem136363//
 May1621 |scratch|qcdevops|jenkins|workspace|build_RNUM    
 Processing $rem in /cm/shared/apps/spack/cpu/opt/spack/linux-centos8-zen2/gcc-10.2.0/qchem-5.4-akfmr7b3t57bfs6qan3padb2wnb2i7cl/config/preferences:
 Processing $rem in /home/selhajj/.qchemrc:
 Symmetry turned off for PCM/SM12/SMD calculation
 Method-specific promolecule density matrix will be built for SM12 calculation

 Checking the input file for inconsistencies... 	...done.

--------------------------------------------------------------
User input:
--------------------------------------------------------------
$molecule
-1 2
C                  5.4100280000     -3.7686130000     -2.5262720000
O                  4.6033830000     -2.8502750000     -1.8213220000
C                  5.1728310000     -2.0799700000     -0.8505810000
C                  6.5208180000     -2.1786790000     -0.5359010000
C                  7.0795900000     -1.3693670000      0.4710650000
C                  6.2933780000     -0.4712230000      1.1530080000
C                  4.9203830000     -0.3480480000      0.8574720000
C                  4.1642530000      0.6492160000      1.6447320000
O                  4.7570220000      1.3305280000      2.5040890000
C                  2.7332220000      0.7763840000      1.3530930000
C                  1.8995720000      1.6979650000      2.0421130000
O                  2.4598550000      2.5004700000      3.0105660000
C                  0.5426700000      1.8181540000      1.7421450000
C                 -0.2858550000      2.9053710000      2.3977830000
C                 -1.4593210000      3.3251200000      1.5151340000
O                 -2.2047810000      4.3108290000      2.2648330000
C                 -2.3119380000      2.1004670000      1.2140680000
C                 -1.5402950000      0.9929240000      0.4810120000
O                 -2.1561470000     -0.2689680000      0.8782990000
C                 -2.7511250000     -1.0039050000     -0.1280540000
C                 -2.9430730000     -2.4369970000      0.3502070000
C                 -3.7600910000     -3.2688010000     -0.6637360000
N                 -3.0235210000     -3.6689020000     -1.8770290000
C                 -5.0408140000     -2.5025830000     -1.0648470000
O                 -5.9625100000     -2.4503480000      0.0275210000
C                 -4.6840840000     -1.0815140000     -1.5302690000
C                 -5.8781830000     -0.2448060000     -1.9628500000
O                 -4.0407230000     -0.4098730000     -0.4387620000
C                 -0.0581140000      0.9659300000      0.7838920000
C                  0.7417510000      0.0695680000      0.0736260000
O                  0.1713960000     -0.6943760000     -0.8753410000
C                  2.1426840000     -0.0401170000      0.3378630000
C                  2.9079220000     -1.0065410000     -0.4371920000
O                  2.3144960000     -1.7018840000     -1.3388630000
C                  4.3237700000     -1.1527320000     -0.1555370000
C                 -1.0427880000      4.0690100000      0.2238130000
O                 -1.7604890000      4.0583350000     -0.7588820000
C                  0.2117450000      4.9231150000      0.2101180000
O                  0.2909640000      5.6997560000     -0.9628430000
H                  4.7441970000     -4.2570110000     -3.2381290000
H                  5.8461890000     -4.5260370000     -1.8620680000
H                  6.2189140000     -3.2680830000     -3.0741120000
H                  7.1558360000     -2.8781780000     -1.0618050000
H                  8.1364800000     -1.4625990000      0.7007520000
H                  6.6919710000      0.1670280000      1.9306240000
H                  1.7523560000      2.8843600000      3.5356420000
H                  0.3238790000      3.7873480000      2.6196460000
H                 -0.7213550000      2.5831310000      3.3533090000
H                 -3.0423840000      4.4539820000      1.8078980000
H                 -3.1957250000      2.3715280000      0.6318740000
H                 -2.6502780000      1.7012350000      2.1736900000
H                 -1.6800100000      1.0981440000     -0.5979920000
H                 -2.1412970000     -0.9608190000     -1.0387480000
H                 -1.9624500000     -2.8904040000      0.5148080000
H                 -3.4554850000     -2.4020560000      1.3175660000
H                 -4.0909670000     -4.1916550000     -0.1796690000
H                 -2.4734060000     -2.9000250000     -2.2482170000
H                 -2.3558310000     -4.3983350000     -1.6485790000
H                 -5.5379000000     -3.0528440000     -1.8665750000
H                 -5.6558800000     -1.7481140000      0.6161090000
H                 -3.9805080000     -1.1566490000     -2.3734910000
H                 -6.3741260000     -0.7095020000     -2.8198000000
H                 -5.5471930000      0.7554880000     -2.2500240000
H                 -6.6050820000     -0.1549410000     -1.1536430000
H                  0.9749980000     -1.2501090000     -1.2483670000
H                  0.2055690000      5.5769270000      1.0901880000
H                  1.0802770000      4.2560770000      0.3015240000
H                 -0.4186710000      5.3774970000     -1.5405870000
$end

$rem
BASIS  =  6-311++G(d,p)
GUI  =  2
JOB_TYPE  =  SP
METHOD  =  B3LYP
SCF_CONVERGENCE  = 8
SOLVENT_METHOD = sm12
$end

$smx
solvent dimethylformamide
charges CM5
$end





--------------------------------------------------------------
 ----------------------------------------------------------------
             Standard Nuclear Orientation (Angstroms)
    I     Atom           X                Y                Z
 ----------------------------------------------------------------
    1      C       5.4100280000    -3.7686130000    -2.5262720000
    2      O       4.6033830000    -2.8502750000    -1.8213220000
    3      C       5.1728310000    -2.0799700000    -0.8505810000
    4      C       6.5208180000    -2.1786790000    -0.5359010000
    5      C       7.0795900000    -1.3693670000     0.4710650000
    6      C       6.2933780000    -0.4712230000     1.1530080000
    7      C       4.9203830000    -0.3480480000     0.8574720000
    8      C       4.1642530000     0.6492160000     1.6447320000
    9      O       4.7570220000     1.3305280000     2.5040890000
   10      C       2.7332220000     0.7763840000     1.3530930000
   11      C       1.8995720000     1.6979650000     2.0421130000
   12      O       2.4598550000     2.5004700000     3.0105660000
   13      C       0.5426700000     1.8181540000     1.7421450000
   14      C      -0.2858550000     2.9053710000     2.3977830000
   15      C      -1.4593210000     3.3251200000     1.5151340000
   16      O      -2.2047810000     4.3108290000     2.2648330000
   17      C      -2.3119380000     2.1004670000     1.2140680000
   18      C      -1.5402950000     0.9929240000     0.4810120000
   19      O      -2.1561470000    -0.2689680000     0.8782990000
   20      C      -2.7511250000    -1.0039050000    -0.1280540000
   21      C      -2.9430730000    -2.4369970000     0.3502070000
   22      C      -3.7600910000    -3.2688010000    -0.6637360000
   23      N      -3.0235210000    -3.6689020000    -1.8770290000
   24      C      -5.0408140000    -2.5025830000    -1.0648470000
   25      O      -5.9625100000    -2.4503480000     0.0275210000
   26      C      -4.6840840000    -1.0815140000    -1.5302690000
   27      C      -5.8781830000    -0.2448060000    -1.9628500000
   28      O      -4.0407230000    -0.4098730000    -0.4387620000
   29      C      -0.0581140000     0.9659300000     0.7838920000
   30      C       0.7417510000     0.0695680000     0.0736260000
   31      O       0.1713960000    -0.6943760000    -0.8753410000
   32      C       2.1426840000    -0.0401170000     0.3378630000
   33      C       2.9079220000    -1.0065410000    -0.4371920000
   34      O       2.3144960000    -1.7018840000    -1.3388630000
   35      C       4.3237700000    -1.1527320000    -0.1555370000
   36      C      -1.0427880000     4.0690100000     0.2238130000
   37      O      -1.7604890000     4.0583350000    -0.7588820000
   38      C       0.2117450000     4.9231150000     0.2101180000
   39      O       0.2909640000     5.6997560000    -0.9628430000
   40      H       4.7441970000    -4.2570110000    -3.2381290000
   41      H       5.8461890000    -4.5260370000    -1.8620680000
   42      H       6.2189140000    -3.2680830000    -3.0741120000
   43      H       7.1558360000    -2.8781780000    -1.0618050000
   44      H       8.1364800000    -1.4625990000     0.7007520000
   45      H       6.6919710000     0.1670280000     1.9306240000
   46      H       1.7523560000     2.8843600000     3.5356420000
   47      H       0.3238790000     3.7873480000     2.6196460000
   48      H      -0.7213550000     2.5831310000     3.3533090000
   49      H      -3.0423840000     4.4539820000     1.8078980000
   50      H      -3.1957250000     2.3715280000     0.6318740000
   51      H      -2.6502780000     1.7012350000     2.1736900000
   52      H      -1.6800100000     1.0981440000    -0.5979920000
   53      H      -2.1412970000    -0.9608190000    -1.0387480000
   54      H      -1.9624500000    -2.8904040000     0.5148080000
   55      H      -3.4554850000    -2.4020560000     1.3175660000
   56      H      -4.0909670000    -4.1916550000    -0.1796690000
   57      H      -2.4734060000    -2.9000250000    -2.2482170000
   58      H      -2.3558310000    -4.3983350000    -1.6485790000
   59      H      -5.5379000000    -3.0528440000    -1.8665750000
   60      H      -5.6558800000    -1.7481140000     0.6161090000
   61      H      -3.9805080000    -1.1566490000    -2.3734910000
   62      H      -6.3741260000    -0.7095020000    -2.8198000000
   63      H      -5.5471930000     0.7554880000    -2.2500240000
   64      H      -6.6050820000    -0.1549410000    -1.1536430000
   65      H       0.9749980000    -1.2501090000    -1.2483670000
   66      H       0.2055690000     5.5769270000     1.0901880000
   67      H       1.0802770000     4.2560770000     0.3015240000
   68      H      -0.4186710000     5.3774970000    -1.5405870000
 ----------------------------------------------------------------
 Nuclear Repulsion Energy =        4632.36906908 hartrees
 There are      144 alpha and      143 beta electrons
 Requested basis set is 6-311++G(d,p)
 There are 379 shells and 1061 basis functions

 Total QAlloc Memory Limit   8000 MB
 Mega-Array Size       188 MB
 MEM_STATIC part       192 MB
 A cutoff of  1.0D-11 yielded  42948 shell pairs
 There are    335735 function pairs (    356153 Cartesian)
 Smallest overlap matrix eigenvalue = 7.98E-09

 Q-Chem warning in module stvman/mkSTV.C, line 323:

 Overlap eigenvalue is smaller than square root of threshold
 Use THRESH >= 12 to get rid of this warning

 Linear dependence detected in AO basis
 Tighter screening thresholds may be required for diffuse basis sets
 Use S2THRESH > 14 and THRESH = 14 in case of SCF convergence issues
 Number of orthogonalized atomic orbitals = 1048
 Maximum deviation from orthogonality = 1.764E-10

 Scale SEOQF with 1.000000e-02/1.000000e-02/1.000000e-01

 Standard Electronic Orientation quadrupole field applied
 Nucleus-field energy     =    -0.0000000372 hartrees
 ================ Generating on-the-fly Promolecule Density  ================
Attempting to make child job directory: /expanse/lustre/scratch/selhajj/temp_project/qcscratch/28446388/qchem136363//Frg1/
Attempting to make child job directory: /expanse/lustre/scratch/selhajj/temp_project/qcscratch/28446388/qchem136363//Frg2/
Attempting to make child job directory: /expanse/lustre/scratch/selhajj/temp_project/qcscratch/28446388/qchem136363//Frg3/
Attempting to make child job directory: /expanse/lustre/scratch/selhajj/temp_project/qcscratch/28446388/qchem136363//Frg4/
Creating input file /expanse/lustre/scratch/selhajj/temp_project/qcscratch/28446388/qchem136363/Frg1.input
using default PutDataFrgm: nothing
calling putenv with: QCSCRATCH=/expanse/lustre/scratch/selhajj/temp_project/qcscratch/28446388/qchem136363/ 
Spawning Job For Fragment 0
Done Job For Fragment 0
calling putenv with: QCSCRATCH=/expanse/lustre/scratch/selhajj/temp_project/qcscratch/28446388 
calling putenv with: QCTHREADS=8 
Creating input file /expanse/lustre/scratch/selhajj/temp_project/qcscratch/28446388/qchem136363/Frg2.input
using default PutDataFrgm: nothing
calling putenv with: QCSCRATCH=/expanse/lustre/scratch/selhajj/temp_project/qcscratch/28446388/qchem136363/ 
Spawning Job For Fragment 1
Done Job For Fragment 1
calling putenv with: QCSCRATCH=/expanse/lustre/scratch/selhajj/temp_project/qcscratch/28446388 
calling putenv with: QCTHREADS=8 
Creating input file /expanse/lustre/scratch/selhajj/temp_project/qcscratch/28446388/qchem136363/Frg3.input
using default PutDataFrgm: nothing
calling putenv with: QCSCRATCH=/expanse/lustre/scratch/selhajj/temp_project/qcscratch/28446388/qchem136363/ 
Spawning Job For Fragment 2
Done Job For Fragment 2
calling putenv with: QCSCRATCH=/expanse/lustre/scratch/selhajj/temp_project/qcscratch/28446388 
calling putenv with: QCTHREADS=8 
Creating input file /expanse/lustre/scratch/selhajj/temp_project/qcscratch/28446388/qchem136363/Frg4.input
using default PutDataFrgm: nothing
calling putenv with: QCSCRATCH=/expanse/lustre/scratch/selhajj/temp_project/qcscratch/28446388/qchem136363/ 
Spawning Job For Fragment 3
Done Job For Fragment 3
calling putenv with: QCSCRATCH=/expanse/lustre/scratch/selhajj/temp_project/qcscratch/28446388 
calling putenv with: QCTHREADS=8 
 Time for running child jobs:  CPU 0.01 s  wall 5.89 s
 ============= Method Specific Promolecule Density Constructed =============
 Guess from superposition of atomic densities
 Warning:  Energy on first SCF cycle will be non-variational
 SAD guess density has 286.000000 electrons

 -----------------------------------------------------------------------
  General SCF calculation program by
  Eric Jon Sundstrom, Paul Horn, Yuezhi Mao, Dmitri Zuev, Alec White,
  David Stuck, Shaama M.S., Shane Yost, Joonho Lee, David Small,
  Daniel Levine, Susi Lehtola, Hugh Burton, Evgeny Epifanovsky,
  Bang C. Huynh
 -----------------------------------------------------------------------
 Exchange:     0.2000 Hartree-Fock + 0.0800 Slater + 0.7200 B88
 Correlation:  0.1900 VWN1RPA + 0.8100 LYP
 Using SG-1 standard quadrature grid
 using 8 threads for integral computing
 -------------------------------------------------------
 OpenMP Integral computing Module                
 Release: version 1.0, May 2013, Q-Chem Inc. Pittsburgh 
 -------------------------------------------------------
 
 SM12 calculation using CM5 charges
 Citation of the SM12 model:
 Marenich, A.V.; Cramer, C.J.; Truhlar, D.G.
 J. Chem. Theory Comput. 2013, 9, 609-612.
 iSolventCode=          91
 Solvent: dimethylformamide                                               
 
Hirshfeld: reading atomic densities from disk.
warning:  vdwdata pointer should have been initialzed before dftman
 Inaccurate integrated density:
   Number of electrons =   287
   Numerical integral  =   285.998907456547
   Relative error      =    -0.3488127329 %

 Charges (in A.U.) from CM5PAC (Nov. 11, 2011)
 -----------------------------------------------
 Center     Atomic      CM5         Hirshfeld
 Number     Number      Charge      Charge
 -----------------------------------------------
    1          6       -0.118127    0.002776
    2          8       -0.114688   -0.026960
    3          6        0.027231    0.007314
    4          6       -0.051882    0.000097
    5          6       -0.057831   -0.002700
    6          6       -0.051839   -0.000291
    7          6       -0.001511   -0.000008
    8          6        0.040773    0.008023
    9          8       -0.060093   -0.015031
   10          6        0.006080    0.002526
   11          6        0.024224    0.007317
   12          8       -0.223103   -0.022434
   13          6       -0.007050    0.000142
   14          6       -0.098155   -0.002293
   15          6        0.000629   -0.000444
   16          8       -0.228504   -0.024304
   17          6       -0.096147    0.000138
   18          6       -0.032110    0.002754
   19          8       -0.110785   -0.025345
   20          6       -0.006324    0.007248
   21          6       -0.095573    0.000223
   22          6       -0.013425   -0.001336
   23          7       -0.470089   -0.019585
   24          6       -0.033614    0.002191
   25          8       -0.233832   -0.023478
   26          6       -0.039445    0.000455
   27          6       -0.147658   -0.002966
   28          8       -0.111011   -0.024612
   29          6        0.002091    0.003285
   30          6        0.028023    0.008562
   31          8       -0.199607   -0.022792
   32          6        0.004384    0.002613
   33          6        0.036964    0.009039
   34          8       -0.107605   -0.017335
   35          6        0.005984    0.002510
   36          6        0.036331    0.009369
   37          8       -0.076969   -0.016982
   38          6       -0.070776    0.005627
   39          8       -0.232319   -0.023374
   40          1        0.065629    0.004788
   41          1        0.062983    0.004182
   42          1        0.063017    0.004200
   43          1        0.063022    0.002753
   44          1        0.058738    0.003070
   45          1        0.068688    0.005701
   46          1        0.188107    0.010362
   47          1        0.067738    0.004168
   48          1        0.065237    0.005312
   49          1        0.187384    0.012443
   50          1        0.069160    0.006374
   51          1        0.070697    0.006549
   52          1        0.082580    0.007727
   53          1        0.090810    0.007281
   54          1        0.066016    0.005469
   55          1        0.068284    0.005812
   56          1        0.076983    0.005718
   57          1        0.195509    0.007001
   58          1        0.194085    0.007366
   59          1        0.077430    0.006487
   60          1        0.192277    0.012404
   61          1        0.074748    0.005153
   62          1        0.055212    0.002892
   63          1        0.057678    0.003699
   64          1        0.061285    0.004714
   65          1        0.215164    0.012273
   66          1        0.070976    0.006150
   67          1        0.071369    0.006840
   68          1        0.197646    0.014263
 -----------------------------------------------

 Dipole moment (in Debye)
 -----------------------------------------------
                 X        Y        Z     Total
 -----------------------------------------------
 CM5          1.0489  -0.4292  -0.2137   1.1533
 Hirshfeld    0.2134  -0.1158  -0.0357   0.2454
 -----------------------------------------------

 A unrestricted SCF calculation will be
 performed using DIIS
 SCF converges when DIIS error is below 1.0e-08
 ---------------------------------------
  Cycle       Energy         DIIS error
 ---------------------------------------
Hirshfeld: reading atomic densities from disk.

 Charges (in A.U.) from CM5PAC (Nov. 11, 2011)
 -----------------------------------------------
 Center     Atomic      CM5         Hirshfeld
 Number     Number      Charge      Charge
 -----------------------------------------------
    1          6       -0.207415   -0.086512
    2          8       -0.258240   -0.170512
    3          6        0.225984    0.206067
    4          6       -0.242589   -0.190610
    5          6       -0.188876   -0.133745
    6          6       -0.245007   -0.193458
    7          6       -0.089162   -0.087659
    8          6        0.236395    0.203644
    9          8       -0.658323   -0.613261
   10          6       -0.105841   -0.109395
   11          6        0.188789    0.171882
   12          8       -0.495631   -0.294963
   13          6       -0.047478   -0.040286
   14          6       -0.263894   -0.168032
   15          6        0.185079    0.184005
   16          8       -0.557946   -0.353746
   17          6       -0.318003   -0.221719
   18          6        0.069641    0.104504
   19          8       -0.333649   -0.248209
   20          6        0.207881    0.221454
   21          6       -0.330655   -0.234859
   22          6       -0.025954   -0.013865
   23          7       -0.852448   -0.401945
   24          6        0.004843    0.040647
   25          8       -0.601819   -0.391465
   26          6        0.020093    0.059994
   27          6       -0.453350   -0.308658
   28          8       -0.362935   -0.276536
   29          6       -0.092762   -0.091568
   30          6        0.190393    0.170931
   31          8       -0.495733   -0.318918
   32          6       -0.109482   -0.111254
   33          6        0.241285    0.213360
   34          8       -0.572064   -0.481793
   35          6       -0.090533   -0.094006
   36          6        0.406745    0.379783
   37          8       -0.489514   -0.429527
   38          6       -0.084551   -0.008148
   39          8       -0.618654   -0.409709
   40          1        0.153425    0.092584
   41          1        0.149990    0.091189
   42          1        0.149901    0.091084
   43          1        0.173469    0.113200
   44          1        0.178929    0.123261
   45          1        0.160889    0.097902
   46          1        0.428658    0.250914
   47          1        0.168800    0.105229
   48          1        0.165085    0.105160
   49          1        0.425862    0.250921
   50          1        0.153459    0.090673
   51          1        0.154495    0.090348
   52          1        0.152684    0.077831
   53          1        0.141516    0.057987
   54          1        0.157329    0.096783
   55          1        0.154541    0.092069
   56          1        0.155402    0.084137
   57          1        0.363290    0.174781
   58          1        0.370922    0.184203
   59          1        0.148717    0.077774
   60          1        0.412517    0.232645
   61          1        0.155410    0.085814
   62          1        0.156908    0.104588
   63          1        0.153451    0.099471
   64          1        0.145203    0.088632
   65          1        0.363393    0.160501
   66          1        0.162154    0.097328
   67          1        0.158757    0.094228
   68          1        0.400311    0.216929
 -----------------------------------------------

 Dipole moment (in Debye)
 -----------------------------------------------
                 X        Y        Z     Total
 -----------------------------------------------
 CM5        -11.7867  -2.4297  -3.4540  12.5204
 Hirshfeld  -12.6222  -2.1164  -3.2761  13.2110
 -----------------------------------------------

    1   -1937.9355768162      1.01e-02  
Hirshfeld: reading atomic densities from disk.

 Charges (in A.U.) from CM5PAC (Nov. 11, 2011)
 -----------------------------------------------
 Center     Atomic      CM5         Hirshfeld
 Number     Number      Charge      Charge
 -----------------------------------------------
    1          6       -0.020936    0.099967
    2          8       -0.149894   -0.062166
    3          6       -0.141076   -0.160993
    4          6       -0.015411    0.036568
    5          6       -0.017036    0.038096
    6          6        0.030613    0.082161
    7          6       -0.012501   -0.010998
    8          6       -0.198751   -0.231501
    9          8        0.292061    0.337122
   10          6       -0.045897   -0.049450
   11          6       -0.144735   -0.161642
   12          8       -0.195129    0.005539
   13          6       -0.082948   -0.075756
   14          6       -0.030020    0.065843
   15          6       -0.114991   -0.116065
   16          8       -0.170833    0.033367
   17          6        0.016045    0.112329
   18          6       -0.060254   -0.025391
   19          8       -0.075840    0.009600
   20          6       -0.088673   -0.075100
   21          6        0.010540    0.106337
   22          6        0.020305    0.032394
   23          7       -0.361232    0.089272
   24          6       -0.036108   -0.000303
   25          8       -0.204844    0.005510
   26          6       -0.030357    0.009543
   27          6        0.018208    0.162900
   28          8       -0.085060    0.001339
   29          6       -0.029071   -0.027877
   30          6       -0.114133   -0.133595
   31          8       -0.209750   -0.032935
   32          6       -0.071634   -0.073405
   33          6       -0.216995   -0.244920
   34          8        0.013781    0.104051
   35          6       -0.069643   -0.073116
   36          6       -0.278079   -0.305041
   37          8        0.184662    0.244650
   38          6       -0.111860   -0.035457
   39          8       -0.187135    0.021810
   40          1        0.068608    0.007767
   41          1        0.041669   -0.017133
   42          1        0.042093   -0.016724
   43          1        0.016232   -0.044036
   44          1       -0.011506   -0.067174
   45          1       -0.038339   -0.101326
   46          1        0.207520    0.029775
   47          1        0.032504   -0.031067
   48          1        0.050860   -0.009065
   49          1        0.220762    0.045821
   50          1        0.029407   -0.033379
   51          1        0.044867   -0.019281
   52          1        0.051068   -0.023785
   53          1        0.045518   -0.038011
   54          1        0.019583   -0.040963
   55          1        0.012571   -0.049901
   56          1        0.034534   -0.036730
   57          1        0.171274   -0.017234
   58          1        0.173963   -0.012756
   59          1        0.034703   -0.036240
   60          1        0.186644    0.006771
   61          1        0.031617   -0.037979
   62          1        0.008143   -0.044177
   63          1        0.005521   -0.048458
   64          1        0.004631   -0.051940
   65          1        0.199463   -0.003429
   66          1        0.057475   -0.007351
   67          1        0.057306   -0.007223
   68          1        0.184623    0.001241
 -----------------------------------------------

 Dipole moment (in Debye)
 -----------------------------------------------
                 X        Y        Z     Total
 -----------------------------------------------
 CM5         -9.4875   0.1146  -1.2757   9.5736
 Hirshfeld  -10.3230   0.4280  -1.0977  10.3900
 -----------------------------------------------

    2   -1928.3942449645      1.26e-03  
Hirshfeld: reading atomic densities from disk.

 Charges (in A.U.) from CM5PAC (Nov. 11, 2011)
 -----------------------------------------------
 Center     Atomic      CM5         Hirshfeld
 Number     Number      Charge      Charge
 -----------------------------------------------
    1          6       -0.090367    0.030536
    2          8       -0.205316   -0.117587
    3          6        0.105579    0.085662
    4          6       -0.125748   -0.073769
    5          6       -0.118627   -0.063496
    6          6       -0.123819   -0.072271
    7          6       -0.019382   -0.017878
    8          6        0.142496    0.109746
    9          8       -0.618279   -0.573217
   10          6        0.004866    0.001312
   11          6        0.087006    0.070099
   12          8       -0.412390   -0.211721
   13          6        0.005404    0.012596
   14          6       -0.110495   -0.014633
   15          6        0.113261    0.112188
   16          8       -0.436365   -0.232165
   17          6       -0.121721   -0.025436
   18          6        0.031370    0.066233
   19          8       -0.256164   -0.170724
   20          6        0.099371    0.112943
   21          6       -0.125001   -0.029204
   22          6        0.013298    0.025387
   23          7       -0.659810   -0.209306
   24          6        0.018465    0.054270
   25          8       -0.465964   -0.255610
   26          6        0.012208    0.052108
   27          6       -0.187816   -0.043124
   28          8       -0.284931   -0.198532
   29          6       -0.001693   -0.000499
   30          6        0.098905    0.079444
   31          8       -0.405568   -0.228753
   32          6        0.004125    0.002354
   33          6        0.150300    0.122375
   34          8       -0.460547   -0.370277
   35          6        0.011647    0.008173
   36          6        0.302361    0.275399
   37          8       -0.428247   -0.368260
   38          6       -0.006395    0.070007
   39          8       -0.483278   -0.274333
   40          1        0.099194    0.038353
   41          1        0.082539    0.023737
   42          1        0.082815    0.023999
   43          1        0.072681    0.012413
   44          1        0.072225    0.016557
   45          1        0.068376    0.005389
   46          1        0.314197    0.136452
   47          1        0.084055    0.020484
   48          1        0.078385    0.018460
   49          1        0.321409    0.146468
   50          1        0.076544    0.013758
   51          1        0.079128    0.014980
   52          1        0.090526    0.015673
   53          1        0.094240    0.010711
   54          1        0.085157    0.024610
   55          1        0.077543    0.015071
   56          1        0.094475    0.023211
   57          1        0.273779    0.085270
   58          1        0.283392    0.096673
   59          1        0.095554    0.024611
   60          1        0.310549    0.130677
   61          1        0.092342    0.022747
   62          1        0.077554    0.025234
   63          1        0.075502    0.021523
   64          1        0.071819    0.015247
   65          1        0.279960    0.077068
   66          1        0.103274    0.038448
   67          1        0.103218    0.038689
   68          1        0.306173    0.122790
 -----------------------------------------------

 Dipole moment (in Debye)
 -----------------------------------------------
                 X        Y        Z     Total
 -----------------------------------------------
 CM5        -11.9901  -3.0161  -3.5648  12.8673
 Hirshfeld  -12.8257  -2.7028  -3.3869  13.5379
 -----------------------------------------------

    3   -1927.6130974281      1.89e-03  
Hirshfeld: reading atomic densities from disk.

 Charges (in A.U.) from CM5PAC (Nov. 11, 2011)
 -----------------------------------------------
 Center     Atomic      CM5         Hirshfeld
 Number     Number      Charge      Charge
 -----------------------------------------------
    1          6       -0.112098    0.008805
    2          8       -0.214670   -0.126942
    3          6        0.101258    0.081341
    4          6       -0.143856   -0.091877
    5          6       -0.118841   -0.063710
    6          6       -0.132166   -0.080618
    7          6       -0.062060   -0.060557
    8          6        0.092040    0.059290
    9          8       -0.331156   -0.286094
   10          6       -0.071743   -0.075296
   11          6        0.082443    0.065536
   12          8       -0.384180   -0.183511
   13          6       -0.056188   -0.048996
   14          6       -0.155088   -0.059225
   15          6        0.080895    0.079822
   16          8       -0.425641   -0.221441
   17          6       -0.166456   -0.070172
   18          6        0.027646    0.062510
   19          8       -0.249598   -0.164159
   20          6        0.110428    0.124000
   21          6       -0.171660   -0.075864
   22          6        0.004377    0.016466
   23          7       -0.678119   -0.227615
   24          6        0.007331    0.043136
   25          8       -0.464847   -0.254494
   26          6        0.009266    0.049166
   27          6       -0.244789   -0.100097
   28          8       -0.273361   -0.186963
   29          6       -0.064982   -0.063788
   30          6        0.088649    0.069187
   31          8       -0.392568   -0.215753
   32          6       -0.079196   -0.080967
   33          6        0.089024    0.061100
   34          8       -0.362760   -0.272489
   35          6       -0.068320   -0.071794
   36          6        0.175151    0.148189
   37          8       -0.263422   -0.203434
   38          6       -0.061273    0.015130
   39          8       -0.469977   -0.261032
   40          1        0.111068    0.050227
   41          1        0.096432    0.037630
   42          1        0.096631    0.037814
   43          1        0.094854    0.034585
   44          1        0.092614    0.036946
   45          1        0.085473    0.022487
   46          1        0.326295    0.148551
   47          1        0.104679    0.041108
   48          1        0.104979    0.045054
   49          1        0.335544    0.160603
   50          1        0.098044    0.035258
   51          1        0.099696    0.035548
   52          1        0.105086    0.030234
   53          1        0.102191    0.018662
   54          1        0.097598    0.037052
   55          1        0.092051    0.029579
   56          1        0.104143    0.032879
   57          1        0.284610    0.096101
   58          1        0.293683    0.106964
   59          1        0.102747    0.031804
   60          1        0.319214    0.139342
   61          1        0.099814    0.030218
   62          1        0.091791    0.039471
   63          1        0.091210    0.037230
   64          1        0.086990    0.030419
   65          1        0.293505    0.090614
   66          1        0.115838    0.051012
   67          1        0.110928    0.046399
   68          1        0.312347    0.128964
 -----------------------------------------------

 Dipole moment (in Debye)
 -----------------------------------------------
                 X        Y        Z     Total
 -----------------------------------------------
 CM5        -10.2267  -1.9880  -2.7632  10.7784
 Hirshfeld  -11.0623  -1.6747  -2.5852  11.4831
 -----------------------------------------------

    4   -1929.0534597206      4.31e-04  
Hirshfeld: reading atomic densities from disk.

 Charges (in A.U.) from CM5PAC (Nov. 11, 2011)
 -----------------------------------------------
 Center     Atomic      CM5         Hirshfeld
 Number     Number      Charge      Charge
 -----------------------------------------------
    1          6       -0.114221    0.006682
    2          8       -0.211338   -0.123610
    3          6        0.082866    0.062949
    4          6       -0.142002   -0.090023
    5          6       -0.115296   -0.060165
    6          6       -0.123675   -0.072127
    7          6       -0.040161   -0.038658
    8          6        0.096921    0.064170
    9          8       -0.405061   -0.360000
   10          6       -0.053499   -0.057053
   11          6        0.059431    0.042524
   12          8       -0.383985   -0.183316
   13          6       -0.037316   -0.030124
   14          6       -0.146339   -0.050476
   15          6        0.081048    0.079974
   16          8       -0.407821   -0.203621
   17          6       -0.159296   -0.063012
   18          6        0.024408    0.059271
   19          8       -0.238657   -0.153217
   20          6        0.091976    0.105549
   21          6       -0.168006   -0.072210
   22          6        0.002015    0.014104
   23          7       -0.652893   -0.202389
   24          6       -0.000173    0.035632
   25          8       -0.443838   -0.233485
   26          6        0.006155    0.046056
   27          6       -0.235616   -0.090924
   28          8       -0.259825   -0.173426
   29          6       -0.043727   -0.042533
   30          6        0.074635    0.055173
   31          8       -0.387933   -0.211118
   32          6       -0.061591   -0.063362
   33          6        0.086888    0.058963
   34          8       -0.368459   -0.278189
   35          6       -0.051112   -0.054586
   36          6        0.184909    0.157947
   37          8       -0.294862   -0.234874
   38          6       -0.062834    0.013569
   39          8       -0.449960   -0.241014
   40          1        0.111267    0.050426
   41          1        0.096593    0.037792
   42          1        0.096806    0.037990
   43          1        0.094554    0.034285
   44          1        0.091011    0.035344
   45          1        0.084794    0.021807
   46          1        0.326487    0.148742
   47          1        0.100624    0.037053
   48          1        0.102465    0.042540
   49          1        0.328679    0.153737
   50          1        0.093816    0.031030
   51          1        0.098032    0.033884
   52          1        0.102487    0.027635
   53          1        0.100172    0.016643
   54          1        0.094900    0.034354
   55          1        0.089718    0.027247
   56          1        0.100493    0.029228
   57          1        0.277828    0.089320
   58          1        0.285551    0.098832
   59          1        0.098895    0.027953
   60          1        0.312377    0.132505
   61          1        0.096685    0.027089
   62          1        0.088501    0.036181
   63          1        0.087783    0.033804
   64          1        0.084154    0.027582
   65          1        0.292318    0.089427
   66          1        0.112931    0.048104
   67          1        0.110842    0.046313
   68          1        0.307003    0.123620
 -----------------------------------------------

 Dipole moment (in Debye)
 -----------------------------------------------
                 X        Y        Z     Total
 -----------------------------------------------
 CM5        -10.8675  -2.1824  -2.9615  11.4733
 Hirshfeld  -11.7031  -1.8691  -2.7835  12.1739
 -----------------------------------------------

    5   -1929.1364608965      1.22e-04  
Hirshfeld: reading atomic densities from disk.

 Charges (in A.U.) from CM5PAC (Nov. 11, 2011)
 -----------------------------------------------
 Center     Atomic      CM5         Hirshfeld
 Number     Number      Charge      Charge
 -----------------------------------------------
    1          6       -0.110465    0.010438
    2          8       -0.210422   -0.122694
    3          6        0.090556    0.070640
    4          6       -0.139522   -0.087543
    5          6       -0.117077   -0.061946
    6          6       -0.127730   -0.076182
    7          6       -0.048272   -0.046769
    8          6        0.092185    0.059435
    9          8       -0.382716   -0.337654
   10          6       -0.050480   -0.054033
   11          6        0.069806    0.052899
   12          8       -0.385653   -0.184984
   13          6       -0.041538   -0.034346
   14          6       -0.144370   -0.048507
   15          6        0.083802    0.082729
   16          8       -0.418806   -0.214606
   17          6       -0.154758   -0.058474
   18          6        0.024618    0.059481
   19          8       -0.244216   -0.158776
   20          6        0.097938    0.111510
   21          6       -0.160809   -0.065012
   22          6        0.005233    0.017322
   23          7       -0.660302   -0.209798
   24          6        0.005702    0.041507
   25          8       -0.454148   -0.243795
   26          6        0.008394    0.048294
   27          6       -0.229224   -0.084532
   28          8       -0.268602   -0.182203
   29          6       -0.048608   -0.047414
   30          6        0.079692    0.060230
   31          8       -0.391521   -0.214706
   32          6       -0.058182   -0.059953
   33          6        0.090661    0.062736
   34          8       -0.377626   -0.287355
   35          6       -0.049137   -0.052610
   36          6        0.190552    0.163590
   37          8       -0.292829   -0.232841
   38          6       -0.054777    0.021626
   39          8       -0.461814   -0.252869
   40          1        0.109356    0.048515
   41          1        0.094609    0.035808
   42          1        0.094829    0.036013
   43          1        0.091844    0.031575
   44          1        0.089169    0.033501
   45          1        0.082622    0.019636
   46          1        0.323763    0.146019
   47          1        0.099597    0.036026
   48          1        0.100050    0.040125
   49          1        0.330603    0.155661
   50          1        0.092611    0.029825
   51          1        0.096135    0.031987
   52          1        0.101902    0.027049
   53          1        0.099668    0.016139
   54          1        0.093743    0.033197
   55          1        0.088258    0.025786
   56          1        0.099943    0.028679
   57          1        0.279142    0.090633
   58          1        0.286950    0.100231
   59          1        0.099000    0.028057
   60          1        0.314780    0.134907
   61          1        0.096947    0.027351
   62          1        0.087446    0.035126
   63          1        0.086375    0.032396
   64          1        0.082657    0.026085
   65          1        0.290933    0.088042
   66          1        0.111846    0.047019
   67          1        0.110163    0.045635
   68          1        0.309032    0.125649
 -----------------------------------------------

 Dipole moment (in Debye)
 -----------------------------------------------
                 X        Y        Z     Total
 -----------------------------------------------
 CM5        -10.6267  -2.1213  -2.8480  11.2044
 Hirshfeld  -11.4622  -1.8080  -2.6700  11.9072
 -----------------------------------------------

    6   -1929.1416487582      4.65e-05  
Hirshfeld: reading atomic densities from disk.

 Charges (in A.U.) from CM5PAC (Nov. 11, 2011)
 -----------------------------------------------
 Center     Atomic      CM5         Hirshfeld
 Number     Number      Charge      Charge
 -----------------------------------------------
    1          6       -0.110500    0.010403
    2          8       -0.211831   -0.124103
    3          6        0.090307    0.070391
    4          6       -0.140420   -0.088440
    5          6       -0.116409   -0.061278
    6          6       -0.125833   -0.074284
    7          6       -0.046328   -0.044825
    8          6        0.097153    0.064403
    9          8       -0.389109   -0.344047
   10          6       -0.053787   -0.057341
   11          6        0.069314    0.052407
   12          8       -0.386144   -0.185475
   13          6       -0.041987   -0.034795
   14          6       -0.145462   -0.049599
   15          6        0.082310    0.081237
   16          8       -0.416275   -0.212075
   17          6       -0.156930   -0.060645
   18          6        0.025254    0.060118
   19          8       -0.243307   -0.157867
   20          6        0.098469    0.112041
   21          6       -0.163278   -0.067482
   22          6        0.004244    0.016334
   23          7       -0.661609   -0.211105
   24          6        0.004445    0.040250
   25          8       -0.453007   -0.242653
   26          6        0.007216    0.047116
   27          6       -0.231692   -0.087000
   28          8       -0.266673   -0.180274
   29          6       -0.048630   -0.047436
   30          6        0.081030    0.061569
   31          8       -0.390925   -0.214110
   32          6       -0.061426   -0.063197
   33          6        0.090744    0.062820
   34          8       -0.370436   -0.280165
   35          6       -0.051497   -0.054970
   36          6        0.188299    0.161337
   37          8       -0.290685   -0.230697
   38          6       -0.056727    0.019676
   39          8       -0.459949   -0.251004
   40          1        0.109542    0.048701
   41          1        0.094705    0.035903
   42          1        0.094916    0.036099
   43          1        0.091936    0.031668
   44          1        0.089178    0.033511
   45          1        0.082825    0.019839
   46          1        0.324305    0.146560
   47          1        0.100033    0.036463
   48          1        0.100471    0.040546
   49          1        0.330155    0.155214
   50          1        0.093113    0.030327
   51          1        0.096441    0.032293
   52          1        0.101906    0.027054
   53          1        0.099716    0.016187
   54          1        0.094392    0.033846
   55          1        0.088766    0.026295
   56          1        0.100618    0.029353
   57          1        0.279605    0.091096
   58          1        0.287691    0.100972
   59          1        0.099553    0.028610
   60          1        0.314487    0.134614
   61          1        0.097206    0.027610
   62          1        0.088082    0.035763
   63          1        0.087124    0.033145
   64          1        0.083217    0.026645
   65          1        0.290641    0.087750
   66          1        0.112297    0.047470
   67          1        0.110059    0.045531
   68          1        0.308594    0.125211
 -----------------------------------------------

 Dipole moment (in Debye)
 -----------------------------------------------
                 X        Y        Z     Total
 -----------------------------------------------
 CM5        -10.6480  -2.1787  -2.9274  11.2560
 Hirshfeld  -11.4835  -1.8654  -2.7495  11.9545
 -----------------------------------------------

    7   -1929.1432380707      1.52e-05  
Hirshfeld: reading atomic densities from disk.

 Charges (in A.U.) from CM5PAC (Nov. 11, 2011)
 -----------------------------------------------
 Center     Atomic      CM5         Hirshfeld
 Number     Number      Charge      Charge
 -----------------------------------------------
    1          6       -0.110939    0.009964
    2          8       -0.211382   -0.123654
    3          6        0.089862    0.069945
    4          6       -0.140458   -0.088478
    5          6       -0.116491   -0.061359
    6          6       -0.126475   -0.074927
    7          6       -0.046596   -0.045093
    8          6        0.095524    0.062774
    9          8       -0.385729   -0.340667
   10          6       -0.052902   -0.056456
   11          6        0.068617    0.051710
   12          8       -0.386053   -0.185384
   13          6       -0.041029   -0.033837
   14          6       -0.145345   -0.049483
   15          6        0.083014    0.081941
   16          8       -0.416441   -0.212241
   17          6       -0.156802   -0.060518
   18          6        0.025276    0.060139
   19          8       -0.243406   -0.157966
   20          6        0.097960    0.111532
   21          6       -0.163490   -0.067694
   22          6        0.004265    0.016354
   23          7       -0.660455   -0.209951
   24          6        0.004349    0.040154
   25          8       -0.452505   -0.242151
   26          6        0.007669    0.047569
   27          6       -0.231996   -0.087304
   28          8       -0.266727   -0.180328
   29          6       -0.048137   -0.046943
   30          6        0.079805    0.060344
   31          8       -0.391028   -0.214213
   32          6       -0.060460   -0.062232
   33          6        0.090666    0.062742
   34          8       -0.374370   -0.284100
   35          6       -0.050984   -0.054457
   36          6        0.189382    0.162420
   37          8       -0.292657   -0.232669
   38          6       -0.056851    0.019552
   39          8       -0.459559   -0.250614
   40          1        0.109676    0.048835
   41          1        0.094848    0.036046
   42          1        0.095062    0.036246
   43          1        0.092162    0.031894
   44          1        0.089452    0.033785
   45          1        0.083096    0.020110
   46          1        0.324344    0.146599
   47          1        0.099991    0.036420
   48          1        0.100490    0.040565
   49          1        0.330169    0.155228
   50          1        0.093084    0.030298
   51          1        0.096471    0.032323
   52          1        0.101935    0.027083
   53          1        0.099806    0.016277
   54          1        0.094368    0.033822
   55          1        0.088798    0.026326
   56          1        0.100517    0.029253
   57          1        0.279305    0.090796
   58          1        0.287343    0.100624
   59          1        0.099435    0.028492
   60          1        0.314322    0.134450
   61          1        0.097097    0.027501
   62          1        0.088090    0.035770
   63          1        0.087141    0.033162
   64          1        0.083276    0.026705
   65          1        0.291072    0.088180
   66          1        0.112361    0.047535
   67          1        0.110126    0.045597
   68          1        0.308551    0.125168
 -----------------------------------------------

 Dipole moment (in Debye)
 -----------------------------------------------
                 X        Y        Z     Total
 -----------------------------------------------
 CM5        -10.6215  -2.1317  -2.8607  11.2047
 Hirshfeld  -11.4570  -1.8183  -2.6828  11.9066
 -----------------------------------------------

    8   -1929.1433725446      6.51e-06  
Hirshfeld: reading atomic densities from disk.

 Charges (in A.U.) from CM5PAC (Nov. 11, 2011)
 -----------------------------------------------
 Center     Atomic      CM5         Hirshfeld
 Number     Number      Charge      Charge
 -----------------------------------------------
    1          6       -0.111032    0.009872
    2          8       -0.211322   -0.123594
    3          6        0.089977    0.070060
    4          6       -0.140465   -0.088486
    5          6       -0.116686   -0.061554
    6          6       -0.126754   -0.075205
    7          6       -0.046632   -0.045129
    8          6        0.095233    0.062483
    9          8       -0.386685   -0.341623
   10          6       -0.052322   -0.055876
   11          6        0.068464    0.051557
   12          8       -0.386137   -0.185468
   13          6       -0.041538   -0.034346
   14          6       -0.145363   -0.049501
   15          6        0.083031    0.081958
   16          8       -0.416882   -0.212682
   17          6       -0.156578   -0.060294
   18          6        0.025069    0.059932
   19          8       -0.243534   -0.158094
   20          6        0.097955    0.111528
   21          6       -0.163066   -0.067269
   22          6        0.004486    0.016576
   23          7       -0.660565   -0.210061
   24          6        0.004630    0.040435
   25          8       -0.452885   -0.242531
   26          6        0.007880    0.047780
   27          6       -0.231666   -0.086974
   28          8       -0.267084   -0.180685
   29          6       -0.048571   -0.047376
   30          6        0.079775    0.060313
   31          8       -0.391356   -0.214541
   32          6       -0.060015   -0.061786
   33          6        0.090352    0.062427
   34          8       -0.372422   -0.282152
   35          6       -0.050655   -0.054128
   36          6        0.188923    0.161961
   37          8       -0.291802   -0.231815
   38          6       -0.056655    0.019748
   39          8       -0.460034   -0.251089
   40          1        0.109668    0.048827
   41          1        0.094851    0.036050
   42          1        0.095068    0.036251
   43          1        0.092184    0.031915
   44          1        0.089526    0.033858
   45          1        0.083196    0.020209
   46          1        0.324395    0.146651
   47          1        0.099994    0.036423
   48          1        0.100527    0.040602
   49          1        0.330303    0.155361
   50          1        0.093074    0.030288
   51          1        0.096482    0.032334
   52          1        0.101987    0.027135
   53          1        0.099840    0.016311
   54          1        0.094263    0.033717
   55          1        0.088727    0.026256
   56          1        0.100413    0.029149
   57          1        0.279326    0.090818
   58          1        0.287301    0.100582
   59          1        0.099340    0.028397
   60          1        0.314456    0.134584
   61          1        0.097063    0.027467
   62          1        0.087988    0.035668
   63          1        0.087044    0.033065
   64          1        0.083225    0.026654
   65          1        0.291061    0.088169
   66          1        0.112301    0.047475
   67          1        0.110146    0.045617
   68          1        0.308689    0.125307
 -----------------------------------------------

 Dipole moment (in Debye)
 -----------------------------------------------
                 X        Y        Z     Total
 -----------------------------------------------
 CM5        -10.6275  -2.1620  -2.8955  11.2251
 Hirshfeld  -11.4631  -1.8486  -2.7175  11.9249
 -----------------------------------------------

    9   -1929.1433906312      3.20e-06  
Hirshfeld: reading atomic densities from disk.

 Charges (in A.U.) from CM5PAC (Nov. 11, 2011)
 -----------------------------------------------
 Center     Atomic      CM5         Hirshfeld
 Number     Number      Charge      Charge
 -----------------------------------------------
    1          6       -0.110874    0.010029
    2          8       -0.211608   -0.123880
    3          6        0.089868    0.069951
    4          6       -0.140497   -0.088517
    5          6       -0.116602   -0.061471
    6          6       -0.126368   -0.074819
    7          6       -0.046284   -0.044781
    8          6        0.095791    0.063041
    9          8       -0.386183   -0.341121
   10          6       -0.052716   -0.056270
   11          6        0.068597    0.051690
   12          8       -0.386327   -0.185659
   13          6       -0.041394   -0.034202
   14          6       -0.145349   -0.049487
   15          6        0.082919    0.081846
   16          8       -0.416535   -0.212336
   17          6       -0.156731   -0.060446
   18          6        0.025189    0.060052
   19          8       -0.243419   -0.157979
   20          6        0.098024    0.111596
   21          6       -0.163219   -0.067422
   22          6        0.004337    0.016426
   23          7       -0.660828   -0.210324
   24          6        0.004472    0.040277
   25          8       -0.452775   -0.242421
   26          6        0.007571    0.047472
   27          6       -0.231695   -0.087003
   28          8       -0.266823   -0.180425
   29          6       -0.048315   -0.047121
   30          6        0.080016    0.060554
   31          8       -0.391128   -0.214313
   32          6       -0.060433   -0.062204
   33          6        0.090410    0.062485
   34          8       -0.373141   -0.282871
   35          6       -0.050955   -0.054428
   36          6        0.189368    0.162406
   37          8       -0.292457   -0.232469
   38          6       -0.056620    0.019783
   39          8       -0.459876   -0.250931
   40          1        0.109640    0.048799
   41          1        0.094832    0.036031
   42          1        0.095046    0.036230
   43          1        0.092133    0.031865
   44          1        0.089435    0.033767
   45          1        0.083107    0.020120
   46          1        0.324373    0.146629
   47          1        0.099959    0.036388
   48          1        0.100467    0.040542
   49          1        0.330180    0.155239
   50          1        0.093045    0.030259
   51          1        0.096460    0.032312
   52          1        0.101932    0.027079
   53          1        0.099806    0.016277
   54          1        0.094308    0.033762
   55          1        0.088762    0.026290
   56          1        0.100484    0.029220
   57          1        0.279407    0.090898
   58          1        0.287407    0.100688
   59          1        0.099398    0.028455
   60          1        0.314451    0.134578
   61          1        0.097100    0.027505
   62          1        0.088012    0.035692
   63          1        0.087076    0.033097
   64          1        0.083243    0.026671
   65          1        0.290999    0.088108
   66          1        0.112271    0.047445
   67          1        0.110132    0.045604
   68          1        0.308634    0.125252
 -----------------------------------------------

 Dipole moment (in Debye)
 -----------------------------------------------
                 X        Y        Z     Total
 -----------------------------------------------
 CM5        -10.6150  -2.1457  -2.8736  11.2045
 Hirshfeld  -11.4506  -1.8323  -2.6957  11.9054
 -----------------------------------------------

   10   -1929.1434294897      1.96e-06  
Hirshfeld: reading atomic densities from disk.

 Charges (in A.U.) from CM5PAC (Nov. 11, 2011)
 -----------------------------------------------
 Center     Atomic      CM5         Hirshfeld
 Number     Number      Charge      Charge
 -----------------------------------------------
    1          6       -0.110939    0.009964
    2          8       -0.211395   -0.123667
    3          6        0.089963    0.070046
    4          6       -0.140568   -0.088589
    5          6       -0.116590   -0.061459
    6          6       -0.126592   -0.075044
    7          6       -0.046460   -0.044956
    8          6        0.095722    0.062972
    9          8       -0.386121   -0.341059
   10          6       -0.052553   -0.056106
   11          6        0.068558    0.051651
   12          8       -0.386308   -0.185639
   13          6       -0.041322   -0.034130
   14          6       -0.145361   -0.049498
   15          6        0.082976    0.081903
   16          8       -0.416634   -0.212434
   17          6       -0.156743   -0.060459
   18          6        0.025201    0.060065
   19          8       -0.243478   -0.158039
   20          6        0.098039    0.111611
   21          6       -0.163325   -0.067529
   22          6        0.004320    0.016410
   23          7       -0.660651   -0.210147
   24          6        0.004449    0.040254
   25          8       -0.452721   -0.242367
   26          6        0.007656    0.047557
   27          6       -0.231819   -0.087128
   28          8       -0.266878   -0.180479
   29          6       -0.048395   -0.047201
   30          6        0.079862    0.060400
   31          8       -0.391363   -0.214548
   32          6       -0.060197   -0.061968
   33          6        0.090608    0.062683
   34          8       -0.373052   -0.282782
   35          6       -0.050846   -0.054319
   36          6        0.189238    0.162276
   37          8       -0.292289   -0.232302
   38          6       -0.056732    0.019670
   39          8       -0.459812   -0.250867
   40          1        0.109629    0.048788
   41          1        0.094809    0.036008
   42          1        0.095024    0.036207
   43          1        0.092108    0.031839
   44          1        0.089437    0.033770
   45          1        0.083118    0.020132
   46          1        0.324357    0.146612
   47          1        0.099962    0.036392
   48          1        0.100457    0.040531
   49          1        0.330208    0.155267
   50          1        0.093055    0.030269
   51          1        0.096456    0.032308
   52          1        0.101930    0.027078
   53          1        0.099812    0.016283
   54          1        0.094334    0.033788
   55          1        0.088769    0.026298
   56          1        0.100489    0.029225
   57          1        0.279359    0.090851
   58          1        0.287369    0.100650
   59          1        0.099414    0.028471
   60          1        0.314413    0.134540
   61          1        0.097105    0.027510
   62          1        0.088046    0.035726
   63          1        0.087102    0.033122
   64          1        0.083251    0.026679
   65          1        0.291000    0.088109
   66          1        0.112303    0.047476
   67          1        0.110130    0.045601
   68          1        0.308614    0.125232
 -----------------------------------------------

 Dipole moment (in Debye)
 -----------------------------------------------
                 X        Y        Z     Total
 -----------------------------------------------
 CM5        -10.6148  -2.1482  -2.8774  11.2057
 Hirshfeld  -11.4503  -1.8348  -2.6995  11.9064
 -----------------------------------------------

   11   -1929.1434600017      6.91e-07  
Hirshfeld: reading atomic densities from disk.

 Charges (in A.U.) from CM5PAC (Nov. 11, 2011)
 -----------------------------------------------
 Center     Atomic      CM5         Hirshfeld
 Number     Number      Charge      Charge
 -----------------------------------------------
    1          6       -0.110920    0.009983
    2          8       -0.211525   -0.123797
    3          6        0.089886    0.069969
    4          6       -0.140511   -0.088532
    5          6       -0.116587   -0.061456
    6          6       -0.126482   -0.074934
    7          6       -0.046361   -0.044858
    8          6        0.095674    0.062924
    9          8       -0.386010   -0.340948
   10          6       -0.052579   -0.056133
   11          6        0.068508    0.051601
   12          8       -0.386306   -0.185637
   13          6       -0.041349   -0.034157
   14          6       -0.145350   -0.049488
   15          6        0.082979    0.081906
   16          8       -0.416623   -0.212423
   17          6       -0.156724   -0.060440
   18          6        0.025189    0.060053
   19          8       -0.243458   -0.158018
   20          6        0.098016    0.111589
   21          6       -0.163259   -0.067463
   22          6        0.004357    0.016446
   23          7       -0.660696   -0.210192
   24          6        0.004488    0.040293
   25          8       -0.452765   -0.242411
   26          6        0.007682    0.047583
   27          6       -0.231786   -0.087094
   28          8       -0.266885   -0.180486
   29          6       -0.048368   -0.047173
   30          6        0.079885    0.060423
   31          8       -0.391221   -0.214406
   32          6       -0.060279   -0.062050
   33          6        0.090418    0.062494
   34          8       -0.373031   -0.282761
   35          6       -0.050902   -0.054376
   36          6        0.189280    0.162318
   37          8       -0.292351   -0.232363
   38          6       -0.056683    0.019720
   39          8       -0.459870   -0.250925
   40          1        0.109641    0.048800
   41          1        0.094821    0.036019
   42          1        0.095036    0.036219
   43          1        0.092114    0.031846
   44          1        0.089438    0.033770
   45          1        0.083120    0.020134
   46          1        0.324367    0.146623
   47          1        0.099966    0.036395
   48          1        0.100460    0.040535
   49          1        0.330205    0.155264
   50          1        0.093051    0.030266
   51          1        0.096449    0.032301
   52          1        0.101929    0.027077
   53          1        0.099807    0.016278
   54          1        0.094316    0.033770
   55          1        0.088755    0.026283
   56          1        0.100477    0.029213
   57          1        0.279364    0.090856
   58          1        0.287372    0.100653
   59          1        0.099402    0.028459
   60          1        0.314419    0.134547
   61          1        0.097095    0.027500
   62          1        0.088033    0.035714
   63          1        0.087089    0.033110
   64          1        0.083241    0.026670
   65          1        0.290994    0.088102
   66          1        0.112305    0.047478
   67          1        0.110128    0.045600
   68          1        0.308630    0.125248
 -----------------------------------------------

 Dipole moment (in Debye)
 -----------------------------------------------
                 X        Y        Z     Total
 -----------------------------------------------
 CM5        -10.6136  -2.1467  -2.8748  11.2036
 Hirshfeld  -11.4491  -1.8334  -2.6969  11.9045
 -----------------------------------------------

   12   -1929.1434748976      3.67e-07  
Hirshfeld: reading atomic densities from disk.

 Charges (in A.U.) from CM5PAC (Nov. 11, 2011)
 -----------------------------------------------
 Center     Atomic      CM5         Hirshfeld
 Number     Number      Charge      Charge
 -----------------------------------------------
    1          6       -0.110924    0.009979
    2          8       -0.211472   -0.123744
    3          6        0.089913    0.069996
    4          6       -0.140550   -0.088571
    5          6       -0.116613   -0.061482
    6          6       -0.126513   -0.074965
    7          6       -0.046364   -0.044861
    8          6        0.095703    0.062952
    9          8       -0.385997   -0.340935
   10          6       -0.052575   -0.056128
   11          6        0.068553    0.051646
   12          8       -0.386308   -0.185640
   13          6       -0.041374   -0.034182
   14          6       -0.145354   -0.049492
   15          6        0.082948    0.081875
   16          8       -0.416602   -0.212403
   17          6       -0.156720   -0.060436
   18          6        0.025184    0.060047
   19          8       -0.243453   -0.158013
   20          6        0.098018    0.111590
   21          6       -0.163251   -0.067455
   22          6        0.004345    0.016434
   23          7       -0.660717   -0.210213
   24          6        0.004474    0.040279
   25          8       -0.452749   -0.242395
   26          6        0.007646    0.047546
   27          6       -0.231758   -0.087066
   28          8       -0.266862   -0.180463
   29          6       -0.048385   -0.047191
   30          6        0.079894    0.060433
   31          8       -0.391284   -0.214469
   32          6       -0.060277   -0.062048
   33          6        0.090474    0.062550
   34          8       -0.373069   -0.282799
   35          6       -0.050888   -0.054362
   36          6        0.189251    0.162289
   37          8       -0.292310   -0.232322
   38          6       -0.056684    0.019719
   39          8       -0.459849   -0.250904
   40          1        0.109635    0.048794
   41          1        0.094815    0.036014
   42          1        0.095030    0.036213
   43          1        0.092112    0.031844
   44          1        0.089441    0.033773
   45          1        0.083121    0.020135
   46          1        0.324367    0.146622
   47          1        0.099964    0.036393
   48          1        0.100463    0.040538
   49          1        0.330200    0.155259
   50          1        0.093051    0.030265
   51          1        0.096452    0.032304
   52          1        0.101930    0.027078
   53          1        0.099806    0.016277
   54          1        0.094315    0.033769
   55          1        0.088757    0.026286
   56          1        0.100480    0.029216
   57          1        0.279373    0.090864
   58          1        0.287380    0.100661
   59          1        0.099401    0.028458
   60          1        0.314421    0.134548
   61          1        0.097096    0.027500
   62          1        0.088027    0.035707
   63          1        0.087085    0.033106
   64          1        0.083241    0.026669
   65          1        0.291002    0.088110
   66          1        0.112295    0.047469
   67          1        0.110127    0.045598
   68          1        0.308623    0.125240
 -----------------------------------------------

 Dipole moment (in Debye)
 -----------------------------------------------
                 X        Y        Z     Total
 -----------------------------------------------
 CM5        -10.6137  -2.1460  -2.8744  11.2035
 Hirshfeld  -11.4492  -1.8327  -2.6964  11.9044
 -----------------------------------------------

   13   -1929.1434696607      1.80e-07  
Hirshfeld: reading atomic densities from disk.

 Charges (in A.U.) from CM5PAC (Nov. 11, 2011)
 -----------------------------------------------
 Center     Atomic      CM5         Hirshfeld
 Number     Number      Charge      Charge
 -----------------------------------------------
    1          6       -0.110922    0.009981
    2          8       -0.211490   -0.123762
    3          6        0.089907    0.069990
    4          6       -0.140534   -0.088555
    5          6       -0.116588   -0.061457
    6          6       -0.126510   -0.074961
    7          6       -0.046381   -0.044878
    8          6        0.095703    0.062953
    9          8       -0.385992   -0.340930
   10          6       -0.052582   -0.056136
   11          6        0.068534    0.051627
   12          8       -0.386308   -0.185640
   13          6       -0.041347   -0.034155
   14          6       -0.145352   -0.049489
   15          6        0.082972    0.081898
   16          8       -0.416623   -0.212423
   17          6       -0.156727   -0.060442
   18          6        0.025193    0.060056
   19          8       -0.243463   -0.158023
   20          6        0.098026    0.111598
   21          6       -0.163272   -0.067476
   22          6        0.004342    0.016432
   23          7       -0.660691   -0.210187
   24          6        0.004474    0.040279
   25          8       -0.452752   -0.242398
   26          6        0.007658    0.047558
   27          6       -0.231777   -0.087085
   28          8       -0.266881   -0.180482
   29          6       -0.048377   -0.047183
   30          6        0.079887    0.060425
   31          8       -0.391266   -0.214450
   32          6       -0.060278   -0.062049
   33          6        0.090468    0.062543
   34          8       -0.373050   -0.282780
   35          6       -0.050908   -0.054382
   36          6        0.189273    0.162311
   37          8       -0.292333   -0.232345
   38          6       -0.056689    0.019714
   39          8       -0.459851   -0.250906
   40          1        0.109634    0.048793
   41          1        0.094816    0.036014
   42          1        0.095030    0.036214
   43          1        0.092110    0.031841
   44          1        0.089436    0.033768
   45          1        0.083120    0.020133
   46          1        0.324367    0.146623
   47          1        0.099961    0.036391
   48          1        0.100461    0.040536
   49          1        0.330205    0.155264
   50          1        0.093050    0.030264
   51          1        0.096452    0.032304
   52          1        0.101930    0.027077
   53          1        0.099809    0.016280
   54          1        0.094320    0.033774
   55          1        0.088759    0.026288
   56          1        0.100480    0.029216
   57          1        0.279368    0.090860
   58          1        0.287374    0.100655
   59          1        0.099403    0.028460
   60          1        0.314422    0.134550
   61          1        0.097099    0.027503
   62          1        0.088032    0.035712
   63          1        0.087089    0.033110
   64          1        0.083244    0.026673
   65          1        0.290995    0.088103
   66          1        0.112296    0.047470
   67          1        0.110129    0.045600
   68          1        0.308625    0.125242
 -----------------------------------------------

 Dipole moment (in Debye)
 -----------------------------------------------
                 X        Y        Z     Total
 -----------------------------------------------
 CM5        -10.6135  -2.1462  -2.8745  11.2034
 Hirshfeld  -11.4490  -1.8328  -2.6966  11.9043
 -----------------------------------------------

   14   -1929.1434732121      1.00e-07  
Hirshfeld: reading atomic densities from disk.

 Charges (in A.U.) from CM5PAC (Nov. 11, 2011)
 -----------------------------------------------
 Center     Atomic      CM5         Hirshfeld
 Number     Number      Charge      Charge
 -----------------------------------------------
    1          6       -0.110925    0.009978
    2          8       -0.211487   -0.123758
    3          6        0.089904    0.069987
    4          6       -0.140543   -0.088564
    5          6       -0.116603   -0.061471
    6          6       -0.126504   -0.074955
    7          6       -0.046357   -0.044854
    8          6        0.095715    0.062964
    9          8       -0.386000   -0.340938
   10          6       -0.052564   -0.056117
   11          6        0.068540    0.051633
   12          8       -0.386304   -0.185636
   13          6       -0.041363   -0.034171
   14          6       -0.145357   -0.049494
   15          6        0.082963    0.081890
   16          8       -0.416614   -0.212414
   17          6       -0.156728   -0.060443
   18          6        0.025185    0.060049
   19          8       -0.243457   -0.158018
   20          6        0.098021    0.111593
   21          6       -0.163266   -0.067469
   22          6        0.004348    0.016437
   23          7       -0.660702   -0.210198
   24          6        0.004477    0.040282
   25          8       -0.452755   -0.242401
   26          6        0.007663    0.047563
   27          6       -0.231779   -0.087087
   28          8       -0.266873   -0.180474
   29          6       -0.048386   -0.047192
   30          6        0.079886    0.060424
   31          8       -0.391269   -0.214454
   32          6       -0.060270   -0.062041
   33          6        0.090461    0.062537
   34          8       -0.373077   -0.282806
   35          6       -0.050896   -0.054369
   36          6        0.189256    0.162294
   37          8       -0.292314   -0.232327
   38          6       -0.056690    0.019713
   39          8       -0.459856   -0.250911
   40          1        0.109635    0.048794
   41          1        0.094816    0.036014
   42          1        0.095030    0.036214
   43          1        0.092110    0.031842
   44          1        0.089437    0.033770
   45          1        0.083121    0.020134
   46          1        0.324368    0.146623
   47          1        0.099964    0.036393
   48          1        0.100462    0.040537
   49          1        0.330204    0.155263
   50          1        0.093052    0.030266
   51          1        0.096453    0.032305
   52          1        0.101930    0.027078
   53          1        0.099808    0.016279
   54          1        0.094318    0.033772
[...]
  1.0209   1.0253   1.0344   1.0421   1.0435   1.0490   1.0513   1.0535
  1.0604   1.0641   1.0702   1.0789   1.0819   1.0895   1.0951   1.0975
  1.1007   1.1043   1.1104   1.1161   1.1220   1.1228   1.1254   1.1307
  1.1351   1.1430   1.1455   1.1501   1.1602   1.1641   1.1668   1.1749
  1.1822   1.1853   1.1893   1.1983   1.2054   1.2126   1.2183   1.2206
  1.2314   1.2333   1.2377   1.2427   1.2455   1.2515   1.2625   1.2660
  1.2688   1.2726   1.2762   1.2792   1.2863   1.2902   1.2977   1.3016
  1.3038   1.3054   1.3072   1.3119   1.3213   1.3235   1.3380   1.3395
  1.3463   1.3486   1.3530   1.3555   1.3685   1.3776   1.3792   1.3879
  1.3912   1.3988   1.4089   1.4209   1.4219   1.4308   1.4356   1.4410
  1.4478   1.4506   1.4522   1.4571   1.4653   1.4719   1.4779   1.4873
  1.4905   1.4954   1.5002   1.5023   1.5050   1.5085   1.5124   1.5150
  1.5198   1.5279   1.5322   1.5420   1.5428   1.5491   1.5565   1.5578
  1.5597   1.5638   1.5703   1.5708   1.5758   1.5808   1.5823   1.5833
  1.5861   1.5892   1.5956   1.6047   1.6091   1.6168   1.6211   1.6251
  1.6267   1.6308   1.6352   1.6435   1.6474   1.6531   1.6554   1.6617
  1.6727   1.6785   1.6799   1.6829   1.6844   1.6932   1.6985   1.7018
  1.7051   1.7086   1.7106   1.7193   1.7248   1.7304   1.7320   1.7348
  1.7362   1.7396   1.7406   1.7502   1.7573   1.7616   1.7654   1.7717
  1.7740   1.7751   1.7820   1.7894   1.7936   1.7966   1.8017   1.8078
  1.8138   1.8194   1.8240   1.8248   1.8354   1.8404   1.8464   1.8483
  1.8610   1.8631   1.8690   1.8782   1.8826   1.8962   1.8977   1.9024
  1.9096   1.9112   1.9186   1.9191   1.9262   1.9345   1.9395   1.9427
  1.9457   1.9482   1.9570   1.9600   1.9608   1.9672   1.9726   1.9800
  1.9853   1.9865   1.9959   2.0038   2.0083   2.0157   2.0217   2.0324
  2.0382   2.0424   2.0446   2.0541   2.0660   2.0681   2.0733   2.0832
  2.1025   2.1049   2.1106   2.1189   2.1220   2.1234   2.1296   2.1302
  2.1361   2.1406   2.1470   2.1520   2.1589   2.1643   2.1674   2.1741
  2.1803   2.1896   2.1952   2.2079   2.2116   2.2248   2.2354   2.2386
  2.2425   2.2492   2.2544   2.2634   2.2707   2.2786   2.2944   2.3037
  2.3124   2.3193   2.3226   2.3335   2.3445   2.3476   2.3571   2.3649
  2.3712   2.3784   2.3832   2.3945   2.4026   2.4175   2.4332   2.4407
  2.4597   2.4620   2.4798   2.4852   2.4963   2.5019   2.5060   2.5124
  2.5154   2.5282   2.5378   2.5472   2.5476   2.5579   2.5625   2.5702
  2.5828   2.5865   2.5928   2.5982   2.6052   2.6110   2.6148   2.6166
  2.6206   2.6272   2.6412   2.6434   2.6481   2.6620   2.6676   2.6722
  2.6776   2.7067   2.7121   2.7161   2.7165   2.7204   2.7303   2.7319
  2.7348   2.7396   2.7487   2.7585   2.7607   2.7754   2.7777   2.7833
  2.7884   2.7984   2.8079   2.8119   2.8184   2.8233   2.8286   2.8515
  2.8548   2.8562   2.8655   2.8664   2.8750   2.8808   2.8878   2.8905
  2.9021   2.9100   2.9144   2.9154   2.9187   2.9319   2.9471   2.9512
  2.9544   2.9580   2.9596   2.9627   2.9795   2.9833   2.9887   2.9945
  3.0092   3.0173   3.0297   3.0332   3.0400   3.0451   3.0594   3.0736
  3.0768   3.0841   3.0907   3.1007   3.1088   3.1110   3.1175   3.1200
  3.1282   3.1318   3.1347   3.1419   3.1470   3.1502   3.1573   3.1609
  3.1672   3.1699   3.1760   3.1852   3.1921   3.1974   3.1992   3.2090
  3.2155   3.2244   3.2298   3.2309   3.2335   3.2425   3.2442   3.2477
  3.2560   3.2575   3.2610   3.2646   3.2787   3.2836   3.2987   3.3101
  3.3137   3.3287   3.3469   3.3647   3.3697   3.3710   3.3753   3.3846
  3.3897   3.4033   3.4136   3.4459   3.4556   3.4667   3.4717   3.4775
  3.5019   3.5040   3.5181   3.5357   3.5421   3.5524   3.5771   3.5881
  3.6252   3.6293   3.6347   3.6728   3.6918   3.7778   3.7804   3.8002
  3.8147   3.8213   3.8243   3.8375   3.8400   3.8468   3.8582   3.8636
  3.8746   3.8777   3.8828   3.9055   3.9292   3.9619   3.9749   3.9895
  3.9973   4.0126   4.0250   4.0444   4.0653   4.0709   4.1023   4.1048
  4.1330   4.1467   4.1694   4.1720   4.1847   4.1928   4.2063   4.2396
  4.2558   4.2599   4.2782   4.2957   4.3169   4.3496   4.3612   4.3683
  4.3735   4.4863   4.5899   4.7518   4.8267   4.8503   4.8752   4.9236
  5.0460   5.0599   5.0752   5.0949   5.1112   5.1185   5.1383   5.1452
  5.1596   5.2316   5.2462   5.2562   5.2944   5.3134   5.4137   5.4450
  5.4616   5.4640   5.4709   5.5066   5.5412   5.6376   5.6557   5.6663
  5.6702   5.7000   5.7451   5.7941   5.8024   5.8349   5.8373   5.8633
  5.9352  23.5306  23.6800  23.7762  23.8162  23.8369  23.8417  23.8560
 23.8716  23.8788  23.8932  23.9004  23.9043  23.9173  23.9234  23.9355
 23.9452  23.9568  23.9710  23.9801  23.9857  24.0029  24.0102  24.0346
 24.0677  24.0931  24.1242  24.1958  35.6271  49.9310  49.9621  49.9650
 49.9885  49.9993  50.0008  50.0116  50.0290  50.0601  50.0890  50.1365
 
 Beta MOs
 -- Occupied --
-19.1493 -19.1444 -19.1442 -19.1416 -19.1280 -19.1263 -19.1222 -19.1189
-19.1136 -19.0793 -19.0620 -14.2905 -10.2786 -10.2602 -10.2519 -10.2426
-10.2321 -10.2314 -10.2313 -10.2312 -10.2281 -10.2244 -10.2215 -10.2158
-10.2151 -10.1987 -10.1902 -10.1857 -10.1813 -10.1782 -10.1776 -10.1767
-10.1755 -10.1730 -10.1727 -10.1726 -10.1657 -10.1625 -10.1577  -1.0831
 -1.0688  -1.0667  -1.0565  -1.0435  -1.0431  -1.0275  -1.0270  -1.0024
 -0.9910  -0.9893  -0.8860  -0.8643  -0.8557  -0.8251  -0.7857  -0.7801
 -0.7652  -0.7596  -0.7523  -0.7471  -0.7350  -0.7189  -0.6985  -0.6936
 -0.6648  -0.6621  -0.6422  -0.6333  -0.6171  -0.6136  -0.6029  -0.5900
 -0.5700  -0.5667  -0.5658  -0.5566  -0.5461  -0.5344  -0.5228  -0.5171
 -0.5128  -0.4991  -0.4979  -0.4956  -0.4871  -0.4820  -0.4797  -0.4784
 -0.4711  -0.4672  -0.4659  -0.4652  -0.4627  -0.4521  -0.4441  -0.4381
 -0.4377  -0.4338  -0.4297  -0.4240  -0.4165  -0.4121  -0.4071  -0.4025
 -0.3993  -0.3966  -0.3929  -0.3921  -0.3902  -0.3874  -0.3859  -0.3830
 -0.3798  -0.3750  -0.3688  -0.3654  -0.3639  -0.3605  -0.3576  -0.3535
 -0.3522  -0.3473  -0.3452  -0.3411  -0.3338  -0.3298  -0.3216  -0.3191
 -0.3148  -0.3137  -0.2959  -0.2890  -0.2887  -0.2782  -0.2683  -0.2547
 -0.2508  -0.2442  -0.2413  -0.2397  -0.2263  -0.2223  -0.2012
 -- Virtual --
 -0.0839  -0.0487  -0.0307  -0.0212  -0.0188  -0.0132  -0.0082  -0.0049
 -0.0027   0.0002   0.0051   0.0082   0.0115   0.0143   0.0146   0.0221
  0.0234   0.0249   0.0268   0.0294   0.0326   0.0367   0.0370   0.0402
  0.0428   0.0467   0.0491   0.0526   0.0541   0.0578   0.0592   0.0636
  0.0646   0.0668   0.0685   0.0702   0.0720   0.0726   0.0778   0.0791
  0.0797   0.0831   0.0857   0.0875   0.0903   0.0914   0.0940   0.0951
  0.0973   0.0987   0.0995   0.1013   0.1026   0.1046   0.1063   0.1095
  0.1131   0.1148   0.1156   0.1183   0.1186   0.1206   0.1217   0.1232
  0.1258   0.1287   0.1298   0.1315   0.1322   0.1333   0.1349   0.1369
  0.1392   0.1420   0.1437   0.1451   0.1457   0.1464   0.1479   0.1494
  0.1519   0.1537   0.1547   0.1566   0.1590   0.1612   0.1614   0.1629
  0.1644   0.1650   0.1697   0.1718   0.1734   0.1740   0.1756   0.1768
  0.1788   0.1817   0.1830   0.1856   0.1862   0.1892   0.1898   0.1932
  0.1957   0.1961   0.2005   0.2017   0.2032   0.2044   0.2075   0.2080
  0.2088   0.2114   0.2130   0.2159   0.2166   0.2183   0.2197   0.2209
  0.2251   0.2255   0.2298   0.2309   0.2325   0.2344   0.2361   0.2384
  0.2410   0.2429   0.2432   0.2443   0.2466   0.2470   0.2481   0.2515
  0.2544   0.2568   0.2586   0.2594   0.2645   0.2670   0.2675   0.2695
  0.2725   0.2732   0.2745   0.2788   0.2797   0.2815   0.2830   0.2846
  0.2874   0.2890   0.2921   0.2928   0.2962   0.2965   0.2982   0.3013
  0.3030   0.3040   0.3063   0.3075   0.3095   0.3130   0.3140   0.3160
  0.3176   0.3182   0.3200   0.3227   0.3234   0.3258   0.3262   0.3307
  0.3318   0.3340   0.3344   0.3356   0.3374   0.3390   0.3417   0.3445
  0.3467   0.3499   0.3520   0.3533   0.3552   0.3584   0.3606   0.3620
  0.3640   0.3673   0.3690   0.3715   0.3724   0.3745   0.3775   0.3800
  0.3817   0.3848   0.3862   0.3893   0.3897   0.3930   0.3977   0.3986
  0.4009   0.4052   0.4078   0.4089   0.4131   0.4162   0.4174   0.4196
  0.4226   0.4264   0.4302   0.4321   0.4338   0.4391   0.4426   0.4442
  0.4460   0.4468   0.4512   0.4543   0.4565   0.4638   0.4698   0.4700
  0.4748   0.4789   0.4813   0.4837   0.4862   0.4915   0.4926   0.4978
  0.5004   0.5090   0.5132   0.5174   0.5225   0.5273   0.5302   0.5346
  0.5413   0.5454   0.5505   0.5539   0.5550   0.5575   0.5642   0.5688
  0.5733   0.5775   0.5837   0.5854   0.5882   0.5897   0.5937   0.5969
  0.6004   0.6060   0.6084   0.6107   0.6143   0.6150   0.6195   0.6228
  0.6238   0.6300   0.6325   0.6343   0.6377   0.6407   0.6466   0.6518
  0.6530   0.6538   0.6575   0.6589   0.6597   0.6668   0.6681   0.6696
  0.6733   0.6798   0.6806   0.6839   0.6865   0.6893   0.6917   0.6988
  0.7025   0.7046   0.7093   0.7117   0.7162   0.7181   0.7196   0.7227
  0.7313   0.7340   0.7368   0.7412   0.7439   0.7459   0.7479   0.7517
  0.7546   0.7613   0.7633   0.7681   0.7693   0.7722   0.7772   0.7800
  0.7813   0.7850   0.7872   0.7918   0.7970   0.7984   0.8031   0.8084
  0.8118   0.8133   0.8168   0.8212   0.8279   0.8319   0.8352   0.8388
  0.8469   0.8515   0.8605   0.8631   0.8706   0.8730   0.8767   0.8780
  0.8844   0.8941   0.8953   0.9037   0.9075   0.9169   0.9179   0.9290
  0.9337   0.9423   0.9453   0.9480   0.9511   0.9610   0.9691   0.9731
  0.9734   0.9865   0.9898   0.9973   1.0003   1.0043   1.0077   1.0135
  1.0185   1.0212   1.0260   1.0354   1.0425   1.0445   1.0505   1.0525
  1.0550   1.0614   1.0647   1.0708   1.0796   1.0831   1.0905   1.0957
  1.0988   1.1018   1.1053   1.1114   1.1172   1.1232   1.1262   1.1269
  1.1343   1.1377   1.1438   1.1467   1.1505   1.1614   1.1669   1.1693
  1.1755   1.1827   1.1863   1.1898   1.1990   1.2068   1.2138   1.2196
  1.2227   1.2325   1.2342   1.2388   1.2443   1.2463   1.2524   1.2662
  1.2673   1.2699   1.2753   1.2769   1.2805   1.2870   1.2911   1.2984
  1.3025   1.3042   1.3067   1.3081   1.3128   1.3218   1.3242   1.3387
  1.3407   1.3471   1.3489   1.3537   1.3561   1.3690   1.3783   1.3795
  1.3887   1.3919   1.3995   1.4095   1.4215   1.4227   1.4315   1.4363
  1.4413   1.4481   1.4507   1.4526   1.4578   1.4658   1.4726   1.4784
  1.4876   1.4913   1.4958   1.5024   1.5035   1.5059   1.5097   1.5135
  1.5160   1.5208   1.5295   1.5326   1.5432   1.5449   1.5499   1.5571
  1.5583   1.5601   1.5642   1.5713   1.5718   1.5762   1.5812   1.5830
  1.5838   1.5869   1.5895   1.5964   1.6051   1.6093   1.6174   1.6222
  1.6257   1.6272   1.6312   1.6356   1.6440   1.6479   1.6538   1.6556
  1.6631   1.6734   1.6790   1.6803   1.6834   1.6848   1.6935   1.6994
  1.7021   1.7056   1.7089   1.7108   1.7196   1.7252   1.7308   1.7322
  1.7356   1.7374   1.7400   1.7411   1.7514   1.7578   1.7622   1.7666
  1.7724   1.7745   1.7762   1.7823   1.7901   1.7946   1.7968   1.8019
  1.8082   1.8146   1.8198   1.8244   1.8268   1.8359   1.8409   1.8473
  1.8486   1.8625   1.8647   1.8698   1.8787   1.8835   1.8979   1.8994
  1.9044   1.9104   1.9118   1.9191   1.9204   1.9270   1.9357   1.9404
  1.9443   1.9465   1.9493   1.9579   1.9606   1.9620   1.9674   1.9736
  1.9808   1.9868   1.9876   1.9974   2.0050   2.0103   2.0171   2.0223
  2.0330   2.0402   2.0429   2.0458   2.0548   2.0667   2.0692   2.0746
  2.0839   2.1031   2.1053   2.1115   2.1190   2.1223   2.1239   2.1301
  2.1302   2.1365   2.1413   2.1477   2.1522   2.1602   2.1647   2.1688
  2.1744   2.1805   2.1900   2.1956   2.2091   2.2119   2.2252   2.2369
  2.2390   2.2436   2.2498   2.2556   2.2639   2.2713   2.2800   2.2964
  2.3046   2.3131   2.3205   2.3234   2.3354   2.3456   2.3482   2.3592
  2.3654   2.3723   2.3799   2.3836   2.3953   2.4028   2.4188   2.4334
  2.4418   2.4604   2.4626   2.4798   2.4854   2.4968   2.5025   2.5064
  2.5127   2.5170   2.5283   2.5381   2.5475   2.5483   2.5580   2.5627
  2.5707   2.5829   2.5866   2.5929   2.5984   2.6056   2.6112   2.6157
  2.6167   2.6212   2.6274   2.6429   2.6465   2.6485   2.6620   2.6678
  2.6724   2.6799   2.7070   2.7125   2.7163   2.7178   2.7205   2.7312
  2.7346   2.7354   2.7436   2.7491   2.7589   2.7614   2.7759   2.7782
  2.7841   2.7886   2.7987   2.8098   2.8125   2.8192   2.8236   2.8327
  2.8542   2.8565   2.8572   2.8666   2.8675   2.8772   2.8855   2.8888
  2.8919   2.9036   2.9146   2.9158   2.9178   2.9206   2.9336   2.9513
  2.9540   2.9556   2.9592   2.9611   2.9653   2.9811   2.9847   2.9944
  2.9978   3.0099   3.0192   3.0303   3.0337   3.0409   3.0458   3.0610
  3.0745   3.0779   3.0853   3.0917   3.1011   3.1095   3.1129   3.1197
  3.1203   3.1284   3.1321   3.1362   3.1435   3.1484   3.1510   3.1591
  3.1624   3.1682   3.1706   3.1778   3.1859   3.1927   3.1983   3.1999
  3.2096   3.2158   3.2248   3.2303   3.2312   3.2343   3.2438   3.2449
  3.2484   3.2564   3.2581   3.2620   3.2654   3.2793   3.2838   3.2991
  3.3141   3.3243   3.3296   3.3477   3.3666   3.3726   3.3757   3.3837
  3.3846   3.3902   3.4037   3.4146   3.4460   3.4564   3.4675   3.4724
  3.4786   3.5022   3.5049   3.5182   3.5368   3.5424   3.5537   3.5781
  3.5892   3.6263   3.6305   3.6352   3.6741   3.6943   3.7778   3.7806
  3.8005   3.8147   3.8216   3.8244   3.8387   3.8405   3.8475   3.8586
  3.8666   3.8750   3.8778   3.8836   3.9057   3.9307   3.9627   3.9763
  3.9905   3.9975   4.0127   4.0250   4.0445   4.0665   4.0712   4.1023
  4.1048   4.1340   4.1467   4.1699   4.1721   4.1847   4.1931   4.2064
  4.2401   4.2566   4.2605   4.2784   4.2964   4.3192   4.3496   4.3632
  4.3685   4.3742   4.4872   4.5922   4.7518   4.8304   4.8519   4.8752
  4.9250   5.0468   5.0602   5.0786   5.1088   5.1186   5.1317   5.1402
  5.1507   5.1597   5.2317   5.2463   5.2563   5.2970   5.3173   5.4138
  5.4450   5.4617   5.4641   5.4710   5.5074   5.5421   5.6376   5.6560
  5.6663   5.6703   5.7005   5.7473   5.7941   5.8033   5.8352   5.8394
  5.8658   5.9373  23.5313  23.6806  23.7763  23.8162  23.8369  23.8417
 23.8561  23.8716  23.8788  23.8940  23.9005  23.9051  23.9184  23.9237
 23.9360  23.9454  23.9575  23.9716  23.9801  23.9862  24.0029  24.0109
 24.0354  24.0684  24.0935  24.1250  24.1962  35.6271  49.9310  49.9621
 49.9650  49.9887  49.9994  50.0009  50.0117  50.0291  50.0612  50.0935
 50.1417
 --------------------------------------------------------------
 
          Ground-State Mulliken Net Atomic Charges

     Atom                 Charge (a.u.)    Spin (a.u.)
  --------------------------------------------------------
      1 C                     0.127465      -0.000769
      2 O                    -0.107970       0.003335
      3 C                     0.030917       0.026958
      4 C                     1.644001       0.038405
      5 C                     0.597641       0.068778
      6 C                    -0.692289       0.010077
      7 C                    -0.964413       0.093991
      8 C                    -1.740924       0.024440
      9 O                    -0.321121       0.212275
     10 C                    -0.629603       0.032996
     11 C                    -0.919572       0.018630
     12 O                    -0.145575       0.005475
     13 C                    -0.932184       0.065954
     14 C                     1.417517       0.001999
     15 C                     1.941234      -0.002857
     16 O                    -0.088602      -0.000072
     17 C                     0.370664      -0.007198
     18 C                    -1.325767      -0.005834
     19 O                     0.139497       0.000776
     20 C                     0.202176       0.002618
     21 C                    -0.453652       0.004349
     22 C                     0.409670      -0.000969
     23 N                    -0.372721       0.000040
     24 C                    -0.328803      -0.000043
     25 O                    -0.183126      -0.000001
     26 C                    -0.035322      -0.000231
     27 C                    -0.226024       0.000414
     28 O                     0.022394      -0.000296
     29 C                    -0.509299       0.075715
     30 C                    -1.311888       0.003191
     31 O                    -0.303382       0.012122
     32 C                     0.070023       0.008790
     33 C                    -0.720057       0.125606
     34 O                    -0.369438       0.185189
     35 C                    -0.580986      -0.004563
     36 C                    -0.287060       0.000948
     37 O                    -0.280777       0.000591
     38 C                    -0.472857      -0.001223
     39 O                    -0.308746       0.000047
     40 H                     0.274594      -0.000190
     41 H                     0.217965       0.000561
     42 H                     0.217575       0.000506
     43 H                     0.354249      -0.002606
     44 H                     0.325342      -0.004731
     45 H                     0.071303      -0.000752
     46 H                     0.305216      -0.000828
     47 H                     0.349032       0.001628
     48 H                     0.307286       0.004922
     49 H                     0.304097      -0.000077
     50 H                     0.295065      -0.000116
     51 H                     0.190106       0.000081
     52 H                     0.114738       0.002449
     53 H                     0.099295       0.000841
     54 H                     0.131145       0.000115
     55 H                     0.113552      -0.000024
     56 H                     0.203735      -0.000004
     57 H                     0.241181       0.000028
     58 H                     0.301692       0.000003
     59 H                     0.164882       0.000024
     60 H                     0.248094       0.000004
     61 H                     0.087340      -0.000076
     62 H                     0.186697      -0.000001
     63 H                     0.149247       0.000005
     64 H                     0.126720       0.000027
     65 H                     0.580575      -0.001430
     66 H                     0.242414      -0.000074
     67 H                     0.183070       0.000092
     68 H                     0.252751      -0.000033
  --------------------------------------------------------
  Sum of atomic charges =    -1.000000
  Sum of spin   charges =     1.000000

 -----------------------------------------------------------------
                    Cartesian Multipole Moments
 -----------------------------------------------------------------
    Charge (ESU x 10^10)
                -4.8032
    Dipole Moment (Debye)
         X     -10.3224      Y      -2.5037      Z      -2.8093
       Tot      10.9869
    Quadrupole Moments (Debye-Ang)
        XX    -317.6365     XY     -33.2291     YY    -259.6844
        XZ     -28.7075     YZ       2.6786     ZZ    -247.6677
    Octopole Moments (Debye-Ang^2)
       XXX    -337.1401    XXY     -51.0121    XYY     -62.1273
       YYY    -279.2219    XXZ    -197.5675    XYZ       8.0039
       YYZ     -10.8634    XZZ    -154.0976    YZZ     -51.8806
       ZZZ    -144.8752
    Hexadecapole Moments (Debye-Ang^3)
      XXXX  -21735.3944   XXXY   -1004.2488   XXYY   -5001.0019
      XYYY     -42.7455   YYYY   -9947.8027   XXXZ   -1485.2032
      XXYZ    -433.5463   XYYZ    -453.0724   YYYZ   -1111.6490
      XXZZ   -4076.9925   XYZZ     -31.8809   YYZZ   -2086.6089
      XZZZ    -893.4805   YZZZ   -1409.4586   ZZZZ   -3128.2693
 -----------------------------------------------------------------
 Total job time:  10419.27s(wall), 43998.57s(cpu) 
 Sat Feb  3 15:45:24 2024

        *************************************************************
        *                                                           *
        *  Thank you very much for using Q-Chem.  Have a nice day.  *
        *                                                           *
        *************************************************************


