 Entering Gaussian System, Link 0=g16
 Input=291-rad-PCM.com
 Output=291-rad-PCM.log
 Initial command:
 /sysapps/ubuntu-applications/gaussian/Gaussian/SSE_4/g16/l1.exe "/scratch/selhajj1/4304531/Gau-1477886.inp" -scrdir="/scratch/selhajj1/4304531/"
 Entering Link 1 = /sysapps/ubuntu-applications/gaussian/Gaussian/SSE_4/g16/l1.exe PID=   1477888.
  
 Copyright (c) 1988,1990,1992,1993,1995,1998,2003,2009,2016,
            Gaussian, Inc.  All Rights Reserved.
  
 This is part of the Gaussian(R) 16 program.  It is based on
 the Gaussian(R) 09 system (copyright 2009, Gaussian, Inc.),
 the Gaussian(R) 03 system (copyright 2003, Gaussian, Inc.),
 the Gaussian(R) 98 system (copyright 1998, Gaussian, Inc.),
 the Gaussian(R) 94 system (copyright 1995, Gaussian, Inc.),
 the Gaussian 92(TM) system (copyright 1992, Gaussian, Inc.),
 the Gaussian 90(TM) system (copyright 1990, Gaussian, Inc.),
 the Gaussian 88(TM) system (copyright 1988, Gaussian, Inc.),
 the Gaussian 86(TM) system (copyright 1986, Carnegie Mellon
 University), and the Gaussian 82(TM) system (copyright 1983,
 Carnegie Mellon University). Gaussian is a federally registered
 trademark of Gaussian, Inc.
  
 This software contains proprietary and confidential information,
 including trade secrets, belonging to Gaussian, Inc.
  
 This software is provided under written license and may be
 used, copied, transmitted, or stored only in accord with that
 written license.
  
 The following legend is applicable only to US Government
 contracts under FAR:
  
                    RESTRICTED RIGHTS LEGEND
  
 Use, reproduction and disclosure by the US Government is
 subject to restrictions as set forth in subparagraphs (a)
 and (c) of the Commercial Computer Software - Restricted
 Rights clause in FAR 52.227-19.
  
 Gaussian, Inc.
 340 Quinnipiac St., Bldg. 40, Wallingford CT 06492
  
  
 ---------------------------------------------------------------
 Warning -- This program may not be used in any manner that
 competes with the business of Gaussian, Inc. or will provide
 assistance to any competitor of Gaussian, Inc.  The licensee
 of this program is prohibited from giving any competitor of
 Gaussian, Inc. access to this program.  By using this program,
 the user acknowledges that Gaussian, Inc. is engaged in the
 business of creating and licensing software in the field of
 computational chemistry and represents and warrants to the
 licensee that it is not a competitor of Gaussian, Inc. and that
 it will not use this program in any manner prohibited above.
 ---------------------------------------------------------------
  

 Cite this work as:
 Gaussian 16, Revision A.03,
 M. J. Frisch, G. W. Trucks, H. B. Schlegel, G. E. Scuseria, 
 M. A. Robb, J. R. Cheeseman, G. Scalmani, V. Barone, 
 G. A. Petersson, H. Nakatsuji, X. Li, M. Caricato, A. V. Marenich, 
 J. Bloino, B. G. Janesko, R. Gomperts, B. Mennucci, H. P. Hratchian, 
 J. V. Ortiz, A. F. Izmaylov, J. L. Sonnenberg, D. Williams-Young, 
 F. Ding, F. Lipparini, F. Egidi, J. Goings, B. Peng, A. Petrone, 
 T. Henderson, D. Ranasinghe, V. G. Zakrzewski, J. Gao, N. Rega, 
 G. Zheng, W. Liang, M. Hada, M. Ehara, K. Toyota, R. Fukuda, 
 J. Hasegawa, M. Ishida, T. Nakajima, Y. Honda, O. Kitao, H. Nakai, 
 T. Vreven, K. Throssell, J. A. Montgomery, Jr., J. E. Peralta, 
 F. Ogliaro, M. J. Bearpark, J. J. Heyd, E. N. Brothers, K. N. Kudin, 
 V. N. Staroverov, T. A. Keith, R. Kobayashi, J. Normand, 
 K. Raghavachari, A. P. Rendell, J. C. Burant, S. S. Iyengar, 
 J. Tomasi, M. Cossi, J. M. Millam, M. Klene, C. Adamo, R. Cammi, 
 J. W. Ochterski, R. L. Martin, K. Morokuma, O. Farkas, 
 J. B. Foresman, and D. J. Fox, Gaussian, Inc., Wallingford CT, 2016.
 
 ******************************************
 Gaussian 16:  ES64L-G16RevA.03 25-Dec-2016
                21-Jan-2024 
 ******************************************
 %chk=291-rad-PCM.chk
 %nproc=8
 Will use up to    8 processors via shared memory.
 %mem=30GB
 ----------------------------------------------------------------
 #P UB3LYP/6-311++G(d,p) SCRF=(PCM,Solvent=n,n-DiMethylFormamide)
 ----------------------------------------------------------------
 1/38=1,172=1/1;
 2/12=2,17=6,18=5,40=1/2;
 3/5=4,6=6,7=1111,11=2,25=1,30=1,70=2201,72=148,74=-5,116=2/1,2,3;
 4//1;
 5/5=2,38=5,53=148/2;
 6/7=2,8=2,9=2,10=2,28=1/1;
 99/5=1,9=1/99;
 Leave Link    1 at Sun Jan 21 08:40:58 2024, MaxMem=  4026531840 cpu:               0.4 elap:               0.1
 (Enter /sysapps/ubuntu-applications/gaussian/Gaussian/SSE_4/g16/l101.exe)
 ------------------
 Radical PCM in DMF
 ------------------
 Symbolic Z-matrix:
 Charge = -1 Multiplicity = 2
 C                     0.14509   3.71502  -0.15661 
 C                    -0.92761   3.64281  -1.02578 
 C                    -0.94796   2.66609  -2.04197 
 C                     1.23008   2.81893  -0.27056 
 C                     1.21149   1.83143  -1.29709 
 C                     0.10904   1.77919  -2.16782 
 C                     2.35272   2.89518   0.64013 
 C                     3.4152    1.93588   0.44385 
 C                     3.42598   0.96392  -0.53417 
 C                     2.3211    0.86883  -1.46368 
 O                     2.47127   3.7362    1.59091 
 O                     2.29611   0.00351  -2.37791 
 H                     0.18352   4.45728   0.63276 
 H                    -1.75559   4.33889  -0.92644 
 H                    -1.79097   2.61009  -2.72427 
 H                     0.12031   1.01864  -2.9404 
 O                     4.4394    2.06957   1.33618 
 H                     4.13056   2.82301   1.88673 
 C                     4.57536  -0.00108  -0.67721 
 C                     5.5964    0.4465   -1.74319 
 C                     6.71552  -0.57076  -2.04133 
 C                     7.51474  -0.13192  -3.28477 
 C                     8.5059   -1.16612  -3.8367 
 C                     9.19669  -0.70011  -5.12519 
 C                     10.12564  -1.73234  -5.79252 
 C                     10.58847  -1.23428  -7.1694 
 C                     7.62789  -0.79356  -0.82481 
 C                     11.33631  -2.08902  -4.91748 
 H                     4.16961  -0.97261  -0.97931 
 H                     5.06698  -0.11783   0.29166 
 H                     6.04539   1.39972  -1.43444 
 H                     5.04371   0.63956  -2.66772 
 H                     6.23033  -1.52807  -2.28277 
 H                     8.0529    0.7979   -3.05191 
 H                     6.80084   0.12271  -4.07757 
 H                     7.96949  -2.10379  -4.03669 
 H                     9.25946  -1.39895  -3.07798 
 H                     9.77236   0.2137   -4.92015 
 H                     8.424    -0.41205  -5.84917 
 H                     9.54174  -2.65032  -5.94839 
 H                     9.73657  -1.01994  -7.82176 
 H                     11.21871  -1.97551  -7.67164 
 H                     11.17291  -0.312    -7.07343 
 H                     8.39251  -1.55256  -1.01657 
 H                     7.05579  -1.11978   0.04637 
 H                     8.13853   0.13781  -0.5526 
 H                     11.03612  -2.51667  -3.95814 
 H                     11.94019  -1.19766  -4.71087 
 H                     11.98151  -2.81835  -5.41806 
 
 ITRead=  0  0  0  0  0  0  0  0  0  0  0  0  0  0  0  0  0  0  0  0
 ITRead=  0  0  0  0  0  0  0  0  0  0  0  0  0  0  0  0  0  0  0  0
 ITRead=  0  0  0  0  0  0  0  0  0
 MicOpt= -1 -1 -1 -1 -1 -1 -1 -1 -1 -1 -1 -1 -1 -1 -1 -1 -1 -1 -1 -1
 MicOpt= -1 -1 -1 -1 -1 -1 -1 -1 -1 -1 -1 -1 -1 -1 -1 -1 -1 -1 -1 -1
 MicOpt= -1 -1 -1 -1 -1 -1 -1 -1 -1
 NAtoms=     49 NQM=       49 NQMF=       0 NMMI=      0 NMMIF=      0
                NMic=       0 NMicF=      0.
                    Isotopes and Nuclear Properties:
 (Nuclear quadrupole moments (NQMom) in fm**2, nuclear magnetic moments (NMagM)
  in nuclear magnetons)

  Atom         1           2           3           4           5           6           7           8           9          10
 IAtWgt=          12          12          12          12          12          12          12          12          12          12
 AtmWgt=  12.0000000  12.0000000  12.0000000  12.0000000  12.0000000  12.0000000  12.0000000  12.0000000  12.0000000  12.0000000
 NucSpn=           0           0           0           0           0           0           0           0           0           0
 AtZEff=  -0.0000000  -0.0000000  -0.0000000  -0.0000000  -0.0000000  -0.0000000  -0.0000000  -0.0000000  -0.0000000  -0.0000000
 NQMom=    0.0000000   0.0000000   0.0000000   0.0000000   0.0000000   0.0000000   0.0000000   0.0000000   0.0000000   0.0000000
 NMagM=    0.0000000   0.0000000   0.0000000   0.0000000   0.0000000   0.0000000   0.0000000   0.0000000   0.0000000   0.0000000
 AtZNuc=   6.0000000   6.0000000   6.0000000   6.0000000   6.0000000   6.0000000   6.0000000   6.0000000   6.0000000   6.0000000

  Atom        11          12          13          14          15          16          17          18          19          20
 IAtWgt=          16          16           1           1           1           1          16           1          12          12
 AtmWgt=  15.9949146  15.9949146   1.0078250   1.0078250   1.0078250   1.0078250  15.9949146   1.0078250  12.0000000  12.0000000
 NucSpn=           0           0           1           1           1           1           0           1           0           0
 AtZEff=  -0.0000000  -0.0000000  -0.0000000  -0.0000000  -0.0000000  -0.0000000  -0.0000000  -0.0000000  -0.0000000  -0.0000000
 NQMom=    0.0000000   0.0000000   0.0000000   0.0000000   0.0000000   0.0000000   0.0000000   0.0000000   0.0000000   0.0000000
 NMagM=    0.0000000   0.0000000   2.7928460   2.7928460   2.7928460   2.7928460   0.0000000   2.7928460   0.0000000   0.0000000
 AtZNuc=   8.0000000   8.0000000   1.0000000   1.0000000   1.0000000   1.0000000   8.0000000   1.0000000   6.0000000   6.0000000

  Atom        21          22          23          24          25          26          27          28          29          30
 IAtWgt=          12          12          12          12          12          12          12          12           1           1
 AtmWgt=  12.0000000  12.0000000  12.0000000  12.0000000  12.0000000  12.0000000  12.0000000  12.0000000   1.0078250   1.0078250
 NucSpn=           0           0           0           0           0           0           0           0           1           1
 AtZEff=  -0.0000000  -0.0000000  -0.0000000  -0.0000000  -0.0000000  -0.0000000  -0.0000000  -0.0000000  -0.0000000  -0.0000000
 NQMom=    0.0000000   0.0000000   0.0000000   0.0000000   0.0000000   0.0000000   0.0000000   0.0000000   0.0000000   0.0000000
 NMagM=    0.0000000   0.0000000   0.0000000   0.0000000   0.0000000   0.0000000   0.0000000   0.0000000   2.7928460   2.7928460
 AtZNuc=   6.0000000   6.0000000   6.0000000   6.0000000   6.0000000   6.0000000   6.0000000   6.0000000   1.0000000   1.0000000

  Atom        31          32          33          34          35          36          37          38          39          40
 IAtWgt=           1           1           1           1           1           1           1           1           1           1
 AtmWgt=   1.0078250   1.0078250   1.0078250   1.0078250   1.0078250   1.0078250   1.0078250   1.0078250   1.0078250   1.0078250
 NucSpn=           1           1           1           1           1           1           1           1           1           1
 AtZEff=  -0.0000000  -0.0000000  -0.0000000  -0.0000000  -0.0000000  -0.0000000  -0.0000000  -0.0000000  -0.0000000  -0.0000000
 NQMom=    0.0000000   0.0000000   0.0000000   0.0000000   0.0000000   0.0000000   0.0000000   0.0000000   0.0000000   0.0000000
 NMagM=    2.7928460   2.7928460   2.7928460   2.7928460   2.7928460   2.7928460   2.7928460   2.7928460   2.7928460   2.7928460
 AtZNuc=   1.0000000   1.0000000   1.0000000   1.0000000   1.0000000   1.0000000   1.0000000   1.0000000   1.0000000   1.0000000

  Atom        41          42          43          44          45          46          47          48          49
 IAtWgt=           1           1           1           1           1           1           1           1           1
 AtmWgt=   1.0078250   1.0078250   1.0078250   1.0078250   1.0078250   1.0078250   1.0078250   1.0078250   1.0078250
 NucSpn=           1           1           1           1           1           1           1           1           1
 AtZEff=  -0.0000000  -0.0000000  -0.0000000  -0.0000000  -0.0000000  -0.0000000  -0.0000000  -0.0000000  -0.0000000
 NQMom=    0.0000000   0.0000000   0.0000000   0.0000000   0.0000000   0.0000000   0.0000000   0.0000000   0.0000000
 NMagM=    2.7928460   2.7928460   2.7928460   2.7928460   2.7928460   2.7928460   2.7928460   2.7928460   2.7928460
 AtZNuc=   1.0000000   1.0000000   1.0000000   1.0000000   1.0000000   1.0000000   1.0000000   1.0000000   1.0000000
 Leave Link  101 at Sun Jan 21 08:40:58 2024, MaxMem=  4026531840 cpu:               1.7 elap:               0.2
 (Enter /sysapps/ubuntu-applications/gaussian/Gaussian/SSE_4/g16/l202.exe)
                          Input orientation:                          
 ---------------------------------------------------------------------
 Center     Atomic      Atomic             Coordinates (Angstroms)
 Number     Number       Type             X           Y           Z
 ---------------------------------------------------------------------
      1          6           0        0.145091    3.715020   -0.156611
      2          6           0       -0.927612    3.642814   -1.025777
      3          6           0       -0.947963    2.666088   -2.041972
      4          6           0        1.230078    2.818933   -0.270559
      5          6           0        1.211486    1.831429   -1.297091
      6          6           0        0.109036    1.779186   -2.167817
      7          6           0        2.352724    2.895176    0.640126
      8          6           0        3.415198    1.935880    0.443848
      9          6           0        3.425984    0.963922   -0.534173
     10          6           0        2.321097    0.868827   -1.463678
     11          8           0        2.471273    3.736203    1.590909
     12          8           0        2.296109    0.003509   -2.377908
     13          1           0        0.183516    4.457275    0.632756
     14          1           0       -1.755593    4.338892   -0.926439
     15          1           0       -1.790970    2.610088   -2.724269
     16          1           0        0.120311    1.018640   -2.940399
     17          8           0        4.439396    2.069567    1.336175
     18          1           0        4.130560    2.823013    1.886729
     19          6           0        4.575362   -0.001079   -0.677209
     20          6           0        5.596404    0.446499   -1.743186
     21          6           0        6.715524   -0.570760   -2.041334
     22          6           0        7.514744   -0.131921   -3.284768
     23          6           0        8.505902   -1.166123   -3.836700
     24          6           0        9.196688   -0.700109   -5.125195
     25          6           0       10.125637   -1.732336   -5.792520
     26          6           0       10.588473   -1.234279   -7.169402
     27          6           0        7.627890   -0.793558   -0.824809
     28          6           0       11.336307   -2.089021   -4.917478
     29          1           0        4.169611   -0.972605   -0.979306
     30          1           0        5.066978   -0.117826    0.291663
     31          1           0        6.045390    1.399719   -1.434441
     32          1           0        5.043713    0.639562   -2.667723
     33          1           0        6.230326   -1.528074   -2.282774
     34          1           0        8.052898    0.797904   -3.051906
     35          1           0        6.800843    0.122705   -4.077567
     36          1           0        7.969488   -2.103791   -4.036691
     37          1           0        9.259464   -1.398948   -3.077978
     38          1           0        9.772363    0.213701   -4.920154
     39          1           0        8.424000   -0.412050   -5.849167
     40          1           0        9.541736   -2.650321   -5.948388
     41          1           0        9.736572   -1.019936   -7.821755
     42          1           0       11.218708   -1.975509   -7.671644
     43          1           0       11.172915   -0.312004   -7.073428
     44          1           0        8.392507   -1.552559   -1.016573
     45          1           0        7.055793   -1.119776    0.046367
     46          1           0        8.138526    0.137807   -0.552598
     47          1           0       11.036122   -2.516674   -3.958142
     48          1           0       11.940194   -1.197661   -4.710872
     49          1           0       11.981513   -2.818350   -5.418063
 ---------------------------------------------------------------------
                    Distance matrix (angstroms):
                    1          2          3          4          5
     1  C    0.000000
     2  C    1.382518   0.000000
     3  C    2.418597   1.409631   0.000000
     4  C    1.411791   2.429971   2.811606   0.000000
     5  C    2.446591   2.816109   2.432020   1.424527   0.000000
     6  C    2.791720   2.419092   1.385525   2.436677   1.405805
     7  C    2.486077   3.754304   4.259186   1.447582   2.487326
     8  C    3.770874   4.892179   5.074414   2.462704   2.810360
     9  C    4.298296   5.135361   4.929730   2.886618   2.497722
    10  C    3.813691   4.294284   3.775093   2.533134   1.478374
    11  O    2.909536   4.290476   5.102367   2.418060   3.681816
    12  O    4.830771   5.046303   4.210247   3.674773   2.384505
    13  H    1.084214   2.156081   3.412150   2.143696   3.417031
    14  H    2.143467   1.086253   2.166784   3.413896   3.902347
    15  H    3.400305   2.167207   1.085968   3.897568   3.414365
    16  H    3.875636   3.413240   2.159274   3.405978   2.133483
    17  O    4.834975   6.071136   6.386811   3.666451   4.172553
    18  H    4.566714   5.894054   6.422672   3.614790   4.431810
    19  C    5.805835   6.609249   6.283588   4.394173   3.880464
    20  C    6.551127   7.300266   6.916978   5.182844   4.620015
    21  C    8.067880   8.786529   8.319027   6.686986   6.051351
    22  C    8.882348   9.519718   8.999489   7.569017   6.894684
    23  C   10.357209  10.955289  10.357724   9.029709   8.285133
    24  C   11.229942  11.754474  11.124365   9.970859   9.210131
    25  C   12.690487  13.182882  12.491492  11.416526  10.600537
    26  C   13.518100  13.933785  13.213355  12.312681  11.480875
    27  C    8.761623   9.639419   9.327159   7.368126   6.948658
    28  C   13.475758  14.085559  13.482688  12.158032  11.445048
    29  H    6.232770   6.876477   6.368588   4.849633   4.088288
    30  H    6.254329   7.198137   7.026773   4.864406   4.603103
    31  H    6.465833   7.336296   7.133006   5.153253   4.855087
    32  H    6.305602   6.882749   6.355986   5.003985   4.240889
    33  H    8.309073   8.919316   8.317260   6.924446   6.119362
    34  H    8.912110   9.635781   9.248004   7.640113   7.138100
    35  H    8.519252   9.024057   8.405738   7.266112   6.472379
    36  H   10.494511  11.011242  10.307841   9.156233   8.286251
    37  H   10.851675  11.550213  11.035823   9.494375   8.853070
    38  H   11.297564  11.891781  11.367652  10.068595   9.435690
    39  H   10.861779  11.276509  10.573711   9.659846   8.819011
    40  H   12.742024  13.169772  12.391855  11.455747  10.541049
    41  H   13.159436  13.477810  12.694564  12.004912  11.107593
    42  H   14.542449  14.942095  14.186808  13.324243  12.460826
    43  H   13.626158  14.093879  13.457350  12.447562  11.712832
    44  H    9.823787  10.670361  10.300136   8.424184   7.943370
    45  H    8.436484   9.357698   9.096925   7.039377   6.683593
    46  H    8.766314   9.731589   9.548546   7.415837   7.169833
    47  H   13.111072  13.772036  13.196629  11.756933  11.068454
    48  H   13.564667  14.233431  13.717003  12.270126  11.659094
    49  H   14.507539  15.089212  14.444667  13.185944  12.433678
                    6          7          8          9         10
     6  C    0.000000
     7  C    3.763524   0.000000
     8  C    4.216166   1.444862   0.000000
     9  C    3.786237   2.502121   1.378892   0.000000
    10  C    2.493547   2.921144   2.444241   1.446996   0.000000
    11  O    4.851608   1.274899   2.334075   3.621186   4.192243
    12  O    2.824970   4.180128   3.598434   2.366087   1.259054
    13  H    3.875683   2.673139   4.103278   4.907019   4.673462
    14  H    3.401464   4.627819   5.864233   6.196211   5.380463
    15  H    2.147105   5.345150   6.131534   5.892622   4.640062
    16  H    1.084177   4.617923   4.811521   4.089058   2.654545
    17  O    5.578019   2.349535   1.364955   2.397427   3.710545
    18  H    5.805306   2.172539   1.838655   3.132637   4.279980
    19  C    5.033818   3.881209   2.520825   1.507566   2.541059
    20  C    5.662824   4.711439   3.429145   2.537747   3.314230
    21  C    7.013125   6.183604   4.832342   3.930376   4.660159
    22  C    7.729451   7.156435   5.914783   5.048228   5.593910
    23  C    9.053584   8.625411   7.338990   6.422565   6.929940
    24  C    9.873115   9.643902   8.449160   7.559597   7.946195
    25  C   11.216129  11.100044   9.868034   8.933385   9.296008
    26  C   11.996475  12.077611  10.930112  10.007977  10.262936
    27  C    8.059519   6.601528   5.177460   4.563904   5.597654
    28  C   12.189146  11.680494  10.377264   9.545000  10.097109
    29  H    5.047096   4.569832   3.324724   2.121618   2.653769
    30  H    5.850546   4.070231   2.639933   2.131911   3.405080
    31  H    5.993508   4.491770   3.276179   2.803870   3.762055
    32  H    5.089173   4.824011   3.743578   2.697090   2.985787
    33  H    6.958547   6.568431   5.230525   4.139080   4.658125
    34  H    8.052917   7.107857   5.918070   5.270187   5.948196
    35  H    7.153416   7.051878   5.932402   4.965175   5.239965
    36  H    8.964201   8.854961   7.558818   6.505530   6.881946
    37  H    9.729299   8.942419   7.594721   6.788489   7.475942
    38  H   10.168874   9.651843   8.494231   7.750883   8.240011
    39  H    9.353741   9.482039   8.378718   7.424461   7.623555
    40  H   11.085535  11.217974   9.971378   8.931903   9.199709
    41  H   11.510497  11.893391  10.817431   9.842158   9.948962
    42  H   12.954330  13.092546  11.918680  10.968605  11.215907
    43  H   12.282000  12.148279  11.033793  10.217866  10.546011
    44  H    9.002321   7.681535   6.251051   5.588536   6.551720
    45  H    7.846275   6.212185   4.769587   4.225439   5.352768
    46  H    8.353189   6.519293   5.151291   4.784439   5.933543
    47  H   11.876906  11.217557   9.863125   9.041699   9.676550
    48  H   12.462145  11.717682  10.443456   9.726717  10.360582
    49  H   13.139907  12.730264  11.416937  10.552490  11.070505
                   11         12         13         14         15
    11  O    0.000000
    12  O    5.451165   0.000000
    13  H    2.582989   5.776087   0.000000
    14  H    4.956478   6.108895   2.491033   0.000000
    15  H    6.168923   4.859880   4.310489   2.494435   0.000000
    16  H    5.783159   2.465965   4.959399   4.312670   2.496480
    17  O    2.591539   4.759904   4.930361   6.974751   7.456328
    18  H    1.916940   5.431569   4.452237   6.697656   7.508073
    19  C    4.851683   2.843834   6.393844   7.679743   7.179055
    20  C    5.630700   3.389846   7.143583   8.358807   7.759957
    21  C    7.053849   4.469261   8.665969   9.854314   9.107394
    22  C    8.010693   5.298574   9.494979  10.558837   9.717463
    23  C    9.482009   6.485186  10.993669  12.003045  11.023740
    24  C   10.488952   7.460607  11.873916  12.766109  11.723928
    25  C   11.958647   8.716320  13.358189  14.202189  13.048997
    26  C   12.935906   9.656803  14.196147  14.913443  13.703612
    27  C    7.276340   5.610287   9.225749  10.695893  10.193512
    28  C   12.445126   9.620461  14.072805  15.120989  14.114432
    29  H    5.627009   2.533554   6.926131   7.957565   7.170015
    30  H    4.824859   3.849551   6.700455   8.239756   7.973005
    31  H    5.233184   4.110552   6.927014   8.351775   8.033504
    32  H    5.860254   2.835116   7.006398   7.933957   7.113302
    33  H    7.539795   4.222897   8.993811  10.001792   9.036620
    34  H    7.832233   5.850295   9.428409  10.642495  10.014644
    35  H    7.995884   4.816189   9.206772  10.045817   9.046421
    36  H    9.798254   6.275309  11.201459  12.073071  10.918317
    37  H    9.708132   7.137597  11.420934  12.604896  11.760509
    38  H   10.397494   7.899466  11.865442  12.878693  12.011463
    39  H   10.392194   7.055025  11.559897  12.264942  11.101528
    40  H   12.149903   8.502367  13.468692  14.202067  12.903374
    41  H   12.806392   9.275958  13.883064  14.433720  13.116618
    42  H   13.961954  10.561862  15.235460  15.928024  14.654554
    43  H   12.929706  10.047146  14.244233  15.051997  13.982708
    44  H    8.356493   6.437441  10.306596  11.734618  11.133151
    45  H    6.854485   5.458340   8.869923  10.410760   9.992674
    46  H    7.047044   6.122388   9.129351  10.755578  10.460555
    47  H   11.968587   9.232350  13.692749  14.826260  13.868685
    48  H   12.398223   9.994694  14.097948  15.249588  14.387161
    49  H   13.510460  10.536246  15.124148  16.127891  15.046785
                   16         17         18         19         20
    16  H    0.000000
    17  O    6.168308   0.000000
    18  H    6.529856   0.982940   0.000000
    19  C    5.099935   2.891328   3.840198   0.000000
    20  C    5.634559   3.668171   4.579607   1.542453   0.000000
    21  C    6.843343   4.853829   5.799087   2.601090   1.541473
    22  C    7.491330   5.971384   6.850454   3.931469   2.528057
    23  C    8.711755   7.332448   8.234954   5.175795   3.930462
    24  C    9.492526   8.488359   9.340510   6.452122   5.070970
    25  C   10.761460   9.879580  10.754674   7.743979   6.454330
    26  C   11.512711  11.003244  11.839754   8.934588   7.562380
    27  C    8.007717   4.799357   5.715185   3.157172   2.551096
    28  C   11.805294  10.196539  11.061108   8.249228   7.032174
    29  H    4.920140   3.832629   4.756301   1.095335   2.152465
    30  H    6.017250   2.503907   3.474140   1.092716   2.177008
    31  H    6.125332   3.271731   4.089317   2.167168   1.097971
    32  H    4.945497   4.294335   5.132674   2.142876   1.094308
    33  H    6.652105   5.408072   6.381671   2.765585   2.142884
    34  H    7.936441   5.824927   6.623890   4.286119   2.805458
    35  H    6.835595   6.218947   7.070707   4.065775   2.646668
    36  H    8.518275   7.664604   8.608000   5.218008   4.170812
    37  H    9.454511   7.399216   8.293306   5.445966   4.313392
    38  H    9.885821   8.427718   9.218032   6.712491   5.252233
    39  H    8.913981   8.582810   9.420369   6.459881   5.058803
    40  H   10.548579  10.068569  10.983045   7.711594   6.545201
    41  H   10.975241  11.021469  11.851172   8.872468   7.499362
    42  H   12.430769  11.977584  12.830828   9.846550   8.521915
    43  H   11.874873  11.033294  11.819793   9.194346   7.751405
    44  H    8.873635   5.855109   6.763060   4.134351   3.513174
    45  H    7.848217   4.322158   5.243044   2.815596   2.790257
    46  H    8.412445   4.580690   5.405963   3.568046   2.824035
    47  H   11.519079   9.621860  10.505311   7.670343   6.578522
    48  H   12.155501  10.173668  10.985652   8.481922   7.194032
    49  H   12.710209  11.242553  12.117030   9.233839   8.058137
                   21         22         23         24         25
    21  C    0.000000
    22  C    1.541902   0.000000
    23  C    2.604467   1.535121   0.000000
    24  C    3.960190   2.557136   1.534462   0.000000
    25  C    5.200916   3.958145   2.601801   1.540702   0.000000
    26  C    6.460424   5.074779   3.930477   2.530056   1.535605
    27  C    1.536875   2.549895   3.159303   4.578557   5.638989
    28  C    5.650571   4.593509   3.167178   2.559334   1.535788
    29  H    2.787661   4.148713   5.196688   6.521821   7.695354
    30  H    2.892357   4.333892   5.474350   6.836367   8.075516
    31  H    2.167991   2.815783   4.290514   5.287875   6.741738
    32  H    2.156895   2.661189   4.075998   5.008102   6.419985
    33  H    1.100073   2.145452   2.779198   4.190965   5.247236
    34  H    2.164039   1.099277   2.162988   2.801933   4.267239
    35  H    2.152770   1.096822   2.150888   2.741281   4.175703
    36  H    2.811416   2.158808   1.098616   2.158978   2.805333
    37  H    2.869174   2.166141   1.094405   2.164120   2.868822
    38  H    4.271680   2.809054   2.163726   1.099314   2.161686
    39  H    4.176562   2.735208   2.150664   1.097342   2.154514
    40  H    5.251392   4.188783   2.781191   2.144768   1.099059
    41  H    6.537718   5.129263   4.173318   2.768610   2.185562
    42  H    7.345228   6.030161   4.766678   3.492794   2.187474
    43  H    6.727352   5.269591   4.280057   2.802090   2.180564
    44  H    2.196892   2.816627   2.848738   4.272488   5.083870
    45  H    2.185337   3.504705   4.145259   5.612896   6.625087
    46  H    2.177920   2.815424   3.552538   4.767647   5.907862
    47  H    5.111585   4.305878   2.870671   2.836448   2.192969
    48  H    5.900561   4.770134   3.543943   2.818873   2.179095
    49  H    6.647150   5.632040   4.160581   3.511120   2.182641
                   26         27         28         29         30
    26  C    0.000000
    27  C    7.015208   0.000000
    28  C    2.522103   5.672788   0.000000
    29  H    8.921186   3.466356   8.253309   0.000000
    30  H    9.348843   2.874264   8.386015   1.775184   0.000000
    31  H    7.776074   2.772440   7.231643   3.058368   2.497933
    32  H    7.383817   3.482547   7.218262   2.492767   3.054856
    33  H    6.554303   2.149037   5.772986   2.500824   3.157515
    34  H    5.245253   2.770080   4.753469   4.744501   4.575340
    35  H    5.074149   3.479077   5.115429   4.209787   4.706837
    36  H    4.174807   3.485626   3.480154   5.006621   5.577031
    37  H    4.305012   2.846981   2.858888   5.522028   5.529258
    38  H    2.796748   4.731299   2.783605   6.951866   7.029480
    39  H    2.665338   5.101325   3.487378   6.490731   7.004710
    40  H    2.142827   5.775936   2.144369   7.507745   8.085495
    41  H    1.094186   7.311295   3.483808   8.821134   9.404598
    42  H    1.094927   7.821134   2.759012   9.771539  10.232743
    43  H    1.096072   7.200301   2.798679   9.307039   9.568947
    44  H    6.540709   1.094301   4.916382   4.262697   3.850855
    45  H    8.034940   1.092090   6.625858   3.066547   2.240415
    46  H    7.187973   1.096489   5.851217   4.143354   3.195705
    47  H    3.486706   4.939934   1.092394   7.642420   7.710123
    48  H    2.805862   5.818999   1.096307   8.623062   8.569276
    49  H    2.741720   6.644682   1.094896   9.172522   9.365073
                   31         32         33         34         35
    31  H    0.000000
    32  H    1.761301   0.000000
    33  H    3.053824   2.500976   0.000000
    34  H    2.647350   3.037740   3.053442   0.000000
    35  H    3.031104   2.311343   2.504365   1.753715   0.000000
    36  H    4.769533   4.237950   2.536210   3.065386   2.514893
    37  H    4.567715   4.700680   3.134438   2.506519   3.059317
    38  H    5.239004   5.254991   4.747165   2.605418   3.090010
    39  H    5.331988   4.759602   4.333229   3.070240   2.461538
    40  H    7.000213   6.466707   5.065728   4.743048   4.324597
    41  H    7.763848   7.165257   6.575126   5.375013   4.893166
    42  H    8.778273   8.367101   7.356906   6.249492   6.069384
    43  H    7.811510   7.608077   6.989877   5.209514   5.317816
    44  H    3.794670   4.329678   2.505772   3.127713   3.835308
    45  H    3.092177   3.809202   2.504596   3.777699   4.314579
    46  H    2.598324   3.781981   3.067555   2.586426   3.770283
    47  H    6.827489   6.894634   5.184579   4.550529   4.991810
    48  H    7.227039   7.423698   6.213487   4.673919   5.343910
    49  H    8.300537   8.225241   6.676152   5.840377   6.106233
                   36         37         38         39         40
    36  H    0.000000
    37  H    1.754985   0.000000
    38  H    3.066208   2.501462   0.000000
    39  H    2.520642   3.058015   1.752915   0.000000
    40  H    2.534807   3.144021   3.051733   2.503804   0.000000
    41  H    4.315558   4.782751   3.153162   2.446114   2.491108
    42  H    4.877168   5.027209   3.802006   3.684592   2.497442
    43  H    4.763845   4.561399   2.621927   3.010873   3.064994
    44  H    3.099018   2.241562   4.501291   4.965452   5.181564
    45  H    4.298196   3.833489   5.815861   6.093454   6.667801
    46  H    4.146353   3.161592   4.663768   5.332680   6.233555
    47  H    3.095301   2.276074   3.158718   3.850792   2.492415
    48  H    4.128208   3.145341   2.595233   3.778428   3.065007
    49  H    4.302921   3.860084   3.784388   4.316483   2.502397
                   41         42         43         44         45
    41  H    0.000000
    42  H    1.769853   0.000000
    43  H    1.767553   1.768391   0.000000
    44  H    6.957061   7.242670   6.779022   0.000000
    45  H    8.312875   8.810779   8.264059   1.761802   0.000000
    46  H    7.532248   8.039555   7.206322   1.771191   1.764252
    47  H    4.342414   3.757166   3.818938   4.070755   5.816394
    48  H    3.816429   3.145117   2.637191   5.134187   6.818707
    49  H    3.748571   2.524060   3.110600   5.818617   7.550355
                   46         47         48         49
    46  H    0.000000
    47  H    5.200006   0.000000
    48  H    5.790285   1.767412   0.000000
    49  H    6.868782   1.765260   1.768745   0.000000
 Stoichiometry    C20H26O3(1-,2)
 Framework group  C1[X(C20H26O3)]
 Deg. of freedom   141
 Full point group                 C1      NOp   1
 Largest Abelian subgroup         C1      NOp   1
 Largest concise Abelian subgroup C1      NOp   1
                         Standard orientation:                         
 ---------------------------------------------------------------------
 Center     Atomic      Atomic             Coordinates (Angstroms)
 Number     Number       Type             X           Y           Z
 ---------------------------------------------------------------------
      1          6           0       -5.710103   -0.447362   -0.861216
      2          6           0       -6.201010   -1.724576   -0.663501
      3          6           0       -5.420754   -2.683470    0.013833
      4          6           0       -4.429157   -0.083994   -0.391864
      5          6           0       -3.639024   -1.051757    0.292536
      6          6           0       -4.161338   -2.343314    0.480572
      7          6           0       -3.916092    1.253647   -0.599169
      8          6           0       -2.595146    1.530340   -0.083256
      9          6           0       -1.807104    0.620038    0.588819
     10          6           0       -2.290476   -0.726783    0.803811
     11          8           0       -4.536581    2.193864   -1.196123
     12          8           0       -1.599078   -1.591852    1.402843
     13          1           0       -6.291337    0.307284   -1.379093
     14          1           0       -7.188377   -1.990285   -1.030176
     15          1           0       -5.807143   -3.686488    0.168697
     16          1           0       -3.539293   -3.060667    1.003932
     17          8           0       -2.177206    2.808422   -0.317634
     18          1           0       -2.948344    3.188984   -0.793752
     19          6           0       -0.434787    0.984453    1.095479
     20          6           0        0.687339    0.560486    0.125817
     21          6           0        2.119808    0.771299    0.654711
     22          6           0        3.137123    0.085581   -0.279270
     23          6           0        4.577435    0.011792    0.246708
     24          6           0        5.514075   -0.763445   -0.689395
     25          6           0        6.950979   -0.967986   -0.172452
     26          6           0        7.724820   -1.927316   -1.088388
     27          6           0        2.443506    2.259890    0.857937
     28          6           0        7.715100    0.354855   -0.014796
     29          1           0       -0.275212    0.469425    2.048916
     30          1           0       -0.393678    2.061815    1.273327
     31          1           0        0.567522    1.100834   -0.822449
     32          1           0        0.548374   -0.502528   -0.093723
     33          1           0        2.182948    0.272571    1.633202
     34          1           0        3.131640    0.600348   -1.250555
     35          1           0        2.786473   -0.934844   -0.476241
     36          1           0        4.573461   -0.473754    1.232196
     37          1           0        4.966917    1.022441    0.403603
     38          1           0        5.557300   -0.256196   -1.663726
     39          1           0        5.073324   -1.749449   -0.883549
     40          1           0        6.881824   -1.436228    0.819464
     41          1           0        7.216406   -2.892439   -1.173806
     42          1           0        8.735986   -2.111935   -0.711131
     43          1           0        7.818042   -1.511139   -2.098081
     44          1           0        3.441336    2.410655    1.281138
     45          1           0        1.727821    2.733443    1.533364
     46          1           0        2.398169    2.796202   -0.097366
     47          1           0        7.224756    1.029140    0.691056
     48          1           0        7.789403    0.875577   -0.976677
     49          1           0        8.733419    0.179507    0.347249
 ---------------------------------------------------------------------
 Rotational constants (GHZ):           0.5496832           0.0791526           0.0726894
 Leave Link  202 at Sun Jan 21 08:40:59 2024, MaxMem=  4026531840 cpu:               0.4 elap:               0.1
 (Enter /sysapps/ubuntu-applications/gaussian/Gaussian/SSE_4/g16/l301.exe)
 Standard basis: 6-311++G(d,p) (5D, 7F)
 Ernie: Thresh=  0.10000D-02 Tol=  0.10000D-05 Strict=F.
 There are   711 symmetry adapted cartesian basis functions of A   symmetry.
 There are   688 symmetry adapted basis functions of A   symmetry.
   688 basis functions,  1062 primitive gaussians,   711 cartesian basis functions
    86 alpha electrons       85 beta electrons
       nuclear repulsion energy      1803.3362681356 Hartrees.
 IExCor=  402 DFT=T Ex+Corr=B3LYP ExCW=0 ScaHFX=  0.200000
 ScaDFX=  0.800000  0.720000  1.000000  0.810000 ScalE2=  1.000000  1.000000
 IRadAn=      5 IRanWt=     -1 IRanGd=            0 ICorTp=0 IEmpDi=  4
 NAtoms=   49 NActive=   49 NUniq=   49 SFac= 1.00D+00 NAtFMM=   60 NAOKFM=F Big=F
 Integral buffers will be    131072 words long.
 Raffenetti 2 integral format.
 Two-electron integral symmetry is turned on.
 ------------------------------------------------------------------------------
 Polarizable Continuum Model (PCM)
 =================================
 Model                : PCM.
 Atomic radii         : UFF (Universal Force Field).
 Polarization charges : Total charges.
 Charge compensation  : None.
 Solution method      : On-the-fly selection.
 Cavity type          : Scaled VdW (van der Waals Surface) (Alpha=1.100).
 Cavity algorithm     : GePol (No added spheres)
                        Default sphere list used, NSphG=   49.
                        Lebedev-Laikov grids with approx.  5.0 points / Ang**2.
                        Smoothing algorithm: York/Karplus (Gamma=1.0000).
                        Polarization charges: spherical gaussians, with
                                              point-specific exponents (IZeta= 3).
                        Self-potential: point-specific (ISelfS= 7).
                        Self-field    : sphere-specific E.n sum rule (ISelfD= 2).
 Solvent              : n,n-DiMethylFormamide, Eps=  37.219000 Eps(inf)=   2.046330
 ------------------------------------------------------------------------------
 GePol: Number of generator spheres                  =      49
 GePol: Total number of spheres                      =      49
 GePol: Number of exposed spheres                    =      49 (100.00%)
 GePol: Number of points                             =    3364
 GePol: Average weight of points                     =       0.13
 GePol: Minimum weight of points                     =   0.93D-11
 GePol: Maximum weight of points                     =    0.20577
 GePol: Number of points with low weight             =     245
 GePol: Fraction of low-weight points (<1% of avg)   =       7.28%
 GePol: Cavity surface area                          =    436.879 Ang**2
 GePol: Cavity volume                                =    476.698 Ang**3
 Leave Link  301 at Sun Jan 21 08:40:59 2024, MaxMem=  4026531840 cpu:               0.7 elap:               0.1
 (Enter /sysapps/ubuntu-applications/gaussian/Gaussian/SSE_4/g16/l302.exe)
 NPDir=0 NMtPBC=     1 NCelOv=     1 NCel=       1 NClECP=     1 NCelD=      1
         NCelK=      1 NCelE2=     1 NClLst=     1 CellRange=     0.0.
 One-electron integrals computed using PRISM.
 One-electron integral symmetry used in STVInt
 NBasis=   688 RedAO= T EigKep=  1.02D-06  NBF=   688
 NBsUse=   684 1.00D-06 EigRej=  5.40D-07 NBFU=   684
 Precomputing XC quadrature grid using
 IXCGrd= 4 IRadAn=           5 IRanWt=          -1 IRanGd=           0 AccXCQ= 0.00D+00.
 Generated NRdTot=       0 NPtTot=           0 NUsed=           0 NTot=          32
 NSgBfM=   696   696   696   696   696 MxSgAt=    49 MxSgA2=    49.
 Leave Link  302 at Sun Jan 21 08:41:00 2024, MaxMem=  4026531840 cpu:              12.8 elap:               1.6
 (Enter /sysapps/ubuntu-applications/gaussian/Gaussian/SSE_4/g16/l303.exe)
 DipDrv:  MaxL=1.
 Leave Link  303 at Sun Jan 21 08:41:00 2024, MaxMem=  4026531840 cpu:               1.0 elap:               0.2
 (Enter /sysapps/ubuntu-applications/gaussian/Gaussian/SSE_4/g16/l401.exe)
 ExpMin= 3.60D-02 ExpMax= 8.59D+03 ExpMxC= 1.30D+03 IAcc=3 IRadAn=         5 AccDes= 0.00D+00
 Harris functional with IExCor=  402 and IRadAn=       5 diagonalized for initial guess.
 HarFok:  IExCor=  402 AccDes= 0.00D+00 IRadAn=         5 IDoV= 1 UseB2=F ITyADJ=14
 ICtDFT=  3500011 ScaDFX=  1.000000  1.000000  1.000000  1.000000
 FoFCou: FMM=F IPFlag=           0 FMFlag=      100000 FMFlg1=           0
         NFxFlg=           0 DoJE=T BraDBF=F KetDBF=T FulRan=T
         wScrn=  0.000000 ICntrl=       500 IOpCl=  0 I1Cent=   200000004 NGrid=           0
         NMat0=    1 NMatS0=      1 NMatT0=    0 NMatD0=    1 NMtDS0=    0 NMtDT0=    0
 Petite list used in FoFCou.
 Harris En= -1004.10772151713    
 JPrj=0 DoOrth=F DoCkMO=F.
 Initial guess <Sx>= 0.0000 <Sy>= 0.0000 <Sz>= 0.5000 <S**2>= 0.7500 S= 0.5000
 Leave Link  401 at Sun Jan 21 08:41:11 2024, MaxMem=  4026531840 cpu:              80.1 elap:              10.0
 (Enter /sysapps/ubuntu-applications/gaussian/Gaussian/SSE_4/g16/l502.exe)
 Integral symmetry usage will be decided dynamically.
 UHF open shell SCF:
 Using DIIS extrapolation, IDIIS=  1040.
 NGot=  4026531840 LenX=  4025508197 LenY=  4025001965
 Requested convergence on RMS density matrix=1.00D-08 within 128 cycles.
 Requested convergence on MAX density matrix=1.00D-06.
 Requested convergence on             energy=1.00D-06.
 No special actions if energy rises.
 Fock matrices will be formed incrementally for  20 cycles.

 Cycle   1  Pass 1  IDiag  1:
 FoFJK:  IHMeth= 1 ICntrl=       0 DoSepK=F KAlg= 0 I1Cent=           0 FoldK=F
 IRaf= 750000000 NMat=       1 IRICut=       1 DoRegI=T DoRafI=F ISym2E= 0 IDoP0=0 IntGTp=1.
 FoFCou: FMM=F IPFlag=           0 FMFlag=      100000 FMFlg1=           0
         NFxFlg=           0 DoJE=F BraDBF=F KetDBF=F FulRan=T
         wScrn=  0.000000 ICntrl=         0 IOpCl=  1 I1Cent=           0 NGrid=           0
         NMat0=    1 NMatS0=      1 NMatT0=    0 NMatD0=    1 NMtDS0=    0 NMtDT0=    0
 Symmetry not used in FoFCou.
 Inv3:  Mode=1 IEnd=    33949488.
 Iteration    1 A*A^-1 deviation from unit magnitude is 9.21D-15 for    411.
 Iteration    1 A*A^-1 deviation from orthogonality  is 3.65D-15 for   1682    831.
 Iteration    1 A^-1*A deviation from unit magnitude is 8.99D-15 for    411.
 Iteration    1 A^-1*A deviation from orthogonality  is 5.66D-15 for   2372    402.
 E= -1003.13809039285    
 DIIS: error= 2.80D-02 at cycle   1 NSaved=   1.
 NSaved= 1 IEnMin= 1 EnMin= -1003.13809039285     IErMin= 1 ErrMin= 2.80D-02
 ErrMax= 2.80D-02  0.00D+00 EMaxC= 1.00D-01 BMatC= 3.39D+00 BMatP= 3.39D+00
 IDIUse=3 WtCom= 7.20D-01 WtEn= 2.80D-01
 Coeff-Com:  0.100D+01
 Coeff-En:   0.100D+01
 Coeff:      0.100D+01
 Gap=     0.131 Goal=   None    Shift=    0.000
 Gap=     0.128 Goal=   None    Shift=    0.000
 GapD=    0.128 DampG=1.000 DampE=0.500 DampFc=0.5000 IDamp=-1.
 Damping current iteration by 5.00D-01
 RMSDP=2.73D-02 MaxDP=5.19D+00              OVMax= 2.61D-01

 Cycle   2  Pass 1  IDiag  1:
 RMSU=  1.35D-02    CP:  1.03D+00
 E= -1003.42231080754     Delta-E=       -0.284220414697 Rises=F Damp=T
 DIIS: error= 1.15D-02 at cycle   2 NSaved=   2.
 NSaved= 2 IEnMin= 2 EnMin= -1003.42231080754     IErMin= 2 ErrMin= 1.15D-02
 ErrMax= 1.15D-02  0.00D+00 EMaxC= 1.00D-01 BMatC= 3.11D-01 BMatP= 3.39D+00
 IDIUse=3 WtCom= 8.85D-01 WtEn= 1.15D-01
 Coeff-Com:  0.137D+00 0.863D+00
 Coeff-En:   0.239D+00 0.761D+00
 Coeff:      0.148D+00 0.852D+00
 Gap=     0.154 Goal=   None    Shift=    0.000
 Gap=     0.177 Goal=   None    Shift=    0.000
 RMSDP=1.48D-02 MaxDP=3.24D+00 DE=-2.84D-01 OVMax= 2.06D-01

 Cycle   3  Pass 1  IDiag  1:
 RMSU=  6.19D-03    CP:  8.66D-01  2.50D-01
 E= -1003.84074326096     Delta-E=       -0.418432453419 Rises=F Damp=F
 DIIS: error= 1.54D-02 at cycle   3 NSaved=   3.
 NSaved= 3 IEnMin= 3 EnMin= -1003.84074326096     IErMin= 2 ErrMin= 1.15D-02
 ErrMax= 1.54D-02  0.00D+00 EMaxC= 1.00D-01 BMatC= 3.60D-01 BMatP= 3.11D-01
 IDIUse=2 WtCom= 0.00D+00 WtEn= 1.00D+00
 Coeff-En:   0.000D+00 0.000D+00 0.100D+01
 Coeff:      0.000D+00 0.000D+00 0.100D+01
 Gap=     0.115 Goal=   None    Shift=    0.000
 Gap=     0.159 Goal=   None    Shift=    0.000
 RMSDP=1.22D-02 MaxDP=1.99D+00 DE=-4.18D-01 OVMax= 3.09D-01

 Cycle   4  Pass 1  IDiag  1:
 RMSU=  6.64D-03    CP:  9.80D-01  7.39D-01  2.11D-01
 E= -1003.51115413719     Delta-E=        0.329589123767 Rises=F Damp=F
 DIIS: error= 4.60D-02 at cycle   4 NSaved=   4.
 NSaved= 4 IEnMin= 3 EnMin= -1003.84074326096     IErMin= 2 ErrMin= 1.15D-02
 ErrMax= 4.60D-02  0.00D+00 EMaxC= 1.00D-01 BMatC= 2.02D+00 BMatP= 3.11D-01
 IDIUse=2 WtCom= 0.00D+00 WtEn= 1.00D+00
 Coeff-En:   0.000D+00 0.000D+00 0.794D+00 0.206D+00
 Coeff:      0.000D+00 0.000D+00 0.794D+00 0.206D+00
 Gap=     0.117 Goal=   None    Shift=    0.000
 Gap=     0.123 Goal=   None    Shift=    0.000
 RMSDP=7.82D-03 MaxDP=1.59D+00 DE= 3.30D-01 OVMax= 1.20D-01

 Cycle   5  Pass 1  IDiag  1:
 RMSU=  1.36D-03    CP:  8.98D-01  3.98D-01  6.78D-01  5.17D-01
 E= -1003.88318389726     Delta-E=       -0.372029760063 Rises=F Damp=F
 DIIS: error= 1.14D-02 at cycle   5 NSaved=   5.
 NSaved= 5 IEnMin= 5 EnMin= -1003.88318389726     IErMin= 5 ErrMin= 1.14D-02
 ErrMax= 1.14D-02  0.00D+00 EMaxC= 1.00D-01 BMatC= 1.52D-01 BMatP= 3.11D-01
 IDIUse=3 WtCom= 8.86D-01 WtEn= 1.14D-01
 Coeff-Com:  0.244D-02 0.111D-01 0.314D+00-0.764D-01 0.749D+00
 Coeff-En:   0.000D+00 0.000D+00 0.338D+00 0.000D+00 0.662D+00
 Coeff:      0.216D-02 0.986D-02 0.317D+00-0.677D-01 0.739D+00
 Gap=     0.118 Goal=   None    Shift=    0.000
 Gap=     0.146 Goal=   None    Shift=    0.000
 RMSDP=2.76D-03 MaxDP=3.90D-01 DE=-3.72D-01 OVMax= 3.59D-02

 Cycle   6  Pass 1  IDiag  1:
 RMSU=  5.77D-04    CP:  8.64D-01  3.20D-01  8.05D-01  2.91D-01  8.13D-01
 E= -1003.91270079210     Delta-E=       -0.029516894845 Rises=F Damp=F
 DIIS: error= 1.34D-03 at cycle   6 NSaved=   6.
 NSaved= 6 IEnMin= 6 EnMin= -1003.91270079210     IErMin= 6 ErrMin= 1.34D-03
 ErrMax= 1.34D-03  0.00D+00 EMaxC= 1.00D-01 BMatC= 1.83D-03 BMatP= 1.52D-01
 IDIUse=3 WtCom= 9.87D-01 WtEn= 1.34D-02
 Coeff-Com:  0.404D-04 0.492D-02 0.168D+00-0.672D-01 0.501D+00 0.394D+00
 Coeff-En:   0.000D+00 0.000D+00 0.000D+00 0.000D+00 0.000D+00 0.100D+01
 Coeff:      0.399D-04 0.486D-02 0.165D+00-0.663D-01 0.494D+00 0.402D+00
 Gap=     0.117 Goal=   None    Shift=    0.000
 Gap=     0.133 Goal=   None    Shift=    0.000
 RMSDP=2.79D-04 MaxDP=3.31D-02 DE=-2.95D-02 OVMax= 5.87D-03

 Cycle   7  Pass 1  IDiag  1:
 RMSU=  1.46D-04    CP:  8.65D-01  3.22D-01  8.09D-01  3.11D-01  8.65D-01
                    CP:  7.23D-01
 E= -1003.91302870457     Delta-E=       -0.000327912463 Rises=F Damp=F
 DIIS: error= 3.58D-04 at cycle   7 NSaved=   7.
 NSaved= 7 IEnMin= 7 EnMin= -1003.91302870457     IErMin= 7 ErrMin= 3.58D-04
 ErrMax= 3.58D-04  0.00D+00 EMaxC= 1.00D-01 BMatC= 1.25D-04 BMatP= 1.83D-03
 IDIUse=3 WtCom= 9.96D-01 WtEn= 3.58D-03
 Coeff-Com:  0.239D-03 0.677D-03 0.500D-01-0.261D-01 0.161D+00 0.177D+00
 Coeff-Com:  0.638D+00
 Coeff-En:   0.000D+00 0.000D+00 0.000D+00 0.000D+00 0.000D+00 0.000D+00
 Coeff-En:   0.100D+01
 Coeff:      0.238D-03 0.674D-03 0.498D-01-0.260D-01 0.160D+00 0.176D+00
 Coeff:      0.639D+00
 Gap=     0.117 Goal=   None    Shift=    0.000
 Gap=     0.133 Goal=   None    Shift=    0.000
 RMSDP=9.53D-05 MaxDP=1.26D-02 DE=-3.28D-04 OVMax= 2.47D-03

 Cycle   8  Pass 1  IDiag  1:
 RMSU=  6.14D-05    CP:  8.66D-01  3.20D-01  8.13D-01  3.11D-01  8.75D-01
                    CP:  7.31D-01  7.11D-01
 E= -1003.91305024993     Delta-E=       -0.000021545364 Rises=F Damp=F
 DIIS: error= 1.56D-04 at cycle   8 NSaved=   8.
 NSaved= 8 IEnMin= 8 EnMin= -1003.91305024993     IErMin= 8 ErrMin= 1.56D-04
 ErrMax= 1.56D-04  0.00D+00 EMaxC= 1.00D-01 BMatC= 3.43D-05 BMatP= 1.25D-04
 IDIUse=3 WtCom= 9.98D-01 WtEn= 1.56D-03
 Coeff-Com:  0.395D-03-0.173D-02-0.649D-02 0.574D-03-0.218D-01 0.116D-02
 Coeff-Com:  0.395D+00 0.633D+00
 Coeff-En:   0.000D+00 0.000D+00 0.000D+00 0.000D+00 0.000D+00 0.000D+00
 Coeff-En:   0.000D+00 0.100D+01
 Coeff:      0.395D-03-0.173D-02-0.648D-02 0.573D-03-0.217D-01 0.115D-02
 Coeff:      0.394D+00 0.634D+00
 Gap=     0.118 Goal=   None    Shift=    0.000
 Gap=     0.133 Goal=   None    Shift=    0.000
 RMSDP=6.35D-05 MaxDP=1.21D-02 DE=-2.15D-05 OVMax= 1.44D-03

 Cycle   9  Pass 1  IDiag  1:
 RMSU=  3.45D-05    CP:  8.65D-01  3.19D-01  8.13D-01  3.09D-01  8.66D-01
                    CP:  7.32D-01  8.42D-01  8.19D-01
 E= -1003.91305980985     Delta-E=       -0.000009559924 Rises=F Damp=F
 DIIS: error= 4.63D-05 at cycle   9 NSaved=   9.
 NSaved= 9 IEnMin= 9 EnMin= -1003.91305980985     IErMin= 9 ErrMin= 4.63D-05
 ErrMax= 4.63D-05  0.00D+00 EMaxC= 1.00D-01 BMatC= 2.77D-06 BMatP= 3.43D-05
 IDIUse=1 WtCom= 1.00D+00 WtEn= 0.00D+00
 Coeff-Com:  0.115D-03-0.872D-03-0.940D-02 0.359D-02-0.297D-01-0.215D-01
 Coeff-Com:  0.528D-01 0.247D+00 0.758D+00
 Coeff:      0.115D-03-0.872D-03-0.940D-02 0.359D-02-0.297D-01-0.215D-01
 Coeff:      0.528D-01 0.247D+00 0.758D+00
 Gap=     0.118 Goal=   None    Shift=    0.000
 Gap=     0.133 Goal=   None    Shift=    0.000
 RMSDP=1.91D-05 MaxDP=4.47D-03 DE=-9.56D-06 OVMax= 9.22D-04

 Cycle  10  Pass 1  IDiag  1:
 RMSU=  1.40D-05    CP:  8.65D-01  3.19D-01  8.14D-01  3.08D-01  8.68D-01
                    CP:  7.40D-01  8.83D-01  9.37D-01  9.99D-01
 E= -1003.91306112972     Delta-E=       -0.000001319868 Rises=F Damp=F
 DIIS: error= 2.25D-05 at cycle  10 NSaved=  10.
 NSaved=10 IEnMin=10 EnMin= -1003.91306112972     IErMin=10 ErrMin= 2.25D-05
 ErrMax= 2.25D-05  0.00D+00 EMaxC= 1.00D-01 BMatC= 1.16D-06 BMatP= 2.77D-06
 IDIUse=1 WtCom= 1.00D+00 WtEn= 0.00D+00
 Coeff-Com: -0.128D-03 0.323D-03-0.367D-02 0.151D-02-0.874D-02-0.124D-01
 Coeff-Com: -0.120D+00-0.104D+00 0.453D+00 0.795D+00
 Coeff:     -0.128D-03 0.323D-03-0.367D-02 0.151D-02-0.874D-02-0.124D-01
 Coeff:     -0.120D+00-0.104D+00 0.453D+00 0.795D+00
 Gap=     0.118 Goal=   None    Shift=    0.000
 Gap=     0.133 Goal=   None    Shift=    0.000
 RMSDP=9.94D-06 MaxDP=1.16D-03 DE=-1.32D-06 OVMax= 4.93D-04

 Cycle  11  Pass 1  IDiag  1:
 RMSU=  5.86D-06    CP:  8.65D-01  3.18D-01  8.14D-01  3.08D-01  8.68D-01
                    CP:  7.42D-01  8.93D-01  9.95D-01  1.14D+00  8.91D-01
 E= -1003.91306173022     Delta-E=       -0.000000600499 Rises=F Damp=F
 DIIS: error= 9.12D-06 at cycle  11 NSaved=  11.
 NSaved=11 IEnMin=11 EnMin= -1003.91306173022     IErMin=11 ErrMin= 9.12D-06
 ErrMax= 9.12D-06  0.00D+00 EMaxC= 1.00D-01 BMatC= 1.57D-07 BMatP= 1.16D-06
 IDIUse=1 WtCom= 1.00D+00 WtEn= 0.00D+00
 Coeff-Com: -0.840D-04 0.308D-03-0.811D-03 0.305D-03-0.114D-02-0.496D-02
 Coeff-Com: -0.618D-01-0.782D-01 0.142D+00 0.376D+00 0.629D+00
 Coeff:     -0.840D-04 0.308D-03-0.811D-03 0.305D-03-0.114D-02-0.496D-02
 Coeff:     -0.618D-01-0.782D-01 0.142D+00 0.376D+00 0.629D+00
 Gap=     0.118 Goal=   None    Shift=    0.000
 Gap=     0.133 Goal=   None    Shift=    0.000
 RMSDP=3.38D-06 MaxDP=5.55D-04 DE=-6.00D-07 OVMax= 1.80D-04

 Cycle  12  Pass 1  IDiag  1:
 RMSU=  2.28D-06    CP:  8.65D-01  3.18D-01  8.14D-01  3.08D-01  8.69D-01
                    CP:  7.40D-01  8.95D-01  1.01D+00  1.16D+00  8.98D-01
                    CP:  1.02D+00
 E= -1003.91306179636     Delta-E=       -0.000000066134 Rises=F Damp=F
 DIIS: error= 5.46D-06 at cycle  12 NSaved=  12.
 NSaved=12 IEnMin=12 EnMin= -1003.91306179636     IErMin=12 ErrMin= 5.46D-06
 ErrMax= 5.46D-06  0.00D+00 EMaxC= 1.00D-01 BMatC= 4.78D-08 BMatP= 1.57D-07
 IDIUse=1 WtCom= 1.00D+00 WtEn= 0.00D+00
 Coeff-Com: -0.133D-04 0.707D-04 0.608D-03-0.250D-03 0.176D-02-0.343D-03
 Coeff-Com: -0.239D-03-0.169D-01-0.372D-01-0.200D-01 0.334D+00 0.738D+00
 Coeff:     -0.133D-04 0.707D-04 0.608D-03-0.250D-03 0.176D-02-0.343D-03
 Coeff:     -0.239D-03-0.169D-01-0.372D-01-0.200D-01 0.334D+00 0.738D+00
 Gap=     0.118 Goal=   None    Shift=    0.000
 Gap=     0.133 Goal=   None    Shift=    0.000
 RMSDP=2.30D-06 MaxDP=4.18D-04 DE=-6.61D-08 OVMax= 1.08D-04

 Cycle  13  Pass 1  IDiag  1:
 RMSU=  1.42D-06    CP:  8.65D-01  3.18D-01  8.14D-01  3.08D-01  8.69D-01
                    CP:  7.39D-01  9.01D-01  1.00D+00  1.18D+00  9.00D-01
                    CP:  1.16D+00  8.33D-01
 E= -1003.91306182204     Delta-E=       -0.000000025689 Rises=F Damp=F
 DIIS: error= 2.71D-06 at cycle  13 NSaved=  13.
 NSaved=13 IEnMin=13 EnMin= -1003.91306182204     IErMin=13 ErrMin= 2.71D-06
 ErrMax= 2.71D-06  0.00D+00 EMaxC= 1.00D-01 BMatC= 9.23D-09 BMatP= 4.78D-08
 IDIUse=1 WtCom= 1.00D+00 WtEn= 0.00D+00
 Coeff-Com:  0.168D-04-0.504D-04 0.539D-03-0.201D-03 0.122D-02 0.712D-03
 Coeff-Com:  0.138D-01 0.868D-02-0.429D-01-0.984D-01 0.194D-02 0.302D+00
 Coeff-Com:  0.812D+00
 Coeff:      0.168D-04-0.504D-04 0.539D-03-0.201D-03 0.122D-02 0.712D-03
 Coeff:      0.138D-01 0.868D-02-0.429D-01-0.984D-01 0.194D-02 0.302D+00
 Coeff:      0.812D+00
 Gap=     0.118 Goal=   None    Shift=    0.000
 Gap=     0.133 Goal=   None    Shift=    0.000
 RMSDP=1.18D-06 MaxDP=1.95D-04 DE=-2.57D-08 OVMax= 6.31D-05

 Cycle  14  Pass 1  IDiag  1:
 RMSU=  4.54D-07    CP:  8.65D-01  3.18D-01  8.14D-01  3.08D-01  8.69D-01
                    CP:  7.39D-01  9.05D-01  1.00D+00  1.18D+00  9.09D-01
                    CP:  1.19D+00  9.01D-01  1.20D+00
 E= -1003.91306182940     Delta-E=       -0.000000007359 Rises=F Damp=F
 DIIS: error= 1.44D-06 at cycle  14 NSaved=  14.
 NSaved=14 IEnMin=14 EnMin= -1003.91306182940     IErMin=14 ErrMin= 1.44D-06
 ErrMax= 1.44D-06  0.00D+00 EMaxC= 1.00D-01 BMatC= 2.74D-09 BMatP= 9.23D-09
 IDIUse=1 WtCom= 1.00D+00 WtEn= 0.00D+00
 Coeff-Com:  0.142D-04-0.428D-04-0.278D-04 0.205D-04-0.257D-03 0.163D-03
 Coeff-Com:  0.635D-02 0.978D-02-0.208D-02-0.394D-01-0.120D+00-0.146D+00
 Coeff-Com:  0.376D+00 0.915D+00
 Coeff:      0.142D-04-0.428D-04-0.278D-04 0.205D-04-0.257D-03 0.163D-03
 Coeff:      0.635D-02 0.978D-02-0.208D-02-0.394D-01-0.120D+00-0.146D+00
 Coeff:      0.376D+00 0.915D+00
 Gap=     0.118 Goal=   None    Shift=    0.000
 Gap=     0.133 Goal=   None    Shift=    0.000
 RMSDP=7.52D-07 MaxDP=1.53D-04 DE=-7.36D-09 OVMax= 5.25D-05

 Cycle  15  Pass 1  IDiag  1:
 RMSU=  3.20D-07    CP:  8.65D-01  3.18D-01  8.14D-01  3.08D-01  8.69D-01
                    CP:  7.38D-01  9.07D-01  9.98D-01  1.18D+00  9.04D-01
                    CP:  1.21D+00  9.09D-01  1.47D+00  1.39D+00
 E= -1003.91306183232     Delta-E=       -0.000000002916 Rises=F Damp=F
 DIIS: error= 5.32D-07 at cycle  15 NSaved=  15.
 NSaved=15 IEnMin=15 EnMin= -1003.91306183232     IErMin=15 ErrMin= 5.32D-07
 ErrMax= 5.32D-07  0.00D+00 EMaxC= 1.00D-01 BMatC= 6.56D-10 BMatP= 2.74D-09
 IDIUse=1 WtCom= 1.00D+00 WtEn= 0.00D+00
 Coeff-Com:  0.212D-05-0.681D-05-0.124D-03 0.455D-04-0.327D-03-0.190D-04
 Coeff-Com:  0.614D-06 0.209D-02 0.892D-02 0.287D-02-0.513D-01-0.131D+00
 Coeff-Com:  0.165D-04 0.402D+00 0.766D+00
 Coeff:      0.212D-05-0.681D-05-0.124D-03 0.455D-04-0.327D-03-0.190D-04
 Coeff:      0.614D-06 0.209D-02 0.892D-02 0.287D-02-0.513D-01-0.131D+00
 Coeff:      0.165D-04 0.402D+00 0.766D+00
 Gap=     0.118 Goal=   None    Shift=    0.000
 Gap=     0.133 Goal=   None    Shift=    0.000
 RMSDP=2.47D-07 MaxDP=2.09D-05 DE=-2.92D-09 OVMax= 1.69D-05

 Cycle  16  Pass 1  IDiag  1:
 RMSU=  1.55D-07    CP:  8.65D-01  3.18D-01  8.14D-01  3.08D-01  8.69D-01
                    CP:  7.38D-01  9.07D-01  9.98D-01  1.18D+00  8.99D-01
                    CP:  1.21D+00  9.13D-01  1.50D+00  1.57D+00  9.68D-01
 E= -1003.91306183284     Delta-E=       -0.000000000523 Rises=F Damp=F
 DIIS: error= 2.63D-07 at cycle  16 NSaved=  16.
 NSaved=16 IEnMin=16 EnMin= -1003.91306183284     IErMin=16 ErrMin= 2.63D-07
 ErrMax= 2.63D-07  0.00D+00 EMaxC= 1.00D-01 BMatC= 2.24D-10 BMatP= 6.56D-10
 IDIUse=1 WtCom= 1.00D+00 WtEn= 0.00D+00
 Coeff-Com: -0.283D-05 0.603D-05-0.743D-04 0.258D-04-0.152D-03-0.576D-04
 Coeff-Com: -0.139D-02-0.120D-02 0.529D-02 0.104D-01 0.233D-02-0.374D-01
 Coeff-Com: -0.917D-01-0.624D-03 0.421D+00 0.694D+00
 Coeff:     -0.283D-05 0.603D-05-0.743D-04 0.258D-04-0.152D-03-0.576D-04
 Coeff:     -0.139D-02-0.120D-02 0.529D-02 0.104D-01 0.233D-02-0.374D-01
 Coeff:     -0.917D-01-0.624D-03 0.421D+00 0.694D+00
 Gap=     0.118 Goal=   None    Shift=    0.000
 Gap=     0.133 Goal=   None    Shift=    0.000
 RMSDP=1.98D-07 MaxDP=2.67D-05 DE=-5.23D-10 OVMax= 8.96D-06

 Cycle  17  Pass 1  IDiag  1:
 RMSU=  6.62D-08    CP:  8.65D-01  3.18D-01  8.14D-01  3.08D-01  8.69D-01
                    CP:  7.38D-01  9.08D-01  9.96D-01  1.18D+00  9.00D-01
                    CP:  1.21D+00  9.11D-01  1.53D+00  1.64D+00  1.09D+00
                    CP:  9.69D-01
 E= -1003.91306183284     Delta-E=        0.000000000007 Rises=F Damp=F
 DIIS: error= 1.57D-07 at cycle  17 NSaved=  17.
 NSaved=17 IEnMin=16 EnMin= -1003.91306183284     IErMin=17 ErrMin= 1.57D-07
 ErrMax= 1.57D-07  0.00D+00 EMaxC= 1.00D-01 BMatC= 4.45D-11 BMatP= 2.24D-10
 IDIUse=1 WtCom= 1.00D+00 WtEn= 0.00D+00
 Coeff-Com: -0.224D-05 0.513D-05 0.361D-05-0.128D-05 0.322D-04-0.101D-04
 Coeff-Com: -0.659D-03-0.123D-02-0.278D-04 0.410D-02 0.173D-01 0.209D-01
 Coeff-Com: -0.438D-01-0.120D+00-0.446D-01 0.331D+00 0.838D+00
 Coeff:     -0.224D-05 0.513D-05 0.361D-05-0.128D-05 0.322D-04-0.101D-04
 Coeff:     -0.659D-03-0.123D-02-0.278D-04 0.410D-02 0.173D-01 0.209D-01
 Coeff:     -0.438D-01-0.120D+00-0.446D-01 0.331D+00 0.838D+00
 Gap=     0.118 Goal=   None    Shift=    0.000
 Gap=     0.133 Goal=   None    Shift=    0.000
 RMSDP=7.01D-08 MaxDP=7.45D-06 DE= 7.28D-12 OVMax= 4.87D-06

 Cycle  18  Pass 1  IDiag  1:
 RMSU=  3.89D-08    CP:  8.65D-01  3.18D-01  8.14D-01  3.08D-01  8.69D-01
                    CP:  7.38D-01  9.08D-01  9.96D-01  1.18D+00  9.00D-01
                    CP:  1.21D+00  9.10D-01  1.52D+00  1.66D+00  1.10D+00
                    CP:  1.15D+00  1.12D+00
 E= -1003.91306183285     Delta-E=       -0.000000000012 Rises=F Damp=F
 DIIS: error= 7.74D-08 at cycle  18 NSaved=  18.
 NSaved=18 IEnMin=18 EnMin= -1003.91306183285     IErMin=18 ErrMin= 7.74D-08
 ErrMax= 7.74D-08  0.00D+00 EMaxC= 1.00D-01 BMatC= 1.10D-11 BMatP= 4.45D-11
 IDIUse=1 WtCom= 1.00D+00 WtEn= 0.00D+00
 Coeff-Com: -0.597D-06 0.155D-05 0.104D-04-0.274D-05 0.267D-04-0.598D-05
 Coeff-Com: -0.107D-03-0.370D-03-0.955D-03 0.274D-03 0.844D-02 0.170D-01
 Coeff-Com: -0.724D-02-0.608D-01-0.104D+00 0.602D-01 0.447D+00 0.641D+00
 Coeff:     -0.597D-06 0.155D-05 0.104D-04-0.274D-05 0.267D-04-0.598D-05
 Coeff:     -0.107D-03-0.370D-03-0.955D-03 0.274D-03 0.844D-02 0.170D-01
 Coeff:     -0.724D-02-0.608D-01-0.104D+00 0.602D-01 0.447D+00 0.641D+00
 Gap=     0.118 Goal=   None    Shift=    0.000
 Gap=     0.133 Goal=   None    Shift=    0.000
 RMSDP=2.69D-08 MaxDP=2.88D-06 DE=-1.18D-11 OVMax= 1.90D-06

 Cycle  19  Pass 1  IDiag  1:
 RMSU=  1.51D-08    CP:  8.65D-01  3.18D-01  8.14D-01  3.08D-01  8.69D-01
                    CP:  7.38D-01  9.08D-01  9.96D-01  1.18D+00  8.99D-01
                    CP:  1.21D+00  9.10D-01  1.51D+00  1.66D+00  1.11D+00
                    CP:  1.16D+00  1.20D+00  1.03D+00
 E= -1003.91306183297     Delta-E=       -0.000000000123 Rises=F Damp=F
 DIIS: error= 3.32D-08 at cycle  19 NSaved=  19.
 NSaved=19 IEnMin=19 EnMin= -1003.91306183297     IErMin=19 ErrMin= 3.32D-08
 ErrMax= 3.32D-08  0.00D+00 EMaxC= 1.00D-01 BMatC= 2.04D-12 BMatP= 1.10D-11
 IDIUse=1 WtCom= 1.00D+00 WtEn= 0.00D+00
 Coeff-Com:  0.381D-06-0.748D-06 0.463D-05-0.154D-05 0.733D-05 0.765D-05
 Coeff-Com:  0.100D-03 0.173D-03-0.427D-03-0.859D-03-0.102D-02 0.146D-02
 Coeff-Com:  0.783D-02 0.854D-02-0.316D-01-0.500D-01-0.614D-01 0.249D+00
 Coeff-Com:  0.878D+00
 Coeff:      0.381D-06-0.748D-06 0.463D-05-0.154D-05 0.733D-05 0.765D-05
 Coeff:      0.100D-03 0.173D-03-0.427D-03-0.859D-03-0.102D-02 0.146D-02
 Coeff:      0.783D-02 0.854D-02-0.316D-01-0.500D-01-0.614D-01 0.249D+00
 Coeff:      0.878D+00
 Gap=     0.118 Goal=   None    Shift=    0.000
 Gap=     0.133 Goal=   None    Shift=    0.000
 RMSDP=1.56D-08 MaxDP=2.44D-06 DE=-1.23D-10 OVMax= 9.73D-07

 Cycle  20  Pass 1  IDiag  1:
 RMSU=  7.32D-09    CP:  8.65D-01  3.18D-01  8.14D-01  3.08D-01  8.69D-01
                    CP:  7.38D-01  9.08D-01  9.97D-01  1.18D+00  8.99D-01
                    CP:  1.21D+00  9.12D-01  1.51D+00  1.65D+00  1.09D+00
                    CP:  1.18D+00  1.24D+00  1.17D+00  1.19D+00
 E= -1003.91306183297     Delta-E=       -0.000000000002 Rises=F Damp=F
 DIIS: error= 1.08D-08 at cycle  20 NSaved=  20.
 NSaved=20 IEnMin=20 EnMin= -1003.91306183297     IErMin=20 ErrMin= 1.08D-08
 ErrMax= 1.08D-08  0.00D+00 EMaxC= 1.00D-01 BMatC= 3.02D-13 BMatP= 2.04D-12
 IDIUse=1 WtCom= 1.00D+00 WtEn= 0.00D+00
 Coeff-Com:  0.245D-06-0.537D-06-0.249D-06 0.586D-07-0.275D-05 0.421D-05
 Coeff-Com:  0.517D-04 0.140D-03-0.253D-04-0.368D-03-0.177D-02-0.222D-02
 Coeff-Com:  0.400D-02 0.134D-01 0.419D-02-0.239D-01-0.992D-01-0.133D-01
 Coeff-Com:  0.292D+00 0.827D+00
 Coeff:      0.245D-06-0.537D-06-0.249D-06 0.586D-07-0.275D-05 0.421D-05
 Coeff:      0.517D-04 0.140D-03-0.253D-04-0.368D-03-0.177D-02-0.222D-02
 Coeff:      0.400D-02 0.134D-01 0.419D-02-0.239D-01-0.992D-01-0.133D-01
 Coeff:      0.292D+00 0.827D+00
 Gap=     0.118 Goal=   None    Shift=    0.000
 Gap=     0.133 Goal=   None    Shift=    0.000
 RMSDP=7.76D-09 MaxDP=9.15D-07 DE=-1.82D-12 OVMax= 5.60D-07

 Error on total polarization charges =  0.02606
 SCF Done:  E(UB3LYP) =  -1003.91306183     A.U. after   20 cycles
            NFock= 20  Conv=0.78D-08     -V/T= 2.0045
 <Sx>= 0.0000 <Sy>= 0.0000 <Sz>= 0.5000 <S**2>= 0.7591 S= 0.5046
 <L.S>= 0.000000000000E+00
 KE= 9.994272417267D+02 PE=-5.964795287690D+03 EE= 2.158118715995D+03
 Annihilation of the first spin contaminant:
 S**2 before annihilation     0.7591,   after     0.7500
 Leave Link  502 at Sun Jan 21 09:04:40 2024, MaxMem=  4026531840 cpu:           11267.4 elap:            1409.9
 (Enter /sysapps/ubuntu-applications/gaussian/Gaussian/SSE_4/g16/l601.exe)
 Copying SCF densities to generalized density rwf, IOpCl= 1 IROHF=0.

 **********************************************************************

            Population analysis using the SCF density.

 **********************************************************************

 Orbital symmetries:
 Alpha Orbitals:
       Occupied  (A) (A) (A) (A) (A) (A) (A) (A) (A) (A) (A) (A)
                 (A) (A) (A) (A) (A) (A) (A) (A) (A) (A) (A) (A)
                 (A) (A) (A) (A) (A) (A) (A) (A) (A) (A) (A) (A)
                 (A) (A) (A) (A) (A) (A) (A) (A) (A) (A) (A) (A)
                 (A) (A) (A) (A) (A) (A) (A) (A) (A) (A) (A) (A)
                 (A) (A) (A) (A) (A) (A) (A) (A) (A) (A) (A) (A)
                 (A) (A) (A) (A) (A) (A) (A) (A) (A) (A) (A) (A)
                 (A) (A)
       Virtual   (A) (A) (A) (A) (A) (A) (A) (A) (A) (A) (A) (A)
                 (A) (A) (A) (A) (A) (A) (A) (A) (A) (A) (A) (A)
                 (A) (A) (A) (A) (A) (A) (A) (A) (A) (A) (A) (A)
                 (A) (A) (A) (A) (A) (A) (A) (A) (A) (A) (A) (A)
                 (A) (A) (A) (A) (A) (A) (A) (A) (A) (A) (A) (A)
                 (A) (A) (A) (A) (A) (A) (A) (A) (A) (A) (A) (A)
                 (A) (A) (A) (A) (A) (A) (A) (A) (A) (A) (A) (A)
                 (A) (A) (A) (A) (A) (A) (A) (A) (A) (A) (A) (A)
                 (A) (A) (A) (A) (A) (A) (A) (A) (A) (A) (A) (A)
                 (A) (A) (A) (A) (A) (A) (A) (A) (A) (A) (A) (A)
                 (A) (A) (A) (A) (A) (A) (A) (A) (A) (A) (A) (A)
                 (A) (A) (A) (A) (A) (A) (A) (A) (A) (A) (A) (A)
                 (A) (A) (A) (A) (A) (A) (A) (A) (A) (A) (A) (A)
                 (A) (A) (A) (A) (A) (A) (A) (A) (A) (A) (A) (A)
                 (A) (A) (A) (A) (A) (A) (A) (A) (A) (A) (A) (A)
                 (A) (A) (A) (A) (A) (A) (A) (A) (A) (A) (A) (A)
                 (A) (A) (A) (A) (A) (A) (A) (A) (A) (A) (A) (A)
                 (A) (A) (A) (A) (A) (A) (A) (A) (A) (A) (A) (A)
                 (A) (A) (A) (A) (A) (A) (A) (A) (A) (A) (A) (A)
                 (A) (A) (A) (A) (A) (A) (A) (A) (A) (A) (A) (A)
                 (A) (A) (A) (A) (A) (A) (A) (A) (A) (A) (A) (A)
                 (A) (A) (A) (A) (A) (A) (A) (A) (A) (A) (A) (A)
                 (A) (A) (A) (A) (A) (A) (A) (A) (A) (A) (A) (A)
                 (A) (A) (A) (A) (A) (A) (A) (A) (A) (A) (A) (A)
                 (A) (A) (A) (A) (A) (A) (A) (A) (A) (A) (A) (A)
                 (A) (A) (A) (A) (A) (A) (A) (A) (A) (A) (A) (A)
                 (A) (A) (A) (A) (A) (A) (A) (A) (A) (A) (A) (A)
                 (A) (A) (A) (A) (A) (A) (A) (A) (A) (A) (A) (A)
                 (A) (A) (A) (A) (A) (A) (A) (A) (A) (A) (A) (A)
                 (A) (A) (A) (A) (A) (A) (A) (A) (A) (A) (A) (A)
                 (A) (A) (A) (A) (A) (A) (A) (A) (A) (A) (A) (A)
                 (A) (A) (A) (A) (A) (A) (A) (A) (A) (A) (A) (A)
                 (A) (A) (A) (A) (A) (A) (A) (A) (A) (A) (A) (A)
                 (A) (A) (A) (A) (A) (A) (A) (A) (A) (A) (A) (A)
                 (A) (A) (A) (A) (A) (A) (A) (A) (A) (A) (A) (A)
                 (A) (A) (A) (A) (A) (A) (A) (A) (A) (A) (A) (A)
                 (A) (A) (A) (A) (A) (A) (A) (A) (A) (A) (A) (A)
                 (A) (A) (A) (A) (A) (A) (A) (A) (A) (A) (A) (A)
                 (A) (A) (A) (A) (A) (A) (A) (A) (A) (A) (A) (A)
                 (A) (A) (A) (A) (A) (A) (A) (A) (A) (A) (A) (A)
                 (A) (A) (A) (A) (A) (A) (A) (A) (A) (A) (A) (A)
                 (A) (A) (A) (A) (A) (A) (A) (A) (A) (A) (A) (A)
                 (A) (A) (A) (A) (A) (A) (A) (A) (A) (A) (A) (A)
                 (A) (A) (A) (A) (A) (A) (A) (A) (A) (A) (A) (A)
                 (A) (A) (A) (A) (A) (A) (A) (A) (A) (A) (A) (A)
                 (A) (A) (A) (A) (A) (A) (A) (A) (A) (A) (A) (A)
                 (A) (A) (A) (A) (A) (A) (A) (A) (A) (A) (A) (A)
                 (A) (A) (A) (A) (A) (A) (A) (A) (A) (A) (A) (A)
                 (A) (A) (A) (A) (A) (A) (A) (A) (A) (A) (A) (A)
                 (A) (A) (A) (A) (A) (A) (A) (A) (A) (A)
 Beta  Orbitals:
       Occupied  (A) (A) (A) (A) (A) (A) (A) (A) (A) (A) (A) (A)
                 (A) (A) (A) (A) (A) (A) (A) (A) (A) (A) (A) (A)
                 (A) (A) (A) (A) (A) (A) (A) (A) (A) (A) (A) (A)
                 (A) (A) (A) (A) (A) (A) (A) (A) (A) (A) (A) (A)
                 (A) (A) (A) (A) (A) (A) (A) (A) (A) (A) (A) (A)
                 (A) (A) (A) (A) (A) (A) (A) (A) (A) (A) (A) (A)
                 (A) (A) (A) (A) (A) (A) (A) (A) (A) (A) (A) (A)
                 (A)
       Virtual   (A) (A) (A) (A) (A) (A) (A) (A) (A) (A) (A) (A)
                 (A) (A) (A) (A) (A) (A) (A) (A) (A) (A) (A) (A)
                 (A) (A) (A) (A) (A) (A) (A) (A) (A) (A) (A) (A)
                 (A) (A) (A) (A) (A) (A) (A) (A) (A) (A) (A) (A)
                 (A) (A) (A) (A) (A) (A) (A) (A) (A) (A) (A) (A)
                 (A) (A) (A) (A) (A) (A) (A) (A) (A) (A) (A) (A)
                 (A) (A) (A) (A) (A) (A) (A) (A) (A) (A) (A) (A)
                 (A) (A) (A) (A) (A) (A) (A) (A) (A) (A) (A) (A)
                 (A) (A) (A) (A) (A) (A) (A) (A) (A) (A) (A) (A)
                 (A) (A) (A) (A) (A) (A) (A) (A) (A) (A) (A) (A)
                 (A) (A) (A) (A) (A) (A) (A) (A) (A) (A) (A) (A)
                 (A) (A) (A) (A) (A) (A) (A) (A) (A) (A) (A) (A)
                 (A) (A) (A) (A) (A) (A) (A) (A) (A) (A) (A) (A)
                 (A) (A) (A) (A) (A) (A) (A) (A) (A) (A) (A) (A)
                 (A) (A) (A) (A) (A) (A) (A) (A) (A) (A) (A) (A)
                 (A) (A) (A) (A) (A) (A) (A) (A) (A) (A) (A) (A)
                 (A) (A) (A) (A) (A) (A) (A) (A) (A) (A) (A) (A)
                 (A) (A) (A) (A) (A) (A) (A) (A) (A) (A) (A) (A)
                 (A) (A) (A) (A) (A) (A) (A) (A) (A) (A) (A) (A)
                 (A) (A) (A) (A) (A) (A) (A) (A) (A) (A) (A) (A)
                 (A) (A) (A) (A) (A) (A) (A) (A) (A) (A) (A) (A)
                 (A) (A) (A) (A) (A) (A) (A) (A) (A) (A) (A) (A)
                 (A) (A) (A) (A) (A) (A) (A) (A) (A) (A) (A) (A)
                 (A) (A) (A) (A) (A) (A) (A) (A) (A) (A) (A) (A)
                 (A) (A) (A) (A) (A) (A) (A) (A) (A) (A) (A) (A)
                 (A) (A) (A) (A) (A) (A) (A) (A) (A) (A) (A) (A)
                 (A) (A) (A) (A) (A) (A) (A) (A) (A) (A) (A) (A)
                 (A) (A) (A) (A) (A) (A) (A) (A) (A) (A) (A) (A)
                 (A) (A) (A) (A) (A) (A) (A) (A) (A) (A) (A) (A)
                 (A) (A) (A) (A) (A) (A) (A) (A) (A) (A) (A) (A)
                 (A) (A) (A) (A) (A) (A) (A) (A) (A) (A) (A) (A)
                 (A) (A) (A) (A) (A) (A) (A) (A) (A) (A) (A) (A)
                 (A) (A) (A) (A) (A) (A) (A) (A) (A) (A) (A) (A)
                 (A) (A) (A) (A) (A) (A) (A) (A) (A) (A) (A) (A)
                 (A) (A) (A) (A) (A) (A) (A) (A) (A) (A) (A) (A)
                 (A) (A) (A) (A) (A) (A) (A) (A) (A) (A) (A) (A)
                 (A) (A) (A) (A) (A) (A) (A) (A) (A) (A) (A) (A)
                 (A) (A) (A) (A) (A) (A) (A) (A) (A) (A) (A) (A)
                 (A) (A) (A) (A) (A) (A) (A) (A) (A) (A) (A) (A)
                 (A) (A) (A) (A) (A) (A) (A) (A) (A) (A) (A) (A)
                 (A) (A) (A) (A) (A) (A) (A) (A) (A) (A) (A) (A)
                 (A) (A) (A) (A) (A) (A) (A) (A) (A) (A) (A) (A)
                 (A) (A) (A) (A) (A) (A) (A) (A) (A) (A) (A) (A)
                 (A) (A) (A) (A) (A) (A) (A) (A) (A) (A) (A) (A)
                 (A) (A) (A) (A) (A) (A) (A) (A) (A) (A) (A) (A)
                 (A) (A) (A) (A) (A) (A) (A) (A) (A) (A) (A) (A)
                 (A) (A) (A) (A) (A) (A) (A) (A) (A) (A) (A) (A)
                 (A) (A) (A) (A) (A) (A) (A) (A) (A) (A) (A) (A)
                 (A) (A) (A) (A) (A) (A) (A) (A) (A) (A) (A) (A)
                 (A) (A) (A) (A) (A) (A) (A) (A) (A) (A) (A)
 The electronic state is 2-A.
 Alpha  occ. eigenvalues --  -19.14242 -19.08507 -19.07293 -10.22192 -10.22026
 Alpha  occ. eigenvalues --  -10.21977 -10.17392 -10.17248 -10.17170 -10.17137
 Alpha  occ. eigenvalues --  -10.17058 -10.16907 -10.16857 -10.16492 -10.16142
 Alpha  occ. eigenvalues --  -10.15683 -10.15681 -10.15652 -10.15560 -10.15433
 Alpha  occ. eigenvalues --  -10.15246 -10.15205 -10.15010  -1.06236  -0.99831
 Alpha  occ. eigenvalues --   -0.99492  -0.85790  -0.81960  -0.80922  -0.79642
 Alpha  occ. eigenvalues --   -0.76218  -0.75045  -0.73941  -0.70750  -0.67981
 Alpha  occ. eigenvalues --   -0.67301  -0.66863  -0.63802  -0.61592  -0.59894
 Alpha  occ. eigenvalues --   -0.57706  -0.56775  -0.55727  -0.54838  -0.53607
 Alpha  occ. eigenvalues --   -0.50352  -0.48368  -0.47494  -0.46373  -0.45486
 Alpha  occ. eigenvalues --   -0.45127  -0.43898  -0.43754  -0.43365  -0.42839
 Alpha  occ. eigenvalues --   -0.42545  -0.41661  -0.41331  -0.41040  -0.39588
 Alpha  occ. eigenvalues --   -0.38824  -0.38493  -0.38286  -0.38008  -0.37664
 Alpha  occ. eigenvalues --   -0.37473  -0.36743  -0.35683  -0.34943  -0.34712
 Alpha  occ. eigenvalues --   -0.34396  -0.34220  -0.33874  -0.33476  -0.32571
 Alpha  occ. eigenvalues --   -0.31791  -0.31538  -0.31397  -0.30786  -0.29759
 Alpha  occ. eigenvalues --   -0.26635  -0.25882  -0.25728  -0.23810  -0.22648
 Alpha  occ. eigenvalues --   -0.14997
 Alpha virt. eigenvalues --   -0.03227  -0.00775  -0.00538  -0.00175   0.00502
 Alpha virt. eigenvalues --    0.00751   0.01106   0.01300   0.01999   0.02310
 Alpha virt. eigenvalues --    0.02514   0.03415   0.03655   0.03891   0.03964
 Alpha virt. eigenvalues --    0.04307   0.04766   0.04839   0.05158   0.05408
 Alpha virt. eigenvalues --    0.05687   0.05989   0.06449   0.06710   0.06958
 Alpha virt. eigenvalues --    0.07216   0.07706   0.08000   0.08497   0.08659
 Alpha virt. eigenvalues --    0.09053   0.09402   0.09414   0.09603   0.09674
 Alpha virt. eigenvalues --    0.10487   0.10590   0.10763   0.11011   0.11211
 Alpha virt. eigenvalues --    0.11562   0.11629   0.12000   0.12238   0.12555
 Alpha virt. eigenvalues --    0.12766   0.12934   0.13219   0.13289   0.13532
 Alpha virt. eigenvalues --    0.13615   0.13765   0.14069   0.14171   0.14398
 Alpha virt. eigenvalues --    0.14681   0.14763   0.14934   0.15072   0.15145
 Alpha virt. eigenvalues --    0.15534   0.15788   0.16014   0.16241   0.16363
 Alpha virt. eigenvalues --    0.16722   0.17048   0.17098   0.17444   0.17634
 Alpha virt. eigenvalues --    0.17757   0.18020   0.18207   0.18355   0.18561
 Alpha virt. eigenvalues --    0.18790   0.19116   0.19302   0.19446   0.19920
 Alpha virt. eigenvalues --    0.20130   0.20439   0.20618   0.20669   0.21334
 Alpha virt. eigenvalues --    0.21429   0.21663   0.21953   0.22057   0.22176
 Alpha virt. eigenvalues --    0.22357   0.22523   0.22898   0.23309   0.23564
 Alpha virt. eigenvalues --    0.23838   0.24117   0.24337   0.24488   0.24638
 Alpha virt. eigenvalues --    0.25055   0.25245   0.25325   0.25653   0.25935
 Alpha virt. eigenvalues --    0.26206   0.26373   0.26538   0.26884   0.26980
 Alpha virt. eigenvalues --    0.27407   0.27824   0.28054   0.28380   0.28583
 Alpha virt. eigenvalues --    0.28871   0.29305   0.29558   0.29669   0.29861
 Alpha virt. eigenvalues --    0.30088   0.30509   0.30865   0.31042   0.31441
 Alpha virt. eigenvalues --    0.31819   0.32028   0.32200   0.32695   0.33130
 Alpha virt. eigenvalues --    0.33289   0.33588   0.33745   0.34184   0.34406
 Alpha virt. eigenvalues --    0.34705   0.34902   0.35223   0.35260   0.35623
 Alpha virt. eigenvalues --    0.35773   0.36132   0.36579   0.37063   0.37640
 Alpha virt. eigenvalues --    0.37846   0.38049   0.38247   0.38436   0.39137
 Alpha virt. eigenvalues --    0.39722   0.40058   0.40734   0.41636   0.42037
 Alpha virt. eigenvalues --    0.42304   0.42910   0.43145   0.43747   0.44391
 Alpha virt. eigenvalues --    0.44443   0.44798   0.45794   0.46530   0.47100
 Alpha virt. eigenvalues --    0.47761   0.48352   0.49917   0.51069   0.51708
 Alpha virt. eigenvalues --    0.52135   0.52967   0.53290   0.53554   0.54336
 Alpha virt. eigenvalues --    0.54785   0.55246   0.55732   0.56167   0.56546
 Alpha virt. eigenvalues --    0.56776   0.57356   0.58703   0.59169   0.59744
 Alpha virt. eigenvalues --    0.59782   0.60396   0.60685   0.61289   0.61831
 Alpha virt. eigenvalues --    0.62041   0.62333   0.63338   0.64447   0.64627
 Alpha virt. eigenvalues --    0.65029   0.65569   0.65874   0.66351   0.66388
 Alpha virt. eigenvalues --    0.67016   0.67349   0.67983   0.68190   0.68612
 Alpha virt. eigenvalues --    0.68922   0.69321   0.69592   0.69821   0.70198
 Alpha virt. eigenvalues --    0.70599   0.71465   0.71685   0.72121   0.72294
 Alpha virt. eigenvalues --    0.73164   0.73683   0.74221   0.74531   0.74628
 Alpha virt. eigenvalues --    0.75122   0.76025   0.76316   0.76366   0.76885
 Alpha virt. eigenvalues --    0.77083   0.77573   0.78297   0.78604   0.79249
 Alpha virt. eigenvalues --    0.79564   0.79929   0.80246   0.80703   0.81199
 Alpha virt. eigenvalues --    0.81869   0.82630   0.83080   0.83435   0.83686
 Alpha virt. eigenvalues --    0.84534   0.85110   0.86734   0.87261   0.87890
 Alpha virt. eigenvalues --    0.88545   0.90120   0.90414   0.91231   0.91627
 Alpha virt. eigenvalues --    0.93984   0.94702   0.94814   0.95589   0.97121
 Alpha virt. eigenvalues --    0.97292   0.97622   0.98008   0.99212   0.99826
 Alpha virt. eigenvalues --    1.00747   1.00903   1.01838   1.03091   1.03734
 Alpha virt. eigenvalues --    1.04920   1.05659   1.06743   1.07610   1.08149
 Alpha virt. eigenvalues --    1.08847   1.09267   1.09547   1.10855   1.11498
 Alpha virt. eigenvalues --    1.12221   1.13071   1.13285   1.14338   1.14460
 Alpha virt. eigenvalues --    1.16022   1.17130   1.18055   1.18377   1.19477
 Alpha virt. eigenvalues --    1.20174   1.21549   1.22770   1.23609   1.24250
 Alpha virt. eigenvalues --    1.24907   1.26471   1.26768   1.28034   1.28606
 Alpha virt. eigenvalues --    1.28919   1.29639   1.30445   1.30998   1.32859
 Alpha virt. eigenvalues --    1.34449   1.36821   1.37865   1.41210   1.44058
 Alpha virt. eigenvalues --    1.45085   1.45196   1.45725   1.46539   1.47372
 Alpha virt. eigenvalues --    1.47629   1.48187   1.49402   1.49491   1.50081
 Alpha virt. eigenvalues --    1.50767   1.50902   1.51747   1.52050   1.52607
 Alpha virt. eigenvalues --    1.53217   1.54133   1.55397   1.55702   1.57254
 Alpha virt. eigenvalues --    1.57549   1.58473   1.59314   1.60632   1.60726
 Alpha virt. eigenvalues --    1.61037   1.61842   1.62207   1.62700   1.63965
 Alpha virt. eigenvalues --    1.64616   1.65037   1.65040   1.65936   1.66643
 Alpha virt. eigenvalues --    1.67113   1.67548   1.68018   1.68378   1.69107
 Alpha virt. eigenvalues --    1.69526   1.70043   1.70539   1.71195   1.71498
 Alpha virt. eigenvalues --    1.72008   1.73282   1.74273   1.74630   1.75071
 Alpha virt. eigenvalues --    1.75481   1.76025   1.76785   1.77455   1.77670
 Alpha virt. eigenvalues --    1.78117   1.78665   1.79866   1.80485   1.80669
 Alpha virt. eigenvalues --    1.81203   1.82138   1.82603   1.83004   1.84182
 Alpha virt. eigenvalues --    1.85109   1.85769   1.86861   1.88280   1.88829
 Alpha virt. eigenvalues --    1.91100   1.91874   1.92651   1.93616   1.94359
 Alpha virt. eigenvalues --    1.94856   1.95818   1.96318   1.96612   1.97905
 Alpha virt. eigenvalues --    1.98140   1.99102   2.00108   2.01121   2.01945
 Alpha virt. eigenvalues --    2.03002   2.03647   2.05856   2.08096   2.08286
 Alpha virt. eigenvalues --    2.08660   2.10355   2.11418   2.11657   2.13507
 Alpha virt. eigenvalues --    2.13877   2.15121   2.15784   2.16419   2.16963
 Alpha virt. eigenvalues --    2.17931   2.18620   2.20175   2.21079   2.22968
 Alpha virt. eigenvalues --    2.23885   2.25758   2.26494   2.27429   2.28666
[...]
    24   Atom        0.000404     -0.000204     -0.000200
    25   Atom        0.000277     -0.000136     -0.000141
    26   Atom        0.000190     -0.000093     -0.000098
    27   Atom        0.000847     -0.000252     -0.000595
    28   Atom        0.000217     -0.000107     -0.000110
    29   Atom        0.001817     -0.000251     -0.001566
    30   Atom        0.001155      0.000339     -0.001495
    31   Atom        0.002011     -0.001135     -0.000876
    32   Atom        0.003558     -0.001597     -0.001961
    33   Atom        0.001417     -0.000714     -0.000702
    34   Atom        0.000796     -0.000449     -0.000347
    35   Atom        0.001103     -0.000544     -0.000558
    36   Atom        0.000587     -0.000295     -0.000292
    37   Atom        0.000484     -0.000219     -0.000265
    38   Atom        0.000349     -0.000190     -0.000158
    39   Atom        0.000411     -0.000199     -0.000211
    40   Atom        0.000266     -0.000129     -0.000137
    41   Atom        0.000191     -0.000087     -0.000104
    42   Atom        0.000151     -0.000073     -0.000079
    43   Atom        0.000173     -0.000091     -0.000082
    44   Atom        0.000556     -0.000197     -0.000359
    45   Atom        0.000686     -0.000118     -0.000567
    46   Atom        0.000729     -0.000181     -0.000548
    47   Atom        0.000241     -0.000116     -0.000125
    48   Atom        0.000201     -0.000100     -0.000101
    49   Atom        0.000168     -0.000083     -0.000085
 --------------------------------------------------------
                        XY            XZ            YZ
 --------------------------------------------------------
     1   Atom       -0.003973     -0.022492      0.017020
     2   Atom       -0.000082     -0.002799      0.001687
     3   Atom       -0.011464     -0.039611      0.028248
     4   Atom       -0.002125     -0.016636      0.011210
     5   Atom       -0.016400     -0.051043      0.038082
     6   Atom        0.007534      0.009943     -0.005616
     7   Atom       -0.053357     -0.132428      0.092045
     8   Atom       -0.016401     -0.047020      0.036325
     9   Atom       -0.013231     -0.038770      0.027741
    10   Atom       -0.030605     -0.063839      0.040458
    11   Atom       -0.159750     -0.505411      0.371411
    12   Atom       -0.134524     -0.441520      0.292945
    13   Atom        0.000824      0.002036     -0.000997
    14   Atom        0.002048      0.000713      0.000379
    15   Atom        0.004255     -0.002087      0.000228
    16   Atom        0.003638      0.001083     -0.000238
    17   Atom       -0.011597     -0.042109      0.033602
    18   Atom        0.004860      0.002783     -0.001185
    19   Atom        0.002590      0.000847      0.000642
    20   Atom       -0.000612     -0.003700      0.000528
    21   Atom        0.000527      0.000623     -0.000082
    22   Atom       -0.000062     -0.000311      0.000012
    23   Atom        0.000022      0.000032     -0.000022
    24   Atom       -0.000060     -0.000101      0.000009
    25   Atom       -0.000038     -0.000019     -0.000004
    26   Atom       -0.000053     -0.000043      0.000006
    27   Atom        0.000558      0.000172      0.000017
    28   Atom        0.000013     -0.000010     -0.000004
    29   Atom        0.002387      0.003206      0.001105
    30   Atom        0.002072      0.001666      0.000429
    31   Atom        0.000880     -0.001173     -0.000883
    32   Atom        0.000147     -0.001703     -0.000560
    33   Atom        0.000373      0.000522     -0.000038
    34   Atom        0.000124     -0.000360     -0.000089
    35   Atom       -0.000178     -0.000361     -0.000009
    36   Atom       -0.000018      0.000095     -0.000025
    37   Atom        0.000112      0.000008     -0.000009
    38   Atom       -0.000015     -0.000133     -0.000007
    39   Atom       -0.000124     -0.000115      0.000014
    40   Atom       -0.000051      0.000017     -0.000007
    41   Atom       -0.000082     -0.000048      0.000010
    42   Atom       -0.000040     -0.000021      0.000002
    43   Atom       -0.000037     -0.000062      0.000006
    44   Atom        0.000355      0.000162      0.000036
    45   Atom        0.000734      0.000413      0.000168
    46   Atom        0.000572     -0.000038     -0.000086
    47   Atom        0.000039      0.000015     -0.000002
    48   Atom        0.000024     -0.000035     -0.000006
    49   Atom        0.000005      0.000001     -0.000002
 --------------------------------------------------------


 ---------------------------------------------------------------------------------
              Anisotropic Spin Dipole Couplings in Principal Axis System
 ---------------------------------------------------------------------------------

       Atom             a.u.   MegaHertz   Gauss  10(-4) cm-1        Axes

              Baa    -0.0244    -3.277    -1.169    -1.093 -0.6007  0.6341 -0.4868
     1 C(13)  Bbb    -0.0171    -2.291    -0.818    -0.764  0.6926  0.7170  0.0793
              Bcc     0.0415     5.568     1.987     1.857 -0.3993  0.2896  0.8699
 
              Baa    -0.0033    -0.446    -0.159    -0.149  0.8285 -0.3035  0.4706
     2 C(13)  Bbb    -0.0012    -0.157    -0.056    -0.052  0.3965  0.9113 -0.1105
              Bcc     0.0045     0.603     0.215     0.201 -0.3953  0.2782  0.8754
 
              Baa    -0.0391    -5.243    -1.871    -1.749  0.7706 -0.4077  0.4898
     3 C(13)  Bbb    -0.0353    -4.735    -1.690    -1.580  0.4959  0.8664 -0.0589
              Bcc     0.0744     9.979     3.561     3.328 -0.4003  0.2882  0.8699
 
              Baa    -0.0184    -2.467    -0.880    -0.823  0.7936 -0.3718  0.4817
     4 C(13)  Bbb    -0.0105    -1.410    -0.503    -0.470  0.4617  0.8835 -0.0788
              Bcc     0.0289     3.877     1.383     1.293 -0.3962  0.2850  0.8728
 
              Baa    -0.0506    -6.789    -2.422    -2.265 -0.2881  0.8623 -0.4164
     5 C(13)  Bbb    -0.0487    -6.532    -2.331    -2.179  0.8729  0.4153  0.2560
              Bcc     0.0993    13.321     4.753     4.443 -0.3937  0.2897  0.8724
 
              Baa    -0.0206    -2.768    -0.988    -0.923 -0.3959  0.2789  0.8749
     6 C(13)  Bbb     0.0056     0.748     0.267     0.249 -0.5444  0.6960 -0.4682
              Bcc     0.0151     2.020     0.721     0.674  0.7395  0.6616  0.1238
 
              Baa    -0.1391   -18.669    -6.662    -6.227  0.7591  0.6363  0.1376
     7 C(13)  Bbb    -0.1178   -15.808    -5.641    -5.273 -0.5143  0.7157 -0.4725
              Bcc     0.2569    34.477    12.302    11.500 -0.3991  0.2879  0.8705
 
              Baa    -0.0494    -6.627    -2.365    -2.211  0.0446  0.9515 -0.3043
     8 C(13)  Bbb    -0.0424    -5.691    -2.031    -1.898  0.9128  0.0850  0.3995
              Bcc     0.0918    12.318     4.395     4.109 -0.4060  0.2956  0.8648
 
              Baa    -0.0370    -4.969    -1.773    -1.658  0.8097  0.5544  0.1926
     9 C(13)  Bbb    -0.0365    -4.903    -1.750    -1.636 -0.4242  0.7796 -0.4607
              Bcc     0.0736     9.873     3.523     3.293 -0.4056  0.2913  0.8664
 
              Baa    -0.0736    -9.874    -3.523    -3.294  0.7297  0.6723  0.1243
    10 C(13)  Bbb    -0.0511    -6.853    -2.445    -2.286 -0.5523  0.6868 -0.4725
              Bcc     0.1247    16.727     5.969     5.579 -0.4031  0.2762  0.8725
 
              Baa    -0.4951    35.828    12.784    11.951 -0.5094  0.7199 -0.4715
    11 O(17)  Bbb    -0.4768    34.499    12.310    11.508  0.7634  0.6309  0.1384
              Bcc     0.9719   -70.327   -25.094   -23.459 -0.3971  0.2894  0.8710
 
              Baa    -0.4141    29.963    10.692     9.995 -0.5659  0.6713 -0.4786
    12 O(17)  Bbb    -0.4059    29.373    10.481     9.798  0.7140  0.6893  0.1225
              Bcc     0.8200   -59.336   -21.173   -19.792 -0.4121  0.2724  0.8695
 
              Baa    -0.0035    -1.850    -0.660    -0.617 -0.4015  0.2898  0.8688
    13 H(1)   Bbb     0.0010     0.512     0.183     0.171 -0.0891  0.9317 -0.3520
              Bcc     0.0025     1.339     0.478     0.447  0.9115  0.2188  0.3482
 
              Baa    -0.0016    -0.874    -0.312    -0.292 -0.4075  0.3005  0.8623
    14 H(1)   Bbb    -0.0014    -0.734    -0.262    -0.245 -0.4427  0.7609 -0.4744
              Bcc     0.0030     1.608     0.574     0.536  0.7987  0.5751  0.1770
 
              Baa    -0.0055    -2.959    -1.056    -0.987  0.7985 -0.3552  0.4861
    15 H(1)   Bbb    -0.0009    -0.486    -0.174    -0.162 -0.4013  0.2879  0.8695
              Bcc     0.0065     3.445     1.229     1.149  0.4488  0.8894 -0.0873
 
              Baa    -0.0037    -1.996    -0.712    -0.666 -0.4111  0.2968  0.8619
    16 H(1)   Bbb    -0.0015    -0.815    -0.291    -0.272  0.6174 -0.6050  0.5029
              Bcc     0.0053     2.811     1.003     0.938  0.6707  0.7388  0.0655
 
              Baa    -0.0445     3.221     1.149     1.074 -0.5598  0.6809 -0.4723
    17 O(17)  Bbb    -0.0389     2.813     1.004     0.938  0.7369  0.6697  0.0920
              Bcc     0.0834    -6.034    -2.153    -2.013 -0.3790  0.2966  0.8766
 
              Baa    -0.0072    -3.846    -1.372    -1.283 -0.3992  0.2854  0.8713
    18 H(1)   Bbb    -0.0005    -0.280    -0.100    -0.093 -0.6039  0.6332 -0.4841
              Bcc     0.0077     4.126     1.472     1.376  0.6899  0.7194  0.0804
 
              Baa    -0.0025    -0.334    -0.119    -0.111 -0.1060 -0.1339  0.9853
    19 C(13)  Bbb    -0.0016    -0.216    -0.077    -0.072 -0.5776  0.8149  0.0486
              Bcc     0.0041     0.549     0.196     0.183  0.8094  0.5639  0.1637
 
              Baa    -0.0037    -0.495    -0.177    -0.165  0.3264 -0.4218  0.8459
    20 C(13)  Bbb    -0.0031    -0.410    -0.146    -0.137  0.2315  0.9033  0.3611
              Bcc     0.0067     0.905     0.323     0.302  0.9164 -0.0779 -0.3925
 
              Baa    -0.0014    -0.191    -0.068    -0.064 -0.2126  0.6066  0.7661
    21 C(13)  Bbb    -0.0011    -0.144    -0.052    -0.048 -0.0073  0.7830 -0.6220
              Bcc     0.0025     0.336     0.120     0.112  0.9771  0.1378  0.1620
 
              Baa    -0.0006    -0.083    -0.030    -0.028  0.1801 -0.0082  0.9836
    22 C(13)  Bbb    -0.0005    -0.068    -0.024    -0.023  0.0393  0.9992  0.0011
              Bcc     0.0011     0.152     0.054     0.051  0.9829 -0.0385 -0.1803
 
              Baa    -0.0004    -0.052    -0.019    -0.017 -0.0350  0.6582  0.7520
    23 C(13)  Bbb    -0.0003    -0.046    -0.016    -0.015  0.0042  0.7526 -0.6585
              Bcc     0.0007     0.098     0.035     0.033  0.9994  0.0199  0.0291
 
              Baa    -0.0002    -0.029    -0.010    -0.010  0.1704  0.1134  0.9788
    24 C(13)  Bbb    -0.0002    -0.028    -0.010    -0.009  0.0759  0.9889 -0.1277
              Bcc     0.0004     0.057     0.020     0.019  0.9824 -0.0960 -0.1599
 
              Baa    -0.0001    -0.020    -0.007    -0.007  0.0906  0.6186  0.7804
    25 C(13)  Bbb    -0.0001    -0.018    -0.006    -0.006  0.0423  0.7806 -0.6237
              Bcc     0.0003     0.038     0.013     0.013  0.9950 -0.0896 -0.0445
 
              Baa    -0.0001    -0.014    -0.005    -0.005  0.2028  0.4172  0.8859
    26 C(13)  Bbb    -0.0001    -0.014    -0.005    -0.005  0.0959  0.8919 -0.4420
              Bcc     0.0002     0.028     0.010     0.009  0.9745 -0.1746 -0.1409
 
              Baa    -0.0006    -0.084    -0.030    -0.028 -0.2123  0.2725  0.9384
    27 C(13)  Bbb    -0.0005    -0.063    -0.022    -0.021 -0.3313  0.8834 -0.3314
              Bcc     0.0011     0.147     0.053     0.049  0.9193  0.3813  0.0972
 
              Baa    -0.0001    -0.015    -0.005    -0.005  0.0054  0.5187  0.8550
    28 C(13)  Bbb    -0.0001    -0.014    -0.005    -0.005 -0.0496  0.8541 -0.5178
              Bcc     0.0002     0.029     0.010     0.010  0.9988  0.0396 -0.0303
 
              Baa    -0.0035    -1.886    -0.673    -0.629 -0.5493  0.1211  0.8268
    29 H(1)   Bbb    -0.0015    -0.806    -0.287    -0.269 -0.3121  0.8881 -0.3374
              Bcc     0.0050     2.691     0.960     0.898  0.7751  0.4434  0.4501
 
              Baa    -0.0024    -1.303    -0.465    -0.435 -0.5279  0.2690  0.8056
    30 H(1)   Bbb    -0.0009    -0.495    -0.177    -0.165 -0.3722  0.7794 -0.5041
              Bcc     0.0034     1.798     0.642     0.600  0.7634  0.5659  0.3113
 
              Baa    -0.0019    -1.015    -0.362    -0.338  0.0372  0.7359  0.6761
    31 H(1)   Bbb    -0.0009    -0.457    -0.163    -0.153  0.4529 -0.6155  0.6450
              Bcc     0.0028     1.472     0.525     0.491  0.8908  0.2822 -0.3562
 
              Baa    -0.0027    -1.428    -0.510    -0.476  0.2295  0.4232  0.8765
    32 H(1)   Bbb    -0.0014    -0.736    -0.263    -0.246 -0.1628  0.9045 -0.3941
              Bcc     0.0041     2.164     0.772     0.722  0.9596  0.0523 -0.2765
 
              Baa    -0.0009    -0.491    -0.175    -0.164 -0.2641  0.6175  0.7409
    33 H(1)   Bbb    -0.0007    -0.359    -0.128    -0.120  0.0208  0.7717 -0.6357
              Bcc     0.0016     0.850     0.303     0.283  0.9643  0.1525  0.2167
 
              Baa    -0.0005    -0.271    -0.097    -0.091  0.1106  0.7460  0.6566
    34 H(1)   Bbb    -0.0004    -0.217    -0.077    -0.072  0.2775 -0.6576  0.7004
              Bcc     0.0009     0.488     0.174     0.163  0.9543  0.1047 -0.2798
 
              Baa    -0.0007    -0.349    -0.125    -0.117  0.2234  0.4299  0.8748
    35 H(1)   Bbb    -0.0005    -0.288    -0.103    -0.096  0.0003  0.8975 -0.4411
              Bcc     0.0012     0.638     0.227     0.213  0.9747 -0.0988 -0.2004
 
              Baa    -0.0003    -0.172    -0.061    -0.057 -0.0657  0.6562  0.7517
    36 H(1)   Bbb    -0.0003    -0.147    -0.053    -0.049  0.0878  0.7542 -0.6507
              Bcc     0.0006     0.319     0.114     0.106  0.9940 -0.0233  0.1071
 
              Baa    -0.0003    -0.143    -0.051    -0.048 -0.0564  0.3084  0.9496
    37 H(1)   Bbb    -0.0002    -0.124    -0.044    -0.041 -0.1425  0.9389 -0.3134
              Bcc     0.0005     0.267     0.095     0.089  0.9882  0.1530  0.0090
 
              Baa    -0.0002    -0.107    -0.038    -0.036  0.1860  0.6988  0.6907
    38 H(1)   Bbb    -0.0002    -0.096    -0.034    -0.032 -0.1506  0.7149 -0.6828
              Bcc     0.0004     0.204     0.073     0.068  0.9709 -0.0230 -0.2382
 
              Baa    -0.0002    -0.126    -0.045    -0.042  0.2424  0.4831  0.8414
    39 H(1)   Bbb    -0.0002    -0.117    -0.042    -0.039  0.0745  0.8554 -0.5126
              Bcc     0.0005     0.243     0.087     0.081  0.9673 -0.1869 -0.1714
 
              Baa    -0.0001    -0.076    -0.027    -0.025  0.0426  0.6042  0.7957
    40 H(1)   Bbb    -0.0001    -0.070    -0.025    -0.023  0.1264  0.7868 -0.6041
              Bcc     0.0003     0.146     0.052     0.049  0.9911 -0.1263  0.0429
 
              Baa    -0.0001    -0.060    -0.022    -0.020  0.2727  0.5478  0.7909
    41 H(1)   Bbb    -0.0001    -0.058    -0.021    -0.019  0.1221  0.7957 -0.5932
              Bcc     0.0002     0.118     0.042     0.039  0.9543 -0.2583 -0.1501
 
              Baa    -0.0001    -0.044    -0.016    -0.015  0.1723  0.5827  0.7942
    42 H(1)   Bbb    -0.0001    -0.042    -0.015    -0.014  0.0832  0.7948 -0.6012
              Bcc     0.0002     0.085     0.030     0.028  0.9815 -0.1697 -0.0884
 
              Baa    -0.0001    -0.053    -0.019    -0.018  0.2500  0.6661  0.7027
    43 H(1)   Bbb    -0.0001    -0.050    -0.018    -0.017 -0.0537  0.7341 -0.6769
              Bcc     0.0002     0.103     0.037     0.034  0.9668 -0.1315 -0.2193
 
              Baa    -0.0004    -0.211    -0.075    -0.070 -0.2767  0.3307  0.9022
    44 H(1)   Bbb    -0.0003    -0.174    -0.062    -0.058 -0.2768  0.8717 -0.4044
              Bcc     0.0007     0.385     0.138     0.129  0.9202  0.3617  0.1497
 
              Baa    -0.0007    -0.375    -0.134    -0.125 -0.3871  0.2298  0.8929
    45 H(1)   Bbb    -0.0005    -0.281    -0.100    -0.094 -0.3804  0.8424 -0.3817
              Bcc     0.0012     0.656     0.234     0.219  0.8399  0.4874  0.2387
 
              Baa    -0.0006    -0.310    -0.111    -0.103 -0.1539  0.4123  0.8979
    46 H(1)   Bbb    -0.0004    -0.228    -0.081    -0.076 -0.4103  0.8001 -0.4377
              Bcc     0.0010     0.538     0.192     0.179  0.8989  0.4358 -0.0460
 
              Baa    -0.0001    -0.068    -0.024    -0.023 -0.0848  0.4637  0.8819
    47 H(1)   Bbb    -0.0001    -0.063    -0.022    -0.021 -0.0774  0.8794 -0.4698
              Bcc     0.0002     0.131     0.047     0.044  0.9934  0.1081  0.0387
 
              Baa    -0.0001    -0.057    -0.020    -0.019  0.0533  0.5446  0.8370
    48 H(1)   Bbb    -0.0001    -0.053    -0.019    -0.018 -0.1299  0.8348 -0.5350
              Bcc     0.0002     0.110     0.039     0.037  0.9901  0.0802 -0.1152
 
              Baa    -0.0001    -0.046    -0.016    -0.015 -0.0143  0.5027  0.8643
    49 H(1)   Bbb    -0.0001    -0.044    -0.016    -0.015 -0.0151  0.8642 -0.5029
              Bcc     0.0002     0.090     0.032     0.030  0.9998  0.0202  0.0047
 

 ---------------------------------------------------------------------------------

 No NMR shielding tensors so no spin-rotation constants.
 Leave Link  601 at Sun Jan 21 09:04:42 2024, MaxMem=  4026531840 cpu:               7.6 elap:               1.0
 (Enter /sysapps/ubuntu-applications/gaussian/Gaussian/SSE_4/g16/l9999.exe)
 1\1\GINC-ACIDSCN029\SP\UB3LYP\6-311++G(d,p)\C20H26O3(1-,2)\SELHAJJ1\21
 -Jan-2024\0\\#P UB3LYP/6-311++G(d,p) SCRF=(PCM,Solvent=n,n-DiMethylFor
 mamide)\\Radical PCM in DMF\\-1,2\C,0,0.145091,3.71502,-0.156611\C,0,-
 0.927612,3.642814,-1.025777\C,0,-0.947963,2.666088,-2.041972\C,0,1.230
 078,2.818933,-0.270559\C,0,1.211486,1.831429,-1.297091\C,0,0.109036,1.
 779186,-2.167817\C,0,2.352724,2.895176,0.640126\C,0,3.415198,1.93588,0
 .443848\C,0,3.425984,0.963922,-0.534173\C,0,2.321097,0.868827,-1.46367
 8\O,0,2.471273,3.736203,1.590909\O,0,2.296109,0.003509,-2.377908\H,0,0
 .183516,4.457275,0.632756\H,0,-1.755593,4.338892,-0.926439\H,0,-1.7909
 7,2.610088,-2.724269\H,0,0.120311,1.01864,-2.940399\O,0,4.439396,2.069
 567,1.336175\H,0,4.13056,2.823013,1.886729\C,0,4.575362,-0.001079,-0.6
 77209\C,0,5.596404,0.446499,-1.743186\C,0,6.715524,-0.57076,-2.041334\
 C,0,7.514744,-0.131921,-3.284768\C,0,8.505902,-1.166123,-3.8367\C,0,9.
 196688,-0.700109,-5.125195\C,0,10.125637,-1.732336,-5.79252\C,0,10.588
 473,-1.234279,-7.169402\C,0,7.62789,-0.793558,-0.824809\C,0,11.336307,
 -2.089021,-4.917478\H,0,4.169611,-0.972605,-0.979306\H,0,5.066978,-0.1
 17826,0.291663\H,0,6.04539,1.399719,-1.434441\H,0,5.043713,0.639562,-2
 .667723\H,0,6.230326,-1.528074,-2.282774\H,0,8.052898,0.797904,-3.0519
 06\H,0,6.800843,0.122705,-4.077567\H,0,7.969488,-2.103791,-4.036691\H,
 0,9.259464,-1.398948,-3.077978\H,0,9.772363,0.213701,-4.920154\H,0,8.4
 24,-0.41205,-5.849167\H,0,9.541736,-2.650321,-5.948388\H,0,9.736572,-1
 .019936,-7.821755\H,0,11.218708,-1.975509,-7.671644\H,0,11.172915,-0.3
 12004,-7.073428\H,0,8.392507,-1.552559,-1.016573\H,0,7.055793,-1.11977
 6,0.046367\H,0,8.138526,0.137807,-0.552598\H,0,11.036122,-2.516674,-3.
 958142\H,0,11.940194,-1.197661,-4.710872\H,0,11.981513,-2.81835,-5.418
 063\\Version=ES64L-G16RevA.03\State=2-A\HF=-1003.9130618\S2=0.759122\S
 2-1=0.\S2A=0.750041\RMSD=7.763e-09\Dipole=4.1963922,-1.8321085,-2.9390
 792\Quadrupole=-2.0441001,5.2285525,-3.1844524,6.9284787,12.5516472,-1
 5.3651623\PG=C01 [X(C20H26O3)]\\@


 ONE OF THE BENEFITS OF A COLLEGE EDUCATION
 IS TO SHOW THE BOY ITS LITTLE AVAIL 
                                    EMERSON IN 'CULTURE'
 Job cpu time:       0 days  3 hours  9 minutes 32.7 seconds.
 Elapsed time:       0 days  0 hours 23 minutes 43.5 seconds.
 File lengths (MBytes):  RWF=    632 Int=      0 D2E=      0 Chk=     35 Scr=      1
 Normal termination of Gaussian 16 at Sun Jan 21 09:04:42 2024.
