
Running Job 1 of 1 285-an-COSMO.in
qchem 285-an-COSMO.in_1095092.0 /expanse/lustre/scratch/selhajj/temp_project/qcscratch/28916191/qchem1095092/ 0
/cm/shared/apps/spack/cpu/opt/spack/linux-centos8-zen2/gcc-10.2.0/qchem-5.4-akfmr7b3t57bfs6qan3padb2wnb2i7cl/exe/qcprog.exe_s 285-an-COSMO.in_1095092.0 /expanse/lustre/scratch/selhajj/temp_project/qcscratch/28916191/qchem1095092/
                  Welcome to Q-Chem
     A Quantum Leap Into The Future Of Chemistry


 Q-Chem 5.4, Q-Chem, Inc., Pleasanton, CA (2021)

 License issued to: University of California, San Diego (site)

 E. Epifanovsky,  A. T. B. Gilbert,  Xintian Feng,  Joonho Lee,  Yuezhi Mao,  
 N. Mardirossian,  P. Pokhilko,  A. White,  M. Wormit,  M. P. Coons,  
 A. L. Dempwolff,  Zhengting Gan,  D. Hait,  P. R. Horn,  L. D. Jacobson,  
 I. Kaliman,  J. Kussmann,  A. W. Lange,  Ka Un Lao,  D. S. Levine,  Jie Liu,  
 S. C. McKenzie,  A. F. Morrison,  K. Nanda,  F. Plasser,  D. R. Rehn,  
 M. L. Vidal,  Zhi-Qiang You,  Ying Zhu,  B. Alam,  B. Albrecht,  
 A. Aldossary,  E. Alguire,  J. H. Andersen,  D. Barton,  K. Begam,  A. Behn,  
 Y. A. Bernard,  E. J. Berquist,  H. Burton,  A. Carreras,  K. Carter-Fenk,  
 R. Chakraborty,  A. D. Chien,  K. D. Closser,  V. Cofer-Shabica,  
 S. Dasgupta,  Jia Deng,  M. de Wergifosse,  M. Diedenhofen,  Hainam Do,  
 S. Ehlert,  Po-Tung Fang,  S. Fatehi,  Qingguo Feng,  J. Gayvert,  
 Qinghui Ge,  G. Gidofalvi,  M. Goldey,  J. Gomes,  C. Gonzalez-Espinoza,  
 S. Gulania,  A. Gunina,  M. W. D. Hanson-Heine,  P. H. P. Harbach,  
 A. W. Hauser,  M. F. Herbst,  M. Hernandez Vera,  M. Hodecker,  
 Z. C. Holden,  S. Houck,  Xunkun Huang,  Kerwin Hui,  B. C. Huynh,  
 M. Ivanov,  Hyunjun Ji,  Hanjie Jiang,  B. Kaduk,  S. Kaehler,  
 K. Khistyaev,  Jaehoon Kim,  P. Klunzinger,  Z. Koczor-Benda,  
 Joong Hoon Koh,  D. Kosenkov,  L. Koulias,  T. Kowalczyk,  C. M. Krauter,  
 K. Kue,  A. Kunitsa,  T. Kus,  A. Landau,  K. V. Lawler,  D. Lefrancois,  
 S. Lehtola,  Rain Li,  Yi-Pei Li,  Jiashu Liang,  M. Liebenthal,  
 Hung-Hsuan Lin,  You-Sheng Lin,  Fenglai Liu,  Kuan-Yu Liu,  
 M. Loipersberger,  A. Luenser,  A. Manjanath,  P. Manohar,  E. Mansoor,  
 S. F. Manzer,  Shan-Ping Mao,  A. V. Marenich,  T. Markovich,  S. Mason,  
 S. A. Maurer,  P. F. McLaughlin,  M. F. S. J. Menger,  J.-M. Mewes,  
 S. A. Mewes,  P. Morgante,  J. W. Mullinax,  T. S. Nguyen-Beck,  
 K. J. Oosterbaan,  G. Paran,  Alexander C. Paul,  Suranjan K. Paul,  
 F. Pavosevic,  Zheng Pei,  S. Prager,  E. I. Proynov,  E. Ramos,  B. Rana,  
 A. E. Rask,  A. Rettig,  R. M. Richard,  F. Rob,  E. Rossomme,  T. Scheele,  
 M. Scheurer,  M. Schneider,  N. Sergueev,  S. M. Sharada,  W. Skomorowski,  
 D. W. Small,  C. J. Stein,  Yu-Chuan Su,  E. J. Sundstrom,  Zhen Tao,  
 J. Thirman,  T. Tsuchimochi,  N. M. Tubman,  S. P. Veccham,  O. Vydrov,  
 J. Wenzel,  J. Witte,  A. Yamada,  Kun Yao,  S. Yeganeh,  S. R. Yost,  
 A. Zech,  Igor Ying Zhang,  Xing Zhang,  Yu Zhang,  D. Zuev,  
 A. Aspuru-Guzik,  A. T. Bell,  N. A. Besley,  K. B. Bravaya,  B. R. Brooks,  
 D. Casanova,  Jeng-Da Chai,  S. Coriani,  C. J. Cramer,  
 A. E. DePrince, III,  R. A. DiStasio Jr.,  A. Dreuw,  B. D. Dunietz,  
 T. R. Furlani,  W. A. Goddard III,  S. Grimme,  S. Hammes-Schiffer,  
 T. Head-Gordon,  W. J. Hehre,  Chao-Ping Hsu,  T.-C. Jagau,  Yousung Jung,  
 A. Klamt,  Jing Kong,  D. S. Lambrecht,  WanZhen Liang,  N. J. Mayhall,  
 C. W. McCurdy,  J. B. Neaton,  C. Ochsenfeld,  J. A. Parkhill,  R. Peverati,  
 V. A. Rassolov,  Yihan Shao,  L. V. Slipchenko,  T. Stauch,  R. P. Steele,  
 J. E. Subotnik,  A. J. W. Thom,  A. Tkatchenko,  D. G. Truhlar,  
 T. Van Voorhis,  T. A. Wesolowski,  K. B. Whaley,  H. L. Woodcock III,  
 P. M. Zimmerman,  S. Faraji,  P. M. W. Gill,  M. Head-Gordon,  
 J. M. Herbert,  A. I. Krylov

 Contributors to earlier versions of Q-Chem not listed above: 
 R. D. Adamson,  B. Austin,  R. Baer,  J. Baker,  G. J. O. Beran,  
 K. Brandhorst,  S. T. Brown,  E. F. C. Byrd,  A. K. Chakraborty,  
 G. K. L. Chan,  Chun-Min Chang,  Yunqing Chen,  C.-L. Cheng,  
 Siu Hung Chien,  D. M. Chipman,  D. L. Crittenden,  H. Dachsel,  
 R. J. Doerksen,  A. D. Dutoi,  R. G. Edgar,  J. Fosso-Tande,  
 L. Fusti-Molnar,  D. Ghosh,  A. Ghysels,  A. Golubeva-Zadorozhnaya,  
 J. Gonthier,  M. S. Gordon,  S. R. Gwaltney,  G. Hawkins,  J. E. Herr,  
 A. Heyden,  S. Hirata,  E. G. Hohenstein,  G. Kedziora,  F. J. Keil,  
 C. Kelley,  Jihan Kim,  R. A. King,  R. Z. Khaliullin,  P. P. Korambath,  
 W. Kurlancheek,  A. Laurent,  A. M. Lee,  M. S. Lee,  S. V. Levchenko,  
 Ching Yeh Lin,  D. Liotard,  E. Livshits,  R. C. Lochan,  I. Lotan,  
 L. A. Martinez-Martinez,  P. E. Maslen,  N. Nair,  D. P. O'Neill,  
 D. Neuhauser,  E. Neuscamman,  C. M. Oana,  R. Olivares-Amaya,  R. Olson,  
 T. M. Perrine,  B. Peters,  P. A. Pieniazek,  A. Prociuk,  Y. M. Rhee,  
 J. Ritchie,  M. A. Rohrdanz,  E. Rosta,  N. J. Russ,  H. F. Schaefer III,  
 M. W. Schmidt,  N. E. Schultz,  S. Sharma,  N. Shenvi,  C. D. Sherrill,  
 A. C. Simmonett,  A. Sodt,  T. Stein,  D. Stuck,  K. S. Thanthiriwatte,  
 V. Vanovschi,  L. Vogt,  Tao Wang,  A. Warshel,  M. A. Watson,  
 C. F. Williams,  Q. Wu,  X. Xu,  Jun Yang,  W. Zhang,  Yan Zhao

 Please cite Q-Chem as follows:
 Y. Shao et al., Mol. Phys. 113, 184-215 (2015)
 DOI: 10.1080/00268976.2014.952696

 Q-Chem 5.4.0 for Intel X86 EM64T Linux

 Parts of Q-Chem use Armadillo 9.800.1 (Horizon Scraper).
 http://arma.sourceforge.net/

 Q-Chem begins on Sat Feb 24 17:43:02 2024  

 Host: 
0

     Scratch files written to /expanse/lustre/scratch/selhajj/temp_project/qcscratch/28916191/qchem1095092//
 May1621 |scratch|qcdevops|jenkins|workspace|build_RNUM    
 Processing $rem in /cm/shared/apps/spack/cpu/opt/spack/linux-centos8-zen2/gcc-10.2.0/qchem-5.4-akfmr7b3t57bfs6qan3padb2wnb2i7cl/config/preferences:
 Processing $rem in /home/selhajj/.qchemrc:

 Checking the input file for inconsistencies... 
 Q-Chem warning in module libgen/CheckREMs.C, line 172:

 Found a $solvent section, which is only used for PCM and Kirkwood-Onsager solvation models

	...done.

--------------------------------------------------------------
User input:
--------------------------------------------------------------
$molecule
-2 1
C                 -0.0618100000      3.8910150000      0.1700340000
C                 -0.4704860000      3.5261050000      1.4377640000
C                 -0.0245820000      2.3043370000      2.0018940000
C                  0.8032560000      3.0686660000     -0.5969000000
C                  1.2593380000      1.8246950000     -0.0225530000
C                  0.8226040000      1.4848210000      1.2714020000
C                  1.2182540000      3.4571340000     -1.9114000000
C                  2.0897680000      2.5454330000     -2.5847210000
C                  2.5476610000      1.3358010000     -2.0705400000
C                  2.1548310000      0.9168500000     -0.7498160000
O                  0.8747750000      4.5448370000     -2.5345540000
O                  2.5531390000     -0.1827140000     -0.2391810000
H                 -0.3909150000      4.8217260000     -0.2813680000
H                 -1.1343970000      4.1762270000      2.0044360000
H                 -0.3441900000      2.0140830000      3.0001160000
H                  1.1829240000      0.5438240000      1.6753520000
O                  2.4469750000      2.9778730000     -3.8418220000
C                  3.4519800000      0.4376260000     -2.8768250000
C                  4.9553430000      0.6595480000     -2.6108480000
C                  5.8594970000     -0.2835060000     -3.4164890000
C                  7.3606290000     -0.0726960000     -3.1786750000
C                  8.2628170000     -1.0088740000     -3.9955870000
H                  1.9501610000      3.8323590000     -3.8730480000
H                  3.2590030000      0.5838980000     -3.9462100000
H                  3.2118370000     -0.6003750000     -2.6193470000
H                  5.1381320000      0.5202870000     -1.5397270000
H                  5.2092150000      1.7000710000     -2.8479480000
H                  5.6463720000     -0.1600470000     -4.4879860000
H                  5.5996570000     -1.3229830000     -3.1733410000
H                  7.5769600000     -0.2050250000     -2.1101410000
H                  7.6190180000      0.9691770000     -3.4121130000
H                  8.0476880000     -0.8763740000     -5.0645130000
H                  8.0058600000     -2.0513330000     -3.7643040000
C                  9.7640150000     -0.7991720000     -3.7578580000
C                 10.6588710000     -1.7345010000     -4.5779810000
H                  9.9806290000     -0.9338050000     -2.6902600000
H                 10.0220430000      0.2428280000     -3.9872720000
H                 10.4583500000     -2.7869030000     -4.3458790000
H                 11.7232690000     -1.5593230000     -4.3863800000
H                 10.4991290000     -1.6003890000     -5.6541900000
$end
$rem
MAX_SCF_CYCLES=200
SCF_Guess=core
BASIS  =  6-311++G(d,p)
GUI  =  2
JOB_TYPE  =  SP
METHOD  =  B3LYP
THRESH = 14
SCF_CONVERGENCE = 8
SOLVENT_METHOD = COSMO
$end
$solvent
dielectric 37.219
opticaldielectric 1.43
$end






--------------------------------------------------------------
 ----------------------------------------------------------------
             Standard Nuclear Orientation (Angstroms)
    I     Atom           X                Y                Z
 ----------------------------------------------------------------
    1      C       4.8283639817    -0.2857790725     0.7192353305
    2      C       5.5287161468     0.9003415573     0.8189320230
    3      C       4.9062979626     2.1230385374     0.4620037687
    4      C       3.4851947610    -0.3191659096     0.2636405698
    5      C       2.8497260887     0.9259320483    -0.0986573157
    6      C       3.5935418398     2.1151864570     0.0152836528
    7      C       2.7702122806    -1.5559468083     0.1625760447
    8      C       1.4240298463    -1.4608486685    -0.3094893449
    9      C       0.7765668397    -0.2839626879    -0.6741655291
   10      C       1.4637244459     0.9781831676    -0.5795637463
   11      O       3.2319212087    -2.7354022565     0.4543058149
   12      O       0.9072147774     2.0806156840    -0.9010880717
   13      H       5.2851282363    -1.2333862946     0.9870109839
   14      H       6.5582544253     0.8971760448     1.1719114827
   15      H       5.4548067594     3.0589622382     0.5396487648
   16      H       3.0880125245     3.0342765446    -0.2643500025
   17      O       0.7969567756    -2.6839517442    -0.3850032434
   18      C      -0.6443278035    -0.2995255106    -1.1795593330
   19      C      -1.7030471280    -0.0686785834    -0.0814170214
   20      C      -3.1410002853    -0.0569847789    -0.6181261565
   21      C      -4.2133443298     0.1578332027     0.4581289811
   22      C      -5.6514546927     0.1562523978    -0.0799729941
   23      H       1.5300647311    -3.2683447206    -0.0703874260
   24      H      -0.8506845752    -1.2578735046    -1.6706865099
   25      H      -0.7461873968     0.5003027331    -1.9220612258
   26      H      -1.4848025347     0.8858459400     0.4098648458
   27      H      -1.6035510943    -0.8523986921     0.6796604033
   28      H      -3.3403067630    -1.0054402192    -1.1372402259
   29      H      -3.2327292734     0.7303277244    -1.3789645256
   30      H      -4.0213275314     1.1095405033     0.9714103252
   31      H      -4.1156292643    -0.6233205984     1.2242934728
   32      H      -5.8445600771    -0.7957480699    -0.5926570588
   33      H      -5.7514425818     0.9361834401    -0.8467516348
   34      C      -6.7243181521     0.3716700011     0.9955011782
   35      C      -8.1572724277     0.3662874929     0.4525256661
   36      H      -6.5338035194     1.3240341438     1.5068913167
   37      H      -6.6246589495    -0.4063909860     1.7633959469
   38      H      -8.3077420607     1.1584808388    -0.2900499676
   39      H      -8.8985350333     0.5215814390     1.2442042102
   40      H      -8.3987043589    -0.5868990265    -0.0321138170
 ----------------------------------------------------------------
 Molecular Point Group                 C1    NOp =  1
 Largest Abelian Subgroup              C1    NOp =  1
 Nuclear Repulsion Energy =        1433.12913243 hartrees
 There are       74 alpha and       74 beta electrons
 Requested basis set is 6-311++G(d,p)
 There are 220 shells and 580 basis functions

 Total QAlloc Memory Limit   8000 MB
 Mega-Array Size       188 MB
 MEM_STATIC part       192 MB
 A cutoff of  1.0D-14 yielded  17641 shell pairs
 There are    123112 function pairs (    130957 Cartesian)
 Smallest overlap matrix eigenvalue = 2.36E-07
 Linear dependence detected in AO basis
 Tighter screening thresholds may be required for diffuse basis sets
 Use S2THRESH > 14 and THRESH = 14 in case of SCF convergence issues
 Number of orthogonalized atomic orbitals = 576
 Maximum deviation from orthogonality = 1.052E-10

 Scale SEOQF with 1.000000e-02/1.000000e-01/1.000000e-01

 Standard Electronic Orientation quadrupole field applied
 Nucleus-field energy     =     0.0000000228 hartrees
 Guess MOs from core Hamiltonian diagonalization

 -----------------------------------------------------------------------
  General SCF calculation program by
  Eric Jon Sundstrom, Paul Horn, Yuezhi Mao, Dmitri Zuev, Alec White,
  David Stuck, Shaama M.S., Shane Yost, Joonho Lee, David Small,
  Daniel Levine, Susi Lehtola, Hugh Burton, Evgeny Epifanovsky,
  Bang C. Huynh
 -----------------------------------------------------------------------
 Exchange:     0.2000 Hartree-Fock + 0.0800 Slater + 0.7200 B88
 Correlation:  0.1900 VWN1RPA + 0.8100 LYP
 Using SG-1 standard quadrature grid
 using 8 threads for integral computing
 -------------------------------------------------------
 OpenMP Integral computing Module                
 Release: version 1.0, May 2013, Q-Chem Inc. Pittsburgh 
 -------------------------------------------------------
 A restricted SCF calculation will be
 performed using DIIS
 SCF converges when DIIS error is below 1.0e-08
 ---------------------------------------
  Cycle       Energy         DIIS error
 ---------------------------------------
    1    -278.9016907445      9.15e-02  
    2    1044.0808499497      1.14e-01  
    3     371.5668094263      1.15e-01  
    4    -409.5235302966      7.40e-02  
    5    -545.5649268465      6.56e-02  
    6    -498.4453002567      5.57e-02  
    7    -657.0723343689      3.69e-02  
    8    -106.3968822718      8.02e-02  
    9    -159.4857372158      7.58e-02  
   10    -162.4800420621      7.58e-02  
   11    -162.7084426409      7.58e-02  
   12    -162.7053387245      7.58e-02  
   13    -162.6029331191      7.58e-02  
   14    -162.4990259877      7.58e-02  
   15    -163.5492683028      7.58e-02  
   16    -163.7371346056      7.58e-02  
   17    -305.0946613204      7.01e-02  
   18    -182.6741663360      7.82e-02  
   19    -190.3107243052      7.67e-02  
   20    -248.3292719418      8.68e-02  
   21    -699.9359002185      4.16e-02  
   22    -805.3945872344      3.34e-02  
   23    -185.3364357771      9.20e-02  
   24    -454.6607239288      6.22e-02  
   25    -623.4233539089      4.35e-02  
   26    -721.5974846406      2.86e-02  
   27    -688.0270968305      3.75e-02  
   28    -873.9097790173      1.23e-02  
   29    -834.6325314290      2.13e-02  
   30    -876.8218917659      8.89e-03  
   31    -875.1848643015      1.08e-02  
   32    -881.4069614875      6.94e-03  
   33    -885.2332651615      3.74e-03  
   34    -885.6957691086      1.38e-03  
   35    -885.7123109289      1.18e-03  
   36    -885.4694534026      1.41e-03  
   37    -885.7585392398      5.27e-04  
   38    -885.7661966483      3.50e-04  
   39    -885.7678806176      3.13e-04  
   40    -885.5247878449      1.27e-03  
   41    -885.5955324919      1.18e-03  
   42    -885.5612661927      1.23e-03  
   43    -885.5401502492      1.26e-03  
   44    -885.5314144736      1.27e-03  
   45    -885.5827124377      1.20e-03  
   46    -885.6116335541      1.15e-03  
   47    -885.6074904507      1.15e-03  
   48    -885.5988726229      1.17e-03  
   49    -885.6537270094      1.04e-03  
   50    -885.7789577250      3.26e-04  
   51    -885.7752038707      3.68e-04  
   52    -885.7896835221      8.90e-05  
   53    -885.7810853742      2.81e-04  
   54    -885.7879937786      1.43e-04  
   55    -885.7903284834      3.60e-05  
   56    -885.7904717453      1.51e-05  
   57    -885.7904987319      5.90e-06  
   58    -885.7905029328      6.07e-07  
   59    -885.7905029002      7.91e-07  
   60    -885.7905028941      8.14e-07  
   61    -885.7905029817      8.98e-08  
   62    -885.7905029827      4.15e-08  
   63    -885.7905029828      1.63e-08  
   64    -885.7905029828      1.51e-08  
   65    -885.7905029829      1.15e-08  
   66    -885.7905029829      2.82e-09  Convergence criterion met
 ---------------------------------------
 SCF time:   CPU 5723.21s  wall 720.00s 
 SCF   energy in the final basis set =     -885.7905029829
 Total energy in the final basis set =     -885.7905029829
 Exchange:     0.2000 Hartree-Fock + 0.0800 Slater + 0.7200 B88
 Correlation:  0.1900 VWN1RPA + 0.8100 LYP
 Using SG-1 standard quadrature grid
 in get_qchem_info
 IBasis=      401111
 IBasis=      401111
 USING 1082 GRID
 MICHARGE=          -2
 Set epsilon to    37.2190017700195     
==== cosmo data ====
outfile: 285-an-COSMO.out.cosmo.0
phsran:    0.00000D+00
ampran:    0.10000D-04
volume:   2320.9670536
area:   1139.9374303
routf:      0.8500000
rsolv [a.u]:      2.4566438
disex:     10.0000000
disex2:   4120.5915540
fepsi:      0.9731320
eps :    37.2190018
lcavity:     1
nppa:  1082
nspa:    92
nsph:    32
maxnps:  2480
natoms:    40
Atom   Radius [a.u.] nuc. charge
    1      3.7794520    6
    2      3.7794520    6
    3      3.7794520    6
    4      3.7794520    6
    5      3.7794520    6
    6      3.7794520    6
    7      3.7794520    6
    8      3.7794520    6
    9      3.7794520    6
   10      3.7794520    6
   11      3.2503287    8
   12      3.2503287    8
   13      2.4566438    1
   14      2.4566438    1
   15      2.4566438    1
   16      2.4566438    1
   17      3.2503287    8
   18      3.7794520    6
   19      3.7794520    6
   20      3.7794520    6
   21      3.7794520    6
   22      3.7794520    6
   23      2.4566438    1
   24      2.4566438    1
   25      2.4566438    1
   26      2.4566438    1
   27      2.4566438    1
   28      2.4566438    1
   29      2.4566438    1
   30      2.4566438    1
   31      2.4566438    1
   32      2.4566438    1
   33      2.4566438    1
   34      3.7794520    6
   35      3.7794520    6
   36      2.4566438    1
   37      2.4566438    1
   38      2.4566438    1
   39      2.4566438    1
   40      2.4566438    1
=== end cosmo data ===
 number of segments:         1488
 f_epsilon=  0.973132003749614     
Ediel:   -0.2021130
 A restricted SCF calculation will be
 performed using Roothaan-Hall, DIIS
 SCF converges when DIIS error is below 1.0e-08
 ---------------------------------------
  Cycle       Energy         DIIS error
 ---------------------------------------
 number of segments:         1488
 f_epsilon=  0.973132003749614     
Ediel:   -0.3045175
    1    -885.9926159500      3.40e-04  Roothaan Step
 ---------------------------------------
  Cycle       Energy         DIIS error
 ---------------------------------------
 number of segments:         1488
 f_epsilon=  0.973132003749614     
Ediel:   -0.2809332
    1    -886.0398752187      4.80e-04  
 number of segments:         1488
 f_epsilon=  0.973132003749614     
Ediel:   -0.2933998
    2    -886.0248492140      8.34e-04  
 number of segments:         1488
 f_epsilon=  0.973132003749614     
Ediel:   -0.2942410
    3    -886.0505795855      1.16e-04  
 number of segments:         1488
 f_epsilon=  0.973132003749614     
Ediel:   -0.2942977
    4    -886.0510969807      2.53e-05  
 number of segments:         1488
 f_epsilon=  0.973132003749614     
Ediel:   -0.2945256
    5    -886.0511073357      1.63e-05  
 number of segments:         1488
 f_epsilon=  0.973132003749614     
Ediel:   -0.2945229
    6    -886.0511189976      2.24e-06  
 number of segments:         1488
 f_epsilon=  0.973132003749614     
Ediel:   -0.2945294
    7    -886.0511191742      1.22e-06  
 number of segments:         1488
 f_epsilon=  0.973132003749614     
Ediel:   -0.2945303
    8    -886.0511192331      3.00e-07  
 number of segments:         1488
 f_epsilon=  0.973132003749614     
Ediel:   -0.2945302
    9    -886.0511192360      1.77e-07  
 number of segments:         1488
 f_epsilon=  0.973132003749614     
Ediel:   -0.2945304
   10    -886.0511192372      4.72e-08  
 number of segments:         1488
 f_epsilon=  0.973132003749614     
Ediel:   -0.2945304
   11    -886.0511192373      2.56e-08  
   12    -886.0511192373      5.65e-09  Convergence criterion met
 ---------------------------------------
 SCF time:   CPU 1122.96s  wall 143.00s 
before final oc correction, ETot:      -886.0511192373
 number of outlayer segments:          578
SCF energy after oc correction:      -886.0653516678
 SCF   energy in the final basis set =     -886.0653516678
 Total energy in the final basis set =     -886.0511192373
 
 --------------------------------------------------------------
 
                    Orbital Energies (a.u.)
 --------------------------------------------------------------
 
 Alpha MOs
 -- Occupied --
-19.1136 -19.0308 -19.0218 -10.1777 -10.1751 -10.1638 -10.1560 -10.1529
-10.1516 -10.1500 -10.1489 -10.1483 -10.1451 -10.1446 -10.1442 -10.1437
-10.1398 -10.1375 -10.1332 -10.1248  -1.0280  -0.9445  -0.9363  -0.8249
 -0.7985  -0.7789  -0.7582  -0.7289  -0.7222  -0.6974  -0.6601  -0.6319
 -0.6057  -0.5836  -0.5707  -0.5654  -0.5525  -0.5354  -0.5034  -0.4727
 -0.4703  -0.4520  -0.4411  -0.4275  -0.4239  -0.4223  -0.4060  -0.4016
 -0.3997  -0.3943  -0.3821  -0.3744  -0.3689  -0.3596  -0.3568  -0.3519
 -0.3506  -0.3441  -0.3289  -0.3277  -0.3209  -0.3167  -0.3130  -0.3105
 -0.3085  -0.3045  -0.2998  -0.2932  -0.2312  -0.2275  -0.2196  -0.2000
 -0.1934  -0.1105
 -- Virtual --
 -0.0060   0.0007   0.0044   0.0121   0.0151   0.0160   0.0196   0.0229
  0.0257   0.0335   0.0349   0.0421   0.0487   0.0508   0.0531   0.0548
  0.0603   0.0643   0.0644   0.0687   0.0774   0.0786   0.0825   0.0839
  0.0906   0.0919   0.0950   0.1021   0.1054   0.1089   0.1101   0.1138
  0.1191   0.1217   0.1230   0.1261   0.1302   0.1315   0.1319   0.1352
  0.1361   0.1369   0.1409   0.1438   0.1449   0.1461   0.1478   0.1514
  0.1538   0.1560   0.1581   0.1619   0.1638   0.1668   0.1671   0.1703
  0.1765   0.1777   0.1801   0.1814   0.1831   0.1857   0.1905   0.1957
  0.1964   0.2001   0.2027   0.2062   0.2083   0.2115   0.2153   0.2165
  0.2179   0.2199   0.2240   0.2279   0.2313   0.2341   0.2360   0.2411
  0.2422   0.2453   0.2505   0.2556   0.2591   0.2633   0.2657   0.2700
  0.2712   0.2722   0.2785   0.2817   0.2835   0.2848   0.2877   0.2949
  0.2976   0.3026   0.3041   0.3087   0.3105   0.3125   0.3175   0.3205
  0.3235   0.3256   0.3290   0.3324   0.3352   0.3395   0.3416   0.3426
  0.3493   0.3520   0.3542   0.3616   0.3650   0.3663   0.3699   0.3747
  0.3791   0.3812   0.3854   0.3900   0.3942   0.4066   0.4102   0.4139
  0.4222   0.4322   0.4353   0.4398   0.4447   0.4509   0.4584   0.4604
  0.4660   0.4769   0.4778   0.4867   0.5075   0.5099   0.5329   0.5420
  0.5432   0.5495   0.5551   0.5654   0.5692   0.5739   0.5802   0.5873
  0.5958   0.6039   0.6119   0.6182   0.6245   0.6324   0.6390   0.6425
  0.6524   0.6582   0.6613   0.6646   0.6673   0.6683   0.6742   0.6786
  0.6836   0.6880   0.6893   0.6953   0.6997   0.7041   0.7081   0.7135
  0.7186   0.7244   0.7317   0.7336   0.7409   0.7433   0.7555   0.7613
  0.7633   0.7644   0.7667   0.7732   0.7762   0.7800   0.7852   0.7928
  0.7963   0.8064   0.8087   0.8142   0.8238   0.8278   0.8429   0.8482
  0.8616   0.8698   0.8791   0.8836   0.8919   0.9104   0.9165   0.9321
  0.9463   0.9604   0.9631   0.9679   0.9773   0.9819   0.9941   1.0042
  1.0133   1.0161   1.0234   1.0338   1.0424   1.0474   1.0614   1.0638
  1.0785   1.0820   1.0906   1.0989   1.1148   1.1173   1.1296   1.1406
  1.1474   1.1569   1.1673   1.1844   1.1966   1.2140   1.2188   1.2377
  1.2542   1.2587   1.2633   1.2692   1.2786   1.2820   1.2888   1.2944
  1.3100   1.3138   1.3202   1.3244   1.3283   1.3384   1.3574   1.3949
  1.4147   1.4303   1.4590   1.4733   1.4797   1.4905   1.5016   1.5116
  1.5219   1.5336   1.5460   1.5502   1.5570   1.5668   1.5767   1.5796
  1.5801   1.5894   1.5975   1.6031   1.6164   1.6258   1.6324   1.6392
  1.6432   1.6525   1.6682   1.6699   1.6770   1.6811   1.6850   1.6947
  1.6978   1.7018   1.7181   1.7199   1.7397   1.7491   1.7514   1.7516
  1.7574   1.7625   1.7694   1.7822   1.7861   1.7927   1.7978   1.8008
  1.8260   1.8335   1.8408   1.8578   1.8656   1.8754   1.8786   1.8940
  1.8979   1.9165   1.9204   1.9272   1.9425   1.9474   1.9577   1.9683
  1.9738   1.9835   1.9938   2.0040   2.0147   2.0246   2.0339   2.0595
  2.0691   2.0759   2.0915   2.1036   2.1118   2.1356   2.1462   2.1629
  2.1700   2.1743   2.2004   2.2043   2.2194   2.2301   2.2485   2.2643
  2.2730   2.2770   2.2948   2.3119   2.3306   2.3378   2.3456   2.3467
  2.3547   2.3789   2.4019   2.4092   2.4158   2.4338   2.4448   2.4532
  2.4788   2.4886   2.4912   2.5051   2.5079   2.5325   2.5458   2.5533
  2.5568   2.5780   2.5888   2.6131   2.6207   2.6241   2.6313   2.6499
  2.6617   2.6744   2.6789   2.6854   2.7056   2.7189   2.7215   2.7251
  2.7353   2.7457   2.7557   2.7595   2.7671   2.7732   2.7887   2.7915
  2.7972   2.8092   2.8218   2.8233   2.8266   2.8447   2.8526   2.8652
  2.8717   2.8889   2.8925   2.9101   2.9264   2.9287   2.9347   2.9506
  2.9650   2.9711   2.9773   2.9860   2.9901   2.9977   3.0343   3.0374
  3.0377   3.0919   3.1017   3.1095   3.1271   3.1368   3.1571   3.1745
  3.1946   3.1974   3.2081   3.2457   3.2645   3.3103   3.3312   3.3497
  3.3534   3.3698   3.3829   3.4423   3.4576   3.4877   3.5056   3.5167
  3.5439   3.5484   3.5754   3.5979   3.6372   3.6768   3.7838   3.7941
  3.8112   3.8229   3.8304   3.8428   3.8589   3.8668   3.8912   3.9086
  3.9421   3.9692   4.0655   4.0687   4.0966   4.1079   4.1612   4.2300
  4.2412   4.2483   4.3259   4.3512   4.3676   4.4164   4.4780   4.8624
  4.8819   5.0510   5.1436   5.1740   5.3329   5.3566   5.5615   5.7114
  5.8190   5.8707  23.5938  23.8240  23.8826  23.8976  23.9172  23.9205
 23.9351  23.9528  23.9734  23.9823  23.9876  23.9999  24.0244  24.0565
 24.1400  24.1448  24.2085  49.9841  50.0922  50.1500
 --------------------------------------------------------------
 
          Ground-State Mulliken Net Atomic Charges

     Atom                 Charge (a.u.)
  ----------------------------------------
      1 C                    -0.060932
      2 C                    -0.400650
      3 C                    -0.528095
      4 C                     0.438173
      5 C                    -0.119521
      6 C                     0.029078
      7 C                    -0.899537
      8 C                    -0.658843
      9 C                     1.979862
     10 C                    -0.723063
     11 O                    -0.772534
     12 O                    -0.679430
     13 H                     0.155923
     14 H                     0.177136
     15 H                     0.170889
     16 H                     0.153939
     17 O                    -0.355625
     18 C                    -0.304730
     19 C                    -0.613161
     20 C                    -0.108604
     21 C                    -0.109066
     22 C                    -0.280015
     23 H                     0.292974
     24 H                     0.199559
     25 H                     0.173768
     26 H                     0.178052
     27 H                     0.157865
     28 H                     0.110373
     29 H                     0.114604
     30 H                     0.125512
     31 H                     0.126506
     32 H                     0.129462
     33 H                     0.130505
     34 C                    -0.233008
     35 C                    -0.710764
     36 H                     0.135798
     37 H                     0.135669
     38 H                     0.145649
     39 H                     0.150565
     40 H                     0.145719
  ----------------------------------------
  Sum of atomic charges =    -2.000000

 -----------------------------------------------------------------
                    Cartesian Multipole Moments
 -----------------------------------------------------------------
    Charge (ESU x 10^10)
                -9.6064
    Dipole Moment (Debye)
         X     -20.8180      Y       2.4984      Z       1.9072
       Tot      21.0539
    Quadrupole Moments (Debye-Ang)
        XX    -200.9304     XY      17.2332     YY    -176.0600
        XZ      -3.9736     YZ       8.3606     ZZ    -138.4974
    Octopole Moments (Debye-Ang^2)
       XXX    -265.8284    XXY      64.4494    XYY    -120.1031
       YYY      32.0716    XXZ      -9.1659    XYZ      18.3654
       YYZ       6.5094    XZZ     -34.2161    YZZ      -9.9391
       ZZZ      -0.5051
    Hexadecapole Moments (Debye-Ang^3)
      XXXX  -14068.9208   XXXY     221.8136   XXYY   -2714.0696
      XYYY     182.5219   YYYY   -1931.5829   XXXZ     -55.6743
      XXYZ      49.1473   XYYZ     -32.5845   YYYZ      57.8292
      XXZZ   -2315.5710   XYZZ     -22.1291   YYZZ    -402.3049
      XZZZ     -38.6631   YZZZ       5.4782   ZZZZ    -530.4988
 -----------------------------------------------------------------
 Total job time:  866.21s(wall), 6856.57s(cpu) 
 Sat Feb 24 17:57:28 2024

        *************************************************************
        *                                                           *
        *  Thank you very much for using Q-Chem.  Have a nice day.  *
        *                                                           *
        *************************************************************


