 Entering Gaussian System, Link 0=g16
 Input=313.com
 Output=313.log
 Initial command:
 /sysapps/ubuntu-applications/gaussian/Gaussian/AVX2/g16/l1.exe "/scratch/selhajj1/4263777/Gau-266837.inp" -scrdir="/scratch/selhajj1/4263777/"
 Entering Link 1 = /sysapps/ubuntu-applications/gaussian/Gaussian/AVX2/g16/l1.exe PID=    266848.
  
 Copyright (c) 1988,1990,1992,1993,1995,1998,2003,2009,2016,
            Gaussian, Inc.  All Rights Reserved.
  
 This is part of the Gaussian(R) 16 program.  It is based on
 the Gaussian(R) 09 system (copyright 2009, Gaussian, Inc.),
 the Gaussian(R) 03 system (copyright 2003, Gaussian, Inc.),
 the Gaussian(R) 98 system (copyright 1998, Gaussian, Inc.),
 the Gaussian(R) 94 system (copyright 1995, Gaussian, Inc.),
 the Gaussian 92(TM) system (copyright 1992, Gaussian, Inc.),
 the Gaussian 90(TM) system (copyright 1990, Gaussian, Inc.),
 the Gaussian 88(TM) system (copyright 1988, Gaussian, Inc.),
 the Gaussian 86(TM) system (copyright 1986, Carnegie Mellon
 University), and the Gaussian 82(TM) system (copyright 1983,
 Carnegie Mellon University). Gaussian is a federally registered
 trademark of Gaussian, Inc.
  
 This software contains proprietary and confidential information,
 including trade secrets, belonging to Gaussian, Inc.
  
 This software is provided under written license and may be
 used, copied, transmitted, or stored only in accord with that
 written license.
  
 The following legend is applicable only to US Government
 contracts under FAR:
  
                    RESTRICTED RIGHTS LEGEND
  
 Use, reproduction and disclosure by the US Government is
 subject to restrictions as set forth in subparagraphs (a)
 and (c) of the Commercial Computer Software - Restricted
 Rights clause in FAR 52.227-19.
  
 Gaussian, Inc.
 340 Quinnipiac St., Bldg. 40, Wallingford CT 06492
  
  
 ---------------------------------------------------------------
 Warning -- This program may not be used in any manner that
 competes with the business of Gaussian, Inc. or will provide
 assistance to any competitor of Gaussian, Inc.  The licensee
 of this program is prohibited from giving any competitor of
 Gaussian, Inc. access to this program.  By using this program,
 the user acknowledges that Gaussian, Inc. is engaged in the
 business of creating and licensing software in the field of
 computational chemistry and represents and warrants to the
 licensee that it is not a competitor of Gaussian, Inc. and that
 it will not use this program in any manner prohibited above.
 ---------------------------------------------------------------
  

 Cite this work as:
 Gaussian 16, Revision A.03,
 M. J. Frisch, G. W. Trucks, H. B. Schlegel, G. E. Scuseria, 
 M. A. Robb, J. R. Cheeseman, G. Scalmani, V. Barone, 
 G. A. Petersson, H. Nakatsuji, X. Li, M. Caricato, A. V. Marenich, 
 J. Bloino, B. G. Janesko, R. Gomperts, B. Mennucci, H. P. Hratchian, 
 J. V. Ortiz, A. F. Izmaylov, J. L. Sonnenberg, D. Williams-Young, 
 F. Ding, F. Lipparini, F. Egidi, J. Goings, B. Peng, A. Petrone, 
 T. Henderson, D. Ranasinghe, V. G. Zakrzewski, J. Gao, N. Rega, 
 G. Zheng, W. Liang, M. Hada, M. Ehara, K. Toyota, R. Fukuda, 
 J. Hasegawa, M. Ishida, T. Nakajima, Y. Honda, O. Kitao, H. Nakai, 
 T. Vreven, K. Throssell, J. A. Montgomery, Jr., J. E. Peralta, 
 F. Ogliaro, M. J. Bearpark, J. J. Heyd, E. N. Brothers, K. N. Kudin, 
 V. N. Staroverov, T. A. Keith, R. Kobayashi, J. Normand, 
 K. Raghavachari, A. P. Rendell, J. C. Burant, S. S. Iyengar, 
 J. Tomasi, M. Cossi, J. M. Millam, M. Klene, C. Adamo, R. Cammi, 
 J. W. Ochterski, R. L. Martin, K. Morokuma, O. Farkas, 
 J. B. Foresman, and D. J. Fox, Gaussian, Inc., Wallingford CT, 2016.
 
 ******************************************
 Gaussian 16:  ES64L-G16RevA.03 25-Dec-2016
                 8-Jan-2024 
 ******************************************
 %chk=313.chk
 %nproc=8
 Will use up to    8 processors via shared memory.
 %mem=30GB
 --------------------------------------
 #P UB3LYP/6-311++G(d,p) nosym opt freq
 --------------------------------------
 1/18=20,19=15,26=3,38=1/1,3;
 2/9=110,12=2,15=1,17=6,18=5,40=1/2;
 3/5=4,6=6,7=1111,11=2,25=1,30=1,71=1,74=-5,116=2/1,2,3;
 4//1;
 5/5=2,38=5/2;
 6/7=2,8=2,9=2,10=2,28=1/1;
 7/30=1/1,2,3,16;
 1/18=20,19=15,26=3/3(2);
 2/9=110,15=1/2;
 99//99;
 2/9=110,15=1/2;
 3/5=4,6=6,7=1111,11=2,25=1,30=1,71=1,74=-5,116=2/1,2,3;
 4/5=5,16=3,69=1/1;
 5/5=2,38=5/2;
 7/30=1/1,2,3,16;
 1/18=20,19=15,26=3/3(-5);
 2/9=110,15=1/2;
 6/7=2,8=2,9=2,10=2,19=2,28=1/1;
 99/9=1/99;
 Leave Link    1 at Mon Jan  8 21:21:24 2024, MaxMem=  4026531840 cpu:               0.5 elap:               0.1
 (Enter /sysapps/ubuntu-applications/gaussian/Gaussian/AVX2/g16/l101.exe)
 --------
 Oxidized
 --------
 Symbolic Z-matrix:
 Charge =  0 Multiplicity = 1
 C                    -4.2271   -1.30394  -0.17754 
 C                    -3.9081   -1.78891  -1.44156 
 C                    -3.10239  -1.03666  -2.29991 
 C                    -3.73598  -0.06381   0.23987 
 C                    -2.92522   0.6908   -0.62353 
 C                    -2.61347   0.20049  -1.89321 
 C                    -4.11411   0.44689   1.59293 
 C                    -3.46574   1.73128   2.04312 
 C                    -2.69491   2.44324   1.19263 
 C                    -2.39278   2.01231  -0.18543 
 S                    -3.87921   2.42445   3.62267 
 C                    -3.6955    1.04477   4.76299 
 C                    -4.7492    0.74151   5.62266 
 C                    -2.48295   0.35787   4.85915 
 C                    -2.31446  -0.66541   5.79504 
 C                    -4.578    -0.25974   6.57622 
 C                    -3.37738  -0.95923   6.65788 
 C                    -1.01937  -1.43782   5.87183 
 O                    -4.92505  -0.13314   2.28609 
 O                    -1.70406   2.70944  -0.91584 
 H                    -4.85697  -1.86839   0.49883 
 H                    -4.28918  -2.75198  -1.76159 
 H                    -2.85819  -1.41678  -3.28533 
 H                    -1.98934   0.80242  -2.54234 
 H                    -2.24127   3.38116   1.4936 
 H                    -5.69149   1.26773   5.53502 
 H                    -1.66076   0.62582   4.20446 
 H                    -5.39172  -0.50169   7.25074 
 H                    -3.26093  -1.74085   7.4017 
 H                    -0.20493  -0.90157   5.38048 
 H                    -1.1162   -2.41284   5.38242 
 H                    -0.72726  -1.62161   6.90887 
 
 ITRead=  0  0  0  0  0  0  0  0  0  0  0  0  0  0  0  0  0  0  0  0
 ITRead=  0  0  0  0  0  0  0  0  0  0  0  0
 MicOpt= -1 -1 -1 -1 -1 -1 -1 -1 -1 -1 -1 -1 -1 -1 -1 -1 -1 -1 -1 -1
 MicOpt= -1 -1 -1 -1 -1 -1 -1 -1 -1 -1 -1 -1
 NAtoms=     32 NQM=       32 NQMF=       0 NMMI=      0 NMMIF=      0
                NMic=       0 NMicF=      0.
                    Isotopes and Nuclear Properties:
 (Nuclear quadrupole moments (NQMom) in fm**2, nuclear magnetic moments (NMagM)
  in nuclear magnetons)

  Atom         1           2           3           4           5           6           7           8           9          10
 IAtWgt=          12          12          12          12          12          12          12          12          12          12
 AtmWgt=  12.0000000  12.0000000  12.0000000  12.0000000  12.0000000  12.0000000  12.0000000  12.0000000  12.0000000  12.0000000
 NucSpn=           0           0           0           0           0           0           0           0           0           0
 AtZEff=  -0.0000000  -0.0000000  -0.0000000  -0.0000000  -0.0000000  -0.0000000  -0.0000000  -0.0000000  -0.0000000  -0.0000000
 NQMom=    0.0000000   0.0000000   0.0000000   0.0000000   0.0000000   0.0000000   0.0000000   0.0000000   0.0000000   0.0000000
 NMagM=    0.0000000   0.0000000   0.0000000   0.0000000   0.0000000   0.0000000   0.0000000   0.0000000   0.0000000   0.0000000
 AtZNuc=   6.0000000   6.0000000   6.0000000   6.0000000   6.0000000   6.0000000   6.0000000   6.0000000   6.0000000   6.0000000

  Atom        11          12          13          14          15          16          17          18          19          20
 IAtWgt=          32          12          12          12          12          12          12          12          16          16
 AtmWgt=  31.9720718  12.0000000  12.0000000  12.0000000  12.0000000  12.0000000  12.0000000  12.0000000  15.9949146  15.9949146
 NucSpn=           0           0           0           0           0           0           0           0           0           0
 AtZEff=  -0.0000000  -0.0000000  -0.0000000  -0.0000000  -0.0000000  -0.0000000  -0.0000000  -0.0000000  -0.0000000  -0.0000000
 NQMom=    0.0000000   0.0000000   0.0000000   0.0000000   0.0000000   0.0000000   0.0000000   0.0000000   0.0000000   0.0000000
 NMagM=    0.0000000   0.0000000   0.0000000   0.0000000   0.0000000   0.0000000   0.0000000   0.0000000   0.0000000   0.0000000
 AtZNuc=  16.0000000   6.0000000   6.0000000   6.0000000   6.0000000   6.0000000   6.0000000   6.0000000   8.0000000   8.0000000

  Atom        21          22          23          24          25          26          27          28          29          30
 IAtWgt=           1           1           1           1           1           1           1           1           1           1
 AtmWgt=   1.0078250   1.0078250   1.0078250   1.0078250   1.0078250   1.0078250   1.0078250   1.0078250   1.0078250   1.0078250
 NucSpn=           1           1           1           1           1           1           1           1           1           1
 AtZEff=  -0.0000000  -0.0000000  -0.0000000  -0.0000000  -0.0000000  -0.0000000  -0.0000000  -0.0000000  -0.0000000  -0.0000000
 NQMom=    0.0000000   0.0000000   0.0000000   0.0000000   0.0000000   0.0000000   0.0000000   0.0000000   0.0000000   0.0000000
 NMagM=    2.7928460   2.7928460   2.7928460   2.7928460   2.7928460   2.7928460   2.7928460   2.7928460   2.7928460   2.7928460
 AtZNuc=   1.0000000   1.0000000   1.0000000   1.0000000   1.0000000   1.0000000   1.0000000   1.0000000   1.0000000   1.0000000

  Atom        31          32
 IAtWgt=           1           1
 AtmWgt=   1.0078250   1.0078250
 NucSpn=           1           1
 AtZEff=  -0.0000000  -0.0000000
 NQMom=    0.0000000   0.0000000
 NMagM=    2.7928460   2.7928460
 AtZNuc=   1.0000000   1.0000000
 Leave Link  101 at Mon Jan  8 21:21:25 2024, MaxMem=  4026531840 cpu:               5.7 elap:               0.9
 (Enter /sysapps/ubuntu-applications/gaussian/Gaussian/AVX2/g16/l103.exe)

 GradGradGradGradGradGradGradGradGradGradGradGradGradGradGradGradGradGrad
 Berny optimization.
 Initialization pass.
                           ----------------------------
                           !    Initial Parameters    !
                           ! (Angstroms and Degrees)  !
 --------------------------                            --------------------------
 ! Name  Definition              Value          Derivative Info.                !
 --------------------------------------------------------------------------------
 ! R1    R(1,2)                  1.3909         estimate D2E/DX2                !
 ! R2    R(1,4)                  1.3976         estimate D2E/DX2                !
 ! R3    R(1,21)                 1.083          estimate D2E/DX2                !
 ! R4    R(2,3)                  1.3971         estimate D2E/DX2                !
 ! R5    R(2,22)                 1.084          estimate D2E/DX2                !
 ! R6    R(3,6)                  1.391          estimate D2E/DX2                !
 ! R7    R(3,23)                 1.0841         estimate D2E/DX2                !
 ! R8    R(4,5)                  1.4044         estimate D2E/DX2                !
 ! R9    R(4,7)                  1.4948         estimate D2E/DX2                !
 ! R10   R(5,6)                  1.3963         estimate D2E/DX2                !
 ! R11   R(5,10)                 1.4906         estimate D2E/DX2                !
 ! R12   R(6,24)                 1.0832         estimate D2E/DX2                !
 ! R13   R(7,8)                  1.5076         estimate D2E/DX2                !
 ! R14   R(7,19)                 1.2143         estimate D2E/DX2                !
 ! R15   R(8,9)                  1.3507         estimate D2E/DX2                !
 ! R16   R(8,11)                 1.7738         estimate D2E/DX2                !
 ! R17   R(9,10)                 1.4751         estimate D2E/DX2                !
 ! R18   R(9,25)                 1.0845         estimate D2E/DX2                !
 ! R19   R(10,20)                1.2222         estimate D2E/DX2                !
 ! R20   R(11,12)                1.7993         estimate D2E/DX2                !
 ! R21   R(12,13)                1.3933         estimate D2E/DX2                !
 ! R22   R(12,14)                1.3969         estimate D2E/DX2                !
 ! R23   R(13,16)                1.3932         estimate D2E/DX2                !
 ! R24   R(13,26)                1.0828         estimate D2E/DX2                !
 ! R25   R(14,15)                1.3969         estimate D2E/DX2                !
 ! R26   R(14,27)                1.0846         estimate D2E/DX2                !
 ! R27   R(15,17)                1.4002         estimate D2E/DX2                !
 ! R28   R(15,18)                1.5099         estimate D2E/DX2                !
 ! R29   R(16,17)                1.3919         estimate D2E/DX2                !
 ! R30   R(16,28)                1.0843         estimate D2E/DX2                !
 ! R31   R(17,29)                1.0852         estimate D2E/DX2                !
 ! R32   R(18,30)                1.0919         estimate D2E/DX2                !
 ! R33   R(18,31)                1.0952         estimate D2E/DX2                !
 ! R34   R(18,32)                1.093          estimate D2E/DX2                !
 ! A1    A(2,1,4)              120.0126         estimate D2E/DX2                !
 ! A2    A(2,1,21)             121.2804         estimate D2E/DX2                !
 ! A3    A(4,1,21)             118.7066         estimate D2E/DX2                !
 ! A4    A(1,2,3)              120.1893         estimate D2E/DX2                !
 ! A5    A(1,2,22)             119.8288         estimate D2E/DX2                !
 ! A6    A(3,2,22)             119.9815         estimate D2E/DX2                !
 ! A7    A(2,3,6)              120.1292         estimate D2E/DX2                !
 ! A8    A(2,3,23)             119.9733         estimate D2E/DX2                !
 ! A9    A(6,3,23)             119.8975         estimate D2E/DX2                !
 ! A10   A(1,4,5)              119.7377         estimate D2E/DX2                !
 ! A11   A(1,4,7)              118.9853         estimate D2E/DX2                !
 ! A12   A(5,4,7)              121.2619         estimate D2E/DX2                !
 ! A13   A(4,5,6)              119.9513         estimate D2E/DX2                !
 ! A14   A(4,5,10)             120.1262         estimate D2E/DX2                !
 ! A15   A(6,5,10)             119.9222         estimate D2E/DX2                !
 ! A16   A(3,6,5)              119.9789         estimate D2E/DX2                !
 ! A17   A(3,6,24)             121.4366         estimate D2E/DX2                !
 ! A18   A(5,6,24)             118.5845         estimate D2E/DX2                !
 ! A19   A(4,7,8)              116.909          estimate D2E/DX2                !
 ! A20   A(4,7,19)             121.495          estimate D2E/DX2                !
 ! A21   A(8,7,19)             121.5818         estimate D2E/DX2                !
 ! A22   A(7,8,9)              120.4303         estimate D2E/DX2                !
 ! A23   A(7,8,11)             119.9074         estimate D2E/DX2                !
 ! A24   A(9,8,11)             119.1927         estimate D2E/DX2                !
 ! A25   A(8,9,10)             123.4443         estimate D2E/DX2                !
 ! A26   A(8,9,25)             121.3221         estimate D2E/DX2                !
 ! A27   A(10,9,25)            115.2295         estimate D2E/DX2                !
 ! A28   A(5,10,9)             117.4134         estimate D2E/DX2                !
 ! A29   A(5,10,20)            122.0949         estimate D2E/DX2                !
 ! A30   A(9,10,20)            120.4688         estimate D2E/DX2                !
 ! A31   A(8,11,12)            103.94           estimate D2E/DX2                !
 ! A32   A(11,12,13)           118.7311         estimate D2E/DX2                !
 ! A33   A(11,12,14)           120.6172         estimate D2E/DX2                !
 ! A34   A(13,12,14)           120.461          estimate D2E/DX2                !
 ! A35   A(12,13,16)           119.0635         estimate D2E/DX2                !
 ! A36   A(12,13,26)           120.159          estimate D2E/DX2                !
 ! A37   A(16,13,26)           120.7689         estimate D2E/DX2                !
 ! A38   A(12,14,15)           120.7316         estimate D2E/DX2                !
 ! A39   A(12,14,27)           119.6676         estimate D2E/DX2                !
 ! A40   A(15,14,27)           119.5996         estimate D2E/DX2                !
 ! A41   A(14,15,17)           118.3595         estimate D2E/DX2                !
 ! A42   A(14,15,18)           120.8145         estimate D2E/DX2                !
 ! A43   A(17,15,18)           120.8259         estimate D2E/DX2                !
 ! A44   A(13,16,17)           120.4841         estimate D2E/DX2                !
 ! A45   A(13,16,28)           119.5987         estimate D2E/DX2                !
 ! A46   A(17,16,28)           119.9134         estimate D2E/DX2                !
 ! A47   A(15,17,16)           120.8754         estimate D2E/DX2                !
 ! A48   A(15,17,29)           119.4735         estimate D2E/DX2                !
 ! A49   A(16,17,29)           119.6508         estimate D2E/DX2                !
 ! A50   A(15,18,30)           111.4476         estimate D2E/DX2                !
 ! A51   A(15,18,31)           110.9066         estimate D2E/DX2                !
 ! A52   A(15,18,32)           111.3167         estimate D2E/DX2                !
 ! A53   A(30,18,31)           107.5808         estimate D2E/DX2                !
 ! A54   A(30,18,32)           108.0722         estimate D2E/DX2                !
 ! A55   A(31,18,32)           107.3327         estimate D2E/DX2                !
 ! D1    D(4,1,2,3)             -0.3182         estimate D2E/DX2                !
 ! D2    D(4,1,2,22)           179.8895         estimate D2E/DX2                !
 ! D3    D(21,1,2,3)           179.4759         estimate D2E/DX2                !
 ! D4    D(21,1,2,22)           -0.3163         estimate D2E/DX2                !
 ! D5    D(2,1,4,5)              0.2616         estimate D2E/DX2                !
 ! D6    D(2,1,4,7)            178.8635         estimate D2E/DX2                !
 ! D7    D(21,1,4,5)          -179.5378         estimate D2E/DX2                !
 ! D8    D(21,1,4,7)            -0.9359         estimate D2E/DX2                !
 ! D9    D(1,2,3,6)              0.1062         estimate D2E/DX2                !
 ! D10   D(1,2,3,23)          -179.8321         estimate D2E/DX2                !
 ! D11   D(22,2,3,6)           179.8982         estimate D2E/DX2                !
 ! D12   D(22,2,3,23)           -0.0401         estimate D2E/DX2                !
 ! D13   D(2,3,6,5)              0.1618         estimate D2E/DX2                !
 ! D14   D(2,3,6,24)          -179.8361         estimate D2E/DX2                !
 ! D15   D(23,3,6,5)          -179.8998         estimate D2E/DX2                !
 ! D16   D(23,3,6,24)            0.1022         estimate D2E/DX2                !
 ! D17   D(1,4,5,6)              0.0055         estimate D2E/DX2                !
 ! D18   D(1,4,5,10)          -179.7823         estimate D2E/DX2                !
 ! D19   D(7,4,5,6)           -178.5638         estimate D2E/DX2                !
 ! D20   D(7,4,5,10)             1.6484         estimate D2E/DX2                !
 ! D21   D(1,4,7,8)            174.9208         estimate D2E/DX2                !
 ! D22   D(1,4,7,19)            -6.4326         estimate D2E/DX2                !
 ! D23   D(5,4,7,8)             -6.4994         estimate D2E/DX2                !
 ! D24   D(5,4,7,19)           172.1473         estimate D2E/DX2                !
 ! D25   D(4,5,6,3)             -0.2168         estimate D2E/DX2                !
 ! D26   D(4,5,6,24)           179.7812         estimate D2E/DX2                !
 ! D27   D(10,5,6,3)           179.5714         estimate D2E/DX2                !
 ! D28   D(10,5,6,24)           -0.4306         estimate D2E/DX2                !
 ! D29   D(4,5,10,9)             3.0708         estimate D2E/DX2                !
 ! D30   D(4,5,10,20)         -178.6643         estimate D2E/DX2                !
 ! D31   D(6,5,10,9)          -176.717          estimate D2E/DX2                !
 ! D32   D(6,5,10,20)            1.5479         estimate D2E/DX2                !
 ! D33   D(4,7,8,9)              6.823          estimate D2E/DX2                !
 ! D34   D(4,7,8,11)           178.8976         estimate D2E/DX2                !
 ! D35   D(19,7,8,9)          -171.8224         estimate D2E/DX2                !
 ! D36   D(19,7,8,11)            0.2523         estimate D2E/DX2                !
 ! D37   D(7,8,9,10)            -2.2756         estimate D2E/DX2                !
 ! D38   D(7,8,9,25)           178.4963         estimate D2E/DX2                !
 ! D39   D(11,8,9,10)         -174.4065         estimate D2E/DX2                !
 ! D40   D(11,8,9,25)            6.3655         estimate D2E/DX2                !
 ! D41   D(7,8,11,12)           50.0494         estimate D2E/DX2                !
 ! D42   D(9,8,11,12)         -137.7779         estimate D2E/DX2                !
 ! D43   D(8,9,10,5)            -2.7852         estimate D2E/DX2                !
 ! D44   D(8,9,10,20)          178.9203         estimate D2E/DX2                !
 ! D45   D(25,9,10,5)          176.4858         estimate D2E/DX2                !
 ! D46   D(25,9,10,20)          -1.8087         estimate D2E/DX2                !
 ! D47   D(8,11,12,13)        -128.0759         estimate D2E/DX2                !
 ! D48   D(8,11,12,14)          56.9199         estimate D2E/DX2                !
 ! D49   D(11,12,13,16)       -175.2426         estimate D2E/DX2                !
 ! D50   D(11,12,13,26)          5.8181         estimate D2E/DX2                !
 ! D51   D(14,12,13,16)         -0.2303         estimate D2E/DX2                !
 ! D52   D(14,12,13,26)       -179.1696         estimate D2E/DX2                !
 ! D53   D(11,12,14,15)        176.4596         estimate D2E/DX2                !
 ! D54   D(11,12,14,27)         -3.1471         estimate D2E/DX2                !
 ! D55   D(13,12,14,15)          1.542          estimate D2E/DX2                !
 ! D56   D(13,12,14,27)       -178.0647         estimate D2E/DX2                !
 ! D57   D(12,13,16,17)         -0.8207         estimate D2E/DX2                !
 ! D58   D(12,13,16,28)        179.8979         estimate D2E/DX2                !
 ! D59   D(26,13,16,17)        178.1119         estimate D2E/DX2                !
 ! D60   D(26,13,16,28)         -1.1694         estimate D2E/DX2                !
 ! D61   D(12,14,15,17)         -1.7555         estimate D2E/DX2                !
 ! D62   D(12,14,15,18)        178.0903         estimate D2E/DX2                !
 ! D63   D(27,14,15,17)        177.8514         estimate D2E/DX2                !
 ! D64   D(27,14,15,18)         -2.3027         estimate D2E/DX2                !
 ! D65   D(14,15,17,16)          0.7029         estimate D2E/DX2                !
 ! D66   D(14,15,17,29)       -179.1023         estimate D2E/DX2                !
 ! D67   D(18,15,17,16)       -179.143          estimate D2E/DX2                !
 ! D68   D(18,15,17,29)          1.0518         estimate D2E/DX2                !
 ! D69   D(14,15,18,30)         18.3818         estimate D2E/DX2                !
 ! D70   D(14,15,18,31)       -101.4505         estimate D2E/DX2                !
 ! D71   D(14,15,18,32)        139.117          estimate D2E/DX2                !
 ! D72   D(17,15,18,30)       -161.7761         estimate D2E/DX2                !
 ! D73   D(17,15,18,31)         78.3916         estimate D2E/DX2                !
 ! D74   D(17,15,18,32)        -41.0409         estimate D2E/DX2                !
 ! D75   D(13,16,17,15)          0.5832         estimate D2E/DX2                !
 ! D76   D(13,16,17,29)       -179.6119         estimate D2E/DX2                !
 ! D77   D(28,16,17,15)        179.8623         estimate D2E/DX2                !
 ! D78   D(28,16,17,29)         -0.3328         estimate D2E/DX2                !
 --------------------------------------------------------------------------------
 Trust Radius=3.00D-01 FncErr=1.00D-07 GrdErr=1.00D-06 EigMax=2.50D+02 EigMin=1.00D-04
 Number of steps in this run=    177 maximum allowed number of steps=    192.
 GradGradGradGradGradGradGradGradGradGradGradGradGradGradGradGradGradGrad

 Leave Link  103 at Mon Jan  8 21:21:25 2024, MaxMem=  4026531840 cpu:               0.3 elap:               0.1
 (Enter /sysapps/ubuntu-applications/gaussian/Gaussian/AVX2/g16/l202.exe)
                          Input orientation:                          
 ---------------------------------------------------------------------
 Center     Atomic      Atomic             Coordinates (Angstroms)
 Number     Number       Type             X           Y           Z
 ---------------------------------------------------------------------
      1          6           0       -4.227105   -1.303938   -0.177540
      2          6           0       -3.908096   -1.788913   -1.441564
      3          6           0       -3.102389   -1.036663   -2.299913
      4          6           0       -3.735983   -0.063809    0.239873
      5          6           0       -2.925224    0.690796   -0.623532
      6          6           0       -2.613466    0.200486   -1.893211
      7          6           0       -4.114105    0.446886    1.592933
      8          6           0       -3.465744    1.731282    2.043118
      9          6           0       -2.694909    2.443244    1.192631
     10          6           0       -2.392776    2.012309   -0.185428
     11         16           0       -3.879212    2.424447    3.622668
     12          6           0       -3.695495    1.044774    4.762989
     13          6           0       -4.749203    0.741512    5.622661
     14          6           0       -2.482948    0.357867    4.859147
     15          6           0       -2.314464   -0.665408    5.795041
     16          6           0       -4.578001   -0.259736    6.576218
     17          6           0       -3.377384   -0.959230    6.657879
     18          6           0       -1.019365   -1.437816    5.871834
     19          8           0       -4.925049   -0.133141    2.286086
     20          8           0       -1.704055    2.709441   -0.915843
     21          1           0       -4.856970   -1.868387    0.498825
     22          1           0       -4.289179   -2.751983   -1.761589
     23          1           0       -2.858188   -1.416784   -3.285327
     24          1           0       -1.989344    0.802420   -2.542337
     25          1           0       -2.241271    3.381163    1.493602
     26          1           0       -5.691485    1.267734    5.535024
     27          1           0       -1.660756    0.625817    4.204461
     28          1           0       -5.391716   -0.501686    7.250740
     29          1           0       -3.260926   -1.740851    7.401701
     30          1           0       -0.204930   -0.901574    5.380475
     31          1           0       -1.116198   -2.412835    5.382416
     32          1           0       -0.727261   -1.621611    6.908873
 ---------------------------------------------------------------------
                    Distance matrix (angstroms):
                    1          2          3          4          5
     1  C    0.000000
     2  C    1.390944   0.000000
     3  C    2.416793   1.397071   0.000000
     4  C    1.397625   2.415127   2.792561   0.000000
     5  C    2.423379   2.790013   2.413660   1.404360   0.000000
     6  C    2.794754   2.416146   1.391039   2.424860   1.396310
     7  C    2.492535   3.774839   4.287043   1.494843   2.526984
     8  C    3.837128   4.972973   5.162893   2.558725   2.913039
     9  C    4.273917   5.130493   4.947086   2.876960   2.534278
    10  C    3.789765   4.280580   3.777675   2.509054   1.490581
    11  S    5.335116   6.587844   6.903601   4.201813   4.684640
    12  C    5.496170   6.824328   7.387066   4.657164   5.452818
    13  C    6.172421   7.550747   8.284991   5.536205   6.507257
    14  C    5.583180   6.807251   7.319874   4.804748   5.510555
    15  C    6.303780   7.494690   8.141679   5.765633   6.588657
    16  C    6.843006   8.189749   9.031431   6.395049   7.447925
    17  C    6.896652   8.159106   8.962347   6.490083   7.479705
    18  C    6.848536   7.871075   8.442592   6.402101   7.095990
    19  O    2.815554   4.203707   5.016954   2.367630   3.625472
    20  O    4.797717   5.036801   4.231345   3.627027   2.377315
    21  H    1.082960   2.161432   3.406355   2.140133   3.397167
    22  H    2.147067   1.084041   2.154202   3.396786   3.874051
    23  H    3.397795   2.154124   1.084051   3.876609   3.395812
    24  H    3.877703   3.407098   2.163300   3.397321   2.137789
    25  H    5.355971   6.174398   5.886380   3.959019   3.491149
    26  H    6.433607   7.822809   8.567374   5.799622   6.775904
    27  H    5.432498   6.539041   6.866515   4.527705   4.991254
    28  H    7.561698   8.911466   9.835761   7.217025   8.337251
    29  H    7.653057   8.867044   9.728429   7.370884   8.392256
    30  H    6.872505   7.812876   8.209865   6.292533   6.781131
    31  H    6.466878   7.399370   8.053383   6.231127   6.998322
    32  H    7.909935   8.937309   9.528123   7.480289   8.180183
                    6          7          8          9         10
     6  C    0.000000
     7  C    3.803397   0.000000
     8  C    4.308642   1.507552   0.000000
     9  C    3.815628   2.481895   1.350705   0.000000
    10  C    2.499586   2.928496   2.489308   1.475139   0.000000
    11  S    6.080546   2.843545   1.773813   2.703333   4.108643
    12  C    6.796220   3.252992   2.814565   3.962871   5.207690
    13  C    7.832140   4.090093   3.929382   5.171188   6.395434
    14  C    6.755453   3.651952   3.283622   4.223395   5.309712
    15  C    7.742635   4.704638   4.598532   5.566923   6.553038
    16  C    8.706459   5.054468   5.074472   6.311509   7.460379
    17  C    8.663120   5.307881   5.342535   6.473912   7.525314
    18  C    8.094511   5.607006   5.539586   6.305951   7.104931
    19  O    4.787614   1.214299   2.380058   3.578677   4.138085
    20  O    2.842030   4.149874   3.579915   2.344849   1.222226
    21  H    3.877548   2.666348   4.156677   4.872991   4.647608
    22  H    3.397412   4.638559   5.937466   6.185426   5.364616
    23  H    2.147892   5.371035   6.218663   5.914270   4.645930
    24  H    1.083152   4.662775   4.906011   4.140062   2.679852
    25  H    4.661088   3.482435   2.126831   1.084464   2.171602
    26  H    8.111220   4.324581   4.166798   5.405337   6.645257
    27  H    6.186289   3.587620   3.025134   3.666556   4.661474
    28  H    9.582461   5.877317   5.984550   7.255761   8.403000
    29  H    9.517530   6.265452   6.388432   7.508633   8.509079
    30  H    7.740936   5.607626   5.357499   5.909809   6.652568
    31  H    7.874389   5.614769   5.817644   6.605159   7.225817
    32  H    9.184470   6.633899   6.512814   7.284923   8.142998
                   11         12         13         14         15
    11  S    0.000000
    12  C    1.799328   0.000000
    13  C    2.754837   1.393307   0.000000
    14  C    2.783736   1.396910   2.421993   0.000000
    15  C    4.088379   2.428395   2.817285   1.396917   0.000000
    16  C    4.051741   2.401742   1.393226   2.778311   2.428664
    17  C    4.573140   2.776299   2.417868   2.402123   1.400221
    18  C    5.306086   3.815031   4.327037   2.528258   1.509898
    19  O    3.069443   3.005717   3.453791   3.581283   4.405817
    20  O    5.040894   6.243884   7.476477   6.283875   7.536456
    21  H    5.398410   5.293262   5.751250   5.441011   5.996782
    22  H    7.480222   7.572182   8.181887   7.534440   8.084303
    23  H    7.969814   8.457880   9.358762   8.344019   9.127611
    24  H    6.649050   7.505829   8.619033   7.431234   8.471841
    25  H    2.851505   4.273450   5.505144   4.530521   5.906138
    26  H    2.877399   2.151680   1.082814   3.402848   3.899861
    27  H    2.914635   2.151195   3.400468   1.084625   2.150475
    28  H    4.900289   3.384909   2.146859   3.862574   3.408129
    29  H    5.658010   3.861523   3.397363   3.387395   2.152609
    30  H    5.258579   4.043959   4.838264   2.654683   2.162816
    31  H    5.842111   4.357926   4.817297   3.133465   2.158611
    32  H    6.091348   4.530435   4.838875   3.346961   2.161980
                   16         17         18         19         20
    16  C    0.000000
    17  C    1.391920   0.000000
    18  C    3.814173   2.531238   0.000000
    19  O    4.306008   4.710654   5.460232   0.000000
    20  O    8.556083   8.580236   7.983802   5.357931   0.000000
    21  H    6.292876   6.399194   6.616784   2.491990   5.735736
    22  H    8.707109   8.656372   8.407608   4.862750   6.101254
    23  H   10.077033   9.967260   9.339984   6.079498   4.896142
    24  H    9.538206   9.469638   8.761152   5.727766   2.522618
    25  H    6.674537   6.841018   6.624540   4.492330   2.558366
    26  H    2.158031   3.402240   5.409450   3.620148   7.719573
    27  H    3.862610   3.387985   2.729486   3.861579   5.528189
    28  H    1.084275   2.149038   4.679228   5.000139   9.518574
    29  H    2.147047   1.085249   2.730736   5.614584   9.560883
    30  H    4.578811   3.420460   1.091922   5.696074   7.411506
    31  H    4.247950   2.975355   1.095248   5.412172   8.139493
    32  H    4.097995   2.743155   1.092957   6.419278   8.996573
                   21         22         23         24         25
    21  H    0.000000
    22  H    2.492509   0.000000
    23  H    4.303357   2.480377   0.000000
    24  H    4.960358   4.304949   2.496355   0.000000
    25  H    5.948885   7.239176   6.799930   4.796059   0.000000
    26  H    5.991241   8.447790   9.645351   8.897535   5.718711
    27  H    5.492593   7.342472   7.855125   6.757103   3.908668
    28  H    6.909572   9.354224  10.874966  10.448980   7.625382
    29  H    7.086136   9.276075  10.699523  10.342584   7.885452
    30  H    6.812247   8.432922   9.077519   8.298113   6.131582
    31  H    6.175699   7.824298   8.896989   8.596625   7.068173
    32  H    7.629162   9.441499  10.416550   9.838402   7.526296
                   26         27         28         29         30
    26  H    0.000000
    27  H    4.292928   0.000000
    28  H    2.482819   4.946831   0.000000
    29  H    4.294611   4.287657   2.469531   0.000000
    30  H    5.901870   2.415649   5.528160   3.758837   0.000000
    31  H    5.873936   3.304168   5.042140   3.021412   1.764744
    32  H    5.905870   3.638157   4.809183   2.583903   1.768413
                   31         32
    31  H    0.000000
    32  H    1.762776   0.000000
 Symmetry turned off by external request.
 Stoichiometry    C17H12O2S
 Framework group  C1[X(C17H12O2S)]
 Deg. of freedom    90
 Full point group                 C1      NOp   1
 Rotational constants (GHZ):           0.5739053           0.1871649           0.1699300
 Leave Link  202 at Mon Jan  8 21:21:25 2024, MaxMem=  4026531840 cpu:               0.7 elap:               0.2
 (Enter /sysapps/ubuntu-applications/gaussian/Gaussian/AVX2/g16/l301.exe)
 Standard basis: 6-311++G(d,p) (5D, 7F)
 Ernie: Thresh=  0.10000D-02 Tol=  0.10000D-05 Strict=F.
   532 basis functions,   842 primitive gaussians,   552 cartesian basis functions
    73 alpha electrons       73 beta electrons
       nuclear repulsion energy      1524.6459323369 Hartrees.
 IExCor=  402 DFT=T Ex+Corr=B3LYP ExCW=0 ScaHFX=  0.200000
 ScaDFX=  0.800000  0.720000  1.000000  0.810000 ScalE2=  1.000000  1.000000
 IRadAn=      5 IRanWt=     -1 IRanGd=            0 ICorTp=0 IEmpDi=  4
 NAtoms=   32 NActive=   32 NUniq=   32 SFac= 1.00D+00 NAtFMM=   60 NAOKFM=F Big=F
 Integral buffers will be    131072 words long.
 Raffenetti 2 integral format.
 Two-electron integral symmetry is turned off.
 Leave Link  301 at Mon Jan  8 21:21:26 2024, MaxMem=  4026531840 cpu:               0.5 elap:               0.1
 (Enter /sysapps/ubuntu-applications/gaussian/Gaussian/AVX2/g16/l302.exe)
 NPDir=0 NMtPBC=     1 NCelOv=     1 NCel=       1 NClECP=     1 NCelD=      1
         NCelK=      1 NCelE2=     1 NClLst=     1 CellRange=     0.0.
 One-electron integrals computed using PRISM.
 NBasis=   532 RedAO= T EigKep=  1.02D-06  NBF=   532
 NBsUse=   528 1.00D-06 EigRej=  8.84D-07 NBFU=   528
 Precomputing XC quadrature grid using
 IXCGrd= 4 IRadAn=           5 IRanWt=          -1 IRanGd=           0 AccXCQ= 0.00D+00.
 Generated NRdTot=       0 NPtTot=           0 NUsed=           0 NTot=          32
 NSgBfM=   548   548   548   548   548 MxSgAt=    32 MxSgA2=    32.
 Leave Link  302 at Mon Jan  8 21:21:27 2024, MaxMem=  4026531840 cpu:              10.3 elap:               1.6
 (Enter /sysapps/ubuntu-applications/gaussian/Gaussian/AVX2/g16/l303.exe)
 DipDrv:  MaxL=1.
 Leave Link  303 at Mon Jan  8 21:21:28 2024, MaxMem=  4026531840 cpu:               2.2 elap:               0.4
 (Enter /sysapps/ubuntu-applications/gaussian/Gaussian/AVX2/g16/l401.exe)
 ExpMin= 3.60D-02 ExpMax= 9.34D+04 ExpMxC= 3.17D+03 IAcc=3 IRadAn=         5 AccDes= 0.00D+00
 Harris functional with IExCor=  402 and IRadAn=       5 diagonalized for initial guess.
 HarFok:  IExCor=  402 AccDes= 0.00D+00 IRadAn=         5 IDoV= 1 UseB2=F ITyADJ=14
 ICtDFT=  3500011 ScaDFX=  1.000000  1.000000  1.000000  1.000000
 FoFCou: FMM=F IPFlag=           0 FMFlag=      100000 FMFlg1=           0
         NFxFlg=           0 DoJE=T BraDBF=F KetDBF=T FulRan=T
         wScrn=  0.000000 ICntrl=       500 IOpCl=  0 I1Cent=   200000004 NGrid=           0
         NMat0=    1 NMatS0=      1 NMatT0=    0 NMatD0=    1 NMtDS0=    0 NMtDT0=    0
 Symmetry not used in FoFCou.
 Harris En= -1203.91364050278    
 JPrj=0 DoOrth=F DoCkMO=F.
 Initial guess <Sx>= 0.0000 <Sy>= 0.0000 <Sz>= 0.0000 <S**2>=-0.0000 S=-0.0000
 Leave Link  401 at Mon Jan  8 21:21:33 2024, MaxMem=  4026531840 cpu:              38.1 elap:               5.5
 (Enter /sysapps/ubuntu-applications/gaussian/Gaussian/AVX2/g16/l502.exe)
 Two-electron integral symmetry not used.
 UHF open shell SCF:
 Using DIIS extrapolation, IDIIS=  1040.
 NGot=  4026531840 LenX=  4025914092 LenY=  4025608836
 Requested convergence on RMS density matrix=1.00D-08 within 128 cycles.
 Requested convergence on MAX density matrix=1.00D-06.
 Requested convergence on             energy=1.00D-06.
 No special actions if energy rises.
 Fock matrices will be formed incrementally for  20 cycles.

 Cycle   1  Pass 1  IDiag  1:
 FoFJK:  IHMeth= 1 ICntrl=       0 DoSepK=F KAlg= 0 I1Cent=           0 FoldK=F
 IRaf= 820000000 NMat=       1 IRICut=       1 DoRegI=T DoRafI=F ISym2E= 0 IDoP0=0 IntGTp=1.
 FoFCou: FMM=F IPFlag=           0 FMFlag=      100000 FMFlg1=           0
         NFxFlg=           0 DoJE=F BraDBF=F KetDBF=F FulRan=T
         wScrn=  0.000000 ICntrl=         0 IOpCl=  1 I1Cent=           0 NGrid=           0
         NMat0=    1 NMatS0=      1 NMatT0=    0 NMatD0=    1 NMtDS0=    0 NMtDT0=    0
 Symmetry not used in FoFCou.
 E= -1203.33458473957    
 DIIS: error= 2.74D-02 at cycle   1 NSaved=   1.
 NSaved= 1 IEnMin= 1 EnMin= -1203.33458473957     IErMin= 1 ErrMin= 2.74D-02
 ErrMax= 2.74D-02  0.00D+00 EMaxC= 1.00D-01 BMatC= 2.56D+00 BMatP= 2.56D+00
 IDIUse=3 WtCom= 7.26D-01 WtEn= 2.74D-01
 Coeff-Com:  0.100D+01
 Coeff-En:   0.100D+01
 Coeff:      0.100D+01
 Gap=     0.214 Goal=   None    Shift=    0.000
 Gap=     0.214 Goal=   None    Shift=    0.000
 GapD=    0.214 DampG=1.000 DampE=0.500 DampFc=0.5000 IDamp=-1.
 Damping current iteration by 5.00D-01
 RMSDP=1.14D-01 MaxDP=1.07D+01              OVMax= 3.47D-01

 Cycle   2  Pass 1  IDiag  1:
 RMSU=  5.30D-02    CP:  1.37D+00
 E= -1203.44723429336     Delta-E=       -0.112649553783 Rises=F Damp=T
 DIIS: error= 1.78D-02 at cycle   2 NSaved=   2.
 NSaved= 2 IEnMin= 2 EnMin= -1203.44723429336     IErMin= 2 ErrMin= 1.78D-02
 ErrMax= 1.78D-02  0.00D+00 EMaxC= 1.00D-01 BMatC= 4.95D-01 BMatP= 2.56D+00
 IDIUse=3 WtCom= 8.22D-01 WtEn= 1.78D-01
 Coeff-Com:  0.231D+00 0.769D+00
 Coeff-En:   0.399D+00 0.601D+00
 Coeff:      0.261D+00 0.739D+00
 Gap=     0.296 Goal=   None    Shift=    0.000
 Gap=     0.296 Goal=   None    Shift=    0.000
 RMSDP=4.97D-02 MaxDP=3.40D+00 DE=-1.13D-01 OVMax= 2.83D-01

 Cycle   3  Pass 1  IDiag  1:
 RMSU=  2.43D-02    CP:  1.15D+00  2.16D-01
 E= -1203.78376213208     Delta-E=       -0.336527838719 Rises=F Damp=F
 DIIS: error= 2.24D-02 at cycle   3 NSaved=   3.
 NSaved= 3 IEnMin= 3 EnMin= -1203.78376213208     IErMin= 2 ErrMin= 1.78D-02
 ErrMax= 2.24D-02  0.00D+00 EMaxC= 1.00D-01 BMatC= 5.11D-01 BMatP= 4.95D-01
 IDIUse=3 WtCom= 7.76D-01 WtEn= 2.24D-01
 Coeff-Com:  0.673D-01 0.493D+00 0.440D+00
 Coeff-En:   0.000D+00 0.000D+00 0.100D+01
 Coeff:      0.522D-01 0.382D+00 0.565D+00
 Gap=     0.109 Goal=   None    Shift=    0.000
 Gap=     0.109 Goal=   None    Shift=    0.000
 RMSDP=1.64D-02 MaxDP=1.58D+00 DE=-3.37D-01 OVMax= 1.44D-01

 Cycle   4  Pass 1  IDiag  1:
 RMSU=  9.33D-03    CP:  1.06D+00  1.45D-01  5.07D-01
 E= -1203.83538393053     Delta-E=       -0.051621798456 Rises=F Damp=F
 DIIS: error= 1.62D-02 at cycle   4 NSaved=   4.
 NSaved= 4 IEnMin= 4 EnMin= -1203.83538393053     IErMin= 4 ErrMin= 1.62D-02
 ErrMax= 1.62D-02  0.00D+00 EMaxC= 1.00D-01 BMatC= 3.08D-01 BMatP= 4.95D-01
 IDIUse=3 WtCom= 8.38D-01 WtEn= 1.62D-01
 Coeff-Com:  0.165D-01 0.920D-01 0.420D+00 0.471D+00
 Coeff-En:   0.000D+00 0.000D+00 0.398D+00 0.602D+00
 Coeff:      0.138D-01 0.771D-01 0.417D+00 0.492D+00
 Gap=     0.154 Goal=   None    Shift=    0.000
 Gap=     0.154 Goal=   None    Shift=    0.000
 RMSDP=9.55D-03 MaxDP=6.92D-01 DE=-5.16D-02 OVMax= 7.79D-02

 Cycle   5  Pass 1  IDiag  1:
 RMSU=  2.83D-03    CP:  1.08D+00  2.24D-01  7.76D-01  4.91D-01
 E= -1203.90138045543     Delta-E=       -0.065996524894 Rises=F Damp=F
 DIIS: error= 3.58D-03 at cycle   5 NSaved=   5.
 NSaved= 5 IEnMin= 5 EnMin= -1203.90138045543     IErMin= 5 ErrMin= 3.58D-03
 ErrMax= 3.58D-03  0.00D+00 EMaxC= 1.00D-01 BMatC= 1.06D-02 BMatP= 3.08D-01
 IDIUse=3 WtCom= 9.64D-01 WtEn= 3.58D-02
 Coeff-Com:  0.430D-02 0.187D-02 0.199D+00 0.289D+00 0.506D+00
 Coeff-En:   0.000D+00 0.000D+00 0.000D+00 0.000D+00 0.100D+01
 Coeff:      0.415D-02 0.180D-02 0.192D+00 0.278D+00 0.524D+00
 Gap=     0.111 Goal=   None    Shift=    0.000
 Gap=     0.111 Goal=   None    Shift=    0.000
 RMSDP=1.79D-03 MaxDP=1.82D-01 DE=-6.60D-02 OVMax= 2.00D-02

 Cycle   6  Pass 1  IDiag  1:
 RMSU=  9.99D-04    CP:  1.07D+00  2.05D-01  7.85D-01  5.59D-01  7.84D-01
 E= -1203.90311162643     Delta-E=       -0.001731171000 Rises=F Damp=F
 DIIS: error= 2.12D-03 at cycle   6 NSaved=   6.
 NSaved= 6 IEnMin= 6 EnMin= -1203.90311162643     IErMin= 6 ErrMin= 2.12D-03
 ErrMax= 2.12D-03  0.00D+00 EMaxC= 1.00D-01 BMatC= 2.97D-03 BMatP= 1.06D-02
 IDIUse=3 WtCom= 9.79D-01 WtEn= 2.12D-02
 Coeff-Com:  0.587D-03-0.133D-01 0.539D-01 0.974D-01 0.364D+00 0.497D+00
 Coeff-En:   0.000D+00 0.000D+00 0.000D+00 0.000D+00 0.228D+00 0.772D+00
 Coeff:      0.575D-03-0.130D-01 0.527D-01 0.953D-01 0.362D+00 0.503D+00
 Gap=     0.110 Goal=   None    Shift=    0.000
 Gap=     0.110 Goal=   None    Shift=    0.000
 RMSDP=7.22D-04 MaxDP=6.31D-02 DE=-1.73D-03 OVMax= 7.57D-03

 Cycle   7  Pass 1  IDiag  1:
 RMSU=  5.41D-04    CP:  1.07D+00  2.00D-01  7.83D-01  5.74D-01  7.39D-01
                    CP:  6.89D-01
 E= -1203.90365175456     Delta-E=       -0.000540128131 Rises=F Damp=F
 DIIS: error= 4.20D-04 at cycle   7 NSaved=   7.
 NSaved= 7 IEnMin= 7 EnMin= -1203.90365175456     IErMin= 7 ErrMin= 4.20D-04
 ErrMax= 4.20D-04  0.00D+00 EMaxC= 1.00D-01 BMatC= 3.05D-04 BMatP= 2.97D-03
 IDIUse=3 WtCom= 9.96D-01 WtEn= 4.20D-03
 Coeff-Com:  0.525D-03-0.751D-02 0.813D-02 0.203D-01 0.150D+00 0.305D+00
 Coeff-Com:  0.523D+00
 Coeff-En:   0.000D+00 0.000D+00 0.000D+00 0.000D+00 0.000D+00 0.645D-01
 Coeff-En:   0.935D+00
 Coeff:      0.523D-03-0.747D-02 0.809D-02 0.202D-01 0.150D+00 0.304D+00
 Coeff:      0.525D+00
 Gap=     0.111 Goal=   None    Shift=    0.000
 Gap=     0.111 Goal=   None    Shift=    0.000
 RMSDP=3.52D-04 MaxDP=3.36D-02 DE=-5.40D-04 OVMax= 4.09D-03

 Cycle   8  Pass 1  IDiag  1:
 RMSU=  1.56D-04    CP:  1.07D+00  2.02D-01  7.79D-01  5.71D-01  7.67D-01
                    CP:  7.55D-01  5.53D-01
 E= -1203.90370815238     Delta-E=       -0.000056397826 Rises=F Damp=F
 DIIS: error= 1.74D-04 at cycle   8 NSaved=   8.
 NSaved= 8 IEnMin= 8 EnMin= -1203.90370815238     IErMin= 8 ErrMin= 1.74D-04
 ErrMax= 1.74D-04  0.00D+00 EMaxC= 1.00D-01 BMatC= 4.11D-05 BMatP= 3.05D-04
 IDIUse=3 WtCom= 9.98D-01 WtEn= 1.74D-03
 Coeff-Com:  0.420D-03-0.318D-02 0.153D-03 0.232D-02 0.592D-01 0.140D+00
 Coeff-Com:  0.338D+00 0.463D+00
 Coeff-En:   0.000D+00 0.000D+00 0.000D+00 0.000D+00 0.000D+00 0.000D+00
 Coeff-En:   0.110D+00 0.890D+00
 Coeff:      0.420D-03-0.317D-02 0.153D-03 0.232D-02 0.591D-01 0.140D+00
 Coeff:      0.337D+00 0.464D+00
 Gap=     0.110 Goal=   None    Shift=    0.000
 Gap=     0.110 Goal=   None    Shift=    0.000
 RMSDP=1.34D-04 MaxDP=1.73D-02 DE=-5.64D-05 OVMax= 1.00D-03

 Cycle   9  Pass 1  IDiag  1:
 RMSU=  7.02D-05    CP:  1.07D+00  2.02D-01  7.80D-01  5.69D-01  7.67D-01
                    CP:  7.09D-01  6.75D-01  6.87D-01
 E= -1203.90371793627     Delta-E=       -0.000009783890 Rises=F Damp=F
 DIIS: error= 5.98D-05 at cycle   9 NSaved=   9.
 NSaved= 9 IEnMin= 9 EnMin= -1203.90371793627     IErMin= 9 ErrMin= 5.98D-05
 ErrMax= 5.98D-05  0.00D+00 EMaxC= 1.00D-01 BMatC= 4.81D-06 BMatP= 4.11D-05
 IDIUse=1 WtCom= 1.00D+00 WtEn= 0.00D+00
 Coeff-Com:  0.257D-03-0.686D-03-0.995D-03-0.237D-02 0.960D-02 0.313D-01
 Coeff-Com:  0.120D+00 0.282D+00 0.561D+00
 Coeff:      0.257D-03-0.686D-03-0.995D-03-0.237D-02 0.960D-02 0.313D-01
 Coeff:      0.120D+00 0.282D+00 0.561D+00
 Gap=     0.110 Goal=   None    Shift=    0.000
 Gap=     0.110 Goal=   None    Shift=    0.000
 RMSDP=5.23D-05 MaxDP=7.78D-03 DE=-9.78D-06 OVMax= 5.04D-04

 Cycle  10  Pass 1  IDiag  1:
 RMSU=  2.64D-05    CP:  1.07D+00  2.02D-01  7.80D-01  5.69D-01  7.67D-01
                    CP:  7.36D-01  6.30D-01  7.87D-01  7.33D-01
 E= -1203.90371910005     Delta-E=       -0.000001163773 Rises=F Damp=F
 DIIS: error= 1.48D-05 at cycle  10 NSaved=  10.
 NSaved=10 IEnMin=10 EnMin= -1203.90371910005     IErMin=10 ErrMin= 1.48D-05
 ErrMax= 1.48D-05  0.00D+00 EMaxC= 1.00D-01 BMatC= 4.46D-07 BMatP= 4.81D-06
 IDIUse=1 WtCom= 1.00D+00 WtEn= 0.00D+00
 Coeff-Com:  0.113D-03-0.190D-03-0.526D-03-0.152D-02-0.812D-04 0.479D-02
 Coeff-Com:  0.360D-01 0.100D+00 0.309D+00 0.553D+00
 Coeff:      0.113D-03-0.190D-03-0.526D-03-0.152D-02-0.812D-04 0.479D-02
 Coeff:      0.360D-01 0.100D+00 0.309D+00 0.553D+00
 Gap=     0.110 Goal=   None    Shift=    0.000
 Gap=     0.110 Goal=   None    Shift=    0.000
 RMSDP=2.87D-05 MaxDP=4.40D-03 DE=-1.16D-06 OVMax= 9.90D-05

 Cycle  11  Pass 1  IDiag  1:
 RMSU=  7.65D-06    CP:  1.07D+00  2.02D-01  7.81D-01  5.69D-01  7.68D-01
                    CP:  7.31D-01  6.53D-01  7.60D-01  8.19D-01  6.85D-01
 E= -1203.90371921810     Delta-E=       -0.000000118057 Rises=F Damp=F
 DIIS: error= 5.20D-06 at cycle  11 NSaved=  11.
 NSaved=11 IEnMin=11 EnMin= -1203.90371921810     IErMin=11 ErrMin= 5.20D-06
 ErrMax= 5.20D-06  0.00D+00 EMaxC= 1.00D-01 BMatC= 4.62D-08 BMatP= 4.46D-07
 IDIUse=1 WtCom= 1.00D+00 WtEn= 0.00D+00
 Coeff-Com:  0.283D-04-0.859D-05-0.109D-03-0.462D-03-0.184D-02-0.223D-02
 Coeff-Com:  0.182D-02 0.872D-02 0.871D-01 0.279D+00 0.628D+00
 Coeff:      0.283D-04-0.859D-05-0.109D-03-0.462D-03-0.184D-02-0.223D-02
 Coeff:      0.182D-02 0.872D-02 0.871D-01 0.279D+00 0.628D+00
 Gap=     0.110 Goal=   None    Shift=    0.000
 Gap=     0.110 Goal=   None    Shift=    0.000
 RMSDP=5.05D-06 MaxDP=5.77D-04 DE=-1.18D-07 OVMax= 7.44D-05

 Cycle  12  Pass 1  IDiag  1:
 RMSU=  2.18D-06    CP:  1.07D+00  2.02D-01  7.81D-01  5.69D-01  7.68D-01
                    CP:  7.32D-01  6.53D-01  7.72D-01  8.29D-01  7.33D-01
                    CP:  9.91D-01
 E= -1203.90371922897     Delta-E=       -0.000000010869 Rises=F Damp=F
 DIIS: error= 2.37D-06 at cycle  12 NSaved=  12.
 NSaved=12 IEnMin=12 EnMin= -1203.90371922897     IErMin=12 ErrMin= 2.37D-06
 ErrMax= 2.37D-06  0.00D+00 EMaxC= 1.00D-01 BMatC= 1.53D-08 BMatP= 4.62D-08
 IDIUse=1 WtCom= 1.00D+00 WtEn= 0.00D+00
 Coeff-Com:  0.688D-06 0.202D-04 0.899D-05-0.603D-04-0.131D-02-0.234D-02
 Coeff-Com: -0.479D-02-0.121D-01 0.743D-02 0.880D-01 0.424D+00 0.502D+00
 Coeff:      0.688D-06 0.202D-04 0.899D-05-0.603D-04-0.131D-02-0.234D-02
 Coeff:     -0.479D-02-0.121D-01 0.743D-02 0.880D-01 0.424D+00 0.502D+00
 Gap=     0.110 Goal=   None    Shift=    0.000
 Gap=     0.110 Goal=   None    Shift=    0.000
 RMSDP=1.60D-06 MaxDP=1.98D-04 DE=-1.09D-08 OVMax= 2.68D-05

 Cycle  13  Pass 1  IDiag  1:
 RMSU=  7.55D-07    CP:  1.07D+00  2.02D-01  7.81D-01  5.69D-01  7.67D-01
                    CP:  7.32D-01  6.53D-01  7.74D-01  8.42D-01  7.38D-01
                    CP:  1.04D+00  8.28D-01
 E= -1203.90371923321     Delta-E=       -0.000000004234 Rises=F Damp=F
 DIIS: error= 3.33D-07 at cycle  13 NSaved=  13.
 NSaved=13 IEnMin=13 EnMin= -1203.90371923321     IErMin=13 ErrMin= 3.33D-07
 ErrMax= 3.33D-07  0.00D+00 EMaxC= 1.00D-01 BMatC= 5.36D-10 BMatP= 1.53D-08
 IDIUse=1 WtCom= 1.00D+00 WtEn= 0.00D+00
 Coeff-Com: -0.171D-05 0.656D-05 0.161D-04 0.267D-04-0.403D-03-0.789D-03
 Coeff-Com: -0.216D-02-0.641D-02-0.500D-02 0.745D-02 0.124D+00 0.214D+00
 Coeff-Com:  0.669D+00
 Coeff:     -0.171D-05 0.656D-05 0.161D-04 0.267D-04-0.403D-03-0.789D-03
 Coeff:     -0.216D-02-0.641D-02-0.500D-02 0.745D-02 0.124D+00 0.214D+00
 Coeff:      0.669D+00
 Gap=     0.110 Goal=   None    Shift=    0.000
 Gap=     0.110 Goal=   None    Shift=    0.000
 RMSDP=5.11D-07 MaxDP=3.50D-05 DE=-4.23D-09 OVMax= 7.49D-06

 Cycle  14  Pass 1  IDiag  1:
 RMSU=  2.31D-07    CP:  1.07D+00  2.02D-01  7.81D-01  5.69D-01  7.67D-01
                    CP:  7.32D-01  6.53D-01  7.74D-01  8.44D-01  7.43D-01
                    CP:  1.05D+00  8.24D-01  9.04D-01
 E= -1203.90371923336     Delta-E=       -0.000000000153 Rises=F Damp=F
 DIIS: error= 1.58D-07 at cycle  14 NSaved=  14.
 NSaved=14 IEnMin=14 EnMin= -1203.90371923336     IErMin=14 ErrMin= 1.58D-07
 ErrMax= 1.58D-07  0.00D+00 EMaxC= 1.00D-01 BMatC= 8.95D-11 BMatP= 5.36D-10
 IDIUse=1 WtCom= 1.00D+00 WtEn= 0.00D+00
 Coeff-Com: -0.697D-06 0.435D-06 0.752D-05 0.208D-04-0.737D-04-0.169D-03
 Coeff-Com: -0.644D-03-0.217D-02-0.352D-02-0.657D-02 0.181D-01 0.588D-01
 Coeff-Com:  0.353D+00 0.583D+00
 Coeff:     -0.697D-06 0.435D-06 0.752D-05 0.208D-04-0.737D-04-0.169D-03
 Coeff:     -0.644D-03-0.217D-02-0.352D-02-0.657D-02 0.181D-01 0.588D-01
 Coeff:      0.353D+00 0.583D+00
 Gap=     0.110 Goal=   None    Shift=    0.000
 Gap=     0.110 Goal=   None    Shift=    0.000
 RMSDP=2.41D-07 MaxDP=1.54D-05 DE=-1.53D-10 OVMax= 2.19D-06

 Cycle  15  Pass 1  IDiag  1:
 RMSU=  7.60D-08    CP:  1.07D+00  2.02D-01  7.81D-01  5.69D-01  7.67D-01
                    CP:  7.32D-01  6.53D-01  7.73D-01  8.44D-01  7.45D-01
                    CP:  1.06D+00  8.36D-01  9.28D-01  9.71D-01
 E= -1203.90371923340     Delta-E=       -0.000000000041 Rises=F Damp=F
 DIIS: error= 8.03D-08 at cycle  15 NSaved=  15.
 NSaved=15 IEnMin=15 EnMin= -1203.90371923340     IErMin=15 ErrMin= 8.03D-08
 ErrMax= 8.03D-08  0.00D+00 EMaxC= 1.00D-01 BMatC= 1.07D-11 BMatP= 8.95D-11
 IDIUse=1 WtCom= 1.00D+00 WtEn= 0.00D+00
 Coeff-Com:  0.582D-07-0.711D-06 0.274D-05 0.759D-05 0.192D-05-0.918D-05
 Coeff-Com: -0.100D-03-0.469D-03-0.108D-02-0.361D-02-0.163D-02 0.120D-01
 Coeff-Com:  0.115D+00 0.307D+00 0.573D+00
 Coeff:      0.582D-07-0.711D-06 0.274D-05 0.759D-05 0.192D-05-0.918D-05
 Coeff:     -0.100D-03-0.469D-03-0.108D-02-0.361D-02-0.163D-02 0.120D-01
 Coeff:      0.115D+00 0.307D+00 0.573D+00
 Gap=     0.110 Goal=   None    Shift=    0.000
 Gap=     0.110 Goal=   None    Shift=    0.000
 RMSDP=1.03D-07 MaxDP=9.96D-06 DE=-4.09D-11 OVMax= 6.66D-07

 Cycle  16  Pass 1  IDiag  1:
 RMSU=  2.78D-08    CP:  1.07D+00  2.02D-01  7.81D-01  5.69D-01  7.67D-01
                    CP:  7.32D-01  6.53D-01  7.73D-01  8.45D-01  7.44D-01
                    CP:  1.06D+00  8.45D-01  9.50D-01  9.02D-01  5.94D-01
 E= -1203.90371923341     Delta-E=       -0.000000000014 Rises=F Damp=F
 DIIS: error= 2.50D-08 at cycle  16 NSaved=  16.
 NSaved=16 IEnMin=16 EnMin= -1203.90371923341     IErMin=16 ErrMin= 2.50D-08
 ErrMax= 2.50D-08  0.00D+00 EMaxC= 1.00D-01 BMatC= 2.10D-12 BMatP= 1.07D-11
 IDIUse=1 WtCom= 1.00D+00 WtEn= 0.00D+00
 Coeff-Com:  0.158D-06-0.483D-06 0.470D-06 0.110D-05 0.161D-04 0.241D-04
 Coeff-Com:  0.459D-04 0.912D-04-0.113D-03-0.130D-02-0.535D-02-0.390D-02
 Coeff-Com:  0.334D-02 0.768D-01 0.340D+00 0.591D+00
 Coeff:      0.158D-06-0.483D-06 0.470D-06 0.110D-05 0.161D-04 0.241D-04
 Coeff:      0.459D-04 0.912D-04-0.113D-03-0.130D-02-0.535D-02-0.390D-02
 Coeff:      0.334D-02 0.768D-01 0.340D+00 0.591D+00
 Gap=     0.110 Goal=   None    Shift=    0.000
 Gap=     0.110 Goal=   None    Shift=    0.000
 RMSDP=2.38D-08 MaxDP=1.57D-06 DE=-1.41D-11 OVMax= 2.46D-07

 Cycle  17  Pass 1  IDiag  1:
 RMSU=  8.00D-09    CP:  1.07D+00  2.02D-01  7.81D-01  5.69D-01  7.67D-01
                    CP:  7.32D-01  6.53D-01  7.73D-01  8.45D-01  7.44D-01
                    CP:  1.06D+00  8.48D-01  9.51D-01  9.16D-01  7.27D-01
                    CP:  9.46D-01
 E= -1203.90371923341     Delta-E=        0.000000000000 Rises=F Damp=F
 DIIS: error= 4.86D-09 at cycle  17 NSaved=  17.
 NSaved=17 IEnMin=16 EnMin= -1203.90371923341     IErMin=17 ErrMin= 4.86D-09
 ErrMax= 4.86D-09  0.00D+00 EMaxC= 1.00D-01 BMatC= 1.00D-13 BMatP= 2.10D-12
 IDIUse=1 WtCom= 1.00D+00 WtEn= 0.00D+00
 Coeff-Com:  0.702D-07-0.157D-06-0.657D-08-0.279D-06 0.700D-05 0.120D-04
 Coeff-Com:  0.304D-04 0.891D-04 0.647D-04-0.155D-03-0.197D-02-0.254D-02
 Coeff-Com: -0.973D-02 0.113D-02 0.862D-01 0.246D+00 0.680D+00
 Coeff:      0.702D-07-0.157D-06-0.657D-08-0.279D-06 0.700D-05 0.120D-04
 Coeff:      0.304D-04 0.891D-04 0.647D-04-0.155D-03-0.197D-02-0.254D-02
 Coeff:     -0.973D-02 0.113D-02 0.862D-01 0.246D+00 0.680D+00
 Gap=     0.110 Goal=   None    Shift=    0.000
 Gap=     0.110 Goal=   None    Shift=    0.000
 RMSDP=1.17D-08 MaxDP=1.08D-06 DE= 4.55D-13 OVMax= 8.62D-08

 Cycle  18  Pass 1  IDiag  1:
 RMSU=  2.95D-09    CP:  1.07D+00  2.02D-01  7.81D-01  5.69D-01  7.67D-01
                    CP:  7.32D-01  6.53D-01  7.73D-01  8.45D-01  7.44D-01
                    CP:  1.06D+00  8.47D-01  9.49D-01  9.34D-01  7.55D-01
                    CP:  9.07D-01  9.77D-01
 E= -1203.90371923342     Delta-E=       -0.000000000008 Rises=F Damp=F
 DIIS: error= 2.13D-09 at cycle  18 NSaved=  18.
 NSaved=18 IEnMin=18 EnMin= -1203.90371923342     IErMin=18 ErrMin= 2.13D-09
 ErrMax= 2.13D-09  0.00D+00 EMaxC= 1.00D-01 BMatC= 1.60D-14 BMatP= 1.00D-13
 IDIUse=1 WtCom= 1.00D+00 WtEn= 0.00D+00
 Coeff-Com:  0.118D-07-0.160D-07-0.574D-07-0.259D-06 0.130D-05 0.283D-05
 Coeff-Com:  0.853D-05 0.312D-04 0.431D-04 0.849D-04-0.243D-03-0.662D-03
 Coeff-Com: -0.471D-02-0.860D-02 0.279D-03 0.463D-01 0.328D+00 0.640D+00
 Coeff:      0.118D-07-0.160D-07-0.574D-07-0.259D-06 0.130D-05 0.283D-05
 Coeff:      0.853D-05 0.312D-04 0.431D-04 0.849D-04-0.243D-03-0.662D-03
 Coeff:     -0.471D-02-0.860D-02 0.279D-03 0.463D-01 0.328D+00 0.640D+00
 Gap=     0.110 Goal=   None    Shift=    0.000
 Gap=     0.110 Goal=   None    Shift=    0.000
 RMSDP=2.43D-09 MaxDP=2.65D-07 DE=-8.19D-12 OVMax= 3.43D-08

 SCF Done:  E(UB3LYP) =  -1203.90371923     A.U. after   18 cycles
            NFock= 18  Conv=0.24D-08     -V/T= 2.0033
 <Sx>= 0.0000 <Sy>= 0.0000 <Sz>= 0.0000 <S**2>=-0.0000 S=-0.0000
 <L.S>=  0.00000000000    
 KE= 1.199928697472D+03 PE=-5.871302406998D+03 EE= 1.942824057955D+03
 Annihilation of the first spin contaminant:
 S**2 before annihilation    -0.0000,   after    -0.0000
 Leave Link  502 at Mon Jan  8 21:28:50 2024, MaxMem=  4026531840 cpu:            3444.2 elap:             436.5
 (Enter /sysapps/ubuntu-applications/gaussian/Gaussian/AVX2/g16/l601.exe)
 Copying SCF densities to generalized density rwf, IOpCl= 1 IROHF=0.

 **********************************************************************

            Population analysis using the SCF density.

 **********************************************************************

 Alpha  occ. eigenvalues --  -88.87309 -19.13716 -19.13040 -10.28996 -10.28070
 Alpha  occ. eigenvalues --  -10.24553 -10.21772 -10.21355 -10.21207 -10.21162
 Alpha  occ. eigenvalues --  -10.20560 -10.20504 -10.20342 -10.20249 -10.19648
 Alpha  occ. eigenvalues --  -10.18649 -10.18588 -10.18511 -10.18267 -10.17726
 Alpha  occ. eigenvalues --   -7.95899  -5.92297  -5.91895  -5.91294  -1.07258
 Alpha  occ. eigenvalues --   -1.06171  -0.89623  -0.88080  -0.85695  -0.80738
 Alpha  occ. eigenvalues --   -0.78568  -0.78351  -0.77167  -0.72770  -0.70061
 Alpha  occ. eigenvalues --   -0.69132  -0.65491  -0.63806  -0.61297  -0.59763
 Alpha  occ. eigenvalues --   -0.58252  -0.54895  -0.53548  -0.52041  -0.50170
 Alpha  occ. eigenvalues --   -0.48749  -0.48061  -0.46536  -0.46145  -0.45662
 Alpha  occ. eigenvalues --   -0.45555  -0.44938  -0.43485  -0.43278  -0.42973
 Alpha  occ. eigenvalues --   -0.42388  -0.41892  -0.39952  -0.39790  -0.38750
 Alpha  occ. eigenvalues --   -0.38182  -0.37612  -0.36799  -0.35829  -0.34930
 Alpha  occ. eigenvalues --   -0.31931  -0.29079  -0.28822  -0.28327  -0.28282
 Alpha  occ. eigenvalues --   -0.26968  -0.25911  -0.23817
 Alpha virt. eigenvalues --   -0.12790  -0.06156  -0.04443  -0.03521  -0.02180
 Alpha virt. eigenvalues --   -0.01232  -0.00703   0.00296   0.00742   0.01202
 Alpha virt. eigenvalues --    0.01239   0.02142   0.02190   0.02572   0.03184
 Alpha virt. eigenvalues --    0.03600   0.03935   0.04243   0.04799   0.04820
 Alpha virt. eigenvalues --    0.05206   0.05490   0.06060   0.06848   0.07397
 Alpha virt. eigenvalues --    0.07493   0.07803   0.07970   0.08635   0.08771
 Alpha virt. eigenvalues --    0.09530   0.09868   0.10013   0.10291   0.10970
 Alpha virt. eigenvalues --    0.11186   0.11321   0.11559   0.11643   0.11953
 Alpha virt. eigenvalues --    0.12153   0.12228   0.12288   0.12713   0.12768
 Alpha virt. eigenvalues --    0.13179   0.13443   0.13730   0.14043   0.14292
 Alpha virt. eigenvalues --    0.14547   0.14671   0.15127   0.15366   0.15619
 Alpha virt. eigenvalues --    0.15681   0.16541   0.16829   0.17098   0.17341
 Alpha virt. eigenvalues --    0.17569   0.17695   0.18353   0.18584   0.18975
 Alpha virt. eigenvalues --    0.19461   0.19673   0.19819   0.20355   0.20751
 Alpha virt. eigenvalues --    0.20963   0.21150   0.21304   0.21516   0.22448
 Alpha virt. eigenvalues --    0.22804   0.23008   0.23592   0.23799   0.24143
 Alpha virt. eigenvalues --    0.24616   0.24891   0.25051   0.25343   0.25475
 Alpha virt. eigenvalues --    0.25828   0.26540   0.26741   0.27034   0.27528
 Alpha virt. eigenvalues --    0.27826   0.27994   0.28263   0.28625   0.28716
 Alpha virt. eigenvalues --    0.28806   0.29421   0.30082   0.30300   0.30512
 Alpha virt. eigenvalues --    0.30681   0.31212   0.31679   0.31938   0.32448
 Alpha virt. eigenvalues --    0.32625   0.32772   0.33816   0.34018   0.34275
 Alpha virt. eigenvalues --    0.34826   0.35480   0.35583   0.35888   0.36481
 Alpha virt. eigenvalues --    0.37105   0.37343   0.38498   0.38787   0.39395
 Alpha virt. eigenvalues --    0.39907   0.40348   0.41088   0.42324   0.43332
 Alpha virt. eigenvalues --    0.44342   0.46161   0.47544   0.47668   0.48105
 Alpha virt. eigenvalues --    0.48624   0.50464   0.50850   0.51964   0.53217
 Alpha virt. eigenvalues --    0.53637   0.53923   0.54432   0.54594   0.55581
 Alpha virt. eigenvalues --    0.56535   0.56878   0.57284   0.57696   0.57853
 Alpha virt. eigenvalues --    0.58471   0.58630   0.59225   0.59783   0.60578
 Alpha virt. eigenvalues --    0.61299   0.61908   0.62590   0.62663   0.63258
 Alpha virt. eigenvalues --    0.63925   0.64468   0.64870   0.65451   0.66139
 Alpha virt. eigenvalues --    0.66268   0.67202   0.68592   0.69120   0.69526
 Alpha virt. eigenvalues --    0.70040   0.70323   0.70885   0.71417   0.72643
 Alpha virt. eigenvalues --    0.73126   0.73790   0.74166   0.74642   0.75603
 Alpha virt. eigenvalues --    0.75928   0.76394   0.76929   0.77986   0.79587
 Alpha virt. eigenvalues --    0.80173   0.80796   0.81076   0.82602   0.83031
 Alpha virt. eigenvalues --    0.84553   0.85281   0.86152   0.86229   0.86947
 Alpha virt. eigenvalues --    0.87712   0.88077   0.88632   0.89109   0.89804
 Alpha virt. eigenvalues --    0.91347   0.91642   0.92183   0.92738   0.93458
 Alpha virt. eigenvalues --    0.93993   0.94995   0.95945   0.96189   0.96918
 Alpha virt. eigenvalues --    0.97301   0.97877   0.99012   1.00215   1.00772
 Alpha virt. eigenvalues --    1.01314   1.01921   1.02472   1.03418   1.04251
 Alpha virt. eigenvalues --    1.04897   1.06209   1.06806   1.07467   1.09314
 Alpha virt. eigenvalues --    1.09838   1.10565   1.11508   1.12063   1.12422
 Alpha virt. eigenvalues --    1.13228   1.15060   1.15710   1.17631   1.20247
 Alpha virt. eigenvalues --    1.20819   1.22737   1.25148   1.26441   1.27974
 Alpha virt. eigenvalues --    1.29076   1.29763   1.32174   1.33686   1.34227
 Alpha virt. eigenvalues --    1.36619   1.37008   1.38044   1.39576   1.42584
 Alpha virt. eigenvalues --    1.46272   1.47044   1.47896   1.49158   1.49229
 Alpha virt. eigenvalues --    1.49536   1.50274   1.52016   1.52844   1.53582
 Alpha virt. eigenvalues --    1.54701   1.54881   1.55466   1.57339   1.58492
 Alpha virt. eigenvalues --    1.59059   1.59695   1.60834   1.61833   1.62424
 Alpha virt. eigenvalues --    1.64963   1.65527   1.65883   1.67257   1.68215
 Alpha virt. eigenvalues --    1.68804   1.69882   1.70880   1.72136   1.72967
 Alpha virt. eigenvalues --    1.73252   1.74294   1.75019   1.75268   1.75676
 Alpha virt. eigenvalues --    1.75820   1.79597   1.81763   1.82311   1.82705
 Alpha virt. eigenvalues --    1.85038   1.85372   1.87645   1.89420   1.89578
 Alpha virt. eigenvalues --    1.90777   1.91140   1.91502   1.92329   1.93281
 Alpha virt. eigenvalues --    1.94059   1.94455   1.95102   1.96785   1.97659
 Alpha virt. eigenvalues --    1.98127   1.99499   1.99744   2.00902   2.01557
 Alpha virt. eigenvalues --    2.02917   2.03741   2.04723   2.05457   2.07241
 Alpha virt. eigenvalues --    2.08696   2.09324   2.11011   2.13208   2.13545
 Alpha virt. eigenvalues --    2.17352   2.19311   2.19688   2.21041   2.22754
 Alpha virt. eigenvalues --    2.24888   2.27551   2.29601   2.31983   2.33935
 Alpha virt. eigenvalues --    2.35684   2.36381   2.38090   2.41243   2.42444
 Alpha virt. eigenvalues --    2.45629   2.46280   2.46658   2.47586   2.49132
 Alpha virt. eigenvalues --    2.52282   2.54400   2.55207   2.58944   2.59522
 Alpha virt. eigenvalues --    2.62354   2.62932   2.63652   2.65445   2.65874
 Alpha virt. eigenvalues --    2.66736   2.69372   2.69898   2.70058   2.71524
 Alpha virt. eigenvalues --    2.72034   2.72727   2.72989   2.74584   2.75170
 Alpha virt. eigenvalues --    2.75845   2.76066   2.77077   2.77392   2.78699
 Alpha virt. eigenvalues --    2.80413   2.81065   2.81967   2.82709   2.84151
 Alpha virt. eigenvalues --    2.84728   2.85719   2.86083   2.86385   2.87755
 Alpha virt. eigenvalues --    2.90718   2.92234   2.92802   2.93082   2.94559
 Alpha virt. eigenvalues --    2.95535   2.95949   2.96082   3.01957   3.03874
 Alpha virt. eigenvalues --    3.07864   3.10028   3.11210   3.17081   3.17467
 Alpha virt. eigenvalues --    3.19468   3.20790   3.21423   3.23178   3.24687
 Alpha virt. eigenvalues --    3.33132   3.33478   3.35423   3.36453   3.37937
 Alpha virt. eigenvalues --    3.38735   3.40869   3.50832   3.51595   3.51911
 Alpha virt. eigenvalues --    3.54207   3.56659   3.59182   3.59718   3.64263
 Alpha virt. eigenvalues --    3.67806   3.73143   3.78375   3.79411   3.80232
 Alpha virt. eigenvalues --    3.82570   3.85991   4.01805   4.02104   4.03925
 Alpha virt. eigenvalues --    4.10295   4.11808   4.15080   4.16934   4.21598
 Alpha virt. eigenvalues --    4.31612   4.32584   4.68130   4.82895   4.83983
 Alpha virt. eigenvalues --    5.05149   5.08153   5.22136   5.27508   5.72654
 Alpha virt. eigenvalues --    5.80663   8.04952  17.42493  17.53027  17.57991
 Alpha virt. eigenvalues --   23.52962  23.56633  23.67919  23.84592  23.90482
 Alpha virt. eigenvalues --   23.92111  23.93250  23.94171  23.95329  23.98244
 Alpha virt. eigenvalues --   24.04000  24.06884  24.07449  24.08389  24.15315
 Alpha virt. eigenvalues --   24.16317  24.17869  50.00886  50.05032 189.23557
  Beta  occ. eigenvalues --  -88.87309 -19.13716 -19.13040 -10.28996 -10.28070
  Beta  occ. eigenvalues --  -10.24553 -10.21772 -10.21355 -10.21207 -10.21162
  Beta  occ. eigenvalues --  -10.20560 -10.20504 -10.20342 -10.20249 -10.19648
  Beta  occ. eigenvalues --  -10.18649 -10.18588 -10.18511 -10.18267 -10.17726
  Beta  occ. eigenvalues --   -7.95899  -5.92297  -5.91895  -5.91294  -1.07258
  Beta  occ. eigenvalues --   -1.06171  -0.89623  -0.88080  -0.85695  -0.80738
  Beta  occ. eigenvalues --   -0.78568  -0.78351  -0.77167  -0.72770  -0.70061
  Beta  occ. eigenvalues --   -0.69132  -0.65491  -0.63806  -0.61297  -0.59763
  Beta  occ. eigenvalues --   -0.58252  -0.54895  -0.53548  -0.52041  -0.50170
  Beta  occ. eigenvalues --   -0.48749  -0.48061  -0.46536  -0.46145  -0.45662
  Beta  occ. eigenvalues --   -0.45555  -0.44938  -0.43485  -0.43278  -0.42973
  Beta  occ. eigenvalues --   -0.42388  -0.41892  -0.39952  -0.39790  -0.38750
  Beta  occ. eigenvalues --   -0.38182  -0.37612  -0.36799  -0.35829  -0.34930
  Beta  occ. eigenvalues --   -0.31931  -0.29079  -0.28822  -0.28327  -0.28282
  Beta  occ. eigenvalues --   -0.26968  -0.25911  -0.23817
  Beta virt. eigenvalues --   -0.12790  -0.06156  -0.04443  -0.03521  -0.02180
  Beta virt. eigenvalues --   -0.01232  -0.00703   0.00296   0.00742   0.01202
  Beta virt. eigenvalues --    0.01239   0.02142   0.02190   0.02572   0.03184
  Beta virt. eigenvalues --    0.03600   0.03935   0.04243   0.04799   0.04820
  Beta virt. eigenvalues --    0.05206   0.05490   0.06060   0.06848   0.07397
  Beta virt. eigenvalues --    0.07493   0.07803   0.07970   0.08635   0.08771
  Beta virt. eigenvalues --    0.09530   0.09868   0.10013   0.10291   0.10970
  Beta virt. eigenvalues --    0.11186   0.11321   0.11559   0.11643   0.11953
  Beta virt. eigenvalues --    0.12153   0.12228   0.12288   0.12713   0.12768
  Beta virt. eigenvalues --    0.13179   0.13443   0.13730   0.14043   0.14292
  Beta virt. eigenvalues --    0.14547   0.14671   0.15127   0.15366   0.15619
  Beta virt. eigenvalues --    0.15681   0.16541   0.16829   0.17098   0.17341
  Beta virt. eigenvalues --    0.17569   0.17695   0.18353   0.18584   0.18975
  Beta virt. eigenvalues --    0.19461   0.19673   0.19819   0.20355   0.20751
  Beta virt. eigenvalues --    0.20963   0.21150   0.21304   0.21516   0.22448
  Beta virt. eigenvalues --    0.22804   0.23008   0.23592   0.23799   0.24143
  Beta virt. eigenvalues --    0.24616   0.24891   0.25051   0.25343   0.25475
  Beta virt. eigenvalues --    0.25828   0.26540   0.26741   0.27034   0.27528
  Beta virt. eigenvalues --    0.27826   0.27994   0.28263   0.28625   0.28716
  Beta virt. eigenvalues --    0.28806   0.29421   0.30082   0.30300   0.30512
  Beta virt. eigenvalues --    0.30681   0.31212   0.31679   0.31938   0.32448
  Beta virt. eigenvalues --    0.32625   0.32772   0.33816   0.34018   0.34275
  Beta virt. eigenvalues --    0.34826   0.35480   0.35583   0.35888   0.36481
  Beta virt. eigenvalues --    0.37105   0.37343   0.38498   0.38787   0.39395
  Beta virt. eigenvalues --    0.39907   0.40348   0.41088   0.42324   0.43332
  Beta virt. eigenvalues --    0.44342   0.46161   0.47544   0.47668   0.48105
  Beta virt. eigenvalues --    0.48624   0.50464   0.50850   0.51964   0.53217
  Beta virt. eigenvalues --    0.53637   0.53923   0.54432   0.54594   0.55581
  Beta virt. eigenvalues --    0.56535   0.56878   0.57284   0.57696   0.57853
  Beta virt. eigenvalues --    0.58471   0.58630   0.59225   0.59783   0.60578
  Beta virt. eigenvalues --    0.61299   0.61908   0.62590   0.62663   0.63258
  Beta virt. eigenvalues --    0.63925   0.64468   0.64870   0.65451   0.66139
  Beta virt. eigenvalues --    0.66268   0.67202   0.68592   0.69120   0.69526
  Beta virt. eigenvalues --    0.70040   0.70323   0.70885   0.71417   0.72643
  Beta virt. eigenvalues --    0.73126   0.73790   0.74166   0.74642   0.75603
  Beta virt. eigenvalues --    0.75928   0.76394   0.76929   0.77986   0.79587
  Beta virt. eigenvalues --    0.80173   0.80796   0.81076   0.82602   0.83031
  Beta virt. eigenvalues --    0.84553   0.85281   0.86152   0.86229   0.86947
  Beta virt. eigenvalues --    0.87712   0.88077   0.88632   0.89109   0.89804
  Beta virt. eigenvalues --    0.91347   0.91642   0.92183   0.92738   0.93458
  Beta virt. eigenvalues --    0.93993   0.94995   0.95945   0.96189   0.96918
  Beta virt. eigenvalues --    0.97301   0.97877   0.99012   1.00215   1.00772
  Beta virt. eigenvalues --    1.01314   1.01921   1.02472   1.03418   1.04251
  Beta virt. eigenvalues --    1.04897   1.06209   1.06806   1.07467   1.09314
  Beta virt. eigenvalues --    1.09838   1.10565   1.11508   1.12063   1.12422
  Beta virt. eigenvalues --    1.13228   1.15060   1.15710   1.17631   1.20247
  Beta virt. eigenvalues --    1.20819   1.22737   1.25148   1.26441   1.27974
  Beta virt. eigenvalues --    1.29076   1.29763   1.32174   1.33686   1.34227
  Beta virt. eigenvalues --    1.36619   1.37008   1.38044   1.39576   1.42584
  Beta virt. eigenvalues --    1.46272   1.47044   1.47896   1.49158   1.49229
  Beta virt. eigenvalues --    1.49536   1.50274   1.52016   1.52844   1.53582
  Beta virt. eigenvalues --    1.54701   1.54881   1.55466   1.57339   1.58492
  Beta virt. eigenvalues --    1.59059   1.59695   1.60834   1.61833   1.62424
  Beta virt. eigenvalues --    1.64963   1.65527   1.65883   1.67257   1.68215
  Beta virt. eigenvalues --    1.68804   1.69882   1.70880   1.72136   1.72967
  Beta virt. eigenvalues --    1.73252   1.74294   1.75019   1.75268   1.75676
  Beta virt. eigenvalues --    1.75820   1.79597   1.81763   1.82311   1.82705
  Beta virt. eigenvalues --    1.85038   1.85372   1.87645   1.89420   1.89578
  Beta virt. eigenvalues --    1.90777   1.91140   1.91502   1.92329   1.93281
  Beta virt. eigenvalues --    1.94059   1.94455   1.95102   1.96785   1.97659
  Beta virt. eigenvalues --    1.98127   1.99499   1.99744   2.00902   2.01557
  Beta virt. eigenvalues --    2.02917   2.03741   2.04723   2.05457   2.07241
  Beta virt. eigenvalues --    2.08696   2.09324   2.11011   2.13208   2.13545
  Beta virt. eigenvalues --    2.17352   2.19311   2.19688   2.21041   2.22754
  Beta virt. eigenvalues --    2.24888   2.27551   2.29601   2.31983   2.33935
  Beta virt. eigenvalues --    2.35684   2.36381   2.38090   2.41243   2.42444
  Beta virt. eigenvalues --    2.45629   2.46280   2.46658   2.47586   2.49132
  Beta virt. eigenvalues --    2.52282   2.54400   2.55207   2.58944   2.59522
  Beta virt. eigenvalues --    2.62354   2.62932   2.63652   2.65445   2.65874
  Beta virt. eigenvalues --    2.66736   2.69372   2.69898   2.70058   2.71524
  Beta virt. eigenvalues --    2.72034   2.72727   2.72989   2.74584   2.75170
  Beta virt. eigenvalues --    2.75845   2.76066   2.77077   2.77392   2.78699
  Beta virt. eigenvalues --    2.80413   2.81065   2.81967   2.82709   2.84151
  Beta virt. eigenvalues --    2.84728   2.85719   2.86083   2.86385   2.87755
  Beta virt. eigenvalues --    2.90718   2.92234   2.92802   2.93082   2.94559
  Beta virt. eigenvalues --    2.95535   2.95949   2.96082   3.01957   3.03874
  Beta virt. eigenvalues --    3.07864   3.10028   3.11210   3.17081   3.17467
  Beta virt. eigenvalues --    3.19468   3.20790   3.21423   3.23178   3.24687
  Beta virt. eigenvalues --    3.33132   3.33478   3.35423   3.36453   3.37937
  Beta virt. eigenvalues --    3.38735   3.40869   3.50832   3.51595   3.51911
  Beta virt. eigenvalues --    3.54207   3.56659   3.59182   3.59718   3.64263
  Beta virt. eigenvalues --    3.67806   3.73143   3.78375   3.79411   3.80232
  Beta virt. eigenvalues --    3.82570   3.85991   4.01805   4.02104   4.03925
  Beta virt. eigenvalues --    4.10295   4.11808   4.15080   4.16934   4.21598
  Beta virt. eigenvalues --    4.31612   4.32584   4.68130   4.82895   4.83983
  Beta virt. eigenvalues --    5.05149   5.08153   5.22136   5.27508   5.72654
  Beta virt. eigenvalues --    5.80663   8.04952  17.42493  17.53027  17.57991
  Beta virt. eigenvalues --   23.52962  23.56633  23.67919  23.84592  23.90482
  Beta virt. eigenvalues --   23.92111  23.93250  23.94171  23.95329  23.98244
  Beta virt. eigenvalues --   24.04000  24.06884  24.07449  24.08389  24.15315
  Beta virt. eigenvalues --   24.16317  24.17869  50.00886  50.05032 189.23557
          Condensed to atoms (all electrons):
               1          2          3          4          5          6
     1  C   12.932895  -0.061000  -1.514393  -1.109700  -6.509993   3.245252
     2  C   -0.061000   8.099057   0.305700   0.131493  -0.866534  -0.909401
     3  C   -1.514393   0.305700   7.199315   0.061713   0.477169   0.026996
     4  C   -1.109700   0.131493   0.061713  21.820022  -4.025622  -5.865759
     5  C   -6.509993  -0.866534   0.477169  -4.025622  28.269721  -3.171063
     6  C    3.245252  -0.909401   0.026996  -5.865759  -3.171063  13.504255
     7  C    0.811271  -0.202740  -0.117984   2.497344  -6.200732  -1.457045
     8  C   -2.044228  -0.737442   0.004134  -3.201431   2.237225  -1.463843
     9  C   -0.937181  -0.227500  -0.099629  -3.734710   2.091340   1.329889
    10  C    0.759058   0.427690  -0.397577  -0.288738  -6.245487   0.519683
    11  S    0.100063   0.063541   0.003337   0.351040  -0.447602  -0.374379
    12  C    0.043940   0.064516  -0.002448   0.757688  -0.487559  -0.176038
    13  C   -0.018583   0.046085   0.001921   0.318467   0.086132  -0.028859
    14  C   -0.163028  -0.111147   0.000264  -0.931083   0.268886   0.133757
    15  C   -0.036679   0.003928   0.004219  -0.129326   0.033066  -0.021033
    16  C    0.004103  -0.003737  -0.000078  -0.015924  -0.009927   0.001363
    17  C   -0.007485   0.000171   0.001625  -0.015617   0.077206   0.006515
    18  C   -0.006651   0.003906  -0.001842   0.024848  -0.031306  -0.008023
    19  O    0.025588   0.020857   0.000420  -0.403909  -0.088880  -0.009513
    20  O   -0.051348  -0.008815   0.082510  -0.400227   0.243991   0.228435
    21  H    0.445125  -0.167654  -0.000277  -0.071450   0.059142   0.071649
    22  H   -0.078133   0.463255  -0.033805   0.030271  -0.037062  -0.033277
    23  H   -0.033758  -0.055047   0.471737  -0.005817   0.051697  -0.087259
    24  H    0.051665   0.008049  -0.143111   0.059627  -0.079992   0.401736
    25  H   -0.000057   0.001655   0.000456  -0.004318  -0.182342   0.018311
    26  H    0.002034   0.001194  -0.000075   0.008256  -0.009257  -0.002154
    27  H    0.006416  -0.004089  -0.000242   0.007746  -0.009244   0.009318
    28  H   -0.001765  -0.000292   0.000022  -0.000478   0.000894   0.000008
    29  H   -0.000793  -0.000181  -0.000000   0.000582   0.001001   0.000117
    30  H   -0.000324   0.000708   0.000251   0.002208   0.002266  -0.001219
    31  H    0.000258   0.000369  -0.000094   0.000342  -0.002113  -0.000613
    32  H    0.000059  -0.000097  -0.000023  -0.000701   0.000031   0.000160
               7          8          9         10         11         12
     1  C    0.811271  -2.044228  -0.937181   0.759058   0.100063   0.043940
     2  C   -0.202740  -0.737442  -0.227500   0.427690   0.063541   0.064516
     3  C   -0.117984   0.004134  -0.099629  -0.397577   0.003337  -0.002448
     4  C    2.497344  -3.201431  -3.734710  -0.288738   0.351040   0.757688
     5  C   -6.200732   2.237225   2.091340  -6.245487  -0.447602  -0.487559
     6  C   -1.457045  -1.463843   1.329889   0.519683  -0.374379  -0.176038
     7  C   15.557631  -3.051093  -4.710288   1.064396   1.285145   1.420876
     8  C   -3.051093  20.013784  -0.419908  -2.115227  -1.066416  -2.413830
     9  C   -4.710288  -0.419908  14.090227  -0.207432  -1.438539  -1.070228
    10  C    1.064396  -2.115227  -0.207432  12.838558  -0.396488   0.110364
    11  S    1.285145  -1.066416  -1.438539  -0.396488  19.274817  -0.877115
    12  C    1.420876  -2.413830  -1.070228   0.110364  -0.877115  14.877356
    13  C    0.575811  -1.386173  -0.152419   0.137259  -0.915089  -2.485419
    14  C   -1.239722   1.579625   1.093552   0.005949   0.716674  -1.524303
    15  C    0.138440  -0.762410   0.005781   0.008105   0.113341  -2.131444
    16  C   -0.047697   0.306852   0.000596  -0.006332  -0.064476  -0.526713
    17  C   -0.211550   0.313945   0.070235  -0.009162   0.196712   0.021581
    18  C    0.135578  -0.291089  -0.020534   0.017587  -0.047504  -0.377435
    19  O    0.841121  -0.116389  -0.076956   0.000987  -0.010838   0.010759
    20  O   -0.140596  -0.125825  -0.109671   0.389085   0.007638   0.001544
    21  H   -0.014734   0.013209   0.024793  -0.020799  -0.011521  -0.008410
    22  H    0.023504   0.002704  -0.006159  -0.004239  -0.000294   0.001133
    23  H   -0.023140  -0.002214   0.011226  -0.007823   0.000053  -0.000181
    24  H    0.012313  -0.001470   0.003619   0.034452  -0.001428   0.000551
    25  H    0.032617  -0.049693   0.487896   0.007828  -0.006230  -0.028987
    26  H    0.057689  -0.075267  -0.029482   0.003646   0.027991  -0.142441
    27  H    0.000813   0.040385  -0.016001  -0.010619  -0.076510   0.208092
    28  H   -0.006183   0.003889   0.002943  -0.000089   0.001342   0.059172
    29  H   -0.002846   0.004654   0.000747   0.000059  -0.002414   0.026980
    30  H    0.005190  -0.013115  -0.003083  -0.000512   0.007418   0.030625
    31  H    0.002741  -0.004055  -0.000919   0.000525  -0.001442  -0.045687
    32  H   -0.000856   0.002096   0.000800   0.000119   0.000371  -0.008713
              13         14         15         16         17         18
     1  C   -0.018583  -0.163028  -0.036679   0.004103  -0.007485  -0.006651
     2  C    0.046085  -0.111147   0.003928  -0.003737   0.000171   0.003906
     3  C    0.001921   0.000264   0.004219  -0.000078   0.001625  -0.001842
     4  C    0.318467  -0.931083  -0.129326  -0.015924  -0.015617   0.024848
     5  C    0.086132   0.268886   0.033066  -0.009927   0.077206  -0.031306
     6  C   -0.028859   0.133757  -0.021033   0.001363   0.006515  -0.008023
     7  C    0.575811  -1.239722   0.138440  -0.047697  -0.211550   0.135578
     8  C   -1.386173   1.579625  -0.762410   0.306852   0.313945  -0.291089
     9  C   -0.152419   1.093552   0.005781   0.000596   0.070235  -0.020534
    10  C    0.137259   0.005949   0.008105  -0.006332  -0.009162   0.017587
    11  S   -0.915089   0.716674   0.113341  -0.064476   0.196712  -0.047504
    12  C   -2.485419  -1.524303  -2.131444  -0.526713   0.021581  -0.377435
    13  C   18.380651  -8.133880   0.189006  -0.921510  -0.876195   0.630475
    14  C   -8.133880  14.924521   0.716144   1.335339  -1.971499  -0.252580
[...]
 002159,0.00001049,0.00000128,-0.00031810,-0.00021574,-0.00030433,-0.00
 013674,0.00004294,-0.00011954,0.00026623,0.00001112,-0.00034914,0.0000
 9178,-0.00003890,-0.00014566,0.00026238,-0.00105511,0.00022455,-0.0169
 6225,-0.00771316,0.01699090,-0.00254627,0.00477530,-0.00054955,-0.2129
 7986,-0.04756381,0.13055959,0.00418836,0.00245721,-0.00233527,0.000082
 86,0.00013896,-0.00064979,0.00180942,0.00213283,0.00002340,0.00066277,
 -0.00018485,-0.00205354,0.00007918,0.00003369,-0.00003932,-0.00005175,
 0.00000366,0.00006681,-0.00000783,-0.00000584,-0.00000518,-0.00000082,
 0.00000782,0.00000456,-0.00000084,0.00000330,0.00000627,-0.00000038,-0
 .00000308,-0.00000076,-0.00002482,0.00004526,-0.00000677,-0.00071711,-
 0.00032667,0.00097897,0.22571616,0.00002273,-0.00002461,-0.00001386,-0
 .00000511,-0.00002319,-0.00001892,-0.00000529,-0.00002339,0.00000311,-
 0.00001352,-0.00006387,-0.00004855,-0.00000230,-0.00003875,-0.00008566
 ,-0.00000007,-0.00000515,0.00002450,0.00013242,0.00038640,-0.00011672,
 -0.00022093,0.00039380,0.00034033,0.00023217,-0.00010149,-0.00022800,-
 0.00002470,0.00018719,0.00027895,-0.00039073,-0.00062337,-0.00194340,0
 .01221217,0.00559387,-0.00964836,0.00429920,0.00136908,0.00269732,-0.0
 4764113,-0.06465024,0.05141869,-0.01753374,-0.00084465,0.01361770,0.00
 046958,-0.00118974,-0.00009103,0.00237694,-0.00018923,0.00556511,-0.00
 215269,-0.00123844,-0.00226364,-0.00006247,-0.00028049,0.00011602,0.00
 003798,-0.00003752,-0.00013086,-0.00002301,-0.00000027,-0.00000457,-0.
 00000348,-0.00000037,-0.00000412,-0.00000458,-0.00000160,-0.00000257,-
 0.00000043,0.00001016,0.00000282,-0.00000443,-0.00003699,0.00002056,0.
 00072185,0.00048240,-0.00039230,0.04777954,0.06144098,-0.00000394,-0.0
 0002500,0.00000164,-0.00000300,-0.00000428,0.00000461,-0.00000130,0.00
 000398,0.00000039,-0.00003295,0.00000538,0.00004222,0.00002220,0.00003
 746,0.00000579,0.00001948,0.00000528,-0.00000763,-0.00010454,-0.000072
 59,-0.00020064,-0.00065742,0.00026226,0.00033263,0.00032187,0.00007648
 ,-0.00003691,-0.00000577,-0.00002127,-0.00024576,-0.00154483,-0.001051
 43,-0.00098713,-0.00273965,0.00014225,0.00284799,0.00029767,0.00265467
 ,0.00346383,0.13089807,0.04989187,-0.14602459,0.01672905,0.00501982,-0
 .00915504,-0.00071411,-0.00032825,-0.00034241,-0.00032749,0.00587113,0
 .00103131,0.00063743,-0.00246386,-0.00157454,0.00008560,-0.00000226,0.
 00006908,-0.00004468,-0.00001808,0.00009572,-0.00000291,-0.00000218,-0
 .00000592,0.00000116,0.00000505,0.00000245,-0.00000079,0.00000338,0.00
 000609,-0.00000064,-0.00000308,-0.00000292,0.00001258,0.00000904,0.000
 02867,-0.00005246,0.00010210,0.00033756,-0.14213017,-0.05961783,0.1505
 3235,-0.00000571,-0.00000143,0.00000679,0.00000046,-0.00000131,-0.0000
 0125,-0.00000155,-0.00000158,0.00000015,0.00000171,0.00000951,0.000021
 20,0.00000521,0.00001349,-0.00000075,0.00000431,0.00000422,0.00000021,
 -0.00000513,-0.00001308,-0.00003198,0.00007828,0.00003787,-0.00003210,
 -0.00001125,0.00000971,0.00004149,0.00001249,-0.00001698,-0.00008449,0
 .00000965,0.00023861,-0.00023291,0.00223855,0.00208151,0.00031327,0.00
 617993,0.00224111,-0.00367990,-0.00013104,0.00046541,-0.00088208,-0.00
 240744,0.00486068,0.00017785,-0.21183367,-0.04100850,0.13384758,-0.015
 24731,-0.00802657,0.01797922,-0.00046720,-0.00071297,0.00088353,-0.000
 00210,-0.00000108,0.00004306,-0.00001710,-0.00001283,0.00004057,-0.000
 00174,-0.00000235,-0.00000269,0.00000015,0.00000191,0.00000134,-0.0000
 0058,0.00000114,0.00000178,-0.00000113,-0.00000091,-0.00000102,0.00000
 082,-0.00000011,-0.00000308,0.00018242,-0.00136416,-0.00076463,-0.0001
 3595,-0.00025305,-0.00013894,0.22158275,-0.00000290,0.00000061,0.00000
 867,-0.00000037,0.00000341,0.00000441,-0.00000157,0.00000409,0.0000002
 0,-0.00000062,0.00002830,0.00002550,0.00001423,0.00002152,0.00002041,0
 .00000958,0.00000352,-0.00000630,-0.00002741,-0.00009716,-0.00004195,-
 0.00000765,-0.00033971,0.00003201,-0.00005120,0.00009643,0.00024140,-0
 .00001466,-0.00003918,-0.00018592,-0.00046214,-0.00008217,0.00075508,0
 .00244185,0.00072313,0.00520719,-0.01827195,-0.00119434,0.01416614,0.0
 0035486,-0.00097051,-0.00006617,0.00425920,0.00179489,0.00326617,-0.04
 139373,-0.06230351,0.04812267,0.01281137,0.00706156,-0.01064170,0.0004
 6370,0.00032497,-0.00041416,0.00002542,0.00002689,0.00001680,-0.000042
 96,-0.00002413,0.00010290,0.00000030,-0.00000001,-0.00000470,0.0000008
 4,0.00000249,0.00000098,0.00000030,0.00000239,0.00000323,-0.00000085,-
 0.00000373,-0.00000150,0.00002890,0.00000392,0.00000489,-0.00079568,-0
 .00137883,-0.00237306,-0.00024352,-0.00033693,-0.00041901,0.04216750,0
 .05819692,0.00001134,0.00001319,-0.00003289,-0.00000176,-0.00001159,0.
 00000450,-0.00000544,-0.00000147,-0.00000203,-0.00001257,-0.00003550,-
 0.00001284,-0.00000714,-0.00003618,-0.00002912,-0.00000770,-0.00001174
 ,0.00000950,0.00014365,0.00012056,0.00005061,0.00003311,0.00024901,0.0
 0020094,0.00002718,-0.00008030,-0.00029818,-0.00003874,0.00011391,0.00
 020319,0.00039329,0.00011049,-0.00054180,0.00012786,0.00549812,0.00119
 959,0.01715293,0.00370885,-0.00907495,-0.00091110,-0.00004456,-0.00038
 532,0.00031923,0.00280384,0.00429852,0.13371061,0.04826602,-0.15630785
 ,-0.00255109,0.00016529,0.00455006,-0.00007699,-0.00001022,0.00012027,
 -0.00012382,-0.00012662,-0.00001288,0.00005224,-0.00000254,-0.00011008
 ,0.00000374,0.00000061,-0.00000176,0.00000043,-0.00000426,-0.00000565,
 0.00000079,-0.00000304,-0.00000226,0.00000126,0.00000413,0.00000347,-0
 .00000992,-0.00002097,0.00000664,-0.00117111,-0.00215765,-0.00111448,-
 0.00013537,-0.00040260,-0.00040254,-0.14611339,-0.05576682,0.15912163,
 0.00000705,0.00000067,-0.00000736,-0.00000320,0.00000039,0.00000169,0.
 00000188,0.00000006,-0.00000043,-0.00000013,-0.00000707,-0.00000640,-0
 .00000128,-0.00000541,-0.00000229,-0.00000399,-0.00000061,-0.00000164,
 -0.00001622,0.00001064,-0.00001084,0.00001162,0.00007345,-0.00000768,0
 .00002957,-0.00003386,-0.00006980,0.00000982,0.00001555,0.00002032,-0.
 00004236,-0.00028222,-0.00016658,-0.00126843,-0.00000138,0.00028481,-0
 .00353404,0.00400430,0.00158537,-0.00264882,0.00029041,0.00444680,0.00
 588168,-0.01690371,0.01621635,0.00132970,0.02023595,-0.01964010,-0.059
 07518,0.02592345,-0.01478210,0.00100911,-0.00138882,-0.00005225,0.0000
 1106,-0.00001784,-0.00002016,0.00000424,0.00000068,-0.00001562,0.00000
 005,0.00000169,-0.00000059,0.00000076,-0.00000086,-0.00000142,0.000000
 39,-0.00000031,0.00000015,0.00000026,0.00000018,0.00000021,-0.00000247
 ,0.00000569,-0.00000173,-0.00007065,0.00094835,-0.00089420,0.00025887,
 -0.00093350,0.00085450,0.00035548,-0.00146211,-0.00084835,0.05804141,-
 0.00000066,-0.00000388,0.00000978,-0.00000447,0.00000114,-0.00000354,0
 .00000258,-0.00000563,0.00000295,-0.00000587,0.00001130,0.00003218,0.0
 0000948,0.00001889,0.00000650,-0.00000237,0.00001369,-0.00000110,0.000
 00591,0.00001290,-0.00009516,-0.00001286,0.00004792,-0.00016854,0.0000
 0472,-0.00000845,0.00010764,0.00007145,-0.00004918,-0.00013057,-0.0003
 2601,-0.00041493,-0.00017281,-0.00002678,0.00009820,-0.00078380,0.0044
 6795,0.00305265,0.00192455,0.00021140,0.00346420,0.00294460,0.00221226
 ,-0.00177720,0.00434418,-0.00021082,-0.00790016,0.01130035,0.02587324,
 -0.18955877,0.14433439,0.00006053,-0.00119763,-0.00136661,-0.00002264,
 -0.00001326,0.00006937,-0.00004829,-0.00001559,0.00006884,-0.00000095,
 -0.00000301,-0.00000552,0.00000126,0.00000291,0.00000139,-0.00000062,0
 .00000185,0.00000343,-0.00000106,-0.00000244,-0.00000154,-0.00000362,0
 .00001607,-0.00000563,-0.00007919,-0.00037655,0.00060733,0.00006291,-0
 .00013083,0.00018995,-0.00096441,-0.00135576,-0.00228812,-0.03056560,0
 .19577989,0.00001866,0.00000487,-0.00002031,-0.00000251,-0.00000357,0.
 00000383,0.00000577,-0.00000233,-0.00000220,-0.00000179,-0.00001928,-0
 .00002253,-0.00000641,-0.00003485,-0.00001079,-0.00001409,-0.00000597,
 -0.00000012,0.00003656,0.00008257,0.00008303,-0.00006586,0.00013992,0.
 00004089,0.00004240,-0.00006083,-0.00012944,0.00000427,0.00006563,0.00
 015580,-0.00036660,-0.00042901,-0.00032597,0.00041772,-0.00080621,-0.0
 0007266,0.00106985,0.00254847,0.00398566,0.00478367,0.00228452,0.00145
 350,-0.00429719,0.01509869,-0.00977202,0.00147413,0.00025317,0.0021183
 9,-0.01459698,0.14446069,-0.17758154,-0.00189012,-0.00177818,-0.000448
 00,-0.00002551,-0.00005635,-0.00004896,0.00002574,-0.00000127,-0.00007
 535,-0.00000554,0.00000676,-0.00000012,-0.00000185,-0.00000325,-0.0000
 0615,-0.00000066,-0.00000130,-0.00000273,0.00000037,0.00000338,0.00000
 145,-0.00000305,-0.00000359,-0.00000149,0.00010604,0.00007472,0.000049
 27,-0.00016255,0.00073609,-0.00051413,-0.00133130,-0.00197336,-0.00132
 706,0.01381239,-0.16005684,0.18258975,0.00000362,-0.00000931,-0.000001
 69,0.00000129,-0.00000449,-0.00000122,0.00000302,-0.00000036,-0.000004
 77,0.00000408,-0.00001325,-0.00001964,0.00000258,-0.00000672,-0.000004
 77,0.00000344,-0.00000552,-0.00000530,-0.00006640,-0.00003398,0.000063
 41,-0.00006770,0.00002637,0.00008733,0.00004557,-0.00002026,-0.0001113
 3,-0.00003458,0.00003441,0.00007736,0.00006739,-0.00004110,0.00000337,
 -0.00023809,0.00038333,0.00019237,0.00019595,0.00025803,-0.00043908,0.
 00168652,-0.00179206,0.00173149,-0.02053420,-0.01424766,0.01325776,-0.
 00003740,-0.00060613,0.00151612,-0.00401819,0.00365018,-0.00177026,-0.
 19048306,-0.09574939,0.08620363,0.00004002,0.00002332,-0.00009084,0.00
 004019,0.00000945,-0.00004343,-0.00000510,0.00000235,0.00000315,-0.000
 00252,0.00000041,-0.00000122,-0.00000149,0.00000031,-0.00000148,-0.000
 00186,0.00000257,-0.00000193,-0.00000920,0.00001052,-0.00000164,0.0000
 1570,0.00000076,-0.00011821,0.00025865,0.00062756,-0.00113520,-0.00037
 114,0.00020298,-0.00003254,0.00003730,-0.00015066,-0.00017584,0.208505
 08,-0.00000036,-0.00000630,-0.00000244,0.00000124,-0.00000681,-0.00000
 345,0.00000381,-0.00000267,-0.00000282,0.00000621,-0.00002241,-0.00001
 776,-0.00000303,-0.00001130,-0.00001118,0.00000113,-0.00000628,-0.0000
 0194,-0.00001685,0.00002255,0.00006519,-0.00006801,0.00002603,0.000111
 47,0.00003520,-0.00001178,-0.00010406,-0.00003243,0.00005138,0.0001159
 9,-0.00000978,0.00000205,-0.00008540,-0.00018456,0.00014719,-0.0000418
 8,0.00004085,0.00025216,-0.00017506,0.00072566,0.00062403,-0.00074814,
 0.01468763,0.00859871,-0.00916743,0.00080890,-0.00001305,-0.00056411,0
 .00248801,-0.00146530,0.00105773,-0.09935956,-0.11250972,0.06162177,0.
 00001350,-0.00000272,-0.00005539,0.00003899,0.00000070,-0.00005691,-0.
 00000286,0.00000106,0.00000406,-0.00000309,-0.00000025,-0.00000089,-0.
 00000270,-0.00000009,-0.00000384,-0.00000204,0.00000448,-0.00000102,-0
 .00000521,-0.00000193,0.00000191,-0.00002483,-0.00003128,-0.00001610,-
 0.00020324,0.00002879,0.00012654,0.00017962,-0.00016718,-0.00005515,0.
 00012903,0.00000460,-0.00010359,0.10406536,0.12162743,0.00000025,-0.00
 000647,0.00000202,-0.00000066,-0.00000376,-0.00000132,-0.00000002,-0.0
 0000275,-0.00000176,-0.00000085,0.00000203,0.00001032,0.00000338,0.000
 00517,-0.00000512,0.00000394,0.00000227,-0.00000121,-0.00001186,0.0000
 0667,-0.00002141,0.00001901,-0.00002354,-0.00000925,0.00000308,0.00001
 863,0.00002729,0.00001138,0.00001211,-0.00005080,0.00001170,-0.0000267
 6,0.00003766,-0.00010947,-0.00041454,-0.00015279,-0.00006610,0.0000992
 6,-0.00006563,-0.00130425,0.00021224,0.00030423,-0.00097372,-0.0020339
 9,-0.00072006,0.00023229,-0.00000293,0.00027981,0.00012635,0.00060604,
 0.00083724,0.08754269,0.06061142,-0.10117989,0.00001116,-0.00000968,0.
 00001571,-0.00001784,-0.00002180,0.00002797,-0.00000446,-0.00000026,-0
 .00000180,-0.00000047,0.00000151,-0.00000009,-0.00000097,0.00000125,0.
 00000109,-0.00000066,0.00000042,-0.00000095,0.00000342,0.00000165,0.00
 000223,0.00003848,0.00002547,0.00006233,0.00005325,0.00021712,0.000404
 76,-0.00000693,-0.00007198,-0.00005396,-0.00029127,-0.00021796,0.00018
 981,-0.09659575,-0.06717381,0.10528024,0.00002825,0.00000149,-0.000019
 38,-0.00000351,-0.00000784,0.00000082,-0.00000034,-0.00000130,-0.00000
 145,-0.00000792,-0.00000872,-0.00002174,-0.00000503,-0.00002663,-0.000
 01488,-0.00000699,-0.00000595,0.00000522,0.00003330,0.00007277,0.00003
 712,-0.00005994,0.00006113,0.00014011,0.00003906,-0.00003688,-0.000154
 15,-0.00002384,0.00006353,0.00014495,-0.00002972,-0.00005051,-0.000058
 49,-0.00119092,-0.00055725,-0.00048992,-0.00005242,0.00075009,-0.00034
 803,-0.00079310,-0.00041567,0.00074802,0.00104218,0.02758504,0.0126820
 8,0.00005979,-0.00101573,-0.00065148,-0.00053035,0.00038646,-0.0007643
 3,-0.04705319,-0.02278858,-0.01039061,0.00000542,-0.00007676,-0.000028
 21,0.00003468,0.00000549,-0.00007021,-0.00001479,0.00000600,-0.0000055
 9,-0.00000089,-0.00000169,-0.00000524,-0.00000009,-0.00000176,-0.00000
 048,0.00000060,0.00000186,0.00000167,-0.00000566,-0.00000338,0.,0.0000
 2757,-0.00000461,0.00002086,0.00023360,0.00037870,0.00010107,-0.000026
 64,0.00002793,0.00006263,0.00007331,0.00005149,0.00063923,-0.00244602,
 -0.02073964,-0.01203147,0.05217495,-0.00002275,0.00000929,0.00001883,-
 0.00000355,0.00001949,0.00000079,-0.00000383,0.00000456,0.00000667,-0.
 00000516,0.00002628,0.00003318,0.00000653,0.00004169,0.00002746,0.0000
 0440,0.00000952,-0.00000492,-0.00001413,-0.00011737,-0.00009009,0.0001
 0529,-0.00004367,-0.00021275,-0.00005907,0.00002571,0.00020795,0.00003
 146,-0.00012904,-0.00020988,0.00001234,-0.00000275,0.00012575,0.000309
 74,0.00060760,0.00072339,0.00010762,0.00024764,-0.00054202,0.00154023,
 0.00002792,-0.00036185,0.00235819,-0.01456919,-0.00540949,0.00112627,-
 0.00039909,0.00082782,-0.00146825,0.00057333,0.00118716,-0.02568506,-0
 .24638275,-0.10327140,-0.00000534,0.00008080,0.00006948,-0.00004051,0.
 00001863,0.00009490,0.00002241,-0.00000669,0.00000067,0.00000654,0.000
 00129,0.00000769,0.00000364,0.00000049,0.00000400,0.00000132,-0.000006
 63,-0.00000078,0.00000516,0.00000961,-0.00000393,-0.00002946,-0.000100
 19,-0.00012129,-0.00019230,-0.00047513,-0.00045326,0.00006568,-0.00002
 227,0.00000317,-0.00012405,-0.00028305,-0.00048737,-0.00183573,-0.0141
 0351,-0.00735103,0.02356560,0.26944030,0.00000209,-0.00000787,0.000002
 16,0.00000182,-0.00001165,-0.00000521,-0.00000030,-0.00000523,-0.00000
 169,0.00000165,0.00000220,0.00001085,0.00000890,0.00000088,-0.00000854
 ,0.00000143,0.00000581,0.00000372,-0.00000474,0.00004444,-0.00003576,-
 0.00000218,0.00000126,0.00004224,0.00001243,0.00000716,-0.00000723,0.0
 0000630,0.00002439,-0.00001685,-0.00001912,0.00007540,-0.00004075,0.00
 067901,-0.00051959,-0.00062094,-0.00035567,-0.00039965,0.00055490,-0.0
 0124013,0.00092269,-0.00072780,0.00095398,0.00319286,0.00167733,-0.000
 32276,0.00070680,-0.00025586,0.00133730,-0.00028547,0.00064028,-0.0118
 0054,-0.10245985,-0.09653505,0.00000374,-0.00003423,0.00002920,-0.0000
 0893,-0.00001808,0.00001426,-0.00001312,-0.00000124,-0.00000516,-0.000
 00163,0.00000237,-0.00000035,-0.00000201,0.00000083,0.00000148,-0.0000
 0118,0.00000073,-0.00000085,-0.00000179,-0.00000016,-0.00000025,0.0000
 0285,0.00000846,0.00000515,0.00008017,0.00025591,0.00018384,0.00001679
 ,-0.00001776,-0.00001803,0.00010313,-0.00015418,-0.00029547,0.00081546
 ,0.01409783,0.00727680,0.01354803,0.11312724,0.10214755,0.00000358,0.0
 0000062,-0.00001351,0.00000269,-0.00000553,0.00000172,0.00000004,0.000
 00053,-0.00000498,0.00001558,-0.00002655,-0.00002071,-0.00001162,-0.00
 002271,-0.00001492,0.00000139,-0.00001147,0.00000197,-0.00001793,0.000
 02075,0.00008624,-0.00001612,0.00001324,0.00016796,0.00004056,-0.00002
 972,-0.00016036,-0.00005822,0.00007795,0.00016374,-0.00020224,0.000183
 85,-0.00011232,0.00051247,0.00093183,0.00014541,-0.00026965,0.00007377
 ,-0.00009191,-0.00376720,0.00088802,0.00067660,-0.00763916,0.00507597,
 -0.02700055,0.00022818,0.00016808,0.00009134,0.00153541,0.00095140,-0.
 00061512,-0.06496423,0.00968229,-0.06273238,0.00001082,-0.00000145,-0.
 00007727,0.00005365,0.00000593,-0.00008079,-0.00000378,0.00000420,0.00
 000366,-0.00000213,-0.00000223,-0.00000329,-0.00000092,-0.00000102,-0.
 00000334,-0.00000097,0.00000430,0.00000011,-0.00000222,-0.00000508,0.0
 0000130,0.00001240,-0.00003553,0.00005379,-0.00003988,-0.00001566,-0.0
 0033989,0.00001448,-0.00002960,0.00000672,-0.00039679,-0.00060831,0.00
 051103,0.00740658,-0.00256696,0.02335635,-0.00150138,0.00021677,-0.003
 80098,0.06905660,-0.00000665,-0.00000083,0.00000890,-0.00000150,0.0000
 0733,0.00000123,0.00000009,0.00000185,0.00000153,-0.00000276,0.0000123
 2,0.00001360,0.00000177,0.00001920,0.00000994,0.00000441,0.00000314,-0
 .00000356,-0.00002797,-0.00005140,-0.00003610,0.00003809,-0.00002788,-
 0.00008972,-0.00002526,0.00002729,0.00010100,0.00002394,-0.00005125,-0
 .00011650,0.00012869,-0.00015598,0.00011357,0.00007441,-0.00099629,-0.
 00016623,-0.00008500,0.00010601,0.00001673,0.00292266,-0.00060170,0.00
 000315,0.00585278,-0.00581514,0.01733959,0.00005803,-0.00061545,-0.000
 24375,-0.00168790,0.00062407,0.00016375,0.00930611,-0.05020378,0.03995
 424,0.00001028,0.00003134,0.00001783,-0.00002762,-0.00000332,0.0000538
 5,0.00000703,-0.00000193,-0.00000003,0.00000161,0.00000128,0.00000252,
 0.00000076,0.00000109,0.00000157,0.00000012,-0.00000243,-0.00000105,0.
 00000275,0.00000617,-0.00000017,0.00007053,0.00008624,0.00004789,0.000
 20400,0.00042357,0.00007571,0.00000339,0.00002039,0.00000213,0.0000868
 7,0.00057011,0.00006764,0.00521871,-0.00302859,0.01553799,-0.00721468,
 0.00549717,-0.02856233,-0.01493768,0.05411739,0.00000104,0.00000788,-0
 .00000700,-0.00000068,0.00000811,0.00000321,0.00000144,0.00000419,0.00
 000157,-0.00000172,-0.00000759,-0.00002696,-0.00000978,-0.00001578,0.0
 0000172,-0.00000664,-0.00000921,-0.00000160,0.00001305,-0.00001702,0.0
 0008409,-0.00003987,0.00004610,0.00003800,0.00000174,-0.00001890,-0.00
 006640,-0.00002227,0.00000569,0.00011323,-0.00001383,-0.00002349,-0.00
 008466,0.00067961,-0.00015386,0.00002450,-0.00014398,-0.00041480,0.000
 50650,-0.00092331,0.00000883,0.00007178,0.00022038,0.00067652,0.001042
 47,-0.00061783,0.00078369,0.00026242,0.00194114,-0.00012507,0.00051568
 ,-0.06377402,0.04115743,-0.28402068,-0.00000873,0.00001944,-0.00005564
 ,0.00003202,0.00002605,-0.00006170,0.00000893,0.00000224,0.00000661,0.
 00000049,-0.00000382,-0.00000032,0.00000171,-0.00000205,-0.00000342,0.
 00000178,0.00000119,0.00000211,-0.00000011,-0.00000753,0.00000078,-0.0
 0007616,-0.00010611,-0.00004879,-0.00002501,-0.00028123,0.00010923,-0.
 00006741,0.00000575,-0.00003526,-0.00050490,-0.00049554,-0.00001434,-0
 .00339532,0.00118989,-0.01249348,-0.00307617,0.00205391,-0.01401397,0.
 06980440,-0.04431491,0.30815032\\0.00000134,0.00000173,-0.00000038,0.0
 0000136,0.00000051,-0.00000135,-0.00000016,-0.00000150,-0.00000003,-0.
 00000186,0.00000119,0.00000237,0.00000407,0.00000093,0.00000016,-0.000
 00019,0.00000134,0.00000188,-0.00000714,-0.00000727,0.00000272,0.00000
 747,0.00000690,-0.00000716,-0.00000253,-0.00000320,0.00000764,-0.00000
 174,0.00000101,-0.00000435,-0.00000278,0.00000091,0.00000166,0.0000011
 7,-0.00000463,0.00000187,0.00000186,0.00000002,0.00000109,0.00000096,0
 .00000094,-0.00000144,-0.00000155,-0.00000472,0.00000322,-0.00000081,0
 .00000137,-0.00000070,-0.00000171,-0.00000092,-0.00000015,-0.00000106,
 0.00000211,-0.00000195,0.00000310,0.00000033,-0.00000363,-0.00000125,0
 .00000001,0.00000153,0.00000025,-0.00000044,0.00000015,0.00000078,-0.0
 0000018,-0.00000052,0.00000085,0.00000048,-0.00000007,0.00000050,0.000
 00098,0.00000022,-0.00000005,0.00000032,-0.00000051,-0.00000199,-0.000
 00115,-0.00000058,0.00000040,0.00000089,-0.00000050,-0.00000088,-0.000
 00087,-0.00000035,0.00000061,0.00000027,-0.00000061,0.00000208,0.00000
 037,-0.00000025,-0.00000039,0.00000123,-0.00000022,-0.00000068,0.00000
 106,0.00000023\\\@


 FIREWORKS ENDED
 AND SPECTATORS GONE AWAY....
 AH, HOW VAST AND DARK
                     SHIKI
 Job cpu time:       0 days  9 hours 45 minutes 11.5 seconds.
 Elapsed time:       0 days  1 hours 42 minutes 42.6 seconds.
 File lengths (MBytes):  RWF=   1724 Int=      0 D2E=      0 Chk=     30 Scr=      1
 Normal termination of Gaussian 16 at Mon Jan  8 23:13:15 2024.
