 Entering Gaussian System, Link 0=g16
 Input=174-an.com
 Output=174-an.log
 Initial command:
 /sysapps/ubuntu-applications/gaussian/Gaussian/AVX2/g16/l1.exe "/scratch/selhajj1/4221816/Gau-4068633.inp" -scrdir="/scratch/selhajj1/4221816/"
 Entering Link 1 = /sysapps/ubuntu-applications/gaussian/Gaussian/AVX2/g16/l1.exe PID=   4068635.
  
 Copyright (c) 1988,1990,1992,1993,1995,1998,2003,2009,2016,
            Gaussian, Inc.  All Rights Reserved.
  
 This is part of the Gaussian(R) 16 program.  It is based on
 the Gaussian(R) 09 system (copyright 2009, Gaussian, Inc.),
 the Gaussian(R) 03 system (copyright 2003, Gaussian, Inc.),
 the Gaussian(R) 98 system (copyright 1998, Gaussian, Inc.),
 the Gaussian(R) 94 system (copyright 1995, Gaussian, Inc.),
 the Gaussian 92(TM) system (copyright 1992, Gaussian, Inc.),
 the Gaussian 90(TM) system (copyright 1990, Gaussian, Inc.),
 the Gaussian 88(TM) system (copyright 1988, Gaussian, Inc.),
 the Gaussian 86(TM) system (copyright 1986, Carnegie Mellon
 University), and the Gaussian 82(TM) system (copyright 1983,
 Carnegie Mellon University). Gaussian is a federally registered
 trademark of Gaussian, Inc.
  
 This software contains proprietary and confidential information,
 including trade secrets, belonging to Gaussian, Inc.
  
 This software is provided under written license and may be
 used, copied, transmitted, or stored only in accord with that
 written license.
  
 The following legend is applicable only to US Government
 contracts under FAR:
  
                    RESTRICTED RIGHTS LEGEND
  
 Use, reproduction and disclosure by the US Government is
 subject to restrictions as set forth in subparagraphs (a)
 and (c) of the Commercial Computer Software - Restricted
 Rights clause in FAR 52.227-19.
  
 Gaussian, Inc.
 340 Quinnipiac St., Bldg. 40, Wallingford CT 06492
  
  
 ---------------------------------------------------------------
 Warning -- This program may not be used in any manner that
 competes with the business of Gaussian, Inc. or will provide
 assistance to any competitor of Gaussian, Inc.  The licensee
 of this program is prohibited from giving any competitor of
 Gaussian, Inc. access to this program.  By using this program,
 the user acknowledges that Gaussian, Inc. is engaged in the
 business of creating and licensing software in the field of
 computational chemistry and represents and warrants to the
 licensee that it is not a competitor of Gaussian, Inc. and that
 it will not use this program in any manner prohibited above.
 ---------------------------------------------------------------
  

 Cite this work as:
 Gaussian 16, Revision A.03,
 M. J. Frisch, G. W. Trucks, H. B. Schlegel, G. E. Scuseria, 
 M. A. Robb, J. R. Cheeseman, G. Scalmani, V. Barone, 
 G. A. Petersson, H. Nakatsuji, X. Li, M. Caricato, A. V. Marenich, 
 J. Bloino, B. G. Janesko, R. Gomperts, B. Mennucci, H. P. Hratchian, 
 J. V. Ortiz, A. F. Izmaylov, J. L. Sonnenberg, D. Williams-Young, 
 F. Ding, F. Lipparini, F. Egidi, J. Goings, B. Peng, A. Petrone, 
 T. Henderson, D. Ranasinghe, V. G. Zakrzewski, J. Gao, N. Rega, 
 G. Zheng, W. Liang, M. Hada, M. Ehara, K. Toyota, R. Fukuda, 
 J. Hasegawa, M. Ishida, T. Nakajima, Y. Honda, O. Kitao, H. Nakai, 
 T. Vreven, K. Throssell, J. A. Montgomery, Jr., J. E. Peralta, 
 F. Ogliaro, M. J. Bearpark, J. J. Heyd, E. N. Brothers, K. N. Kudin, 
 V. N. Staroverov, T. A. Keith, R. Kobayashi, J. Normand, 
 K. Raghavachari, A. P. Rendell, J. C. Burant, S. S. Iyengar, 
 J. Tomasi, M. Cossi, J. M. Millam, M. Klene, C. Adamo, R. Cammi, 
 J. W. Ochterski, R. L. Martin, K. Morokuma, O. Farkas, 
 J. B. Foresman, and D. J. Fox, Gaussian, Inc., Wallingford CT, 2016.
 
 ******************************************
 Gaussian 16:  ES64L-G16RevA.03 25-Dec-2016
                21-Dec-2023 
 ******************************************
 %chk=174-an.chk
 %nproc=8
 Will use up to    8 processors via shared memory.
 %mem=30GB
 --------------------------------------
 #P UB3LYP/6-311++G(d,p) nosym opt freq
 --------------------------------------
 1/18=20,19=15,26=3,38=1/1,3;
 2/9=110,12=2,15=1,17=6,18=5,40=1/2;
 3/5=4,6=6,7=1111,11=2,25=1,30=1,71=1,74=-5,116=2/1,2,3;
 4//1;
 5/5=2,38=5/2;
 6/7=2,8=2,9=2,10=2,28=1/1;
 7/30=1/1,2,3,16;
 1/18=20,19=15,26=3/3(2);
 2/9=110,15=1/2;
 99//99;
 2/9=110,15=1/2;
 3/5=4,6=6,7=1111,11=2,25=1,30=1,71=1,74=-5,116=2/1,2,3;
 4/5=5,16=3,69=1/1;
 5/5=2,38=5/2;
 7/30=1/1,2,3,16;
 1/18=20,19=15,26=3/3(-5);
 2/9=110,15=1/2;
 6/7=2,8=2,9=2,10=2,19=2,28=1/1;
 99/9=1/99;
 Leave Link    1 at Thu Dec 21 07:34:28 2023, MaxMem=  4026531840 cpu:               1.0 elap:               0.2
 (Enter /sysapps/ubuntu-applications/gaussian/Gaussian/AVX2/g16/l101.exe)
 -------
 Reduced
 -------
 Symbolic Z-matrix:
 Charge = -2 Multiplicity = 1
 O                     1.97095   3.32287  -0.51717 
 N                     2.64453   2.26627   0.00479 
 O                     3.7089    2.55534   0.71372 
 C                     2.37853   0.89777  -0.07093 
 C                     3.47878   0.02685  -0.10199 
 C                     3.358    -1.3407   -0.15056 
 C                     2.07597  -1.82347  -0.16678 
 C                     0.93583  -1.03362  -0.13516 
 C                    -0.39179  -1.64724  -0.10486 
 O                    -0.5081   -2.89629  -0.15438 
 C                    -1.60022  -0.83035  -0.01816 
 C                    -2.864    -1.37459   0.03645 
 C                    -3.98413  -0.56884   0.14332 
 C                    -3.82472   0.82221   0.19686 
 C                    -2.55649   1.34865   0.13947 
 C                    -1.43087   0.53196   0.03257 
 C                    -0.08975   1.15046   0.00153 
 O                    -0.02492   2.39753   0.05848 
 C                     1.11712   0.34597  -0.0862 
 H                     4.5054    0.41892  -0.09026 
 H                     4.26235  -1.97406  -0.16754 
 H                     1.91924  -2.9095   -0.19616 
 H                    -2.93454  -2.47487  -0.00201 
 H                    -4.98596  -1.01712   0.18489 
 H                    -4.73382   1.39759   0.27517 
 H                    -2.42629   2.40826   0.17493 
 
 ITRead=  0  0  0  0  0  0  0  0  0  0  0  0  0  0  0  0  0  0  0  0
 ITRead=  0  0  0  0  0  0
 MicOpt= -1 -1 -1 -1 -1 -1 -1 -1 -1 -1 -1 -1 -1 -1 -1 -1 -1 -1 -1 -1
 MicOpt= -1 -1 -1 -1 -1 -1
 NAtoms=     26 NQM=       26 NQMF=       0 NMMI=      0 NMMIF=      0
                NMic=       0 NMicF=      0.
                    Isotopes and Nuclear Properties:
 (Nuclear quadrupole moments (NQMom) in fm**2, nuclear magnetic moments (NMagM)
  in nuclear magnetons)

  Atom         1           2           3           4           5           6           7           8           9          10
 IAtWgt=          16          14          16          12          12          12          12          12          12          16
 AtmWgt=  15.9949146  14.0030740  15.9949146  12.0000000  12.0000000  12.0000000  12.0000000  12.0000000  12.0000000  15.9949146
 NucSpn=           0           2           0           0           0           0           0           0           0           0
 AtZEff=  -0.0000000  -0.0000000  -0.0000000  -0.0000000  -0.0000000  -0.0000000  -0.0000000  -0.0000000  -0.0000000  -0.0000000
 NQMom=    0.0000000   2.0440000   0.0000000   0.0000000   0.0000000   0.0000000   0.0000000   0.0000000   0.0000000   0.0000000
 NMagM=    0.0000000   0.4037610   0.0000000   0.0000000   0.0000000   0.0000000   0.0000000   0.0000000   0.0000000   0.0000000
 AtZNuc=   8.0000000   7.0000000   8.0000000   6.0000000   6.0000000   6.0000000   6.0000000   6.0000000   6.0000000   8.0000000

  Atom        11          12          13          14          15          16          17          18          19          20
 IAtWgt=          12          12          12          12          12          12          12          16          12           1
 AtmWgt=  12.0000000  12.0000000  12.0000000  12.0000000  12.0000000  12.0000000  12.0000000  15.9949146  12.0000000   1.0078250
 NucSpn=           0           0           0           0           0           0           0           0           0           1
 AtZEff=  -0.0000000  -0.0000000  -0.0000000  -0.0000000  -0.0000000  -0.0000000  -0.0000000  -0.0000000  -0.0000000  -0.0000000
 NQMom=    0.0000000   0.0000000   0.0000000   0.0000000   0.0000000   0.0000000   0.0000000   0.0000000   0.0000000   0.0000000
 NMagM=    0.0000000   0.0000000   0.0000000   0.0000000   0.0000000   0.0000000   0.0000000   0.0000000   0.0000000   2.7928460
 AtZNuc=   6.0000000   6.0000000   6.0000000   6.0000000   6.0000000   6.0000000   6.0000000   8.0000000   6.0000000   1.0000000

  Atom        21          22          23          24          25          26
 IAtWgt=           1           1           1           1           1           1
 AtmWgt=   1.0078250   1.0078250   1.0078250   1.0078250   1.0078250   1.0078250
 NucSpn=           1           1           1           1           1           1
 AtZEff=  -0.0000000  -0.0000000  -0.0000000  -0.0000000  -0.0000000  -0.0000000
 NQMom=    0.0000000   0.0000000   0.0000000   0.0000000   0.0000000   0.0000000
 NMagM=    2.7928460   2.7928460   2.7928460   2.7928460   2.7928460   2.7928460
 AtZNuc=   1.0000000   1.0000000   1.0000000   1.0000000   1.0000000   1.0000000
 Leave Link  101 at Thu Dec 21 07:34:28 2023, MaxMem=  4026531840 cpu:               3.7 elap:               0.5
 (Enter /sysapps/ubuntu-applications/gaussian/Gaussian/AVX2/g16/l103.exe)

 GradGradGradGradGradGradGradGradGradGradGradGradGradGradGradGradGradGrad
 Berny optimization.
 Initialization pass.
                           ----------------------------
                           !    Initial Parameters    !
                           ! (Angstroms and Degrees)  !
 --------------------------                            --------------------------
 ! Name  Definition              Value          Derivative Info.                !
 --------------------------------------------------------------------------------
 ! R1    R(1,2)                  1.3574         estimate D2E/DX2                !
 ! R2    R(2,3)                  1.3111         estimate D2E/DX2                !
 ! R3    R(2,4)                  1.3962         estimate D2E/DX2                !
 ! R4    R(4,5)                  1.4036         estimate D2E/DX2                !
 ! R5    R(4,19)                 1.3769         estimate D2E/DX2                !
 ! R6    R(5,6)                  1.3737         estimate D2E/DX2                !
 ! R7    R(5,20)                 1.099          estimate D2E/DX2                !
 ! R8    R(6,7)                  1.37           estimate D2E/DX2                !
 ! R9    R(6,21)                 1.1042         estimate D2E/DX2                !
 ! R10   R(7,8)                  1.3874         estimate D2E/DX2                !
 ! R11   R(7,22)                 1.0977         estimate D2E/DX2                !
 ! R12   R(8,9)                  1.4629         estimate D2E/DX2                !
 ! R13   R(8,19)                 1.3923         estimate D2E/DX2                !
 ! R14   R(9,10)                 1.2554         estimate D2E/DX2                !
 ! R15   R(9,11)                 1.4612         estimate D2E/DX2                !
 ! R16   R(11,12)                1.3771         estimate D2E/DX2                !
 ! R17   R(11,16)                1.3737         estimate D2E/DX2                !
 ! R18   R(12,13)                1.384          estimate D2E/DX2                !
 ! R19   R(12,23)                1.1032         estimate D2E/DX2                !
 ! R20   R(13,14)                1.4012         estimate D2E/DX2                !
 ! R21   R(13,24)                1.0983         estimate D2E/DX2                !
 ! R22   R(14,15)                1.3743         estimate D2E/DX2                !
 ! R23   R(14,25)                1.0787         estimate D2E/DX2                !
 ! R24   R(15,16)                1.3948         estimate D2E/DX2                !
 ! R25   R(15,26)                1.0682         estimate D2E/DX2                !
 ! R26   R(16,17)                1.4772         estimate D2E/DX2                !
 ! R27   R(17,18)                1.25           estimate D2E/DX2                !
 ! R28   R(17,19)                1.4531         estimate D2E/DX2                !
 ! A1    A(1,2,3)              116.0488         estimate D2E/DX2                !
 ! A2    A(1,2,4)              130.3585         estimate D2E/DX2                !
 ! A3    A(3,2,4)              113.5848         estimate D2E/DX2                !
 ! A4    A(2,4,5)              117.3908         estimate D2E/DX2                !
 ! A5    A(2,4,19)             124.6075         estimate D2E/DX2                !
 ! A6    A(5,4,19)             117.9842         estimate D2E/DX2                !
 ! A7    A(4,5,6)              123.3377         estimate D2E/DX2                !
 ! A8    A(4,5,20)             120.7078         estimate D2E/DX2                !
 ! A9    A(6,5,20)             115.9545         estimate D2E/DX2                !
 ! A10   A(5,6,7)              115.6894         estimate D2E/DX2                !
 ! A11   A(5,6,21)             119.97           estimate D2E/DX2                !
 ! A12   A(7,6,21)             124.3394         estimate D2E/DX2                !
 ! A13   A(6,7,8)              124.6204         estimate D2E/DX2                !
 ! A14   A(6,7,22)             118.8536         estimate D2E/DX2                !
 ! A15   A(8,7,22)             116.5227         estimate D2E/DX2                !
 ! A16   A(7,8,9)              120.4963         estimate D2E/DX2                !
 ! A17   A(7,8,19)             117.2524         estimate D2E/DX2                !
 ! A18   A(9,8,19)             122.2129         estimate D2E/DX2                !
 ! A19   A(8,9,10)             120.0389         estimate D2E/DX2                !
 ! A20   A(8,9,11)             121.1494         estimate D2E/DX2                !
 ! A21   A(10,9,11)            118.8117         estimate D2E/DX2                !
 ! A22   A(9,11,12)            122.7092         estimate D2E/DX2                !
 ! A23   A(9,11,16)            117.0422         estimate D2E/DX2                !
 ! A24   A(12,11,16)           120.2384         estimate D2E/DX2                !
 ! A25   A(11,12,13)           121.0468         estimate D2E/DX2                !
 ! A26   A(11,12,23)           116.8378         estimate D2E/DX2                !
 ! A27   A(13,12,23)           122.114          estimate D2E/DX2                !
 ! A28   A(12,13,14)           119.2665         estimate D2E/DX2                !
 ! A29   A(12,13,24)           120.2349         estimate D2E/DX2                !
 ! A30   A(14,13,24)           120.4986         estimate D2E/DX2                !
 ! A31   A(13,14,15)           118.9253         estimate D2E/DX2                !
 ! A32   A(13,14,25)           115.8759         estimate D2E/DX2                !
 ! A33   A(15,14,25)           125.1976         estimate D2E/DX2                !
 ! A34   A(14,15,16)           121.5751         estimate D2E/DX2                !
 ! A35   A(14,15,26)           119.4113         estimate D2E/DX2                !
 ! A36   A(16,15,26)           119.0134         estimate D2E/DX2                !
 ! A37   A(11,16,15)           118.9478         estimate D2E/DX2                !
 ! A38   A(11,16,17)           121.7598         estimate D2E/DX2                !
 ! A39   A(15,16,17)           119.283          estimate D2E/DX2                !
 ! A40   A(16,17,18)           117.6344         estimate D2E/DX2                !
 ! A41   A(16,17,19)           121.5677         estimate D2E/DX2                !
 ! A42   A(18,17,19)           120.7974         estimate D2E/DX2                !
 ! A43   A(4,19,8)             121.1155         estimate D2E/DX2                !
 ! A44   A(4,19,17)            122.5713         estimate D2E/DX2                !
 ! A45   A(8,19,17)            116.2677         estimate D2E/DX2                !
 ! D1    D(1,2,4,5)            146.7106         estimate D2E/DX2                !
 ! D2    D(1,2,4,19)           -34.8468         estimate D2E/DX2                !
 ! D3    D(3,2,4,5)            -34.3689         estimate D2E/DX2                !
 ! D4    D(3,2,4,19)           144.0736         estimate D2E/DX2                !
 ! D5    D(2,4,5,6)            178.7463         estimate D2E/DX2                !
 ! D6    D(2,4,5,20)            -1.3801         estimate D2E/DX2                !
 ! D7    D(19,4,5,6)             0.1978         estimate D2E/DX2                !
 ! D8    D(19,4,5,20)         -179.9285         estimate D2E/DX2                !
 ! D9    D(2,4,19,8)          -178.6312         estimate D2E/DX2                !
 ! D10   D(2,4,19,17)           -1.176          estimate D2E/DX2                !
 ! D11   D(5,4,19,8)            -0.1971         estimate D2E/DX2                !
 ! D12   D(5,4,19,17)          177.2581         estimate D2E/DX2                !
 ! D13   D(4,5,6,7)             -0.0367         estimate D2E/DX2                !
 ! D14   D(4,5,6,21)          -179.6635         estimate D2E/DX2                !
 ! D15   D(20,5,6,7)          -179.9159         estimate D2E/DX2                !
 ! D16   D(20,5,6,21)            0.4573         estimate D2E/DX2                !
 ! D17   D(5,6,7,8)             -0.1336         estimate D2E/DX2                !
 ! D18   D(5,6,7,22)          -179.455          estimate D2E/DX2                !
 ! D19   D(21,6,7,8)           179.4749         estimate D2E/DX2                !
 ! D20   D(21,6,7,22)            0.1535         estimate D2E/DX2                !
 ! D21   D(6,7,8,9)           -177.6651         estimate D2E/DX2                !
 ! D22   D(6,7,8,19)             0.1319         estimate D2E/DX2                !
 ! D23   D(22,7,8,9)             1.6707         estimate D2E/DX2                !
 ! D24   D(22,7,8,19)          179.4677         estimate D2E/DX2                !
 ! D25   D(7,8,9,10)            -2.4827         estimate D2E/DX2                !
 ! D26   D(7,8,9,11)           177.5593         estimate D2E/DX2                !
 ! D27   D(19,8,9,10)          179.8321         estimate D2E/DX2                !
 ! D28   D(19,8,9,11)           -0.1259         estimate D2E/DX2                !
 ! D29   D(7,8,19,4)             0.0434         estimate D2E/DX2                !
 ! D30   D(7,8,19,17)         -177.5651         estimate D2E/DX2                !
 ! D31   D(9,8,19,4)           177.7998         estimate D2E/DX2                !
 ! D32   D(9,8,19,17)            0.1913         estimate D2E/DX2                !
 ! D33   D(8,9,11,12)         -178.8128         estimate D2E/DX2                !
 ! D34   D(8,9,11,16)            0.0279         estimate D2E/DX2                !
 ! D35   D(10,9,11,12)           1.2288         estimate D2E/DX2                !
 ! D36   D(10,9,11,16)        -179.9306         estimate D2E/DX2                !
 ! D37   D(9,11,12,13)         178.7817         estimate D2E/DX2                !
 ! D38   D(9,11,12,23)          -0.8086         estimate D2E/DX2                !
 ! D39   D(16,11,12,13)         -0.0231         estimate D2E/DX2                !
 ! D40   D(16,11,12,23)       -179.6134         estimate D2E/DX2                !
 ! D41   D(9,11,16,15)        -178.8862         estimate D2E/DX2                !
 ! D42   D(9,11,16,17)          -0.0114         estimate D2E/DX2                !
 ! D43   D(12,11,16,15)         -0.0154         estimate D2E/DX2                !
 ! D44   D(12,11,16,17)        178.8594         estimate D2E/DX2                !
 ! D45   D(11,12,13,14)         -0.019          estimate D2E/DX2                !
 ! D46   D(11,12,13,24)        179.9425         estimate D2E/DX2                !
 ! D47   D(23,12,13,14)        179.5494         estimate D2E/DX2                !
 ! D48   D(23,12,13,24)         -0.4891         estimate D2E/DX2                !
 ! D49   D(12,13,14,15)          0.0991         estimate D2E/DX2                !
 ! D50   D(12,13,14,25)        179.7149         estimate D2E/DX2                !
 ! D51   D(24,13,14,15)       -179.8623         estimate D2E/DX2                !
 ! D52   D(24,13,14,25)         -0.2465         estimate D2E/DX2                !
 ! D53   D(13,14,15,16)         -0.1404         estimate D2E/DX2                !
 ! D54   D(13,14,15,26)        179.7081         estimate D2E/DX2                !
 ! D55   D(25,14,15,16)       -179.7174         estimate D2E/DX2                !
 ! D56   D(25,14,15,26)          0.1312         estimate D2E/DX2                !
 ! D57   D(14,15,16,11)          0.0989         estimate D2E/DX2                !
 ! D58   D(14,15,16,17)       -178.8042         estimate D2E/DX2                !
 ! D59   D(26,15,16,11)       -179.7502         estimate D2E/DX2                !
 ! D60   D(26,15,16,17)          1.3467         estimate D2E/DX2                !
 ! D61   D(11,16,17,18)       -179.6565         estimate D2E/DX2                !
 ! D62   D(11,16,17,19)          0.0871         estimate D2E/DX2                !
 ! D63   D(15,16,17,18)         -0.7853         estimate D2E/DX2                !
 ! D64   D(15,16,17,19)        178.9583         estimate D2E/DX2                !
 ! D65   D(16,17,19,4)        -177.7438         estimate D2E/DX2                !
 ! D66   D(16,17,19,8)          -0.1733         estimate D2E/DX2                !
 ! D67   D(18,17,19,4)           1.9918         estimate D2E/DX2                !
 ! D68   D(18,17,19,8)         179.5622         estimate D2E/DX2                !
 --------------------------------------------------------------------------------
 Trust Radius=3.00D-01 FncErr=1.00D-07 GrdErr=1.00D-06 EigMax=2.50D+02 EigMin=1.00D-04
 Number of steps in this run=    151 maximum allowed number of steps=    156.
 GradGradGradGradGradGradGradGradGradGradGradGradGradGradGradGradGradGrad

 Leave Link  103 at Thu Dec 21 07:34:28 2023, MaxMem=  4026531840 cpu:               0.5 elap:               0.1
 (Enter /sysapps/ubuntu-applications/gaussian/Gaussian/AVX2/g16/l202.exe)
                          Input orientation:                          
 ---------------------------------------------------------------------
 Center     Atomic      Atomic             Coordinates (Angstroms)
 Number     Number       Type             X           Y           Z
 ---------------------------------------------------------------------
      1          8           0        1.970948    3.322867   -0.517165
      2          7           0        2.644534    2.266270    0.004794
      3          8           0        3.708895    2.555343    0.713721
      4          6           0        2.378532    0.897768   -0.070934
      5          6           0        3.478781    0.026848   -0.101993
      6          6           0        3.358001   -1.340697   -0.150563
      7          6           0        2.075966   -1.823470   -0.166783
      8          6           0        0.935827   -1.033619   -0.135163
      9          6           0       -0.391787   -1.647235   -0.104862
     10          8           0       -0.508096   -2.896286   -0.154383
     11          6           0       -1.600218   -0.830347   -0.018163
     12          6           0       -2.864004   -1.374594    0.036446
     13          6           0       -3.984126   -0.568842    0.143318
     14          6           0       -3.824716    0.822209    0.196862
     15          6           0       -2.556491    1.348652    0.139467
     16          6           0       -1.430875    0.531960    0.032566
     17          6           0       -0.089751    1.150465    0.001534
     18          8           0       -0.024922    2.397531    0.058480
     19          6           0        1.117117    0.345971   -0.086198
     20          1           0        4.505404    0.418923   -0.090262
     21          1           0        4.262348   -1.974064   -0.167540
     22          1           0        1.919241   -2.909504   -0.196158
     23          1           0       -2.934542   -2.474869   -0.002009
     24          1           0       -4.985963   -1.017122    0.184888
     25          1           0       -4.733819    1.397585    0.275168
     26          1           0       -2.426287    2.408258    0.174933
 ---------------------------------------------------------------------
                    Distance matrix (angstroms):
                    1          2          3          4          5
     1  O    0.000000
     2  N    1.357408   0.000000
     3  O    2.263765   1.311108   0.000000
     4  C    2.499270   1.396170   2.265636   0.000000
     5  C    3.648242   2.392150   2.666764   1.403572   0.000000
     6  C    4.879256   3.680133   4.006150   2.444673   1.373726
     7  C    5.159320   4.132636   4.755602   2.739684   2.322878
     8  C    4.494037   3.718674   4.614235   2.411593   2.755414
     9  C    5.518553   4.954472   5.928519   3.762029   4.217091
    10  O    6.704859   6.051148   6.946717   4.768063   4.943950
    11  C    5.500128   5.254282   6.339182   4.338158   5.151508
    12  C    6.763830   6.603097   7.688050   5.714836   6.497240
    13  C    7.144546   7.210838   8.322768   6.533013   7.490661
    14  C    6.352389   6.631244   7.747657   6.209486   7.352754
    15  C    4.982609   5.283069   6.406319   4.960042   6.183039
    16  C    4.434385   4.429171   5.565545   3.828330   4.937405
    17  C    3.038891   2.953192   4.112250   2.482242   3.742680
    18  O    2.274008   2.673220   3.794158   2.835953   4.233418
    19  C    3.126766   2.455367   3.498358   1.376909   2.383180
    20  H    3.877964   2.623845   2.417666   2.180195   1.099006
    21  H    5.781888   4.541746   4.647415   3.435915   2.149865
    22  H    6.240846   5.230207   5.821966   3.836919   3.326138
    23  H    7.612027   7.321512   8.363645   6.293503   6.884714
    24  H    8.229642   8.308886   9.415027   7.613675   8.533702
    25  H    7.020570   7.434232   8.533004   7.138287   8.334745
    26  H    4.544358   5.075661   6.160550   5.042650   6.373196
                    6          7          8          9         10
     6  C    0.000000
     7  C    1.370018   0.000000
     8  C    2.441611   1.387365   0.000000
     9  C    3.762575   2.474813   1.462874   0.000000
    10  O    4.167323   2.797939   2.356864   1.255431   0.000000
    11  C    4.986173   3.810867   2.546866   1.461208   2.340810
    12  C    6.224908   4.964483   3.818956   2.491216   2.811097
    13  C    7.388434   6.196367   4.949697   3.758912   4.193853
    14  C    7.509347   6.476874   5.120264   4.239598   4.995052
    15  C    6.503686   5.622793   4.236380   3.704184   4.722475
    16  C    5.145261   4.229151   2.842612   2.418156   3.555185
    17  C    4.256291   3.682790   2.416757   2.815967   4.071303
    18  O    5.046010   4.720310   3.568379   4.064653   5.320081
    19  C    2.805451   2.373259   1.392312   2.500003   3.627423
    20  H    2.101530   3.307015   3.854060   5.315233   6.010815
    21  H    1.104213   2.191563   3.457055   4.666018   4.858786
    22  H    2.129147   1.097677   2.118907   2.634864   2.427732
    23  H    6.395664   5.055359   4.132152   2.676034   2.467478
    24  H    8.356972   7.116510   5.930456   4.646230   4.868024
    25  H    8.553186   7.546104   6.182557   5.316822   6.039750
    26  H    6.900623   6.188260   4.821461   4.545822   5.650318
                   11         12         13         14         15
    11  C    0.000000
    12  C    1.377078   0.000000
    13  C    2.403639   1.383955   0.000000
    14  C    2.779491   2.403050   1.401179   0.000000
    15  C    2.384815   2.742490   2.390595   1.374348   0.000000
    16  C    1.373728   2.385126   2.782646   2.416964   1.394785
    17  C    2.491086   3.751483   4.259375   3.754447   2.478530
    18  O    3.592579   4.721208   4.947915   4.115729   2.741450
    19  C    2.961800   4.338746   5.187701   4.972790   3.814668
    20  H    6.232535   7.585574   8.549991   8.344818   7.126537
    21  H    5.974955   7.154430   8.371118   8.564610   7.591526
    22  H    4.091596   5.028865   6.359534   6.860990   6.186817
    23  H    2.117814   1.103204   2.180754   3.420919   3.844770
    24  H    3.396968   2.156973   1.098345   2.175265   3.391355
    25  H    3.856058   3.352339   2.108616   1.078730   2.182102
    26  H    3.347870   3.810610   3.360206   2.114624   1.068164
                   16         17         18         19         20
    16  C    0.000000
    17  C    1.477202   0.000000
    18  O    2.336179   1.250048   0.000000
    19  C    2.557530   1.453078   2.352463   0.000000
    20  H    5.938625   4.653926   4.945793   3.389074   0.000000
    21  H    6.223583   5.360227   6.127203   3.909176   2.406540
    22  H    4.808249   4.534145   5.657670   3.354640   4.216382
    23  H    3.362028   4.608242   5.675371   4.937628   7.983396
    24  H    3.880917   5.357700   6.023933   6.259322   9.603332
    25  H    3.423099   4.658682   4.818772   5.955664   9.298095
    26  H    2.128757   2.659232   2.404211   4.108154   7.216379
                   21         22         23         24         25
    21  H    0.000000
    22  H    2.523097   0.000000
    23  H    7.216192   4.877069   0.000000
    24  H    9.304365   7.169947   2.523547   0.000000
    25  H    9.617434   7.939544   4.279034   2.429514   0.000000
    26  H    8.003741   6.877492   4.912694   4.276128   2.521153
                   26
    26  H    0.000000
 Symmetry turned off by external request.
 Stoichiometry    C14H7NO4(2-)
 Framework group  C1[X(C14H7NO4)]
 Deg. of freedom    72
 Full point group                 C1      NOp   1
 Rotational constants (GHZ):           0.7028506           0.3175062           0.2213967
 Leave Link  202 at Thu Dec 21 07:34:29 2023, MaxMem=  4026531840 cpu:               0.4 elap:               0.1
 (Enter /sysapps/ubuntu-applications/gaussian/Gaussian/AVX2/g16/l301.exe)
 Standard basis: 6-311++G(d,p) (5D, 7F)
 Ernie: Thresh=  0.10000D-02 Tol=  0.10000D-05 Strict=F.
   467 basis functions,   747 primitive gaussians,   486 cartesian basis functions
    66 alpha electrons       66 beta electrons
       nuclear repulsion energy      1337.7620302761 Hartrees.
 IExCor=  402 DFT=T Ex+Corr=B3LYP ExCW=0 ScaHFX=  0.200000
 ScaDFX=  0.800000  0.720000  1.000000  0.810000 ScalE2=  1.000000  1.000000
 IRadAn=      5 IRanWt=     -1 IRanGd=            0 ICorTp=0 IEmpDi=  4
 NAtoms=   26 NActive=   26 NUniq=   26 SFac= 1.00D+00 NAtFMM=   60 NAOKFM=F Big=F
 Integral buffers will be    131072 words long.
 Raffenetti 2 integral format.
 Two-electron integral symmetry is turned off.
 Leave Link  301 at Thu Dec 21 07:34:29 2023, MaxMem=  4026531840 cpu:               0.4 elap:               0.1
 (Enter /sysapps/ubuntu-applications/gaussian/Gaussian/AVX2/g16/l302.exe)
 NPDir=0 NMtPBC=     1 NCelOv=     1 NCel=       1 NClECP=     1 NCelD=      1
         NCelK=      1 NCelE2=     1 NClLst=     1 CellRange=     0.0.
 One-electron integrals computed using PRISM.
 NBasis=   467 RedAO= T EigKep=  1.20D-06  NBF=   467
 NBsUse=   460 1.00D-06 EigRej=  6.46D-07 NBFU=   460
 Precomputing XC quadrature grid using
 IXCGrd= 4 IRadAn=           5 IRanWt=          -1 IRanGd=           0 AccXCQ= 0.00D+00.
 Generated NRdTot=       0 NPtTot=           0 NUsed=           0 NTot=          32
 NSgBfM=   486   486   486   486   486 MxSgAt=    26 MxSgA2=    26.
 Leave Link  302 at Thu Dec 21 07:34:31 2023, MaxMem=  4026531840 cpu:              15.7 elap:               2.2
 (Enter /sysapps/ubuntu-applications/gaussian/Gaussian/AVX2/g16/l303.exe)
 DipDrv:  MaxL=1.
 Leave Link  303 at Thu Dec 21 07:34:31 2023, MaxMem=  4026531840 cpu:               2.4 elap:               0.4
 (Enter /sysapps/ubuntu-applications/gaussian/Gaussian/AVX2/g16/l401.exe)
 ExpMin= 3.60D-02 ExpMax= 8.59D+03 ExpMxC= 1.30D+03 IAcc=3 IRadAn=         5 AccDes= 0.00D+00
 Harris functional with IExCor=  402 and IRadAn=       5 diagonalized for initial guess.
 HarFok:  IExCor=  402 AccDes= 0.00D+00 IRadAn=         5 IDoV= 1 UseB2=F ITyADJ=14
 ICtDFT=  3500011 ScaDFX=  1.000000  1.000000  1.000000  1.000000
 FoFCou: FMM=F IPFlag=           0 FMFlag=      100000 FMFlg1=           0
         NFxFlg=           0 DoJE=T BraDBF=F KetDBF=T FulRan=T
         wScrn=  0.000000 ICntrl=       500 IOpCl=  0 I1Cent=   200000004 NGrid=           0
         NMat0=    1 NMatS0=      1 NMatT0=    0 NMatD0=    1 NMtDS0=    0 NMtDT0=    0
 Symmetry not used in FoFCou.
 Harris En= -893.948976469925    
 JPrj=0 DoOrth=F DoCkMO=F.
 Initial guess <Sx>= 0.0000 <Sy>= 0.0000 <Sz>= 0.0000 <S**2>=-0.0000 S=-0.0000
 Leave Link  401 at Thu Dec 21 07:34:34 2023, MaxMem=  4026531840 cpu:              22.9 elap:               2.9
 (Enter /sysapps/ubuntu-applications/gaussian/Gaussian/AVX2/g16/l502.exe)
 Two-electron integral symmetry not used.
 UHF open shell SCF:
 Using DIIS extrapolation, IDIIS=  1040.
 NGot=  4026531840 LenX=  4026052204 LenY=  4025815522
 Requested convergence on RMS density matrix=1.00D-08 within 128 cycles.
 Requested convergence on MAX density matrix=1.00D-06.
 Requested convergence on             energy=1.00D-06.
 No special actions if energy rises.
 Fock matrices will be formed incrementally for  20 cycles.

 Cycle   1  Pass 1  IDiag  1:
 FoFJK:  IHMeth= 1 ICntrl=       0 DoSepK=F KAlg= 0 I1Cent=           0 FoldK=F
 IRaf= 850000000 NMat=       1 IRICut=       1 DoRegI=T DoRafI=F ISym2E= 0 IDoP0=0 IntGTp=1.
 FoFCou: FMM=F IPFlag=           0 FMFlag=      100000 FMFlg1=           0
         NFxFlg=           0 DoJE=F BraDBF=F KetDBF=F FulRan=T
         wScrn=  0.000000 ICntrl=         0 IOpCl=  1 I1Cent=           0 NGrid=           0
         NMat0=    1 NMatS0=      1 NMatT0=    0 NMatD0=    1 NMtDS0=    0 NMtDT0=    0
 Symmetry not used in FoFCou.
 E= -892.674476160141    
 DIIS: error= 4.03D-02 at cycle   1 NSaved=   1.
 NSaved= 1 IEnMin= 1 EnMin= -892.674476160141     IErMin= 1 ErrMin= 4.03D-02
 ErrMax= 4.03D-02  0.00D+00 EMaxC= 1.00D-01 BMatC= 3.50D+00 BMatP= 3.50D+00
 IDIUse=3 WtCom= 5.97D-01 WtEn= 4.03D-01
 Coeff-Com:  0.100D+01
 Coeff-En:   0.100D+01
 Coeff:      0.100D+01
 Gap=    -0.086 Goal=   None    Shift=    0.000
 Gap=    -0.086 Goal=   None    Shift=    0.000
 GapD=   -0.086 DampG=0.250 DampE=0.500 DampFc=0.2500 IDamp=-1.
 Damping current iteration by 2.50D-01
 RMSDP=3.44D+00 MaxDP=2.61D+02              OVMax= 9.94D-01

 Cycle   2  Pass 1  IDiag  1:
 RMSU=  8.34D-01    CP:  3.00D+00
 E= -892.561220256156     Delta-E=        0.113255903984 Rises=F Damp=T
 DIIS: error= 1.69D-02 at cycle   2 NSaved=   2.
 NSaved= 2 IEnMin= 1 EnMin= -892.674476160141     IErMin= 2 ErrMin= 1.69D-02
 ErrMax= 1.69D-02  0.00D+00 EMaxC= 1.00D-01 BMatC= 6.66D-01 BMatP= 3.50D+00
 IDIUse=3 WtCom= 8.31D-01 WtEn= 1.69D-01
 Coeff-Com:  0.109D-01 0.989D+00
 Coeff-En:   0.567D+00 0.433D+00
 Coeff:      0.105D+00 0.895D+00
 Gap=    -0.128 Goal=   None    Shift=    0.000
 Gap=    -0.128 Goal=   None    Shift=    0.000
 RMSDP=8.55D-01 MaxDP=6.48D+01 DE= 1.13D-01 OVMax= 7.21D-01

 Cycle   3  Pass 1  IDiag  1:
 RMSU=  3.25D-02    CP:  1.52D+00 -2.52D-03
 E= -892.432667827765     Delta-E=        0.128552428391 Rises=F Damp=F
 DIIS: error= 4.24D-02 at cycle   3 NSaved=   3.
 NSaved= 3 IEnMin= 1 EnMin= -892.674476160141     IErMin= 2 ErrMin= 1.69D-02
 ErrMax= 4.24D-02  0.00D+00 EMaxC= 1.00D-01 BMatC= 3.82D+00 BMatP= 6.66D-01
 IDIUse=2 WtCom= 0.00D+00 WtEn= 1.00D+00
 EnCoef did     2 forward-backward iterations
 Coeff-En:   0.255D+00 0.404D+00 0.341D+00
 Coeff:      0.255D+00 0.404D+00 0.341D+00
 Gap=     0.272 Goal=   None    Shift=    0.000
 Gap=     0.272 Goal=   None    Shift=    0.000
 RMSDP=3.00D-01 MaxDP=4.00D+01 DE= 1.29D-01 OVMax= 9.92D-01

 Cycle   4  Pass 1  IDiag  1:
 RMSU=  2.94D-01    CP:  1.61D+00  5.83D-02  8.06D-02
 E= -891.060515360824     Delta-E=        1.372152466941 Rises=F Damp=F
 DIIS: error= 6.77D-02 at cycle   4 NSaved=   4.
 NSaved= 4 IEnMin= 1 EnMin= -892.674476160141     IErMin= 2 ErrMin= 1.69D-02
 ErrMax= 6.77D-02  0.00D+00 EMaxC= 1.00D-01 BMatC= 6.56D+00 BMatP= 6.66D-01
 IDIUse=2 WtCom= 0.00D+00 WtEn= 1.00D+00
 EnCoef did     1 forward-backward iterations
 Coeff-En:   0.338D+00 0.000D+00 0.377D+00 0.286D+00
 Coeff:      0.338D+00 0.000D+00 0.377D+00 0.286D+00
 Gap=    -0.057 Goal=   None    Shift=    0.000
 Gap=    -0.057 Goal=   None    Shift=    0.000
 RMSDP=4.27D-01 MaxDP=4.00D+01 DE= 1.37D+00 OVMax= 9.74D-01

 Cycle   5  Pass 1  IDiag  1:
 RMSU=  3.15D-01    CP:  1.81D+00  5.25D-02  5.73D-01  2.02D-02
 E= -892.759419900111     Delta-E=       -1.698904539287 Rises=F Damp=F
 DIIS: error= 4.86D-02 at cycle   5 NSaved=   5.
 NSaved= 5 IEnMin= 5 EnMin= -892.759419900111     IErMin= 2 ErrMin= 1.69D-02
 ErrMax= 4.86D-02  0.00D+00 EMaxC= 1.00D-01 BMatC= 1.72D+00 BMatP= 6.66D-01
 IDIUse=2 WtCom= 0.00D+00 WtEn= 1.00D+00
 EnCoef did     2 forward-backward iterations
 Coeff-En:   0.208D+00 0.000D+00 0.314D+00 0.169D+00 0.308D+00
 Coeff:      0.208D+00 0.000D+00 0.314D+00 0.169D+00 0.308D+00
 Gap=    -0.074 Goal=   None    Shift=    0.000
 Gap=    -0.074 Goal=   None    Shift=    0.000
 RMSDP=3.22D-01 MaxDP=1.87D+01 DE=-1.70D+00 OVMax= 9.78D-01

 Cycle   6  Pass 1  IDiag  1:
 RMSU=  1.91D-02    CP:  1.21D+00  1.18D-04  1.82D-01  7.82D-03 -3.90D-03
 E= -893.196599703101     Delta-E=       -0.437179802990 Rises=F Damp=F
 DIIS: error= 1.54D-02 at cycle   6 NSaved=   6.
 NSaved= 6 IEnMin= 6 EnMin= -893.196599703101     IErMin= 6 ErrMin= 1.54D-02
 ErrMax= 1.54D-02  0.00D+00 EMaxC= 1.00D-01 BMatC= 6.66D-01 BMatP= 6.66D-01
 IDIUse=3 WtCom= 8.46D-01 WtEn= 1.54D-01
 EnCoef did     3 forward-backward iterations
 Coeff-Com:  0.773D-02 0.291D+00 0.202D+00 0.167D-02 0.198D+00 0.299D+00
 Coeff-En:   0.000D+00 0.000D+00 0.166D+00 0.000D+00 0.245D+00 0.588D+00
 Coeff:      0.653D-02 0.246D+00 0.197D+00 0.141D-02 0.206D+00 0.344D+00
 Gap=    -0.064 Goal=   None    Shift=    0.000
 Gap=    -0.064 Goal=   None    Shift=    0.000
 RMSDP=1.71D-02 MaxDP=7.64D-01 DE=-4.37D-01 OVMax= 8.56D-01

 Cycle   7  Pass 1  IDiag  1:
 RMSU=  1.36D-02    CP:  1.18D+00  6.08D-04  3.25D-01  3.25D-03 -1.72D-03
                    CP:  5.39D-01
 E= -893.122196403722     Delta-E=        0.074403299379 Rises=F Damp=F
 DIIS: error= 2.13D-02 at cycle   7 NSaved=   7.
 NSaved= 7 IEnMin= 6 EnMin= -893.196599703101     IErMin= 6 ErrMin= 1.54D-02
 ErrMax= 2.13D-02  0.00D+00 EMaxC= 1.00D-01 BMatC= 9.50D-01 BMatP= 6.66D-01
 IDIUse=2 WtCom= 0.00D+00 WtEn= 1.00D+00
 EnCoef did     3 forward-backward iterations
 Coeff-En:   0.000D+00 0.000D+00 0.000D+00 0.000D+00 0.161D+00 0.449D+00
 Coeff-En:   0.390D+00
 Coeff:      0.000D+00 0.000D+00 0.000D+00 0.000D+00 0.161D+00 0.449D+00
 Coeff:      0.390D+00
 Gap=     0.032 Goal=   None    Shift=    0.000
 Gap=     0.032 Goal=   None    Shift=    0.000
 RMSDP=1.28D-02 MaxDP=7.43D-01 DE= 7.44D-02 OVMax= 6.74D-01

 Cycle   8  Pass 1  IDiag  1:
 RMSU=  1.13D-02    CP:  1.18D+00  1.58D-03  3.32D-01  3.33D-03 -1.42D-04
                    CP:  5.10D-01  5.63D-01
 E= -893.260010673794     Delta-E=       -0.137814270072 Rises=F Damp=F
 DIIS: error= 2.08D-02 at cycle   8 NSaved=   8.
 NSaved= 8 IEnMin= 8 EnMin= -893.260010673794     IErMin= 6 ErrMin= 1.54D-02
 ErrMax= 2.08D-02  0.00D+00 EMaxC= 1.00D-01 BMatC= 7.42D-01 BMatP= 6.66D-01
 IDIUse=2 WtCom= 0.00D+00 WtEn= 1.00D+00
 EnCoef did     4 forward-backward iterations
 Coeff-En:   0.000D+00 0.000D+00 0.000D+00 0.000D+00 0.756D-01 0.373D+00
 Coeff-En:   0.270D+00 0.281D+00
 Coeff:      0.000D+00 0.000D+00 0.000D+00 0.000D+00 0.756D-01 0.373D+00
 Coeff:      0.270D+00 0.281D+00
 Gap=    -0.000 Goal=   None    Shift=    0.000
 Gap=    -0.000 Goal=   None    Shift=    0.000
 RMSDP=4.80D-01 MaxDP=2.80D+01 DE=-1.38D-01 OVMax= 9.99D-01

 Cycle   9  Pass 1  IDiag  1:
 RMSU=  2.59D-01    CP:  2.54D+00  9.97D-02  7.31D-01  2.85D-02  1.22D+00
                    CP:  1.42D+00 -2.34D-01 -1.52D+00
 E= -893.064143969719     Delta-E=        0.195866704074 Rises=F Damp=F
 DIIS: error= 2.04D-02 at cycle   9 NSaved=   9.
 NSaved= 9 IEnMin= 8 EnMin= -893.260010673794     IErMin= 6 ErrMin= 1.54D-02
 ErrMax= 2.04D-02  0.00D+00 EMaxC= 1.00D-01 BMatC= 5.76D-01 BMatP= 6.66D-01
 IDIUse=3 WtCom= 8.46D-01 WtEn= 1.54D-01
 EnCoef did     2 forward-backward iterations
 Coeff-Com: -0.281D-01 0.101D+00 0.133D-01-0.252D-01 0.359D-01 0.306D+00
 Coeff-Com:  0.183D+00 0.236D+00 0.178D+00
 Coeff-En:   0.000D+00 0.000D+00 0.000D+00 0.000D+00 0.000D+00 0.343D+00
 Coeff-En:   0.184D+00 0.302D+00 0.170D+00
 Coeff:     -0.238D-01 0.851D-01 0.113D-01-0.213D-01 0.304D-01 0.311D+00
 Coeff:      0.184D+00 0.246D+00 0.177D+00
 Gap=    -0.054 Goal=   None    Shift=    0.000
 Gap=    -0.054 Goal=   None    Shift=    0.000
 RMSDP=4.79D-01 MaxDP=2.80D+01 DE= 1.96D-01 OVMax= 9.96D-01

 Cycle  10  Pass 1  IDiag  1:
 RMSU=  5.11D-03    CP:  1.17D+00  8.94D-05  2.93D-01  5.53D-03 -6.07D-04
                    CP:  6.71D-01  5.06D-01  4.91D-01  2.68D-03
 E= -893.415670105121     Delta-E=       -0.351526135402 Rises=F Damp=F
 DIIS: error= 7.81D-03 at cycle  10 NSaved=  10.
 NSaved=10 IEnMin=10 EnMin= -893.415670105121     IErMin=10 ErrMin= 7.81D-03
 ErrMax= 7.81D-03  0.00D+00 EMaxC= 1.00D-01 BMatC= 7.61D-02 BMatP= 5.76D-01
 IDIUse=3 WtCom= 9.22D-01 WtEn= 7.81D-02
 EnCoef did     3 forward-backward iterations
 Coeff-Com: -0.445D-01 0.891D-01-0.243D-01-0.152D-01-0.132D-01 0.169D+00
 Coeff-Com:  0.888D-01 0.188D+00 0.155D+00 0.408D+00
 Coeff-En:   0.000D+00 0.000D+00 0.000D+00 0.000D+00 0.000D+00 0.467D-01
 Coeff-En:   0.000D+00 0.000D+00 0.124D+00 0.830D+00
 Coeff:     -0.410D-01 0.822D-01-0.224D-01-0.140D-01-0.122D-01 0.160D+00
 Coeff:      0.819D-01 0.173D+00 0.152D+00 0.441D+00
 Gap=     0.019 Goal=   None    Shift=    0.000
 Gap=     0.019 Goal=   None    Shift=    0.000
 RMSDP=4.20D-03 MaxDP=2.22D-01 DE=-3.52D-01 OVMax= 7.64D-02

 Cycle  11  Pass 1  IDiag  1:
 RMSU=  2.45D-03    CP:  1.16D+00  1.02D-03  2.28D-01  6.01D-03 -5.39D-04
                    CP:  7.40D-01  4.76D-01  6.50D-01  3.28D-03  8.25D-01
 E= -893.430863570837     Delta-E=       -0.015193465716 Rises=F Damp=F
 DIIS: error= 3.39D-03 at cycle  11 NSaved=  11.
 NSaved=11 IEnMin=11 EnMin= -893.430863570837     IErMin=11 ErrMin= 3.39D-03
 ErrMax= 3.39D-03  0.00D+00 EMaxC= 1.00D-01 BMatC= 3.33D-02 BMatP= 7.61D-02
 IDIUse=3 WtCom= 9.66D-01 WtEn= 3.39D-02
 EnCoef did     3 forward-backward iterations
 Coeff-Com: -0.462D-01 0.723D-01-0.177D-01-0.505D-02-0.275D-02 0.365D-01
 Coeff-Com:  0.304D-01 0.383D-01 0.105D+00 0.279D+00 0.510D+00
 Coeff-En:   0.000D+00 0.000D+00 0.000D+00 0.000D+00 0.000D+00 0.000D+00
 Coeff-En:   0.000D+00 0.000D+00 0.712D-01 0.263D-01 0.903D+00
 Coeff:     -0.447D-01 0.698D-01-0.171D-01-0.488D-02-0.265D-02 0.352D-01
 Coeff:      0.293D-01 0.370D-01 0.104D+00 0.270D+00 0.523D+00
 Gap=     0.026 Goal=   None    Shift=    0.000
 Gap=     0.026 Goal=   None    Shift=    0.000
 RMSDP=2.68D-03 MaxDP=1.64D-01 DE=-1.52D-02 OVMax= 4.47D-02

 Cycle  12  Pass 1  IDiag  1:
 RMSU=  1.37D-03    CP:  1.17D+00  1.10D-03  2.66D-01  6.40D-03  5.90D-05
                    CP:  7.58D-01  5.71D-01  6.64D-01  3.51D-03  1.01D+00
                    CP:  7.69D-01
 E= -893.434591316560     Delta-E=       -0.003727745724 Rises=F Damp=F
 DIIS: error= 3.48D-03 at cycle  12 NSaved=  12.
 NSaved=12 IEnMin=12 EnMin= -893.434591316560     IErMin=11 ErrMin= 3.39D-03
 ErrMax= 3.48D-03  0.00D+00 EMaxC= 1.00D-01 BMatC= 1.54D-02 BMatP= 3.33D-02
 IDIUse=3 WtCom= 9.66D-01 WtEn= 3.39D-02
 EnCoef did     3 forward-backward iterations
 Coeff-Com: -0.323D-01 0.454D-01-0.835D-02-0.972D-03 0.990D-02 0.306D-02
 Coeff-Com:  0.659D-02-0.228D-01 0.655D-01 0.137D-01 0.391D+00 0.530D+00
 Coeff-En:   0.000D+00 0.000D+00 0.000D+00 0.000D+00 0.000D+00 0.000D+00
 Coeff-En:   0.000D+00 0.000D+00 0.469D-01 0.000D+00 0.191D+00 0.762D+00
 Coeff:     -0.312D-01 0.438D-01-0.807D-02-0.940D-03 0.957D-02 0.296D-02
 Coeff:      0.637D-02-0.220D-01 0.649D-01 0.132D-01 0.384D+00 0.537D+00
 Gap=     0.026 Goal=   None    Shift=    0.000
 Gap=     0.026 Goal=   None    Shift=    0.000
 RMSDP=1.84D-03 MaxDP=8.72D-02 DE=-3.73D-03 OVMax= 2.85D-02

 Cycle  13  Pass 1  IDiag  1:
 RMSU=  6.21D-04    CP:  1.17D+00  1.39D-03  2.43D-01  7.11D-03  2.07D-04
                    CP:  8.04D-01  5.66D-01  7.38D-01  3.91D-03  1.07D+00
                    CP:  1.11D+00  1.19D+00
 E= -893.438027208251     Delta-E=       -0.003435891691 Rises=F Damp=F
 DIIS: error= 2.33D-03 at cycle  13 NSaved=  13.
 NSaved=13 IEnMin=13 EnMin= -893.438027208251     IErMin=13 ErrMin= 2.33D-03
 ErrMax= 2.33D-03  0.00D+00 EMaxC= 1.00D-01 BMatC= 5.51D-03 BMatP= 1.54D-02
 IDIUse=3 WtCom= 9.77D-01 WtEn= 2.33D-02
 Coeff-Com: -0.447D-02 0.623D-02 0.226D-02 0.110D-02 0.850D-02-0.928D-02
 Coeff-Com: -0.408D-02-0.276D-01 0.293D-01-0.220D+00-0.692D-01 0.227D+00
 Coeff-Com:  0.106D+01
 Coeff-En:   0.000D+00 0.000D+00 0.000D+00 0.000D+00 0.000D+00 0.000D+00
 Coeff-En:   0.000D+00 0.000D+00 0.203D-01 0.000D+00 0.000D+00 0.000D+00
 Coeff-En:   0.980D+00
 Coeff:     -0.436D-02 0.609D-02 0.221D-02 0.107D-02 0.830D-02-0.907D-02
 Coeff:     -0.398D-02-0.270D-01 0.291D-01-0.215D+00-0.676D-01 0.222D+00
 Coeff:      0.106D+01
 Gap=     0.026 Goal=   None    Shift=    0.000
 Gap=     0.026 Goal=   None    Shift=    0.000
 RMSDP=2.98D-03 MaxDP=1.75D-01 DE=-3.44D-03 OVMax= 3.52D-02

 Cycle  14  Pass 1  IDiag  1:
 RMSU=  8.65D-04    CP:  1.19D+00  1.80D-03  2.46D-01  8.84D-03  1.07D-03
                    CP:  8.86D-01  5.98D-01  8.39D-01  4.48D-03  1.23D+00
                    CP:  1.50D+00  1.76D+00  2.00D+00
 E= -893.439594274073     Delta-E=       -0.001567065822 Rises=F Damp=F
 DIIS: error= 1.03D-03 at cycle  14 NSaved=  14.
 NSaved=14 IEnMin=14 EnMin= -893.439594274073     IErMin=14 ErrMin= 1.03D-03
 ErrMax= 1.03D-03  0.00D+00 EMaxC= 1.00D-01 BMatC= 1.23D-03 BMatP= 5.51D-03
 IDIUse=3 WtCom= 9.90D-01 WtEn= 1.03D-02
 Coeff-Com:  0.374D-02-0.612D-02 0.136D-02 0.700D-03 0.809D-04-0.125D-01
 Coeff-Com:  0.388D-02-0.843D-02 0.142D-01-0.180D+00-0.158D+00 0.226D-02
 Coeff-Com:  0.843D+00 0.496D+00
 Coeff-En:   0.000D+00 0.000D+00 0.000D+00 0.000D+00 0.000D+00 0.000D+00
 Coeff-En:   0.000D+00 0.000D+00 0.000D+00 0.000D+00 0.000D+00 0.000D+00
 Coeff-En:   0.000D+00 0.100D+01
 Coeff:      0.370D-02-0.606D-02 0.135D-02 0.692D-03 0.800D-04-0.123D-01
 Coeff:      0.384D-02-0.834D-02 0.141D-01-0.178D+00-0.156D+00 0.223D-02
 Coeff:      0.834D+00 0.501D+00
 Gap=     0.020 Goal=   None    Shift=    0.000
 Gap=     0.020 Goal=   None    Shift=    0.000
 RMSDP=1.36D-03 MaxDP=6.54D-02 DE=-1.57D-03 OVMax= 1.65D-02

 Cycle  15  Pass 1  IDiag  1:
 RMSU=  4.05D-04    CP:  1.19D+00  2.09D-03  2.47D-01  9.55D-03  1.76D-03
                    CP:  8.98D-01  6.25D-01  8.92D-01  4.91D-03  1.27D+00
                    CP:  1.75D+00  2.12D+00  2.54D+00  1.21D+00
 E= -893.440052044502     Delta-E=       -0.000457770429 Rises=F Damp=F
 DIIS: error= 3.22D-04 at cycle  15 NSaved=  15.
 NSaved=15 IEnMin=15 EnMin= -893.440052044502     IErMin=15 ErrMin= 3.22D-04
 ErrMax= 3.22D-04  0.00D+00 EMaxC= 1.00D-01 BMatC= 1.29D-04 BMatP= 1.23D-03
 IDIUse=3 WtCom= 9.97D-01 WtEn= 3.22D-03
 Coeff-Com:  0.249D-02-0.256D-02 0.193D-02 0.360D-03-0.127D-02-0.823D-02
 Coeff-Com:  0.135D-02-0.521D-02 0.861D-02-0.486D-01-0.428D-01 0.709D-02
 Coeff-Com:  0.235D+00 0.131D+00 0.721D+00
 Coeff-En:   0.000D+00 0.000D+00 0.000D+00 0.000D+00 0.000D+00 0.000D+00
 Coeff-En:   0.000D+00 0.000D+00 0.000D+00 0.000D+00 0.000D+00 0.000D+00
 Coeff-En:   0.000D+00 0.000D+00 0.100D+01
 Coeff:      0.248D-02-0.255D-02 0.192D-02 0.359D-03-0.127D-02-0.820D-02
 Coeff:      0.134D-02-0.519D-02 0.859D-02-0.485D-01-0.426D-01 0.707D-02
 Coeff:      0.235D+00 0.130D+00 0.722D+00
 Gap=     0.020 Goal=   None    Shift=    0.000
 Gap=     0.020 Goal=   None    Shift=    0.000
 RMSDP=4.68D-04 MaxDP=2.41D-02 DE=-4.58D-04 OVMax= 4.07D-03

 Cycle  16  Pass 1  IDiag  1:
 RMSU=  2.18D-04    CP:  1.20D+00  2.17D-03  2.49D-01  9.96D-03  2.06D-03
                    CP:  8.96D-01  6.31D-01  8.95D-01  5.11D-03  1.29D+00
                    CP:  1.77D+00  2.20D+00  2.67D+00  1.47D+00  1.43D+00
 E= -893.440076558514     Delta-E=       -0.000024514012 Rises=F Damp=F
 DIIS: error= 1.96D-04 at cycle  16 NSaved=  16.
 NSaved=16 IEnMin=16 EnMin= -893.440076558514     IErMin=16 ErrMin= 1.96D-04
 ErrMax= 1.96D-04  0.00D+00 EMaxC= 1.00D-01 BMatC= 5.92D-05 BMatP= 1.29D-04
 IDIUse=3 WtCom= 9.98D-01 WtEn= 1.96D-03
 Coeff-Com:  0.613D-03-0.196D-03 0.101D-02 0.578D-04-0.487D-03-0.329D-02
 Coeff-Com:  0.562D-04-0.243D-02 0.176D-02 0.225D-01 0.225D-01 0.206D-01
 Coeff-Com: -0.100D+00-0.142D+00 0.500D+00 0.679D+00
 Coeff-En:   0.000D+00 0.000D+00 0.000D+00 0.000D+00 0.000D+00 0.000D+00
 Coeff-En:   0.000D+00 0.000D+00 0.000D+00 0.000D+00 0.000D+00 0.000D+00
 Coeff-En:   0.000D+00 0.000D+00 0.000D+00 0.100D+01
 Coeff:      0.611D-03-0.196D-03 0.100D-02 0.577D-04-0.486D-03-0.328D-02
 Coeff:      0.561D-04-0.243D-02 0.176D-02 0.225D-01 0.225D-01 0.206D-01
 Coeff:     -0.998D-01-0.142D+00 0.499D+00 0.680D+00
 Gap=     0.020 Goal=   None    Shift=    0.000
 Gap=     0.020 Goal=   None    Shift=    0.000
 RMSDP=4.77D-04 MaxDP=2.08D-02 DE=-2.45D-05 OVMax= 7.81D-03

 Cycle  17  Pass 1  IDiag  1:
 RMSU=  8.83D-05    CP:  1.20D+00  2.26D-03  2.50D-01  1.04D-02  2.40D-03
                    CP:  8.92D-01  6.39D-01  9.02D-01  5.34D-03  1.30D+00
                    CP:  1.81D+00  2.31D+00  2.83D+00  1.65D+00  2.04D+00
                    CP:  1.74D+00
 E= -893.440097826235     Delta-E=       -0.000021267721 Rises=F Damp=F
 DIIS: error= 9.41D-05 at cycle  17 NSaved=  17.
 NSaved=17 IEnMin=17 EnMin= -893.440097826235     IErMin=17 ErrMin= 9.41D-05
 ErrMax= 9.41D-05  0.00D+00 EMaxC= 1.00D-01 BMatC= 1.14D-05 BMatP= 5.92D-05
 IDIUse=1 WtCom= 1.00D+00 WtEn= 0.00D+00
 Coeff-Com:  0.733D-04 0.928D-04 0.187D-03-0.704D-04-0.323D-04-0.389D-03
 Coeff-Com: -0.282D-03-0.236D-03 0.209D-03 0.140D-01 0.110D-01 0.112D-01
 Coeff-Com: -0.576D-01-0.954D-01 0.207D+00 0.427D+00 0.484D+00
 Coeff:      0.733D-04 0.928D-04 0.187D-03-0.704D-04-0.323D-04-0.389D-03
 Coeff:     -0.282D-03-0.236D-03 0.209D-03 0.140D-01 0.110D-01 0.112D-01
 Coeff:     -0.576D-01-0.954D-01 0.207D+00 0.427D+00 0.484D+00
 Gap=     0.020 Goal=   None    Shift=    0.000
 Gap=     0.020 Goal=   None    Shift=    0.000
 RMSDP=1.97D-04 MaxDP=9.39D-03 DE=-2.13D-05 OVMax= 1.81D-03

 Cycle  18  Pass 1  IDiag  1:
 RMSU=  4.36D-05    CP:  1.20D+00  2.30D-03  2.49D-01  1.06D-02  2.53D-03
                    CP:  8.92D-01  6.39D-01  9.06D-01  5.46D-03  1.31D+00
                    CP:  1.82D+00  2.33D+00  2.89D+00  1.76D+00  2.24D+00
                    CP:  2.12D+00  1.25D+00
 E= -893.440101110107     Delta-E=       -0.000003283872 Rises=F Damp=F
 DIIS: error= 2.87D-05 at cycle  18 NSaved=  18.
 NSaved=18 IEnMin=18 EnMin= -893.440101110107     IErMin=18 ErrMin= 2.87D-05
 ErrMax= 2.87D-05  0.00D+00 EMaxC= 1.00D-01 BMatC= 1.57D-06 BMatP= 1.14D-05
 IDIUse=1 WtCom= 1.00D+00 WtEn= 0.00D+00
 Coeff-Com:  0.927D-04-0.112D-03-0.508D-04-0.277D-04 0.741D-04 0.219D-03
 Coeff-Com: -0.225D-03 0.441D-03-0.753D-04 0.294D-02-0.375D-03 0.153D-02
 Coeff-Com: -0.639D-02-0.268D-01 0.603D-01 0.167D+00 0.252D+00 0.550D+00
 Coeff:      0.927D-04-0.112D-03-0.508D-04-0.277D-04 0.741D-04 0.219D-03
 Coeff:     -0.225D-03 0.441D-03-0.753D-04 0.294D-02-0.375D-03 0.153D-02
 Coeff:     -0.639D-02-0.268D-01 0.603D-01 0.167D+00 0.252D+00 0.550D+00
 Gap=     0.020 Goal=   None    Shift=    0.000
 Gap=     0.020 Goal=   None    Shift=    0.000
 RMSDP=1.49D-04 MaxDP=6.99D-03 DE=-3.28D-06 OVMax= 1.19D-03

 Cycle  19  Pass 1  IDiag  1:
 RMSU=  1.61D-05    CP:  1.20D+00  2.32D-03  2.49D-01  1.08D-02  2.64D-03
                    CP:  8.92D-01  6.39D-01  9.08D-01  5.54D-03  1.31D+00
                    CP:  1.83D+00  2.36D+00  2.94D+00  1.83D+00  2.40D+00
                    CP:  2.38D+00  1.65D+00  1.62D+00
 E= -893.440101700215     Delta-E=       -0.000000590108 Rises=F Damp=F
 DIIS: error= 1.20D-05 at cycle  19 NSaved=  19.
 NSaved=19 IEnMin=19 EnMin= -893.440101700215     IErMin=19 ErrMin= 1.20D-05
 ErrMax= 1.20D-05  0.00D+00 EMaxC= 1.00D-01 BMatC= 2.84D-07 BMatP= 1.57D-06
 IDIUse=1 WtCom= 1.00D+00 WtEn= 0.00D+00
 Coeff-Com:  0.901D-05 0.140D-04-0.135D-04-0.676D-05 0.869D-05 0.141D-03
 Coeff-Com: -0.335D-04 0.138D-03-0.104D-03-0.820D-03-0.141D-02-0.129D-02
 Coeff-Com:  0.748D-02 0.813D-02-0.839D-02 0.299D-02-0.641D-01 0.117D+00
 Coeff-Com:  0.941D+00
 Coeff:      0.901D-05 0.140D-04-0.135D-04-0.676D-05 0.869D-05 0.141D-03
 Coeff:     -0.335D-04 0.138D-03-0.104D-03-0.820D-03-0.141D-02-0.129D-02
 Coeff:      0.748D-02 0.813D-02-0.839D-02 0.299D-02-0.641D-01 0.117D+00
 Coeff:      0.941D+00
 Gap=     0.020 Goal=   None    Shift=    0.000
 Gap=     0.020 Goal=   None    Shift=    0.000
 RMSDP=2.07D-04 MaxDP=9.70D-03 DE=-5.90D-07 OVMax= 1.49D-03

 Cycle  20  Pass 1  IDiag  1:
 RMSU=  1.14D-05    CP:  1.20D+00  2.36D-03  2.49D-01  1.10D-02  2.80D-03
                    CP:  8.91D-01  6.40D-01  9.11D-01  5.67D-03  1.32D+00
                    CP:  1.84D+00  2.39D+00  3.00D+00  1.93D+00  2.63D+00
                    CP:  2.78D+00  2.14D+00  2.50D+00  2.11D+00
 E= -893.440101989715     Delta-E=       -0.000000289500 Rises=F Damp=F
 DIIS: error= 7.49D-06 at cycle  20 NSaved=  20.
 NSaved=20 IEnMin=20 EnMin= -893.440101989715     IErMin=20 ErrMin= 7.49D-06
 ErrMax= 7.49D-06  0.00D+00 EMaxC= 1.00D-01 BMatC= 7.66D-08 BMatP= 2.84D-07
 IDIUse=1 WtCom= 1.00D+00 WtEn= 0.00D+00
 Coeff-Com:  0.882D-05 0.178D-05 0.187D-04 0.113D-06-0.939D-05 0.538D-04
 Coeff-Com: -0.767D-05-0.499D-04-0.291D-04-0.803D-03-0.597D-03-0.112D-02
 Coeff-Com:  0.581D-02 0.904D-02-0.121D-01-0.195D-01-0.867D-01-0.366D-01
 Coeff-Com:  0.405D+00 0.737D+00
 Coeff:      0.882D-05 0.178D-05 0.187D-04 0.113D-06-0.939D-05 0.538D-04
 Coeff:     -0.767D-05-0.499D-04-0.291D-04-0.803D-03-0.597D-03-0.112D-02
 Coeff:      0.581D-02 0.904D-02-0.121D-01-0.195D-01-0.867D-01-0.366D-01
 Coeff:      0.405D+00 0.737D+00
 Gap=     0.020 Goal=   None    Shift=    0.000
 Gap=     0.020 Goal=   None    Shift=    0.000
 RMSDP=1.44D-04 MaxDP=6.64D-03 DE=-2.90D-07 OVMax= 1.04D-03

 Cycle  21  Pass 1  IDiag  1:
 Restarting incremental Fock formation.
 E= -893.440102114788     Delta-E=       -0.000000125073 Rises=F Damp=F
 DIIS: error= 5.15D-06 at cycle  21 NSaved=  20.
 NSaved=20 IEnMin=20 EnMin= -893.440102114788     IErMin=20 ErrMin= 5.15D-06
 ErrMax= 5.15D-06  0.00D+00 EMaxC= 1.00D-01 BMatC= 2.79D-08 BMatP= 7.66D-08
 IDIUse=1 WtCom= 1.00D+00 WtEn= 0.00D+00
 Coeff-Com: -0.293D-05 0.468D-05 0.131D-04-0.116D-04-0.186D-04 0.107D-04
 Coeff-Com: -0.745D-04 0.162D-04 0.168D-03 0.468D-03 0.447D-05 0.244D-03
 Coeff-Com:  0.959D-03-0.453D-02-0.903D-02-0.221D-01-0.505D-01-0.125D+00
 Coeff-Com:  0.463D+00 0.746D+00
 Coeff:     -0.293D-05 0.468D-05 0.131D-04-0.116D-04-0.186D-04 0.107D-04
 Coeff:     -0.745D-04 0.162D-04 0.168D-03 0.468D-03 0.447D-05 0.244D-03
 Coeff:      0.959D-03-0.453D-02-0.903D-02-0.221D-01-0.505D-01-0.125D+00
 Coeff:      0.463D+00 0.746D+00
 Gap=     0.020 Goal=   None    Shift=    0.000
 Gap=     0.020 Goal=   None    Shift=    0.000
 RMSDP=1.33D-04 MaxDP=5.94D-03 DE=-1.25D-07 OVMax= 9.21D-04

 Cycle  22  Pass 1  IDiag  1:
 RMSU=  1.30D-04    CP:  1.00D+00
 E= -893.440102173163     Delta-E=       -0.000000058375 Rises=F Damp=F
 DIIS: error= 5.93D-06 at cycle  22 NSaved=  20.
 NSaved=20 IEnMin=20 EnMin= -893.440102173163     IErMin=19 ErrMin= 5.15D-06
 ErrMax= 5.93D-06  0.00D+00 EMaxC= 1.00D-01 BMatC= 3.19D-08 BMatP= 2.79D-08
 IDIUse=1 WtCom= 1.00D+00 WtEn= 0.00D+00
 Coeff-Com: -0.104D-04 0.119D-04-0.268D-07-0.392D-04 0.221D-04-0.312D-04
 Coeff-Com: -0.110D-04 0.416D-03 0.537D-03 0.458D-03-0.146D-02-0.222D-02
 Coeff-Com: -0.175D-02-0.245D-02 0.944D-02-0.129D-01-0.142D+00 0.156D+00
 Coeff-Com:  0.395D+00 0.601D+00
 Coeff:     -0.104D-04 0.119D-04-0.268D-07-0.392D-04 0.221D-04-0.312D-04
 Coeff:     -0.110D-04 0.416D-03 0.537D-03 0.458D-03-0.146D-02-0.222D-02
 Coeff:     -0.175D-02-0.245D-02 0.944D-02-0.129D-01-0.142D+00 0.156D+00
 Coeff:      0.395D+00 0.601D+00
 Gap=     0.020 Goal=   None    Shift=    0.000
 Gap=     0.020 Goal=   None    Shift=    0.000
 RMSDP=6.35D-05 MaxDP=2.61D-03 DE=-5.84D-08 OVMax= 4.18D-04

 Cycle  23  Pass 1  IDiag  1:
 RMSU=  6.05D-06    CP:  1.00D+00  1.47D+00
 E= -893.440102200653     Delta-E=       -0.000000027489 Rises=F Damp=F
 DIIS: error= 2.29D-06 at cycle  23 NSaved=  20.
 NSaved=20 IEnMin=20 EnMin= -893.440102200653     IErMin=20 ErrMin= 2.29D-06
 ErrMax= 2.29D-06  0.00D+00 EMaxC= 1.00D-01 BMatC= 6.73D-09 BMatP= 2.79D-08
 IDIUse=1 WtCom= 1.00D+00 WtEn= 0.00D+00
 Coeff-Com: -0.180D-05 0.368D-05-0.231D-04-0.127D-05 0.276D-05 0.223D-05
 Coeff-Com:  0.204D-03 0.121D-03 0.535D-03-0.125D-02-0.258D-02 0.149D-02
 Coeff-Com:  0.144D-02 0.246D-01 0.163D-01-0.555D-01-0.150D+00-0.218D+00
 Coeff-Com:  0.124D+00 0.126D+01
 Coeff:     -0.180D-05 0.368D-05-0.231D-04-0.127D-05 0.276D-05 0.223D-05
 Coeff:      0.204D-03 0.121D-03 0.535D-03-0.125D-02-0.258D-02 0.149D-02
 Coeff:      0.144D-02 0.246D-01 0.163D-01-0.555D-01-0.150D+00-0.218D+00
 Coeff:      0.124D+00 0.126D+01
 Gap=     0.020 Goal=   None    Shift=    0.000
 Gap=     0.020 Goal=   None    Shift=    0.000
 RMSDP=1.21D-04 MaxDP=4.80D-03 DE=-2.75D-08 OVMax= 7.80D-04

 Cycle  24  Pass 1  IDiag  1:
 RMSU=  6.02D-06    CP:  1.00D+00  2.36D+00  3.00D+00
 E= -893.440102223059     Delta-E=       -0.000000022406 Rises=F Damp=F
 DIIS: error= 3.92D-07 at cycle  24 NSaved=  20.
 NSaved=20 IEnMin=20 EnMin= -893.440102223059     IErMin=20 ErrMin= 3.92D-07
 ErrMax= 3.92D-07  0.00D+00 EMaxC= 1.00D-01 BMatC= 5.19D-10 BMatP= 6.73D-09
 IDIUse=1 WtCom= 1.00D+00 WtEn= 0.00D+00
 Coeff-Com:  0.756D-06-0.265D-05-0.865D-05 0.644D-05 0.977D-05 0.257D-04
 Coeff-Com: -0.102D-04 0.222D-03-0.372D-03-0.882D-03 0.118D-02 0.451D-03
 Coeff-Com:  0.121D-01 0.719D-02-0.149D-01-0.980D-01-0.169D+00-0.582D-01
 Coeff-Com:  0.691D+00 0.630D+00
 Coeff:      0.756D-06-0.265D-05-0.865D-05 0.644D-05 0.977D-05 0.257D-04
 Coeff:     -0.102D-04 0.222D-03-0.372D-03-0.882D-03 0.118D-02 0.451D-03
 Coeff:      0.121D-01 0.719D-02-0.149D-01-0.980D-01-0.169D+00-0.582D-01
 Coeff:      0.691D+00 0.630D+00
 Gap=     0.020 Goal=   None    Shift=    0.000
 Gap=     0.020 Goal=   None    Shift=    0.000
 RMSDP=3.93D-05 MaxDP=1.55D-03 DE=-2.24D-08 OVMax= 2.47D-04

 Cycle  25  Pass 1  IDiag  1:
 RMSU=  5.85D-06    CP:  1.00D+00  2.64D+00  3.00D+00  2.50D+00
 E= -893.440102226067     Delta-E=       -0.000000003008 Rises=F Damp=F
 DIIS: error= 6.13D-07 at cycle  25 NSaved=  20.
 NSaved=20 IEnMin=20 EnMin= -893.440102226067     IErMin=19 ErrMin= 3.92D-07
 ErrMax= 6.13D-07  0.00D+00 EMaxC= 1.00D-01 BMatC= 5.48D-10 BMatP= 5.19D-10
 IDIUse=1 WtCom= 1.00D+00 WtEn= 0.00D+00
 Coeff-Com:  0.212D-05-0.216D-05-0.122D-05 0.423D-05-0.567D-04-0.296D-04
 Coeff-Com: -0.109D-04 0.708D-04 0.243D-03 0.474D-03-0.452D-03 0.532D-04
 Coeff-Com: -0.507D-02-0.596D-02-0.638D-02-0.115D-01-0.117D-01 0.115D-01
 Coeff-Com:  0.139D+00 0.890D+00
 Coeff:      0.212D-05-0.216D-05-0.122D-05 0.423D-05-0.567D-04-0.296D-04
 Coeff:     -0.109D-04 0.708D-04 0.243D-03 0.474D-03-0.452D-03 0.532D-04
 Coeff:     -0.507D-02-0.596D-02-0.638D-02-0.115D-01-0.117D-01 0.115D-01
 Coeff:      0.139D+00 0.890D+00
 Gap=     0.020 Goal=   None    Shift=    0.000
 Gap=     0.020 Goal=   None    Shift=    0.000
 RMSDP=2.59D-05 MaxDP=1.12D-03 DE=-3.01D-09 OVMax= 1.65D-04

 Cycle  26  Pass 1  IDiag  1:
 RMSU=  7.84D-06    CP:  1.00D+00  2.80D+00  3.00D+00  3.00D+00  2.02D+00
 E= -893.440102227640     Delta-E=       -0.000000001573 Rises=F Damp=F
 DIIS: error= 3.99D-07 at cycle  26 NSaved=  20.
 NSaved=20 IEnMin=20 EnMin= -893.440102227640     IErMin=18 ErrMin= 3.92D-07
 ErrMax= 3.99D-07  0.00D+00 EMaxC= 1.00D-01 BMatC= 1.81D-10 BMatP= 5.19D-10
 IDIUse=1 WtCom= 1.00D+00 WtEn= 0.00D+00
 Coeff-Com:  0.224D-05 0.753D-06-0.719D-06-0.209D-04-0.165D-04-0.333D-04
 Coeff-Com:  0.465D-04 0.211D-03 0.163D-03 0.191D-03-0.153D-02-0.274D-02
 Coeff-Com: -0.238D-03 0.103D-01 0.319D-01 0.532D-01-0.162D+00-0.199D+00
 Coeff-Com:  0.244D+00 0.103D+01
 Coeff:      0.224D-05 0.753D-06-0.719D-06-0.209D-04-0.165D-04-0.333D-04
 Coeff:      0.465D-04 0.211D-03 0.163D-03 0.191D-03-0.153D-02-0.274D-02
 Coeff:     -0.238D-03 0.103D-01 0.319D-01 0.532D-01-0.162D+00-0.199D+00
 Coeff:      0.244D+00 0.103D+01
 Gap=     0.020 Goal=   None    Shift=    0.000
 Gap=     0.020 Goal=   None    Shift=    0.000
 RMSDP=2.21D-05 MaxDP=9.86D-04 DE=-1.57D-09 OVMax= 1.49D-04

 Cycle  27  Pass 1  IDiag  1:
 RMSU=  1.02D-06    CP:  1.00D+00  2.92D+00  3.00D+00  3.00D+00  3.00D+00
                    CP:  2.65D+00
 E= -893.440102228745     Delta-E=       -0.000000001105 Rises=F Damp=F
 DIIS: error= 1.30D-07 at cycle  27 NSaved=  20.
 NSaved=20 IEnMin=20 EnMin= -893.440102228745     IErMin=20 ErrMin= 1.30D-07
 ErrMax= 1.30D-07  0.00D+00 EMaxC= 1.00D-01 BMatC= 3.46D-11 BMatP= 1.81D-10
 IDIUse=1 WtCom= 1.00D+00 WtEn= 0.00D+00
 Coeff-Com:  0.141D-07-0.101D-05 0.160D-04 0.117D-04 0.109D-05-0.204D-04
 Coeff-Com:  0.371D-05-0.455D-04 0.330D-03-0.938D-03 0.344D-04 0.425D-03
 Coeff-Com:  0.919D-02 0.265D-01 0.412D-01-0.911D-01-0.185D+00-0.269D+00
 Coeff-Com:  0.726D+00 0.743D+00
 Coeff:      0.141D-07-0.101D-05 0.160D-04 0.117D-04 0.109D-05-0.204D-04
 Coeff:      0.371D-05-0.455D-04 0.330D-03-0.938D-03 0.344D-04 0.425D-03
 Coeff:      0.919D-02 0.265D-01 0.412D-01-0.911D-01-0.185D+00-0.269D+00
 Coeff:      0.726D+00 0.743D+00
 Gap=     0.020 Goal=   None    Shift=    0.000
 Gap=     0.020 Goal=   None    Shift=    0.000
 RMSDP=1.65D-05 MaxDP=7.26D-04 DE=-1.10D-09 OVMax= 1.16D-04

 Cycle  28  Pass 1  IDiag  1:
 RMSU=  9.12D-06    CP:  1.00D+00  2.99D+00  3.00D+00  3.00D+00  3.00D+00
                    CP:  3.00D+00  3.00D+00
 E= -893.440102229410     Delta-E=       -0.000000000666 Rises=F Damp=F
 DIIS: error= 1.38D-07 at cycle  28 NSaved=  20.
 NSaved=20 IEnMin=20 EnMin= -893.440102229410     IErMin=19 ErrMin= 1.30D-07
 ErrMax= 1.38D-07  0.00D+00 EMaxC= 1.00D-01 BMatC= 3.16D-11 BMatP= 3.46D-11
 IDIUse=1 WtCom= 1.00D+00 WtEn= 0.00D+00
 Coeff-Com:  0.134D-05 0.177D-04 0.164D-04-0.440D-05 0.154D-04-0.127D-04
 Coeff-Com: -0.268D-03-0.843D-04-0.113D-02 0.142D-02 0.748D-02 0.595D-02
 Coeff-Com: -0.139D-02-0.247D-01-0.143D-02 0.252D-01-0.265D+00-0.252D+00
 Coeff-Com:  0.363D+00 0.114D+01
 Coeff:      0.134D-05 0.177D-04 0.164D-04-0.440D-05 0.154D-04-0.127D-04
 Coeff:     -0.268D-03-0.843D-04-0.113D-02 0.142D-02 0.748D-02 0.595D-02
 Coeff:     -0.139D-02-0.247D-01-0.143D-02 0.252D-01-0.265D+00-0.252D+00
 Coeff:      0.363D+00 0.114D+01
 Gap=     0.020 Goal=   None    Shift=    0.000
 Gap=     0.020 Goal=   None    Shift=    0.000
 RMSDP=2.35D-05 MaxDP=1.04D-03 DE=-6.66D-10 OVMax= 1.64D-04

 Cycle  29  Pass 1  IDiag  1:
 RMSU=  1.25D-05    CP:  1.00D+00  3.00D+00  3.00D+00  3.00D+00  3.00D+00
                    CP:  3.00D+00  3.00D+00  2.89D+00
 E= -893.440102230022     Delta-E=       -0.000000000612 Rises=F Damp=F
 DIIS: error= 1.42D-07 at cycle  29 NSaved=  20.
 NSaved=20 IEnMin=20 EnMin= -893.440102230022     IErMin=18 ErrMin= 1.30D-07
 ErrMax= 1.42D-07  0.00D+00 EMaxC= 1.00D-01 BMatC= 2.66D-11 BMatP= 3.16D-11
 IDIUse=1 WtCom= 1.00D+00 WtEn= 0.00D+00
 Coeff-Com: -0.700D-05 0.437D-05-0.136D-04 0.790D-04 0.538D-04-0.282D-03
 Coeff-Com: -0.354D-03-0.101D-02 0.415D-03 0.505D-02 0.576D-02-0.591D-02
 Coeff-Com: -0.435D-01 0.145D-01 0.110D+00 0.858D-02-0.478D+00-0.129D+00
 Coeff-Com:  0.717D+00 0.797D+00
 Coeff:     -0.700D-05 0.437D-05-0.136D-04 0.790D-04 0.538D-04-0.282D-03
 Coeff:     -0.354D-03-0.101D-02 0.415D-03 0.505D-02 0.576D-02-0.591D-02
 Coeff:     -0.435D-01 0.145D-01 0.110D+00 0.858D-02-0.478D+00-0.129D+00
 Coeff:      0.717D+00 0.797D+00
 Gap=     0.020 Goal=   None    Shift=    0.000
 Gap=     0.020 Goal=   None    Shift=    0.000
 RMSDP=1.26D-05 MaxDP=5.56D-04 DE=-6.12D-10 OVMax= 8.90D-05

 Cycle  30  Pass 1  IDiag  1:
 RMSU=  8.58D-06    CP:  1.00D+00  3.00D+00  3.00D+00  3.00D+00  3.00D+00
                    CP:  3.00D+00  3.00D+00  3.00D+00  1.57D+00
 E= -893.440102230211     Delta-E=       -0.000000000189 Rises=F Damp=F
 DIIS: error= 8.88D-08 at cycle  30 NSaved=  20.
 NSaved=20 IEnMin=20 EnMin= -893.440102230211     IErMin=20 ErrMin= 8.88D-08
 ErrMax= 8.88D-08  0.00D+00 EMaxC= 1.00D-01 BMatC= 1.06D-11 BMatP= 2.66D-11
 IDIUse=1 WtCom= 1.00D+00 WtEn= 0.00D+00
 Coeff-Com:  0.307D-05-0.753D-06 0.106D-05-0.554D-04-0.435D-04-0.527D-04
 Coeff-Com:  0.535D-03 0.951D-03 0.115D-02-0.485D-02-0.147D-01-0.281D-01
 Coeff-Com:  0.479D-01 0.102D+00 0.990D-01-0.296D+00-0.318D+00-0.217D-01
 Coeff-Com:  0.538D+00 0.895D+00
 Coeff:      0.307D-05-0.753D-06 0.106D-05-0.554D-04-0.435D-04-0.527D-04
 Coeff:      0.535D-03 0.951D-03 0.115D-02-0.485D-02-0.147D-01-0.281D-01
 Coeff:      0.479D-01 0.102D+00 0.990D-01-0.296D+00-0.318D+00-0.217D-01
 Coeff:      0.538D+00 0.895D+00
 Gap=     0.020 Goal=   None    Shift=    0.000
 Gap=     0.020 Goal=   None    Shift=    0.000
 RMSDP=1.28D-05 MaxDP=5.63D-04 DE=-1.89D-10 OVMax= 9.10D-05

 Cycle  31  Pass 1  IDiag  1:
 RMSU=  1.25D-07    CP:  1.00D+00  3.00D+00  3.00D+00  3.00D+00  3.00D+00
                    CP:  3.00D+00  3.00D+00  3.00D+00  2.12D+00  2.16D+00
 E= -893.440102230295     Delta-E=       -0.000000000084 Rises=F Damp=F
 DIIS: error= 1.76D-08 at cycle  31 NSaved=  20.
 NSaved=20 IEnMin=20 EnMin= -893.440102230295     IErMin=20 ErrMin= 1.76D-08
 ErrMax= 1.76D-08  0.00D+00 EMaxC= 1.00D-01 BMatC= 7.57D-13 BMatP= 1.06D-11
 IDIUse=1 WtCom= 1.00D+00 WtEn= 0.00D+00
 Coeff-Com: -0.307D-06-0.534D-05-0.443D-04 0.369D-04 0.547D-04 0.588D-03
 Coeff-Com:  0.636D-03-0.446D-03-0.432D-02-0.804D-02-0.106D-01 0.279D-01
 Coeff-Com:  0.469D-01 0.537D-01-0.105D+00-0.142D+00-0.113D+00 0.182D+00
 Coeff-Com:  0.470D+00 0.601D+00
 Coeff:     -0.307D-06-0.534D-05-0.443D-04 0.369D-04 0.547D-04 0.588D-03
 Coeff:      0.636D-03-0.446D-03-0.432D-02-0.804D-02-0.106D-01 0.279D-01
 Coeff:      0.469D-01 0.537D-01-0.105D+00-0.142D+00-0.113D+00 0.182D+00
 Coeff:      0.470D+00 0.601D+00
 Gap=     0.020 Goal=   None    Shift=    0.000
 Gap=     0.020 Goal=   None    Shift=    0.000
 RMSDP=1.39D-06 MaxDP=6.12D-05 DE=-8.37D-11 OVMax= 1.01D-05

 Cycle  32  Pass 1  IDiag  1:
 RMSU=  3.45D-08    CP:  1.00D+00  3.00D+00  3.00D+00  3.00D+00  3.00D+00
                    CP:  3.00D+00  3.00D+00  3.00D+00  2.17D+00  2.29D+00
                    CP:  1.39D+00
 E= -893.440102230299     Delta-E=       -0.000000000005 Rises=F Damp=F
 DIIS: error= 2.89D-08 at cycle  32 NSaved=  20.
 NSaved=20 IEnMin=20 EnMin= -893.440102230299     IErMin=19 ErrMin= 1.76D-08
 ErrMax= 2.89D-08  0.00D+00 EMaxC= 1.00D-01 BMatC= 5.08D-13 BMatP= 7.57D-13
 IDIUse=1 WtCom= 1.00D+00 WtEn= 0.00D+00
 Coeff-Com: -0.349D-05-0.190D-04 0.246D-04 0.230D-04 0.297D-03 0.230D-03
 Coeff-Com: -0.641D-03-0.209D-02-0.240D-02-0.379D-03 0.119D-01 0.110D-01
 Coeff-Com:  0.206D-02-0.159D-01-0.116D-01-0.510D-01 0.194D-02 0.812D-01
 Coeff-Com:  0.286D+00 0.690D+00
 Coeff:     -0.349D-05-0.190D-04 0.246D-04 0.230D-04 0.297D-03 0.230D-03
 Coeff:     -0.641D-03-0.209D-02-0.240D-02-0.379D-03 0.119D-01 0.110D-01
 Coeff:      0.206D-02-0.159D-01-0.116D-01-0.510D-01 0.194D-02 0.812D-01
 Coeff:      0.286D+00 0.690D+00
 Gap=     0.020 Goal=   None    Shift=    0.000
 Gap=     0.020 Goal=   None    Shift=    0.000
 RMSDP=5.64D-07 MaxDP=2.59D-05 DE=-4.55D-12 OVMax= 4.99D-06

 Cycle  33  Pass 1  IDiag  1:
 RMSU=  2.84D-08    CP:  1.00D+00  3.00D+00  3.00D+00  3.00D+00  3.00D+00
                    CP:  3.00D+00  3.00D+00  3.00D+00  2.18D+00  2.35D+00
                    CP:  1.75D+00  2.24D+00
 E= -893.440102230308     Delta-E=       -0.000000000008 Rises=F Damp=F
 DIIS: error= 2.28D-08 at cycle  33 NSaved=  20.
 NSaved=20 IEnMin=20 EnMin= -893.440102230308     IErMin=18 ErrMin= 1.76D-08
 ErrMax= 2.28D-08  0.00D+00 EMaxC= 1.00D-01 BMatC= 1.85D-13 BMatP= 5.08D-13
 IDIUse=1 WtCom= 1.00D+00 WtEn= 0.00D+00
 Coeff-Com: -0.178D-04 0.119D-04 0.141D-04 0.261D-03 0.270D-03-0.431D-03
 Coeff-Com: -0.178D-02-0.223D-02-0.758D-03 0.125D-01 0.114D-01-0.832D-02
 Coeff-Com: -0.220D-01-0.252D-02-0.324D-01 0.245D-02 0.709D-01 0.282D+00
 Coeff-Com:  0.755D+00-0.636D-01
 Coeff:     -0.178D-04 0.119D-04 0.141D-04 0.261D-03 0.270D-03-0.431D-03
 Coeff:     -0.178D-02-0.223D-02-0.758D-03 0.125D-01 0.114D-01-0.832D-02
 Coeff:     -0.220D-01-0.252D-02-0.324D-01 0.245D-02 0.709D-01 0.282D+00
 Coeff:      0.755D+00-0.636D-01
 Gap=     0.020 Goal=   None    Shift=    0.000
 Gap=     0.020 Goal=   None    Shift=    0.000
 RMSDP=1.15D-07 MaxDP=4.90D-06 DE=-8.19D-12 OVMax= 8.09D-07

 Cycle  34  Pass 1  IDiag  1:
 RMSU=  7.58D-09    CP:  1.00D+00  3.00D+00  3.00D+00  3.00D+00  3.00D+00
                    CP:  3.00D+00  3.00D+00  3.00D+00  2.17D+00  2.35D+00
                    CP:  1.84D+00  1.99D+00  9.25D-01
 E= -893.440102230313     Delta-E=       -0.000000000005 Rises=F Damp=F
 DIIS: error= 2.11D-08 at cycle  34 NSaved=  20.
 NSaved=20 IEnMin=20 EnMin= -893.440102230313     IErMin=17 ErrMin= 1.76D-08
 ErrMax= 2.11D-08  0.00D+00 EMaxC= 1.00D-01 BMatC= 1.72D-13 BMatP= 1.85D-13
 IDIUse=1 WtCom= 1.00D+00 WtEn= 0.00D+00
 Large coefficients: NSaved= 20 BigCof=    0.00 CofMax=   10.00 Det=-8.84D-16
 Inversion failed.  Reducing to 19 matrices.
 Large coefficients: NSaved= 19 BigCof=    0.00 CofMax=   10.00 Det=-9.23D-16
 Inversion failed.  Reducing to 18 matrices.
 Large coefficients: NSaved= 18 BigCof=    0.00 CofMax=   10.00 Det=-9.35D-16
 Inversion failed.  Reducing to 17 matrices.
 Large coefficients: NSaved= 17 BigCof=    0.00 CofMax=   10.00 Det=-1.10D-15
 Inversion failed.  Reducing to 16 matrices.
 Large coefficients: NSaved= 16 BigCof=    0.00 CofMax=   10.00 Det=-1.21D-15
 Inversion failed.  Reducing to 15 matrices.
 Coeff-Com: -0.999D-03 0.811D-04 0.412D-02-0.230D-02-0.132D-01-0.375D-01
 Coeff-Com:  0.555D-01 0.103D+00 0.479D-02-0.165D+00-0.184D+00-0.655D-01
 Coeff-Com:  0.122D+01-0.547D+01 0.555D+01
 Coeff:     -0.999D-03 0.811D-04 0.412D-02-0.230D-02-0.132D-01-0.375D-01
 Coeff:      0.555D-01 0.103D+00 0.479D-02-0.165D+00-0.184D+00-0.655D-01
 Coeff:      0.122D+01-0.547D+01 0.555D+01
 Gap=     0.020 Goal=   None    Shift=    0.000
 Gap=     0.020 Goal=   None    Shift=    0.000
 RMSDP=3.10D-07 MaxDP=1.26D-05 DE=-5.00D-12 OVMax= 2.24D-06

 Cycle  35  Pass 1  IDiag  1:
 RMSU=  1.83D-08    CP:  1.00D+00  3.00D+00  3.00D+00  3.00D+00  3.00D+00
                    CP:  3.00D+00  3.00D+00  3.00D+00  2.19D+00  2.36D+00
                    CP:  1.50D+00  1.83D+00  1.66D-01 -7.67D-01
 E= -893.440102230302     Delta-E=        0.000000000010 Rises=F Damp=F
 DIIS: error= 1.76D-08 at cycle  35 NSaved=  16.
 NSaved=16 IEnMin=15 EnMin= -893.440102230313     IErMin=16 ErrMin= 1.76D-08
 ErrMax= 1.76D-08  0.00D+00 EMaxC= 1.00D-01 BMatC= 1.87D-13 BMatP= 1.72D-13
 IDIUse=1 WtCom= 1.00D+00 WtEn= 0.00D+00
 Large coefficients: NSaved= 16 BigCof=    0.00 CofMax=   10.00 Det=-1.02D-15
 Inversion failed.  Reducing to 15 matrices.
 Coeff-Com: -0.649D-03 0.150D-02-0.177D-02-0.320D-02-0.372D-02 0.325D-01
 Coeff-Com:  0.426D-01-0.229D-01-0.103D+00-0.951D-01-0.776D-01 0.891D+00
 Coeff-Com: -0.704D+01 0.661D+01 0.776D+00
 Coeff:     -0.649D-03 0.150D-02-0.177D-02-0.320D-02-0.372D-02 0.325D-01
 Coeff:      0.426D-01-0.229D-01-0.103D+00-0.951D-01-0.776D-01 0.891D+00
 Coeff:     -0.704D+01 0.661D+01 0.776D+00
 Gap=     0.020 Goal=   None    Shift=    0.000
 Gap=     0.020 Goal=   None    Shift=    0.000
 RMSDP=3.27D-07 MaxDP=1.73D-05 DE= 1.05D-11 OVMax= 2.94D-06

 Cycle  36  Pass 1  IDiag  1:
 RMSU=  1.06D-08    CP:  1.00D+00  3.00D+00  3.00D+00  3.00D+00  3.00D+00
                    CP:  3.00D+00  3.00D+00  3.00D+00  2.17D+00  2.37D+00
                    CP:  1.94D+00  9.55D-01 -9.64D-01  3.00D+00  9.48D-01
 E= -893.440102230311     Delta-E=       -0.000000000009 Rises=F Damp=F
 DIIS: error= 1.24D-08 at cycle  36 NSaved=  16.
 NSaved=16 IEnMin=14 EnMin= -893.440102230313     IErMin=16 ErrMin= 1.24D-08
 ErrMax= 1.24D-08  0.00D+00 EMaxC= 1.00D-01 BMatC= 1.09D-13 BMatP= 1.72D-13
 IDIUse=1 WtCom= 1.00D+00 WtEn= 0.00D+00
 Large coefficients: NSaved= 16 BigCof=    0.00 CofMax=   10.00 Det=-1.07D-15
 Inversion failed.  Reducing to 15 matrices.
 Coeff-Com:  0.103D-02-0.282D-02-0.200D-02-0.909D-03 0.249D-01 0.258D-01
 Coeff-Com: -0.182D-01-0.726D-01-0.632D-01-0.441D-01 0.668D+00-0.538D+01
 Coeff-Com:  0.481D+01 0.617D+00 0.435D+00
 Coeff:      0.103D-02-0.282D-02-0.200D-02-0.909D-03 0.249D-01 0.258D-01
 Coeff:     -0.182D-01-0.726D-01-0.632D-01-0.441D-01 0.668D+00-0.538D+01
 Coeff:      0.481D+01 0.617D+00 0.435D+00
 Gap=     0.020 Goal=   None    Shift=    0.000
 Gap=     0.020 Goal=   None    Shift=    0.000
 RMSDP=1.04D-07 MaxDP=5.62D-06 DE=-9.09D-12 OVMax= 9.94D-07

 Cycle  37  Pass 1  IDiag  1:
 RMSU=  2.75D-09    CP:  1.00D+00  3.00D+00  3.00D+00  3.00D+00  3.00D+00
                    CP:  3.00D+00  3.00D+00  3.00D+00  2.18D+00  2.38D+00
                    CP:  1.88D+00  5.49D-01 -1.48D+00  3.00D+00  1.15D+00
                    CP:  1.06D+00
 E= -893.440102230315     Delta-E=       -0.000000000004 Rises=F Damp=F
 DIIS: error= 7.90D-09 at cycle  37 NSaved=  16.
 NSaved=16 IEnMin=16 EnMin= -893.440102230315     IErMin=16 ErrMin= 7.90D-09
 ErrMax= 7.90D-09  0.00D+00 EMaxC= 1.00D-01 BMatC= 3.46D-14 BMatP= 1.09D-13
 IDIUse=1 WtCom= 1.00D+00 WtEn= 0.00D+00
 Large coefficients: NSaved= 16 BigCof=    0.00 CofMax=   10.00 Det=-6.07D-16
 Inversion failed.  Reducing to 15 matrices.
 Coeff-Com: -0.189D-02-0.117D-02-0.770D-03 0.157D-01 0.122D-01-0.117D-01
 Coeff-Com: -0.367D-01-0.269D-01-0.261D-01 0.314D+00-0.300D+01 0.255D+01
 Coeff-Com:  0.340D+00 0.282D+00 0.599D+00
 Coeff:     -0.189D-02-0.117D-02-0.770D-03 0.157D-01 0.122D-01-0.117D-01
 Coeff:     -0.367D-01-0.269D-01-0.261D-01 0.314D+00-0.300D+01 0.255D+01
 Coeff:      0.340D+00 0.282D+00 0.599D+00
 Gap=     0.020 Goal=   None    Shift=    0.000
 Gap=     0.020 Goal=   None    Shift=    0.000
 RMSDP=1.91D-07 MaxDP=8.92D-06 DE=-3.64D-12 OVMax= 1.39D-06

 Cycle  38  Pass 1  IDiag  1:
 RMSU=  2.86D-09    CP:  1.00D+00  3.00D+00  3.00D+00  3.00D+00  3.00D+00
                    CP:  3.00D+00  3.00D+00  3.00D+00  2.19D+00  2.39D+00
                    CP:  1.72D+00  2.08D-01 -1.97D+00  3.00D+00  1.51D+00
                    CP:  1.11D+00  4.44D-01
 E= -893.440102230301     Delta-E=        0.000000000014 Rises=F Damp=F
 DIIS: error= 2.11D-09 at cycle  38 NSaved=  16.
 NSaved=16 IEnMin=15 EnMin= -893.440102230315     IErMin=16 ErrMin= 2.11D-09
 ErrMax= 2.11D-09  0.00D+00 EMaxC= 1.00D-01 BMatC= 4.51D-15 BMatP= 3.46D-14
 IDIUse=1 WtCom= 1.00D+00 WtEn= 0.00D+00
 Large coefficients: NSaved= 16 BigCof=    0.00 CofMax=   10.00 Det=-1.59D-16
 Inversion failed.  Reducing to 15 matrices.
 Coeff-Com: -0.682D-03-0.114D-02 0.302D-02 0.315D-02-0.405D-03-0.484D-02
 Coeff-Com: -0.677D-02-0.643D-02 0.342D-01-0.254D-01-0.511D-01 0.173D-01
 Coeff-Com:  0.251D-01 0.231D+00 0.783D+00
 Coeff:     -0.682D-03-0.114D-02 0.302D-02 0.315D-02-0.405D-03-0.484D-02
 Coeff:     -0.677D-02-0.643D-02 0.342D-01-0.254D-01-0.511D-01 0.173D-01
 Coeff:      0.251D-01 0.231D+00 0.783D+00
 Gap=     0.020 Goal=   None    Shift=    0.000
 Gap=     0.020 Goal=   None    Shift=    0.000
 RMSDP=2.69D-08 MaxDP=1.21D-06 DE= 1.41D-11 OVMax= 2.33D-07

 Cycle  39  Pass 1  IDiag  1:
 RMSU=  1.89D-09    CP:  1.00D+00  3.00D+00  3.00D+00  3.00D+00  3.00D+00
                    CP:  3.00D+00  3.00D+00  3.00D+00  2.19D+00  2.38D+00
                    CP:  1.70D+00  2.64D-01 -1.95D+00  2.74D+00  1.51D+00
                    CP:  1.12D+00  5.42D-01  1.15D+00
 E= -893.440102230299     Delta-E=        0.000000000001 Rises=F Damp=F
 DIIS: error= 9.49D-10 at cycle  39 NSaved=  16.
 NSaved=16 IEnMin=14 EnMin= -893.440102230315     IErMin=16 ErrMin= 9.49D-10
 ErrMax= 9.49D-10  0.00D+00 EMaxC= 1.00D-01 BMatC= 2.51D-15 BMatP= 4.51D-15
 IDIUse=1 WtCom= 1.00D+00 WtEn= 0.00D+00
 Large coefficients: NSaved= 16 BigCof=    0.00 CofMax=   10.00 Det=-3.55D-16
 Inversion failed.  Reducing to 15 matrices.
 Coeff-Com: -0.964D-04 0.593D-03-0.296D-03-0.557D-03 0.108D-02 0.102D-02
 Coeff-Com: -0.201D-02-0.202D-01 0.234D+00-0.266D+00-0.763D-02 0.253D-02
 Coeff-Com:  0.111D+00 0.582D+00 0.365D+00
 Coeff:     -0.964D-04 0.593D-03-0.296D-03-0.557D-03 0.108D-02 0.102D-02
 Coeff:     -0.201D-02-0.202D-01 0.234D+00-0.266D+00-0.763D-02 0.253D-02
 Coeff:      0.111D+00 0.582D+00 0.365D+00
 Gap=     0.020 Goal=   None    Shift=    0.000
 Gap=     0.020 Goal=   None    Shift=    0.000
 RMSDP=1.69D-08 MaxDP=8.81D-07 DE= 1.36D-12 OVMax= 1.48D-07

 Cycle  40  Pass 1  IDiag  1:
 RMSU=  5.80D-10    CP:  1.00D+00  3.00D+00  3.00D+00  3.00D+00  3.00D+00
                    CP:  3.00D+00  3.00D+00  3.00D+00  2.19D+00  2.39D+00
                    CP:  1.69D+00  2.28D-01 -2.02D+00  2.80D+00  1.55D+00
                    CP:  1.17D+00  4.81D-01  1.24D+00  1.02D+00
 E= -893.440102230308     Delta-E=       -0.000000000009 Rises=F Damp=F
 DIIS: error= 4.02D-10 at cycle  40 NSaved=  16.
 NSaved=16 IEnMin=13 EnMin= -893.440102230315     IErMin=16 ErrMin= 4.02D-10
 ErrMax= 4.02D-10  0.00D+00 EMaxC= 1.00D-01 BMatC= 3.19D-16 BMatP= 2.51D-15
 IDIUse=1 WtCom= 1.00D+00 WtEn= 0.00D+00
 Large coefficients: NSaved= 16 BigCof=    0.00 CofMax=   10.00 Det=-3.67D-16
 Inversion failed.  Reducing to 15 matrices.
 Coeff-Com: -0.616D-03-0.119D-02 0.630D-03 0.348D-02 0.248D-02 0.176D-02
 Coeff-Com: -0.322D-01 0.318D+00-0.321D+00-0.201D-01-0.839D-02 0.620D-01
 Coeff-Com:  0.332D+00 0.229D+00 0.434D+00
 Coeff:     -0.616D-03-0.119D-02 0.630D-03 0.348D-02 0.248D-02 0.176D-02
 Coeff:     -0.322D-01 0.318D+00-0.321D+00-0.201D-01-0.839D-02 0.620D-01
 Coeff:      0.332D+00 0.229D+00 0.434D+00
 Gap=     0.020 Goal=   None    Shift=    0.000
 Gap=     0.020 Goal=   None    Shift=    0.000
 RMSDP=2.02D-08 MaxDP=7.87D-07 DE=-8.64D-12 OVMax= 1.27D-07

 Cycle  41  Pass 1  IDiag  1:
 Restarting incremental Fock formation.
 E= -893.440102230297     Delta-E=        0.000000000010 Rises=F Damp=F
 DIIS: error= 1.74D-10 at cycle  41 NSaved=  16.
 NSaved=16 IEnMin=12 EnMin= -893.440102230315     IErMin=16 ErrMin= 1.74D-10
 ErrMax= 1.74D-10  0.00D+00 EMaxC= 1.00D-01 BMatC= 2.56D-17 BMatP= 3.19D-16
 IDIUse=1 WtCom= 1.00D+00 WtEn= 0.00D+00
 Large coefficients: NSaved= 16 BigCof=    0.00 CofMax=   10.00 Det=-1.33D-16
 Inversion failed.  Reducing to 15 matrices.
 Coeff-Com: -0.639D-03-0.105D-04 0.106D-02 0.149D-02 0.278D-02-0.814D-02
 Coeff-Com:  0.730D-01-0.803D-01-0.242D-02 0.616D-03 0.184D-01 0.651D-01
 Coeff-Com:  0.491D-01 0.138D+00 0.742D+00
 Coeff:     -0.639D-03-0.105D-04 0.106D-02 0.149D-02 0.278D-02-0.814D-02
 Coeff:      0.730D-01-0.803D-01-0.242D-02 0.616D-03 0.184D-01 0.651D-01
 Coeff:      0.491D-01 0.138D+00 0.742D+00
 Gap=     0.020 Goal=   None    Shift=    0.000
 Gap=     0.020 Goal=   None    Shift=    0.000
 RMSDP=6.86D-09 MaxDP=5.68D-07 DE= 1.05D-11 OVMax= 3.84D-08

 SCF Done:  E(UB3LYP) =  -893.440102230     A.U. after   41 cycles
            NFock= 41  Conv=0.69D-08     -V/T= 2.0030
 <Sx>= 0.0000 <Sy>= 0.0000 <Sz>= 0.0000 <S**2>=-0.0000 S=-0.0000
 <L.S>=  0.00000000000    
 KE= 8.907682935642D+02 PE=-4.801352960883D+03 EE= 1.679382534812D+03
 Annihilation of the first spin contaminant:
 S**2 before annihilation    -0.0000,   after    -0.0000
 Leave Link  502 at Thu Dec 21 07:49:52 2023, MaxMem=  4026531840 cpu:            6266.6 elap:             917.3
 (Enter /sysapps/ubuntu-applications/gaussian/Gaussian/AVX2/g16/l601.exe)
 Copying SCF densities to generalized density rwf, IOpCl= 1 IROHF=0.

 **********************************************************************

            Population analysis using the SCF density.

 **********************************************************************

 Alpha  occ. eigenvalues --  -18.83559 -18.83376 -18.82217 -18.77020 -14.20515
 Alpha  occ. eigenvalues --   -9.97910  -9.96354  -9.94855  -9.94783  -9.94683
 Alpha  occ. eigenvalues --   -9.94313  -9.94285  -9.94236  -9.93909  -9.93271
 Alpha  occ. eigenvalues --   -9.92739  -9.92038  -9.91847  -9.90369  -0.84391
[...]
 -0.01238245,-0.00762489,-0.00103457,0.02538318,-0.03188563,-0.00256330
 ,-0.00104840,-0.19986291,-0.01698362,-0.03922056,-0.01306114,0.0009877
 7,0.00597246,0.00028782,-0.00117612,0.00896722,-0.01634814,-0.00211066
 ,-0.00125632,0.00104106,-0.00019662,-0.00092509,-0.00792996,-0.0015219
 1,0.00405744,0.00890255,0.00157880,-0.01141322,-0.00064702,-0.00040900
 ,0.01077701,0.02473680,0.00449620,0.04982017,-0.14794657,-0.02290414,0
 .04065767,-0.05349617,-0.01986603,-0.03080256,0.55248669,0.00067669,0.
 00164547,-0.00206561,-0.00037529,-0.00331972,0.00360142,0.00310848,0.0
 0053761,0.00171670,0.00688833,0.00493828,-0.05455944,-0.00154918,-0.00
 074339,0.00809868,0.00209895,0.00240500,-0.00693912,-0.00373412,-0.001
 44029,0.00384907,0.00551869,-0.01542762,-0.05057830,-0.00824519,-0.002
 36500,0.00347399,0.00114849,-0.00084316,0.00218334,0.00162391,-0.00442
 707,-0.00000199,-0.00001044,0.00033995,0.00000805,-0.00048171,-0.00195
 338,-0.00024972,0.00099829,0.00187772,0.00094308,-0.00214658,-0.000588
 84,0.00466751,0.00442732,0.00321528,0.00238368,0.02498733,-0.01612791,
 -0.06963246,0.00935241,-0.02374407,0.00933592,-0.04303364,0.05560094,0
 .13365322,0.00014687,0.00070718,-0.00011120,-0.00337619,-0.00402100,-0
 .00127531,0.00449872,-0.00096374,0.00131902,-0.02190149,-0.01299298,0.
 00077639,-0.28792532,-0.10053253,0.00194789,0.00139506,0.00187187,-0.0
 0001076,0.00155107,-0.00050228,-0.00001564,0.00040511,0.00081801,0.000
 18867,0.00006055,-0.00008133,0.00010442,-0.00009763,-0.00002533,-0.000
 03051,-0.00007123,0.00003322,-0.00002248,0.00005547,0.00000152,-0.0000
 1369,-0.00003576,0.00002306,-0.00000008,-0.00007376,0.00003473,-0.0000
 1327,-0.00004943,-0.00015203,-0.00009120,-0.00044639,0.00041633,0.0003
 4899,-0.00062480,-0.00146882,-0.00052173,0.00012439,0.00017103,-0.0000
 0962,-0.00087911,0.00453561,-0.00018030,0.30652269,0.00029388,-0.00011
 368,-0.00029048,0.00214604,0.00177199,0.00062274,-0.00146802,-0.003383
 95,-0.00068778,0.01661721,0.00990861,-0.00061878,-0.10586714,-0.100918
 10,0.00431244,-0.02786524,-0.00614623,-0.00013387,0.00082493,-0.005609
 78,-0.00010171,0.00062114,-0.00073212,0.00010433,-0.00035827,0.0000658
 6,-0.00006003,-0.00015620,-0.00006166,-0.00001560,0.00023777,-0.000221
 98,-0.00003976,-0.00013619,0.00002141,0.00002195,0.00004792,-0.0001452
 8,-0.00001853,0.00004014,0.00011963,0.00004736,-0.00000038,0.00003822,
 0.00008449,0.00038716,0.00002422,-0.00026948,0.00027077,0.00059570,0.0
 0022041,-0.00009524,0.00011554,0.00011983,0.00227870,-0.00205186,0.000
 30376,0.11267907,0.10593319,-0.00018692,0.00085684,-0.00046318,-0.0000
 3069,-0.00062603,-0.00467043,-0.00146848,-0.00124144,-0.00037758,0.001
 37205,-0.00031761,0.00591443,0.00244159,0.00711773,-0.03478147,-0.0005
 3736,-0.00344455,0.00254918,0.00127418,0.00025934,0.00584442,-0.001709
 10,-0.00021413,-0.00091502,0.00127478,0.00078523,-0.00049739,-0.000249
 41,-0.00073025,-0.00008563,0.00037949,0.00039468,0.00018715,-0.0002423
 1,-0.00005008,0.00006795,0.00022346,0.00015384,0.00001892,-0.00023319,
 -0.00011085,0.00003240,0.00029637,-0.00010521,-0.00009753,-0.00079846,
 0.00007871,-0.00061147,0.00035850,0.00036594,0.00086467,-0.00006822,-0
 .00054642,0.00001397,0.00007476,0.00079258,0.00579245,-0.00240558,-0.0
 0345006,0.02417683,-0.00001942,0.00016398,0.00001054,0.00004186,-0.000
 38096,-0.00014112,0.00009331,0.00027219,0.00008257,0.00123374,-0.00113
 412,-0.00013328,0.00478301,-0.00441761,0.00012116,-0.22569860,0.127097
 43,-0.00474442,-0.01945380,0.02115425,0.00029079,-0.00351552,-0.004800
 41,-0.00111422,0.00001227,0.00235004,0.00005826,-0.00016164,-0.0007445
 6,-0.00011713,-0.00069802,-0.00055308,0.00012554,0.00006602,0.00023480
 ,-0.00000946,-0.00015420,-0.00001182,-0.00001200,-0.00006529,0.0000076
 0,0.00000295,0.00005723,-0.00001333,-0.00002783,0.00006106,0.00006967,
 0.00001834,0.00006083,-0.00023788,-0.00003127,-0.00002995,0.00039799,0
 .00012659,0.00011585,-0.00070301,-0.00002107,0.00082401,0.00067494,0.0
 0007919,0.24133078,-0.00044534,-0.00068049,0.00024275,0.00200070,-0.00
 003813,0.00002347,-0.00017255,-0.00020532,0.00019671,-0.00355668,-0.00
 444077,-0.00023258,0.02775936,-0.01469003,0.00001749,0.12652273,-0.151
 66013,0.00136072,-0.01062833,0.01003652,-0.00019610,-0.00235386,-0.000
 26952,-0.00066910,0.00016489,0.00020049,0.00003971,0.00005095,0.000144
 05,0.00002005,-0.00019457,0.00028131,0.00003828,-0.00004913,-0.0000068
 0,0.00000338,0.00006296,0.00014280,0.00001669,-0.00005422,-0.00014553,
 -0.00001734,0.00011589,0.00002080,-0.00001201,-0.00025213,-0.00024703,
 0.00000121,0.00020430,0.00027071,0.00000095,0.00007996,-0.00018437,-0.
 00011153,-0.00038674,-0.00013146,0.00014927,-0.00073599,0.00108126,0.0
 0002044,-0.13882489,0.15970217,-0.00005592,-0.00020209,-0.00113154,-0.
 00079248,-0.00132985,0.00269435,0.00081464,-0.00005898,-0.00003332,-0.
 00012929,0.00156649,0.00420115,0.00115835,-0.00057765,-0.00093217,-0.0
 0285494,0.00093366,-0.02359778,-0.00326429,0.00149232,-0.00024087,0.00
 013469,-0.00134939,0.00686773,0.00018716,-0.00056236,0.00068049,-0.000
 14826,0.00060867,0.00033591,-0.00066795,0.00046463,-0.00113166,0.00019
 562,-0.00000349,0.00017616,-0.00009777,0.00016984,0.00009758,0.0000147
 3,-0.00020802,-0.00005063,0.00002284,0.00000318,0.00010382,-0.00027801
 ,-0.00040049,0.00003466,0.00073246,0.00051378,-0.00034760,-0.00034558,
 -0.00039990,-0.00010914,-0.00032821,0.00007435,-0.00026835,-0.00002880
 ,0.00016426,-0.00296905,0.00515492,-0.00121301,0.01966203,0.00047573,-
 0.00027318,0.00035245,-0.00010271,0.00056302,-0.00003863,-0.00013613,-
 0.00017417,-0.00014907,-0.00151692,-0.00020155,-0.00002107,-0.00445737
 ,-0.00108095,-0.00112641,-0.00022123,-0.02777471,-0.00214346,-0.059905
 52,-0.03901874,-0.00390478,0.00779929,0.02595731,0.00165985,-0.0013764
 3,0.00477874,0.00083172,0.00032523,-0.00373813,-0.00025717,0.00182997,
 -0.00131885,-0.00027929,-0.00064833,-0.00018067,-0.00001947,0.00027986
 ,-0.00041487,-0.00006053,-0.00006944,0.00031222,0.00005238,0.00009310,
 -0.00019189,-0.00006351,0.00019720,0.00046247,0.00009638,0.00063965,0.
 00152397,-0.00002029,-0.00044057,0.00008329,0.00022337,-0.00370860,0.0
 0127825,-0.00042964,-0.00005519,-0.00117835,0.00013888,0.00120502,0.00
 066168,0.00053381,0.05987505,0.00005800,-0.00007569,0.00010003,-0.0000
 6709,0.00006353,0.00006511,-0.00010712,-0.00013736,-0.00007851,0.00060
 244,0.00068331,-0.00000896,-0.00209173,0.00119521,-0.00056805,0.001575
 26,-0.00575789,-0.00053703,-0.03649918,-0.32088282,-0.01888246,-0.0014
 6679,-0.01884124,-0.00162602,-0.00149312,-0.00353992,-0.00023099,-0.00
 294661,0.00231519,0.00011591,0.00008492,0.00028241,0.00002372,-0.00003
 052,-0.00006007,-0.00001264,0.00006115,0.00013487,0.00002503,0.0000170
 7,-0.00008744,-0.00002027,-0.00001417,0.00006314,0.00002037,0.00000512
 ,-0.00015931,-0.00006969,-0.00092612,-0.00063670,0.00024240,0.00041822
 ,-0.00041773,-0.00024899,0.00324069,0.00033857,-0.00028298,0.00018769,
 -0.00029954,0.00000518,-0.00060777,0.00081715,0.00031299,0.03994474,0.
 34497153,-0.00029706,0.00030696,0.00003218,0.00007278,-0.00072156,-0.0
 0113266,0.00005798,-0.00003250,0.00012642,-0.00024116,0.00036715,-0.00
 023949,-0.00154425,-0.00002482,0.00720196,0.00030465,-0.00262059,0.003
 64867,-0.00504596,-0.01902937,-0.04092772,0.00215919,-0.00081765,0.005
 31004,-0.00015332,-0.00014036,-0.00384784,-0.00039616,0.00007268,-0.00
 061158,0.00000591,0.00000260,0.00017136,0.00003899,-0.00005590,0.00004
 920,-0.00001090,0.00004503,-0.00003156,-0.00001453,-0.00003719,-0.0000
 0704,0.00002689,-0.00001242,0.00000084,-0.00007101,-0.00004806,-0.0000
 2046,0.00026057,0.00027506,0.00021525,-0.00034665,0.00000793,-0.000204
 27,0.00026619,0.00078142,0.00563316,0.00002237,-0.00028829,0.00002016,
 0.00026182,0.00031854,-0.00398474,0.00463204,0.02165629,0.02857723,-0.
 00021543,0.00019570,-0.00013138,-0.00012441,-0.00049718,0.00018518,0.0
 0020315,0.00009069,0.00001637,0.00018780,0.00062288,-0.00012748,0.0000
 5338,-0.00063473,0.00009675,0.00039510,0.00057750,0.00000684,-0.000559
 93,0.00017948,0.00001116,0.00178281,0.00085319,0.00014219,-0.00156205,
 -0.00442028,-0.00045481,0.00172336,0.00355657,0.00043281,0.00256967,-0
 .02938320,-0.00483581,-0.05692279,-0.01999336,-0.00303058,0.00512104,0
 .02544414,0.00425093,-0.00357561,0.00203281,0.00040327,-0.00098473,0.0
 0007832,0.00002199,-0.00525542,-0.00075061,-0.00000967,0.00111133,-0.0
 0140920,-0.00030132,-0.00069742,-0.00017494,-0.00007665,-0.00022466,-0
 .00042387,-0.00010644,-0.00000347,0.00001123,0.00003438,0.00002432,0.0
 0000765,-0.00000160,-0.00013194,0.00002593,-0.00000624,0.05571801,0.00
 008164,-0.00013463,0.00016000,0.00008352,0.00029486,-0.00003861,-0.000
 21245,-0.00014335,-0.00009983,0.00003710,-0.00005937,0.00000300,-0.000
 03740,-0.00002833,-0.00001165,-0.00006423,0.00002197,-0.00000306,0.000
 10879,-0.00009310,-0.00003017,-0.00030918,0.00005972,0.00003214,0.0015
 2142,-0.00316327,0.00009135,0.00263565,0.00144057,0.00026402,-0.003035
 02,-0.01149430,-0.00261440,-0.02146749,-0.31844168,-0.04672836,-0.0042
 2614,-0.01159061,-0.00240915,0.00348833,0.00077671,-0.00118111,-0.0003
 4988,0.00075072,0.00029630,-0.00236094,0.00100447,-0.00064319,0.000774
 64,-0.00038888,0.00005319,-0.00036239,-0.00035779,-0.00015152,-0.00013
 218,-0.00002918,-0.00003274,-0.00001266,-0.00000483,0.00000458,-0.0000
 3952,0.00001445,0.00000604,0.00002155,0.00005618,-0.00000023,0.0234833
 1,0.34147076,0.00005776,-0.00000609,-0.00006981,-0.00006023,0.00009841
 ,0.00011746,-0.00002111,-0.00003801,-0.00005480,-0.00002816,-0.0000104
 6,0.00006087,0.00000876,-0.00001030,-0.00003023,-0.00002842,0.00000941
 ,-0.00003925,0.00004442,-0.00001577,0.00011808,-0.00006216,-0.00001188
 ,-0.00001940,0.00021119,0.00017081,-0.00279826,0.00039312,0.00030207,-
 0.00077446,-0.00020073,-0.00256145,0.00394984,-0.00344954,-0.04643788,
 -0.04479495,-0.00071296,-0.00284272,0.00260920,0.00070998,-0.00123608,
 0.00789808,-0.00006046,0.00022672,-0.00092014,-0.00033611,-0.00053861,
 0.00533902,-0.00000028,-0.00011736,-0.00047931,0.00005831,-0.00005279,
 0.00008732,0.00002219,-0.00001267,0.00008531,-0.00000443,0.00000051,-0
 .00000159,0.00000203,0.00000234,-0.00002022,-0.00000580,0.00000509,0.0
 0004190,0.00341378,0.05217404,0.03490674,0.00022667,-0.00031196,0.0002
 9164,0.00019516,0.00074951,-0.00009666,-0.00044802,-0.00028500,-0.0001
 8452,-0.00008395,-0.00036629,0.00004894,-0.00004557,0.00019004,-0.0000
 6295,-0.00031869,-0.00014169,-0.00002916,0.00030912,-0.00021049,-0.000
 00545,-0.00085740,0.00061155,0.00010944,-0.00048617,-0.00179399,-0.000
 24729,-0.00002585,0.00038471,0.00004608,-0.00140965,0.00490942,0.00080
 362,-0.02132732,-0.01439052,-0.00225521,-0.27178710,-0.09712031,-0.015
 15285,-0.00142117,0.00194622,0.00035724,0.00198230,-0.00124868,-0.0001
 7051,0.00027419,0.00096553,0.00015535,0.00001982,0.00011767,0.00001738
 ,-0.00017265,-0.00020414,-0.00006484,0.00017027,0.00004344,0.00000047,
 -0.00001675,-0.00001199,-0.00000523,-0.00007133,0.00001849,0.00000929,
 0.00002224,0.00003396,0.00000429,0.00125298,0.00056394,0.00007354,0.29
 334164,0.00010004,-0.00012993,0.00014735,0.00009441,0.00033495,-0.0000
 1956,-0.00021618,-0.00013083,-0.00010127,-0.00016451,-0.00011622,-0.00
 002292,0.00005341,-0.00009987,-0.00002053,-0.00005954,0.00005197,-0.00
 001502,0.00017953,0.00005913,-0.00002444,0.00027834,0.00006115,0.00021
 133,-0.00004188,0.00079540,0.00003562,0.00001531,-0.00007081,-0.000080
 94,0.00283279,-0.00163573,-0.00165453,0.01713940,0.01047403,0.00156049
 ,-0.09721446,-0.10032702,-0.01227228,-0.02989668,-0.00622017,-0.000692
 17,0.00134287,-0.00603275,-0.00182708,0.00086468,-0.00041725,0.0000032
 0,-0.00040888,-0.00008828,0.00003020,-0.00024092,0.00020934,0.00006602
 ,0.00019520,-0.00019379,-0.00004058,-0.00000661,-0.00000624,0.00000479
 ,-0.00000416,0.00001453,0.00001541,-0.00001469,0.00000721,-0.00000016,
 -0.00067920,0.00080146,0.00097669,0.10627143,0.10208812,0.00002253,-0.
 00000428,-0.00002668,-0.00001165,0.00009957,0.00005367,-0.00004108,-0.
 00003632,-0.00004231,-0.00010360,-0.00007900,0.00018775,0.00003914,-0.
 00004963,-0.00001242,-0.00002323,0.00002431,0.00001806,0.00001819,0.00
 000694,0.00013804,-0.00008197,-0.00004367,-0.00110516,0.00020343,0.000
 12203,0.00069778,-0.00008265,-0.00006929,0.00029577,0.00062907,-0.0016
 7044,0.00751562,0.00310760,0.00166621,0.00110089,-0.01517430,-0.012163
 36,-0.02714028,-0.00511066,-0.00092283,-0.00134983,0.00021646,-0.00185
 614,0.00457668,0.00009649,0.00009049,-0.00033910,-0.00012868,0.0002000
 0,-0.00076890,0.00000733,0.00005063,-0.00009749,0.00013174,0.00001221,
 0.00015691,-0.00000063,-0.00000424,-0.00001505,0.00000745,-0.00000030,
 -0.00002180,0.00000357,0.00000677,-0.00000671,-0.00014551,0.00094607,-
 0.00476907,0.01650549,0.01338008,0.02242496,0.00015013,-0.00026629,0.0
 0028292,0.00016787,0.00057384,-0.00008793,-0.00037350,-0.00026436,-0.0
 0017700,-0.00001387,0.00002104,0.00005482,-0.00012163,0.00001891,-0.00
 001066,-0.00011953,-0.00009645,-0.00001940,0.00021612,-0.00001248,0.00
 000165,-0.00018755,-0.00003917,0.00000175,0.00036479,-0.00015846,-0.00
 002210,-0.00010853,0.00032372,0.00003373,-0.00018410,-0.00098345,-0.00
 016992,0.00167461,-0.00039416,-0.00008089,0.00402865,-0.00390019,-0.00
 069518,-0.22535807,0.12144312,0.02117103,-0.02087215,0.02042062,0.0035
 1754,-0.00321350,-0.00459411,-0.00093955,-0.00018898,0.00218244,0.0005
 2775,-0.00004916,-0.00047988,-0.00019392,-0.00070116,-0.00042551,-0.00
 004291,-0.00003748,0.00000258,-0.00000237,-0.00003822,0.00002421,0.000
 01070,0.00000334,0.00002483,0.00000009,0.00000353,-0.00019934,-0.00002
 320,0.00090752,0.00088176,0.00014004,0.24271178,-0.00016044,0.00023906
 ,-0.00024705,-0.00010199,-0.00053743,0.00007283,0.00030772,0.00020198,
 0.00014027,0.00014187,0.00027477,-0.00000121,-0.00003184,0.00006516,0.
 00001093,0.00009206,-0.00002687,0.00003305,-0.00013817,0.00002910,-0.0
 0002285,0.00004588,-0.00022826,-0.00008441,0.00028139,-0.00022599,0.00
 010973,0.00022995,0.00013535,0.00003887,-0.00096633,0.00006076,0.00009
 928,-0.00281410,-0.00571829,-0.00175979,0.02767378,-0.01149490,-0.0019
 7114,0.12144571,-0.14444121,-0.02015301,-0.01068236,0.00990215,0.00137
 247,-0.00276509,-0.00006081,-0.00146405,0.00043440,0.00020974,-0.00000
 628,0.00002177,0.00005605,-0.00004137,-0.00042395,0.00017858,0.0002707
 4,0.00000105,0.00001318,-0.00001083,0.00002534,-0.00001630,-0.00001010
 ,-0.00001320,-0.00000975,0.00000017,0.00126965,-0.00062225,-0.00022786
 ,-0.00086391,0.00085128,0.00049725,-0.13356504,0.15045137,-0.00009259,
 0.00003178,0.00011752,0.00010382,-0.00005170,-0.00015909,-0.00003377,0
 .00002250,-0.00000104,-0.00009568,-0.00021148,0.00009709,0.00005665,-0
 .00000416,0.00016719,0.00003135,0.00004477,-0.00006490,-0.00005332,0.0
 0001292,0.00013005,0.00006720,-0.00001775,0.00017617,-0.00003334,0.000
 16015,-0.00089927,0.00004096,0.00004000,-0.00000524,-0.00007151,0.0000
 0295,-0.00039085,-0.00054556,-0.00180014,0.00464915,0.00477469,-0.0019
 8249,-0.00081525,0.02107741,-0.02009760,-0.03110502,-0.00172034,0.0012
 9845,0.00212412,-0.00034011,-0.00130207,0.00800005,-0.00028173,-0.0000
 1653,0.00031319,-0.00014671,-0.00007782,0.00034945,0.00022573,0.000197
 61,-0.00113665,0.00001444,-0.00001481,0.00001991,0.00000589,-0.0000001
 7,-0.00001265,-0.00000278,-0.00000145,-0.00000659,0.00023175,-0.000211
 48,0.00046562,-0.00017685,0.00049508,-0.00204558,-0.02319623,0.0223437
 2,0.02493110,0.00032693,-0.00037261,0.00003725,-0.00014029,0.00082419,
 -0.00013992,-0.00005565,-0.00008554,0.00006580,-0.00071949,-0.00070336
 ,0.00001548,0.00005467,0.00021760,-0.00014684,-0.00043145,-0.00019882,
 -0.00005456,0.00057491,-0.00019337,-0.00000262,-0.00028607,0.00048630,
 0.00012732,0.00087790,0.00178986,0.00031336,-0.00055666,-0.00029319,-0
 .00006408,-0.00426005,0.00117247,0.00034418,-0.00086707,0.00030062,0.0
 0007553,-0.00431283,-0.00111815,-0.00024396,-0.00022650,-0.02726373,-0
 .00482102,-0.05856922,-0.03360628,-0.00553532,0.00878073,0.02591357,0.
 00436013,-0.00200471,0.00461214,0.00114805,0.00121315,-0.00354947,-0.0
 0046520,0.00194735,-0.00146646,-0.00047284,0.00001009,0.00000354,-0.00
 001030,-0.00000334,-0.00001932,0.00002387,0.00002468,-0.00002978,0.000
 01348,0.00011139,0.00000895,-0.00000149,-0.00023032,-0.00130147,-0.000
 22457,0.00133908,0.00055586,0.00016065,0.05740278,-0.00019945,0.000226
 76,-0.00022821,-0.00011986,-0.00053879,0.00014786,0.00028858,0.0001806
 0,0.00009710,0.00018199,0.00027236,-0.00008828,0.00001088,-0.00009272,
 0.00005251,0.00019509,0.00010674,0.00002061,-0.00029560,0.00004235,-0.
 00001360,0.00034715,-0.00013877,-0.00005680,-0.00089877,-0.00073865,0.
 00009784,0.00034976,-0.00028846,-0.00010329,0.00294702,-0.00003888,-0.
 00091854,0.00094795,0.00063546,0.00027169,-0.00229735,0.00189619,-0.00
 121043,0.00151557,-0.00605915,-0.00162073,-0.03184374,-0.31661833,-0.0
 4939990,-0.00032455,-0.01690340,-0.00394260,-0.00172731,-0.00332510,-0
 .00051122,-0.00285330,0.00182170,0.00074642,-0.00010942,0.00005098,0.0
 0005272,0.00001492,0.00000644,0.00000762,0.00002492,-0.00001036,-0.000
 01028,-0.00001331,-0.00002285,-0.00000473,-0.00006252,-0.00014032,0.00
 015382,0.00014307,-0.00027968,-0.00020307,-0.00053819,0.00071355,0.001
 13972,0.03431646,0.33924235,-0.00010727,0.00014672,-0.00016093,0.00007
 351,-0.00017287,0.00006327,0.00000157,0.00004855,-0.00000454,-0.000100
 80,-0.00007883,0.00015207,0.00006195,-0.00008122,0.00004273,0.00004812
 ,0.00007555,0.00000785,-0.00006652,0.00001327,0.00000168,0.00014121,0.
 00008810,0.00008121,-0.00021939,-0.00007880,-0.00070202,0.00006877,-0.
 00007629,0.00019242,0.00054241,-0.00094981,0.00507741,0.00009353,0.000
 34195,-0.00090234,-0.00033193,-0.00112750,0.00797665,0.00027700,-0.001
 36310,0.00274633,-0.00565823,-0.04937116,-0.04673486,0.00073311,-0.003
 94811,0.00432454,-0.00078373,-0.00008176,-0.00265339,-0.00057346,0.000
 35156,-0.00100510,0.00036017,-0.00022130,-0.00015085,0.00001306,-0.000
 00867,-0.00001705,0.00000376,0.00000014,-0.00000237,-0.00000254,-0.000
 01085,-0.00000772,-0.00001992,0.00012478,-0.00090798,0.00002876,-0.000
 15478,0.00057426,-0.00008076,0.00101065,-0.00489846,0.00549763,0.05552
 377,0.03690718\\0.00002434,-0.00002782,0.00004505,-0.00002089,0.000005
 90,-0.00006160,-0.00001185,-0.00003421,0.00000609,-0.00005992,-0.00001
 336,0.00001433,-0.00000032,-0.00000322,0.00001411,-0.00002132,0.000040
 85,-0.00003678,0.00002277,-0.00002923,0.00001485,-0.00002445,-0.000001
 80,-0.00000484,-0.00003251,0.00009748,0.00002379,0.00001580,-0.0000694
 3,-0.00001439,0.00004422,-0.00007645,-0.00001323,-0.00002860,0.0000124
 8,0.00000037,0.00001597,-0.00001088,0.00000088,-0.00000617,0.00000257,
 -0.00000441,0.00000158,-0.00000368,-0.00000274,0.00003861,0.00005783,0
 .00002235,-0.00006382,0.00006552,0.00000551,0.00000212,-0.00005960,-0.
 00001223,0.00009784,0.00002409,-0.00000636,0.00001021,0.00000634,-0.00
 000698,0.00000680,0.00000259,0.00002068,-0.00000887,0.00000459,-0.0000
 0679,0.00000364,0.00000055,-0.00000180,-0.00000218,0.00000356,0.000001
 46,0.00000150,0.00000376,0.00000414,-0.00000451,0.00000155,-0.00000147
 \\\@


 THE ENLIGHTENED ONE, BECAUSE HE SAW MANKIND DROWNING  
 IN THE GREAT SEA OF BIRTH, DEATH, AND SORROW, LONGED TO SAVE 
 THEM, FOR THIS HE WAS MOVED TO PITY.                         
 BECAUSE HE SAW MEN OF THE WORLD STRAYING IN FALSE PATHS, AND 
 NONE TO GUIDE THEM, FOR THIS HE WAS MOVED TO PITY.           
                     ..................                       
 BECAUSE HE SAW THE MEN OF THE WORLD PLOUGHING THEIR FIELDS,  
 SOWING THE SEED, TRAFFICKING, HUCKSTERING, BUYING, SELLING,  
 AND AT THE END WINNOWING NOTHING BUT BITTERNESS,             
 FOR THIS HE WAS MOVED TO PITY......                   
                   BUDAH'S PITY - UPSAKA SILA SUTRA           
 Job cpu time:       0 days  6 hours 15 minutes 13.0 seconds.
 Elapsed time:       0 days  0 hours 53 minutes 47.2 seconds.
 File lengths (MBytes):  RWF=   1065 Int=      0 D2E=      0 Chk=     27 Scr=      1
 Normal termination of Gaussian 16 at Thu Dec 21 10:14:22 2023.
