 Entering Gaussian System, Link 0=g16
 Input=285-an.com
 Output=285-an.log
 Initial command:
 /sysapps/ubuntu-applications/gaussian/Gaussian/AVX2/g16/l1.exe "/scratch/selhajj1/4262685/Gau-140026.inp" -scrdir="/scratch/selhajj1/4262685/"
 Entering Link 1 = /sysapps/ubuntu-applications/gaussian/Gaussian/AVX2/g16/l1.exe PID=    140035.
  
 Copyright (c) 1988,1990,1992,1993,1995,1998,2003,2009,2016,
            Gaussian, Inc.  All Rights Reserved.
  
 This is part of the Gaussian(R) 16 program.  It is based on
 the Gaussian(R) 09 system (copyright 2009, Gaussian, Inc.),
 the Gaussian(R) 03 system (copyright 2003, Gaussian, Inc.),
 the Gaussian(R) 98 system (copyright 1998, Gaussian, Inc.),
 the Gaussian(R) 94 system (copyright 1995, Gaussian, Inc.),
 the Gaussian 92(TM) system (copyright 1992, Gaussian, Inc.),
 the Gaussian 90(TM) system (copyright 1990, Gaussian, Inc.),
 the Gaussian 88(TM) system (copyright 1988, Gaussian, Inc.),
 the Gaussian 86(TM) system (copyright 1986, Carnegie Mellon
 University), and the Gaussian 82(TM) system (copyright 1983,
 Carnegie Mellon University). Gaussian is a federally registered
 trademark of Gaussian, Inc.
  
 This software contains proprietary and confidential information,
 including trade secrets, belonging to Gaussian, Inc.
  
 This software is provided under written license and may be
 used, copied, transmitted, or stored only in accord with that
 written license.
  
 The following legend is applicable only to US Government
 contracts under FAR:
  
                    RESTRICTED RIGHTS LEGEND
  
 Use, reproduction and disclosure by the US Government is
 subject to restrictions as set forth in subparagraphs (a)
 and (c) of the Commercial Computer Software - Restricted
 Rights clause in FAR 52.227-19.
  
 Gaussian, Inc.
 340 Quinnipiac St., Bldg. 40, Wallingford CT 06492
  
  
 ---------------------------------------------------------------
 Warning -- This program may not be used in any manner that
 competes with the business of Gaussian, Inc. or will provide
 assistance to any competitor of Gaussian, Inc.  The licensee
 of this program is prohibited from giving any competitor of
 Gaussian, Inc. access to this program.  By using this program,
 the user acknowledges that Gaussian, Inc. is engaged in the
 business of creating and licensing software in the field of
 computational chemistry and represents and warrants to the
 licensee that it is not a competitor of Gaussian, Inc. and that
 it will not use this program in any manner prohibited above.
 ---------------------------------------------------------------
  

 Cite this work as:
 Gaussian 16, Revision A.03,
 M. J. Frisch, G. W. Trucks, H. B. Schlegel, G. E. Scuseria, 
 M. A. Robb, J. R. Cheeseman, G. Scalmani, V. Barone, 
 G. A. Petersson, H. Nakatsuji, X. Li, M. Caricato, A. V. Marenich, 
 J. Bloino, B. G. Janesko, R. Gomperts, B. Mennucci, H. P. Hratchian, 
 J. V. Ortiz, A. F. Izmaylov, J. L. Sonnenberg, D. Williams-Young, 
 F. Ding, F. Lipparini, F. Egidi, J. Goings, B. Peng, A. Petrone, 
 T. Henderson, D. Ranasinghe, V. G. Zakrzewski, J. Gao, N. Rega, 
 G. Zheng, W. Liang, M. Hada, M. Ehara, K. Toyota, R. Fukuda, 
 J. Hasegawa, M. Ishida, T. Nakajima, Y. Honda, O. Kitao, H. Nakai, 
 T. Vreven, K. Throssell, J. A. Montgomery, Jr., J. E. Peralta, 
 F. Ogliaro, M. J. Bearpark, J. J. Heyd, E. N. Brothers, K. N. Kudin, 
 V. N. Staroverov, T. A. Keith, R. Kobayashi, J. Normand, 
 K. Raghavachari, A. P. Rendell, J. C. Burant, S. S. Iyengar, 
 J. Tomasi, M. Cossi, J. M. Millam, M. Klene, C. Adamo, R. Cammi, 
 J. W. Ochterski, R. L. Martin, K. Morokuma, O. Farkas, 
 J. B. Foresman, and D. J. Fox, Gaussian, Inc., Wallingford CT, 2016.
 
 ******************************************
 Gaussian 16:  ES64L-G16RevA.03 25-Dec-2016
                 8-Jan-2024 
 ******************************************
 %chk=285-an.chk
 %nproc=8
 Will use up to    8 processors via shared memory.
 %mem=30GB
 --------------------------------------
 #P UB3LYP/6-311++G(d,p) nosym opt freq
 --------------------------------------
 1/18=20,19=15,26=3,38=1/1,3;
 2/9=110,12=2,15=1,17=6,18=5,40=1/2;
 3/5=4,6=6,7=1111,11=2,25=1,30=1,71=1,74=-5,116=2/1,2,3;
 4//1;
 5/5=2,38=5/2;
 6/7=2,8=2,9=2,10=2,28=1/1;
 7/30=1/1,2,3,16;
 1/18=20,19=15,26=3/3(2);
 2/9=110,15=1/2;
 99//99;
 2/9=110,15=1/2;
 3/5=4,6=6,7=1111,11=2,25=1,30=1,71=1,74=-5,116=2/1,2,3;
 4/5=5,16=3,69=1/1;
 5/5=2,38=5/2;
 7/30=1/1,2,3,16;
 1/18=20,19=15,26=3/3(-5);
 2/9=110,15=1/2;
 6/7=2,8=2,9=2,10=2,19=2,28=1/1;
 99/9=1/99;
 Leave Link    1 at Mon Jan  8 01:30:28 2024, MaxMem=  4026531840 cpu:               0.6 elap:               0.1
 (Enter /sysapps/ubuntu-applications/gaussian/Gaussian/AVX2/g16/l101.exe)
 -------
 Reduced
 -------
 Symbolic Z-matrix:
 Charge = -2 Multiplicity = 1
 C                    -0.06181   3.89102   0.17003 
 C                    -0.47049   3.52611   1.43776 
 C                    -0.02458   2.30434   2.00189 
 C                     0.80326   3.06867  -0.5969 
 C                     1.25934   1.8247   -0.02255 
 C                     0.8226    1.48482   1.2714 
 C                     1.21825   3.45713  -1.9114 
 C                     2.08977   2.54543  -2.58472 
 C                     2.54766   1.3358   -2.07054 
 C                     2.15483   0.91685  -0.74982 
 O                     0.87478   4.54484  -2.53455 
 O                     2.55314  -0.18271  -0.23918 
 H                    -0.39092   4.82173  -0.28137 
 H                    -1.1344    4.17623   2.00444 
 H                    -0.34419   2.01408   3.00012 
 H                     1.18292   0.54382   1.67535 
 O                     2.44698   2.97787  -3.84182 
 C                     3.45198   0.43763  -2.87683 
 C                     4.95534   0.65955  -2.61085 
 C                     5.8595   -0.28351  -3.41649 
 C                     7.36063  -0.0727   -3.17868 
 C                     8.26282  -1.00887  -3.99559 
 H                     1.95016   3.83236  -3.87305 
 H                     3.259     0.5839   -3.94621 
 H                     3.21184  -0.60038  -2.61935 
 H                     5.13813   0.52029  -1.53973 
 H                     5.20922   1.70007  -2.84795 
 H                     5.64637  -0.16005  -4.48799 
 H                     5.59966  -1.32298  -3.17334 
 H                     7.57696  -0.20503  -2.11014 
 H                     7.61902   0.96918  -3.41211 
 H                     8.04769  -0.87637  -5.06451 
 H                     8.00586  -2.05133  -3.7643 
 C                     9.76402  -0.79917  -3.75786 
 C                     10.65887  -1.7345   -4.57798 
 H                     9.98063  -0.93381  -2.69026 
 H                     10.02204   0.24283  -3.98727 
 H                     10.45835  -2.7869   -4.34588 
 H                     11.72327  -1.55932  -4.38638 
 H                     10.49913  -1.60039  -5.65419 
 
 ITRead=  0  0  0  0  0  0  0  0  0  0  0  0  0  0  0  0  0  0  0  0
 ITRead=  0  0  0  0  0  0  0  0  0  0  0  0  0  0  0  0  0  0  0  0
 MicOpt= -1 -1 -1 -1 -1 -1 -1 -1 -1 -1 -1 -1 -1 -1 -1 -1 -1 -1 -1 -1
 MicOpt= -1 -1 -1 -1 -1 -1 -1 -1 -1 -1 -1 -1 -1 -1 -1 -1 -1 -1 -1 -1
 NAtoms=     40 NQM=       40 NQMF=       0 NMMI=      0 NMMIF=      0
                NMic=       0 NMicF=      0.
                    Isotopes and Nuclear Properties:
 (Nuclear quadrupole moments (NQMom) in fm**2, nuclear magnetic moments (NMagM)
  in nuclear magnetons)

  Atom         1           2           3           4           5           6           7           8           9          10
 IAtWgt=          12          12          12          12          12          12          12          12          12          12
 AtmWgt=  12.0000000  12.0000000  12.0000000  12.0000000  12.0000000  12.0000000  12.0000000  12.0000000  12.0000000  12.0000000
 NucSpn=           0           0           0           0           0           0           0           0           0           0
 AtZEff=  -0.0000000  -0.0000000  -0.0000000  -0.0000000  -0.0000000  -0.0000000  -0.0000000  -0.0000000  -0.0000000  -0.0000000
 NQMom=    0.0000000   0.0000000   0.0000000   0.0000000   0.0000000   0.0000000   0.0000000   0.0000000   0.0000000   0.0000000
 NMagM=    0.0000000   0.0000000   0.0000000   0.0000000   0.0000000   0.0000000   0.0000000   0.0000000   0.0000000   0.0000000
 AtZNuc=   6.0000000   6.0000000   6.0000000   6.0000000   6.0000000   6.0000000   6.0000000   6.0000000   6.0000000   6.0000000

  Atom        11          12          13          14          15          16          17          18          19          20
 IAtWgt=          16          16           1           1           1           1          16          12          12          12
 AtmWgt=  15.9949146  15.9949146   1.0078250   1.0078250   1.0078250   1.0078250  15.9949146  12.0000000  12.0000000  12.0000000
 NucSpn=           0           0           1           1           1           1           0           0           0           0
 AtZEff=  -0.0000000  -0.0000000  -0.0000000  -0.0000000  -0.0000000  -0.0000000  -0.0000000  -0.0000000  -0.0000000  -0.0000000
 NQMom=    0.0000000   0.0000000   0.0000000   0.0000000   0.0000000   0.0000000   0.0000000   0.0000000   0.0000000   0.0000000
 NMagM=    0.0000000   0.0000000   2.7928460   2.7928460   2.7928460   2.7928460   0.0000000   0.0000000   0.0000000   0.0000000
 AtZNuc=   8.0000000   8.0000000   1.0000000   1.0000000   1.0000000   1.0000000   8.0000000   6.0000000   6.0000000   6.0000000

  Atom        21          22          23          24          25          26          27          28          29          30
 IAtWgt=          12          12           1           1           1           1           1           1           1           1
 AtmWgt=  12.0000000  12.0000000   1.0078250   1.0078250   1.0078250   1.0078250   1.0078250   1.0078250   1.0078250   1.0078250
 NucSpn=           0           0           1           1           1           1           1           1           1           1
 AtZEff=  -0.0000000  -0.0000000  -0.0000000  -0.0000000  -0.0000000  -0.0000000  -0.0000000  -0.0000000  -0.0000000  -0.0000000
 NQMom=    0.0000000   0.0000000   0.0000000   0.0000000   0.0000000   0.0000000   0.0000000   0.0000000   0.0000000   0.0000000
 NMagM=    0.0000000   0.0000000   2.7928460   2.7928460   2.7928460   2.7928460   2.7928460   2.7928460   2.7928460   2.7928460
 AtZNuc=   6.0000000   6.0000000   1.0000000   1.0000000   1.0000000   1.0000000   1.0000000   1.0000000   1.0000000   1.0000000

  Atom        31          32          33          34          35          36          37          38          39          40
 IAtWgt=           1           1           1          12          12           1           1           1           1           1
 AtmWgt=   1.0078250   1.0078250   1.0078250  12.0000000  12.0000000   1.0078250   1.0078250   1.0078250   1.0078250   1.0078250
 NucSpn=           1           1           1           0           0           1           1           1           1           1
 AtZEff=  -0.0000000  -0.0000000  -0.0000000  -0.0000000  -0.0000000  -0.0000000  -0.0000000  -0.0000000  -0.0000000  -0.0000000
 NQMom=    0.0000000   0.0000000   0.0000000   0.0000000   0.0000000   0.0000000   0.0000000   0.0000000   0.0000000   0.0000000
 NMagM=    2.7928460   2.7928460   2.7928460   0.0000000   0.0000000   2.7928460   2.7928460   2.7928460   2.7928460   2.7928460
 AtZNuc=   1.0000000   1.0000000   1.0000000   6.0000000   6.0000000   1.0000000   1.0000000   1.0000000   1.0000000   1.0000000
 Leave Link  101 at Mon Jan  8 01:30:29 2024, MaxMem=  4026531840 cpu:               4.3 elap:               0.6
 (Enter /sysapps/ubuntu-applications/gaussian/Gaussian/AVX2/g16/l103.exe)

 GradGradGradGradGradGradGradGradGradGradGradGradGradGradGradGradGradGrad
 Berny optimization.
 Initialization pass.
                           ----------------------------
                           !    Initial Parameters    !
                           ! (Angstroms and Degrees)  !
 --------------------------                            --------------------------
 ! Name  Definition              Value          Derivative Info.                !
 --------------------------------------------------------------------------------
 ! R1    R(1,2)                  1.3811         estimate D2E/DX2                !
 ! R2    R(1,4)                  1.4187         estimate D2E/DX2                !
 ! R3    R(1,13)                 1.0855         estimate D2E/DX2                !
 ! R4    R(2,3)                  1.4177         estimate D2E/DX2                !
 ! R5    R(2,14)                 1.0884         estimate D2E/DX2                !
 ! R6    R(3,6)                  1.3867         estimate D2E/DX2                !
 ! R7    R(3,15)                 1.0876         estimate D2E/DX2                !
 ! R8    R(4,5)                  1.4441         estimate D2E/DX2                !
 ! R9    R(4,7)                  1.4321         estimate D2E/DX2                !
 ! R10   R(5,6)                  1.4073         estimate D2E/DX2                !
 ! R11   R(5,10)                 1.468          estimate D2E/DX2                !
 ! R12   R(6,16)                 1.0856         estimate D2E/DX2                !
 ! R13   R(7,8)                  1.4297         estimate D2E/DX2                !
 ! R14   R(7,11)                 1.2998         estimate D2E/DX2                !
 ! R15   R(8,9)                  1.3919         estimate D2E/DX2                !
 ! R16   R(8,17)                 1.3766         estimate D2E/DX2                !
 ! R17   R(9,10)                 1.4402         estimate D2E/DX2                !
 ! R18   R(9,18)                 1.5082         estimate D2E/DX2                !
 ! R19   R(10,12)                1.2761         estimate D2E/DX2                !
 ! R20   R(17,23)                0.9889         estimate D2E/DX2                !
 ! R21   R(18,19)                1.5428         estimate D2E/DX2                !
 ! R22   R(18,24)                1.0965         estimate D2E/DX2                !
 ! R23   R(18,25)                1.0961         estimate D2E/DX2                !
 ! R24   R(19,20)                1.5349         estimate D2E/DX2                !
 ! R25   R(19,26)                1.0955         estimate D2E/DX2                !
 ! R26   R(19,27)                1.097          estimate D2E/DX2                !
 ! R27   R(20,21)                1.5344         estimate D2E/DX2                !
 ! R28   R(20,28)                1.0994         estimate D2E/DX2                !
 ! R29   R(20,29)                1.0987         estimate D2E/DX2                !
 ! R30   R(21,22)                1.5355         estimate D2E/DX2                !
 ! R31   R(21,30)                1.0982         estimate D2E/DX2                !
 ! R32   R(21,31)                1.0985         estimate D2E/DX2                !
 ! R33   R(22,32)                1.0984         estimate D2E/DX2                !
 ! R34   R(22,33)                1.0983         estimate D2E/DX2                !
 ! R35   R(22,34)                1.5343         estimate D2E/DX2                !
 ! R36   R(34,35)                1.5324         estimate D2E/DX2                !
 ! R37   R(34,36)                1.0976         estimate D2E/DX2                !
 ! R38   R(34,37)                1.0977         estimate D2E/DX2                !
 ! R39   R(35,38)                1.0962         estimate D2E/DX2                !
 ! R40   R(35,39)                1.0956         estimate D2E/DX2                !
 ! R41   R(35,40)                1.0962         estimate D2E/DX2                !
 ! A1    A(2,1,4)              121.5673         estimate D2E/DX2                !
 ! A2    A(2,1,13)             121.2356         estimate D2E/DX2                !
 ! A3    A(4,1,13)             117.1971         estimate D2E/DX2                !
 ! A4    A(1,2,3)              119.9942         estimate D2E/DX2                !
 ! A5    A(1,2,14)             120.0407         estimate D2E/DX2                !
 ! A6    A(3,2,14)             119.9651         estimate D2E/DX2                !
 ! A7    A(2,3,6)              119.4625         estimate D2E/DX2                !
 ! A8    A(2,3,15)             120.1854         estimate D2E/DX2                !
 ! A9    A(6,3,15)             120.3521         estimate D2E/DX2                !
 ! A10   A(1,4,5)              118.4827         estimate D2E/DX2                !
 ! A11   A(1,4,7)              121.0399         estimate D2E/DX2                !
 ! A12   A(5,4,7)              120.4774         estimate D2E/DX2                !
 ! A13   A(4,5,6)              118.4058         estimate D2E/DX2                !
 ! A14   A(4,5,10)             121.8942         estimate D2E/DX2                !
 ! A15   A(6,5,10)             119.6998         estimate D2E/DX2                !
 ! A16   A(3,6,5)              122.0874         estimate D2E/DX2                !
 ! A17   A(3,6,16)             121.2673         estimate D2E/DX2                !
 ! A18   A(5,6,16)             116.6453         estimate D2E/DX2                !
 ! A19   A(4,7,8)              115.8443         estimate D2E/DX2                !
 ! A20   A(4,7,11)             126.1902         estimate D2E/DX2                !
 ! A21   A(8,7,11)             117.9652         estimate D2E/DX2                !
 ! A22   A(7,8,9)              125.5035         estimate D2E/DX2                !
 ! A23   A(7,8,17)             112.826          estimate D2E/DX2                !
 ! A24   A(9,8,17)             121.6692         estimate D2E/DX2                !
 ! A25   A(8,9,10)             120.1231         estimate D2E/DX2                !
 ! A26   A(8,9,18)             121.1535         estimate D2E/DX2                !
 ! A27   A(10,9,18)            118.7227         estimate D2E/DX2                !
 ! A28   A(5,10,9)             116.1553         estimate D2E/DX2                !
 ! A29   A(5,10,12)            121.6705         estimate D2E/DX2                !
 ! A30   A(9,10,12)            122.173          estimate D2E/DX2                !
 ! A31   A(8,17,23)             99.7828         estimate D2E/DX2                !
 ! A32   A(9,18,19)            113.9829         estimate D2E/DX2                !
 ! A33   A(9,18,24)            109.6595         estimate D2E/DX2                !
 ! A34   A(9,18,25)            107.8799         estimate D2E/DX2                !
 ! A35   A(19,18,24)           108.691          estimate D2E/DX2                !
 ! A36   A(19,18,25)           108.0124         estimate D2E/DX2                !
 ! A37   A(24,18,25)           108.4744         estimate D2E/DX2                !
 ! A38   A(18,19,20)           113.2754         estimate D2E/DX2                !
 ! A39   A(18,19,26)           108.2327         estimate D2E/DX2                !
 ! A40   A(18,19,27)           108.9475         estimate D2E/DX2                !
 ! A41   A(20,19,26)           109.6828         estimate D2E/DX2                !
 ! A42   A(20,19,27)           109.4519         estimate D2E/DX2                !
 ! A43   A(26,19,27)           107.0554         estimate D2E/DX2                !
 ! A44   A(19,20,21)           114.2381         estimate D2E/DX2                !
 ! A45   A(19,20,28)           109.1692         estimate D2E/DX2                !
 ! A46   A(19,20,29)           109.0151         estimate D2E/DX2                !
 ! A47   A(21,20,28)           108.9817         estimate D2E/DX2                !
 ! A48   A(21,20,29)           109.0899         estimate D2E/DX2                !
 ! A49   A(28,20,29)           106.026          estimate D2E/DX2                !
 ! A50   A(20,21,22)           114.1167         estimate D2E/DX2                !
 ! A51   A(20,21,30)           109.0842         estimate D2E/DX2                !
 ! A52   A(20,21,31)           109.1161         estimate D2E/DX2                !
 ! A53   A(22,21,30)           109.174          estimate D2E/DX2                !
 ! A54   A(22,21,31)           109.0865         estimate D2E/DX2                !
 ! A55   A(30,21,31)           105.9445         estimate D2E/DX2                !
 ! A56   A(21,22,32)           109.2158         estimate D2E/DX2                !
 ! A57   A(21,22,33)           109.2202         estimate D2E/DX2                !
 ! A58   A(21,22,34)           114.1494         estimate D2E/DX2                !
 ! A59   A(32,22,33)           105.8794         estimate D2E/DX2                !
 ! A60   A(32,22,34)           109.0222         estimate D2E/DX2                !
 ! A61   A(33,22,34)           109.0269         estimate D2E/DX2                !
 ! A62   A(22,34,35)           113.8921         estimate D2E/DX2                !
 ! A63   A(22,34,36)           109.0883         estimate D2E/DX2                !
 ! A64   A(22,34,37)           109.1077         estimate D2E/DX2                !
 ! A65   A(35,34,36)           109.2953         estimate D2E/DX2                !
 ! A66   A(35,34,37)           109.2856         estimate D2E/DX2                !
 ! A67   A(36,34,37)           105.8617         estimate D2E/DX2                !
 ! A68   A(34,35,38)           111.46           estimate D2E/DX2                !
 ! A69   A(34,35,39)           112.0949         estimate D2E/DX2                !
 ! A70   A(34,35,40)           111.4476         estimate D2E/DX2                !
 ! A71   A(38,35,39)           107.1091         estimate D2E/DX2                !
 ! A72   A(38,35,40)           107.3774         estimate D2E/DX2                !
 ! A73   A(39,35,40)           107.0793         estimate D2E/DX2                !
 ! D1    D(4,1,2,3)              0.0107         estimate D2E/DX2                !
 ! D2    D(4,1,2,14)           179.9786         estimate D2E/DX2                !
 ! D3    D(13,1,2,3)           179.9949         estimate D2E/DX2                !
 ! D4    D(13,1,2,14)           -0.0372         estimate D2E/DX2                !
 ! D5    D(2,1,4,5)             -0.0841         estimate D2E/DX2                !
 ! D6    D(2,1,4,7)            179.8973         estimate D2E/DX2                !
 ! D7    D(13,1,4,5)           179.9311         estimate D2E/DX2                !
 ! D8    D(13,1,4,7)            -0.0874         estimate D2E/DX2                !
 ! D9    D(1,2,3,6)              0.0555         estimate D2E/DX2                !
 ! D10   D(1,2,3,15)           179.978          estimate D2E/DX2                !
 ! D11   D(14,2,3,6)          -179.9124         estimate D2E/DX2                !
 ! D12   D(14,2,3,15)            0.01           estimate D2E/DX2                !
 ! D13   D(2,3,6,5)             -0.0464         estimate D2E/DX2                !
 ! D14   D(2,3,6,16)           179.9123         estimate D2E/DX2                !
 ! D15   D(15,3,6,5)          -179.9687         estimate D2E/DX2                !
 ! D16   D(15,3,6,16)           -0.0099         estimate D2E/DX2                !
 ! D17   D(1,4,5,6)              0.0912         estimate D2E/DX2                !
 ! D18   D(1,4,5,10)           179.9701         estimate D2E/DX2                !
 ! D19   D(7,4,5,6)           -179.8903         estimate D2E/DX2                !
 ! D20   D(7,4,5,10)            -0.0115         estimate D2E/DX2                !
 ! D21   D(1,4,7,8)           -179.9778         estimate D2E/DX2                !
 ! D22   D(1,4,7,11)            -0.1579         estimate D2E/DX2                !
 ! D23   D(5,4,7,8)              0.0033         estimate D2E/DX2                !
 ! D24   D(5,4,7,11)           179.8231         estimate D2E/DX2                !
 ! D25   D(4,5,6,3)             -0.0275         estimate D2E/DX2                !
 ! D26   D(4,5,6,16)          -179.9881         estimate D2E/DX2                !
 ! D27   D(10,5,6,3)          -179.9091         estimate D2E/DX2                !
 ! D28   D(10,5,6,16)            0.1303         estimate D2E/DX2                !
 ! D29   D(4,5,10,9)            -0.2398         estimate D2E/DX2                !
 ! D30   D(4,5,10,12)         -179.8589         estimate D2E/DX2                !
 ! D31   D(6,5,10,9)           179.6375         estimate D2E/DX2                !
 ! D32   D(6,5,10,12)            0.0184         estimate D2E/DX2                !
 ! D33   D(4,7,8,9)              0.2913         estimate D2E/DX2                !
 ! D34   D(4,7,8,17)           179.8741         estimate D2E/DX2                !
 ! D35   D(11,7,8,9)          -179.5441         estimate D2E/DX2                !
 ! D36   D(11,7,8,17)            0.0387         estimate D2E/DX2                !
 ! D37   D(7,8,9,10)            -0.5669         estimate D2E/DX2                !
 ! D38   D(7,8,9,18)           179.1139         estimate D2E/DX2                !
 ! D39   D(17,8,9,10)          179.8849         estimate D2E/DX2                !
 ! D40   D(17,8,9,18)           -0.4344         estimate D2E/DX2                !
 ! D41   D(7,8,17,23)           -0.1735         estimate D2E/DX2                !
 ! D42   D(9,8,17,23)          179.4275         estimate D2E/DX2                !
 ! D43   D(8,9,10,5)             0.5076         estimate D2E/DX2                !
 ! D44   D(8,9,10,12)         -179.8754         estimate D2E/DX2                !
 ! D45   D(18,9,10,5)         -179.1809         estimate D2E/DX2                !
 ! D46   D(18,9,10,12)           0.4362         estimate D2E/DX2                !
 ! D47   D(8,9,18,19)           93.5913         estimate D2E/DX2                !
 ! D48   D(8,9,18,24)          -28.5079         estimate D2E/DX2                !
 ! D49   D(8,9,18,25)         -146.4659         estimate D2E/DX2                !
 ! D50   D(10,9,18,19)         -86.7235         estimate D2E/DX2                !
 ! D51   D(10,9,18,24)         151.1772         estimate D2E/DX2                !
 ! D52   D(10,9,18,25)          33.2192         estimate D2E/DX2                !
 ! D53   D(9,18,19,20)         178.7344         estimate D2E/DX2                !
 ! D54   D(9,18,19,26)          56.8819         estimate D2E/DX2                !
 ! D55   D(9,18,19,27)         -59.1951         estimate D2E/DX2                !
 ! D56   D(24,18,19,20)        -58.6349         estimate D2E/DX2                !
 ! D57   D(24,18,19,26)        179.5126         estimate D2E/DX2                !
 ! D58   D(24,18,19,27)         63.4356         estimate D2E/DX2                !
 ! D59   D(25,18,19,20)         58.8663         estimate D2E/DX2                !
 ! D60   D(25,18,19,26)        -62.9863         estimate D2E/DX2                !
 ! D61   D(25,18,19,27)       -179.0633         estimate D2E/DX2                !
 ! D62   D(18,19,20,21)        179.4486         estimate D2E/DX2                !
 ! D63   D(18,19,20,28)         57.1615         estimate D2E/DX2                !
 ! D64   D(18,19,20,29)        -58.2396         estimate D2E/DX2                !
 ! D65   D(26,19,20,21)        -59.5135         estimate D2E/DX2                !
 ! D66   D(26,19,20,28)        178.1994         estimate D2E/DX2                !
 ! D67   D(26,19,20,29)         62.7983         estimate D2E/DX2                !
 ! D68   D(27,19,20,21)         57.6601         estimate D2E/DX2                !
 ! D69   D(27,19,20,28)        -64.627          estimate D2E/DX2                !
 ! D70   D(27,19,20,29)        179.9718         estimate D2E/DX2                !
 ! D71   D(19,20,21,22)       -179.4709         estimate D2E/DX2                !
 ! D72   D(19,20,21,30)         58.1406         estimate D2E/DX2                !
 ! D73   D(19,20,21,31)        -57.1721         estimate D2E/DX2                !
 ! D74   D(28,20,21,22)        -57.0814         estimate D2E/DX2                !
 ! D75   D(28,20,21,30)       -179.4699         estimate D2E/DX2                !
 ! D76   D(28,20,21,31)         65.2174         estimate D2E/DX2                !
 ! D77   D(29,20,21,22)         58.2582         estimate D2E/DX2                !
 ! D78   D(29,20,21,30)        -64.1303         estimate D2E/DX2                !
 ! D79   D(29,20,21,31)       -179.443          estimate D2E/DX2                !
 ! D80   D(20,21,22,32)         57.7148         estimate D2E/DX2                !
 ! D81   D(20,21,22,33)        -57.6498         estimate D2E/DX2                !
 ! D82   D(20,21,22,34)       -179.9723         estimate D2E/DX2                !
 ! D83   D(30,21,22,32)       -179.9459         estimate D2E/DX2                !
 ! D84   D(30,21,22,33)         64.6895         estimate D2E/DX2                !
 ! D85   D(30,21,22,34)        -57.6329         estimate D2E/DX2                !
 ! D86   D(31,21,22,32)        -64.6002         estimate D2E/DX2                !
 ! D87   D(31,21,22,33)       -179.9648         estimate D2E/DX2                !
 ! D88   D(31,21,22,34)         57.7127         estimate D2E/DX2                !
 ! D89   D(21,22,34,35)       -179.8865         estimate D2E/DX2                !
 ! D90   D(21,22,34,36)         57.7204         estimate D2E/DX2                !
 ! D91   D(21,22,34,37)        -57.4914         estimate D2E/DX2                !
 ! D92   D(32,22,34,35)        -57.4676         estimate D2E/DX2                !
 ! D93   D(32,22,34,36)       -179.8607         estimate D2E/DX2                !
 ! D94   D(32,22,34,37)         64.9275         estimate D2E/DX2                !
 ! D95   D(33,22,34,35)         57.6853         estimate D2E/DX2                !
 ! D96   D(33,22,34,36)        -64.7077         estimate D2E/DX2                !
 ! D97   D(33,22,34,37)       -179.9196         estimate D2E/DX2                !
 ! D98   D(22,34,35,38)        -59.9921         estimate D2E/DX2                !
 ! D99   D(22,34,35,39)        179.9587         estimate D2E/DX2                !
 ! D100  D(22,34,35,40)         59.9563         estimate D2E/DX2                !
 ! D101  D(36,34,35,38)         62.2872         estimate D2E/DX2                !
 ! D102  D(36,34,35,39)        -57.762          estimate D2E/DX2                !
 ! D103  D(36,34,35,40)       -177.7644         estimate D2E/DX2                !
 ! D104  D(37,34,35,38)        177.7106         estimate D2E/DX2                !
 ! D105  D(37,34,35,39)         57.6615         estimate D2E/DX2                !
 ! D106  D(37,34,35,40)        -62.3409         estimate D2E/DX2                !
 --------------------------------------------------------------------------------
 Trust Radius=3.00D-01 FncErr=1.00D-07 GrdErr=1.00D-06 EigMax=2.50D+02 EigMin=1.00D-04
 Number of steps in this run=    230 maximum allowed number of steps=    240.
 GradGradGradGradGradGradGradGradGradGradGradGradGradGradGradGradGradGrad

 Leave Link  103 at Mon Jan  8 01:30:29 2024, MaxMem=  4026531840 cpu:               0.4 elap:               0.1
 (Enter /sysapps/ubuntu-applications/gaussian/Gaussian/AVX2/g16/l202.exe)
                          Input orientation:                          
 ---------------------------------------------------------------------
 Center     Atomic      Atomic             Coordinates (Angstroms)
 Number     Number       Type             X           Y           Z
 ---------------------------------------------------------------------
      1          6           0       -0.061810    3.891015    0.170034
      2          6           0       -0.470486    3.526105    1.437764
      3          6           0       -0.024582    2.304337    2.001894
      4          6           0        0.803256    3.068666   -0.596900
      5          6           0        1.259338    1.824695   -0.022553
      6          6           0        0.822604    1.484821    1.271402
      7          6           0        1.218254    3.457134   -1.911400
      8          6           0        2.089768    2.545433   -2.584721
      9          6           0        2.547661    1.335801   -2.070540
     10          6           0        2.154831    0.916850   -0.749816
     11          8           0        0.874775    4.544837   -2.534554
     12          8           0        2.553139   -0.182714   -0.239181
     13          1           0       -0.390915    4.821726   -0.281368
     14          1           0       -1.134397    4.176227    2.004436
     15          1           0       -0.344190    2.014083    3.000116
     16          1           0        1.182924    0.543824    1.675352
     17          8           0        2.446975    2.977873   -3.841822
     18          6           0        3.451980    0.437626   -2.876825
     19          6           0        4.955343    0.659548   -2.610848
     20          6           0        5.859497   -0.283506   -3.416489
     21          6           0        7.360629   -0.072696   -3.178675
     22          6           0        8.262817   -1.008874   -3.995587
     23          1           0        1.950161    3.832359   -3.873048
     24          1           0        3.259003    0.583898   -3.946210
     25          1           0        3.211837   -0.600375   -2.619347
     26          1           0        5.138132    0.520287   -1.539727
     27          1           0        5.209215    1.700071   -2.847948
     28          1           0        5.646372   -0.160047   -4.487986
     29          1           0        5.599657   -1.322983   -3.173341
     30          1           0        7.576960   -0.205025   -2.110141
     31          1           0        7.619018    0.969177   -3.412113
     32          1           0        8.047688   -0.876374   -5.064513
     33          1           0        8.005860   -2.051333   -3.764304
     34          6           0        9.764015   -0.799172   -3.757858
     35          6           0       10.658871   -1.734501   -4.577981
     36          1           0        9.980629   -0.933805   -2.690260
     37          1           0       10.022043    0.242828   -3.987272
     38          1           0       10.458350   -2.786903   -4.345879
     39          1           0       11.723269   -1.559323   -4.386380
     40          1           0       10.499129   -1.600389   -5.654190
 ---------------------------------------------------------------------
                    Distance matrix (angstroms):
                    1          2          3          4          5
     1  C    0.000000
     2  C    1.381056   0.000000
     3  C    2.423767   1.417671   0.000000
     4  C    1.418726   2.443671   2.832533   0.000000
     5  C    2.460122   2.831892   2.444768   1.444074   0.000000
     6  C    2.790156   2.422106   1.386704   2.449386   1.407327
     7  C    2.481770   3.751466   4.264675   1.432146   2.496856
     8  C    3.745471   4.867957   5.056248   2.424937   2.788150
     9  C    4.284697   5.120043   4.913167   2.866598   2.468409
    10  C    3.821685   4.299536   3.774503   2.545673   1.467992
    11  O    2.935894   4.315884   5.138876   2.436945   3.722527
    12  O    4.858053   5.070482   4.225220   3.709653   2.398028
    13  H    1.085494   2.154154   3.418294   2.144487   3.431110
    14  H    2.144019   1.088372   2.176159   3.427556   3.920249
    15  H    3.407635   2.177867   1.087586   3.920115   3.426908
    16  H    3.875440   3.418218   2.159654   3.417909   2.128227
    17  O    4.819006   6.056911   6.380538   3.638623   4.162585
    18  C    5.792751   6.598494   6.274790   4.374491   3.857267
    19  C    6.583882   7.351736   6.984438   5.205734   4.660181
    20  C    8.084037   8.840000   8.407032   6.689747   6.093010
    21  C    9.056349   9.776975   9.328983   7.715754   7.126496
    22  C   10.519540  11.240904  10.753052   9.155460   8.535973
    23  H    4.516412   5.844489   6.383526   3.554119   4.397074
    24  H    6.237651   7.180031   7.008693   4.839694   4.575295
    25  H    6.218520   6.859117   6.345678   4.832537   4.054202
    26  H    6.428412   7.025453   6.509956   5.116083   4.364440
    27  H    6.456946   7.345797   7.160917   5.133492   4.857975
    28  H    8.407829   9.279988   8.963897   7.001493   6.566990
    29  H    8.391433   9.034522   8.460057   6.995005   6.218819
    30  H    8.962564   9.553552   8.999398   7.673983   6.956302
    31  H    8.964599   9.772372   9.461435   7.667326   7.257173
    32  H   10.765335  11.585366  11.189842   9.381082   8.876871
    33  H   10.764656  11.402533  10.803189   9.387457   8.633647
    34  C   11.574672  12.265705  11.773833  10.258997   9.652291
    35  C   13.004733  13.701305  13.181166  11.664157  11.034991
    36  H   11.502641  12.089549  11.515473  10.228690   9.528216
    37  H   11.501154  12.259857  11.876641  10.220862   9.747117
    38  H   13.253748  13.883229  13.270524  11.898041  11.161532
    39  H   13.760639  14.438486  13.919408  12.450909  11.831670
    40  H   13.251813  14.032434  13.587163  11.890593  11.349902
                    6          7          8          9         10
     6  C    0.000000
     7  C    3.765207   0.000000
     8  C    4.195270   1.429719   0.000000
     9  C    3.763855   2.508526   1.391854   0.000000
    10  C    2.486512   2.946099   2.454260   1.440190   0.000000
    11  O    4.883822   1.299768   2.340158   3.648530   4.241005
    12  O    2.838536   4.222171   3.627541   2.379032   1.276103
    13  H    3.875391   2.666185   4.079305   4.897759   4.684904
    14  H    3.407471   4.624482   5.840813   6.183122   5.387807
    15  H    2.151739   5.352253   6.115300   5.876599   4.637997
    16  H    1.085579   4.620975   4.793436   4.064658   2.639165
    17  O    5.568918   2.337943   1.376555   2.417432   3.727421
    18  C    5.021755   3.878016   2.526618   1.508180   2.537010
    19  C    5.729963   4.720334   3.430563   2.558551   3.372316
    20  C    7.104477   6.148074   4.785979   3.924537   4.719804
    21  C    8.060696   7.196837   5.915180   5.135805   5.829141
    22  C    9.450738   8.597379   7.261555   6.470418   7.179898
    23  H    5.766081   2.127098   1.826323   3.136693   4.277460
    24  H    5.828480   4.069471   2.658643   2.142313   3.398086
    25  H    5.019403   4.575909   3.340112   2.119221   2.629521
    26  H    5.239900   4.912093   3.806015   2.767195   3.111480
    27  H    6.021439   4.460063   3.242665   2.796592   3.787460
    28  H    7.690571   6.271445   4.857105   4.205189   5.227282
    29  H    7.103502   6.605960   5.256466   4.195233   4.770446
    30  H    7.740267   7.340575   6.156259   5.260186   5.701629
    31  H    8.269972   7.029356   5.808766   5.258602   6.078479
    32  H    9.895499   8.681162   7.304447   6.641377   7.520507
    33  H    9.458429   8.935774   7.584314   6.643301   7.220235
    34  C   10.509943   9.723969   8.453206   7.712387   8.360187
    35  C   11.888291  11.099053   9.783683   9.028053   9.695525
    36  H   10.267129   9.831896   8.624496   7.796421   8.272446
    37  H   10.668921   9.599360   8.377955   7.793256   8.533959
    38  H   11.943579  11.414642  10.078127   9.206131   9.777417
    39  H   12.653134  11.901500  10.625410   9.896294  10.531431
    40  H   12.292985  11.212567   9.865436   9.202695  10.000834
                   11         12         13         14         15
    11  O    0.000000
    12  O    5.516827   0.000000
    13  H    2.599132   5.806346   0.000000
    14  H    4.977457   6.134501   2.488842   0.000000
    15  H    6.206703   4.869649   4.318933   2.508121   0.000000
    16  H    5.816044   2.463896   4.960460   4.321183   2.499748
    17  O    2.576070   4.793705   4.912255   6.959958   7.451953
    18  C    4.860897   2.854803   6.381581   7.670639   7.171789
    19  C    5.634920   3.479194   7.164683   8.411469   7.835990
    20  C    6.995581   4.586660   8.657946   9.909097   9.216153
    21  C    7.987666   5.636017   9.614374  10.820511  10.094372
    22  C    9.357430   6.884297  11.076028  12.296064  11.496030
    23  H    1.858937   5.448796   4.399960   6.646620   7.470646
    24  H    4.833876   3.850714   6.686715   8.222954   7.954865
    25  H    5.651748   2.504698   6.917019   7.942610   7.145564
    26  H    5.946671   2.977888   7.117317   8.079085   7.273064
    27  H    5.194062   4.171964   6.906049   8.361722   8.070859
    28  H    6.979969   5.255564   8.886086  10.340872   9.832871
    29  H    7.560679   4.380728   9.055822  10.119198   9.196570
    30  H    8.225606   5.360948   9.596857  10.583613   9.684203
    31  H    7.683767   6.087486   9.423520  10.781765  10.277217
    32  H    9.340284   7.345411  11.249748  12.641578  11.992356
    33  H    9.791533   6.756508  11.396298  12.474180  11.489487
    34  C   10.443826   8.047226  12.116232  13.294134  12.480402
    35  C   11.803991   9.323954  13.547796  14.742662  13.876123
    36  H   10.628092   7.857451  12.103628  13.103297  12.152050
    37  H   10.212257   8.367425  11.963684  13.260405  12.626152
    38  H   12.201648   9.281117  13.860665  14.939995  13.917901
    39  H   12.584906  10.158031  14.294137  15.461521  14.592913
    40  H   11.837403   9.719613  13.736951  15.078553  14.336631
                   16         17         18         19         20
    16  H    0.000000
    17  O    6.161301   0.000000
    18  C    5.087456   2.897259   0.000000
    19  C    5.711046   3.630680   1.542755   0.000000
    20  C    6.962877   4.739494   2.570488   1.534895   0.000000
    21  C    7.880718   5.821489   3.953363   2.577598   1.534403
    22  C    9.203005   7.052788   5.146663   3.954810   2.576327
    23  H    6.495218   0.988911   3.843453   4.548736   5.694884
    24  H    5.992801   2.530099   1.096458   2.160205   2.792054
    25  H    4.885706   3.857890   1.096088   2.151114   2.783154
    26  H    5.097152   4.310649   2.153549   1.095493   2.165337
    27  H    6.165077   3.201645   2.163903   1.096976   2.163489
    28  H    7.642286   4.527716   2.787187   2.161690   1.099441
    29  H    6.819261   5.374350   2.792881   2.159159   1.098704
    30  H    7.468228   6.280629   4.244557   2.805543   2.159255
    31  H    8.215019   5.565028   4.234771   2.798760   2.159895
    32  H    9.724594   6.907835   5.256720   4.235815   2.802794
    33  H    9.103689   7.496674   5.265013   4.240871   2.802331
    34  C   10.244927   8.234816   6.492124   5.154301   3.953189
    35  C   11.579659   9.496506   7.716952   6.490864   5.146692
    36  H    9.931846   8.566403   6.673746   5.272436   4.234858
    37  H   10.501711   8.055016   6.666091   5.266844   4.234337
    38  H   11.549134   9.882755   7.851428   6.720970   5.317914
    39  H   12.339639  10.340809   8.641804   7.340349   6.078834
    40  H   12.046224   9.438344   7.844079   6.715862   5.316735
                   21         22         23         24         25
    21  C    0.000000
    22  C    1.535486   0.000000
    23  H    6.708560   7.956267   0.000000
    24  H    4.224164   5.251430   3.502987   0.000000
    25  H    4.219451   5.251029   4.776267   1.779127   0.000000
    26  H    2.824407   4.258314   5.155324   3.053904   2.476303
    27  H    2.807252   4.240276   4.027271   2.501069   3.055132
    28  H    2.158843   2.794414   5.475347   2.558614   3.100429
    29  H    2.159692   2.804848   6.354995   3.116438   2.555534
    30  H    1.098214   2.161361   7.146270   4.757972   4.412470
    31  H    1.098525   2.160464   6.367591   4.409471   4.745020
    32  H    2.162021   1.098380   7.795614   5.129766   5.425907
    33  H    2.162010   1.098289   8.444001   5.432328   5.137982
    34  C    2.576720   1.534303   9.084088   6.653085   6.653327
    35  C    3.949437   2.570368  10.359946   7.780241   7.783367
    36  H    2.800796   2.158794   9.412955   7.004362   6.777370
    37  H    2.799377   2.159098   8.834764   6.771759   6.997222
    38  H    4.280790   2.846833  10.790157   7.959437   7.763618
    39  H    4.764582   3.525683  11.173513   8.742479   8.745654
    40  H    4.279276   2.846392  10.284555   7.752918   7.957068
                   26         27         28         29         30
    26  H    0.000000
    27  H    1.763061   0.000000
    28  H    3.068125   2.518108   0.000000
    29  H    2.505862   3.065482   1.755817   0.000000
    30  H    2.607553   3.127294   3.063224   2.507978   0.000000
    31  H    3.140402   2.580628   2.514753   3.064120   1.753753
    32  H    4.779152   4.428110   2.571347   3.125515   3.066041
    33  H    4.448127   4.768015   3.109319   2.582546   2.515763
    34  C    5.297157   5.274500   4.230432   4.237678   2.801998
    35  C    6.692803   6.669936   5.254727   5.266688   4.234112
    36  H    5.185353   5.452390   4.755660   4.424674   2.577845
    37  H    5.469922   5.156058   4.422615   4.761486   3.114904
    38  H    6.864162   7.066127   5.484132   5.208148   4.468448
    39  H    7.469420   7.444684   6.236744   6.247075   4.920088
    40  H    7.082822   6.837486   5.194600   5.498763   4.800666
                   31         32         33         34         35
    31  H    0.000000
    32  H    2.514009   0.000000
    33  H    3.065480   1.752947   0.000000
    34  C    2.801359   2.158492   2.158485   0.000000
    35  C    4.232001   2.791303   2.793013   1.532387   0.000000
    36  H    3.117630   3.062129   2.510409   1.097640   2.159772
    37  H    2.575446   2.512198   3.062333   1.097713   2.159703
    38  H    4.800194   3.158773   2.625643   2.186080   1.096189
    39  H    4.918067   3.799497   3.801076   2.193524   1.095601
    40  H    4.463700   2.623257   3.160919   2.185959   1.096234
                   36         37         38         39         40
    36  H    0.000000
    37  H    1.751691   0.000000
    38  H    2.530467   3.081920   0.000000
    39  H    2.510954   2.510220   1.763126   0.000000
    40  H    3.081892   2.530548   1.766679   1.762824   0.000000
 Symmetry turned off by external request.
 Stoichiometry    C17H20O3(2-)
 Framework group  C1[X(C17H20O3)]
 Deg. of freedom   114
 Full point group                 C1      NOp   1
 Rotational constants (GHZ):           0.7664093           0.1143340           0.1039684
 Leave Link  202 at Mon Jan  8 01:30:29 2024, MaxMem=  4026531840 cpu:               0.5 elap:               0.1
 (Enter /sysapps/ubuntu-applications/gaussian/Gaussian/AVX2/g16/l301.exe)
 Standard basis: 6-311++G(d,p) (5D, 7F)
 Ernie: Thresh=  0.10000D-02 Tol=  0.10000D-05 Strict=F.
   580 basis functions,   900 primitive gaussians,   600 cartesian basis functions
    74 alpha electrons       74 beta electrons
       nuclear repulsion energy      1433.1291327544 Hartrees.
 IExCor=  402 DFT=T Ex+Corr=B3LYP ExCW=0 ScaHFX=  0.200000
 ScaDFX=  0.800000  0.720000  1.000000  0.810000 ScalE2=  1.000000  1.000000
 IRadAn=      5 IRanWt=     -1 IRanGd=            0 ICorTp=0 IEmpDi=  4
 NAtoms=   40 NActive=   40 NUniq=   40 SFac= 1.00D+00 NAtFMM=   60 NAOKFM=F Big=F
 Integral buffers will be    131072 words long.
 Raffenetti 2 integral format.
 Two-electron integral symmetry is turned off.
 Leave Link  301 at Mon Jan  8 01:30:30 2024, MaxMem=  4026531840 cpu:               0.5 elap:               0.1
 (Enter /sysapps/ubuntu-applications/gaussian/Gaussian/AVX2/g16/l302.exe)
 NPDir=0 NMtPBC=     1 NCelOv=     1 NCel=       1 NClECP=     1 NCelD=      1
         NCelK=      1 NCelE2=     1 NClLst=     1 CellRange=     0.0.
 One-electron integrals computed using PRISM.
 NBasis=   580 RedAO= T EigKep=  1.16D-06  NBF=   580
 NBsUse=   576 1.00D-06 EigRej=  6.32D-07 NBFU=   576
 Precomputing XC quadrature grid using
 IXCGrd= 4 IRadAn=           5 IRanWt=          -1 IRanGd=           0 AccXCQ= 0.00D+00.
 Generated NRdTot=       0 NPtTot=           0 NUsed=           0 NTot=          32
 NSgBfM=   589   589   589   589   589 MxSgAt=    40 MxSgA2=    40.
 Leave Link  302 at Mon Jan  8 01:30:31 2024, MaxMem=  4026531840 cpu:               7.9 elap:               1.1
 (Enter /sysapps/ubuntu-applications/gaussian/Gaussian/AVX2/g16/l303.exe)
 DipDrv:  MaxL=1.
 Leave Link  303 at Mon Jan  8 01:30:31 2024, MaxMem=  4026531840 cpu:               2.1 elap:               0.4
 (Enter /sysapps/ubuntu-applications/gaussian/Gaussian/AVX2/g16/l401.exe)
 ExpMin= 3.60D-02 ExpMax= 8.59D+03 ExpMxC= 1.30D+03 IAcc=3 IRadAn=         5 AccDes= 0.00D+00
 Harris functional with IExCor=  402 and IRadAn=       5 diagonalized for initial guess.
 HarFok:  IExCor=  402 AccDes= 0.00D+00 IRadAn=         5 IDoV= 1 UseB2=F ITyADJ=14
 ICtDFT=  3500011 ScaDFX=  1.000000  1.000000  1.000000  1.000000
 FoFCou: FMM=F IPFlag=           0 FMFlag=      100000 FMFlg1=           0
         NFxFlg=           0 DoJE=T BraDBF=F KetDBF=T FulRan=T
         wScrn=  0.000000 ICntrl=       500 IOpCl=  0 I1Cent=   200000004 NGrid=           0
         NMat0=    1 NMatS0=      1 NMatT0=    0 NMatD0=    1 NMtDS0=    0 NMtDT0=    0
 Symmetry not used in FoFCou.
 Harris En= -886.338045303421    
 JPrj=0 DoOrth=F DoCkMO=F.
 Initial guess <Sx>= 0.0000 <Sy>= 0.0000 <Sz>= 0.0000 <S**2>=-0.0000 S=-0.0000
 Leave Link  401 at Mon Jan  8 01:30:37 2024, MaxMem=  4026531840 cpu:              47.1 elap:               5.9
 (Enter /sysapps/ubuntu-applications/gaussian/Gaussian/AVX2/g16/l502.exe)
 Two-electron integral symmetry not used.
 UHF open shell SCF:
 Using DIIS extrapolation, IDIIS=  1040.
 NGot=  4026531840 LenX=  4025802628 LenY=  4025442028
 Requested convergence on RMS density matrix=1.00D-08 within 128 cycles.
 Requested convergence on MAX density matrix=1.00D-06.
 Requested convergence on             energy=1.00D-06.
 No special actions if energy rises.
 Fock matrices will be formed incrementally for  20 cycles.

 Cycle   1  Pass 1  IDiag  1:
 FoFJK:  IHMeth= 1 ICntrl=       0 DoSepK=F KAlg= 0 I1Cent=           0 FoldK=F
 IRaf= 770000000 NMat=       1 IRICut=       1 DoRegI=T DoRafI=F ISym2E= 0 IDoP0=0 IntGTp=1.
 FoFCou: FMM=F IPFlag=           0 FMFlag=      100000 FMFlg1=           0
         NFxFlg=           0 DoJE=F BraDBF=F KetDBF=F FulRan=T
         wScrn=  0.000000 ICntrl=         0 IOpCl=  1 I1Cent=           0 NGrid=           0
         NMat0=    1 NMatS0=      1 NMatT0=    0 NMatD0=    1 NMtDS0=    0 NMtDT0=    0
 Symmetry not used in FoFCou.
 E= -884.980422887174    
 DIIS: error= 3.39D-02 at cycle   1 NSaved=   1.
 NSaved= 1 IEnMin= 1 EnMin= -884.980422887174     IErMin= 1 ErrMin= 3.39D-02
 ErrMax= 3.39D-02  0.00D+00 EMaxC= 1.00D-01 BMatC= 3.32D+00 BMatP= 3.32D+00
 IDIUse=3 WtCom= 6.61D-01 WtEn= 3.39D-01
 Coeff-Com:  0.100D+01
 Coeff-En:   0.100D+01
 Coeff:      0.100D+01
 Gap=     0.073 Goal=   None    Shift=    0.000
 Gap=     0.073 Goal=   None    Shift=    0.000
 GapD=    0.073 DampG=0.500 DampE=0.500 DampFc=0.2500 IDamp=-1.
 Damping current iteration by 2.50D-01
 RMSDP=2.97D+00 MaxDP=9.16D+02              OVMax= 9.96D-01

 Cycle   2  Pass 1  IDiag  1:
 RMSU=  7.40D-01    CP:  2.42D+00
 E= -884.621187207714     Delta-E=        0.359235679460 Rises=F Damp=T
 DIIS: error= 1.13D-02 at cycle   2 NSaved=   2.
 NSaved= 2 IEnMin= 1 EnMin= -884.980422887174     IErMin= 2 ErrMin= 1.13D-02
 ErrMax= 1.13D-02  0.00D+00 EMaxC= 1.00D-01 BMatC= 6.98D-01 BMatP= 3.32D+00
 IDIUse=3 WtCom= 8.87D-01 WtEn= 1.13D-01
 Coeff-Com: -0.424D-01 0.104D+01
 Coeff-En:   0.657D+00 0.343D+00
 Coeff:      0.366D-01 0.963D+00
 Gap=     0.310 Goal=   None    Shift=    0.000
 Gap=     0.310 Goal=   None    Shift=    0.000
 RMSDP=7.83D-01 MaxDP=2.29D+02 DE= 3.59D-01 OVMax= 9.88D-01

 Cycle   3  Pass 1  IDiag  1:
 RMSU=  2.60D-01    CP:  3.00D+00  2.22D-03
 E= -873.624448816352     Delta-E=       10.996738391363 Rises=F Damp=F
 DIIS: error= 5.25D-02 at cycle   3 NSaved=   3.
 NSaved= 3 IEnMin= 1 EnMin= -884.980422887174     IErMin= 2 ErrMin= 1.13D-02
 ErrMax= 5.25D-02  0.00D+00 EMaxC= 1.00D-01 BMatC= 1.30D+01 BMatP= 6.98D-01
 IDIUse=2 WtCom= 0.00D+00 WtEn= 1.00D+00
 Rare condition: small coef for last iteration:  0.000D+00
 Coeff-En:   0.663D+00 0.306D+00 0.307D-01
 Coeff:      0.663D+00 0.306D+00 0.307D-01
 Gap=    -0.371 Goal=   None    Shift=    0.000
 Gap=    -0.371 Goal=   None    Shift=    0.000
 RMSDP=7.62D-01 MaxDP=1.50D+02 DE= 1.10D+01 OVMax= 1.00D+00

 Cycle   4  Pass 1  IDiag  1:
 RMSU=  4.26D-01    CP:  2.31D+00  7.61D-01 -1.04D-01
 E= -884.735850594824     Delta-E=      -11.111401778473 Rises=F Damp=F
 DIIS: error= 3.13D-02 at cycle   4 NSaved=   4.
 NSaved= 4 IEnMin= 1 EnMin= -884.980422887174     IErMin= 2 ErrMin= 1.13D-02
 ErrMax= 3.13D-02  0.00D+00 EMaxC= 1.00D-01 BMatC= 3.39D+00 BMatP= 6.98D-01
 IDIUse=2 WtCom= 0.00D+00 WtEn= 1.00D+00
 EnCoef did   100 forward-backward iterations
 Coeff-En:   0.551D+00 0.354D-02 0.495D-03 0.445D+00
 Coeff:      0.551D+00 0.354D-02 0.495D-03 0.445D+00
 Gap=     0.176 Goal=   None    Shift=    0.000
 Gap=     0.176 Goal=   None    Shift=    0.000
 RMSDP=7.10D-01 MaxDP=1.50D+02 DE=-1.11D+01 OVMax= 9.80D-01

 Cycle   5  Pass 1  IDiag  1:
 RMSU=  1.13D-02    CP:  1.14D+00 -2.93D-03  2.36D-03  2.50D-03
 E= -885.702681662246     Delta-E=       -0.966831067422 Rises=F Damp=F
 DIIS: error= 8.05D-03 at cycle   5 NSaved=   5.
 NSaved= 5 IEnMin= 5 EnMin= -885.702681662246     IErMin= 5 ErrMin= 8.05D-03
 ErrMax= 8.05D-03  0.00D+00 EMaxC= 1.00D-01 BMatC= 2.39D-01 BMatP= 6.98D-01
 IDIUse=3 WtCom= 9.19D-01 WtEn= 8.05D-02
 Coeff-Com: -0.375D-01 0.342D+00-0.176D-01 0.412D-01 0.672D+00
 Coeff-En:   0.000D+00 0.000D+00 0.000D+00 0.858D-01 0.914D+00
 Coeff:     -0.345D-01 0.314D+00-0.162D-01 0.448D-01 0.692D+00
 Gap=     0.078 Goal=   None    Shift=    0.000
 Gap=     0.078 Goal=   None    Shift=    0.000
 RMSDP=3.34D-03 MaxDP=2.04D-01 DE=-9.67D-01 OVMax= 5.71D-02

 Cycle   6  Pass 1  IDiag  1:
 RMSU=  2.33D-03    CP:  1.11D+00 -2.62D-03  1.21D-03  2.11D-03  8.27D-01
 E= -885.730251752389     Delta-E=       -0.027570090142 Rises=F Damp=F
 DIIS: error= 6.69D-03 at cycle   6 NSaved=   6.
 NSaved= 6 IEnMin= 6 EnMin= -885.730251752389     IErMin= 6 ErrMin= 6.69D-03
 ErrMax= 6.69D-03  0.00D+00 EMaxC= 1.00D-01 BMatC= 1.46D-01 BMatP= 2.39D-01
 IDIUse=3 WtCom= 9.33D-01 WtEn= 6.69D-02
 EnCoef did     2 forward-backward iterations
 Coeff-Com: -0.150D+00 0.332D+00-0.139D-01-0.991D-02 0.361D+00 0.480D+00
 Coeff-En:   0.000D+00 0.000D+00 0.000D+00 0.836D-01 0.219D-01 0.895D+00
 Coeff:     -0.140D+00 0.310D+00-0.130D-01-0.366D-02 0.339D+00 0.508D+00
 Gap=     0.074 Goal=   None    Shift=    0.000
 Gap=     0.074 Goal=   None    Shift=    0.000
 RMSDP=2.48D-03 MaxDP=1.99D-01 DE=-2.76D-02 OVMax= 5.21D-02

 Cycle   7  Pass 1  IDiag  1:
 RMSU=  2.16D-03    CP:  1.11D+00 -2.57D-03 -6.03D-04  2.29D-03  9.08D-01
                    CP:  7.34D-01
 E= -885.740837257820     Delta-E=       -0.010585505431 Rises=F Damp=F
 DIIS: error= 5.48D-03 at cycle   7 NSaved=   7.
 NSaved= 7 IEnMin= 7 EnMin= -885.740837257820     IErMin= 7 ErrMin= 5.48D-03
 ErrMax= 5.48D-03  0.00D+00 EMaxC= 1.00D-01 BMatC= 9.89D-02 BMatP= 1.46D-01
 IDIUse=3 WtCom= 9.45D-01 WtEn= 5.48D-02
 EnCoef did     4 forward-backward iterations
 Coeff-Com: -0.162D+00 0.253D+00-0.637D-02 0.317D-02-0.753D-01 0.300D+00
 Coeff-Com:  0.687D+00
 Coeff-En:   0.000D+00 0.000D+00 0.000D+00 0.727D-01 0.000D+00 0.107D+00
 Coeff-En:   0.820D+00
 Coeff:     -0.153D+00 0.239D+00-0.602D-02 0.697D-02-0.712D-01 0.290D+00
 Coeff:      0.694D+00
 Gap=     0.061 Goal=   None    Shift=    0.000
 Gap=     0.061 Goal=   None    Shift=    0.000
 RMSDP=2.52D-03 MaxDP=2.20D-01 DE=-1.06D-02 OVMax= 3.36D-02

 Cycle   8  Pass 1  IDiag  1:
 RMSU=  1.80D-03    CP:  1.12D+00 -2.61D-03 -9.49D-04  2.61D-03  1.02D+00
                    CP:  8.91D-01  1.44D+00
 E= -885.755238293551     Delta-E=       -0.014401035731 Rises=F Damp=F
 DIIS: error= 4.51D-03 at cycle   8 NSaved=   8.
 NSaved= 8 IEnMin= 8 EnMin= -885.755238293551     IErMin= 8 ErrMin= 4.51D-03
 ErrMax= 4.51D-03  0.00D+00 EMaxC= 1.00D-01 BMatC= 5.73D-02 BMatP= 9.89D-02
 IDIUse=3 WtCom= 9.55D-01 WtEn= 4.51D-02
 Coeff-Com: -0.131D+00 0.179D+00-0.312D-02 0.958D-02-0.241D+00 0.155D-01
 Coeff-Com:  0.446D+00 0.725D+00
 Coeff-En:   0.000D+00 0.000D+00 0.000D+00 0.428D-01 0.000D+00 0.000D+00
 Coeff-En:   0.000D+00 0.957D+00
 Coeff:     -0.125D+00 0.171D+00-0.298D-02 0.111D-01-0.230D+00 0.148D-01
 Coeff:      0.426D+00 0.735D+00
 Gap=     0.021 Goal=   None    Shift=    0.000
 Gap=     0.021 Goal=   None    Shift=    0.000
 RMSDP=3.47D-03 MaxDP=4.27D-01 DE=-1.44D-02 OVMax= 2.97D-02

 Cycle   9  Pass 1  IDiag  1:
 RMSU=  1.37D-03    CP:  1.15D+00 -2.68D-03 -2.64D-03  2.91D-03  1.15D+00
                    CP:  1.16D+00  2.27D+00  1.71D+00
 E= -885.764680801454     Delta-E=       -0.009442507903 Rises=F Damp=F
 DIIS: error= 3.02D-03 at cycle   9 NSaved=   9.
 NSaved= 9 IEnMin= 9 EnMin= -885.764680801454     IErMin= 9 ErrMin= 3.02D-03
 ErrMax= 3.02D-03  0.00D+00 EMaxC= 1.00D-01 BMatC= 2.91D-02 BMatP= 5.73D-02
 IDIUse=3 WtCom= 9.70D-01 WtEn= 3.02D-02
 Coeff-Com: -0.383D-01 0.371D-01-0.387D-03 0.140D-01-0.243D+00-0.301D+00
 Coeff-Com: -0.309D+00 0.681D+00 0.116D+01
 Coeff-En:   0.000D+00 0.000D+00 0.000D+00 0.173D-01 0.000D+00 0.000D+00
 Coeff-En:   0.000D+00 0.000D+00 0.983D+00
 Coeff:     -0.371D-01 0.360D-01-0.375D-03 0.141D-01-0.235D+00-0.292D+00
 Coeff:     -0.300D+00 0.660D+00 0.115D+01
 Gap=    -0.035 Goal=   None    Shift=    0.000
 Gap=    -0.035 Goal=   None    Shift=    0.000
 RMSDP=4.65D-01 MaxDP=9.52D+01 DE=-9.44D-03 OVMax= 1.00D+00

 Cycle  10  Pass 1  IDiag  1:
 RMSU=  7.83D-02    CP:  1.66D+00  5.09D-01 -5.46D-02  6.06D-01  4.99D-01
                    CP:  1.79D+00  1.23D+00 -2.70D+00 -3.00D+00
 E= -885.446772512839     Delta-E=        0.317908288615 Rises=F Damp=F
 DIIS: error= 1.33D-02 at cycle  10 NSaved=  10.
 NSaved=10 IEnMin= 9 EnMin= -885.764680801454     IErMin= 9 ErrMin= 3.02D-03
 ErrMax= 1.33D-02  0.00D+00 EMaxC= 1.00D-01 BMatC= 3.61D-01 BMatP= 2.91D-02
 IDIUse=2 WtCom= 0.00D+00 WtEn= 1.00D+00
 Coeff-En:   0.000D+00 0.000D+00 0.000D+00 0.000D+00 0.000D+00 0.000D+00
 Coeff-En:   0.000D+00 0.000D+00 0.804D+00 0.196D+00
 Coeff:      0.000D+00 0.000D+00 0.000D+00 0.000D+00 0.000D+00 0.000D+00
 Coeff:      0.000D+00 0.000D+00 0.804D+00 0.196D+00
 Gap=     0.025 Goal=   None    Shift=    0.000
 Gap=     0.025 Goal=   None    Shift=    0.000
 RMSDP=4.65D-01 MaxDP=9.52D+01 DE= 3.18D-01 OVMax= 9.99D-01

 Cycle  11  Pass 1  IDiag  1:
 RMSU=  2.07D-03    CP:  1.20D+00 -2.74D-03 -1.22D-03  3.08D-03  1.29D+00
                    CP:  1.65D+00  2.62D+00  2.76D+00  1.55D+00  1.63D-03
 E= -885.763343507431     Delta-E=       -0.316570994592 Rises=F Damp=F
 DIIS: error= 3.66D-03 at cycle  11 NSaved=  11.
 NSaved=11 IEnMin= 9 EnMin= -885.764680801454     IErMin= 9 ErrMin= 3.02D-03
 ErrMax= 3.66D-03  0.00D+00 EMaxC= 1.00D-01 BMatC= 3.62D-02 BMatP= 2.91D-02
 IDIUse=3 WtCom= 9.70D-01 WtEn= 3.02D-02
 EnCoef did    25 forward-backward iterations
 Coeff-Com: -0.232D-01 0.181D-01-0.811D-03 0.251D-02-0.146D+00-0.214D+00
 Coeff-Com: -0.264D+00 0.373D+00 0.106D+01 0.612D-01 0.131D+00
 Coeff-En:   0.000D+00 0.000D+00 0.000D+00 0.000D+00 0.000D+00 0.000D+00
 Coeff-En:   0.000D+00 0.000D+00 0.570D+00 0.193D+00 0.237D+00
 Coeff:     -0.225D-01 0.175D-01-0.787D-03 0.243D-02-0.141D+00-0.208D+00
 Coeff:     -0.256D+00 0.362D+00 0.105D+01 0.651D-01 0.135D+00
 Gap=    -0.024 Goal=   None    Shift=    0.000
 Gap=    -0.024 Goal=   None    Shift=    0.000
 RMSDP=4.66D-01 MaxDP=9.67D+01 DE=-3.17D-01 OVMax= 1.00D+00

 Cycle  12  Pass 1  IDiag  1:
 RMSU=  6.71D-03    CP:  1.64D+00  5.05D-01 -5.58D-02  6.27D-01  3.39D-01
                    CP:  1.38D+00  7.85D-01 -2.69D+00 -3.00D+00  8.53D-01
                    CP: -5.49D-02
 E= -885.461227626898     Delta-E=        0.302115880533 Rises=F Damp=F
 DIIS: error= 1.28D-02 at cycle  12 NSaved=  12.
 NSaved=12 IEnMin= 9 EnMin= -885.764680801454     IErMin= 9 ErrMin= 3.02D-03
 ErrMax= 1.28D-02  0.00D+00 EMaxC= 1.00D-01 BMatC= 3.31D-01 BMatP= 2.91D-02
 IDIUse=2 WtCom= 0.00D+00 WtEn= 1.00D+00
 EnCoef did   100 forward-backward iterations
 Coeff-En:   0.000D+00 0.000D+00 0.000D+00 0.000D+00 0.000D+00 0.000D+00
 Coeff-En:   0.000D+00 0.000D+00 0.562D+00 0.832D-01 0.243D+00 0.112D+00
 Coeff:      0.000D+00 0.000D+00 0.000D+00 0.000D+00 0.000D+00 0.000D+00
 Coeff:      0.000D+00 0.000D+00 0.562D+00 0.832D-01 0.243D+00 0.112D+00
 Gap=    -0.007 Goal=   None    Shift=    0.000
 Gap=    -0.007 Goal=   None    Shift=    0.000
 RMSDP=4.66D-01 MaxDP=9.67D+01 DE= 3.02D-01 OVMax= 1.00D+00

 Cycle  13  Pass 1  IDiag  1:
 RMSU=  6.33D-04    CP:  1.18D+00 -2.56D-03 -1.44D-03  2.75D-03  1.25D+00
                    CP:  1.44D+00  2.54D+00  2.44D+00  1.71D+00  3.97D-03
                    CP:  6.22D-01  2.09D-02
 E= -885.768201510104     Delta-E=       -0.306973883206 Rises=F Damp=F
 DIIS: error= 2.77D-03 at cycle  13 NSaved=  13.
 NSaved=13 IEnMin=13 EnMin= -885.768201510104     IErMin=13 ErrMin= 2.77D-03
 ErrMax= 2.77D-03  0.00D+00 EMaxC= 1.00D-01 BMatC= 1.60D-02 BMatP= 2.91D-02
 IDIUse=3 WtCom= 9.72D-01 WtEn= 2.77D-02
 Coeff-Com: -0.247D-01 0.190D-01-0.685D-03 0.165D-02-0.136D+00-0.184D+00
 Coeff-Com: -0.270D+00 0.363D+00 0.802D+00 0.397D+00-0.680D-01-0.346D+00
 Coeff-Com:  0.446D+00
 Coeff-En:   0.000D+00 0.000D+00 0.000D+00 0.000D+00 0.000D+00 0.000D+00
 Coeff-En:   0.000D+00 0.000D+00 0.000D+00 0.000D+00 0.000D+00 0.191D+00
 Coeff-En:   0.809D+00
 Coeff:     -0.241D-01 0.185D-01-0.666D-03 0.160D-02-0.132D+00-0.179D+00
 Coeff:     -0.262D+00 0.353D+00 0.779D+00 0.386D+00-0.661D-01-0.331D+00
 Coeff:      0.456D+00
 Gap=    -0.027 Goal=   None    Shift=    0.000
 Gap=    -0.027 Goal=   None    Shift=    0.000
 RMSDP=4.64D-01 MaxDP=9.60D+01 DE=-3.07D-01 OVMax= 1.00D+00

 Cycle  14  Pass 1  IDiag  1:
 RMSU=  1.53D-03    CP:  1.64D+00  5.03D-01 -5.53D-02  6.22D-01  3.80D-01
                    CP:  1.45D+00  8.68D-01 -2.68D+00 -3.00D+00  8.66D-01
                    CP: -2.10D-02  9.53D-01  3.54D-01
 E= -885.458390775990     Delta-E=        0.309810734113 Rises=F Damp=F
 DIIS: error= 1.29D-02 at cycle  14 NSaved=  14.
 NSaved=14 IEnMin=13 EnMin= -885.768201510104     IErMin=13 ErrMin= 2.77D-03
 ErrMax= 1.29D-02  0.00D+00 EMaxC= 1.00D-01 BMatC= 3.36D-01 BMatP= 1.60D-02
 IDIUse=2 WtCom= 0.00D+00 WtEn= 1.00D+00
 Rare condition: small coef for last iteration:  0.000D+00
 Coeff-En:   0.000D+00 0.000D+00 0.000D+00 0.000D+00 0.000D+00 0.000D+00
 Coeff-En:   0.000D+00 0.000D+00 0.000D+00 0.000D+00 0.000D+00 0.347D-03
 Coeff-En:   0.809D+00 0.190D+00
 Coeff:      0.000D+00 0.000D+00 0.000D+00 0.000D+00 0.000D+00 0.000D+00
 Coeff:      0.000D+00 0.000D+00 0.000D+00 0.000D+00 0.000D+00 0.347D-03
 Coeff:      0.809D+00 0.190D+00
 Gap=     0.025 Goal=   None    Shift=    0.000
 Gap=     0.025 Goal=   None    Shift=    0.000
 RMSDP=4.63D-01 MaxDP=9.60D+01 DE= 3.10D-01 OVMax= 9.99D-01

 Cycle  15  Pass 1  IDiag  1:
 RMSU=  4.58D-04    CP:  1.17D+00 -2.23D-03 -1.12D-03  2.40D-03  1.21D+00
                    CP:  1.42D+00  2.38D+00  2.35D+00  1.83D+00  9.18D-03
                    CP:  6.28D-01  4.08D-02  2.08D+00  7.67D-02
 E= -885.767595296889     Delta-E=       -0.309204520899 Rises=F Damp=F
 DIIS: error= 2.79D-03 at cycle  15 NSaved=  15.
 NSaved=15 IEnMin=13 EnMin= -885.768201510104     IErMin=13 ErrMin= 2.77D-03
 ErrMax= 2.79D-03  0.00D+00 EMaxC= 1.00D-01 BMatC= 2.01D-02 BMatP= 1.60D-02
 IDIUse=3 WtCom= 9.72D-01 WtEn= 2.77D-02
 EnCoef did   100 forward-backward iterations
 Coeff-Com: -0.282D-01 0.213D-01-0.481D-03 0.522D-02-0.165D+00-0.196D+00
 Coeff-Com: -0.211D+00 0.351D+00 0.474D+00 0.306D+00-0.833D-01-0.910D+00
 Coeff-Com:  0.225D+00 0.640D+00 0.571D+00
 Coeff-En:   0.000D+00 0.000D+00 0.000D+00 0.000D+00 0.000D+00 0.000D+00
 Coeff-En:   0.000D+00 0.000D+00 0.000D+00 0.000D+00 0.000D+00 0.165D-01
 Coeff-En:   0.549D+00 0.175D+00 0.260D+00
 Coeff:     -0.274D-01 0.207D-01-0.467D-03 0.507D-02-0.160D+00-0.191D+00
 Coeff:     -0.205D+00 0.341D+00 0.460D+00 0.298D+00-0.810D-01-0.884D+00
 Coeff:      0.234D+00 0.627D+00 0.563D+00
 Gap=    -0.029 Goal=   None    Shift=    0.000
 Gap=    -0.029 Goal=   None    Shift=    0.000
 RMSDP=4.70D-01 MaxDP=9.56D+01 DE=-3.09D-01 OVMax= 9.99D-01

 Cycle  16  Pass 1  IDiag  1:
 RMSU=  3.45D-03    CP:  1.66D+00  5.14D-01 -5.48D-02  6.15D-01  4.62D-01
                    CP:  1.66D+00  1.03D+00 -2.86D+00 -3.00D+00  1.02D+00
                    CP: -1.85D-02  2.26D-01  1.41D-01 -8.24D-01  1.72D-01
 E= -885.454772784789     Delta-E=        0.312822512100 Rises=F Damp=F
 DIIS: error= 1.30D-02 at cycle  16 NSaved=  16.
 NSaved=16 IEnMin=13 EnMin= -885.768201510104     IErMin=13 ErrMin= 2.77D-03
 ErrMax= 1.30D-02  0.00D+00 EMaxC= 1.00D-01 BMatC= 3.42D-01 BMatP= 1.60D-02
 IDIUse=2 WtCom= 0.00D+00 WtEn= 1.00D+00
 EnCoef did   100 forward-backward iterations
 Coeff-En:   0.000D+00 0.000D+00 0.000D+00 0.000D+00 0.000D+00 0.000D+00
 Coeff-En:   0.000D+00 0.000D+00 0.000D+00 0.000D+00 0.000D+00 0.365D-01
 Coeff-En:   0.513D+00 0.153D+00 0.295D+00 0.184D-02
 Coeff:      0.000D+00 0.000D+00 0.000D+00 0.000D+00 0.000D+00 0.000D+00
 Coeff:      0.000D+00 0.000D+00 0.000D+00 0.000D+00 0.000D+00 0.365D-01
 Coeff:      0.513D+00 0.153D+00 0.295D+00 0.184D-02
 Gap=     0.025 Goal=   None    Shift=    0.000
 Gap=     0.025 Goal=   None    Shift=    0.000
 RMSDP=4.70D-01 MaxDP=9.56D+01 DE= 3.13D-01 OVMax= 9.99D-01

 Cycle  17  Pass 1  IDiag  1:
 RMSU=  1.93D-04    CP:  1.18D+00 -2.11D-03 -1.09D-03  2.44D-03  1.24D+00
                    CP:  1.46D+00  2.46D+00  2.41D+00  1.86D+00  1.08D-02
                    CP:  7.33D-01  4.03D-02  2.30D+00  1.22D-01  1.39D+00
                    CP:  5.03D-03
 E= -885.768148039538     Delta-E=       -0.313375254749 Rises=F Damp=F
 DIIS: error= 2.82D-03 at cycle  17 NSaved=  17.
 NSaved=17 IEnMin=13 EnMin= -885.768201510104     IErMin=13 ErrMin= 2.77D-03
 ErrMax= 2.82D-03  0.00D+00 EMaxC= 1.00D-01 BMatC= 1.69D-02 BMatP= 1.60D-02
 IDIUse=3 WtCom= 9.72D-01 WtEn= 2.77D-02
 EnCoef did   100 forward-backward iterations
 Coeff-Com: -0.291D-01 0.220D-01-0.570D-03 0.661D-02-0.172D+00-0.200D+00
 Coeff-Com: -0.197D+00 0.350D+00 0.426D+00 0.312D+00-0.645D-01-0.111D+01
 Coeff-Com:  0.126D+00 0.611D+00 0.702D+00 0.215D+00 0.212D-02
 Coeff-En:   0.000D+00 0.000D+00 0.000D+00 0.000D+00 0.000D+00 0.000D+00
 Coeff-En:   0.000D+00 0.000D+00 0.000D+00 0.000D+00 0.000D+00 0.405D-01
 Coeff-En:   0.000D+00 0.412D-03 0.000D+00 0.150D+00 0.809D+00
 Coeff:     -0.283D-01 0.214D-01-0.554D-03 0.643D-02-0.168D+00-0.195D+00
 Coeff:     -0.191D+00 0.340D+00 0.414D+00 0.304D+00-0.627D-01-0.108D+01
 Coeff:      0.123D+00 0.594D+00 0.682D+00 0.213D+00 0.244D-01
 Gap=    -0.030 Goal=   None    Shift=    0.000
 Gap=    -0.030 Goal=   None    Shift=    0.000
 RMSDP=4.72D-01 MaxDP=9.61D+01 DE=-3.13D-01 OVMax= 9.99D-01

 Cycle  18  Pass 1  IDiag  1:
 RMSU=  3.09D-04    CP:  1.66D+00  5.16D-01 -5.48D-02  6.15D-01  4.76D-01
                    CP:  1.70D+00  1.06D+00 -2.86D+00 -3.00D+00  1.02D+00
                    CP:  1.35D-02  1.83D-01  4.60D-01 -2.55D-01  1.57D-01
                    CP:  9.64D-01 -1.73D-01
 E= -885.453270030756     Delta-E=        0.314878008782 Rises=F Damp=F
 DIIS: error= 1.31D-02 at cycle  18 NSaved=  18.
 NSaved=18 IEnMin=13 EnMin= -885.768201510104     IErMin=13 ErrMin= 2.77D-03
 ErrMax= 1.31D-02  0.00D+00 EMaxC= 1.00D-01 BMatC= 3.45D-01 BMatP= 1.60D-02
 IDIUse=2 WtCom= 0.00D+00 WtEn= 1.00D+00
 EnCoef did   100 forward-backward iterations
 Rare condition: small coef for last iteration: -0.242D-15
 Coeff-En:   0.000D+00 0.000D+00 0.000D+00 0.000D+00 0.000D+00 0.000D+00
 Coeff-En:   0.000D+00 0.000D+00 0.000D+00 0.000D+00 0.000D+00 0.394D-03
 Coeff-En:   0.000D+00 0.133D-03 0.000D+00 0.191D-03 0.810D+00 0.190D+00
 Coeff:      0.000D+00 0.000D+00 0.000D+00 0.000D+00 0.000D+00 0.000D+00
 Coeff:      0.000D+00 0.000D+00 0.000D+00 0.000D+00 0.000D+00 0.394D-03
 Coeff:      0.000D+00 0.133D-03 0.000D+00 0.191D-03 0.810D+00 0.190D+00
 Gap=     0.025 Goal=   None    Shift=    0.000
 Gap=     0.025 Goal=   None    Shift=    0.000
 RMSDP=4.71D-01 MaxDP=9.60D+01 DE= 3.15D-01 OVMax= 9.98D-01

 Cycle  19  Pass 1  IDiag  1:
 RMSU=  2.42D-04    CP:  1.18D+00 -1.54D-03 -9.41D-04  2.49D-03  1.24D+00
                    CP:  1.48D+00  2.49D+00  2.39D+00  1.94D+00  1.68D-02
                    CP:  8.56D-01  5.18D-02  3.00D+00  2.43D-01  2.61D+00
                    CP:  1.49D-02  2.69D+00 -8.80D-03
 E= -885.768381576345     Delta-E=       -0.315111545588 Rises=F Damp=F
 DIIS: error= 2.73D-03 at cycle  19 NSaved=  19.
 NSaved=19 IEnMin=19 EnMin= -885.768381576345     IErMin=19 ErrMin= 2.73D-03
 ErrMax= 2.73D-03  0.00D+00 EMaxC= 1.00D-01 BMatC= 1.67D-02 BMatP= 1.60D-02
 IDIUse=3 WtCom= 9.73D-01 WtEn= 2.73D-02
 EnCoef did   100 forward-backward iterations
 Coeff-Com: -0.299D-01 0.214D-01-0.714D-03 0.810D-02-0.181D+00-0.216D+00
 Coeff-Com: -0.173D+00 0.411D+00 0.240D+00 0.209D+00-0.207D+00-0.627D+00
 Coeff-Com:  0.457D-01 0.213D+00 0.328D+00-0.168D+01 0.183D+01 0.191D+01
 Coeff-Com: -0.110D+01
 Coeff-En:   0.000D+00 0.000D+00 0.000D+00 0.000D+00 0.000D+00 0.000D+00
 Coeff-En:   0.000D+00 0.000D+00 0.000D+00 0.000D+00 0.000D+00 0.400D-01
 Coeff-En:   0.000D+00 0.284D-03 0.000D+00 0.613D-03 0.976D-03 0.149D+00
 Coeff-En:   0.809D+00
 Coeff:     -0.291D-01 0.208D-01-0.695D-03 0.788D-02-0.176D+00-0.210D+00
 Coeff:     -0.168D+00 0.400D+00 0.234D+00 0.203D+00-0.201D+00-0.608D+00
 Coeff:      0.444D-01 0.207D+00 0.319D+00-0.163D+01 0.178D+01 0.186D+01
 Coeff:     -0.105D+01
 Gap=    -0.030 Goal=   None    Shift=    0.000
 Gap=    -0.030 Goal=   None    Shift=    0.000
 RMSDP=4.61D-01 MaxDP=9.40D+01 DE=-3.15D-01 OVMax= 9.99D-01

 Cycle  20  Pass 1  IDiag  1:
 RMSU=  8.52D-04    CP:  1.65D+00  5.04D-01 -5.33D-02  6.00D-01  5.16D-01
                    CP:  1.76D+00  1.16D+00 -2.83D+00 -3.00D+00  1.06D+00
                    CP:  1.45D-02  1.26D-01 -3.94D-01 -1.53D+00  5.98D-01
                    CP:  1.53D+00  7.81D-01 -3.00D+00  1.68D-01
 E= -885.453124159437     Delta-E=        0.315257416907 Rises=F Damp=F
 DIIS: error= 1.31D-02 at cycle  20 NSaved=  20.
 NSaved=20 IEnMin=19 EnMin= -885.768381576345     IErMin=19 ErrMin= 2.73D-03
 ErrMax= 1.31D-02  0.00D+00 EMaxC= 1.00D-01 BMatC= 3.45D-01 BMatP= 1.60D-02
 IDIUse=2 WtCom= 0.00D+00 WtEn= 1.00D+00
 EnCoef did   100 forward-backward iterations
 Rare condition: small coef for last iteration: -0.150D-14
 Coeff-En:   0.000D+00 0.000D+00 0.000D+00 0.000D+00 0.000D+00 0.000D+00
 Coeff-En:   0.000D+00 0.000D+00 0.000D+00 0.000D+00 0.000D+00 0.388D-03
 Coeff-En:   0.000D+00 0.133D-03 0.000D+00 0.191D-03 0.000D+00 0.686D-04
 Coeff-En:   0.810D+00 0.189D+00
 Coeff:      0.000D+00 0.000D+00 0.000D+00 0.000D+00 0.000D+00 0.000D+00
 Coeff:      0.000D+00 0.000D+00 0.000D+00 0.000D+00 0.000D+00 0.388D-03
 Coeff:      0.000D+00 0.133D-03 0.000D+00 0.191D-03 0.000D+00 0.686D-04
 Coeff:      0.810D+00 0.189D+00
 Gap=     0.026 Goal=   None    Shift=    0.000
 Gap=     0.026 Goal=   None    Shift=    0.000
 RMSDP=4.60D-01 MaxDP=9.38D+01 DE= 3.15D-01 OVMax= 9.98D-01

 Cycle  21  Pass 1  IDiag  1:
 Restarting incremental Fock formation.
 E= -885.768682764553     Delta-E=       -0.315558605115 Rises=F Damp=F
 DIIS: error= 2.81D-03 at cycle  21 NSaved=  20.
 NSaved=20 IEnMin=20 EnMin= -885.768682764553     IErMin=13 ErrMin= 2.77D-03
 ErrMax= 2.81D-03  0.00D+00 EMaxC= 1.00D-01 BMatC= 1.64D-02 BMatP= 1.60D-02
 IDIUse=3 WtCom= 9.73D-01 WtEn= 2.73D-02
 EnCoef did   100 forward-backward iterations
 Coeff-Com: -0.290D-01 0.208D-01-0.651D-03 0.753D-02-0.179D+00-0.205D+00
 Coeff-Com: -0.208D+00 0.391D+00 0.261D+00 0.284D+00-0.205D+00-0.986D+00
 Coeff-Com: -0.253D+00 0.569D+00 0.288D+00 0.311D+00 0.192D+01 0.630D+00
 Coeff-Com: -0.778D+00-0.838D+00
 Coeff-En:   0.000D+00 0.000D+00 0.000D+00 0.000D+00 0.000D+00 0.000D+00
 Coeff-En:   0.000D+00 0.000D+00 0.000D+00 0.000D+00 0.000D+00 0.412D-01
 Coeff-En:   0.000D+00 0.399D-03 0.000D+00 0.315D-03 0.000D+00 0.932D-04
 Coeff-En:   0.147D+00 0.811D+00
 Coeff:     -0.282D-01 0.202D-01-0.633D-03 0.732D-02-0.174D+00-0.199D+00
 Coeff:     -0.203D+00 0.380D+00 0.254D+00 0.277D+00-0.199D+00-0.958D+00
 Coeff:     -0.246D+00 0.554D+00 0.280D+00 0.302D+00 0.187D+01 0.613D+00
 Coeff:     -0.752D+00-0.793D+00
 Gap=    -0.030 Goal=   None    Shift=    0.000
 Gap=    -0.030 Goal=   None    Shift=    0.000
 RMSDP=4.54D-01 MaxDP=9.23D+01 DE=-3.16D-01 OVMax= 9.98D-01

 Cycle  22  Pass 1  IDiag  1:
 RMSU=  4.54D-01    CP:  1.38D+00
 E= -885.453243990603     Delta-E=        0.315438773950 Rises=F Damp=F
 DIIS: error= 1.31D-02 at cycle  22 NSaved=  20.
 NSaved=20 IEnMin=19 EnMin= -885.768682764553     IErMin=12 ErrMin= 2.77D-03
 ErrMax= 1.31D-02  0.00D+00 EMaxC= 1.00D-01 BMatC= 3.44D-01 BMatP= 1.60D-02
 IDIUse=2 WtCom= 0.00D+00 WtEn= 1.00D+00
 EnCoef did   100 forward-backward iterations
 Rare condition: small coef for last iteration: -0.203D-14
 Coeff-En:   0.000D+00 0.000D+00 0.000D+00 0.000D+00 0.000D+00 0.000D+00
 Coeff-En:   0.000D+00 0.000D+00 0.000D+00 0.000D+00 0.395D-03 0.000D+00
 Coeff-En:   0.119D-03 0.000D+00 0.192D-03 0.000D+00 0.108D-03 0.000D+00
 Coeff-En:   0.811D+00 0.188D+00
 Coeff:      0.000D+00 0.000D+00 0.000D+00 0.000D+00 0.000D+00 0.000D+00
 Coeff:      0.000D+00 0.000D+00 0.000D+00 0.000D+00 0.395D-03 0.000D+00
 Coeff:      0.119D-03 0.000D+00 0.192D-03 0.000D+00 0.108D-03 0.000D+00
 Coeff:      0.811D+00 0.188D+00
 Gap=     0.026 Goal=   None    Shift=    0.000
 Gap=     0.026 Goal=   None    Shift=    0.000
 RMSDP=4.53D-01 MaxDP=9.20D+01 DE= 3.15D-01 OVMax= 9.96D-01

 Cycle  23  Pass 1  IDiag  1:
 RMSU=  1.74D-03    CP:  1.00D+00  2.94D-03
 E= -885.769078083102     Delta-E=       -0.315834092499 Rises=F Damp=F
 DIIS: error= 2.66D-03 at cycle  23 NSaved=  20.
 NSaved=20 IEnMin=20 EnMin= -885.769078083102     IErMin=20 ErrMin= 2.66D-03
 ErrMax= 2.66D-03  0.00D+00 EMaxC= 1.00D-01 BMatC= 1.66D-02 BMatP= 1.60D-02
 IDIUse=3 WtCom= 9.73D-01 WtEn= 2.66D-02
 EnCoef did   100 forward-backward iterations
 Coeff-Com: -0.292D-01 0.208D-01 0.582D-02-0.179D+00-0.223D+00-0.199D+00
 Coeff-Com:  0.423D+00 0.268D+00 0.224D+00-0.235D+00-0.393D+00-0.208D+00
 Coeff-Com:  0.830D-01 0.123D+00-0.999D+00 0.156D+01 0.994D+00 0.180D+01
 Coeff-Com: -0.167D+01-0.366D+00
 Coeff-En:   0.000D+00 0.000D+00 0.000D+00 0.000D+00 0.000D+00 0.000D+00
 Coeff-En:   0.000D+00 0.000D+00 0.000D+00 0.000D+00 0.412D-01 0.000D+00
 Coeff-En:   0.298D-03 0.000D+00 0.406D-03 0.000D+00 0.354D-03 0.000D+00
 Coeff-En:   0.146D+00 0.812D+00
 Coeff:     -0.284D-01 0.203D-01 0.567D-02-0.174D+00-0.217D+00-0.194D+00
 Coeff:      0.412D+00 0.261D+00 0.218D+00-0.229D+00-0.381D+00-0.202D+00
 Coeff:      0.808D-01 0.120D+00-0.972D+00 0.152D+01 0.967D+00 0.175D+01
 Coeff:     -0.162D+01-0.335D+00
 Gap=    -0.029 Goal=   None    Shift=    0.000
 Gap=    -0.029 Goal=   None    Shift=    0.000
 RMSDP=4.56D-01 MaxDP=9.27D+01 DE=-3.16D-01 OVMax= 9.96D-01

 Cycle  24  Pass 1  IDiag  1:
 RMSU=  1.17D-03    CP:  1.39D+00  1.01D+00  1.46D-01
 E= -885.454200140108     Delta-E=        0.314877942994 Rises=F Damp=F
 DIIS: error= 1.31D-02 at cycle  24 NSaved=  20.
 NSaved=20 IEnMin=19 EnMin= -885.769078083102     IErMin=19 ErrMin= 2.66D-03
 ErrMax= 1.31D-02  0.00D+00 EMaxC= 1.00D-01 BMatC= 3.42D-01 BMatP= 1.60D-02
 IDIUse=2 WtCom= 0.00D+00 WtEn= 1.00D+00
 EnCoef did   100 forward-backward iterations
 Rare condition: small coef for last iteration:  0.219D-14
 Coeff-En:   0.000D+00 0.000D+00 0.000D+00 0.000D+00 0.000D+00 0.000D+00
 Coeff-En:   0.000D+00 0.000D+00 0.000D+00 0.395D-03 0.000D+00 0.119D-03
 Coeff-En:   0.000D+00 0.173D-03 0.000D+00 0.000D+00 0.000D+00 0.000D+00
 Coeff-En:   0.812D+00 0.187D+00
 Coeff:      0.000D+00 0.000D+00 0.000D+00 0.000D+00 0.000D+00 0.000D+00
 Coeff:      0.000D+00 0.000D+00 0.000D+00 0.395D-03 0.000D+00 0.119D-03
 Coeff:      0.000D+00 0.173D-03 0.000D+00 0.000D+00 0.000D+00 0.000D+00
 Coeff:      0.812D+00 0.187D+00
 Gap=     0.026 Goal=   None    Shift=    0.000
 Gap=     0.026 Goal=   None    Shift=    0.000
 RMSDP=4.53D-01 MaxDP=9.21D+01 DE= 3.15D-01 OVMax= 9.93D-01

 Cycle  25  Pass 1  IDiag  1:
 RMSU=  3.47D-04    CP:  1.01D+00  9.26D-03  2.50D+00 -4.06D-03
 E= -885.770243813779     Delta-E=       -0.316043673670 Rises=F Damp=F
 DIIS: error= 2.75D-03 at cycle  25 NSaved=  20.
 NSaved=20 IEnMin=20 EnMin= -885.770243813779     IErMin=20 ErrMin= 2.75D-03
 ErrMax= 2.75D-03  0.00D+00 EMaxC= 1.00D-01 BMatC= 1.53D-02 BMatP= 1.60D-02
 IDIUse=3 WtCom= 9.73D-01 WtEn= 2.66D-02
 EnCoef did   100 forward-backward iterations
 Coeff-Com: -0.133D-01 0.840D-02-0.155D+00-0.247D+00-0.254D+00 0.328D+00
 Coeff-Com:  0.538D+00 0.214D+00-0.470D-01-0.390D+00 0.374D-01-0.509D-01
 Coeff-Com:  0.664D+00 0.537D+00-0.457D+00-0.611D+00 0.489D+01-0.760D+01
 Coeff-Com:  0.306D+01 0.547D+00
 Coeff-En:   0.000D+00 0.000D+00 0.000D+00 0.000D+00 0.000D+00 0.000D+00
 Coeff-En:   0.000D+00 0.000D+00 0.000D+00 0.409D-01 0.000D+00 0.130D-03
 Coeff-En:   0.000D+00 0.539D-03 0.000D+00 0.000D+00 0.000D+00 0.000D+00
 Coeff-En:   0.142D+00 0.816D+00
 Coeff:     -0.129D-01 0.818D-02-0.151D+00-0.241D+00-0.247D+00 0.320D+00
 Coeff:      0.524D+00 0.208D+00-0.458D-01-0.379D+00 0.364D-01-0.496D-01
 Coeff:      0.646D+00 0.522D+00-0.445D+00-0.595D+00 0.476D+01-0.740D+01
 Coeff:      0.298D+01 0.554D+00
 Gap=    -0.032 Goal=   None    Shift=    0.000
 Gap=    -0.032 Goal=   None    Shift=    0.000
 RMSDP=5.00D-01 MaxDP=1.05D+02 DE=-3.16D-01 OVMax= 9.91D-01

 Cycle  26  Pass 1  IDiag  1:
 RMSU=  1.28D-02    CP:  1.43D+00  1.11D+00  2.21D+00  3.00D+00 -1.46D+00
 E= -885.453103051540     Delta-E=        0.317140762239 Rises=F Damp=F
 DIIS: error= 1.31D-02 at cycle  26 NSaved=  20.
 NSaved=20 IEnMin=19 EnMin= -885.770243813779     IErMin=19 ErrMin= 2.75D-03
 ErrMax= 1.31D-02  0.00D+00 EMaxC= 1.00D-01 BMatC= 3.48D-01 BMatP= 1.53D-02
 IDIUse=2 WtCom= 0.00D+00 WtEn= 1.00D+00
 Coeff-En:   0.000D+00 0.000D+00 0.000D+00 0.000D+00 0.000D+00 0.000D+00
 Coeff-En:   0.000D+00 0.000D+00 0.000D+00 0.000D+00 0.000D+00 0.000D+00
 Coeff-En:   0.000D+00 0.000D+00 0.000D+00 0.000D+00 0.000D+00 0.000D+00
 Coeff-En:   0.817D+00 0.183D+00
 Coeff:      0.000D+00 0.000D+00 0.000D+00 0.000D+00 0.000D+00 0.000D+00
 Coeff:      0.000D+00 0.000D+00 0.000D+00 0.000D+00 0.000D+00 0.000D+00
 Coeff:      0.000D+00 0.000D+00 0.000D+00 0.000D+00 0.000D+00 0.000D+00
 Coeff:      0.817D+00 0.183D+00
 Gap=     0.026 Goal=   None    Shift=    0.000
 Gap=     0.026 Goal=   None    Shift=    0.000
 RMSDP=4.92D-01 MaxDP=1.03D+02 DE= 3.17D-01 OVMax= 9.82D-01

 Cycle  27  Pass 1  IDiag  1:
 RMSU=  3.90D-03    CP:  1.02D+00  2.69D-02  3.00D+00 -5.37D-02  1.18D+00
                    CP: -7.91D-03
 E= -885.772531276697     Delta-E=       -0.319428225157 Rises=F Damp=F
 DIIS: error= 2.32D-03 at cycle  27 NSaved=  20.
 NSaved=20 IEnMin=20 EnMin= -885.772531276697     IErMin=20 ErrMin= 2.32D-03
 ErrMax= 2.32D-03  0.00D+00 EMaxC= 1.00D-01 BMatC= 1.54D-02 BMatP= 1.53D-02
 IDIUse=3 WtCom= 9.77D-01 WtEn= 2.32D-02
 Large coefficients: NSaved= 20 BigCof=   15.08 CofMax=   10.00 Det=-4.55D-07
 Inversion failed.  Reducing to 19 matrices.
 Large coefficients: NSaved= 19 BigCof=   15.16 CofMax=   10.00 Det=-4.88D-07
 Inversion failed.  Reducing to 18 matrices.
 Coeff-Com: -0.493D-01-0.141D+00-0.324D+00 0.903D-01 0.868D+00 0.338D+00
 Coeff-Com: -0.648D+00 0.124D+00 0.881D+00 0.116D+01 0.423D+01-0.208D+01
 Coeff-Com: -0.279D+01-0.620D+01 0.400D+01 0.133D+00 0.636D+00 0.761D+00
 Coeff-En:   0.000D+00 0.000D+00 0.000D+00 0.000D+00 0.000D+00 0.000D+00
 Coeff-En:   0.000D+00 0.000D+00 0.000D+00 0.000D+00 0.000D+00 0.000D+00
 Coeff-En:   0.000D+00 0.000D+00 0.000D+00 0.000D+00 0.174D+00 0.826D+00
 Coeff:     -0.482D-01-0.137D+00-0.317D+00 0.882D-01 0.848D+00 0.330D+00
 Coeff:     -0.633D+00 0.121D+00 0.861D+00 0.114D+01 0.413D+01-0.203D+01
 Coeff:     -0.273D+01-0.605D+01 0.390D+01 0.130D+00 0.625D+00 0.763D+00
 Gap=    -0.015 Goal=   None    Shift=    0.000
 Gap=    -0.015 Goal=   None    Shift=    0.000
 RMSDP=5.57D-01 MaxDP=1.16D+02 DE=-3.19D-01 OVMax= 9.71D-01

 Cycle  28  Pass 1  IDiag  1:
 RMSU=  1.78D-02    CP:  1.45D+00  1.25D+00  7.42D-01  3.00D+00  3.00D+00
                    CP:  6.12D-01  3.19D-01
 E= -885.479368250440     Delta-E=        0.293163026257 Rises=F Damp=F
 DIIS: error= 1.20D-02 at cycle  28 NSaved=  19.
 NSaved=19 IEnMin=18 EnMin= -885.772531276697     IErMin=18 ErrMin= 2.32D-03
 ErrMax= 1.20D-02  0.00D+00 EMaxC= 1.00D-01 BMatC= 2.98D-01 BMatP= 1.53D-02
[...]
 017,0.00000235,0.00000178,0.00000202,-0.00000689,0.00000294,-0.0000149
 1,0.00000355,0.00000074,0.00000352,-0.00002899,-0.00003766,-0.00002478
 ,-0.00003267,-0.00002712,-0.00000655,0.00019243,0.00019328,-0.00010018
 ,0.00002506,0.00000371,0.00012145,-0.00106951,0.00075504,-0.00069204,0
 .00046456,0.00028080,-0.00053182,0.00578704,-0.05308156,0.03337736,-0.
 00335197,0.00224098,-0.02197781,-0.00828855,0.05481919,-0.00001018,0.0
 0000218,0.00002623,-0.00001309,0.00003846,-0.00002277,0.00001641,-0.00
 003317,0.00002646,0.00002413,0.00005643,-0.00009748,0.00006374,-0.0000
 8270,-0.00002275,-0.00000989,0.00001055,0.00000335,0.00000168,-0.00009
 392,0.00007680,-0.00004201,0.00003227,0.00002575,-0.00002378,-0.000018
 30,0.00007471,-0.00005282,0.00013994,-0.00005813,-0.00002354,0.0001009
 7,-0.00005831,0.00006009,-0.00015041,0.00007874,-0.00000119,0.00000339
 ,-0.00000249,-0.00000611,0.00000499,0.00000416,-0.00000549,-0.00000371
 ,0.00000847,0.00000115,-0.00000596,0.00000093,0.00000920,0.00000369,-0
 .00001855,0.00004296,0.00002535,0.00002437,-0.00011259,-0.00003397,-0.
 00003868,-0.00006251,0.00004972,0.00056059,0.00072095,-0.00021280,0.00
 025541,-0.00214709,0.00087511,-0.00646959,-0.00000545,0.00000283,0.000
 00933,0.00000652,-0.00000386,-0.00000544,-0.00000329,-0.00000402,-0.00
 000240,-0.00001616,0.00000829,0.00002652,-0.00000025,0.00000851,-0.000
 00042,0.00027214,-0.00002004,0.00000471,-0.00000314,-0.00000468,-0.000
 03512,-0.00040234,0.00036736,0.00074574,-0.00003665,-0.00001857,0.0000
 0007,-0.00111299,-0.00074400,0.00096870,-0.00020209,-0.00046008,0.0004
 7431,-0.04615840,0.03287183,-0.27828739,-0.00184981,0.00184413,-0.0175
 7576,0.05002950,-0.03411436,0.30623365,-0.00000717,0.,0.00000992,0.000
 00158,0.00001551,-0.00000502,0.00000376,-0.00001486,0.00000618,0.00001
 356,0.00002512,-0.00005098,0.00001674,-0.00001985,-0.00001056,-0.00000
 224,0.00000235,0.00000670,0.00001165,-0.00007018,0.00003006,-0.0000329
 3,-0.00000485,0.00005665,-0.00000648,0.00000307,0.00002525,-0.00000813
 ,0.00002362,0.00001359,-0.00000537,0.00007785,-0.00003818,0.00001277,-
 0.00001057,0.00000462,-0.00000268,0.00000101,-0.00000156,-0.00000284,0
 .00000181,0.00000097,-0.00000084,-0.00000092,0.00000203,-0.00000047,-0
 .00000205,-0.00000150,0.00004305,0.00003018,-0.00004039,0.00002845,-0.
 00001565,-0.00000718,0.00005336,0.00011183,-0.00005954,-0.00026041,0.0
 0009907,-0.00008162,0.00177212,-0.00180186,-0.00020471,-0.01065858,-0.
 03158713,0.00808878,-0.00002313,-0.00000337,0.00000847,-0.00000108,-0.
 00000489,0.00000221,0.00001144,0.00000734,-0.00000429,-0.00000681,-0.0
 0000346,0.00000691,-0.00003930,0.00007028,0.00001695,0.00001613,-0.000
 04138,0.00000823,0.00025975,0.00029506,-0.00005634,-0.00006274,0.00010
 334,0.00005586,-0.00016077,0.00117133,0.00004792,0.00144123,0.00044773
 ,-0.00018337,-0.00631838,-0.00082543,-0.00118345,-0.05890595,-0.053891
 92,0.01207644,0.00356247,0.02036175,-0.00428785,0.00095328,0.00601474,
 -0.00111685,0.06892061,-0.00001350,0.00000521,0.00002443,-0.00000582,0
 .00002981,-0.00001894,0.00000706,-0.00002771,0.00002020,0.00002584,0.0
 0004720,-0.00009208,0.00004514,-0.00005748,-0.00001568,-0.00000296,0.0
 0000874,0.00000257,0.00002190,-0.00013134,0.00007383,-0.00007027,0.000
 01425,0.00007902,-0.00000920,-0.00000621,0.00004904,-0.00003407,0.0000
 6570,-0.00002003,-0.00002399,0.00013679,-0.00008185,0.00002523,-0.0000
 6700,0.00003056,-0.00000216,0.00000392,-0.00000224,-0.00000604,0.00000
 512,0.00000431,-0.00000315,-0.00000266,0.00000642,0.00000173,-0.000003
 71,-0.00000093,0.00003823,0.00002678,-0.00006906,0.00003517,0.00003072
 ,0.00002427,-0.00011235,-0.00005728,-0.00002680,-0.00002873,0.00055919
 ,-0.00002417,0.00070959,0.00031514,-0.00019596,-0.00221944,-0.00579581
 ,0.00126164,-0.00001780,0.00000366,0.00001888,-0.00000085,-0.00000504,
 -0.00000769,0.00000389,-0.00000440,-0.00000110,-0.00000220,0.00000219,
 0.00000698,-0.00000754,0.00003243,-0.00000017,-0.00000596,-0.00003548,
 -0.00000107,0.00026103,-0.00002212,-0.00000946,-0.00002913,0.00000899,
 -0.00002324,-0.00037432,0.00075644,0.00028640,-0.00017776,0.00036069,-
 0.00047128,-0.00096155,0.00088874,-0.00076635,-0.05388545,-0.26632832,
 0.05186902,-0.00302594,-0.01991952,0.00399544,-0.00079023,-0.00455865,
 0.00212221,0.05821510,0.29365266,-0.00000177,-0.00000661,-0.00000060,0
 .00000312,0.00000120,0.00000321,-0.00000431,-0.00000604,0.00000129,0.0
 0000396,0.00001044,-0.00001477,-0.00000611,-0.00000742,0.00000052,0.00
 000364,0.00000237,0.00000171,0.00002496,-0.00001852,-0.00002109,-0.000
 00599,0.00002564,0.00002055,-0.00000160,-0.00003667,-0.00000375,-0.000
 00953,0.00002259,-0.00000291,-0.00001265,0.00001426,0.00000369,0.00001
 692,-0.00002840,0.00001479,0.00000044,-0.00000051,-0.00000151,-0.00000
 051,0.00000109,0.00000048,0.00000046,0.00000027,0.00000252,-0.00000121
 ,-0.00000136,0.00000016,0.00000771,0.00000910,-0.00000012,-0.00003677,
 -0.00001842,0.00000190,0.00007798,0.00009320,-0.00005194,0.00006191,-0
 .00024356,0.00001211,0.00019575,0.00045301,0.00002970,-0.00186411,-0.0
 0578959,0.00085155,-0.00000520,-0.00000716,-0.00000062,0.00000227,0.00
 000164,0.00000429,-0.00000776,0.00000186,-0.00000285,0.00000455,0.0000
 0561,-0.00000195,-0.00000189,-0.00002448,-0.00000016,-0.00002915,-0.00
 000894,-0.00002601,-0.00004431,-0.00001602,-0.00003970,0.00002164,0.00
 012853,-0.00000253,0.00021938,-0.00013096,0.00018376,0.00050945,-0.000
 53588,0.00039438,-0.00121926,-0.00068700,0.00082481,0.01207061,0.05235
 239,-0.06080822,-0.00379601,-0.01904896,0.00371313,0.00736935,0.030413
 68,-0.00751745,-0.01480156,-0.05541476,0.06276567,-0.00004659,0.000015
 93,0.00008954,-0.00002443,0.00008926,-0.00007562,0.00002890,-0.0000914
 7,0.00006817,0.00005495,0.00011493,-0.00030642,0.00017120,-0.00019473,
 -0.00006780,-0.00001995,0.00002004,-0.00000044,0.00015146,-0.00038618,
 0.00020604,-0.00023159,0.00021273,0.00014970,-0.00000259,-0.00011511,0
 .00021911,-0.00012640,0.00031857,-0.00013795,-0.00011077,0.00036484,-0
 .00023337,0.00015559,-0.00039747,0.00015418,-0.00000005,0.00000961,-0.
 00000830,-0.00001697,0.00001595,0.00001445,-0.00000706,-0.00000825,0.0
 0002442,0.00000460,-0.00001242,0.00000441,0.00007429,-0.00000092,-0.00
 014326,0.00001065,0.00002435,0.00000068,0.00000759,0.00001388,-0.00001
 255,0.00005767,-0.00016437,-0.00003478,-0.00007321,0.00018159,0.000161
 29,0.00165247,0.00105623,-0.00100542,-0.00003869,0.00002634,0.00004676
 ,0.00000256,-0.00000195,-0.00001728,-0.00000177,-0.00002617,0.00001799
 ,-0.00000526,-0.00000701,0.00000392,-0.00000383,-0.00000598,0.00000927
 ,0.00000132,0.00001842,0.00001921,-0.00005798,-0.00003987,-0.00000052,
 0.00000778,-0.00000625,-0.00000680,-0.00004332,-0.00027497,-0.00000569
 ,-0.00000812,-0.00003329,0.00000142,-0.00024716,-0.00048077,0.00022081
 ,0.00314572,0.01900234,-0.00469600,-0.05543733,-0.04722509,0.01092322,
 0.00065918,-0.00073745,-0.00035135,-0.00183148,0.00261164,0.00216388,0
 .05750547,0.00001272,-0.00000063,-0.00001945,0.00000219,-0.00001813,0.
 00001445,0.00000004,0.00001959,-0.00002141,-0.00002651,-0.00003348,0.0
 0007224,-0.00001688,0.00005773,0.00000838,0.00000008,-0.00000484,0.000
 00888,-0.00006368,0.00012989,-0.00002243,0.00008488,-0.00008190,-0.000
 07152,-0.00002137,0.00005733,-0.00002904,0.00001866,-0.00008067,0.0000
 2349,0.00004140,-0.00010925,0.00006062,-0.00003217,0.00010393,-0.00004
 305,-0.00000051,-0.00000212,0.00000335,0.00000443,-0.00000479,-0.00000
 455,0.00000204,0.00000188,-0.00000724,-0.00000236,0.00000295,-0.000001
 70,-0.00002453,-0.00000741,0.00005472,0.00003148,-0.00003021,-0.000003
 69,0.00002277,-0.00001573,-0.00000443,-0.00001977,0.00004077,-0.000064
 71,0.00035820,0.00031779,-0.00017981,-0.00132538,0.00029746,0.00047168
 ,0.00000964,-0.00000311,-0.00001597,-0.00000127,0.00000043,0.00000827,
 -0.00000191,0.00001118,-0.00000412,-0.00000239,-0.00000449,-0.00000025
 ,-0.00000232,0.00000967,0.00000409,0.00000831,-0.00000210,0.00001072,0
 .00006191,0.00002313,-0.00000827,-0.00001918,-0.00001908,0.00000870,-0
 .00020632,0.00025246,0.00006704,0.00007494,0.00001869,-0.00000014,0.00
 101458,0.00061172,-0.00009134,-0.00391214,-0.01919669,0.00408442,-0.04
 619273,-0.27551142,0.05380221,-0.00025405,0.00065598,-0.00017602,0.002
 69961,-0.00157470,-0.00268079,0.04956301,0.30267961,0.00001156,-0.0000
 0334,-0.00001297,0.00000466,-0.00000654,0.00001279,-0.00000368,0.00000
 814,-0.00000730,-0.00002288,-0.00003635,0.00001836,0.00000476,0.000028
 80,0.00003216,0.00000235,0.00000152,0.00000670,-0.00001142,0.00007280,
 -0.00003218,0.00001069,-0.00000875,-0.00002929,0.00002735,0.00001249,-
 0.00000974,0.00000519,-0.00002289,0.00000457,0.00002566,-0.00005603,0.
 00003988,-0.00000903,0.00003121,0.00000107,-0.00000119,-0.00000162,0.0
 0000167,0.00000132,-0.00000261,-0.00000401,-0.00000189,0.00000130,-0.0
 0000203,-0.00000287,-0.00000168,-0.00000239,-0.00001460,-0.00000826,0.
 00004467,-0.00002786,-0.00001020,-0.00001629,0.00000083,0.00000487,0.0
 0000797,-0.00005566,0.00012820,-0.00009883,-0.00009448,-0.00016707,-0.
 00005255,-0.00100053,0.00025261,0.00042641,0.00000707,-0.00000190,-0.0
 0001367,0.00000831,0.00000086,0.00001926,0.00000754,0.00000879,-0.0000
 0182,-0.00000371,0.00000214,0.00001162,-0.00000358,0.00000502,-0.00001
 239,0.00001719,-0.00000984,0.00003289,0.00003661,0.00001320,0.00000163
 ,-0.00001401,-0.00000012,0.00000960,-0.00000912,0.00013687,-0.00003965
 ,0.00016794,0.00007870,0.00008996,0.00010987,0.00037773,0.00008818,-0.
 00360643,-0.01896211,0.00401706,0.01012463,0.05432012,-0.05953642,-0.0
 0098032,0.00024817,0.00083633,0.00262601,-0.00260738,-0.00127926,-0.01
 373141,-0.05732646,0.06138225,0.00003100,-0.00001880,-0.00004806,-0.00
 001295,-0.00000935,0.00003174,0.00000890,0.00001491,-0.00004261,-0.000
 06643,-0.00000816,0.00011230,0.00003092,0.00007655,0.00001405,-0.00002
 661,-0.00001058,0.00002275,-0.00024607,0.00033619,0.00001001,0.0002458
 7,-0.00034234,-0.00020493,-0.00014327,0.00017095,-0.00003544,-0.000004
 67,-0.00005526,0.00003854,0.00009916,-0.00023820,0.00014865,-0.0000815
 5,0.00014010,-0.00006622,-0.00000237,-0.00000076,0.00000811,0.00000800
 ,-0.00000580,-0.00000792,0.00000471,0.00000494,-0.00000741,-0.00000004
 ,0.00000547,-0.00000387,-0.00007973,0.00000655,0.00015584,0.00021240,0
 .00006300,0.00003987,-0.00021788,-0.00022017,-0.00024076,-0.00014283,0
 .00048576,0.00044852,-0.00072195,-0.00100408,-0.00093193,-0.00010985,0
 .00359194,0.00325078,0.00003459,-0.00001941,-0.00003429,-0.00001531,-0
 .00000095,-0.00000270,-0.00001582,0.00000378,-0.00000567,0.00001732,0.
 00000388,-0.00000310,0.00001008,0.00000794,0.00000377,0.00000744,0.000
 00744,-0.00004886,0.00000789,-0.00004193,0.00000727,0.00001339,-0.0000
 0513,0.00007515,0.00000986,0.00008194,-0.00000735,0.00023942,0.0000629
 4,-0.00015604,0.00025589,-0.00013742,0.00008615,-0.01626647,-0.0035578
 9,-0.00371317,-0.28307360,-0.04200765,-0.04532652,0.00053871,-0.000232
 62,0.00024509,0.00056893,0.00021876,-0.00021625,-0.00557916,-0.0010887
 7,-0.00108915,0.30887507,0.00001995,0.00001447,-0.00003764,0.00001920,
 -0.00006729,0.00003091,-0.00000649,0.00006723,-0.00004875,-0.00003590,
 -0.00007802,0.00020555,-0.00010729,0.00016002,-0.00001732,0.00002190,-
 0.00001216,0.00000446,-0.00009623,0.00018687,-0.00007883,0.00011599,-0
 .00012973,-0.00014369,-0.00000582,0.00010694,-0.00006173,0.00007287,-0
 .00026231,0.00006586,0.00008688,-0.00020882,0.00011312,-0.00006570,0.0
 0024794,-0.00012259,0.00000379,-0.00000767,0.00000621,0.00001333,-0.00
 001589,-0.00001024,0.00000455,0.00000071,-0.00002855,-0.00000313,0.000
 01386,0.00000216,0.00001252,-0.00000100,0.00007145,0.00006151,-0.00008
 352,0.00000504,0.00009641,0.00005401,0.00007538,0.00012763,-0.00028464
 ,-0.00032764,0.00125229,0.00067089,0.00028405,0.00117439,-0.00278408,-
 0.00277949,-0.00000745,-0.00000198,-0.00002302,-0.00000248,0.00000233,
 -0.00000179,-0.00000951,0.00002452,0.00000131,-0.00000691,-0.00001131,
 -0.00001234,0.00000224,0.00000265,0.00001104,-0.00002769,-0.00002666,0
 .00000006,0.00000928,0.00005329,-0.00001609,0.00000580,0.00002798,-0.0
 0009530,-0.00010365,0.00004169,0.00006994,-0.00031513,-0.00011959,-0.0
 0010982,0.00038308,0.00038514,-0.00018934,0.02113173,0.00392421,0.0051
 5962,-0.04217797,-0.05371810,-0.00752913,-0.00082684,0.00045937,0.0001
 6357,-0.00046178,0.00075406,0.00094804,-0.02966909,-0.00494296,-0.0067
 5175,0.04452956,0.05571394,0.00002154,0.00000048,-0.00003604,0.0000122
 1,-0.00005779,0.00003240,0.00000923,0.00006279,-0.00003636,-0.00002060
 ,-0.00003448,0.00021474,-0.00011613,0.00011079,-0.00003593,-0.00000960
 ,-0.00002576,-0.00000951,-0.00014660,0.00024285,-0.00012745,0.00016311
 ,-0.00011490,-0.00025710,-0.00000474,0.00008527,-0.00000979,0.00008501
 ,-0.00010197,0.00003705,0.00008120,-0.00026708,0.00018339,-0.00002407,
 0.00012266,-0.00006365,0.00000507,-0.00001100,0.00000309,0.00001309,-0
 .00001495,-0.00000986,0.00000408,0.00000102,-0.00002024,-0.00000345,0.
 00001013,0.00000498,-0.00001627,-0.00003256,0.00019798,0.00006252,-0.0
 0001405,-0.00009020,0.00009655,0.00008088,0.00004906,0.00009274,-0.000
 38331,-0.00019201,0.00109773,0.00023252,0.00062887,0.00104645,-0.00265
 841,-0.00217108,0.00001028,-0.00001464,-0.00004823,-0.00000750,-0.0000
 0911,0.00002080,-0.00000612,-0.00000513,0.00000597,-0.00000370,-0.0000
 0045,0.00000665,-0.00000610,-0.00002025,0.00000263,0.00001457,-0.00001
 221,0.00006413,-0.00002269,-0.00000527,-0.00001891,-0.00010051,0.00008
 023,0.00004236,0.00001449,-0.00009640,0.00003279,0.00039942,-0.0001464
 5,0.00042452,-0.00034730,-0.00015100,-0.00009513,0.01874252,0.00443205
 ,0.00351651,-0.04553505,-0.00759053,-0.05507783,-0.00036305,0.00098213
 ,0.00063632,-0.00079431,0.00017566,0.00032002,0.00759603,0.00111891,0.
 00057435,0.04845644,0.01034281,0.05672387,-0.00004870,0.00002268,0.000
 08898,-0.00001986,0.00008863,-0.00007721,0.00001747,-0.00009372,0.0000
 6117,0.00006161,0.00009966,-0.00031041,0.00016907,-0.00018530,-0.00006
 268,0.00000040,0.00003200,0.00001125,0.00016607,-0.00043884,0.00023105
 ,-0.00025633,0.00022256,0.00023363,-0.00001979,-0.00011538,0.00018306,
 -0.00012469,0.00024410,-0.00012713,-0.00010590,0.00040813,-0.00028247,
 0.00013613,-0.00033267,0.00013228,-0.00000147,0.00001163,-0.00000697,-
 0.00001738,0.00001644,0.00001482,-0.00000623,-0.00000773,0.00002205,0.
 00000347,-0.00001206,0.00000060,0.00009290,0.00001883,-0.00022490,0.00
 001169,-0.00000167,0.00005048,-0.00000299,0.00002204,-0.00002671,0.000
 06732,-0.00005518,-0.00009713,-0.00008692,0.00016422,0.00015805,0.0015
 7910,-0.00088300,0.00117566,-0.00004835,0.00003545,0.00006305,0.000004
 07,0.00000580,-0.00003031,-0.00000460,-0.00001161,0.00001340,-0.000009
 79,-0.00001286,-0.00000896,0.00000200,0.00000675,0.00000640,-0.0000572
 0,-0.00001062,-0.00004965,0.00000256,0.00001600,0.00001332,-0.00002853
 ,-0.00003721,-0.00027530,0.00000896,-0.00000716,-0.00000636,-0.0002610
 3,0.00018148,-0.00052360,0.00000478,-0.00000391,-0.00004065,0.00236725
 ,-0.00293409,0.01938502,-0.05210798,0.00526101,-0.03907731,-0.00182544
 ,0.00249463,0.00227550,0.00064690,-0.00040990,-0.00069202,0.00022232,-
 0.00079665,0.00748429,-0.00441296,0.00478413,-0.03049646,0.05388207,0.
 00001132,-0.00000543,-0.00001389,0.00000673,-0.00001073,0.00001559,0.0
 0000124,0.00001216,-0.00001025,-0.00001289,-0.00002723,0.00002894,-0.0
 0001316,0.00003591,0.00002252,-0.00000586,-0.00000954,0.00000647,-0.00
 001381,0.00005667,-0.00005284,0.00001208,-0.00002505,-0.00000159,0.000
 01833,0.00001804,-0.00003160,0.00002520,-0.00003167,0.00004368,0.00002
 426,-0.00004432,0.00004057,-0.00001887,0.00006497,-0.00002602,-0.00000
 239,-0.00000232,0.00000086,0.00000165,-0.00000290,-0.00000413,0.000000
 69,0.00000196,-0.00000374,-0.00000344,0.00000018,-0.00000243,0.0000058
 9,0.00000752,0.00002421,-0.00002571,-0.00001088,-0.00002111,0.00000712
 ,0.00002967,-0.00001829,-0.00007152,-0.00007408,0.00013010,-0.00005802
 ,-0.00009777,-0.00012152,-0.00115702,0.00055076,0.00016474,0.00000100,
 -0.00000555,-0.00000819,0.00000409,-0.00000034,0.00001097,0.00001125,0
 .00001445,-0.00000224,-0.00000214,-0.00000240,0.00000704,-0.00000532,0
 .00001334,-0.00001198,0.00004646,0.00000143,0.00001907,0.00002221,0.00
 002693,-0.00001445,-0.00003426,-0.00001608,0.00016941,-0.00001750,0.00
 001124,-0.00000090,0.00020141,0.00010910,0.00045079,0.00017175,0.00008
 984,0.00007821,-0.00323609,0.00252352,-0.02176145,0.00453426,-0.051370
 96,0.03381823,0.00296335,-0.00196687,-0.00255123,-0.00101755,0.0008890
 4,0.00022711,0.00621916,-0.00364848,0.03025138,-0.00080731,-0.00015639
 ,-0.00631349,-0.00778659,0.05305225,0.00000921,-0.00000452,-0.00001331
 ,0.00000089,-0.00000899,0.00001063,0.00000214,0.00000762,-0.00001840,-
 0.00001923,-0.00001194,0.00005660,-0.00000706,0.00003260,-0.00000687,-
 0.00000208,-0.00000351,0.00001311,-0.00006338,0.00010611,-0.00002587,0
 .00007319,-0.00006712,-0.00008178,-0.00002240,0.00003981,-0.00000079,0
 .00000394,-0.00001710,0.00000842,0.00003438,-0.00009404,0.00006159,-0.
 00000566,0.00004101,-0.00001752,-0.00000029,-0.00000244,0.00000150,0.0
 0000343,-0.00000352,-0.00000310,0.00000281,0.00000162,-0.00000436,-0.0
 0000325,0.00000174,-0.00000097,-0.00002236,-0.00000686,0.00006451,0.00
 003303,-0.00000396,-0.00003201,0.00002287,0.00000489,-0.00002217,-0.00
 001818,-0.00006382,0.00003424,0.00034588,-0.00015407,0.00037602,-0.001
 16715,0.00047003,0.00021208,0.00001094,-0.00000563,-0.00001629,-0.0000
 0369,-0.00000164,0.00000992,-0.00000171,0.00000533,-0.00000155,0.00000
 001,-0.00000026,0.00000507,-0.00000370,-0.00000166,-0.00000339,0.00005
 727,-0.00000770,0.00002385,0.00000713,0.00000847,-0.00000137,-0.000208
 15,0.00010190,0.00021362,-0.00001626,0.00000634,-0.00001944,0.00096006
 ,-0.00006279,0.00060346,0.00005328,-0.00001016,0.00001750,-0.00278296,
 0.00195421,-0.01700287,-0.03801365,0.03336094,-0.28672701,0.00231532,-
 0.00265042,-0.00088892,-0.00016448,-0.00020065,0.00062521,-0.00125954,
 0.00095426,-0.00650857,-0.00096276,0.00082448,-0.00542318,0.04081219,-
 0.03453857,0.31448237\\-0.00000013,-0.00000014,0.00000349,-0.00000005,
 0.00000110,-0.00000056,0.00000138,-0.00000126,-0.00000086,-0.00000165,
 -0.00000126,-0.00000320,0.00000390,-0.00000284,-0.00000182,-0.00000425
 ,0.00000422,0.00000521,-0.00000461,0.00000277,0.00000071,0.00000443,0.
 00000291,-0.00000173,-0.00000174,-0.00000365,0.00000407,-0.00000008,0.
 00000614,-0.00000217,0.00000092,-0.00000137,-0.00000131,0.00000240,-0.
 00000660,0.00000270,-0.00000025,0.00000032,-0.00000120,0.,0.00000115,-
 0.00000129,0.00000191,-0.00000050,0.00000036,0.00000163,-0.00000064,-0
 .00000067,-0.00000472,-0.00000363,0.00000003,0.00000179,0.00000344,0.0
 0000152,0.00000458,-0.00000059,0.00000389,-0.00000124,0.00000055,-0.00
 000103,0.00000108,-0.00000209,-0.00000079,0.00000023,0.00000146,0.0000
 0109,0.00000023,0.00000412,-0.00000184,-0.00000277,-0.00000245,0.00000
 224,0.00000011,-0.00000291,-0.00000192,-0.00000132,-0.00000030,-0.0000
 0158,-0.00000178,0.00000107,-0.00000083,0.00000024,-0.00000105,0.00000
 039,0.00000035,-0.00000045,0.00000034,0.00000008,0.00000089,-0.0000001
 4,-0.00000060,0.00000073,-0.00000037,-0.00000014,-0.00000063,-0.000000
 43,-0.00000006,-0.00000016,0.,0.00000009,-0.00000073,-0.00000159,-0.00
 000044,0.00000100,0.00000008,0.00000022,0.00000087,-0.00000006,-0.0000
 0013,0.00000042,-0.00000010,0.00000035,0.00000030,0.00000013,0.0000003
 7,0.00000009,-0.00000041,-0.00000033,-0.00000029,-0.00000033\\\@


 THEREFORE SHALL EVIL COME UPON THEE...
 THOU SHALT NOT KNOW FROM WHENCE IT RISETH...
 AND MISCHIEF SHALL FALL UPON THEE...
 THOU SHALT NOT BE ABLE TO PUT IT OFF...
 AND DESOLATION SHALL COME UPON THEE SUDDENLY...
 WHICH THOU SHALT NOT KNOW...

                                         ISAIAH 47.11
 Job cpu time:       1 days  0 hours  1 minutes 25.2 seconds.
 Elapsed time:       0 days  3 hours  0 minutes 20.1 seconds.
 File lengths (MBytes):  RWF=   2367 Int=      0 D2E=      0 Chk=     36 Scr=      1
 Normal termination of Gaussian 16 at Mon Jan  8 05:06:32 2024.
