 Entering Gaussian System, Link 0=g16
 Input=255-PCM.com
 Output=255-PCM.log
 Initial command:
 /sysapps/ubuntu-applications/gaussian/Gaussian/AVX2/g16/l1.exe "/scratch/selhajj1/4304430/Gau-670379.inp" -scrdir="/scratch/selhajj1/4304430/"
 Entering Link 1 = /sysapps/ubuntu-applications/gaussian/Gaussian/AVX2/g16/l1.exe PID=    670385.
  
 Copyright (c) 1988,1990,1992,1993,1995,1998,2003,2009,2016,
            Gaussian, Inc.  All Rights Reserved.
  
 This is part of the Gaussian(R) 16 program.  It is based on
 the Gaussian(R) 09 system (copyright 2009, Gaussian, Inc.),
 the Gaussian(R) 03 system (copyright 2003, Gaussian, Inc.),
 the Gaussian(R) 98 system (copyright 1998, Gaussian, Inc.),
 the Gaussian(R) 94 system (copyright 1995, Gaussian, Inc.),
 the Gaussian 92(TM) system (copyright 1992, Gaussian, Inc.),
 the Gaussian 90(TM) system (copyright 1990, Gaussian, Inc.),
 the Gaussian 88(TM) system (copyright 1988, Gaussian, Inc.),
 the Gaussian 86(TM) system (copyright 1986, Carnegie Mellon
 University), and the Gaussian 82(TM) system (copyright 1983,
 Carnegie Mellon University). Gaussian is a federally registered
 trademark of Gaussian, Inc.
  
 This software contains proprietary and confidential information,
 including trade secrets, belonging to Gaussian, Inc.
  
 This software is provided under written license and may be
 used, copied, transmitted, or stored only in accord with that
 written license.
  
 The following legend is applicable only to US Government
 contracts under FAR:
  
                    RESTRICTED RIGHTS LEGEND
  
 Use, reproduction and disclosure by the US Government is
 subject to restrictions as set forth in subparagraphs (a)
 and (c) of the Commercial Computer Software - Restricted
 Rights clause in FAR 52.227-19.
  
 Gaussian, Inc.
 340 Quinnipiac St., Bldg. 40, Wallingford CT 06492
  
  
 ---------------------------------------------------------------
 Warning -- This program may not be used in any manner that
 competes with the business of Gaussian, Inc. or will provide
 assistance to any competitor of Gaussian, Inc.  The licensee
 of this program is prohibited from giving any competitor of
 Gaussian, Inc. access to this program.  By using this program,
 the user acknowledges that Gaussian, Inc. is engaged in the
 business of creating and licensing software in the field of
 computational chemistry and represents and warrants to the
 licensee that it is not a competitor of Gaussian, Inc. and that
 it will not use this program in any manner prohibited above.
 ---------------------------------------------------------------
  

 Cite this work as:
 Gaussian 16, Revision A.03,
 M. J. Frisch, G. W. Trucks, H. B. Schlegel, G. E. Scuseria, 
 M. A. Robb, J. R. Cheeseman, G. Scalmani, V. Barone, 
 G. A. Petersson, H. Nakatsuji, X. Li, M. Caricato, A. V. Marenich, 
 J. Bloino, B. G. Janesko, R. Gomperts, B. Mennucci, H. P. Hratchian, 
 J. V. Ortiz, A. F. Izmaylov, J. L. Sonnenberg, D. Williams-Young, 
 F. Ding, F. Lipparini, F. Egidi, J. Goings, B. Peng, A. Petrone, 
 T. Henderson, D. Ranasinghe, V. G. Zakrzewski, J. Gao, N. Rega, 
 G. Zheng, W. Liang, M. Hada, M. Ehara, K. Toyota, R. Fukuda, 
 J. Hasegawa, M. Ishida, T. Nakajima, Y. Honda, O. Kitao, H. Nakai, 
 T. Vreven, K. Throssell, J. A. Montgomery, Jr., J. E. Peralta, 
 F. Ogliaro, M. J. Bearpark, J. J. Heyd, E. N. Brothers, K. N. Kudin, 
 V. N. Staroverov, T. A. Keith, R. Kobayashi, J. Normand, 
 K. Raghavachari, A. P. Rendell, J. C. Burant, S. S. Iyengar, 
 J. Tomasi, M. Cossi, J. M. Millam, M. Klene, C. Adamo, R. Cammi, 
 J. W. Ochterski, R. L. Martin, K. Morokuma, O. Farkas, 
 J. B. Foresman, and D. J. Fox, Gaussian, Inc., Wallingford CT, 2016.
 
 ******************************************
 Gaussian 16:  ES64L-G16RevA.03 25-Dec-2016
                21-Jan-2024 
 ******************************************
 %chk=255-PCM.chk
 %nproc=8
 Will use up to    8 processors via shared memory.
 %mem=30GB
 ----------------------------------------------------------------
 #P UB3LYP/6-311++G(d,p) SCRF=(PCM,Solvent=n,n-DiMethylFormamide)
 ----------------------------------------------------------------
 1/38=1,172=1/1;
 2/12=2,17=6,18=5,40=1/2;
 3/5=4,6=6,7=1111,11=2,25=1,30=1,70=2201,72=148,74=-5,116=2/1,2,3;
 4//1;
 5/5=2,38=5,53=148/2;
 6/7=2,8=2,9=2,10=2,28=1/1;
 99/5=1,9=1/99;
 Leave Link    1 at Sun Jan 21 07:55:53 2024, MaxMem=  4026531840 cpu:               0.8 elap:               0.2
 (Enter /sysapps/ubuntu-applications/gaussian/Gaussian/AVX2/g16/l101.exe)
 ------------------
 Quinone PCM in DMF
 ------------------
 Symbolic Z-matrix:
 Charge =  0 Multiplicity = 1
 C                    -1.64107   2.79822   0.07313 
 C                    -2.90087   2.21423   0.08866 
 C                    -3.02197   0.82846   0.06912 
 C                    -0.5084    1.9866    0.03818 
 C                    -0.62478   0.58248   0.01831 
 C                    -1.90641  -0.01818   0.03378 
 C                     0.82777   2.6554    0.02243 
 C                     2.05817   1.81362  -0.01428 
 C                     1.95372   0.46436  -0.03095 
 C                     0.62482  -0.22754  -0.01846 
 O                     0.90956   3.87502   0.03957 
 O                     0.60507  -1.45115  -0.03919 
 C                     3.37214   2.55123  -0.02994 
 C                     3.13643  -0.46057  -0.06693 
 C                    -2.14518  -1.50764   0.01467 
 H                    -1.51091   3.87261   0.08744 
 H                    -3.78968   2.83458   0.11593 
 H                    -4.01011   0.38119   0.08152 
 H                     3.19606   3.62511  -0.01792 
 H                     3.9531    2.30452  -0.92304 
 H                     3.98185   2.29057   0.83989 
 H                     4.08052   0.07983  -0.05169 
 H                     3.10135  -1.08783  -0.96229 
 H                     3.10623  -1.1494    0.78157 
 H                    -1.6772   -2.00186   0.86817 
 H                    -1.71248  -1.97364  -0.87259 
 H                    -3.218    -1.71042   0.03318 
 
 ITRead=  0  0  0  0  0  0  0  0  0  0  0  0  0  0  0  0  0  0  0  0
 ITRead=  0  0  0  0  0  0  0
 MicOpt= -1 -1 -1 -1 -1 -1 -1 -1 -1 -1 -1 -1 -1 -1 -1 -1 -1 -1 -1 -1
 MicOpt= -1 -1 -1 -1 -1 -1 -1
 NAtoms=     27 NQM=       27 NQMF=       0 NMMI=      0 NMMIF=      0
                NMic=       0 NMicF=      0.
                    Isotopes and Nuclear Properties:
 (Nuclear quadrupole moments (NQMom) in fm**2, nuclear magnetic moments (NMagM)
  in nuclear magnetons)

  Atom         1           2           3           4           5           6           7           8           9          10
 IAtWgt=          12          12          12          12          12          12          12          12          12          12
 AtmWgt=  12.0000000  12.0000000  12.0000000  12.0000000  12.0000000  12.0000000  12.0000000  12.0000000  12.0000000  12.0000000
 NucSpn=           0           0           0           0           0           0           0           0           0           0
 AtZEff=  -0.0000000  -0.0000000  -0.0000000  -0.0000000  -0.0000000  -0.0000000  -0.0000000  -0.0000000  -0.0000000  -0.0000000
 NQMom=    0.0000000   0.0000000   0.0000000   0.0000000   0.0000000   0.0000000   0.0000000   0.0000000   0.0000000   0.0000000
 NMagM=    0.0000000   0.0000000   0.0000000   0.0000000   0.0000000   0.0000000   0.0000000   0.0000000   0.0000000   0.0000000
 AtZNuc=   6.0000000   6.0000000   6.0000000   6.0000000   6.0000000   6.0000000   6.0000000   6.0000000   6.0000000   6.0000000

  Atom        11          12          13          14          15          16          17          18          19          20
 IAtWgt=          16          16          12          12          12           1           1           1           1           1
 AtmWgt=  15.9949146  15.9949146  12.0000000  12.0000000  12.0000000   1.0078250   1.0078250   1.0078250   1.0078250   1.0078250
 NucSpn=           0           0           0           0           0           1           1           1           1           1
 AtZEff=  -0.0000000  -0.0000000  -0.0000000  -0.0000000  -0.0000000  -0.0000000  -0.0000000  -0.0000000  -0.0000000  -0.0000000
 NQMom=    0.0000000   0.0000000   0.0000000   0.0000000   0.0000000   0.0000000   0.0000000   0.0000000   0.0000000   0.0000000
 NMagM=    0.0000000   0.0000000   0.0000000   0.0000000   0.0000000   2.7928460   2.7928460   2.7928460   2.7928460   2.7928460
 AtZNuc=   8.0000000   8.0000000   6.0000000   6.0000000   6.0000000   1.0000000   1.0000000   1.0000000   1.0000000   1.0000000

  Atom        21          22          23          24          25          26          27
 IAtWgt=           1           1           1           1           1           1           1
 AtmWgt=   1.0078250   1.0078250   1.0078250   1.0078250   1.0078250   1.0078250   1.0078250
 NucSpn=           1           1           1           1           1           1           1
 AtZEff=  -0.0000000  -0.0000000  -0.0000000  -0.0000000  -0.0000000  -0.0000000  -0.0000000
 NQMom=    0.0000000   0.0000000   0.0000000   0.0000000   0.0000000   0.0000000   0.0000000
 NMagM=    2.7928460   2.7928460   2.7928460   2.7928460   2.7928460   2.7928460   2.7928460
 AtZNuc=   1.0000000   1.0000000   1.0000000   1.0000000   1.0000000   1.0000000   1.0000000
 Leave Link  101 at Sun Jan 21 07:55:53 2024, MaxMem=  4026531840 cpu:               1.1 elap:               0.2
 (Enter /sysapps/ubuntu-applications/gaussian/Gaussian/AVX2/g16/l202.exe)
                          Input orientation:                          
 ---------------------------------------------------------------------
 Center     Atomic      Atomic             Coordinates (Angstroms)
 Number     Number       Type             X           Y           Z
 ---------------------------------------------------------------------
      1          6           0       -1.641073    2.798217    0.073132
      2          6           0       -2.900873    2.214234    0.088657
      3          6           0       -3.021970    0.828463    0.069122
      4          6           0       -0.508404    1.986602    0.038180
      5          6           0       -0.624783    0.582478    0.018314
      6          6           0       -1.906413   -0.018184    0.033780
      7          6           0        0.827769    2.655403    0.022432
      8          6           0        2.058166    1.813623   -0.014281
      9          6           0        1.953724    0.464360   -0.030950
     10          6           0        0.624817   -0.227535   -0.018458
     11          8           0        0.909556    3.875018    0.039572
     12          8           0        0.605070   -1.451153   -0.039189
     13          6           0        3.372140    2.551227   -0.029938
     14          6           0        3.136433   -0.460568   -0.066932
     15          6           0       -2.145175   -1.507640    0.014671
     16          1           0       -1.510910    3.872611    0.087444
     17          1           0       -3.789681    2.834579    0.115931
     18          1           0       -4.010114    0.381190    0.081519
     19          1           0        3.196057    3.625105   -0.017921
     20          1           0        3.953099    2.304525   -0.923044
     21          1           0        3.981854    2.290566    0.839890
     22          1           0        4.080518    0.079833   -0.051694
     23          1           0        3.101355   -1.087829   -0.962290
     24          1           0        3.106235   -1.149402    0.781567
     25          1           0       -1.677199   -2.001862    0.868174
     26          1           0       -1.712483   -1.973642   -0.872585
     27          1           0       -3.217996   -1.710420    0.033175
 ---------------------------------------------------------------------
                    Distance matrix (angstroms):
                    1          2          3          4          5
     1  C    0.000000
     2  C    1.388659   0.000000
     3  C    2.405582   1.391189   0.000000
     4  C    1.393872   2.403804   2.767717   0.000000
     5  C    2.438309   2.801457   2.410310   1.409079   0.000000
     6  C    2.829146   2.444515   1.400902   2.444098   1.415489
     7  C    2.473489   3.755235   4.261500   1.494289   2.531194
     8  C    3.829025   4.976259   5.175450   2.572927   2.952117
     9  C    4.287224   5.161732   4.990002   2.895527   2.581681
    10  C    3.781246   4.290012   3.797612   2.487931   1.489622
    11  O    2.768815   4.156920   4.973858   2.361510   3.632557
    12  O    4.807798   5.073760   4.285300   3.614411   2.377288
    13  C    5.020352   6.283178   6.622867   3.921997   4.455748
    14  C    5.784796   6.605137   6.293333   4.391415   3.904095
    15  C    4.335659   3.798539   2.495819   3.858665   2.584608
    16  H    1.082345   2.163842   3.398599   2.136463   3.408075
    17  H    2.149342   1.084229   2.148505   3.389969   3.885623
    18  H    3.384442   2.142549   1.084728   3.852428   3.391899
    19  H    4.908142   6.258951   6.818551   4.051033   4.884436
    20  H    5.703583   6.928826   7.198246   4.574936   4.980824
    21  H    5.697625   6.924024   7.196206   4.571384   4.981331
    22  H    6.335755   7.301725   7.142855   4.970116   4.732590
    23  H    6.218044   6.930718   6.498546   4.845970   4.199478
    24  H    6.214701   6.919503   6.478767   4.842805   4.183594
    25  H    4.865609   4.458754   3.233826   4.238256   2.916960
    26  H    4.865195   4.458090   3.233166   4.238258   2.917283
    27  H    4.776619   3.937836   2.546693   4.583654   3.461554
                    6          7          8          9         10
     6  C    0.000000
     7  C    3.824127   0.000000
     8  C    4.367575   1.491247   0.000000
     9  C    3.890719   2.464000   1.353402   0.000000
    10  C    2.540410   2.890362   2.494160   1.498289   0.000000
    11  O    4.804866   1.222474   2.360414   3.567611   4.112832
    12  O    2.892451   4.113052   3.573636   2.342675   1.223953
    13  C    5.871035   2.547041   1.506928   2.523275   3.907612
    14  C    5.063215   3.879071   2.517415   1.501861   2.522869
    15  C    1.508593   5.115602   5.357210   4.548828   3.051659
    16  H    3.911213   2.637279   4.121660   4.861469   4.624256
    17  H    3.419313   4.621871   5.937729   6.214999   5.374234
    18  H    2.141807   5.346087   6.235789   5.965478   4.675802
    19  H    6.269883   2.559441   2.139223   3.396155   4.631858
    20  H    6.375294   3.284011   2.158149   2.859989   4.278676
    21  H    6.375879   3.278658   2.158161   2.864734   4.283374
    22  H    5.988343   4.149630   2.664082   2.161375   3.469503
    23  H    5.216707   4.488948   3.225738   2.143302   2.786425
    24  H    5.192830   4.499359   3.242120   2.143057   2.765378
    25  H    2.164193   5.355396   5.411987   4.480433   3.038689
    26  H    2.164006   5.355557   5.412749   4.482553   3.039966
    27  H    2.141007   5.952205   6.344999   5.610746   4.119323
                   11         12         13         14         15
    11  O    0.000000
    12  O    5.335449   0.000000
    13  C    2.796708   4.865779   0.000000
    14  C    4.875206   2.718424   3.021231   0.000000
    15  C    6.189104   2.751352   6.849610   5.385016   0.000000
    16  H    2.420941   5.730259   5.060041   6.355948   5.417997
    17  H    4.813644   6.140472   7.168908   7.672189   4.644300
    18  H    6.034215   4.967089   7.695398   7.197481   2.655211
    19  H    2.300837   5.699304   1.088285   4.086402   7.407759
    20  H    3.557560   5.108387   1.093624   3.007592   7.252645
    21  H    3.548241   5.116240   1.093753   3.017582   7.255883
    22  H    4.946388   3.797738   2.571004   1.087916   6.425241
    23  H    5.517025   2.686179   3.766342   1.093779   5.353202
    24  H    5.533602   2.649626   3.797881   1.093323   5.319189
    25  H    6.474226   2.517010   6.858065   5.140142   1.091661
    26  H    6.474098   2.517657   6.858417   5.143001   1.091606
    27  H    6.945059   3.832530   7.848281   6.476953   1.091974
                   16         17         18         19         20
    16  H    0.000000
    17  H    2.504220   0.000000
    18  H    4.293725   2.463512   0.000000
    19  H    4.714647   7.031599   7.903276   0.000000
    20  H    5.773679   7.830138   8.253552   1.770958   0.000000
    21  H    5.765371   7.824118   8.251812   1.770399   1.763224
    22  H    6.757854   8.340069   8.097338   3.654089   2.392643
    23  H    6.854261   8.002139   7.336249   4.807551   3.497867
    24  H    6.857146   7.991798   7.312674   4.841814   3.943664
    25  H    5.928459   5.331005   3.426406   7.496436   7.311203
    26  H    5.927981   5.330188   3.425588   7.494677   7.099583
    27  H    5.838435   4.581560   2.237101   8.343292   8.273980
                   21         22         23         24         25
    21  H    0.000000
    22  H    2.385791   0.000000
    23  H    3.928955   1.775213   0.000000
    24  H    3.550139   1.776111   1.744951   0.000000
    25  H    7.102860   6.191197   5.198137   4.859571   0.000000
    26  H    7.317207   6.200765   4.895482   5.160972   1.741345
    27  H    8.276262   7.515352   6.427501   6.393022   1.776575
                   26         27
    26  H    0.000000
    27  H    1.776586   0.000000
 Stoichiometry    C13H12O2
 Framework group  C1[X(C13H12O2)]
 Deg. of freedom    75
 Full point group                 C1      NOp   1
 Largest Abelian subgroup         C1      NOp   1
 Largest concise Abelian subgroup C1      NOp   1
                         Standard orientation:                         
 ---------------------------------------------------------------------
 Center     Atomic      Atomic             Coordinates (Angstroms)
 Number     Number       Type             X           Y           Z
 ---------------------------------------------------------------------
      1          6           0       -1.377735   -2.085614   -0.000641
      2          6           0       -2.728451   -1.763217   -0.000946
      3          6           0       -3.121804   -0.428795   -0.000578
      4          6           0       -0.428237   -1.065156   -0.000113
      5          6           0       -0.820603    0.288192    0.000211
      6          6           0       -2.196021    0.622610    0.000127
      7          6           0        1.014158   -1.455538    0.000259
      8          6           0        2.053470   -0.386123    0.000197
      9          6           0        1.683638    0.915766   -0.002055
     10          6           0        0.243832    1.330282    0.000330
     11          8           0        1.336054   -2.634871    0.000465
     12          8           0       -0.018003    2.525898    0.002456
     13          6           0        3.487762   -0.848331    0.001972
     14          6           0        2.659705    2.057203   -0.003219
     15          6           0       -2.725266    2.035321    0.000728
     16          1           0       -1.037204   -3.112993   -0.000792
     17          1           0       -3.476802   -2.547769   -0.001464
     18          1           0       -4.179123   -0.186490   -0.000869
     19          1           0        3.528110   -1.935838    0.010008
     20          1           0        4.022258   -0.474469    0.879785
     21          1           0        4.019797   -0.488630   -0.883381
     22          1           0        3.691890    1.714378   -0.028260
     23          1           0        2.515012    2.681996    0.882812
     24          1           0        2.480007    2.710130   -0.861560
     25          1           0       -2.378221    2.596138   -0.869196
     26          1           0       -2.379679    2.594607    0.872148
     27          1           0       -3.817147    2.021132   -0.000244
 ---------------------------------------------------------------------
 Rotational constants (GHZ):           0.9154200           0.5766341           0.3560903
 Leave Link  202 at Sun Jan 21 07:55:54 2024, MaxMem=  4026531840 cpu:               0.5 elap:               0.1
 (Enter /sysapps/ubuntu-applications/gaussian/Gaussian/AVX2/g16/l301.exe)
 Standard basis: 6-311++G(d,p) (5D, 7F)
 Ernie: Thresh=  0.10000D-02 Tol=  0.10000D-05 Strict=F.
 There are   429 symmetry adapted cartesian basis functions of A   symmetry.
 There are   414 symmetry adapted basis functions of A   symmetry.
   414 basis functions,   648 primitive gaussians,   429 cartesian basis functions
    53 alpha electrons       53 beta electrons
       nuclear repulsion energy       945.8160727443 Hartrees.
 IExCor=  402 DFT=T Ex+Corr=B3LYP ExCW=0 ScaHFX=  0.200000
 ScaDFX=  0.800000  0.720000  1.000000  0.810000 ScalE2=  1.000000  1.000000
 IRadAn=      5 IRanWt=     -1 IRanGd=            0 ICorTp=0 IEmpDi=  4
 NAtoms=   27 NActive=   27 NUniq=   27 SFac= 1.00D+00 NAtFMM=   60 NAOKFM=F Big=F
 Integral buffers will be    131072 words long.
 Raffenetti 2 integral format.
 Two-electron integral symmetry is turned on.
 ------------------------------------------------------------------------------
 Polarizable Continuum Model (PCM)
 =================================
 Model                : PCM.
 Atomic radii         : UFF (Universal Force Field).
 Polarization charges : Total charges.
 Charge compensation  : None.
 Solution method      : On-the-fly selection.
 Cavity type          : Scaled VdW (van der Waals Surface) (Alpha=1.100).
 Cavity algorithm     : GePol (No added spheres)
                        Default sphere list used, NSphG=   27.
                        Lebedev-Laikov grids with approx.  5.0 points / Ang**2.
                        Smoothing algorithm: York/Karplus (Gamma=1.0000).
                        Polarization charges: spherical gaussians, with
                                              point-specific exponents (IZeta= 3).
                        Self-potential: point-specific (ISelfS= 7).
                        Self-field    : sphere-specific E.n sum rule (ISelfD= 2).
 Solvent              : n,n-DiMethylFormamide, Eps=  37.219000 Eps(inf)=   2.046330
 ------------------------------------------------------------------------------
 GePol: Number of generator spheres                  =      27
 GePol: Total number of spheres                      =      27
 GePol: Number of exposed spheres                    =      27 (100.00%)
 GePol: Number of points                             =    2059
 GePol: Average weight of points                     =       0.13
 GePol: Minimum weight of points                     =   0.76D-11
 GePol: Maximum weight of points                     =    0.20577
 GePol: Number of points with low weight             =     124
 GePol: Fraction of low-weight points (<1% of avg)   =       6.02%
 GePol: Cavity surface area                          =    262.913 Ang**2
 GePol: Cavity volume                                =    284.306 Ang**3
 Leave Link  301 at Sun Jan 21 07:55:54 2024, MaxMem=  4026531840 cpu:               0.9 elap:               0.2
 (Enter /sysapps/ubuntu-applications/gaussian/Gaussian/AVX2/g16/l302.exe)
 NPDir=0 NMtPBC=     1 NCelOv=     1 NCel=       1 NClECP=     1 NCelD=      1
         NCelK=      1 NCelE2=     1 NClLst=     1 CellRange=     0.0.
 One-electron integrals computed using PRISM.
 One-electron integral symmetry used in STVInt
 NBasis=   414 RedAO= T EigKep=  1.01D-06  NBF=   414
 NBsUse=   410 1.00D-06 EigRej=  5.34D-07 NBFU=   410
 Precomputing XC quadrature grid using
 IXCGrd= 4 IRadAn=           5 IRanWt=          -1 IRanGd=           0 AccXCQ= 0.00D+00.
 Generated NRdTot=       0 NPtTot=           0 NUsed=           0 NTot=          32
 NSgBfM=   429   429   429   429   429 MxSgAt=    27 MxSgA2=    27.
 Leave Link  302 at Sun Jan 21 07:55:55 2024, MaxMem=  4026531840 cpu:               5.9 elap:               0.9
 (Enter /sysapps/ubuntu-applications/gaussian/Gaussian/AVX2/g16/l303.exe)
 DipDrv:  MaxL=1.
 Leave Link  303 at Sun Jan 21 07:55:55 2024, MaxMem=  4026531840 cpu:               1.7 elap:               0.4
 (Enter /sysapps/ubuntu-applications/gaussian/Gaussian/AVX2/g16/l401.exe)
 ExpMin= 3.60D-02 ExpMax= 8.59D+03 ExpMxC= 1.30D+03 IAcc=3 IRadAn=         5 AccDes= 0.00D+00
 Harris functional with IExCor=  402 and IRadAn=       5 diagonalized for initial guess.
 HarFok:  IExCor=  402 AccDes= 0.00D+00 IRadAn=         5 IDoV= 1 UseB2=F ITyADJ=14
 ICtDFT=  3500011 ScaDFX=  1.000000  1.000000  1.000000  1.000000
 FoFCou: FMM=F IPFlag=           0 FMFlag=      100000 FMFlg1=           0
         NFxFlg=           0 DoJE=T BraDBF=F KetDBF=T FulRan=T
         wScrn=  0.000000 ICntrl=       500 IOpCl=  0 I1Cent=   200000004 NGrid=           0
         NMat0=    1 NMatS0=      1 NMatT0=    0 NMatD0=    1 NMtDS0=    0 NMtDT0=    0
 Petite list used in FoFCou.
 Harris En= -653.303699542334    
 JPrj=0 DoOrth=F DoCkMO=F.
 Initial guess <Sx>= 0.0000 <Sy>= 0.0000 <Sz>= 0.0000 <S**2>=-0.0000 S=-0.0000
 Leave Link  401 at Sun Jan 21 07:55:58 2024, MaxMem=  4026531840 cpu:              23.6 elap:               3.0
 (Enter /sysapps/ubuntu-applications/gaussian/Gaussian/AVX2/g16/l502.exe)
 Integral symmetry usage will be decided dynamically.
 UHF open shell SCF:
 Using DIIS extrapolation, IDIIS=  1040.
 NGot=  4026531840 LenX=  4026156179 LenY=  4025971697
 Requested convergence on RMS density matrix=1.00D-08 within 128 cycles.
 Requested convergence on MAX density matrix=1.00D-06.
 Requested convergence on             energy=1.00D-06.
 No special actions if energy rises.
 Fock matrices will be formed incrementally for  20 cycles.

 Cycle   1  Pass 1  IDiag  1:
 FoFJK:  IHMeth= 1 ICntrl=       0 DoSepK=F KAlg= 0 I1Cent=           0 FoldK=F
 IRaf= 890000000 NMat=       1 IRICut=       1 DoRegI=T DoRafI=F ISym2E= 0 IDoP0=0 IntGTp=1.
 FoFCou: FMM=F IPFlag=           0 FMFlag=      100000 FMFlg1=           0
         NFxFlg=           0 DoJE=F BraDBF=F KetDBF=F FulRan=T
         wScrn=  0.000000 ICntrl=         0 IOpCl=  1 I1Cent=           0 NGrid=           0
         NMat0=    1 NMatS0=      1 NMatT0=    0 NMatD0=    1 NMtDS0=    0 NMtDT0=    0
 Symmetry not used in FoFCou.
 Inv3:  Mode=1 IEnd=    12718443.
 Iteration    1 A*A^-1 deviation from unit magnitude is 2.89D-15 for    240.
 Iteration    1 A*A^-1 deviation from orthogonality  is 2.00D-15 for   1362    705.
 Iteration    1 A^-1*A deviation from unit magnitude is 2.89D-15 for    240.
 Iteration    1 A^-1*A deviation from orthogonality  is 2.85D-15 for   1096    437.
 E= -652.844734498775    
 DIIS: error= 3.48D-02 at cycle   1 NSaved=   1.
 NSaved= 1 IEnMin= 1 EnMin= -652.844734498775     IErMin= 1 ErrMin= 3.48D-02
 ErrMax= 3.48D-02  0.00D+00 EMaxC= 1.00D-01 BMatC= 1.93D+00 BMatP= 1.93D+00
 IDIUse=3 WtCom= 6.52D-01 WtEn= 3.48D-01
 Coeff-Com:  0.100D+01
 Coeff-En:   0.100D+01
 Coeff:      0.100D+01
 Gap=     0.144 Goal=   None    Shift=    0.000
 Gap=     0.144 Goal=   None    Shift=    0.000
 GapD=    0.144 DampG=1.000 DampE=0.500 DampFc=0.5000 IDamp=-1.
 Damping current iteration by 5.00D-01
 RMSDP=2.25D-02 MaxDP=1.75D+00              OVMax= 2.63D-01

 Cycle   2  Pass 1  IDiag  1:
 RMSU=  9.71D-03    CP:  9.15D-01
 E= -652.986162363609     Delta-E=       -0.141427864833 Rises=F Damp=T
 DIIS: error= 1.29D-02 at cycle   2 NSaved=   2.
 NSaved= 2 IEnMin= 2 EnMin= -652.986162363609     IErMin= 2 ErrMin= 1.29D-02
 ErrMax= 1.29D-02  0.00D+00 EMaxC= 1.00D-01 BMatC= 2.37D-01 BMatP= 1.93D+00
 IDIUse=3 WtCom= 8.71D-01 WtEn= 1.29D-01
 Coeff-Com:  0.161D+00 0.839D+00
 Coeff-En:   0.260D+00 0.740D+00
 Coeff:      0.173D+00 0.827D+00
 Gap=     0.161 Goal=   None    Shift=    0.000
 Gap=     0.161 Goal=   None    Shift=    0.000
 RMSDP=9.37D-03 MaxDP=6.00D-01 DE=-1.41D-01 OVMax= 2.28D-01

 Cycle   3  Pass 1  IDiag  1:
 RMSU=  7.85D-03    CP:  9.08D-01  4.75D-01
 E= -653.189975525337     Delta-E=       -0.203813161728 Rises=F Damp=F
 DIIS: error= 1.94D-02 at cycle   3 NSaved=   3.
 NSaved= 3 IEnMin= 3 EnMin= -653.189975525337     IErMin= 2 ErrMin= 1.29D-02
 ErrMax= 1.94D-02  0.00D+00 EMaxC= 1.00D-01 BMatC= 2.82D-01 BMatP= 2.37D-01
 IDIUse=2 WtCom= 0.00D+00 WtEn= 1.00D+00
 Coeff-En:   0.000D+00 0.000D+00 0.100D+01
 Coeff:      0.000D+00 0.000D+00 0.100D+01
 Gap=     0.174 Goal=   None    Shift=    0.000
 Gap=     0.174 Goal=   None    Shift=    0.000
 RMSDP=1.07D-02 MaxDP=4.92D-01 DE=-2.04D-01 OVMax= 2.15D-01

 Cycle   4  Pass 1  IDiag  1:
 RMSU=  5.51D-03    CP:  9.49D-01  1.12D+00  2.12D-01
 E= -652.928100037879     Delta-E=        0.261875487458 Rises=F Damp=F
 DIIS: error= 4.59D-02 at cycle   4 NSaved=   4.
 NSaved= 4 IEnMin= 3 EnMin= -653.189975525337     IErMin= 2 ErrMin= 1.29D-02
 ErrMax= 4.59D-02  0.00D+00 EMaxC= 1.00D-01 BMatC= 1.62D+00 BMatP= 2.37D-01
 IDIUse=2 WtCom= 0.00D+00 WtEn= 1.00D+00
 Coeff-En:   0.000D+00 0.000D+00 0.790D+00 0.210D+00
 Coeff:      0.000D+00 0.000D+00 0.790D+00 0.210D+00
 Gap=     0.139 Goal=   None    Shift=    0.000
 Gap=     0.139 Goal=   None    Shift=    0.000
 RMSDP=6.52D-03 MaxDP=3.90D-01 DE= 2.62D-01 OVMax= 1.04D-01

 Cycle   5  Pass 1  IDiag  1:
 RMSU=  1.25D-03    CP:  9.12D-01  7.32D-01  6.32D-01  4.33D-01
 E= -653.226394716706     Delta-E=       -0.298294678827 Rises=F Damp=F
 DIIS: error= 1.17D-02 at cycle   5 NSaved=   5.
 NSaved= 5 IEnMin= 5 EnMin= -653.226394716706     IErMin= 5 ErrMin= 1.17D-02
 ErrMax= 1.17D-02  0.00D+00 EMaxC= 1.00D-01 BMatC= 1.12D-01 BMatP= 2.37D-01
 IDIUse=3 WtCom= 8.83D-01 WtEn= 1.17D-01
 Coeff-Com: -0.522D-02 0.293D-01 0.286D+00-0.101D+00 0.791D+00
 Coeff-En:   0.000D+00 0.000D+00 0.326D+00 0.000D+00 0.674D+00
 Coeff:     -0.461D-02 0.259D-01 0.291D+00-0.892D-01 0.777D+00
 Gap=     0.149 Goal=   None    Shift=    0.000
 Gap=     0.149 Goal=   None    Shift=    0.000
 RMSDP=2.47D-03 MaxDP=1.81D-01 DE=-2.98D-01 OVMax= 3.01D-02

 Cycle   6  Pass 1  IDiag  1:
 RMSU=  4.58D-04    CP:  8.92D-01  5.99D-01  7.63D-01  2.30D-01  7.37D-01
 E= -653.249215880004     Delta-E=       -0.022821163297 Rises=F Damp=F
 DIIS: error= 7.13D-04 at cycle   6 NSaved=   6.
 NSaved= 6 IEnMin= 6 EnMin= -653.249215880004     IErMin= 6 ErrMin= 7.13D-04
 ErrMax= 7.13D-04  0.00D+00 EMaxC= 1.00D-01 BMatC= 3.48D-04 BMatP= 1.12D-01
 IDIUse=3 WtCom= 9.93D-01 WtEn= 7.13D-03
 Coeff-Com: -0.455D-02 0.165D-01 0.139D+00-0.633D-01 0.445D+00 0.467D+00
 Coeff-En:   0.000D+00 0.000D+00 0.000D+00 0.000D+00 0.000D+00 0.100D+01
 Coeff:     -0.452D-02 0.163D-01 0.138D+00-0.628D-01 0.442D+00 0.471D+00
 Gap=     0.147 Goal=   None    Shift=    0.000
 Gap=     0.147 Goal=   None    Shift=    0.000
 RMSDP=1.85D-04 MaxDP=1.27D-02 DE=-2.28D-02 OVMax= 5.09D-03

 Cycle   7  Pass 1  IDiag  1:
 RMSU=  7.90D-05    CP:  8.92D-01  6.09D-01  7.64D-01  2.35D-01  7.97D-01
                    CP:  8.13D-01
 E= -653.249302035206     Delta-E=       -0.000086155202 Rises=F Damp=F
 DIIS: error= 1.73D-04 at cycle   7 NSaved=   7.
 NSaved= 7 IEnMin= 7 EnMin= -653.249302035206     IErMin= 7 ErrMin= 1.73D-04
 ErrMax= 1.73D-04  0.00D+00 EMaxC= 1.00D-01 BMatC= 2.53D-05 BMatP= 3.48D-04
 IDIUse=3 WtCom= 9.98D-01 WtEn= 1.73D-03
 Coeff-Com: -0.860D-03 0.211D-02 0.293D-01-0.150D-01 0.988D-01 0.213D+00
 Coeff-Com:  0.672D+00
 Coeff-En:   0.000D+00 0.000D+00 0.000D+00 0.000D+00 0.000D+00 0.277D-01
 Coeff-En:   0.972D+00
 Coeff:     -0.858D-03 0.210D-02 0.292D-01-0.150D-01 0.987D-01 0.213D+00
 Coeff:      0.673D+00
 Gap=     0.147 Goal=   None    Shift=    0.000
 Gap=     0.147 Goal=   None    Shift=    0.000
 RMSDP=3.99D-05 MaxDP=2.69D-03 DE=-8.62D-05 OVMax= 9.46D-04

 Cycle   8  Pass 1  IDiag  1:
 RMSU=  2.08D-05    CP:  8.93D-01  6.08D-01  7.66D-01  2.34D-01  7.91D-01
                    CP:  7.97D-01  8.19D-01
 E= -653.249307839841     Delta-E=       -0.000005804635 Rises=F Damp=F
 DIIS: error= 3.57D-05 at cycle   8 NSaved=   8.
 NSaved= 8 IEnMin= 8 EnMin= -653.249307839841     IErMin= 8 ErrMin= 3.57D-05
 ErrMax= 3.57D-05  0.00D+00 EMaxC= 1.00D-01 BMatC= 2.20D-06 BMatP= 2.53D-05
 IDIUse=1 WtCom= 1.00D+00 WtEn= 0.00D+00
 Coeff-Com:  0.389D-05-0.485D-03 0.682D-02-0.304D-02 0.209D-01 0.808D-01
 Coeff-Com:  0.356D+00 0.539D+00
 Coeff:      0.389D-05-0.485D-03 0.682D-02-0.304D-02 0.209D-01 0.808D-01
 Coeff:      0.356D+00 0.539D+00
 Gap=     0.147 Goal=   None    Shift=    0.000
 Gap=     0.147 Goal=   None    Shift=    0.000
 RMSDP=1.24D-05 MaxDP=6.51D-04 DE=-5.80D-06 OVMax= 1.76D-04

 Cycle   9  Pass 1  IDiag  1:
 RMSU=  8.15D-06    CP:  8.93D-01  6.07D-01  7.66D-01  2.34D-01  7.92D-01
                    CP:  7.96D-01  8.26D-01  7.07D-01
 E= -653.249308304480     Delta-E=       -0.000000464640 Rises=F Damp=F
 DIIS: error= 1.21D-05 at cycle   9 NSaved=   9.
 NSaved= 9 IEnMin= 9 EnMin= -653.249308304480     IErMin= 9 ErrMin= 1.21D-05
 ErrMax= 1.21D-05  0.00D+00 EMaxC= 1.00D-01 BMatC= 1.23D-07 BMatP= 2.20D-06
 IDIUse=1 WtCom= 1.00D+00 WtEn= 0.00D+00
 Coeff-Com:  0.630D-04-0.363D-03 0.147D-02-0.575D-03 0.403D-02 0.253D-01
 Coeff-Com:  0.124D+00 0.266D+00 0.580D+00
 Coeff:      0.630D-04-0.363D-03 0.147D-02-0.575D-03 0.403D-02 0.253D-01
 Coeff:      0.124D+00 0.266D+00 0.580D+00
 Gap=     0.147 Goal=   None    Shift=    0.000
 Gap=     0.147 Goal=   None    Shift=    0.000
 RMSDP=4.55D-06 MaxDP=3.05D-04 DE=-4.65D-07 OVMax= 8.84D-05

 Cycle  10  Pass 1  IDiag  1:
 RMSU=  2.30D-06    CP:  8.93D-01  6.07D-01  7.66D-01  2.34D-01  7.93D-01
                    CP:  8.00D-01  8.33D-01  7.12D-01  8.92D-01
 E= -653.249308324728     Delta-E=       -0.000000020247 Rises=F Damp=F
 DIIS: error= 7.18D-06 at cycle  10 NSaved=  10.
 NSaved=10 IEnMin=10 EnMin= -653.249308324728     IErMin=10 ErrMin= 7.18D-06
 ErrMax= 7.18D-06  0.00D+00 EMaxC= 1.00D-01 BMatC= 3.59D-08 BMatP= 1.23D-07
 IDIUse=1 WtCom= 1.00D+00 WtEn= 0.00D+00
 Coeff-Com:  0.340D-04-0.136D-03 0.259D-04-0.385D-04 0.254D-04 0.593D-02
 Coeff-Com:  0.327D-01 0.103D+00 0.389D+00 0.469D+00
 Coeff:      0.340D-04-0.136D-03 0.259D-04-0.385D-04 0.254D-04 0.593D-02
 Coeff:      0.327D-01 0.103D+00 0.389D+00 0.469D+00
 Gap=     0.147 Goal=   None    Shift=    0.000
 Gap=     0.147 Goal=   None    Shift=    0.000
 RMSDP=1.23D-06 MaxDP=9.36D-05 DE=-2.02D-08 OVMax= 3.65D-05

 Cycle  11  Pass 1  IDiag  1:
 RMSU=  9.18D-07    CP:  8.93D-01  6.07D-01  7.66D-01  2.34D-01  7.93D-01
                    CP:  8.00D-01  8.35D-01  7.16D-01  8.86D-01  8.08D-01
 E= -653.249308331125     Delta-E=       -0.000000006397 Rises=F Damp=F
 DIIS: error= 1.26D-06 at cycle  11 NSaved=  11.
 NSaved=11 IEnMin=11 EnMin= -653.249308331125     IErMin=11 ErrMin= 1.26D-06
 ErrMax= 1.26D-06  0.00D+00 EMaxC= 1.00D-01 BMatC= 2.55D-09 BMatP= 3.59D-08
 IDIUse=1 WtCom= 1.00D+00 WtEn= 0.00D+00
 Coeff-Com:  0.125D-04-0.312D-04-0.253D-03 0.711D-04-0.701D-03 0.386D-03
 Coeff-Com:  0.425D-02 0.303D-01 0.165D+00 0.272D+00 0.528D+00
 Coeff:      0.125D-04-0.312D-04-0.253D-03 0.711D-04-0.701D-03 0.386D-03
 Coeff:      0.425D-02 0.303D-01 0.165D+00 0.272D+00 0.528D+00
 Gap=     0.147 Goal=   None    Shift=    0.000
 Gap=     0.147 Goal=   None    Shift=    0.000
 RMSDP=6.03D-07 MaxDP=4.01D-05 DE=-6.40D-09 OVMax= 6.29D-06

 Cycle  12  Pass 1  IDiag  1:
 RMSU=  1.97D-07    CP:  8.93D-01  6.07D-01  7.66D-01  2.34D-01  7.93D-01
                    CP:  8.00D-01  8.34D-01  7.19D-01  8.95D-01  8.08D-01
                    CP:  7.19D-01
 E= -653.249308331654     Delta-E=       -0.000000000529 Rises=F Damp=F
 DIIS: error= 3.38D-07 at cycle  12 NSaved=  12.
 NSaved=12 IEnMin=12 EnMin= -653.249308331654     IErMin=12 ErrMin= 3.38D-07
 ErrMax= 3.38D-07  0.00D+00 EMaxC= 1.00D-01 BMatC= 1.55D-10 BMatP= 2.55D-09
 IDIUse=1 WtCom= 1.00D+00 WtEn= 0.00D+00
 Coeff-Com:  0.180D-05-0.381D-05-0.107D-03 0.345D-04-0.287D-03-0.955D-04
 Coeff-Com: -0.479D-03 0.582D-02 0.448D-01 0.839D-01 0.234D+00 0.632D+00
 Coeff:      0.180D-05-0.381D-05-0.107D-03 0.345D-04-0.287D-03-0.955D-04
 Coeff:     -0.479D-03 0.582D-02 0.448D-01 0.839D-01 0.234D+00 0.632D+00
 Gap=     0.147 Goal=   None    Shift=    0.000
 Gap=     0.147 Goal=   None    Shift=    0.000
 RMSDP=1.35D-07 MaxDP=8.44D-06 DE=-5.29D-10 OVMax= 2.07D-06

 Cycle  13  Pass 1  IDiag  1:
 RMSU=  8.24D-08    CP:  8.93D-01  6.07D-01  7.66D-01  2.34D-01  7.93D-01
                    CP:  8.00D-01  8.34D-01  7.21D-01  8.97D-01  7.94D-01
                    CP:  7.51D-01  7.78D-01
 E= -653.249308331678     Delta-E=       -0.000000000024 Rises=F Damp=F
 DIIS: error= 1.06D-07 at cycle  13 NSaved=  13.
 NSaved=13 IEnMin=13 EnMin= -653.249308331678     IErMin=13 ErrMin= 1.06D-07
 ErrMax= 1.06D-07  0.00D+00 EMaxC= 1.00D-01 BMatC= 2.43D-11 BMatP= 1.55D-10
 IDIUse=1 WtCom= 1.00D+00 WtEn= 0.00D+00
 Coeff-Com: -0.118D-05 0.209D-05-0.213D-04 0.903D-05-0.512D-04-0.568D-04
 Coeff-Com: -0.870D-03-0.101D-02 0.216D-02 0.815D-02 0.556D-01 0.342D+00
 Coeff-Com:  0.594D+00
 Coeff:     -0.118D-05 0.209D-05-0.213D-04 0.903D-05-0.512D-04-0.568D-04
 Coeff:     -0.870D-03-0.101D-02 0.216D-02 0.815D-02 0.556D-01 0.342D+00
 Coeff:      0.594D+00
 Gap=     0.147 Goal=   None    Shift=    0.000
 Gap=     0.147 Goal=   None    Shift=    0.000
 RMSDP=6.27D-08 MaxDP=5.10D-06 DE=-2.44D-11 OVMax= 8.29D-07

 Cycle  14  Pass 1  IDiag  1:
 RMSU=  2.43D-08    CP:  8.93D-01  6.07D-01  7.66D-01  2.34D-01  7.93D-01
                    CP:  8.00D-01  8.34D-01  7.21D-01  8.97D-01  8.01D-01
                    CP:  7.57D-01  8.63D-01  7.76D-01
 E= -653.249308331679     Delta-E=       -0.000000000001 Rises=F Damp=F
 DIIS: error= 4.04D-08 at cycle  14 NSaved=  14.
 NSaved=14 IEnMin=14 EnMin= -653.249308331679     IErMin=14 ErrMin= 4.04D-08
 ErrMax= 4.04D-08  0.00D+00 EMaxC= 1.00D-01 BMatC= 1.53D-12 BMatP= 2.43D-11
 IDIUse=1 WtCom= 1.00D+00 WtEn= 0.00D+00
 Coeff-Com: -0.773D-06 0.157D-05-0.378D-05 0.194D-05-0.630D-05-0.191D-04
 Coeff-Com: -0.376D-03-0.932D-03-0.241D-02-0.328D-02 0.499D-02 0.105D+00
 Coeff-Com:  0.271D+00 0.626D+00
 Coeff:     -0.773D-06 0.157D-05-0.378D-05 0.194D-05-0.630D-05-0.191D-04
 Coeff:     -0.376D-03-0.932D-03-0.241D-02-0.328D-02 0.499D-02 0.105D+00
 Coeff:      0.271D+00 0.626D+00
 Gap=     0.147 Goal=   None    Shift=    0.000
 Gap=     0.147 Goal=   None    Shift=    0.000
 RMSDP=1.20D-08 MaxDP=8.90D-07 DE=-6.82D-13 OVMax= 3.21D-07

 Cycle  15  Pass 1  IDiag  1:
 RMSU=  7.82D-09    CP:  8.93D-01  6.07D-01  7.66D-01  2.34D-01  7.93D-01
                    CP:  8.00D-01  8.34D-01  7.21D-01  8.97D-01  8.01D-01
                    CP:  7.60D-01  8.73D-01  8.20D-01  8.47D-01
 E= -653.249308331689     Delta-E=       -0.000000000010 Rises=F Damp=F
 DIIS: error= 2.38D-08 at cycle  15 NSaved=  15.
 NSaved=15 IEnMin=15 EnMin= -653.249308331689     IErMin=15 ErrMin= 2.38D-08
 ErrMax= 2.38D-08  0.00D+00 EMaxC= 1.00D-01 BMatC= 3.22D-13 BMatP= 1.53D-12
 IDIUse=1 WtCom= 1.00D+00 WtEn= 0.00D+00
 Coeff-Com: -0.245D-06 0.563D-06-0.799D-06 0.409D-06-0.930D-06-0.313D-05
 Coeff-Com: -0.905D-04-0.316D-03-0.118D-02-0.235D-02-0.369D-02 0.167D-01
 Coeff-Com:  0.722D-01 0.374D+00 0.545D+00
 Coeff:     -0.245D-06 0.563D-06-0.799D-06 0.409D-06-0.930D-06-0.313D-05
 Coeff:     -0.905D-04-0.316D-03-0.118D-02-0.235D-02-0.369D-02 0.167D-01
 Coeff:      0.722D-01 0.374D+00 0.545D+00
 Gap=     0.147 Goal=   None    Shift=    0.000
 Gap=     0.147 Goal=   None    Shift=    0.000
 RMSDP=5.76D-09 MaxDP=3.73D-07 DE=-1.02D-11 OVMax= 1.54D-07

 Error on total polarization charges =  0.01564
 SCF Done:  E(UB3LYP) =  -653.249308332     A.U. after   15 cycles
            NFock= 15  Conv=0.58D-08     -V/T= 2.0043
 <Sx>= 0.0000 <Sy>= 0.0000 <Sz>= 0.0000 <S**2>=-0.0000 S=-0.0000
 <L.S>=  0.00000000000    
 KE= 6.504631077043D+02 PE=-3.412943304257D+03 EE= 1.163414815476D+03
 Annihilation of the first spin contaminant:
 S**2 before annihilation    -0.0000,   after    -0.0000
 Leave Link  502 at Sun Jan 21 07:59:37 2024, MaxMem=  4026531840 cpu:            1746.0 elap:             219.0
 (Enter /sysapps/ubuntu-applications/gaussian/Gaussian/AVX2/g16/l601.exe)
 Copying SCF densities to generalized density rwf, IOpCl= 1 IROHF=0.

 **********************************************************************

            Population analysis using the SCF density.

 **********************************************************************

 Orbital symmetries:
 Alpha Orbitals:
       Occupied  (A) (A) (A) (A) (A) (A) (A) (A) (A) (A) (A) (A)
                 (A) (A) (A) (A) (A) (A) (A) (A) (A) (A) (A) (A)
                 (A) (A) (A) (A) (A) (A) (A) (A) (A) (A) (A) (A)
                 (A) (A) (A) (A) (A) (A) (A) (A) (A) (A) (A) (A)
                 (A) (A) (A) (A) (A)
       Virtual   (A) (A) (A) (A) (A) (A) (A) (A) (A) (A) (A) (A)
                 (A) (A) (A) (A) (A) (A) (A) (A) (A) (A) (A) (A)
                 (A) (A) (A) (A) (A) (A) (A) (A) (A) (A) (A) (A)
                 (A) (A) (A) (A) (A) (A) (A) (A) (A) (A) (A) (A)
                 (A) (A) (A) (A) (A) (A) (A) (A) (A) (A) (A) (A)
                 (A) (A) (A) (A) (A) (A) (A) (A) (A) (A) (A) (A)
                 (A) (A) (A) (A) (A) (A) (A) (A) (A) (A) (A) (A)
                 (A) (A) (A) (A) (A) (A) (A) (A) (A) (A) (A) (A)
                 (A) (A) (A) (A) (A) (A) (A) (A) (A) (A) (A) (A)
                 (A) (A) (A) (A) (A) (A) (A) (A) (A) (A) (A) (A)
                 (A) (A) (A) (A) (A) (A) (A) (A) (A) (A) (A) (A)
                 (A) (A) (A) (A) (A) (A) (A) (A) (A) (A) (A) (A)
                 (A) (A) (A) (A) (A) (A) (A) (A) (A) (A) (A) (A)
                 (A) (A) (A) (A) (A) (A) (A) (A) (A) (A) (A) (A)
                 (A) (A) (A) (A) (A) (A) (A) (A) (A) (A) (A) (A)
                 (A) (A) (A) (A) (A) (A) (A) (A) (A) (A) (A) (A)
                 (A) (A) (A) (A) (A) (A) (A) (A) (A) (A) (A) (A)
                 (A) (A) (A) (A) (A) (A) (A) (A) (A) (A) (A) (A)
                 (A) (A) (A) (A) (A) (A) (A) (A) (A) (A) (A) (A)
                 (A) (A) (A) (A) (A) (A) (A) (A) (A) (A) (A) (A)
                 (A) (A) (A) (A) (A) (A) (A) (A) (A) (A) (A) (A)
                 (A) (A) (A) (A) (A) (A) (A) (A) (A) (A) (A) (A)
                 (A) (A) (A) (A) (A) (A) (A) (A) (A) (A) (A) (A)
                 (A) (A) (A) (A) (A) (A) (A) (A) (A) (A) (A) (A)
                 (A) (A) (A) (A) (A) (A) (A) (A) (A) (A) (A) (A)
                 (A) (A) (A) (A) (A) (A) (A) (A) (A) (A) (A) (A)
                 (A) (A) (A) (A) (A) (A) (A) (A) (A) (A) (A) (A)
                 (A) (A) (A) (A) (A) (A) (A) (A) (A) (A) (A) (A)
                 (A) (A) (A) (A) (A) (A) (A) (A) (A) (A) (A) (A)
                 (A) (A) (A) (A) (A) (A) (A) (A) (A)
 Beta  Orbitals:
       Occupied  (A) (A) (A) (A) (A) (A) (A) (A) (A) (A) (A) (A)
                 (A) (A) (A) (A) (A) (A) (A) (A) (A) (A) (A) (A)
                 (A) (A) (A) (A) (A) (A) (A) (A) (A) (A) (A) (A)
                 (A) (A) (A) (A) (A) (A) (A) (A) (A) (A) (A) (A)
                 (A) (A) (A) (A) (A)
       Virtual   (A) (A) (A) (A) (A) (A) (A) (A) (A) (A) (A) (A)
                 (A) (A) (A) (A) (A) (A) (A) (A) (A) (A) (A) (A)
                 (A) (A) (A) (A) (A) (A) (A) (A) (A) (A) (A) (A)
                 (A) (A) (A) (A) (A) (A) (A) (A) (A) (A) (A) (A)
                 (A) (A) (A) (A) (A) (A) (A) (A) (A) (A) (A) (A)
                 (A) (A) (A) (A) (A) (A) (A) (A) (A) (A) (A) (A)
                 (A) (A) (A) (A) (A) (A) (A) (A) (A) (A) (A) (A)
                 (A) (A) (A) (A) (A) (A) (A) (A) (A) (A) (A) (A)
                 (A) (A) (A) (A) (A) (A) (A) (A) (A) (A) (A) (A)
                 (A) (A) (A) (A) (A) (A) (A) (A) (A) (A) (A) (A)
                 (A) (A) (A) (A) (A) (A) (A) (A) (A) (A) (A) (A)
                 (A) (A) (A) (A) (A) (A) (A) (A) (A) (A) (A) (A)
                 (A) (A) (A) (A) (A) (A) (A) (A) (A) (A) (A) (A)
                 (A) (A) (A) (A) (A) (A) (A) (A) (A) (A) (A) (A)
                 (A) (A) (A) (A) (A) (A) (A) (A) (A) (A) (A) (A)
                 (A) (A) (A) (A) (A) (A) (A) (A) (A) (A) (A) (A)
                 (A) (A) (A) (A) (A) (A) (A) (A) (A) (A) (A) (A)
                 (A) (A) (A) (A) (A) (A) (A) (A) (A) (A) (A) (A)
                 (A) (A) (A) (A) (A) (A) (A) (A) (A) (A) (A) (A)
                 (A) (A) (A) (A) (A) (A) (A) (A) (A) (A) (A) (A)
                 (A) (A) (A) (A) (A) (A) (A) (A) (A) (A) (A) (A)
                 (A) (A) (A) (A) (A) (A) (A) (A) (A) (A) (A) (A)
                 (A) (A) (A) (A) (A) (A) (A) (A) (A) (A) (A) (A)
                 (A) (A) (A) (A) (A) (A) (A) (A) (A) (A) (A) (A)
                 (A) (A) (A) (A) (A) (A) (A) (A) (A) (A) (A) (A)
                 (A) (A) (A) (A) (A) (A) (A) (A) (A) (A) (A) (A)
                 (A) (A) (A) (A) (A) (A) (A) (A) (A) (A) (A) (A)
                 (A) (A) (A) (A) (A) (A) (A) (A) (A) (A) (A) (A)
                 (A) (A) (A) (A) (A) (A) (A) (A) (A) (A) (A) (A)
                 (A) (A) (A) (A) (A) (A) (A) (A) (A)
 The electronic state is 1-A.
 Alpha  occ. eigenvalues --  -19.13116 -19.12855 -10.27972 -10.27874 -10.21138
 Alpha  occ. eigenvalues --  -10.21081 -10.21016 -10.20647 -10.20527 -10.19536
 Alpha  occ. eigenvalues --  -10.19292 -10.19233 -10.17353 -10.17195 -10.16908
 Alpha  occ. eigenvalues --   -1.06552  -1.06275  -0.88906  -0.85028  -0.79548
 Alpha  occ. eigenvalues --   -0.78600  -0.74936  -0.71045  -0.69636  -0.67026
 Alpha  occ. eigenvalues --   -0.62037  -0.61311  -0.56898  -0.54576  -0.51837
 Alpha  occ. eigenvalues --   -0.49821  -0.47233  -0.46445  -0.46315  -0.45868
 Alpha  occ. eigenvalues --   -0.43316  -0.42924  -0.42573  -0.41804  -0.41316
 Alpha  occ. eigenvalues --   -0.40962  -0.39676  -0.39426  -0.39381  -0.38365
 Alpha  occ. eigenvalues --   -0.36827  -0.36815  -0.36517  -0.28945  -0.28535
 Alpha  occ. eigenvalues --   -0.27089  -0.26862  -0.26744
 Alpha virt. eigenvalues --   -0.12047  -0.05112  -0.02903  -0.00953   0.00137
 Alpha virt. eigenvalues --    0.00709   0.02060   0.02159   0.02378   0.02549
 Alpha virt. eigenvalues --    0.03524   0.04123   0.04367   0.04640   0.05277
 Alpha virt. eigenvalues --    0.05529   0.06271   0.07223   0.07309   0.07705
 Alpha virt. eigenvalues --    0.07948   0.08146   0.09421   0.09806   0.10230
 Alpha virt. eigenvalues --    0.10688   0.10773   0.11141   0.11746   0.12108
 Alpha virt. eigenvalues --    0.12147   0.12302   0.12944   0.13073   0.14152
 Alpha virt. eigenvalues --    0.14351   0.14375   0.15109   0.15354   0.15382
 Alpha virt. eigenvalues --    0.15752   0.15907   0.16115   0.16455   0.16731
 Alpha virt. eigenvalues --    0.17244   0.17760   0.18206   0.18436   0.18601
 Alpha virt. eigenvalues --    0.18649   0.19945   0.20631   0.20818   0.21139
 Alpha virt. eigenvalues --    0.21472   0.21883   0.22244   0.22669   0.22741
 Alpha virt. eigenvalues --    0.23319   0.23646   0.24036   0.24546   0.24697
 Alpha virt. eigenvalues --    0.25426   0.25765   0.26126   0.26381   0.27530
 Alpha virt. eigenvalues --    0.28579   0.29134   0.29653   0.30154   0.30729
 Alpha virt. eigenvalues --    0.30986   0.31321   0.31398   0.32127   0.32388
 Alpha virt. eigenvalues --    0.32622   0.33662   0.33732   0.34334   0.35184
 Alpha virt. eigenvalues --    0.35248   0.35722   0.35986   0.36332   0.37514
 Alpha virt. eigenvalues --    0.38076   0.39649   0.40564   0.41662   0.42304
 Alpha virt. eigenvalues --    0.43945   0.44672   0.45970   0.47204   0.48400
 Alpha virt. eigenvalues --    0.49180   0.49725   0.50437   0.52162   0.52745
 Alpha virt. eigenvalues --    0.53856   0.54412   0.54666   0.56490   0.57807
 Alpha virt. eigenvalues --    0.58299   0.59311   0.60441   0.60510   0.61120
 Alpha virt. eigenvalues --    0.61764   0.62734   0.63414   0.64318   0.64575
 Alpha virt. eigenvalues --    0.64967   0.65054   0.65537   0.65790   0.65878
 Alpha virt. eigenvalues --    0.67136   0.67293   0.67512   0.69341   0.70894
 Alpha virt. eigenvalues --    0.70986   0.71287   0.71936   0.72126   0.74186
 Alpha virt. eigenvalues --    0.75778   0.75989   0.76586   0.77216   0.78708
 Alpha virt. eigenvalues --    0.81913   0.82151   0.84309   0.85473   0.86093
 Alpha virt. eigenvalues --    0.87454   0.87662   0.90336   0.91771   0.92541
 Alpha virt. eigenvalues --    0.93065   0.93717   0.94320   0.95415   0.95808
 Alpha virt. eigenvalues --    0.96804   0.98021   0.98390   0.99531   0.99818
 Alpha virt. eigenvalues --    1.03075   1.03477   1.05562   1.06297   1.06700
 Alpha virt. eigenvalues --    1.07931   1.09016   1.10979   1.11527   1.12836
 Alpha virt. eigenvalues --    1.13529   1.17882   1.21306   1.21599   1.22904
 Alpha virt. eigenvalues --    1.23114   1.26797   1.29929   1.32223   1.34901
 Alpha virt. eigenvalues --    1.35148   1.35527   1.36883   1.37971   1.39164
 Alpha virt. eigenvalues --    1.41064   1.44817   1.45229   1.45738   1.46439
 Alpha virt. eigenvalues --    1.46899   1.48268   1.48570   1.50389   1.51773
 Alpha virt. eigenvalues --    1.52250   1.53819   1.55311   1.56164   1.57237
 Alpha virt. eigenvalues --    1.58814   1.59509   1.59960   1.61401   1.63151
 Alpha virt. eigenvalues --    1.65206   1.66002   1.66180   1.67970   1.68569
 Alpha virt. eigenvalues --    1.69598   1.71397   1.72897   1.73074   1.75865
 Alpha virt. eigenvalues --    1.76537   1.77384   1.78207   1.80721   1.80886
 Alpha virt. eigenvalues --    1.83497   1.83837   1.87127   1.87577   1.87790
 Alpha virt. eigenvalues --    1.88959   1.90934   1.91705   1.93038   1.94004
 Alpha virt. eigenvalues --    1.96045   1.97437   1.98368   2.00433   2.00965
 Alpha virt. eigenvalues --    2.01507   2.03840   2.07739   2.09016   2.10567
 Alpha virt. eigenvalues --    2.12969   2.14702   2.16594   2.20708   2.22386
 Alpha virt. eigenvalues --    2.23133   2.25709   2.26725   2.27228   2.28010
 Alpha virt. eigenvalues --    2.30421   2.35366   2.35656   2.37683   2.40266
 Alpha virt. eigenvalues --    2.43136   2.47146   2.48765   2.49323   2.50792
 Alpha virt. eigenvalues --    2.51779   2.53352   2.54569   2.55766   2.56649
 Alpha virt. eigenvalues --    2.58267   2.58350   2.59726   2.60319   2.61418
 Alpha virt. eigenvalues --    2.63832   2.64980   2.66812   2.67540   2.70882
 Alpha virt. eigenvalues --    2.72393   2.74102   2.75329   2.76379   2.76408
 Alpha virt. eigenvalues --    2.78176   2.78804   2.79014   2.82333   2.82946
 Alpha virt. eigenvalues --    2.84575   2.84990   2.86130   2.86632   2.89491
 Alpha virt. eigenvalues --    2.90368   2.91987   2.95832   2.96090   3.00773
 Alpha virt. eigenvalues --    3.05162   3.06285   3.07318   3.08405   3.10023
 Alpha virt. eigenvalues --    3.15914   3.19906   3.21937   3.24882   3.25611
 Alpha virt. eigenvalues --    3.26283   3.28829   3.32597   3.35083   3.37595
 Alpha virt. eigenvalues --    3.41168   3.44117   3.50910   3.52659   3.54851
 Alpha virt. eigenvalues --    3.59133   3.64337   3.68018   3.78070   3.78198
 Alpha virt. eigenvalues --    3.79081   3.79267   3.80590   3.85054   3.88418
 Alpha virt. eigenvalues --    3.90571   3.93043   4.04479   4.12276   4.20622
 Alpha virt. eigenvalues --    4.23671   4.33512   4.37578   4.41751   4.75166
 Alpha virt. eigenvalues --    4.84098   5.04423   5.06785   5.25685   5.31201
 Alpha virt. eigenvalues --    5.72725   5.81536  23.54127  23.67742  23.85022
 Alpha virt. eigenvalues --   23.91351  23.91741  23.93052  23.97062  23.98299
 Alpha virt. eigenvalues --   23.98502  24.04013  24.07420  24.16915  24.17217
 Alpha virt. eigenvalues --   50.02455  50.06955
  Beta  occ. eigenvalues --  -19.13116 -19.12855 -10.27972 -10.27874 -10.21138
  Beta  occ. eigenvalues --  -10.21081 -10.21016 -10.20647 -10.20527 -10.19536
  Beta  occ. eigenvalues --  -10.19292 -10.19233 -10.17353 -10.17195 -10.16908
  Beta  occ. eigenvalues --   -1.06552  -1.06275  -0.88906  -0.85028  -0.79548
  Beta  occ. eigenvalues --   -0.78600  -0.74936  -0.71045  -0.69636  -0.67026
  Beta  occ. eigenvalues --   -0.62037  -0.61311  -0.56898  -0.54576  -0.51837
  Beta  occ. eigenvalues --   -0.49821  -0.47233  -0.46445  -0.46315  -0.45868
  Beta  occ. eigenvalues --   -0.43316  -0.42924  -0.42573  -0.41804  -0.41316
  Beta  occ. eigenvalues --   -0.40962  -0.39676  -0.39426  -0.39381  -0.38365
  Beta  occ. eigenvalues --   -0.36827  -0.36815  -0.36517  -0.28945  -0.28535
  Beta  occ. eigenvalues --   -0.27089  -0.26862  -0.26744
  Beta virt. eigenvalues --   -0.12047  -0.05112  -0.02903  -0.00953   0.00137
  Beta virt. eigenvalues --    0.00709   0.02060   0.02159   0.02378   0.02549
  Beta virt. eigenvalues --    0.03524   0.04123   0.04367   0.04640   0.05277
  Beta virt. eigenvalues --    0.05529   0.06271   0.07223   0.07309   0.07705
  Beta virt. eigenvalues --    0.07948   0.08146   0.09421   0.09806   0.10230
  Beta virt. eigenvalues --    0.10688   0.10773   0.11141   0.11746   0.12108
  Beta virt. eigenvalues --    0.12147   0.12302   0.12944   0.13073   0.14152
  Beta virt. eigenvalues --    0.14351   0.14375   0.15109   0.15354   0.15382
  Beta virt. eigenvalues --    0.15752   0.15907   0.16115   0.16455   0.16731
  Beta virt. eigenvalues --    0.17244   0.17760   0.18206   0.18436   0.18601
  Beta virt. eigenvalues --    0.18649   0.19945   0.20631   0.20818   0.21139
  Beta virt. eigenvalues --    0.21472   0.21883   0.22244   0.22669   0.22741
  Beta virt. eigenvalues --    0.23319   0.23646   0.24036   0.24546   0.24697
  Beta virt. eigenvalues --    0.25426   0.25765   0.26126   0.26381   0.27530
  Beta virt. eigenvalues --    0.28579   0.29134   0.29653   0.30154   0.30729
  Beta virt. eigenvalues --    0.30986   0.31321   0.31398   0.32127   0.32388
  Beta virt. eigenvalues --    0.32622   0.33662   0.33732   0.34334   0.35184
  Beta virt. eigenvalues --    0.35248   0.35722   0.35986   0.36332   0.37514
  Beta virt. eigenvalues --    0.38076   0.39649   0.40564   0.41662   0.42304
  Beta virt. eigenvalues --    0.43945   0.44672   0.45970   0.47204   0.48400
  Beta virt. eigenvalues --    0.49180   0.49725   0.50437   0.52162   0.52745
  Beta virt. eigenvalues --    0.53856   0.54412   0.54666   0.56490   0.57807
  Beta virt. eigenvalues --    0.58299   0.59311   0.60441   0.60510   0.61120
  Beta virt. eigenvalues --    0.61764   0.62734   0.63414   0.64318   0.64575
  Beta virt. eigenvalues --    0.64967   0.65054   0.65537   0.65790   0.65878
  Beta virt. eigenvalues --    0.67136   0.67293   0.67512   0.69341   0.70894
  Beta virt. eigenvalues --    0.70986   0.71287   0.71936   0.72126   0.74186
  Beta virt. eigenvalues --    0.75778   0.75989   0.76586   0.77216   0.78708
  Beta virt. eigenvalues --    0.81913   0.82151   0.84309   0.85473   0.86093
  Beta virt. eigenvalues --    0.87454   0.87662   0.90336   0.91771   0.92541
  Beta virt. eigenvalues --    0.93065   0.93717   0.94320   0.95415   0.95808
  Beta virt. eigenvalues --    0.96804   0.98021   0.98390   0.99531   0.99818
  Beta virt. eigenvalues --    1.03075   1.03477   1.05562   1.06297   1.06700
  Beta virt. eigenvalues --    1.07931   1.09016   1.10979   1.11527   1.12836
  Beta virt. eigenvalues --    1.13529   1.17882   1.21306   1.21599   1.22904
  Beta virt. eigenvalues --    1.23114   1.26797   1.29929   1.32223   1.34901
  Beta virt. eigenvalues --    1.35148   1.35527   1.36883   1.37971   1.39164
  Beta virt. eigenvalues --    1.41064   1.44817   1.45229   1.45738   1.46439
  Beta virt. eigenvalues --    1.46899   1.48268   1.48570   1.50389   1.51773
  Beta virt. eigenvalues --    1.52250   1.53819   1.55311   1.56164   1.57237
  Beta virt. eigenvalues --    1.58814   1.59509   1.59960   1.61401   1.63151
  Beta virt. eigenvalues --    1.65206   1.66002   1.66180   1.67970   1.68569
  Beta virt. eigenvalues --    1.69598   1.71397   1.72897   1.73074   1.75865
  Beta virt. eigenvalues --    1.76537   1.77384   1.78207   1.80721   1.80886
  Beta virt. eigenvalues --    1.83497   1.83837   1.87127   1.87577   1.87790
  Beta virt. eigenvalues --    1.88959   1.90934   1.91705   1.93038   1.94004
  Beta virt. eigenvalues --    1.96045   1.97437   1.98368   2.00433   2.00965
  Beta virt. eigenvalues --    2.01507   2.03840   2.07739   2.09016   2.10567
  Beta virt. eigenvalues --    2.12969   2.14702   2.16594   2.20708   2.22386
  Beta virt. eigenvalues --    2.23133   2.25709   2.26725   2.27228   2.28010
  Beta virt. eigenvalues --    2.30421   2.35366   2.35656   2.37683   2.40266
  Beta virt. eigenvalues --    2.43136   2.47146   2.48765   2.49323   2.50792
  Beta virt. eigenvalues --    2.51779   2.53352   2.54569   2.55766   2.56649
  Beta virt. eigenvalues --    2.58267   2.58350   2.59726   2.60319   2.61418
  Beta virt. eigenvalues --    2.63832   2.64980   2.66812   2.67540   2.70882
  Beta virt. eigenvalues --    2.72393   2.74102   2.75329   2.76379   2.76408
  Beta virt. eigenvalues --    2.78176   2.78804   2.79014   2.82333   2.82946
  Beta virt. eigenvalues --    2.84575   2.84990   2.86130   2.86632   2.89491
  Beta virt. eigenvalues --    2.90368   2.91987   2.95832   2.96090   3.00773
  Beta virt. eigenvalues --    3.05162   3.06285   3.07318   3.08405   3.10023
  Beta virt. eigenvalues --    3.15914   3.19906   3.21937   3.24882   3.25611
  Beta virt. eigenvalues --    3.26283   3.28829   3.32597   3.35083   3.37595
  Beta virt. eigenvalues --    3.41168   3.44117   3.50910   3.52659   3.54851
  Beta virt. eigenvalues --    3.59133   3.64337   3.68018   3.78070   3.78198
  Beta virt. eigenvalues --    3.79081   3.79267   3.80590   3.85054   3.88418
  Beta virt. eigenvalues --    3.90571   3.93043   4.04479   4.12276   4.20622
  Beta virt. eigenvalues --    4.23671   4.33512   4.37578   4.41751   4.75166
  Beta virt. eigenvalues --    4.84098   5.04423   5.06785   5.25685   5.31201
  Beta virt. eigenvalues --    5.72725   5.81536  23.54127  23.67742  23.85022
  Beta virt. eigenvalues --   23.91351  23.91741  23.93052  23.97062  23.98299
  Beta virt. eigenvalues --   23.98502  24.04013  24.07420  24.16915  24.17217
  Beta virt. eigenvalues --   50.02455  50.06955
          Condensed to atoms (all electrons):
               1          2          3          4          5          6
     1  C   13.631262  -1.379480   1.197924  -0.801265  -1.952847   0.596983
     2  C   -1.379480   8.057530  -0.728850  -1.041290   0.317101  -0.474502
     3  C    1.197924  -0.728850  11.806373   1.431275  -1.301093  -1.921390
     4  C   -0.801265  -1.041290   1.431275  14.941896  -0.419430  -0.581978
     5  C   -1.952847   0.317101  -1.301093  -0.419430  15.608776   2.492246
     6  C    0.596983  -0.474502  -1.921390  -0.581978   2.492246   9.252148
     7  C   -2.856767   0.329798  -0.444600  -1.732283  -2.891568  -1.048621
     8  C    0.823177  -0.519571   0.165688  -0.998154  -3.021260  -0.680083
     9  C   -2.485565   0.324976  -1.019157  -2.724012   1.238130  -0.468925
    10  C   -1.361769   1.146393  -3.338720  -0.956524  -4.172946  -0.554313
    11  O    0.174087   0.071311   0.014010  -0.130612  -0.110323  -0.038753
    12  O   -0.012929  -0.024658  -0.037556  -0.170208   0.380898  -0.108528
    13  C    0.047364  -0.017576  -0.021069  -1.181116  -0.067113  -0.128071
    14  C   -0.188873   0.087012  -0.121185   0.155331  -1.373298  -0.091447
    15  C    0.263325  -0.172672   0.604548  -0.250767   0.164003  -0.849176
    16  H    0.386796  -0.121967   0.018108   0.082409   0.042737   0.011450
    17  H   -0.085676   0.430739  -0.047322  -0.022044  -0.012196   0.014171
    18  H   -0.007875  -0.000568   0.427498   0.000411   0.029024  -0.054463
    19  H   -0.034057  -0.001601  -0.003342  -0.072504   0.010818  -0.007616
    20  H    0.006095  -0.000742   0.001530   0.028303  -0.000984   0.003950
    21  H    0.006788  -0.000824   0.001673   0.031646  -0.001919   0.004313
    22  H   -0.008473   0.001501  -0.004258  -0.037748   0.012351  -0.009146
    23  H   -0.001959  -0.000032  -0.000685  -0.004366   0.011081  -0.003497
    24  H   -0.001748   0.000105  -0.000877  -0.002459   0.003841  -0.003832
    25  H   -0.004742   0.008738  -0.058533  -0.001429  -0.012138   0.036685
    26  H   -0.004467   0.009304  -0.060487  -0.002561  -0.015868   0.037503
    27  H   -0.005187   0.023087  -0.002896  -0.027812   0.012505  -0.130816
               7          8          9         10         11         12
     1  C   -2.856767   0.823177  -2.485565  -1.361769   0.174087  -0.012929
     2  C    0.329798  -0.519571   0.324976   1.146393   0.071311  -0.024658
     3  C   -0.444600   0.165688  -1.019157  -3.338720   0.014010  -0.037556
     4  C   -1.732283  -0.998154  -2.724012  -0.956524  -0.130612  -0.170208
     5  C   -2.891568  -3.021260   1.238130  -4.172946  -0.110323   0.380898
     6  C   -1.048621  -0.680083  -0.468925  -0.554313  -0.038753  -0.108528
     7  C   18.138525  -0.660521  -5.364779   3.027063   0.700820  -0.095376
     8  C   -0.660521  16.752260  -3.135290  -1.863982  -0.285670  -0.172421
     9  C   -5.364779  -3.135290  21.819836  -1.946926  -0.263494  -0.241066
    10  C    3.027063  -1.863982  -1.946926  17.541751  -0.024356   0.405898
    11  O    0.700820  -0.285670  -0.263494  -0.024356   8.221685   0.000299
    12  O   -0.095376  -0.172421  -0.241066   0.405898   0.000299   8.245607
    13  C   -0.234223  -0.760092   0.687597   0.116394  -0.044041   0.003297
    14  C    0.321056   0.393723  -1.109470   0.200471   0.001760   0.005732
    15  C    0.078705  -0.070876  -0.243401  -0.980762  -0.005324   0.089805
    16  H   -0.028140  -0.001381   0.000156  -0.028166  -0.009327   0.000276
    17  H    0.029589   0.011502   0.004721  -0.009304   0.002562  -0.000047
    18  H   -0.036158  -0.001950   0.006522   0.011970   0.000111   0.000918
    19  H    0.050266  -0.104347   0.118756   0.010778  -0.013771   0.000324
    20  H    0.016188   0.049955  -0.094805  -0.005735   0.005203   0.000373
    21  H    0.024157   0.056586  -0.108496  -0.003720   0.005287   0.000357
    22  H   -0.054103  -0.075565   0.055429   0.037225  -0.002297   0.002179
    23  H   -0.007006  -0.054284   0.114092  -0.021400   0.000249  -0.007214
    24  H   -0.000551  -0.035141   0.071587  -0.003833   0.000223  -0.007474
    25  H    0.006410  -0.005101  -0.003552   0.075985  -0.000077  -0.019511
    26  H    0.005877  -0.004912  -0.001749   0.080011  -0.000076  -0.019436
    27  H   -0.000598  -0.000837   0.020110   0.006591  -0.000017   0.012766
              13         14         15         16         17         18
     1  C    0.047364  -0.188873   0.263325   0.386796  -0.085676  -0.007875
     2  C   -0.017576   0.087012  -0.172672  -0.121967   0.430739  -0.000568
     3  C   -0.021069  -0.121185   0.604548   0.018108  -0.047322   0.427498
     4  C   -1.181116   0.155331  -0.250767   0.082409  -0.022044   0.000411
     5  C   -0.067113  -1.373298   0.164003   0.042737  -0.012196   0.029024
     6  C   -0.128071  -0.091447  -0.849176   0.011450   0.014171  -0.054463
     7  C   -0.234223   0.321056   0.078705  -0.028140   0.029589  -0.036158
     8  C   -0.760092   0.393723  -0.070876  -0.001381   0.011502  -0.001950
     9  C    0.687597  -1.109470  -0.243401   0.000156   0.004721   0.006522
    10  C    0.116394   0.200471  -0.980762  -0.028166  -0.009304   0.011970
    11  O   -0.044041   0.001760  -0.005324  -0.009327   0.002562   0.000111
    12  O    0.003297   0.005732   0.089805   0.000276  -0.000047   0.000918
    13  C    7.542641  -0.550112   0.020078  -0.006691   0.001039  -0.000928
    14  C   -0.550112   7.600338  -0.033824  -0.004837   0.000488  -0.001102
    15  C    0.020078  -0.033824   6.786465  -0.001511  -0.000541  -0.010153
    16  H   -0.006691  -0.004837  -0.001511   0.490910  -0.015892   0.002887
    17  H    0.001039   0.000488  -0.000541  -0.015892   0.492382  -0.014884
    18  H   -0.000928  -0.001102  -0.010153   0.002887  -0.014884   0.497387
    19  H    0.403808  -0.013742   0.000824   0.000426   0.000005  -0.000040
    20  H    0.331136   0.019703  -0.000175   0.000110  -0.000018  -0.000001
    21  H    0.325744   0.019436  -0.000173   0.000113  -0.000019  -0.000001
    22  H    0.028470   0.405380   0.000196  -0.000138   0.000017   0.000006
    23  H    0.008998   0.314913  -0.000458   0.000017  -0.000003  -0.000005
    24  H    0.003318   0.326089  -0.000412   0.000016  -0.000002  -0.000007
    25  H   -0.000681   0.000082   0.337900   0.000118  -0.000015  -0.000522
    26  H   -0.000766   0.000668   0.337050   0.000119   0.000001  -0.000567
    27  H    0.000836   0.002633   0.421098  -0.000831   0.002181   0.003471
              19         20         21         22         23         24
     1  C   -0.034057   0.006095   0.006788  -0.008473  -0.001959  -0.001748
     2  C   -0.001601  -0.000742  -0.000824   0.001501  -0.000032   0.000105
     3  C   -0.003342   0.001530   0.001673  -0.004258  -0.000685  -0.000877
     4  C   -0.072504   0.028303   0.031646  -0.037748  -0.004366  -0.002459
     5  C    0.010818  -0.000984  -0.001919   0.012351   0.011081   0.003841
     6  C   -0.007616   0.003950   0.004313  -0.009146  -0.003497  -0.003832
     7  C    0.050266   0.016188   0.024157  -0.054103  -0.007006  -0.000551
     8  C   -0.104347   0.049955   0.056586  -0.075565  -0.054284  -0.035141
     9  C    0.118756  -0.094805  -0.108496   0.055429   0.114092   0.071587
    10  C    0.010778  -0.005735  -0.003720   0.037225  -0.021400  -0.003833
    11  O   -0.013771   0.005203   0.005287  -0.002297   0.000249   0.000223
    12  O    0.000324   0.000373   0.000357   0.002179  -0.007214  -0.007474
    13  C    0.403808   0.331136   0.325744   0.028470   0.008998   0.003318
    14  C   -0.013742   0.019703   0.019436   0.405380   0.314913   0.326089
    15  C    0.000824  -0.000175  -0.000173   0.000196  -0.000458  -0.000412
    16  H    0.000426   0.000110   0.000113  -0.000138   0.000017   0.000016
    17  H    0.000005  -0.000018  -0.000019   0.000017  -0.000003  -0.000002
    18  H   -0.000040  -0.000001  -0.000001   0.000006  -0.000005  -0.000007
    19  H    0.487385  -0.018500  -0.018924   0.004744   0.000410   0.000294
    20  H   -0.018500   0.532157  -0.051453  -0.003857   0.001928  -0.001995
    21  H   -0.018924  -0.051453   0.531862  -0.003926  -0.001945   0.001890
    22  H    0.004744  -0.003857  -0.003926   0.513125  -0.017783  -0.019115
    23  H    0.000410   0.001928  -0.001945  -0.017783   0.529451  -0.051326
    24  H    0.000294  -0.001995   0.001890  -0.019115  -0.051326   0.534107
    25  H   -0.000007  -0.000025   0.000048  -0.000028   0.000280  -0.000290
    26  H   -0.000011   0.000049  -0.000026  -0.000012  -0.000289   0.000293
    27  H    0.000047  -0.000018  -0.000017   0.000029   0.000052   0.000056
              25         26         27
     1  C   -0.004742  -0.004467  -0.005187
     2  C    0.008738   0.009304   0.023087
     3  C   -0.058533  -0.060487  -0.002896
     4  C   -0.001429  -0.002561  -0.027812
     5  C   -0.012138  -0.015868   0.012505
     6  C    0.036685   0.037503  -0.130816
     7  C    0.006410   0.005877  -0.000598
     8  C   -0.005101  -0.004912  -0.000837
     9  C   -0.003552  -0.001749   0.020110
    10  C    0.075985   0.080011   0.006591
    11  O   -0.000077  -0.000076  -0.000017
    12  O   -0.019511  -0.019436   0.012766
    13  C   -0.000681  -0.000766   0.000836
    14  C    0.000082   0.000668   0.002633
    15  C    0.337900   0.337050   0.421098
    16  H    0.000118   0.000119  -0.000831
    17  H   -0.000015   0.000001   0.002181
    18  H   -0.000522  -0.000567   0.003471
    19  H   -0.000007  -0.000011   0.000047
    20  H   -0.000025   0.000049  -0.000018
    21  H    0.000048  -0.000026  -0.000017
    22  H   -0.000028  -0.000012   0.000029
    23  H    0.000280  -0.000289   0.000052
    24  H   -0.000290   0.000293   0.000056
    25  H    0.545182  -0.054816  -0.020655
    26  H   -0.054816   0.545137  -0.020786
    27  H   -0.020655  -0.020786   0.540756
          Atomic-Atomic Spin Densities.
               1          2          3          4          5          6
     1  C    0.000000  -0.000000   0.000000   0.000000   0.000000  -0.000000
     2  C   -0.000000   0.000000  -0.000000  -0.000000   0.000000  -0.000000
     3  C    0.000000  -0.000000   0.000000   0.000000  -0.000000  -0.000000
     4  C    0.000000  -0.000000   0.000000  -0.000000   0.000000   0.000000
     5  C    0.000000   0.000000  -0.000000   0.000000  -0.000000   0.000000
     6  C   -0.000000  -0.000000  -0.000000   0.000000   0.000000   0.000000
     7  C   -0.000000   0.000000  -0.000000  -0.000000   0.000000   0.000000
     8  C    0.000000  -0.000000   0.000000   0.000000   0.000000   0.000000
     9  C    0.000000   0.000000  -0.000000   0.000000  -0.000000  -0.000000
    10  C   -0.000000   0.000000  -0.000000  -0.000000  -0.000000  -0.000000
    11  O   -0.000000  -0.000000   0.000000  -0.000000   0.000000   0.000000
    12  O    0.000000  -0.000000   0.000000   0.000000  -0.000000   0.000000
    13  C    0.000000   0.000000  -0.000000   0.000000  -0.000000   0.000000
    14  C   -0.000000   0.000000  -0.000000  -0.000000  -0.000000  -0.000000
    15  C    0.000000  -0.000000   0.000000   0.000000  -0.000000  -0.000000
    16  H    0.000000  -0.000000   0.000000   0.000000   0.000000  -0.000000
    17  H   -0.000000   0.000000  -0.000000  -0.000000   0.000000   0.000000
    18  H    0.000000  -0.000000   0.000000   0.000000  -0.000000  -0.000000
    19  H    0.000000   0.000000  -0.000000   0.000000  -0.000000   0.000000
    20  H   -0.000000  -0.000000   0.000000  -0.000000   0.000000   0.000000
    21  H   -0.000000  -0.000000   0.000000  -0.000000   0.000000   0.000000
    22  H   -0.000000   0.000000  -0.000000   0.000000  -0.000000  -0.000000
    23  H    0.000000  -0.000000   0.000000   0.000000  -0.000000   0.000000
    24  H    0.000000  -0.000000   0.000000   0.000000  -0.000000   0.000000
    25  H   -0.000000   0.000000  -0.000000   0.000000   0.000000   0.000000
    26  H   -0.000000   0.000000  -0.000000   0.000000   0.000000   0.000000
    27  H   -0.000000   0.000000   0.000000  -0.000000  -0.000000  -0.000000
               7          8          9         10         11         12
     1  C   -0.000000   0.000000   0.000000  -0.000000  -0.000000   0.000000
     2  C    0.000000  -0.000000   0.000000   0.000000  -0.000000  -0.000000
     3  C   -0.000000   0.000000  -0.000000  -0.000000   0.000000   0.000000
     4  C   -0.000000   0.000000   0.000000  -0.000000  -0.000000   0.000000
     5  C    0.000000   0.000000  -0.000000  -0.000000   0.000000  -0.000000
     6  C    0.000000   0.000000  -0.000000  -0.000000   0.000000   0.000000
     7  C   -0.000000  -0.000000   0.000000   0.000000  -0.000000  -0.000000
     8  C   -0.000000  -0.000000   0.000000  -0.000000   0.000000   0.000000
     9  C    0.000000   0.000000  -0.000000   0.000000   0.000000  -0.000000
    10  C    0.000000  -0.000000   0.000000   0.000000  -0.000000   0.000000
    11  O   -0.000000   0.000000   0.000000  -0.000000   0.000000   0.000000
    12  O   -0.000000   0.000000  -0.000000   0.000000   0.000000  -0.000000
    13  C    0.000000   0.000000  -0.000000  -0.000000   0.000000  -0.000000
    14  C    0.000000  -0.000000   0.000000   0.000000  -0.000000  -0.000000
    15  C   -0.000000   0.000000  -0.000000  -0.000000   0.000000   0.000000
    16  H   -0.000000   0.000000  -0.000000  -0.000000   0.000000   0.000000
    17  H    0.000000  -0.000000   0.000000   0.000000   0.000000  -0.000000
    18  H   -0.000000   0.000000  -0.000000  -0.000000   0.000000  -0.000000
    19  H    0.000000  -0.000000  -0.000000   0.000000   0.000000  -0.000000
    20  H   -0.000000  -0.000000   0.000000  -0.000000   0.000000   0.000000
    21  H   -0.000000  -0.000000   0.000000  -0.000000   0.000000   0.000000
    22  H    0.000000   0.000000  -0.000000   0.000000  -0.000000  -0.000000
    23  H    0.000000   0.000000  -0.000000   0.000000   0.000000   0.000000
    24  H    0.000000   0.000000  -0.000000   0.000000   0.000000   0.000000
    25  H    0.000000  -0.000000   0.000000   0.000000  -0.000000  -0.000000
    26  H    0.000000  -0.000000  -0.000000   0.000000  -0.000000  -0.000000
    27  H   -0.000000  -0.000000   0.000000   0.000000  -0.000000   0.000000
              13         14         15         16         17         18
     1  C    0.000000  -0.000000   0.000000   0.000000  -0.000000   0.000000
     2  C    0.000000   0.000000  -0.000000  -0.000000   0.000000  -0.000000
     3  C   -0.000000  -0.000000   0.000000   0.000000  -0.000000   0.000000
     4  C    0.000000  -0.000000   0.000000   0.000000  -0.000000   0.000000
     5  C   -0.000000  -0.000000  -0.000000   0.000000   0.000000  -0.000000
     6  C    0.000000  -0.000000  -0.000000  -0.000000   0.000000  -0.000000
     7  C    0.000000   0.000000  -0.000000  -0.000000   0.000000  -0.000000
     8  C    0.000000  -0.000000   0.000000   0.000000  -0.000000   0.000000
     9  C   -0.000000   0.000000  -0.000000  -0.000000   0.000000  -0.000000
    10  C   -0.000000   0.000000  -0.000000  -0.000000   0.000000  -0.000000
    11  O    0.000000  -0.000000   0.000000   0.000000   0.000000   0.000000
    12  O   -0.000000  -0.000000   0.000000   0.000000  -0.000000  -0.000000
    13  C   -0.000000   0.000000  -0.000000   0.000000   0.000000  -0.000000
    14  C    0.000000   0.000000  -0.000000  -0.000000   0.000000  -0.000000
    15  C   -0.000000  -0.000000   0.000000   0.000000  -0.000000   0.000000
    16  H    0.000000  -0.000000   0.000000   0.000000  -0.000000   0.000000
    17  H    0.000000   0.000000  -0.000000  -0.000000   0.000000  -0.000000
    18  H   -0.000000  -0.000000   0.000000   0.000000  -0.000000  -0.000000
    19  H   -0.000000   0.000000  -0.000000  -0.000000   0.000000  -0.000000
    20  H    0.000000  -0.000000   0.000000   0.000000  -0.000000   0.000000
    21  H    0.000000  -0.000000   0.000000   0.000000  -0.000000   0.000000
    22  H   -0.000000   0.000000  -0.000000  -0.000000   0.000000  -0.000000
    23  H   -0.000000   0.000000   0.000000   0.000000  -0.000000  -0.000000
    24  H   -0.000000   0.000000   0.000000   0.000000  -0.000000  -0.000000
    25  H    0.000000   0.000000  -0.000000  -0.000000   0.000000  -0.000000
    26  H    0.000000   0.000000  -0.000000  -0.000000   0.000000  -0.000000
    27  H   -0.000000   0.000000   0.000000  -0.000000   0.000000   0.000000
              19         20         21         22         23         24
     1  C    0.000000  -0.000000  -0.000000  -0.000000   0.000000   0.000000
     2  C    0.000000  -0.000000  -0.000000   0.000000  -0.000000  -0.000000
     3  C   -0.000000   0.000000   0.000000  -0.000000   0.000000   0.000000
     4  C    0.000000  -0.000000  -0.000000   0.000000   0.000000   0.000000
     5  C   -0.000000   0.000000   0.000000  -0.000000  -0.000000  -0.000000
     6  C    0.000000   0.000000   0.000000  -0.000000   0.000000   0.000000
     7  C    0.000000  -0.000000  -0.000000   0.000000   0.000000   0.000000
     8  C   -0.000000  -0.000000  -0.000000   0.000000   0.000000   0.000000
     9  C   -0.000000   0.000000   0.000000  -0.000000  -0.000000  -0.000000
    10  C    0.000000  -0.000000  -0.000000   0.000000   0.000000   0.000000
    11  O    0.000000   0.000000   0.000000  -0.000000   0.000000   0.000000
    12  O   -0.000000   0.000000   0.000000  -0.000000   0.000000   0.000000
    13  C   -0.000000   0.000000   0.000000  -0.000000  -0.000000  -0.000000
    14  C    0.000000  -0.000000  -0.000000   0.000000   0.000000   0.000000
    15  C   -0.000000   0.000000   0.000000  -0.000000   0.000000   0.000000
    16  H   -0.000000   0.000000   0.000000  -0.000000   0.000000   0.000000
    17  H    0.000000  -0.000000  -0.000000   0.000000  -0.000000  -0.000000
    18  H   -0.000000   0.000000   0.000000  -0.000000  -0.000000  -0.000000
    19  H   -0.000000   0.000000   0.000000  -0.000000  -0.000000  -0.000000
    20  H    0.000000  -0.000000  -0.000000  -0.000000   0.000000   0.000000
    21  H    0.000000  -0.000000   0.000000  -0.000000   0.000000   0.000000
    22  H   -0.000000  -0.000000  -0.000000   0.000000   0.000000   0.000000
    23  H   -0.000000   0.000000   0.000000   0.000000  -0.000000  -0.000000
    24  H   -0.000000   0.000000   0.000000   0.000000  -0.000000  -0.000000
    25  H    0.000000  -0.000000  -0.000000   0.000000   0.000000   0.000000
    26  H    0.000000  -0.000000  -0.000000   0.000000  -0.000000   0.000000
    27  H   -0.000000  -0.000000  -0.000000   0.000000  -0.000000  -0.000000
              25         26         27
     1  C   -0.000000  -0.000000  -0.000000
     2  C    0.000000   0.000000   0.000000
     3  C   -0.000000  -0.000000   0.000000
     4  C    0.000000   0.000000  -0.000000
     5  C    0.000000   0.000000  -0.000000
     6  C    0.000000   0.000000  -0.000000
     7  C    0.000000   0.000000  -0.000000
     8  C   -0.000000  -0.000000  -0.000000
     9  C    0.000000  -0.000000   0.000000
    10  C    0.000000   0.000000   0.000000
    11  O   -0.000000  -0.000000  -0.000000
    12  O   -0.000000  -0.000000   0.000000
    13  C    0.000000   0.000000  -0.000000
    14  C    0.000000   0.000000   0.000000
    15  C   -0.000000  -0.000000   0.000000
    16  H   -0.000000  -0.000000  -0.000000
    17  H    0.000000   0.000000   0.000000
    18  H   -0.000000  -0.000000   0.000000
    19  H    0.000000   0.000000  -0.000000
    20  H   -0.000000  -0.000000  -0.000000
    21  H   -0.000000  -0.000000  -0.000000
    22  H    0.000000   0.000000   0.000000
    23  H    0.000000  -0.000000  -0.000000
    24  H    0.000000   0.000000  -0.000000
    25  H    0.000000   0.000000   0.000000
    26  H    0.000000   0.000000   0.000000
    27  H    0.000000   0.000000   0.000000
 Mulliken charges and spin densities:
               1          2
     1  C    0.059880  -0.000000
     2  C   -0.323263   0.000000
     3  C   -0.556606   0.000000
     4  C    0.487292   0.000000
     5  C    1.029471  -0.000000
     6  C    0.705708  -0.000000
     7  C   -1.273158  -0.000000
     8  C    0.198549  -0.000000
     9  C    0.748774   0.000000
    10  C   -1.388076   0.000000
    11  O   -0.269469  -0.000000
    12  O   -0.232306  -0.000000
    13  C   -0.508240   0.000000
    14  C   -0.366925   0.000000
    15  C   -0.483771  -0.000000
    16  H    0.182231  -0.000000
    17  H    0.218564   0.000000
    18  H    0.149016  -0.000000
    19  H    0.199576   0.000000
    20  H    0.181627  -0.000000
    21  H    0.181541  -0.000000
    22  H    0.175794  -0.000000
    23  H    0.190783   0.000000
    24  H    0.187246   0.000000
    25  H    0.170696   0.000000
    26  H    0.170815   0.000000
    27  H    0.164252   0.000000
 Sum of Mulliken charges =  -0.00000  -0.00000
 Mulliken charges and spin densities with hydrogens summed into heavy atoms:
               1          2
     1  C    0.242111  -0.000000
     2  C   -0.104699   0.000000
     3  C   -0.407590   0.000000
     4  C    0.487292   0.000000
     5  C    1.029471  -0.000000
     6  C    0.705708  -0.000000
     7  C   -1.273158  -0.000000
     8  C    0.198549  -0.000000
     9  C    0.748774   0.000000
    10  C   -1.388076   0.000000
    11  O   -0.269469  -0.000000
    12  O   -0.232306  -0.000000
    13  C    0.054504   0.000000
    14  C    0.186898   0.000000
    15  C    0.021991  -0.000000
 Electronic spatial extent (au):  <R**2>=           3068.3895
 Charge=             -0.0000 electrons
 Dipole moment (field-independent basis, Debye):
    X=             -0.9962    Y=              0.6162    Z=             -0.0027  Tot=              1.1713
 Quadrupole moment (field-independent basis, Debye-Ang):
   XX=            -69.9322   YY=           -101.2156   ZZ=            -89.0154
   XY=              8.3245   XZ=              0.0094   YZ=             -0.0058
 Traceless Quadrupole moment (field-independent basis, Debye-Ang):
   XX=             16.7889   YY=            -14.4945   ZZ=             -2.2943
   XY=              8.3245   XZ=              0.0094   YZ=             -0.0058
 Octapole moment (field-independent basis, Debye-Ang**2):
  XXX=             -7.1901  YYY=             -0.9713  ZZZ=              0.0596  XYY=            -22.5385
  XXY=              7.4263  XXZ=             -0.0255  XZZ=              9.4813  YZZ=              5.8794
  YYZ=             -0.0485  XYZ=              0.0392
 Hexadecapole moment (field-independent basis, Debye-Ang**3):
 XXXX=          -2277.8171 YYYY=          -1648.5783 ZZZZ=           -117.2023 XXXY=             32.0483
 XXXZ=             -0.1757 YYYX=             78.2822 YYYZ=             -0.2373 ZZZX=              0.0914
 ZZZY=              0.1548 XXYY=           -647.0568 XXZZ=           -458.8575 YYZZ=           -269.7901
 XXYZ=              0.2081 YYXZ=              0.1625 ZZXY=             -8.5964
 N-N= 9.458160727443D+02 E-N=-3.412943305201D+03  KE= 6.504631077043D+02
                          Isotropic Fermi Contact Couplings
        Atom                 a.u.       MegaHertz       Gauss      10(-4) cm-1
     1  C(13)             -0.00000      -0.00000      -0.00000      -0.00000
     2  C(13)             -0.00000      -0.00000      -0.00000      -0.00000
     3  C(13)             -0.00000      -0.00000      -0.00000      -0.00000
     4  C(13)              0.00000       0.00000       0.00000       0.00000
     5  C(13)             -0.00000      -0.00000      -0.00000      -0.00000
     6  C(13)              0.00000       0.00000       0.00000       0.00000
     7  C(13)             -0.00000      -0.00000      -0.00000      -0.00000
     8  C(13)             -0.00000      -0.00000      -0.00000      -0.00000
     9  C(13)             -0.00000      -0.00000      -0.00000      -0.00000
    10  C(13)              0.00000       0.00000       0.00000       0.00000
    11  O(17)             -0.00000       0.00000       0.00000       0.00000
    12  O(17)             -0.00000       0.00000       0.00000       0.00000
    13  C(13)             -0.00000      -0.00000      -0.00000      -0.00000
    14  C(13)              0.00000       0.00000       0.00000       0.00000
    15  C(13)             -0.00000      -0.00000      -0.00000      -0.00000
    16  H(1)               0.00000       0.00000       0.00000       0.00000
    17  H(1)              -0.00000      -0.00000      -0.00000      -0.00000
    18  H(1)               0.00000       0.00000       0.00000       0.00000
    19  H(1)               0.00000       0.00000       0.00000       0.00000
    20  H(1)              -0.00000      -0.00000      -0.00000      -0.00000
    21  H(1)              -0.00000      -0.00000      -0.00000      -0.00000
    22  H(1)               0.00000       0.00000       0.00000       0.00000
    23  H(1)              -0.00000      -0.00000      -0.00000      -0.00000
    24  H(1)               0.00000       0.00000       0.00000       0.00000
    25  H(1)               0.00000       0.00000       0.00000       0.00000
    26  H(1)               0.00000       0.00000       0.00000       0.00000
    27  H(1)               0.00000       0.00000       0.00000       0.00000
 --------------------------------------------------------
       Center         ----  Spin Dipole Couplings  ----
                      3XX-RR        3YY-RR        3ZZ-RR
 --------------------------------------------------------
     1   Atom       -0.000000      0.000000      0.000000
     2   Atom       -0.000000      0.000000     -0.000000
     3   Atom        0.000000     -0.000000     -0.000000
     4   Atom       -0.000000      0.000000      0.000000
     5   Atom        0.000000      0.000000     -0.000000
     6   Atom        0.000000     -0.000000     -0.000000
     7   Atom       -0.000000     -0.000000      0.000000
     8   Atom       -0.000000      0.000000      0.000000
     9   Atom       -0.000000     -0.000000      0.000000
    10   Atom        0.000000     -0.000000     -0.000000
    11   Atom       -0.000000      0.000000      0.000000
    12   Atom       -0.000000      0.000000     -0.000000
    13   Atom       -0.000000      0.000000      0.000000
    14   Atom        0.000000     -0.000000      0.000000
    15   Atom       -0.000000      0.000000      0.000000
    16   Atom       -0.000000      0.000000      0.000000
    17   Atom       -0.000000      0.000000     -0.000000
    18   Atom       -0.000000     -0.000000      0.000000
    19   Atom       -0.000000      0.000000      0.000000
    20   Atom       -0.000000     -0.000000      0.000000
    21   Atom        0.000000     -0.000000      0.000000
    22   Atom       -0.000000      0.000000     -0.000000
    23   Atom        0.000000      0.000000     -0.000000
    24   Atom       -0.000000      0.000000     -0.000000
    25   Atom       -0.000000      0.000000      0.000000
    26   Atom       -0.000000      0.000000      0.000000
    27   Atom        0.000000      0.000000     -0.000000
 --------------------------------------------------------
                        XY            XZ            YZ
 --------------------------------------------------------
     1   Atom       -0.000000      0.000000      0.000000
     2   Atom       -0.000000     -0.000000      0.000000
     3   Atom        0.000000     -0.000000      0.000000
     4   Atom       -0.000000     -0.000000     -0.000000
     5   Atom        0.000000     -0.000000     -0.000000
     6   Atom        0.000000      0.000000      0.000000
     7   Atom        0.000000     -0.000000      0.000000
     8   Atom       -0.000000      0.000000      0.000000
     9   Atom       -0.000000      0.000000     -0.000000
    10   Atom        0.000000      0.000000      0.000000
    11   Atom        0.000000      0.000000      0.000000
    12   Atom        0.000000      0.000000      0.000000
    13   Atom        0.000000      0.000000      0.000000
    14   Atom        0.000000      0.000000     -0.000000
    15   Atom        0.000000     -0.000000      0.000000
    16   Atom       -0.000000      0.000000     -0.000000
    17   Atom        0.000000     -0.000000      0.000000
    18   Atom        0.000000      0.000000     -0.000000
    19   Atom        0.000000     -0.000000     -0.000000
    20   Atom       -0.000000      0.000000     -0.000000
    21   Atom       -0.000000     -0.000000      0.000000
    22   Atom        0.000000     -0.000000      0.000000
    23   Atom        0.000000     -0.000000      0.000000
    24   Atom        0.000000      0.000000      0.000000
    25   Atom        0.000000      0.000000      0.000000
    26   Atom        0.000000     -0.000000     -0.000000
    27   Atom       -0.000000     -0.000000      0.000000
 --------------------------------------------------------


 ---------------------------------------------------------------------------------
              Anisotropic Spin Dipole Couplings in Principal Axis System
 ---------------------------------------------------------------------------------

       Atom             a.u.   MegaHertz   Gauss  10(-4) cm-1        Axes

              Baa    -0.0000    -0.000    -0.000    -0.000  0.9619  0.2734 -0.0057
     1 C(13)  Bbb     0.0000     0.000     0.000     0.000  0.0164 -0.0369  0.9992
              Bcc     0.0000     0.000     0.000     0.000 -0.2730  0.9612  0.0400
 
              Baa    -0.0000    -0.000    -0.000    -0.000  0.8491  0.5146 -0.1197
     2 C(13)  Bbb    -0.0000    -0.000    -0.000    -0.000  0.1846 -0.0767  0.9798
              Bcc     0.0000     0.000     0.000     0.000 -0.4950  0.8540  0.1601
 
              Baa    -0.0000    -0.000    -0.000    -0.000 -0.3160  0.9472 -0.0542
     3 C(13)  Bbb    -0.0000    -0.000    -0.000    -0.000 -0.0167  0.0516  0.9985
              Bcc     0.0000     0.000     0.000     0.000  0.9486  0.3165 -0.0005
 
              Baa    -0.0000    -0.000    -0.000    -0.000  0.9813  0.1615  0.1050
     4 C(13)  Bbb     0.0000     0.000     0.000     0.000 -0.1379  0.2081  0.9683
              Bcc     0.0000     0.000     0.000     0.000 -0.1346  0.9647 -0.2265
 
              Baa    -0.0000    -0.000    -0.000    -0.000  0.0070  0.0025  1.0000
     5 C(13)  Bbb    -0.0000    -0.000    -0.000    -0.000 -0.3421  0.9397  0.0001
              Bcc     0.0000     0.000     0.000     0.000  0.9396  0.3421 -0.0074
 
              Baa    -0.0000    -0.000    -0.000    -0.000 -0.4745  0.8798 -0.0280
     6 C(13)  Bbb    -0.0000    -0.000    -0.000    -0.000 -0.0454  0.0074  0.9989
              Bcc     0.0000     0.000     0.000     0.000  0.8791  0.4753  0.0364
 
              Baa    -0.0000    -0.000    -0.000    -0.000  0.8021 -0.5939  0.0628
     7 C(13)  Bbb     0.0000     0.000     0.000     0.000  0.5850  0.8026  0.1167
              Bcc     0.0000     0.000     0.000     0.000 -0.1197 -0.0569  0.9912
 
              Baa    -0.0000    -0.000    -0.000    -0.000  0.9805  0.1961 -0.0140
     8 C(13)  Bbb     0.0000     0.000     0.000     0.000  0.0290 -0.0738  0.9969
              Bcc     0.0000     0.000     0.000     0.000 -0.1944  0.9778  0.0781
 
              Baa    -0.0000    -0.000    -0.000    -0.000  0.4261  0.9035  0.0468
     9 C(13)  Bbb     0.0000     0.000     0.000     0.000  0.9042 -0.4235 -0.0558
              Bcc     0.0000     0.000     0.000     0.000  0.0306 -0.0661  0.9973
 
              Baa    -0.0000    -0.000    -0.000    -0.000 -0.3639  0.9288 -0.0696
    10 C(13)  Bbb    -0.0000    -0.000    -0.000    -0.000 -0.0389  0.0596  0.9975
              Bcc     0.0000     0.000     0.000     0.000  0.9306  0.3657  0.0145
 
              Baa    -0.0000     0.000     0.000     0.000  0.8583 -0.4999 -0.1154
    11 O(17)  Bbb     0.0000    -0.000    -0.000    -0.000  0.0422 -0.1553  0.9870
              Bcc     0.0000    -0.000    -0.000    -0.000  0.5113  0.8520  0.1123
 
              Baa    -0.0000     0.000     0.000     0.000  0.8207 -0.1727 -0.5446
    12 O(17)  Bbb    -0.0000     0.000     0.000     0.000  0.4855 -0.2918  0.8241
              Bcc     0.0000    -0.000    -0.000    -0.000  0.3012  0.9408  0.1556
 
              Baa    -0.0000    -0.000    -0.000    -0.000  0.8191 -0.5736  0.0024
    13 C(13)  Bbb     0.0000     0.000     0.000     0.000 -0.0832 -0.1147  0.9899
              Bcc     0.0000     0.000     0.000     0.000  0.5675  0.8111  0.1417
 
              Baa    -0.0000    -0.000    -0.000    -0.000 -0.3649  0.9261  0.0959
    14 C(13)  Bbb     0.0000     0.000     0.000     0.000  0.6961  0.2029  0.6886
              Bcc     0.0000     0.000     0.000     0.000 -0.6183 -0.3180  0.7187
 
              Baa    -0.0000    -0.000    -0.000    -0.000  0.8759 -0.4781  0.0652
    15 C(13)  Bbb     0.0000     0.000     0.000     0.000 -0.0803 -0.0113  0.9967
              Bcc     0.0000     0.000     0.000     0.000  0.4758  0.8782  0.0483
 
              Baa    -0.0000    -0.000    -0.000    -0.000  0.9678  0.2517 -0.0052
    16 H(1)   Bbb     0.0000     0.000     0.000     0.000 -0.2516  0.9678  0.0064
              Bcc     0.0000     0.000     0.000     0.000  0.0066 -0.0049  1.0000
 
              Baa    -0.0000    -0.000    -0.000    -0.000  0.6323 -0.3813  0.6744
    17 H(1)   Bbb    -0.0000    -0.000    -0.000    -0.000 -0.5765  0.3500  0.7384
              Bcc     0.0000     0.000     0.000     0.000  0.5176  0.8556 -0.0014
 
              Baa    -0.0000    -0.000    -0.000    -0.000  0.8378 -0.5454 -0.0252
    18 H(1)   Bbb     0.0000     0.000     0.000     0.000  0.5454  0.8381 -0.0054
              Bcc     0.0000     0.000     0.000     0.000  0.0241 -0.0092  0.9997
 
              Baa    -0.0000    -0.000    -0.000    -0.000  0.8987 -0.4384 -0.0108
    19 H(1)   Bbb     0.0000     0.000     0.000     0.000  0.2130  0.4148  0.8846
              Bcc     0.0000     0.000     0.000     0.000  0.3833  0.7973 -0.4662
 
              Baa    -0.0000    -0.000    -0.000    -0.000  0.1141  0.9676  0.2252
    20 H(1)   Bbb     0.0000     0.000     0.000     0.000  0.9898 -0.0912 -0.1095
              Bcc     0.0000     0.000     0.000     0.000  0.0854 -0.2354  0.9681
 
              Baa    -0.0000    -0.000    -0.000    -0.000 -0.0169  0.9684 -0.2490
    21 H(1)   Bbb     0.0000     0.000     0.000     0.000  0.9486  0.0942  0.3020
              Bcc     0.0000     0.000     0.000     0.000 -0.3159  0.2311  0.9202
 
              Baa    -0.0000    -0.000    -0.000    -0.000  0.9964 -0.0682  0.0499
    22 H(1)   Bbb    -0.0000    -0.000    -0.000    -0.000 -0.0516 -0.0238  0.9984
              Bcc     0.0000     0.000     0.000     0.000  0.0669  0.9974  0.0272
 
              Baa    -0.0000    -0.000    -0.000    -0.000  0.5002 -0.0903  0.8612
    23 H(1)   Bbb     0.0000     0.000     0.000     0.000 -0.6239  0.6521  0.4307
              Bcc     0.0000     0.000     0.000     0.000  0.6005  0.7527 -0.2699
 
              Baa    -0.0000    -0.000    -0.000    -0.000 -0.6049 -0.1822  0.7752
    24 H(1)   Bbb     0.0000     0.000     0.000     0.000 -0.5698  0.7791 -0.2616
              Bcc     0.0000     0.000     0.000     0.000  0.5563  0.5999  0.5750
 
              Baa    -0.0000    -0.000    -0.000    -0.000  0.9871 -0.1499 -0.0568
    25 H(1)   Bbb     0.0000     0.000     0.000     0.000 -0.0577 -0.6629  0.7465
              Bcc     0.0000     0.000     0.000     0.000  0.1495  0.7336  0.6629
 
              Baa    -0.0000    -0.000    -0.000    -0.000  0.9868 -0.1380  0.0846
    26 H(1)   Bbb     0.0000     0.000     0.000     0.000  0.0253  0.6477  0.7614
              Bcc     0.0000     0.000     0.000     0.000  0.1599  0.7493 -0.6427
 
              Baa    -0.0000    -0.000    -0.000    -0.000  0.0090 -0.0010  1.0000
    27 H(1)   Bbb     0.0000     0.000     0.000     0.000  0.5215  0.8533 -0.0038
              Bcc     0.0000     0.000     0.000     0.000  0.8532 -0.5215 -0.0082
 

 ---------------------------------------------------------------------------------

 No NMR shielding tensors so no spin-rotation constants.
 Leave Link  601 at Sun Jan 21 07:59:40 2024, MaxMem=  4026531840 cpu:              13.7 elap:               2.8
 (Enter /sysapps/ubuntu-applications/gaussian/Gaussian/AVX2/g16/l9999.exe)
 1\1\GINC-ACIDSGN003\SP\UB3LYP\6-311++G(d,p)\C13H12O2\SELHAJJ1\21-Jan-2
 024\0\\#P UB3LYP/6-311++G(d,p) SCRF=(PCM,Solvent=n,n-DiMethylFormamide
 )\\Quinone PCM in DMF\\0,1\C,0,-1.641073,2.798217,0.073132\C,0,-2.9008
 73,2.214234,0.088657\C,0,-3.02197,0.828463,0.069122\C,0,-0.508404,1.98
 6602,0.03818\C,0,-0.624783,0.582478,0.018314\C,0,-1.906413,-0.018184,0
 .03378\C,0,0.827769,2.655403,0.022432\C,0,2.058166,1.813623,-0.014281\
 C,0,1.953724,0.46436,-0.03095\C,0,0.624817,-0.227535,-0.018458\O,0,0.9
 09556,3.875018,0.039572\O,0,0.60507,-1.451153,-0.039189\C,0,3.37214,2.
 551227,-0.029938\C,0,3.136433,-0.460568,-0.066932\C,0,-2.145175,-1.507
 64,0.014671\H,0,-1.51091,3.872611,0.087444\H,0,-3.789681,2.834579,0.11
 5931\H,0,-4.010114,0.38119,0.081519\H,0,3.196057,3.625105,-0.017921\H,
 0,3.953099,2.304525,-0.923044\H,0,3.981854,2.290566,0.83989\H,0,4.0805
 18,0.079833,-0.051694\H,0,3.101355,-1.087829,-0.96229\H,0,3.106235,-1.
 149402,0.781567\H,0,-1.677199,-2.001862,0.868174\H,0,-1.712483,-1.9736
 42,-0.872585\H,0,-3.217996,-1.71042,0.033175\\Version=ES64L-G16RevA.03
 \State=1-A\HF=-653.2493083\S2=0.\S2-1=0.\S2A=0.\RMSD=5.756e-09\Dipole=
 -0.3360221,-0.315368,0.0026516\Quadrupole=13.9669726,-12.265235,-1.701
 7376,-1.1802532,-0.3264113,-0.1467347\PG=C01 [X(C13H12O2)]\\@


 MARY HAD A LITTLE LAMB
      HIS FEET WERE BLACK AS SOOT,
           AND EVERYWHERE THAT MARY WENT
                HIS SOOTY FOOT HE PUT.

                    -- NONAME
 Job cpu time:       0 days  0 hours 29 minutes 55.2 seconds.
 Elapsed time:       0 days  0 hours  3 minutes 47.0 seconds.
 File lengths (MBytes):  RWF=    243 Int=      0 D2E=      0 Chk=     14 Scr=      1
 Normal termination of Gaussian 16 at Sun Jan 21 07:59:40 2024.
