 Entering Gaussian System, Link 0=g16
 Input=281.com
 Output=281.log
 Initial command:
 /sysapps/ubuntu-applications/gaussian/Gaussian/AVX2/g16/l1.exe "/scratch/selhajj1/4407471/Gau-580402.inp" -scrdir="/scratch/selhajj1/4407471/"
 Entering Link 1 = /sysapps/ubuntu-applications/gaussian/Gaussian/AVX2/g16/l1.exe PID=    580404.
  
 Copyright (c) 1988,1990,1992,1993,1995,1998,2003,2009,2016,
            Gaussian, Inc.  All Rights Reserved.
  
 This is part of the Gaussian(R) 16 program.  It is based on
 the Gaussian(R) 09 system (copyright 2009, Gaussian, Inc.),
 the Gaussian(R) 03 system (copyright 2003, Gaussian, Inc.),
 the Gaussian(R) 98 system (copyright 1998, Gaussian, Inc.),
 the Gaussian(R) 94 system (copyright 1995, Gaussian, Inc.),
 the Gaussian 92(TM) system (copyright 1992, Gaussian, Inc.),
 the Gaussian 90(TM) system (copyright 1990, Gaussian, Inc.),
 the Gaussian 88(TM) system (copyright 1988, Gaussian, Inc.),
 the Gaussian 86(TM) system (copyright 1986, Carnegie Mellon
 University), and the Gaussian 82(TM) system (copyright 1983,
 Carnegie Mellon University). Gaussian is a federally registered
 trademark of Gaussian, Inc.
  
 This software contains proprietary and confidential information,
 including trade secrets, belonging to Gaussian, Inc.
  
 This software is provided under written license and may be
 used, copied, transmitted, or stored only in accord with that
 written license.
  
 The following legend is applicable only to US Government
 contracts under FAR:
  
                    RESTRICTED RIGHTS LEGEND
  
 Use, reproduction and disclosure by the US Government is
 subject to restrictions as set forth in subparagraphs (a)
 and (c) of the Commercial Computer Software - Restricted
 Rights clause in FAR 52.227-19.
  
 Gaussian, Inc.
 340 Quinnipiac St., Bldg. 40, Wallingford CT 06492
  
  
 ---------------------------------------------------------------
 Warning -- This program may not be used in any manner that
 competes with the business of Gaussian, Inc. or will provide
 assistance to any competitor of Gaussian, Inc.  The licensee
 of this program is prohibited from giving any competitor of
 Gaussian, Inc. access to this program.  By using this program,
 the user acknowledges that Gaussian, Inc. is engaged in the
 business of creating and licensing software in the field of
 computational chemistry and represents and warrants to the
 licensee that it is not a competitor of Gaussian, Inc. and that
 it will not use this program in any manner prohibited above.
 ---------------------------------------------------------------
  

 Cite this work as:
 Gaussian 16, Revision A.03,
 M. J. Frisch, G. W. Trucks, H. B. Schlegel, G. E. Scuseria, 
 M. A. Robb, J. R. Cheeseman, G. Scalmani, V. Barone, 
 G. A. Petersson, H. Nakatsuji, X. Li, M. Caricato, A. V. Marenich, 
 J. Bloino, B. G. Janesko, R. Gomperts, B. Mennucci, H. P. Hratchian, 
 J. V. Ortiz, A. F. Izmaylov, J. L. Sonnenberg, D. Williams-Young, 
 F. Ding, F. Lipparini, F. Egidi, J. Goings, B. Peng, A. Petrone, 
 T. Henderson, D. Ranasinghe, V. G. Zakrzewski, J. Gao, N. Rega, 
 G. Zheng, W. Liang, M. Hada, M. Ehara, K. Toyota, R. Fukuda, 
 J. Hasegawa, M. Ishida, T. Nakajima, Y. Honda, O. Kitao, H. Nakai, 
 T. Vreven, K. Throssell, J. A. Montgomery, Jr., J. E. Peralta, 
 F. Ogliaro, M. J. Bearpark, J. J. Heyd, E. N. Brothers, K. N. Kudin, 
 V. N. Staroverov, T. A. Keith, R. Kobayashi, J. Normand, 
 K. Raghavachari, A. P. Rendell, J. C. Burant, S. S. Iyengar, 
 J. Tomasi, M. Cossi, J. M. Millam, M. Klene, C. Adamo, R. Cammi, 
 J. W. Ochterski, R. L. Martin, K. Morokuma, O. Farkas, 
 J. B. Foresman, and D. J. Fox, Gaussian, Inc., Wallingford CT, 2016.
 
 ******************************************
 Gaussian 16:  ES64L-G16RevA.03 25-Dec-2016
                11-Feb-2024 
 ******************************************
 %chk=281.chk
 %nproc=8
 Will use up to    8 processors via shared memory.
 %mem=30GB
 ----------------------------------------------------------------------
 #P UB3LYP/6-311++G(d,p) nosym opt freq SCRF=(PCM,Solvent=n,n-DiMethylF
 ormamide)
 ----------------------------------------------------------------------
 1/18=20,19=15,26=3,38=1/1,3;
 2/9=110,12=2,15=1,17=6,18=5,40=1/2;
 3/5=4,6=6,7=1111,11=2,25=1,30=1,70=2201,71=1,72=148,74=-5,116=2/1,2,3;
 4//1;
 5/5=2,38=5,53=148/2;
 6/7=2,8=2,9=2,10=2,28=1/1;
 7/30=1/1,2,3,16;
 1/18=20,19=15,26=3/3(2);
 2/9=110,15=1/2;
 99//99;
 2/9=110,15=1/2;
 3/5=4,6=6,7=1111,11=2,25=1,30=1,70=2205,71=1,72=148,74=-5,116=2/1,2,3;
 4/5=5,16=3,69=1/1;
 5/5=2,38=5,53=148/2;
 7/30=1/1,2,3,16;
 1/18=20,19=15,26=3/3(-5);
 2/9=110,15=1/2;
 6/7=2,8=2,9=2,10=2,19=2,28=1/1;
 99/9=1/99;
 Leave Link    1 at Sun Feb 11 00:19:17 2024, MaxMem=  4026531840 cpu:               0.6 elap:               0.1
 (Enter /sysapps/ubuntu-applications/gaussian/Gaussian/AVX2/g16/l101.exe)
 --------
 Oxidized
 --------
 Symbolic Z-matrix:
 Charge =  0 Multiplicity = 1
 C                     3.3085   -0.25853  -0.11732 
 C                     1.82265  -0.45008  -0.15828 
 C                     0.96756   0.72811   0.09136 
 O                     1.46486   1.82095   0.32337 
 C                    -0.52576   0.56757   0.05672 
 C                    -1.34353   1.67156   0.2903 
 C                    -2.72986   1.53149   0.25993 
 C                    -3.30883   0.28875  -0.00375 
 C                    -2.50066  -0.81944  -0.23821 
 C                    -1.11088  -0.6814   -0.20826 
 C                    -0.24066  -1.8455   -0.45461 
 O                    -0.65583  -2.97369  -0.69391 
 C                     1.23787  -1.64606  -0.41179 
 O                     1.94316  -2.76385  -0.64838 
 H                     3.83006  -1.19327  -0.31598 
 H                     3.61662   0.125     0.85936 
 H                     3.61679   0.48924  -0.85332 
 H                    -0.87792   2.62801   0.49322 
 H                    -3.3614    2.39358   0.44231 
 H                    -4.38755   0.18604  -0.02606 
 H                    -2.92656  -1.79364  -0.44489 
 H                     1.28675  -3.47051  -0.79842 
 
 ITRead=  0  0  0  0  0  0  0  0  0  0  0  0  0  0  0  0  0  0  0  0
 ITRead=  0  0
 MicOpt= -1 -1 -1 -1 -1 -1 -1 -1 -1 -1 -1 -1 -1 -1 -1 -1 -1 -1 -1 -1
 MicOpt= -1 -1
 NAtoms=     22 NQM=       22 NQMF=       0 NMMI=      0 NMMIF=      0
                NMic=       0 NMicF=      0.
                    Isotopes and Nuclear Properties:
 (Nuclear quadrupole moments (NQMom) in fm**2, nuclear magnetic moments (NMagM)
  in nuclear magnetons)

  Atom         1           2           3           4           5           6           7           8           9          10
 IAtWgt=          12          12          12          16          12          12          12          12          12          12
 AtmWgt=  12.0000000  12.0000000  12.0000000  15.9949146  12.0000000  12.0000000  12.0000000  12.0000000  12.0000000  12.0000000
 NucSpn=           0           0           0           0           0           0           0           0           0           0
 AtZEff=  -0.0000000  -0.0000000  -0.0000000  -0.0000000  -0.0000000  -0.0000000  -0.0000000  -0.0000000  -0.0000000  -0.0000000
 NQMom=    0.0000000   0.0000000   0.0000000   0.0000000   0.0000000   0.0000000   0.0000000   0.0000000   0.0000000   0.0000000
 NMagM=    0.0000000   0.0000000   0.0000000   0.0000000   0.0000000   0.0000000   0.0000000   0.0000000   0.0000000   0.0000000
 AtZNuc=   6.0000000   6.0000000   6.0000000   8.0000000   6.0000000   6.0000000   6.0000000   6.0000000   6.0000000   6.0000000

  Atom        11          12          13          14          15          16          17          18          19          20
 IAtWgt=          12          16          12          16           1           1           1           1           1           1
 AtmWgt=  12.0000000  15.9949146  12.0000000  15.9949146   1.0078250   1.0078250   1.0078250   1.0078250   1.0078250   1.0078250
 NucSpn=           0           0           0           0           1           1           1           1           1           1
 AtZEff=  -0.0000000  -0.0000000  -0.0000000  -0.0000000  -0.0000000  -0.0000000  -0.0000000  -0.0000000  -0.0000000  -0.0000000
 NQMom=    0.0000000   0.0000000   0.0000000   0.0000000   0.0000000   0.0000000   0.0000000   0.0000000   0.0000000   0.0000000
 NMagM=    0.0000000   0.0000000   0.0000000   0.0000000   2.7928460   2.7928460   2.7928460   2.7928460   2.7928460   2.7928460
 AtZNuc=   6.0000000   8.0000000   6.0000000   8.0000000   1.0000000   1.0000000   1.0000000   1.0000000   1.0000000   1.0000000

  Atom        21          22
 IAtWgt=           1           1
 AtmWgt=   1.0078250   1.0078250
 NucSpn=           1           1
 AtZEff=  -0.0000000  -0.0000000
 NQMom=    0.0000000   0.0000000
 NMagM=    2.7928460   2.7928460
 AtZNuc=   1.0000000   1.0000000
 Leave Link  101 at Sun Feb 11 00:19:18 2024, MaxMem=  4026531840 cpu:               2.9 elap:               0.4
 (Enter /sysapps/ubuntu-applications/gaussian/Gaussian/AVX2/g16/l103.exe)

 GradGradGradGradGradGradGradGradGradGradGradGradGradGradGradGradGradGrad
 Berny optimization.
 Initialization pass.
                           ----------------------------
                           !    Initial Parameters    !
                           ! (Angstroms and Degrees)  !
 --------------------------                            --------------------------
 ! Name  Definition              Value          Derivative Info.                !
 --------------------------------------------------------------------------------
 ! R1    R(1,2)                  1.4987         estimate D2E/DX2                !
 ! R2    R(1,15)                 1.0887         estimate D2E/DX2                !
 ! R3    R(1,16)                 1.0936         estimate D2E/DX2                !
 ! R4    R(1,17)                 1.0936         estimate D2E/DX2                !
 ! R5    R(2,3)                  1.477          estimate D2E/DX2                !
 ! R6    R(2,13)                 1.3552         estimate D2E/DX2                !
 ! R7    R(3,4)                  1.2229         estimate D2E/DX2                !
 ! R8    R(3,5)                  1.5023         estimate D2E/DX2                !
 ! R9    R(5,6)                  1.3936         estimate D2E/DX2                !
 ! R10   R(5,10)                 1.4045         estimate D2E/DX2                !
 ! R11   R(6,7)                  1.3937         estimate D2E/DX2                !
 ! R12   R(6,18)                 1.0829         estimate D2E/DX2                !
 ! R13   R(7,8)                  1.3961         estimate D2E/DX2                !
 ! R14   R(7,19)                 1.0841         estimate D2E/DX2                !
 ! R15   R(8,9)                  1.3915         estimate D2E/DX2                !
 ! R16   R(8,20)                 1.0838         estimate D2E/DX2                !
 ! R17   R(9,10)                 1.3969         estimate D2E/DX2                !
 ! R18   R(9,21)                 1.0831         estimate D2E/DX2                !
 ! R19   R(10,11)                1.4742         estimate D2E/DX2                !
 ! R20   R(11,12)                1.2257         estimate D2E/DX2                !
 ! R21   R(11,13)                1.4925         estimate D2E/DX2                !
 ! R22   R(13,14)                1.3427         estimate D2E/DX2                !
 ! R23   R(14,22)                0.9761         estimate D2E/DX2                !
 ! A1    A(2,1,15)             111.1145         estimate D2E/DX2                !
 ! A2    A(2,1,16)             110.3995         estimate D2E/DX2                !
 ! A3    A(2,1,17)             110.3953         estimate D2E/DX2                !
 ! A4    A(15,1,16)            109.2145         estimate D2E/DX2                !
 ! A5    A(15,1,17)            109.2223         estimate D2E/DX2                !
 ! A6    A(16,1,17)            106.3702         estimate D2E/DX2                !
 ! A7    A(1,2,3)              117.8649         estimate D2E/DX2                !
 ! A8    A(1,2,13)             123.0732         estimate D2E/DX2                !
 ! A9    A(3,2,13)             119.0619         estimate D2E/DX2                !
 ! A10   A(2,3,4)              120.6296         estimate D2E/DX2                !
 ! A11   A(2,3,5)              119.0989         estimate D2E/DX2                !
 ! A12   A(4,3,5)              120.2715         estimate D2E/DX2                !
 ! A13   A(3,5,6)              119.6544         estimate D2E/DX2                !
 ! A14   A(3,5,10)             120.8976         estimate D2E/DX2                !
 ! A15   A(6,5,10)             119.448          estimate D2E/DX2                !
 ! A16   A(5,6,7)              120.0278         estimate D2E/DX2                !
 ! A17   A(5,6,18)             118.6051         estimate D2E/DX2                !
 ! A18   A(7,6,18)             121.367          estimate D2E/DX2                !
 ! A19   A(6,7,8)              120.4032         estimate D2E/DX2                !
 ! A20   A(6,7,19)             119.7265         estimate D2E/DX2                !
 ! A21   A(8,7,19)             119.8703         estimate D2E/DX2                !
 ! A22   A(7,8,9)              119.9924         estimate D2E/DX2                !
 ! A23   A(7,8,20)             120.0653         estimate D2E/DX2                !
 ! A24   A(9,8,20)             119.9424         estimate D2E/DX2                !
 ! A25   A(8,9,10)             119.7035         estimate D2E/DX2                !
 ! A26   A(8,9,21)             121.3379         estimate D2E/DX2                !
 ! A27   A(10,9,21)            118.9586         estimate D2E/DX2                !
 ! A28   A(5,10,9)             120.4251         estimate D2E/DX2                !
 ! A29   A(5,10,11)            119.1987         estimate D2E/DX2                !
 ! A30   A(9,10,11)            120.3762         estimate D2E/DX2                !
 ! A31   A(10,11,12)           124.0218         estimate D2E/DX2                !
 ! A32   A(10,11,13)           118.3247         estimate D2E/DX2                !
 ! A33   A(12,11,13)           117.6535         estimate D2E/DX2                !
 ! A34   A(2,13,11)            123.4182         estimate D2E/DX2                !
 ! A35   A(2,13,14)            122.7504         estimate D2E/DX2                !
 ! A36   A(11,13,14)           113.8315         estimate D2E/DX2                !
 ! A37   A(13,14,22)           106.0543         estimate D2E/DX2                !
 ! D1    D(15,1,2,3)          -179.9684         estimate D2E/DX2                !
 ! D2    D(15,1,2,13)            0.0421         estimate D2E/DX2                !
 ! D3    D(16,1,2,3)            58.699          estimate D2E/DX2                !
 ! D4    D(16,1,2,13)         -121.2904         estimate D2E/DX2                !
 ! D5    D(17,1,2,3)           -58.6289         estimate D2E/DX2                !
 ! D6    D(17,1,2,13)          121.3817         estimate D2E/DX2                !
 ! D7    D(1,2,3,4)             -0.009          estimate D2E/DX2                !
 ! D8    D(1,2,3,5)            179.9891         estimate D2E/DX2                !
 ! D9    D(13,2,3,4)           179.9808         estimate D2E/DX2                !
 ! D10   D(13,2,3,5)            -0.021          estimate D2E/DX2                !
 ! D11   D(1,2,13,11)         -179.991          estimate D2E/DX2                !
 ! D12   D(1,2,13,14)            0.0017         estimate D2E/DX2                !
 ! D13   D(3,2,13,11)            0.0197         estimate D2E/DX2                !
 ! D14   D(3,2,13,14)         -179.9876         estimate D2E/DX2                !
 ! D15   D(2,3,5,6)           -179.9849         estimate D2E/DX2                !
 ! D16   D(2,3,5,10)             0.0102         estimate D2E/DX2                !
 ! D17   D(4,3,5,6)              0.0133         estimate D2E/DX2                !
 ! D18   D(4,3,5,10)          -179.9916         estimate D2E/DX2                !
 ! D19   D(3,5,6,7)            179.9944         estimate D2E/DX2                !
 ! D20   D(3,5,6,18)            -0.0046         estimate D2E/DX2                !
 ! D21   D(10,5,6,7)            -0.0008         estimate D2E/DX2                !
 ! D22   D(10,5,6,18)         -179.9997         estimate D2E/DX2                !
 ! D23   D(3,5,10,9)          -179.9941         estimate D2E/DX2                !
 ! D24   D(3,5,10,11)            0.0021         estimate D2E/DX2                !
 ! D25   D(6,5,10,9)             0.001          estimate D2E/DX2                !
 ! D26   D(6,5,10,11)          179.9972         estimate D2E/DX2                !
 ! D27   D(5,6,7,8)              0.0            estimate D2E/DX2                !
 ! D28   D(5,6,7,19)          -179.999          estimate D2E/DX2                !
 ! D29   D(18,6,7,8)           179.9988         estimate D2E/DX2                !
 ! D30   D(18,6,7,19)           -0.0001         estimate D2E/DX2                !
 ! D31   D(6,7,8,9)              0.0007         estimate D2E/DX2                !
 ! D32   D(6,7,8,20)          -179.9993         estimate D2E/DX2                !
 ! D33   D(19,7,8,9)           179.9996         estimate D2E/DX2                !
 ! D34   D(19,7,8,20)           -0.0004         estimate D2E/DX2                !
 ! D35   D(7,8,9,10)            -0.0005         estimate D2E/DX2                !
 ! D36   D(7,8,9,21)          -179.9998         estimate D2E/DX2                !
 ! D37   D(20,8,9,10)          179.9995         estimate D2E/DX2                !
 ! D38   D(20,8,9,21)            0.0002         estimate D2E/DX2                !
 ! D39   D(8,9,10,5)            -0.0004         estimate D2E/DX2                !
 ! D40   D(8,9,10,11)         -179.9966         estimate D2E/DX2                !
 ! D41   D(21,9,10,5)          179.999          estimate D2E/DX2                !
 ! D42   D(21,9,10,11)           0.0028         estimate D2E/DX2                !
 ! D43   D(5,10,11,12)         179.9998         estimate D2E/DX2                !
 ! D44   D(5,10,11,13)          -0.0042         estimate D2E/DX2                !
 ! D45   D(9,10,11,12)          -0.0039         estimate D2E/DX2                !
 ! D46   D(9,10,11,13)         179.992          estimate D2E/DX2                !
 ! D47   D(10,11,13,2)          -0.0072         estimate D2E/DX2                !
 ! D48   D(10,11,13,14)        179.9995         estimate D2E/DX2                !
 ! D49   D(12,11,13,2)         179.989          estimate D2E/DX2                !
 ! D50   D(12,11,13,14)         -0.0043         estimate D2E/DX2                !
 ! D51   D(2,13,14,22)        -179.9904         estimate D2E/DX2                !
 ! D52   D(11,13,14,22)          0.003          estimate D2E/DX2                !
 --------------------------------------------------------------------------------
 Trust Radius=3.00D-01 FncErr=1.00D-07 GrdErr=1.00D-06 EigMax=2.50D+02 EigMin=1.00D-04
 Number of steps in this run=    122 maximum allowed number of steps=    132.
 GradGradGradGradGradGradGradGradGradGradGradGradGradGradGradGradGradGrad

 Leave Link  103 at Sun Feb 11 00:19:18 2024, MaxMem=  4026531840 cpu:               0.2 elap:               0.1
 (Enter /sysapps/ubuntu-applications/gaussian/Gaussian/AVX2/g16/l202.exe)
                          Input orientation:                          
 ---------------------------------------------------------------------
 Center     Atomic      Atomic             Coordinates (Angstroms)
 Number     Number       Type             X           Y           Z
 ---------------------------------------------------------------------
      1          6           0        3.308502   -0.258525   -0.117322
      2          6           0        1.822649   -0.450080   -0.158275
      3          6           0        0.967556    0.728108    0.091356
      4          8           0        1.464857    1.820954    0.323366
      5          6           0       -0.525758    0.567566    0.056723
      6          6           0       -1.343527    1.671563    0.290301
      7          6           0       -2.729864    1.531486    0.259927
      8          6           0       -3.308833    0.288747   -0.003748
      9          6           0       -2.500657   -0.819444   -0.238206
     10          6           0       -1.110884   -0.681396   -0.208256
     11          6           0       -0.240661   -1.845501   -0.454611
     12          8           0       -0.655832   -2.973688   -0.693914
     13          6           0        1.237868   -1.646062   -0.411790
     14          8           0        1.943156   -2.763853   -0.648383
     15          1           0        3.830059   -1.193272   -0.315981
     16          1           0        3.616622    0.125003    0.859358
     17          1           0        3.616787    0.489242   -0.853324
     18          1           0       -0.877917    2.628012    0.493224
     19          1           0       -3.361402    2.393577    0.442310
     20          1           0       -4.387551    0.186041   -0.026061
     21          1           0       -2.926563   -1.793636   -0.444892
     22          1           0        1.286753   -3.470514   -0.798423
 ---------------------------------------------------------------------
                    Distance matrix (angstroms):
                    1          2          3          4          5
     1  C    0.000000
     2  C    1.498709   0.000000
     3  C    2.548925   1.477033   0.000000
     4  O    2.813799   2.348955   1.222886   0.000000
     5  C    3.926101   2.568432   1.502318   2.367410   0.000000
     6  C    5.052996   3.837611   2.504155   2.812549   1.393598
     7  C    6.309383   4.982657   3.787446   4.205175   2.414232
     8  C    6.640898   5.186699   4.299952   5.024219   2.797660
     9  C    5.837428   4.339792   3.812090   4.797121   2.431256
    10  C    4.440502   2.943063   2.529107   3.630264   1.404454
    11  C    3.902411   2.508438   2.895053   4.117880   2.483070
    12  O    4.839474   3.577482   4.117685   5.340484   3.622272
    13  C    2.509880   1.355216   2.441907   3.551363   2.868803
    14  O    2.902217   2.368179   3.700378   4.711000   4.206075
    15  H    1.088687   2.146369   3.471534   3.884392   4.713025
    16  H    1.093588   2.141176   2.823316   2.791707   4.242570
    17  H    1.093569   2.141110   2.822747   2.790853   4.242051
    18  H    5.121618   4.146343   2.678974   2.483704   2.135413
    19  H    7.199615   5.943187   4.651541   4.861566   3.394683
    20  H    7.709423   6.244094   5.383753   6.086519   3.881476
    21  H    6.429611   4.943916   4.670216   5.739342   3.404520
    22  H    3.855936   3.133687   4.303722   5.412002   4.508055
                    6          7          8          9         10
     6  C    0.000000
     7  C    1.393727   0.000000
     8  C    2.420965   1.396112   0.000000
     9  C    2.797032   2.414031   1.391476   0.000000
    10  C    2.416423   2.781571   2.411220   1.396934   0.000000
    11  C    3.760445   4.255671   3.764568   2.491427   1.474150
    12  O    4.797912   5.050546   4.261247   2.872597   2.386952
    13  C    4.261827   5.127466   4.958072   3.832753   2.547281
    14  O    5.599672   6.411870   6.108790   4.867899   3.722566
    15  H    5.944817   7.126610   7.297784   6.342221   4.968555
    16  H    5.226734   6.528047   6.980952   6.286313   4.913186
    17  H    5.225943   6.527295   6.980415   6.286028   4.912981
    18  H    1.082943   2.164834   3.410058   3.879849   3.390948
    19  H    2.148541   1.084115   2.152218   3.395215   3.865686
    20  H    3.401903   2.154051   1.083826   2.148575   3.394435
    21  H    3.879963   3.404687   2.162651   1.083127   2.142374
    22  H    5.877470   6.501794   5.990239   4.656876   3.725069
                   11         12         13         14         15
    11  C    0.000000
    12  O    1.225740   0.000000
    13  C    1.492534   2.329868   0.000000
    14  O    2.376968   2.607842   1.342708   0.000000
    15  H    4.124971   4.841067   2.633183   2.477422   0.000000
    16  H    4.526371   5.501673   3.226602   3.663231   1.778996
    17  H    4.526577   5.502051   3.227031   3.664105   1.779066
    18  H    4.617013   5.730415   4.854205   6.191440   6.117357
    19  H    5.339782   6.117078   6.180733   7.478438   8.072026
    20  H    4.637620   4.935144   5.928805   7.011919   8.337606
    21  H    2.686420   2.571139   4.167176   4.969597   6.784467
    22  H    2.256517   2.007833   1.865610   0.976087   3.447751
                   16         17         18         19         20
    16  H    0.000000
    17  H    1.750985   0.000000
    18  H    5.157518   5.156539   0.000000
    19  H    7.349366   7.348488   2.495045   0.000000
    20  H    8.053228   8.052684   4.307019   2.479026   0.000000
    21  H    6.942299   6.942174   4.962659   4.302205   2.495802
    22  H    4.593938   4.594751   6.598952   7.585007   6.794458
                   21         22
    21  H    0.000000
    22  H    4.548509   0.000000
 Symmetry turned off by external request.
 Stoichiometry    C11H8O3
 Framework group  C1[X(C11H8O3)]
 Deg. of freedom    60
 Full point group                 C1      NOp   1
 Rotational constants (GHZ):           1.1216947           0.6514445           0.4131473
 Leave Link  202 at Sun Feb 11 00:19:18 2024, MaxMem=  4026531840 cpu:               0.3 elap:               0.1
 (Enter /sysapps/ubuntu-applications/gaussian/Gaussian/AVX2/g16/l301.exe)
 Standard basis: 6-311++G(d,p) (5D, 7F)
 Ernie: Thresh=  0.10000D-02 Tol=  0.10000D-05 Strict=F.
   364 basis functions,   576 primitive gaussians,   378 cartesian basis functions
    49 alpha electrons       49 beta electrons
       nuclear repulsion energy       836.9195177457 Hartrees.
 IExCor=  402 DFT=T Ex+Corr=B3LYP ExCW=0 ScaHFX=  0.200000
 ScaDFX=  0.800000  0.720000  1.000000  0.810000 ScalE2=  1.000000  1.000000
 IRadAn=      5 IRanWt=     -1 IRanGd=            0 ICorTp=0 IEmpDi=  4
 NAtoms=   22 NActive=   22 NUniq=   22 SFac= 1.00D+00 NAtFMM=   60 NAOKFM=F Big=F
 Integral buffers will be    131072 words long.
 Raffenetti 2 integral format.
 Two-electron integral symmetry is turned off.
 ------------------------------------------------------------------------------
 Polarizable Continuum Model (PCM)
 =================================
 Model                : PCM.
 Atomic radii         : UFF (Universal Force Field).
 Polarization charges : Total charges.
 Charge compensation  : None.
 Solution method      : On-the-fly selection.
 Cavity type          : Scaled VdW (van der Waals Surface) (Alpha=1.100).
 Cavity algorithm     : GePol (No added spheres)
                        Default sphere list used, NSphG=   22.
                        Lebedev-Laikov grids with approx.  5.0 points / Ang**2.
                        Smoothing algorithm: York/Karplus (Gamma=1.0000).
                        Polarization charges: spherical gaussians, with
                                              point-specific exponents (IZeta= 3).
                        Self-potential: point-specific (ISelfS= 7).
                        Self-field    : sphere-specific E.n sum rule (ISelfD= 2).
 1st derivatives      : Analytical E(r).r(x)/FMM algorithm (CHGder, D1EAlg=3).
                        Cavity 1st derivative terms included.
 Solvent              : n,n-DiMethylFormamide, Eps=  37.219000 Eps(inf)=   2.046330
 ------------------------------------------------------------------------------
 GePol: Number of generator spheres                  =      22
 GePol: Total number of spheres                      =      22
 GePol: Number of exposed spheres                    =      22 (100.00%)
 GePol: Number of points                             =    1847
 GePol: Average weight of points                     =       0.13
 GePol: Minimum weight of points                     =   0.59D-09
 GePol: Maximum weight of points                     =    0.20577
 GePol: Number of points with low weight             =     119
 GePol: Fraction of low-weight points (<1% of avg)   =       6.44%
 GePol: Cavity surface area                          =    235.616 Ang**2
 GePol: Cavity volume                                =    248.843 Ang**3
 Leave Link  301 at Sun Feb 11 00:19:18 2024, MaxMem=  4026531840 cpu:               0.6 elap:               0.2
 (Enter /sysapps/ubuntu-applications/gaussian/Gaussian/AVX2/g16/l302.exe)
 NPDir=0 NMtPBC=     1 NCelOv=     1 NCel=       1 NClECP=     1 NCelD=      1
         NCelK=      1 NCelE2=     1 NClLst=     1 CellRange=     0.0.
 One-electron integrals computed using PRISM.
 NBasis=   364 RedAO= T EigKep=  1.20D-06  NBF=   364
 NBsUse=   361 1.00D-06 EigRej=  9.23D-07 NBFU=   361
 Precomputing XC quadrature grid using
 IXCGrd= 4 IRadAn=           5 IRanWt=          -1 IRanGd=           0 AccXCQ= 0.00D+00.
 Generated NRdTot=       0 NPtTot=           0 NUsed=           0 NTot=          32
 NSgBfM=   378   378   378   378   378 MxSgAt=    22 MxSgA2=    22.
 Leave Link  302 at Sun Feb 11 00:19:19 2024, MaxMem=  4026531840 cpu:               3.3 elap:               0.5
 (Enter /sysapps/ubuntu-applications/gaussian/Gaussian/AVX2/g16/l303.exe)
 DipDrv:  MaxL=1.
 Leave Link  303 at Sun Feb 11 00:19:19 2024, MaxMem=  4026531840 cpu:               1.4 elap:               0.2
 (Enter /sysapps/ubuntu-applications/gaussian/Gaussian/AVX2/g16/l401.exe)
 ExpMin= 3.60D-02 ExpMax= 8.59D+03 ExpMxC= 1.30D+03 IAcc=3 IRadAn=         5 AccDes= 0.00D+00
 Harris functional with IExCor=  402 and IRadAn=       5 diagonalized for initial guess.
 HarFok:  IExCor=  402 AccDes= 0.00D+00 IRadAn=         5 IDoV= 1 UseB2=F ITyADJ=14
 ICtDFT=  3500011 ScaDFX=  1.000000  1.000000  1.000000  1.000000
 FoFCou: FMM=F IPFlag=           0 FMFlag=      100000 FMFlg1=           0
         NFxFlg=           0 DoJE=T BraDBF=F KetDBF=T FulRan=T
         wScrn=  0.000000 ICntrl=       500 IOpCl=  0 I1Cent=   200000004 NGrid=           0
         NMat0=    1 NMatS0=      1 NMatT0=    0 NMatD0=    1 NMtDS0=    0 NMtDT0=    0
 Symmetry not used in FoFCou.
 Harris En= -649.877939154754    
 JPrj=0 DoOrth=F DoCkMO=F.
 Initial guess <Sx>= 0.0000 <Sy>= 0.0000 <Sz>= 0.0000 <S**2>=-0.0000 S=-0.0000
 Leave Link  401 at Sun Feb 11 00:19:21 2024, MaxMem=  4026531840 cpu:              15.6 elap:               2.0
 (Enter /sysapps/ubuntu-applications/gaussian/Gaussian/AVX2/g16/l502.exe)
 Two-electron integral symmetry not used.
 UHF open shell SCF:
 Using DIIS extrapolation, IDIIS=  1040.
 NGot=  4026531840 LenX=  4026240304 LenY=  4026096979
 Requested convergence on RMS density matrix=1.00D-08 within 128 cycles.
 Requested convergence on MAX density matrix=1.00D-06.
 Requested convergence on             energy=1.00D-06.
 No special actions if energy rises.
 Fock matrices will be formed incrementally for  20 cycles.

 Cycle   1  Pass 1  IDiag  1:
 FoFJK:  IHMeth= 1 ICntrl=       0 DoSepK=F KAlg= 0 I1Cent=           0 FoldK=F
 IRaf= 900000000 NMat=       1 IRICut=       1 DoRegI=T DoRafI=F ISym2E= 0 IDoP0=0 IntGTp=1.
 FoFCou: FMM=F IPFlag=           0 FMFlag=      100000 FMFlg1=           0
         NFxFlg=           0 DoJE=F BraDBF=F KetDBF=F FulRan=T
         wScrn=  0.000000 ICntrl=         0 IOpCl=  1 I1Cent=           0 NGrid=           0
         NMat0=    1 NMatS0=      1 NMatT0=    0 NMatD0=    1 NMtDS0=    0 NMtDT0=    0
 Symmetry not used in FoFCou.
 Inv3:  Mode=1 IEnd=    10234227.
 Iteration    1 A*A^-1 deviation from unit magnitude is 3.00D-15 for    240.
 Iteration    1 A*A^-1 deviation from orthogonality  is 1.65D-15 for   1802    214.
 Iteration    1 A^-1*A deviation from unit magnitude is 3.44D-15 for    760.
 Iteration    1 A^-1*A deviation from orthogonality  is 1.78D-15 for   1640     84.
 E= -649.525336256193    
 DIIS: error= 3.89D-02 at cycle   1 NSaved=   1.
 NSaved= 1 IEnMin= 1 EnMin= -649.525336256193     IErMin= 1 ErrMin= 3.89D-02
 ErrMax= 3.89D-02  0.00D+00 EMaxC= 1.00D-01 BMatC= 1.70D+00 BMatP= 1.70D+00
 IDIUse=3 WtCom= 6.11D-01 WtEn= 3.89D-01
 Coeff-Com:  0.100D+01
 Coeff-En:   0.100D+01
 Coeff:      0.100D+01
 Gap=     0.118 Goal=   None    Shift=    0.000
 Gap=     0.118 Goal=   None    Shift=    0.000
 GapD=    0.118 DampG=1.000 DampE=0.500 DampFc=0.5000 IDamp=-1.
 Damping current iteration by 5.00D-01
 RMSDP=1.85D-02 MaxDP=1.40D+00              OVMax= 2.39D-01

 Cycle   2  Pass 1  IDiag  1:
 RMSU=  8.81D-03    CP:  1.04D+00
 E= -649.619501352126     Delta-E=       -0.094165095934 Rises=F Damp=T
 DIIS: error= 1.39D-02 at cycle   2 NSaved=   2.
 NSaved= 2 IEnMin= 2 EnMin= -649.619501352126     IErMin= 2 ErrMin= 1.39D-02
 ErrMax= 1.39D-02  0.00D+00 EMaxC= 1.00D-01 BMatC= 2.58D-01 BMatP= 1.70D+00
 IDIUse=3 WtCom= 8.61D-01 WtEn= 1.39D-01
 Coeff-Com:  0.199D+00 0.801D+00
 Coeff-En:   0.333D+00 0.667D+00
 Coeff:      0.217D+00 0.783D+00
 Gap=     0.174 Goal=   None    Shift=    0.000
 Gap=     0.174 Goal=   None    Shift=    0.000
 RMSDP=9.42D-03 MaxDP=7.59D-01 DE=-9.42D-02 OVMax= 2.53D-01

 Cycle   3  Pass 1  IDiag  1:
 RMSU=  7.68D-03    CP:  1.00D+00  4.72D-01
 E= -649.810019151801     Delta-E=       -0.190517799675 Rises=F Damp=F
 DIIS: error= 1.60D-02 at cycle   3 NSaved=   3.
 NSaved= 3 IEnMin= 3 EnMin= -649.810019151801     IErMin= 2 ErrMin= 1.39D-02
 ErrMax= 1.60D-02  0.00D+00 EMaxC= 1.00D-01 BMatC= 2.22D-01 BMatP= 2.58D-01
 IDIUse=3 WtCom= 8.40D-01 WtEn= 1.60D-01
 Coeff-Com:  0.280D-01 0.478D+00 0.494D+00
 Coeff-En:   0.000D+00 0.000D+00 0.100D+01
 Coeff:      0.236D-01 0.402D+00 0.575D+00
 Gap=     0.139 Goal=   None    Shift=    0.000
 Gap=     0.139 Goal=   None    Shift=    0.000
 RMSDP=5.03D-03 MaxDP=3.27D-01 DE=-1.91D-01 OVMax= 7.12D-02

 Cycle   4  Pass 1  IDiag  1:
 RMSU=  3.72D-03    CP:  1.02D+00  6.51D-01  6.37D-01
 E= -649.844416566517     Delta-E=       -0.034397414716 Rises=F Damp=F
 DIIS: error= 9.14D-03 at cycle   4 NSaved=   4.
 NSaved= 4 IEnMin= 4 EnMin= -649.844416566517     IErMin= 4 ErrMin= 9.14D-03
 ErrMax= 9.14D-03  0.00D+00 EMaxC= 1.00D-01 BMatC= 6.71D-02 BMatP= 2.22D-01
 IDIUse=3 WtCom= 9.09D-01 WtEn= 9.14D-02
 Coeff-Com:  0.555D-02 0.116D+00 0.369D+00 0.510D+00
 Coeff-En:   0.000D+00 0.000D+00 0.264D+00 0.736D+00
 Coeff:      0.504D-02 0.105D+00 0.359D+00 0.530D+00
 Gap=     0.130 Goal=   None    Shift=    0.000
 Gap=     0.130 Goal=   None    Shift=    0.000
 RMSDP=2.71D-03 MaxDP=2.31D-01 DE=-3.44D-02 OVMax= 2.85D-02

 Cycle   5  Pass 1  IDiag  1:
 RMSU=  1.07D-03    CP:  9.96D-01  6.10D-01  7.30D-01  4.84D-01
 E= -649.857550086793     Delta-E=       -0.013133520276 Rises=F Damp=F
 DIIS: error= 1.31D-03 at cycle   5 NSaved=   5.
 NSaved= 5 IEnMin= 5 EnMin= -649.857550086793     IErMin= 5 ErrMin= 1.31D-03
 ErrMax= 1.31D-03  0.00D+00 EMaxC= 1.00D-01 BMatC= 2.77D-03 BMatP= 6.71D-02
 IDIUse=3 WtCom= 9.87D-01 WtEn= 1.31D-02
 Coeff-Com: -0.136D-03 0.138D-01 0.154D+00 0.303D+00 0.530D+00
 Coeff-En:   0.000D+00 0.000D+00 0.000D+00 0.000D+00 0.100D+01
 Coeff:     -0.134D-03 0.136D-01 0.152D+00 0.299D+00 0.536D+00
 Gap=     0.133 Goal=   None    Shift=    0.000
 Gap=     0.133 Goal=   None    Shift=    0.000
 RMSDP=7.94D-04 MaxDP=7.00D-02 DE=-1.31D-02 OVMax= 6.07D-03

 Cycle   6  Pass 1  IDiag  1:
 RMSU=  4.36D-04    CP:  9.87D-01  5.94D-01  7.31D-01  4.72D-01  7.67D-01
 E= -649.858080354271     Delta-E=       -0.000530267478 Rises=F Damp=F
 DIIS: error= 3.40D-04 at cycle   6 NSaved=   6.
 NSaved= 6 IEnMin= 6 EnMin= -649.858080354271     IErMin= 6 ErrMin= 3.40D-04
 ErrMax= 3.40D-04  0.00D+00 EMaxC= 1.00D-01 BMatC= 1.65D-04 BMatP= 2.77D-03
 IDIUse=3 WtCom= 9.97D-01 WtEn= 3.40D-03
 Coeff-Com: -0.420D-03-0.105D-02 0.471D-01 0.107D+00 0.275D+00 0.572D+00
 Coeff-En:   0.000D+00 0.000D+00 0.000D+00 0.000D+00 0.000D+00 0.100D+01
 Coeff:     -0.418D-03-0.105D-02 0.469D-01 0.107D+00 0.274D+00 0.574D+00
 Gap=     0.133 Goal=   None    Shift=    0.000
 Gap=     0.133 Goal=   None    Shift=    0.000
 RMSDP=1.84D-04 MaxDP=1.43D-02 DE=-5.30D-04 OVMax= 1.75D-03

 Cycle   7  Pass 1  IDiag  1:
 RMSU=  7.83D-05    CP:  9.89D-01  5.91D-01  7.37D-01  4.96D-01  7.75D-01
                    CP:  7.79D-01
 E= -649.858111737929     Delta-E=       -0.000031383658 Rises=F Damp=F
 DIIS: error= 1.10D-04 at cycle   7 NSaved=   7.
 NSaved= 7 IEnMin= 7 EnMin= -649.858111737929     IErMin= 7 ErrMin= 1.10D-04
 ErrMax= 1.10D-04  0.00D+00 EMaxC= 1.00D-01 BMatC= 1.68D-05 BMatP= 1.65D-04
 IDIUse=3 WtCom= 9.99D-01 WtEn= 1.10D-03
 EnCoef did     1 forward-backward iterations
 Coeff-Com: -0.890D-04-0.177D-02 0.123D-01 0.320D-01 0.106D+00 0.313D+00
 Coeff-Com:  0.539D+00
 Coeff-En:   0.000D+00 0.000D+00 0.000D+00 0.000D+00 0.000D+00 0.475D-02
 Coeff-En:   0.995D+00
 Coeff:     -0.889D-04-0.177D-02 0.123D-01 0.319D-01 0.106D+00 0.312D+00
 Coeff:      0.539D+00
 Gap=     0.133 Goal=   None    Shift=    0.000
 Gap=     0.133 Goal=   None    Shift=    0.000
 RMSDP=3.97D-05 MaxDP=3.52D-03 DE=-3.14D-05 OVMax= 5.24D-04

 Cycle   8  Pass 1  IDiag  1:
 RMSU=  2.19D-05    CP:  9.89D-01  5.91D-01  7.36D-01  4.96D-01  7.69D-01
                    CP:  7.49D-01  9.19D-01
 E= -649.858115184725     Delta-E=       -0.000003446796 Rises=F Damp=F
 DIIS: error= 4.28D-05 at cycle   8 NSaved=   8.
 NSaved= 8 IEnMin= 8 EnMin= -649.858115184725     IErMin= 8 ErrMin= 4.28D-05
 ErrMax= 4.28D-05  0.00D+00 EMaxC= 1.00D-01 BMatC= 1.51D-06 BMatP= 1.68D-05
 IDIUse=1 WtCom= 1.00D+00 WtEn= 0.00D+00
 Coeff-Com:  0.411D-04-0.817D-03 0.256D-02 0.749D-02 0.331D-01 0.117D+00
 Coeff-Com:  0.284D+00 0.556D+00
 Coeff:      0.411D-04-0.817D-03 0.256D-02 0.749D-02 0.331D-01 0.117D+00
 Coeff:      0.284D+00 0.556D+00
 Gap=     0.133 Goal=   None    Shift=    0.000
 Gap=     0.133 Goal=   None    Shift=    0.000
 RMSDP=1.71D-05 MaxDP=1.20D-03 DE=-3.45D-06 OVMax= 2.03D-04

 Cycle   9  Pass 1  IDiag  1:
 RMSU=  9.70D-06    CP:  9.89D-01  5.91D-01  7.37D-01  4.98D-01  7.74D-01
                    CP:  7.53D-01  8.46D-01  6.17D-01
 E= -649.858115407611     Delta-E=       -0.000000222886 Rises=F Damp=F
 DIIS: error= 2.10D-05 at cycle   9 NSaved=   9.
 NSaved= 9 IEnMin= 9 EnMin= -649.858115407611     IErMin= 9 ErrMin= 2.10D-05
 ErrMax= 2.10D-05  0.00D+00 EMaxC= 1.00D-01 BMatC= 4.31D-07 BMatP= 1.51D-06
 IDIUse=1 WtCom= 1.00D+00 WtEn= 0.00D+00
 Coeff-Com:  0.568D-04-0.296D-03-0.355D-03-0.475D-03 0.391D-02 0.236D-01
 Coeff-Com:  0.878D-01 0.369D+00 0.517D+00
 Coeff:      0.568D-04-0.296D-03-0.355D-03-0.475D-03 0.391D-02 0.236D-01
 Coeff:      0.878D-01 0.369D+00 0.517D+00
 Gap=     0.133 Goal=   None    Shift=    0.000
 Gap=     0.133 Goal=   None    Shift=    0.000
 RMSDP=5.69D-06 MaxDP=3.94D-04 DE=-2.23D-07 OVMax= 1.06D-04

 Cycle  10  Pass 1  IDiag  1:
 RMSU=  3.91D-06    CP:  9.89D-01  5.91D-01  7.37D-01  4.97D-01  7.74D-01
                    CP:  7.52D-01  8.24D-01  6.55D-01  9.63D-01
 E= -649.858115486828     Delta-E=       -0.000000079217 Rises=F Damp=F
 DIIS: error= 7.68D-06 at cycle  10 NSaved=  10.
 NSaved=10 IEnMin=10 EnMin= -649.858115486828     IErMin=10 ErrMin= 7.68D-06
 ErrMax= 7.68D-06  0.00D+00 EMaxC= 1.00D-01 BMatC= 2.36D-08 BMatP= 4.31D-07
 IDIUse=1 WtCom= 1.00D+00 WtEn= 0.00D+00
 Coeff-Com:  0.274D-04-0.107D-03-0.326D-03-0.751D-03-0.173D-03 0.472D-02
 Coeff-Com:  0.259D-01 0.155D+00 0.278D+00 0.538D+00
 Coeff:      0.274D-04-0.107D-03-0.326D-03-0.751D-03-0.173D-03 0.472D-02
 Coeff:      0.259D-01 0.155D+00 0.278D+00 0.538D+00
 Gap=     0.133 Goal=   None    Shift=    0.000
 Gap=     0.133 Goal=   None    Shift=    0.000
 RMSDP=2.06D-06 MaxDP=2.01D-04 DE=-7.92D-08 OVMax= 4.21D-05

 Cycle  11  Pass 1  IDiag  1:
 RMSU=  1.04D-06    CP:  9.89D-01  5.91D-01  7.37D-01  4.97D-01  7.74D-01
                    CP:  7.54D-01  8.31D-01  6.65D-01  1.02D+00  8.55D-01
 E= -649.858115491746     Delta-E=       -0.000000004918 Rises=F Damp=F
 DIIS: error= 2.13D-06 at cycle  11 NSaved=  11.
 NSaved=11 IEnMin=11 EnMin= -649.858115491746     IErMin=11 ErrMin= 2.13D-06
 ErrMax= 2.13D-06  0.00D+00 EMaxC= 1.00D-01 BMatC= 3.87D-09 BMatP= 2.36D-08
 IDIUse=1 WtCom= 1.00D+00 WtEn= 0.00D+00
 Coeff-Com:  0.554D-05-0.237D-05-0.113D-03-0.351D-03-0.897D-03-0.169D-02
 Coeff-Com: -0.279D-02 0.139D-01 0.595D-01 0.316D+00 0.617D+00
 Coeff:      0.554D-05-0.237D-05-0.113D-03-0.351D-03-0.897D-03-0.169D-02
 Coeff:     -0.279D-02 0.139D-01 0.595D-01 0.316D+00 0.617D+00
 Gap=     0.133 Goal=   None    Shift=    0.000
 Gap=     0.133 Goal=   None    Shift=    0.000
 RMSDP=5.73D-07 MaxDP=5.44D-05 DE=-4.92D-09 OVMax= 2.10D-05

 Cycle  12  Pass 1  IDiag  1:
 RMSU=  3.05D-07    CP:  9.89D-01  5.91D-01  7.37D-01  4.97D-01  7.74D-01
                    CP:  7.53D-01  8.32D-01  6.68D-01  1.04D+00  8.53D-01
                    CP:  9.14D-01
 E= -649.858115492743     Delta-E=       -0.000000000997 Rises=F Damp=F
 DIIS: error= 4.28D-07 at cycle  12 NSaved=  12.
 NSaved=12 IEnMin=12 EnMin= -649.858115492743     IErMin=12 ErrMin= 4.28D-07
 ErrMax= 4.28D-07  0.00D+00 EMaxC= 1.00D-01 BMatC= 2.43D-10 BMatP= 3.87D-09
 IDIUse=1 WtCom= 1.00D+00 WtEn= 0.00D+00
 Coeff-Com: -0.457D-06 0.940D-05-0.328D-04-0.121D-03-0.490D-03-0.133D-02
 Coeff-Com: -0.381D-02-0.814D-02 0.250D-02 0.903D-01 0.278D+00 0.643D+00
 Coeff:     -0.457D-06 0.940D-05-0.328D-04-0.121D-03-0.490D-03-0.133D-02
 Coeff:     -0.381D-02-0.814D-02 0.250D-02 0.903D-01 0.278D+00 0.643D+00
 Gap=     0.133 Goal=   None    Shift=    0.000
 Gap=     0.133 Goal=   None    Shift=    0.000
 RMSDP=2.29D-07 MaxDP=1.52D-05 DE=-9.97D-10 OVMax= 3.84D-06

 Cycle  13  Pass 1  IDiag  1:
 RMSU=  7.66D-08    CP:  9.89D-01  5.91D-01  7.37D-01  4.97D-01  7.74D-01
                    CP:  7.53D-01  8.31D-01  6.67D-01  1.05D+00  8.75D-01
                    CP:  9.46D-01  8.90D-01
 E= -649.858115492799     Delta-E=       -0.000000000057 Rises=F Damp=F
 DIIS: error= 2.85D-07 at cycle  13 NSaved=  13.
 NSaved=13 IEnMin=13 EnMin= -649.858115492799     IErMin=13 ErrMin= 2.85D-07
 ErrMax= 2.85D-07  0.00D+00 EMaxC= 1.00D-01 BMatC= 4.42D-11 BMatP= 2.43D-10
 IDIUse=1 WtCom= 1.00D+00 WtEn= 0.00D+00
 Coeff-Com: -0.916D-06 0.356D-05 0.504D-05 0.381D-05-0.724D-04-0.241D-03
 Coeff-Com: -0.114D-02-0.552D-02-0.642D-02-0.245D-02 0.504D-01 0.336D+00
 Coeff-Com:  0.629D+00
 Coeff:     -0.916D-06 0.356D-05 0.504D-05 0.381D-05-0.724D-04-0.241D-03
 Coeff:     -0.114D-02-0.552D-02-0.642D-02-0.245D-02 0.504D-01 0.336D+00
 Coeff:      0.629D+00
 Gap=     0.133 Goal=   None    Shift=    0.000
 Gap=     0.133 Goal=   None    Shift=    0.000
 RMSDP=6.66D-08 MaxDP=4.63D-06 DE=-5.66D-11 OVMax= 3.61D-06

 Cycle  14  Pass 1  IDiag  1:
 RMSU=  4.03D-08    CP:  9.89D-01  5.91D-01  7.37D-01  4.97D-01  7.74D-01
                    CP:  7.53D-01  8.31D-01  6.67D-01  1.05D+00  8.79D-01
                    CP:  9.49D-01  9.06D-01  9.02D-01
 E= -649.858115492800     Delta-E=       -0.000000000001 Rises=F Damp=F
 DIIS: error= 1.20D-07 at cycle  14 NSaved=  14.
 NSaved=14 IEnMin=14 EnMin= -649.858115492800     IErMin=14 ErrMin= 1.20D-07
 ErrMax= 1.20D-07  0.00D+00 EMaxC= 1.00D-01 BMatC= 8.60D-12 BMatP= 4.42D-11
 IDIUse=1 WtCom= 1.00D+00 WtEn= 0.00D+00
 Coeff-Com: -0.568D-06 0.182D-05 0.523D-05 0.107D-04-0.162D-04-0.916D-04
 Coeff-Com: -0.517D-03-0.338D-02-0.516D-02-0.112D-01 0.523D-02 0.139D+00
 Coeff-Com:  0.388D+00 0.488D+00
 Coeff:     -0.568D-06 0.182D-05 0.523D-05 0.107D-04-0.162D-04-0.916D-04
 Coeff:     -0.517D-03-0.338D-02-0.516D-02-0.112D-01 0.523D-02 0.139D+00
 Coeff:      0.388D+00 0.488D+00
 Gap=     0.133 Goal=   None    Shift=    0.000
 Gap=     0.133 Goal=   None    Shift=    0.000
 RMSDP=3.29D-08 MaxDP=2.89D-06 DE=-1.14D-12 OVMax= 5.66D-07

 Cycle  15  Pass 1  IDiag  1:
 RMSU=  1.37D-08    CP:  9.89D-01  5.91D-01  7.37D-01  4.97D-01  7.74D-01
                    CP:  7.53D-01  8.31D-01  6.66D-01  1.05D+00  8.80D-01
                    CP:  9.63D-01  9.32D-01  9.38D-01  8.24D-01
 E= -649.858115492818     Delta-E=       -0.000000000017 Rises=F Damp=F
 DIIS: error= 2.06D-08 at cycle  15 NSaved=  15.
 NSaved=15 IEnMin=15 EnMin= -649.858115492818     IErMin=15 ErrMin= 2.06D-08
 ErrMax= 2.06D-08  0.00D+00 EMaxC= 1.00D-01 BMatC= 5.56D-13 BMatP= 8.60D-12
 IDIUse=1 WtCom= 1.00D+00 WtEn= 0.00D+00
 Coeff-Com: -0.663D-08 0.211D-07 0.179D-05 0.454D-05 0.670D-05 0.643D-05
 Coeff-Com: -0.109D-04-0.509D-03-0.945D-03-0.389D-02-0.516D-02 0.244D-02
 Coeff-Com:  0.895D-01 0.238D+00 0.681D+00
 Coeff:     -0.663D-08 0.211D-07 0.179D-05 0.454D-05 0.670D-05 0.643D-05
 Coeff:     -0.109D-04-0.509D-03-0.945D-03-0.389D-02-0.516D-02 0.244D-02
 Coeff:      0.895D-01 0.238D+00 0.681D+00
 Gap=     0.133 Goal=   None    Shift=    0.000
 Gap=     0.133 Goal=   None    Shift=    0.000
 RMSDP=7.98D-09 MaxDP=4.24D-07 DE=-1.72D-11 OVMax= 2.70D-07

 Error on total polarization charges =  0.01431
 SCF Done:  E(UB3LYP) =  -649.858115493     A.U. after   15 cycles
            NFock= 15  Conv=0.80D-08     -V/T= 2.0040
 <Sx>= 0.0000 <Sy>= 0.0000 <Sz>= 0.0000 <S**2>=-0.0000 S=-0.0000
 <L.S>=  0.00000000000    
 KE= 6.472839001949D+02 PE=-3.190653426186D+03 EE= 1.056591892752D+03
 Annihilation of the first spin contaminant:
 S**2 before annihilation    -0.0000,   after     0.0000
 Leave Link  502 at Sun Feb 11 00:21:47 2024, MaxMem=  4026531840 cpu:            1151.6 elap:             145.8
 (Enter /sysapps/ubuntu-applications/gaussian/Gaussian/AVX2/g16/l601.exe)
 Copying SCF densities to generalized density rwf, IOpCl= 1 IROHF=0.

 **********************************************************************

            Population analysis using the SCF density.

 **********************************************************************

 Alpha  occ. eigenvalues --  -19.18059 -19.15190 -19.13127 -10.29587 -10.28235
 Alpha  occ. eigenvalues --  -10.26975 -10.21319 -10.21185 -10.20867 -10.20381
 Alpha  occ. eigenvalues --  -10.20207 -10.20034 -10.19999 -10.17570  -1.11114
 Alpha  occ. eigenvalues --   -1.06966  -1.06494  -0.89518  -0.84375  -0.78934
 Alpha  occ. eigenvalues --   -0.78246  -0.72802  -0.68724  -0.65717  -0.62732
 Alpha  occ. eigenvalues --   -0.60741  -0.57683  -0.54536  -0.52137  -0.49865
 Alpha  occ. eigenvalues --   -0.48018  -0.47656  -0.46959  -0.45563  -0.45169
 Alpha  occ. eigenvalues --   -0.43507  -0.42674  -0.41950  -0.40642  -0.39880
 Alpha  occ. eigenvalues --   -0.39656  -0.37940  -0.37873  -0.37280  -0.30614
 Alpha  occ. eigenvalues --   -0.29255  -0.28263  -0.28197  -0.26036
 Alpha virt. eigenvalues --   -0.12761  -0.05848  -0.02724  -0.01076   0.00173
 Alpha virt. eigenvalues --    0.00925   0.02132   0.02162   0.02544   0.03522
 Alpha virt. eigenvalues --    0.04116   0.04886   0.05108   0.05343   0.06511
 Alpha virt. eigenvalues --    0.06747   0.07313   0.08440   0.08777   0.08948
 Alpha virt. eigenvalues --    0.09366   0.09784   0.10362   0.10816   0.11331
 Alpha virt. eigenvalues --    0.12107   0.12704   0.12870   0.13104   0.13648
 Alpha virt. eigenvalues --    0.13887   0.14271   0.14401   0.14871   0.15245
 Alpha virt. eigenvalues --    0.15843   0.15997   0.16405   0.17011   0.17428
 Alpha virt. eigenvalues --    0.18442   0.18654   0.18992   0.19286   0.19500
 Alpha virt. eigenvalues --    0.20166   0.20967   0.21187   0.21612   0.22095
 Alpha virt. eigenvalues --    0.22433   0.22862   0.23758   0.24353   0.24751
 Alpha virt. eigenvalues --    0.25541   0.26181   0.26262   0.27045   0.27235
 Alpha virt. eigenvalues --    0.28122   0.28390   0.29356   0.29436   0.29835
 Alpha virt. eigenvalues --    0.30585   0.30979   0.31708   0.31929   0.32524
 Alpha virt. eigenvalues --    0.33071   0.33466   0.34077   0.34639   0.34907
 Alpha virt. eigenvalues --    0.35318   0.36651   0.37776   0.38667   0.39647
 Alpha virt. eigenvalues --    0.40751   0.41419   0.42636   0.43007   0.45158
 Alpha virt. eigenvalues --    0.46552   0.47909   0.50032   0.51158   0.51422
 Alpha virt. eigenvalues --    0.51749   0.53243   0.54255   0.55172   0.56955
 Alpha virt. eigenvalues --    0.57794   0.57877   0.58555   0.59966   0.60505
 Alpha virt. eigenvalues --    0.60849   0.61470   0.62470   0.63162   0.64229
 Alpha virt. eigenvalues --    0.64653   0.64809   0.65226   0.66351   0.67758
 Alpha virt. eigenvalues --    0.68718   0.70482   0.71629   0.72267   0.72663
 Alpha virt. eigenvalues --    0.74799   0.75260   0.75557   0.79123   0.79851
 Alpha virt. eigenvalues --    0.81912   0.83476   0.85032   0.85608   0.86958
 Alpha virt. eigenvalues --    0.87424   0.87978   0.91778   0.91831   0.91995
 Alpha virt. eigenvalues --    0.92372   0.94459   0.94929   0.97170   0.97876
 Alpha virt. eigenvalues --    0.99406   0.99410   1.01512   1.02994   1.05422
 Alpha virt. eigenvalues --    1.05802   1.06271   1.06658   1.07745   1.08689
 Alpha virt. eigenvalues --    1.11104   1.12336   1.13733   1.16051   1.17502
 Alpha virt. eigenvalues --    1.19534   1.20331   1.20770   1.23799   1.24534
 Alpha virt. eigenvalues --    1.25042   1.25998   1.29375   1.30601   1.35468
 Alpha virt. eigenvalues --    1.36262   1.37523   1.39538   1.44315   1.45665
 Alpha virt. eigenvalues --    1.47560   1.47601   1.49462   1.50185   1.51520
 Alpha virt. eigenvalues --    1.51547   1.55278   1.55397   1.56813   1.58450
 Alpha virt. eigenvalues --    1.60122   1.63747   1.64023   1.65132   1.67268
 Alpha virt. eigenvalues --    1.67278   1.68429   1.71624   1.72139   1.72457
 Alpha virt. eigenvalues --    1.73640   1.75319   1.76841   1.79156   1.80380
 Alpha virt. eigenvalues --    1.81908   1.82410   1.87273   1.88922   1.89357
 Alpha virt. eigenvalues --    1.89770   1.91350   1.92049   1.92887   1.95211
 Alpha virt. eigenvalues --    1.96475   1.96781   1.98197   2.00308   2.05266
 Alpha virt. eigenvalues --    2.07030   2.09019   2.10392   2.10942   2.13357
 Alpha virt. eigenvalues --    2.19338   2.20827   2.22671   2.27018   2.27866
 Alpha virt. eigenvalues --    2.31357   2.34017   2.35089   2.37961   2.44014
 Alpha virt. eigenvalues --    2.46664   2.47799   2.51747   2.53427   2.54570
 Alpha virt. eigenvalues --    2.55333   2.58241   2.61240   2.62684   2.64242
 Alpha virt. eigenvalues --    2.65588   2.67812   2.70538   2.72060   2.72926
 Alpha virt. eigenvalues --    2.74301   2.74806   2.75185   2.76907   2.78427
 Alpha virt. eigenvalues --    2.79732   2.81678   2.81995   2.82896   2.85751
 Alpha virt. eigenvalues --    2.87431   2.89378   2.90780   2.92491   2.94368
 Alpha virt. eigenvalues --    3.01534   3.01746   3.01913   3.06893   3.07438
 Alpha virt. eigenvalues --    3.08682   3.15410   3.15926   3.16500   3.21015
 Alpha virt. eigenvalues --    3.22493   3.25420   3.31738   3.33397   3.34338
 Alpha virt. eigenvalues --    3.39243   3.41255   3.43801   3.50922   3.51326
 Alpha virt. eigenvalues --    3.53445   3.57104   3.57624   3.65734   3.76729
 Alpha virt. eigenvalues --    3.78414   3.79188   3.83993   3.84740   3.92913
 Alpha virt. eigenvalues --    4.02432   4.05304   4.14369   4.18270   4.22679
 Alpha virt. eigenvalues --    4.27453   4.37548   4.73800   4.83090   4.96565
 Alpha virt. eigenvalues --    5.04211   5.06321   5.22995   5.25392   5.46380
 Alpha virt. eigenvalues --    5.66681   5.76992   5.79168  23.54373  23.68613
 Alpha virt. eigenvalues --   23.84896  23.90574  23.93306  23.94177  23.97193
 Alpha virt. eigenvalues --   24.04597  24.07574  24.13686  24.16535  49.90965
 Alpha virt. eigenvalues --   50.01470  50.05793
  Beta  occ. eigenvalues --  -19.18059 -19.15190 -19.13127 -10.29587 -10.28235
  Beta  occ. eigenvalues --  -10.26975 -10.21319 -10.21185 -10.20867 -10.20381
  Beta  occ. eigenvalues --  -10.20207 -10.20034 -10.19999 -10.17570  -1.11114
  Beta  occ. eigenvalues --   -1.06966  -1.06494  -0.89518  -0.84375  -0.78934
  Beta  occ. eigenvalues --   -0.78246  -0.72802  -0.68724  -0.65717  -0.62732
  Beta  occ. eigenvalues --   -0.60741  -0.57683  -0.54536  -0.52137  -0.49865
  Beta  occ. eigenvalues --   -0.48018  -0.47656  -0.46959  -0.45563  -0.45169
  Beta  occ. eigenvalues --   -0.43507  -0.42674  -0.41950  -0.40642  -0.39880
  Beta  occ. eigenvalues --   -0.39656  -0.37940  -0.37873  -0.37280  -0.30614
  Beta  occ. eigenvalues --   -0.29255  -0.28263  -0.28197  -0.26036
  Beta virt. eigenvalues --   -0.12761  -0.05848  -0.02724  -0.01076   0.00173
  Beta virt. eigenvalues --    0.00925   0.02132   0.02162   0.02544   0.03522
  Beta virt. eigenvalues --    0.04116   0.04886   0.05108   0.05343   0.06511
  Beta virt. eigenvalues --    0.06747   0.07313   0.08440   0.08777   0.08948
  Beta virt. eigenvalues --    0.09366   0.09784   0.10362   0.10816   0.11331
  Beta virt. eigenvalues --    0.12107   0.12704   0.12870   0.13104   0.13648
  Beta virt. eigenvalues --    0.13887   0.14271   0.14401   0.14871   0.15245
  Beta virt. eigenvalues --    0.15843   0.15997   0.16405   0.17011   0.17428
  Beta virt. eigenvalues --    0.18442   0.18654   0.18992   0.19286   0.19500
  Beta virt. eigenvalues --    0.20166   0.20967   0.21187   0.21612   0.22095
  Beta virt. eigenvalues --    0.22433   0.22862   0.23758   0.24353   0.24751
  Beta virt. eigenvalues --    0.25541   0.26181   0.26262   0.27045   0.27235
  Beta virt. eigenvalues --    0.28122   0.28390   0.29356   0.29436   0.29835
  Beta virt. eigenvalues --    0.30585   0.30979   0.31708   0.31929   0.32524
  Beta virt. eigenvalues --    0.33071   0.33466   0.34077   0.34639   0.34907
  Beta virt. eigenvalues --    0.35318   0.36651   0.37776   0.38667   0.39647
  Beta virt. eigenvalues --    0.40751   0.41419   0.42636   0.43007   0.45158
  Beta virt. eigenvalues --    0.46552   0.47909   0.50032   0.51158   0.51422
  Beta virt. eigenvalues --    0.51749   0.53243   0.54255   0.55172   0.56955
  Beta virt. eigenvalues --    0.57794   0.57877   0.58555   0.59966   0.60505
  Beta virt. eigenvalues --    0.60849   0.61470   0.62470   0.63162   0.64229
  Beta virt. eigenvalues --    0.64653   0.64809   0.65226   0.66351   0.67758
  Beta virt. eigenvalues --    0.68718   0.70482   0.71629   0.72267   0.72663
  Beta virt. eigenvalues --    0.74799   0.75260   0.75557   0.79123   0.79851
  Beta virt. eigenvalues --    0.81912   0.83476   0.85032   0.85608   0.86958
  Beta virt. eigenvalues --    0.87424   0.87978   0.91778   0.91831   0.91995
  Beta virt. eigenvalues --    0.92372   0.94459   0.94929   0.97170   0.97876
  Beta virt. eigenvalues --    0.99406   0.99410   1.01512   1.02994   1.05422
  Beta virt. eigenvalues --    1.05802   1.06271   1.06658   1.07745   1.08689
  Beta virt. eigenvalues --    1.11104   1.12336   1.13733   1.16051   1.17502
  Beta virt. eigenvalues --    1.19534   1.20331   1.20770   1.23799   1.24534
  Beta virt. eigenvalues --    1.25042   1.25998   1.29375   1.30601   1.35468
  Beta virt. eigenvalues --    1.36262   1.37523   1.39538   1.44315   1.45665
  Beta virt. eigenvalues --    1.47560   1.47601   1.49462   1.50185   1.51520
  Beta virt. eigenvalues --    1.51547   1.55278   1.55397   1.56813   1.58450
  Beta virt. eigenvalues --    1.60122   1.63747   1.64023   1.65132   1.67268
  Beta virt. eigenvalues --    1.67278   1.68429   1.71624   1.72139   1.72457
  Beta virt. eigenvalues --    1.73640   1.75319   1.76841   1.79156   1.80380
  Beta virt. eigenvalues --    1.81908   1.82410   1.87273   1.88922   1.89357
  Beta virt. eigenvalues --    1.89770   1.91350   1.92049   1.92887   1.95211
  Beta virt. eigenvalues --    1.96475   1.96781   1.98197   2.00308   2.05266
  Beta virt. eigenvalues --    2.07030   2.09019   2.10392   2.10942   2.13357
  Beta virt. eigenvalues --    2.19338   2.20827   2.22671   2.27018   2.27866
  Beta virt. eigenvalues --    2.31357   2.34017   2.35089   2.37961   2.44014
  Beta virt. eigenvalues --    2.46664   2.47799   2.51747   2.53427   2.54570
  Beta virt. eigenvalues --    2.55333   2.58241   2.61240   2.62684   2.64242
  Beta virt. eigenvalues --    2.65588   2.67812   2.70538   2.72060   2.72926
  Beta virt. eigenvalues --    2.74301   2.74806   2.75185   2.76907   2.78427
  Beta virt. eigenvalues --    2.79732   2.81678   2.81995   2.82896   2.85751
  Beta virt. eigenvalues --    2.87431   2.89378   2.90780   2.92491   2.94368
  Beta virt. eigenvalues --    3.01534   3.01746   3.01913   3.06893   3.07438
  Beta virt. eigenvalues --    3.08682   3.15410   3.15926   3.16500   3.21015
  Beta virt. eigenvalues --    3.22493   3.25420   3.31738   3.33397   3.34338
  Beta virt. eigenvalues --    3.39243   3.41255   3.43801   3.50922   3.51326
  Beta virt. eigenvalues --    3.53445   3.57104   3.57624   3.65734   3.76729
  Beta virt. eigenvalues --    3.78414   3.79188   3.83993   3.84740   3.92913
  Beta virt. eigenvalues --    4.02432   4.05304   4.14369   4.18270   4.22679
  Beta virt. eigenvalues --    4.27453   4.37548   4.73800   4.83090   4.96565
  Beta virt. eigenvalues --    5.04211   5.06321   5.22995   5.25392   5.46380
  Beta virt. eigenvalues --    5.66681   5.76992   5.79168  23.54373  23.68613
  Beta virt. eigenvalues --   23.84896  23.90574  23.93306  23.94177  23.97193
  Beta virt. eigenvalues --   24.04597  24.07574  24.13686  24.16535  49.90965
  Beta virt. eigenvalues --   50.01470  50.05793
          Condensed to atoms (all electrons):
               1          2          3          4          5          6
     1  C    7.167090   0.039747  -0.936396   0.044177  -0.348613  -0.066779
     2  C    0.039747  21.068561  -2.015435  -0.286987   0.293777   0.346964
     3  C   -0.936396  -2.015435  12.633556   0.791045  -1.331477  -0.530849
     4  O    0.044177  -0.286987   0.791045   8.202968  -0.183397   0.162774
     5  C   -0.348613   0.293777  -1.331477  -0.183397  16.763220  -2.336197
     6  C   -0.066779   0.346964  -0.530849   0.162774  -2.336197  10.085263
     7  C    0.024071  -0.337602   0.005807   0.040634  -0.453182   0.039379
     8  C    0.005573  -0.051155   0.085838   0.005021   0.787221  -0.935961
     9  C   -0.198300  -1.359790   0.097183  -0.022426  -3.773644   2.832471
    10  C    0.006563  -2.310516  -3.432926  -0.180392   1.175363  -3.122829
    11  C   -0.354763  -7.398534   3.862361  -0.035200  -2.288028   0.176551
    12  O    0.008289  -0.294997  -0.084744   0.000289  -0.219152  -0.030715
    13  C   -0.243561  -2.541767  -2.563024  -0.246201  -2.474778  -1.084857
    14  O   -0.004281  -0.624814   0.040705  -0.000455  -0.084281  -0.003328
    15  H    0.427299   0.105401   0.005684   0.003214   0.057953   0.009082
    16  H    0.331990  -0.022504   0.021088  -0.004093  -0.032766  -0.002195
    17  H    0.331435  -0.022000   0.021034  -0.004062  -0.032776  -0.002154
    18  H   -0.010904  -0.016111  -0.032176  -0.000499   0.004207   0.398063
    19  H    0.001098   0.012677   0.018770   0.001043   0.036106  -0.072709
    20  H   -0.000347  -0.001041  -0.024322   0.000075  -0.010557  -0.018562
    21  H   -0.001904   0.007022   0.006686  -0.000153   0.024906   0.035880
    22  H    0.002583   0.089901   0.005704  -0.000512   0.001132  -0.006741
               7          8          9         10         11         12
     1  C    0.024071   0.005573  -0.198300   0.006563  -0.354763   0.008289
     2  C   -0.337602  -0.051155  -1.359790  -2.310516  -7.398534  -0.294997
     3  C    0.005807   0.085838   0.097183  -3.432926   3.862361  -0.084744
     4  O    0.040634   0.005021  -0.022426  -0.180392  -0.035200   0.000289
     5  C   -0.453182   0.787221  -3.773644   1.175363  -2.288028  -0.219152
     6  C    0.039379  -0.935961   2.832471  -3.122829   0.176551  -0.030715
     7  C    7.028568   0.093077  -0.724180  -0.184959   0.748754  -0.015340
     8  C    0.093077   6.975921  -0.144270   0.136071  -0.686475   0.041686
     9  C   -0.724180  -0.144270  11.521614  -2.890459   0.626245   0.133499
    10  C   -0.184959   0.136071  -2.890459  21.274753  -7.234186   0.379779
    11  C    0.748754  -0.686475   0.626245  -7.234186  23.700516   0.423758
    12  O   -0.015340   0.041686   0.133499   0.379779   0.423758   8.232533
    13  C   -0.103400  -0.226271  -0.516286   1.477176  -4.425538  -0.288225
    14  O   -0.001263   0.008065   0.033399  -0.016809   0.199507  -0.018829
    15  H    0.000430  -0.001677  -0.011507  -0.025746  -0.130524  -0.002267
    16  H    0.000197   0.000729   0.000993  -0.003757   0.045343   0.000372
    17  H    0.000193   0.000720   0.001036  -0.003783   0.045306   0.000368
    18  H   -0.093983  -0.003412   0.031826   0.054355  -0.013367   0.000101
    19  H    0.433190  -0.033714  -0.033075  -0.008793  -0.019617  -0.000071
    20  H   -0.045374   0.436582  -0.054457   0.029516   0.003530   0.002244
    21  H    0.002833  -0.133703   0.419936   0.024099  -0.029657  -0.008219
    22  H    0.000719   0.002398   0.002383  -0.022201  -0.178531   0.048935
              13         14         15         16         17         18
     1  C   -0.243561  -0.004281   0.427299   0.331990   0.331435  -0.010904
     2  C   -2.541767  -0.624814   0.105401  -0.022504  -0.022000  -0.016111
     3  C   -2.563024   0.040705   0.005684   0.021088   0.021034  -0.032176
     4  O   -0.246201  -0.000455   0.003214  -0.004093  -0.004062  -0.000499
     5  C   -2.474778  -0.084281   0.057953  -0.032766  -0.032776   0.004207
     6  C   -1.084857  -0.003328   0.009082  -0.002195  -0.002154   0.398063
     7  C   -0.103400  -0.001263   0.000430   0.000197   0.000193  -0.093983
     8  C   -0.226271   0.008065  -0.001677   0.000729   0.000720  -0.003412
     9  C   -0.516286   0.033399  -0.011507   0.000993   0.001036   0.031826
    10  C    1.477176  -0.016809  -0.025746  -0.003757  -0.003783   0.054355
    11  C   -4.425538   0.199507  -0.130524   0.045343   0.045306  -0.013367
    12  O   -0.288225  -0.018829  -0.002267   0.000372   0.000368   0.000101
    13  C   19.588555   0.509035  -0.085877   0.007098   0.007265   0.013222
    14  O    0.509035   7.969212  -0.017884   0.004473   0.004475  -0.000018
    15  H   -0.085877  -0.017884   0.514688  -0.020643  -0.020626   0.000281
    16  H    0.007098   0.004473  -0.020643   0.547592  -0.059274  -0.000137
    17  H    0.007265   0.004475  -0.020626  -0.059274   0.547491  -0.000133
    18  H    0.013222  -0.000018   0.000281  -0.000137  -0.000133   0.487982
    19  H   -0.001674  -0.000032   0.000026  -0.000018  -0.000018  -0.014382
    20  H    0.014043   0.000054   0.000004  -0.000006  -0.000006   0.000531
    21  H   -0.017835  -0.001671   0.000088   0.000007   0.000007   0.001327
    22  H    0.098280   0.241840   0.000360   0.000243   0.000249  -0.000024
              19         20         21         22
     1  C    0.001098  -0.000347  -0.001904   0.002583
     2  C    0.012677  -0.001041   0.007022   0.089901
     3  C    0.018770  -0.024322   0.006686   0.005704
     4  O    0.001043   0.000075  -0.000153  -0.000512
     5  C    0.036106  -0.010557   0.024906   0.001132
     6  C   -0.072709  -0.018562   0.035880  -0.006741
     7  C    0.433190  -0.045374   0.002833   0.000719
     8  C   -0.033714   0.436582  -0.133703   0.002398
     9  C   -0.033075  -0.054457   0.419936   0.002383
    10  C   -0.008793   0.029516   0.024099  -0.022201
    11  C   -0.019617   0.003530  -0.029657  -0.178531
    12  O   -0.000071   0.002244  -0.008219   0.048935
    13  C   -0.001674   0.014043  -0.017835   0.098280
    14  O   -0.000032   0.000054  -0.001671   0.241840
    15  H    0.000026   0.000004   0.000088   0.000360
    16  H   -0.000018  -0.000006   0.000007   0.000243
    17  H   -0.000018  -0.000006   0.000007   0.000249
    18  H   -0.014382   0.000531   0.001327  -0.000024
    19  H    0.485478  -0.012352   0.000680  -0.000059
    20  H   -0.012352   0.481972  -0.014776  -0.000036
    21  H    0.000680  -0.014776   0.492414   0.000508
    22  H   -0.000059  -0.000036   0.000508   0.405158
          Atomic-Atomic Spin Densities.
               1          2          3          4          5          6
     1  C    0.000000   0.000000  -0.000000   0.000000   0.000000  -0.000000
     2  C    0.000000   0.000000  -0.000000   0.000000   0.000000  -0.000000
     3  C   -0.000000  -0.000000   0.000000  -0.000000  -0.000000   0.000000
     4  O    0.000000   0.000000  -0.000000  -0.000000   0.000000  -0.000000
     5  C    0.000000   0.000000  -0.000000   0.000000   0.000000  -0.000000
     6  C   -0.000000  -0.000000   0.000000  -0.000000  -0.000000   0.000000
     7  C   -0.000000   0.000000   0.000000  -0.000000  -0.000000   0.000000
     8  C    0.000000  -0.000000  -0.000000  -0.000000   0.000000  -0.000000
     9  C   -0.000000  -0.000000   0.000000  -0.000000  -0.000000   0.000000
    10  C    0.000000   0.000000   0.000000   0.000000   0.000000   0.000000
    11  C   -0.000000  -0.000000   0.000000  -0.000000  -0.000000   0.000000
    12  O    0.000000   0.000000   0.000000   0.000000   0.000000   0.000000
    13  C    0.000000   0.000000   0.000000   0.000000  -0.000000   0.000000
    14  O   -0.000000  -0.000000   0.000000  -0.000000  -0.000000   0.000000
    15  H    0.000000   0.000000  -0.000000   0.000000   0.000000  -0.000000
    16  H   -0.000000  -0.000000   0.000000  -0.000000   0.000000   0.000000
    17  H   -0.000000  -0.000000   0.000000  -0.000000  -0.000000   0.000000
    18  H    0.000000   0.000000   0.000000   0.000000  -0.000000   0.000000
    19  H    0.000000   0.000000  -0.000000   0.000000  -0.000000   0.000000
    20  H    0.000000   0.000000  -0.000000   0.000000   0.000000  -0.000000
    21  H   -0.000000  -0.000000  -0.000000  -0.000000  -0.000000   0.000000
    22  H   -0.000000  -0.000000   0.000000  -0.000000  -0.000000   0.000000
               7          8          9         10         11         12
     1  C   -0.000000   0.000000  -0.000000   0.000000  -0.000000   0.000000
     2  C    0.000000  -0.000000  -0.000000   0.000000  -0.000000   0.000000
     3  C    0.000000  -0.000000   0.000000   0.000000   0.000000   0.000000
     4  O   -0.000000  -0.000000  -0.000000   0.000000  -0.000000   0.000000
     5  C   -0.000000   0.000000  -0.000000   0.000000  -0.000000   0.000000
     6  C    0.000000  -0.000000   0.000000   0.000000   0.000000   0.000000
     7  C   -0.000000  -0.000000   0.000000  -0.000000   0.000000  -0.000000
     8  C   -0.000000   0.000000  -0.000000   0.000000  -0.000000  -0.000000
     9  C    0.000000  -0.000000   0.000000  -0.000000   0.000000  -0.000000
    10  C   -0.000000   0.000000  -0.000000   0.000000  -0.000000  -0.000000
    11  C    0.000000  -0.000000   0.000000  -0.000000   0.000000   0.000000
    12  O   -0.000000  -0.000000  -0.000000  -0.000000   0.000000  -0.000000
    13  C   -0.000000  -0.000000  -0.000000  -0.000000  -0.000000  -0.000000
    14  O    0.000000   0.000000   0.000000  -0.000000   0.000000   0.000000
    15  H   -0.000000  -0.000000  -0.000000   0.000000  -0.000000  -0.000000
    16  H    0.000000   0.000000   0.000000   0.000000   0.000000   0.000000
    17  H    0.000000   0.000000   0.000000   0.000000   0.000000   0.000000
    18  H    0.000000  -0.000000  -0.000000  -0.000000   0.000000  -0.000000
    19  H   -0.000000  -0.000000   0.000000   0.000000  -0.000000   0.000000
    20  H   -0.000000   0.000000  -0.000000   0.000000  -0.000000  -0.000000
    21  H    0.000000  -0.000000   0.000000  -0.000000   0.000000   0.000000
    22  H    0.000000   0.000000   0.000000  -0.000000   0.000000   0.000000
              13         14         15         16         17         18
     1  C    0.000000  -0.000000   0.000000  -0.000000  -0.000000   0.000000
     2  C    0.000000  -0.000000   0.000000  -0.000000  -0.000000   0.000000
     3  C    0.000000   0.000000  -0.000000   0.000000   0.000000   0.000000
     4  O    0.000000  -0.000000   0.000000  -0.000000  -0.000000   0.000000
     5  C   -0.000000  -0.000000   0.000000   0.000000  -0.000000  -0.000000
     6  C    0.000000   0.000000  -0.000000   0.000000   0.000000   0.000000
     7  C   -0.000000   0.000000  -0.000000   0.000000   0.000000   0.000000
     8  C   -0.000000   0.000000  -0.000000   0.000000   0.000000  -0.000000
     9  C   -0.000000   0.000000  -0.000000   0.000000   0.000000  -0.000000
    10  C   -0.000000  -0.000000   0.000000   0.000000   0.000000  -0.000000
    11  C   -0.000000   0.000000  -0.000000   0.000000   0.000000   0.000000
    12  O   -0.000000   0.000000  -0.000000   0.000000   0.000000  -0.000000
    13  C   -0.000000  -0.000000  -0.000000   0.000000   0.000000  -0.000000
    14  O   -0.000000   0.000000  -0.000000   0.000000   0.000000   0.000000
    15  H   -0.000000  -0.000000   0.000000  -0.000000  -0.000000   0.000000
    16  H    0.000000   0.000000  -0.000000   0.000000  -0.000000   0.000000
    17  H    0.000000   0.000000  -0.000000  -0.000000  -0.000000   0.000000
    18  H   -0.000000   0.000000   0.000000   0.000000   0.000000  -0.000000
    19  H    0.000000  -0.000000   0.000000  -0.000000  -0.000000   0.000000
    20  H   -0.000000  -0.000000   0.000000   0.000000   0.000000  -0.000000
    21  H    0.000000   0.000000   0.000000  -0.000000  -0.000000   0.000000
    22  H    0.000000   0.000000  -0.000000   0.000000   0.000000  -0.000000
              19         20         21         22
     1  C    0.000000   0.000000  -0.000000  -0.000000
     2  C    0.000000   0.000000  -0.000000  -0.000000
     3  C   -0.000000  -0.000000  -0.000000   0.000000
     4  O    0.000000   0.000000  -0.000000  -0.000000
     5  C   -0.000000   0.000000  -0.000000  -0.000000
     6  C    0.000000  -0.000000   0.000000   0.000000
     7  C   -0.000000  -0.000000   0.000000   0.000000
     8  C   -0.000000   0.000000  -0.000000   0.000000
     9  C    0.000000  -0.000000   0.000000   0.000000
    10  C    0.000000   0.000000  -0.000000  -0.000000
    11  C   -0.000000  -0.000000   0.000000   0.000000
    12  O    0.000000  -0.000000   0.000000   0.000000
    13  C    0.000000  -0.000000   0.000000   0.000000
    14  O   -0.000000  -0.000000   0.000000   0.000000
    15  H    0.000000   0.000000   0.000000  -0.000000
    16  H   -0.000000   0.000000  -0.000000   0.000000
    17  H   -0.000000   0.000000  -0.000000   0.000000
    18  H    0.000000  -0.000000   0.000000  -0.000000
    19  H    0.000000   0.000000  -0.000000  -0.000000
    20  H    0.000000   0.000000  -0.000000  -0.000000
    21  H   -0.000000  -0.000000  -0.000000   0.000000
    22  H   -0.000000  -0.000000   0.000000   0.000000
 Mulliken charges and spin densities:
               1          2
     1  C   -0.224067  -0.000000
     2  C    1.319205  -0.000000
     3  C   -0.644113   0.000000
     4  O   -0.286863  -0.000000
     5  C    0.424963  -0.000000
     6  C    0.127449   0.000000
     7  C   -0.458571   0.000000
     8  C   -0.362263   0.000000
     9  C    0.027811   0.000000
    10  C    0.879681  -0.000000
    11  C   -1.037449   0.000000
    12  O   -0.309292   0.000000
    13  C   -0.895379   0.000000
    14  O   -0.237099  -0.000000
    15  H    0.192245  -0.000000
    16  H    0.185271  -0.000000
    17  H    0.185253  -0.000000
    18  H    0.193252   0.000000
    19  H    0.207447  -0.000000
    20  H    0.213285  -0.000000
    21  H    0.191525   0.000000
    22  H    0.307709  -0.000000
 Sum of Mulliken charges =  -0.00000  -0.00000
 Mulliken charges and spin densities with hydrogens summed into heavy atoms:
               1          2
     1  C    0.338702  -0.000000
     2  C    1.319205  -0.000000
     3  C   -0.644113   0.000000
     4  O   -0.286863  -0.000000
     5  C    0.424963  -0.000000
     6  C    0.320701   0.000000
     7  C   -0.251124   0.000000
     8  C   -0.148978  -0.000000
     9  C    0.219336   0.000000
    10  C    0.879681  -0.000000
    11  C   -1.037449   0.000000
    12  O   -0.309292   0.000000
    13  C   -0.895379   0.000000
    14  O    0.070611  -0.000000
 Electronic spatial extent (au):  <R**2>=           2628.9370
 Charge=             -0.0000 electrons
 Dipole moment (field-independent basis, Debye):
    X=             -3.1611    Y=             -0.1143    Z=             -0.0268  Tot=              3.1633
 Quadrupole moment (field-independent basis, Debye-Ang):
   XX=            -70.6892   YY=            -86.9222   ZZ=            -81.9565
   XY=             -8.1040   XZ=             -1.5131   YZ=             -1.0998
 Traceless Quadrupole moment (field-independent basis, Debye-Ang):
   XX=              9.1668   YY=             -7.0662   ZZ=             -2.1006
   XY=             -8.1040   XZ=             -1.5131   YZ=             -1.0998
 Octapole moment (field-independent basis, Debye-Ang**2):
  XXX=            -27.2233  YYY=             87.4574  ZZZ=             31.8345  XYY=             -7.3353
  XXY=             36.0985  XXZ=             12.1051  XZZ=             13.0781  YZZ=             25.9755
  YYZ=             13.3094  XYZ=             -3.9655
 Hexadecapole moment (field-independent basis, Debye-Ang**3):
 XXXX=          -1804.6599 YYYY=          -1287.4817 ZZZZ=           -155.1061 XXXY=            142.6943
 XXXZ=             31.7145 YYYX=             59.6131 YYYZ=           -129.1776 ZZZX=             33.2534
 ZZZY=           -133.8592 XXYY=           -569.1169 XXZZ=           -382.7564 YYZZ=           -243.9987
 XXYZ=            -43.9181 YYXZ=            -11.8605 ZZXY=             53.8777
 N-N= 8.369195177457D+02 E-N=-3.190653426478D+03  KE= 6.472839001949D+02
                          Isotropic Fermi Contact Couplings
        Atom                 a.u.       MegaHertz       Gauss      10(-4) cm-1
     1  C(13)             -0.00000      -0.00000      -0.00000      -0.00000
     2  C(13)             -0.00000      -0.00000      -0.00000      -0.00000
     3  C(13)              0.00000       0.00000       0.00000       0.00000
     4  O(17)              0.00000      -0.00000      -0.00000      -0.00000
     5  C(13)              0.00000       0.00000       0.00000       0.00000
     6  C(13)              0.00000       0.00000       0.00000       0.00000
     7  C(13)              0.00000       0.00000       0.00000       0.00000
     8  C(13)             -0.00000      -0.00000      -0.00000      -0.00000
     9  C(13)             -0.00000      -0.00000      -0.00000      -0.00000
    10  C(13)             -0.00000      -0.00000      -0.00000      -0.00000
    11  C(13)             -0.00000      -0.00000      -0.00000      -0.00000
    12  O(17)             -0.00000       0.00000       0.00000       0.00000
    13  C(13)             -0.00000      -0.00000      -0.00000      -0.00000
    14  O(17)             -0.00000       0.00000       0.00000       0.00000
    15  H(1)              -0.00000      -0.00000      -0.00000      -0.00000
    16  H(1)               0.00000       0.00000       0.00000       0.00000
    17  H(1)              -0.00000      -0.00000      -0.00000      -0.00000
    18  H(1)               0.00000       0.00000       0.00000       0.00000
    19  H(1)               0.00000       0.00000       0.00000       0.00000
    20  H(1)               0.00000       0.00000       0.00000       0.00000
    21  H(1)              -0.00000      -0.00000      -0.00000      -0.00000
    22  H(1)              -0.00000      -0.00000      -0.00000      -0.00000
 --------------------------------------------------------
       Center         ----  Spin Dipole Couplings  ----
                      3XX-RR        3YY-RR        3ZZ-RR
 --------------------------------------------------------
     1   Atom       -0.000000      0.000000     -0.000000
     2   Atom       -0.000000      0.000000      0.000000
     3   Atom       -0.000000     -0.000000      0.000000
     4   Atom       -0.000000     -0.000000      0.000000
     5   Atom       -0.000000      0.000000      0.000000
     6   Atom        0.000000     -0.000000      0.000000
     7   Atom       -0.000000     -0.000000      0.000000
     8   Atom        0.000000     -0.000000     -0.000000
     9   Atom        0.000000     -0.000000     -0.000000
    10   Atom       -0.000000      0.000000     -0.000000
    11   Atom        0.000000     -0.000000     -0.000000
    12   Atom       -0.000000      0.000000     -0.000000
    13   Atom        0.000000      0.000000     -0.000000
    14   Atom       -0.000000      0.000000      0.000000
    15   Atom        0.000000     -0.000000      0.000000
    16   Atom       -0.000000      0.000000     -0.000000
    17   Atom       -0.000000      0.000000      0.000000
    18   Atom       -0.000000      0.000000     -0.000000
    19   Atom       -0.000000      0.000000      0.000000
    20   Atom       -0.000000      0.000000      0.000000
    21   Atom        0.000000     -0.000000      0.000000
    22   Atom        0.000000      0.000000     -0.000000
 --------------------------------------------------------
                        XY            XZ            YZ
 --------------------------------------------------------
     1   Atom       -0.000000     -0.000000      0.000000
     2   Atom       -0.000000     -0.000000     -0.000000
     3   Atom        0.000000      0.000000     -0.000000
     4   Atom        0.000000      0.000000     -0.000000
     5   Atom        0.000000      0.000000      0.000000
     6   Atom        0.000000     -0.000000     -0.000000
     7   Atom       -0.000000     -0.000000     -0.000000
     8   Atom       -0.000000     -0.000000     -0.000000
     9   Atom       -0.000000     -0.000000     -0.000000
    10   Atom        0.000000      0.000000      0.000000
    11   Atom       -0.000000     -0.000000      0.000000
    12   Atom       -0.000000     -0.000000      0.000000
    13   Atom        0.000000      0.000000      0.000000
    14   Atom        0.000000      0.000000      0.000000
    15   Atom        0.000000      0.000000     -0.000000
    16   Atom        0.000000     -0.000000     -0.000000
    17   Atom        0.000000      0.000000      0.000000
    18   Atom       -0.000000     -0.000000      0.000000
    19   Atom        0.000000      0.000000      0.000000
    20   Atom       -0.000000     -0.000000     -0.000000
    21   Atom       -0.000000     -0.000000     -0.000000
    22   Atom       -0.000000     -0.000000      0.000000
 --------------------------------------------------------


 ---------------------------------------------------------------------------------
              Anisotropic Spin Dipole Couplings in Principal Axis System
 ---------------------------------------------------------------------------------

       Atom             a.u.   MegaHertz   Gauss  10(-4) cm-1        Axes

              Baa    -0.0000    -0.000    -0.000    -0.000  0.9682  0.1904  0.1624
     1 C(13)  Bbb    -0.0000    -0.000    -0.000    -0.000 -0.0916 -0.3340  0.9381
              Bcc     0.0000     0.000     0.000     0.000 -0.2329  0.9231  0.3060
 
              Baa    -0.0000    -0.000    -0.000    -0.000  0.9081  0.3640  0.2070
     2 C(13)  Bbb     0.0000     0.000     0.000     0.000 -0.1843 -0.0966  0.9781
              Bcc     0.0000     0.000     0.000     0.000 -0.3761  0.9264  0.0206
 
              Baa    -0.0000    -0.000    -0.000    -0.000 -0.6754  0.7209  0.1554
     3 C(13)  Bbb     0.0000     0.000     0.000     0.000  0.7371  0.6662  0.1131
              Bcc     0.0000     0.000     0.000     0.000  0.0220 -0.1910  0.9813
 
              Baa    -0.0000     0.000     0.000     0.000  0.7610 -0.6327 -0.1433
     4 O(17)  Bbb     0.0000    -0.000    -0.000    -0.000  0.6395  0.7688  0.0022
              Bcc     0.0000    -0.000    -0.000    -0.000  0.1088 -0.0934  0.9897
 
              Baa    -0.0000    -0.000    -0.000    -0.000  0.9413 -0.3333 -0.0545
     5 C(13)  Bbb     0.0000     0.000     0.000     0.000 -0.0405 -0.2716  0.9616
              Bcc     0.0000     0.000     0.000     0.000  0.3353  0.9029  0.2691
 
              Baa    -0.0000    -0.000    -0.000    -0.000 -0.1243  0.9795  0.1585
     6 C(13)  Bbb     0.0000     0.000     0.000     0.000  0.3183 -0.1119  0.9413
              Bcc     0.0000     0.000     0.000     0.000  0.9398  0.1675 -0.2979
 
              Baa    -0.0000    -0.000    -0.000    -0.000  0.9112  0.3994  0.1014
     7 C(13)  Bbb    -0.0000    -0.000    -0.000    -0.000 -0.4119  0.8892  0.1992
              Bcc     0.0000     0.000     0.000     0.000 -0.0106 -0.2233  0.9747
 
[...]
 -0.00976124,0.00006564,0.00006989,0.00422410,-0.06876937,-0.01752102,-
 0.16738105,-0.53963725,-0.10091174,0.20773349,0.63377633,-0.00025868,0
 .00018318,-0.00346434,0.00029850,0.00097112,0.00356879,0.00028301,0.00
 111969,0.00059810,-0.00042099,-0.00089520,-0.00009411,0.00147455,0.000
 33116,0.00478368,0.00115794,-0.00076318,-0.00157831,-0.00073675,-0.000
 48035,0.00009633,-0.00010434,0.00008490,-0.00068525,-0.00207423,0.0000
 6782,-0.00031396,0.00090007,-0.01754154,0.01036614,-0.03542992,-0.1008
 3345,-0.08384385,0.04381943,0.12807341,0.05526232,-0.01879183,-0.03752
 546,-0.00795722,-0.17513904,-0.13552721,-0.02882192,0.00574489,0.02395
 052,0.00508821,-0.00091420,0.00325694,0.00069098,-0.00467495,-0.000528
 40,-0.00011601,0.00224785,-0.00084117,-0.00017385,-0.00288060,-0.00119
 052,-0.00025495,-0.00036917,0.00360041,0.00076190,0.00519843,-0.000153
 02,-0.00002628,-0.01929875,0.00822700,0.00171069,-0.17215840,0.0109655
 3,0.00234674,-0.03757533,-0.04577050,-0.00970261,0.58092593,-0.0123753
 2,0.00020107,-0.00221051,-0.15059926,-0.33925713,-0.06193319,0.0067365
 3,-0.06190032,-0.00986041,0.00682457,0.01650276,0.00228285,-0.00614450
 ,0.00305026,-0.00151502,0.00189264,-0.00292728,-0.00014946,-0.00309084
 ,-0.00150913,-0.00037690,0.00043472,0.00363876,0.00095981,0.00464417,-
 0.00608459,-0.00185167,0.02099450,0.01228678,0.00186824,0.01988976,-0.
 07998799,-0.00275829,-0.04797556,-0.03841644,-0.01239723,0.07469692,0.
 77878216,-0.00263074,-0.00221760,0.01013465,-0.03201467,-0.06189038,-0
 .06060739,0.00140946,-0.00986975,-0.01776975,0.00145133,0.00229805,0.0
 0620441,-0.00131808,-0.00151219,0.00958670,0.00040253,-0.00014644,-0.0
 0227985,-0.00065811,-0.00037365,0.00017284,0.00009212,0.00096777,-0.00
 069857,0.00098955,-0.00185527,0.00227275,0.00445439,0.00186382,0.00401
 110,0.00428731,-0.00278780,-0.06765576,-0.01020843,-0.01245879,0.01777
 055,0.01587438,0.13839375,0.15632738,-0.00003763,0.00161085,0.00033215
 ,0.01332401,0.00062153,0.00014735,0.00355336,-0.01417350,-0.00300531,0
 .00147958,0.00380147,0.00080479,-0.00132020,-0.00009341,-0.00002302,0.
 00014654,-0.00018221,-0.00004121,-0.00020046,0.00006023,0.00001197,-0.
 00079996,-0.00033692,-0.00007544,-0.00063581,0.00275526,0.00058367,-0.
 00625728,-0.00423031,-0.00090411,-0.04178412,0.03398859,0.00718000,-0.
 00598813,0.01102247,0.00233184,-0.17282569,0.06277919,0.01333162,0.445
 22727,0.00240969,0.00022422,0.00115253,0.03751409,-0.07545336,-0.01801
 369,-0.02371821,0.02917793,0.00400075,0.00049711,-0.01794401,-0.003401
 28,0.00436728,-0.00266705,0.00009916,-0.00143779,0.00229738,0.00046040
 ,0.00158117,0.00094646,0.00015716,0.00093324,-0.00051820,-0.00006314,0
 .00026033,-0.00030238,-0.00018087,0.00076192,0.00302372,-0.00009203,0.
 01902251,-0.01644368,-0.00478848,-0.01613886,0.00704712,0.00135072,0.1
 1150971,-0.23466300,-0.04088123,0.08488202,0.55615225,0.00051481,0.001
 15096,-0.00493840,0.00796417,-0.01800705,0.00555914,-0.00503813,0.0039
 9560,0.01123607,0.00010326,-0.00341337,-0.00263531,0.00092979,0.000092
 69,-0.00306564,-0.00030207,0.00045657,0.00023613,0.00033414,0.00015355
 ,0.00025052,0.00019829,-0.00006718,-0.00021370,0.00005425,-0.00018246,
 0.00050700,0.00016519,-0.00009521,0.00343004,0.00398574,-0.00477622,0.
 00537420,-0.00336186,0.00136504,0.00085413,0.02365703,-0.04090955,-0.0
 5059542,0.01835957,0.11157029,0.05549128,-0.10799550,0.10803147,0.0229
 2652,-0.01598820,0.02902929,0.00615840,-0.00551266,-0.00286665,-0.0006
 1121,0.00091136,-0.00053966,-0.00011367,-0.00042300,0.00169319,0.00035
 990,-0.00055703,-0.00027449,-0.00005891,-0.00003798,0.00017553,0.00003
 696,-0.00001394,-0.00001625,-0.00000383,-0.00000233,-0.00003506,-0.000
 00725,0.00012930,0.00012510,0.00002565,0.00069435,0.00071349,0.0001516
 6,0.00023830,-0.00041195,-0.00008713,-0.00099065,0.00273954,0.00058105
 ,0.00114293,-0.00166291,-0.00033783,0.11951332,0.11350194,-0.25063148,
 -0.04318023,-0.00318736,0.00655446,0.00175602,-0.00223382,-0.00065200,
 -0.00031021,0.00118389,0.00012883,-0.00002153,-0.00009523,0.00034078,0
 .00000378,-0.00005032,-0.00001841,-0.00001119,-0.00001685,0.00002291,0
 .00001014,0.00001383,0.00000497,-0.00000185,0.00000597,-0.00002379,-0.
 00000507,0.00008961,-0.00004043,0.00002834,-0.00024659,0.00002198,0.00
 002021,0.00011150,0.00017170,0.00001451,0.00032818,-0.00076240,-0.0002
 3276,-0.00209094,-0.00105117,-0.00020800,-0.11981315,0.27021507,0.0240
 8078,-0.04317932,-0.05633888,-0.00067399,0.00174671,-0.00136665,-0.000
 47652,-0.00030396,0.00074684,0.00026036,-0.00002597,0.00023014,-0.0000
 1862,0.00000215,0.00032605,-0.00000982,-0.00001075,0.00003271,-0.00000
 346,0.00001009,-0.00002348,0.00000321,-0.00000190,0.00001395,0.0000013
 0,-0.00000570,-0.00000126,0.00002052,0.00002786,-0.00016835,-0.0000553
 9,0.00001844,-0.00006789,0.00002759,0.00001452,0.00010681,0.00006013,-
 0.00021140,0.00029193,-0.00042035,-0.00021413,-0.00017451,-0.02544051,
 0.04782120,0.05507985,-0.06359467,-0.02304530,-0.06541626,-0.01313470,
 -0.01306822,-0.03015928,0.00013606,-0.00202210,0.00010479,0.00093104,0
 .00096658,0.00030985,-0.00023263,-0.00021083,0.00011543,0.00016591,-0.
 00007596,0.00012585,-0.00019271,-0.00008724,-0.00005204,-0.00007687,0.
 00027141,0.00010552,0.00035997,0.00002623,-0.00007233,-0.00056159,0.00
 031575,-0.00018189,0.00215640,-0.00097344,0.00245805,-0.00098158,-0.00
 054994,-0.00079929,-0.00531020,0.00331307,0.00139396,0.00121058,-0.001
 03754,-0.00142399,0.00433041,0.00354170,0.01446614,0.07214807,-0.02131
 221,-0.07394393,-0.08297814,-0.00560348,-0.00333865,-0.00326357,0.0011
 3670,-0.00106565,0.00003439,0.00008613,0.00067347,0.00014492,-0.000121
 59,0.00008092,-0.00006611,-0.00010218,-0.00000947,-0.00003260,0.000091
 00,0.00006336,0.00000997,0.00002902,-0.00015117,-0.00004257,-0.0001952
 1,0.00004452,0.00002682,0.00021678,-0.00006318,-0.00001238,-0.00077598
 ,-0.00047795,0.00009570,-0.00012060,0.00018003,-0.00003589,0.00083200,
 0.00059755,-0.00002012,-0.00076658,0.00005045,0.00039670,-0.00861555,-
 0.00783976,-0.02429780,0.02892577,0.07771727,-0.06452912,-0.08217387,-
 0.25454290,-0.00207627,0.00045544,0.00276471,-0.00032442,-0.00213515,0
 .00025194,0.00134801,0.00055442,0.00031310,-0.00008187,0.00023477,-0.0
 0008759,-0.00001372,-0.00002356,-0.00000467,-0.00002437,0.00001083,-0.
 00000438,0.00000468,0.00002479,-0.00000223,0.00002901,0.00000447,0.000
 02732,0.00000763,0.00000617,0.00004210,0.00002215,0.00005091,-0.000513
 69,-0.00004025,0.00002988,0.00019989,0.00039856,0.00118538,-0.00031183
 ,-0.00002829,-0.00027492,0.00000208,-0.00027055,-0.00079149,-0.0035842
 6,0.07118152,0.09023200,0.27620705,-0.06353129,-0.04759779,0.05039674,
 -0.01314527,-0.02418686,0.02225716,0.00008009,-0.00184356,-0.00088081,
 0.00079154,0.00104920,0.00018087,-0.00022720,-0.00014213,-0.00019021,0
 .00016765,-0.00001726,-0.00014576,-0.00019336,-0.00010112,0.00001168,-
 0.00007622,0.00029199,0.00001284,0.00036068,-0.00000613,0.00007697,-0.
 00055760,0.00021315,0.00029258,0.00213862,0.00010097,-0.00264007,-0.00
 097413,-0.00081769,0.00050733,-0.00529110,0.00357212,0.00006842,0.0012
 0287,-0.00150736,0.00088132,0.00432918,0.00911737,-0.01178948,0.002503
 89,0.00637594,-0.00564678,0.07228023,-0.04560193,-0.16493760,0.1228023
 1,-0.00597130,-0.00340352,0.00056413,0.00090690,-0.00163488,-0.0008675
 5,0.00058536,0.00083831,0.00006508,-0.00014340,0.00011712,0.00015765,-
 0.00009937,-0.00002962,0.00002122,0.00007281,0.00005978,0.00001861,0.0
 0002822,-0.00013249,-0.00001541,-0.00016555,0.00005336,-0.00001543,0.0
 0020011,-0.00004719,-0.00002773,-0.00069478,-0.00042868,-0.00005983,-0
 .00012824,0.00017933,0.00002767,0.00091582,0.00088551,0.00055360,-0.00
 070687,0.00008081,-0.00035975,-0.00797489,-0.01644099,0.01858585,0.003
 53398,0.00737571,-0.00746023,0.05529789,0.17740408,0.05025347,0.121980
 18,-0.16357485,-0.00035429,-0.00314167,0.00276569,0.00077227,0.0013028
 7,0.00078770,-0.00110506,-0.00033585,0.00010316,0.00002714,-0.00014346
 ,-0.00012077,-0.00002817,0.00001306,0.00001533,0.00005899,0.00001751,-
 0.00000093,0.00000767,-0.00008254,-0.00002005,-0.00010530,0.00000681,0
 .00001842,0.00008144,-0.00004692,0.00002659,-0.00033952,-0.00001500,-0
 .00056256,-0.00001005,-0.00003607,0.00019958,-0.00002358,-0.00066261,-
 0.00059608,-0.00028541,0.00031604,-0.00003400,-0.00324441,-0.00491901,
 0.00502828,0.00773966,0.01995710,-0.02075985,-0.05337203,-0.13416522,0
 .17667523,-0.00002713,-0.00009408,-0.00001975,0.00022167,-0.00054448,-
 0.00011924,-0.00073030,0.00036438,0.00008013,-0.00084339,0.00008782,0.
 00006296,0.01342647,0.01578035,0.00335180,-0.10623994,-0.10457957,-0.0
 2219222,-0.00796315,-0.02759306,-0.00585941,-0.00511291,0.00052934,0.0
 0010136,-0.00080822,0.00057613,0.00012304,-0.00255418,0.00285362,0.000
 59808,0.00130181,0.00063630,0.00013436,-0.00039023,0.00048415,0.000102
 77,-0.00011209,0.00031550,0.00006659,0.00004988,-0.00040751,-0.0000861
 1,0.00002222,-0.00000781,-0.00000181,-0.00000963,0.00001417,-0.0000034
 6,-0.00001041,0.00001146,0.00000882,0.10867728,0.00001570,0.00004718,-
 0.00000124,0.00008229,0.00019982,0.00003394,-0.00240171,-0.00246932,0.
 00035695,-0.00098579,0.00259907,0.00052312,-0.01037387,-0.01877682,-0.
 00476720,-0.10405599,-0.28177950,-0.05132656,0.00158290,0.00297173,-0.
 00031127,0.00034621,0.00175139,-0.00116251,0.00046307,0.00027006,0.000
 30775,0.00389669,-0.00152805,-0.00184691,-0.00152639,-0.00004821,-0.00
 022593,0.00038346,-0.00073808,-0.00003126,0.00017899,-0.00008399,-0.00
 001118,0.00005758,0.00017796,0.00003423,0.00000684,0.00001218,0.000000
 20,0.00002429,-0.00000451,0.00000977,0.00003001,0.00000125,-0.00001075
 ,0.11250913,0.29702713,0.00000362,-0.00000114,0.00005246,0.00001851,0.
 00003788,0.00005153,-0.00051663,0.00034235,-0.00409182,-0.00016297,0.0
 0053650,0.00043729,-0.00219183,-0.00474250,0.00268554,-0.02208466,-0.0
 5132331,-0.05055377,0.00033029,-0.00033538,0.00439410,0.00006538,-0.00
 116155,0.00699627,0.00010056,0.00030665,-0.00111731,0.00081564,-0.0018
 5001,0.00680990,-0.00032558,-0.00022664,0.00096904,0.00008220,-0.00002
 972,-0.00059640,0.00003935,-0.00001404,-0.00003109,0.00001124,0.000037
 55,0.00002260,0.00000138,0.00000035,0.00001133,0.00001871,0.00000203,0
 .00000344,-0.00000711,-0.00000325,-0.00000240,0.02384274,0.05728577,0.
 03875738,-0.00002998,0.00018208,0.00003876,-0.00053446,-0.00005023,-0.
 00001150,0.00043302,0.00177997,0.00037735,-0.00019053,-0.00039356,-0.0
 0008392,-0.00522184,-0.00174634,-0.00038167,-0.01372713,0.02570480,0.0
 0543534,-0.15378095,0.12957584,0.02734616,0.01146098,-0.01232037,-0.00
 261047,-0.00025915,-0.00300557,-0.00064306,-0.00056333,-0.00078569,-0.
 00016585,-0.00007036,-0.00018455,-0.00003813,0.00010826,0.00022514,0.0
 0004783,0.00010876,-0.00034057,-0.00007281,-0.00009693,0.00027477,0.00
 005846,-0.00006699,-0.00000547,-0.00000096,-0.00000566,-0.00000874,-0.
 00000428,-0.00000544,-0.00000974,0.00000050,0.00133313,-0.00022119,-0.
 00003889,0.15999156,-0.00000805,-0.00000089,0.00003969,-0.00006901,-0.
 00005538,-0.00001455,-0.00060798,0.00021084,0.00001775,0.00024894,0.00
 011611,-0.00000171,-0.00122083,0.00157159,-0.00116480,-0.00432956,0.00
 671966,0.00044814,0.12958987,-0.23580931,-0.04134912,0.01774149,-0.016
 64506,-0.00450164,-0.00328349,-0.00319720,-0.00227027,-0.00078793,-0.0
 0013738,0.00015737,-0.00008331,0.00011123,0.00030557,0.00014888,-0.000
 17446,-0.00008090,0.00000525,0.00002665,-0.00003233,0.00009162,-0.0000
 5987,-0.00001384,0.00000160,-0.00000212,0.00000245,0.00001615,-0.00000
 106,-0.00000230,-0.00000262,0.00000583,0.00000069,0.00037383,0.0004260
 8,0.00094259,-0.13857941,0.24671621,-0.00000177,0.00003987,-0.00017943
 ,-0.00001503,-0.00001487,0.00001193,-0.00012769,0.00001961,0.00012971,
 0.00005149,-0.00000295,0.00012492,-0.00026736,-0.00116827,0.00682380,-
 0.00092370,0.00048539,0.00465553,0.02734619,-0.04136751,-0.04867831,0.
 00375245,-0.00452704,0.00370558,-0.00070174,-0.00226998,0.00702659,-0.
 00016789,0.00015965,-0.00085116,-0.00001492,0.00030381,-0.00126586,0.0
 0003106,-0.00007964,0.00019272,0.00000076,-0.00003307,0.00017411,0.000
 01924,-0.00001337,0.00000117,0.00000023,0.00000256,-0.00001360,-0.0000
 4237,0.00001620,0.00000928,0.00004527,-0.00001781,0.00000241,0.0000862
 6,0.00094582,-0.00385627,-0.02923332,0.04657967,0.03604976,-0.00001344
 ,-0.00001380,-0.00000303,0.00001031,0.00003729,0.00000734,0.00017903,0
 .00012597,0.00002779,-0.00024203,-0.00015493,-0.00003362,0.00048004,0.
 00002500,0.00000552,0.00098550,-0.00213800,-0.00045835,-0.00767315,0.0
 0133522,0.00027640,-0.33706785,-0.02685961,-0.00596122,-0.01293019,-0.
 00367372,-0.00079396,0.00001097,0.00324945,0.00068212,-0.00027965,-0.0
 0121992,-0.00025989,0.00000740,0.00052822,0.00011188,-0.00004249,0.000
 13440,0.00002786,-0.00024204,0.00009932,0.00002177,-0.00001435,0.00000
 502,0.00000122,-0.00001898,-0.00000191,-0.00000204,-0.00001863,-0.0000
 0263,0.00000118,-0.00041027,0.00018396,0.00003891,0.00073770,-0.000090
 85,-0.00001677,0.35559489,0.00000904,0.00005290,0.00000222,-0.00010453
 ,0.00003038,-0.00002062,0.00007323,-0.00019099,0.00023102,-0.00011273,
 0.00020817,0.00000601,0.00012199,-0.00117322,-0.00006359,-0.00179839,-
 0.00437097,-0.00249851,-0.02885968,0.00162476,-0.00057122,-0.02690958,
 -0.06072164,-0.00461881,0.02647902,0.00594948,0.00043884,0.00257200,-0
 .00336382,-0.00224949,0.00117494,0.00081066,0.00011177,-0.00012761,-0.
 00011096,-0.00004321,0.00013000,-0.00039108,-0.00007358,0.00021936,-0.
 00002962,0.00003842,-0.00000525,-0.00000198,-0.00000063,0.00001334,-0.
 00000327,0.00000156,0.00001578,-0.00000145,-0.00000241,-0.00125239,0.0
 0003149,0.00004587,0.00052385,0.00092810,0.00103864,0.02850981,0.05982
 332,0.00000198,0.00000224,0.00004274,-0.00002173,-0.00002163,0.0001250
 2,0.00001420,0.00022993,-0.00123187,-0.00002362,0.00000734,0.00017740,
 0.00002960,-0.00006394,-0.00088983,-0.00038763,-0.00249957,0.00688679,
 -0.00612489,-0.00053547,0.00403761,-0.00596350,-0.00461392,-0.04010338
 ,0.00558576,0.00040671,0.00406057,0.00054160,-0.00224987,0.00678218,0.
 00024785,0.00011166,0.00031261,-0.00002739,-0.00004368,0.00008312,0.00
 002752,-0.00007231,-0.00005915,0.00004690,0.00003796,-0.00020402,-0.00
 000107,-0.00000059,0.00000066,0.00000896,0.00000162,0.00000044,-0.0000
 0262,-0.00000251,-0.00000137,-0.00026548,0.00004678,-0.00017761,0.0001
 1067,0.00103361,-0.00374783,0.00634142,0.00717266,0.02775801,0.0000241
 4,0.00012672,0.00002754,-0.00013252,0.00017313,0.00003703,0.00119386,-
 0.00151811,-0.00032358,-0.00100561,-0.00034886,-0.00007348,-0.00561069
 ,0.00131358,0.00026730,-0.00061585,0.00053792,0.00011475,-0.00190786,0
 .00319471,0.00066798,0.01162274,0.01818234,0.00387327,-0.10505267,-0.1
 0228026,-0.02173954,-0.00790510,-0.02874712,-0.00610999,-0.00026977,-0
 .00217214,-0.00045781,0.00153295,0.00104326,0.00025481,0.00032613,-0.0
 0019851,-0.00004788,0.00013783,0.00035840,0.00007550,-0.00002156,-0.00
 000034,-0.00000015,0.00001748,-0.00000896,0.00000260,0.00001735,-0.000
 00720,-0.00000602,0.00009830,-0.00008803,-0.00001783,0.00039503,0.0008
 8506,0.00018781,0.00086591,-0.00063801,-0.00013124,0.10655530,-0.00000
 198,-0.00002018,-0.00002002,-0.00004365,0.00008052,0.00003393,0.000321
 90,0.00019511,-0.00017902,-0.00007081,-0.00012248,0.00010254,0.0003145
 8,0.00159298,-0.00115926,0.00065831,0.00013178,0.00027380,0.00345636,-
 0.00154021,-0.00188473,-0.01130253,-0.01552985,-0.00433366,-0.10258364
 ,-0.28353330,-0.05188303,-0.00190855,0.00169296,-0.00033793,0.00056144
 ,-0.00209368,0.00041606,0.00142718,0.00050151,-0.00001039,-0.00025517,
 -0.00005533,0.00000387,-0.00010015,0.00002628,-0.00001906,-0.00000827,
 0.00000274,-0.00000006,-0.00001835,0.00000183,-0.00000007,-0.00001228,
 -0.00000643,0.00000300,-0.00007713,-0.00007662,0.00015044,-0.00058845,
 -0.00076795,-0.00010075,-0.00003508,0.00086442,0.00105532,0.11017056,0
 .29864182,-0.00000068,-0.00001970,0.00006606,-0.00000935,0.00003477,-0
 .00007369,0.00007136,-0.00017844,0.00100524,-0.00001787,0.00009964,-0.
 00058662,0.00005532,-0.00115370,0.00680800,0.00014089,0.00027148,-0.00
 109635,0.00072406,-0.00188555,0.00696694,-0.00237249,-0.00429384,0.003
 91187,-0.02181384,-0.05189207,-0.05016076,-0.00040655,-0.00036445,0.00
 320940,0.00012989,0.00042719,-0.00394317,0.00031622,-0.00001917,0.0004
 4259,-0.00005627,-0.00000469,-0.00004761,-0.00002331,-0.00001976,0.000
 11301,-0.00000192,-0.00000009,0.00000361,0.00000950,-0.00001587,-0.000
 01280,-0.00001668,0.00001858,-0.00000443,-0.00001578,0.00014996,-0.000
 75438,-0.00012420,-0.00010059,-0.00031522,-0.00000443,0.00105704,-0.00
 389834,0.02339339,0.05787483,0.03841952,-0.00076985,-0.00019741,-0.000
 04112,-0.00525731,0.00834277,0.00176686,0.00355567,-0.00215239,-0.0004
 6174,-0.00047284,0.00173965,0.00036959,-0.00028243,0.00087517,0.000185
 73,0.00089278,-0.00078747,-0.00016581,-0.00058968,-0.00055059,-0.00011
 710,-0.00026981,0.00024353,0.00005219,-0.00034227,-0.00037319,-0.00007
 845,0.00054537,-0.00309264,-0.00065631,-0.00283448,0.01564102,0.003312
 95,0.00741718,-0.00856492,-0.00167600,0.02182250,0.01175693,0.00252015
 ,-0.23728661,-0.21856135,-0.04675330,0.00031284,-0.00015113,-0.0000302
 1,0.00015940,-0.00007455,0.00005127,0.00015851,-0.00004665,-0.00007730
 ,0.00008109,-0.00010817,-0.00002303,-0.00001568,-0.00003965,-0.0000082
 1,0.00008131,-0.00003418,-0.00000728,-0.00026537,0.00009570,0.00002275
 ,0.21335968,0.00059214,0.00046527,0.00014053,0.00261068,0.00159242,-0.
 00030572,0.00088429,-0.00341257,-0.00128579,0.00037822,0.00123649,0.00
 046554,-0.00016888,0.00000702,-0.00006802,-0.00000388,-0.00010313,-0.0
 0000927,-0.00006410,-0.00003113,0.00000375,-0.00017336,-0.00000631,-0.
 00001388,-0.00021586,0.00048812,0.00011658,-0.00124745,-0.00115036,-0.
 00016936,-0.00054481,-0.00227165,-0.00078119,-0.00206243,0.00016841,0.
 00088841,-0.01680581,-0.04993284,-0.00971780,-0.17920927,-0.25007223,-
 0.05120236,-0.00029194,-0.00001109,0.00002215,0.00014063,0.00011350,0.
 00006120,0.00017040,0.00006176,-0.00003573,0.00001982,-0.00001024,-0.0
 0000043,-0.00002658,0.00001841,0.00000404,-0.00004320,0.00003531,-0.00
 000236,0.00002185,0.00001409,0.00001444,0.19603953,0.30280077,0.000129
 03,0.00014492,-0.00016627,0.00053901,-0.00028289,0.00298617,0.00019802
 ,-0.00131001,0.00237402,0.00008296,0.00048552,-0.00085668,-0.00003897,
 -0.00007093,0.00030399,-0.00000705,-0.00000635,-0.00006285,-0.00001116
 ,0.00000720,-0.00004885,-0.00003656,-0.00001428,0.00005187,-0.00004469
 ,0.00012152,-0.00003736,-0.00027407,-0.00015496,-0.00037950,-0.0001144
 7,-0.00087316,0.00132356,-0.00035909,0.00097776,-0.00394852,-0.0035235
 8,-0.00972969,-0.00629394,-0.03835389,-0.05123967,-0.02121636,-0.00006
 346,0.00002490,-0.00013326,0.00010952,-0.00015241,0.00000286,-0.000039
 63,0.00018003,0.00005491,0.00000434,0.00000051,-0.00000983,-0.00000603
 ,0.00000451,0.00000020,-0.00001012,-0.00000199,0.00004625,0.00000553,0
 .00001420,-0.00005288,0.04181438,0.06187526,0.02606248\\-0.00002429,0.
 00004454,0.00000414,0.00001662,-0.00000321,-0.00003149,-0.00005738,-0.
 00005980,0.00011437,0.00002003,0.00006343,-0.00003386,0.00001382,-0.00
 003468,-0.00003499,0.00000162,0.00000320,-0.00000581,0.00004181,0.0000
 6050,0.00001456,-0.00000620,-0.00007849,-0.00001924,-0.00002737,0.0000
 1355,0.00000888,0.00008235,0.00002678,0.00000382,0.00000801,0.00001722
 ,-0.00004107,0.00002532,-0.00001719,0.00001408,-0.00007550,0.00006379,
 0.00002192,-0.00003642,-0.00008174,-0.00001250,0.00001411,0.00000317,0
 .00000066,-0.00000204,-0.00001947,0.00000648,0.00000090,-0.00001365,-0
 .00000742,-0.00002071,0.00000426,0.00000052,-0.00000642,-0.00001056,-0
 .00000161,0.00000004,0.00000340,-0.00000174,-0.00001266,0.00000696,0.0
 0000123,0.00004438,0.00000798,-0.00000094\\\@


 REALITY IS FOR PEOPLE WHO CAN'T FACE SCIENCE FICTION.
 Job cpu time:       0 days  3 hours  4 minutes 10.1 seconds.
 Elapsed time:       0 days  0 hours 23 minutes 33.2 seconds.
 File lengths (MBytes):  RWF=    624 Int=      0 D2E=      0 Chk=     23 Scr=      1
 Normal termination of Gaussian 16 at Sun Feb 11 00:57:20 2024.
