 Entering Gaussian System, Link 0=g16
 Input=136.com
 Output=136.log
 Initial command:
 /sysapps/ubuntu-applications/gaussian/Gaussian/AVX2/g16/l1.exe "/scratch/selhajj1/4234637/Gau-1310250.inp" -scrdir="/scratch/selhajj1/4234637/"
 Entering Link 1 = /sysapps/ubuntu-applications/gaussian/Gaussian/AVX2/g16/l1.exe PID=   1310253.
  
 Copyright (c) 1988,1990,1992,1993,1995,1998,2003,2009,2016,
            Gaussian, Inc.  All Rights Reserved.
  
 This is part of the Gaussian(R) 16 program.  It is based on
 the Gaussian(R) 09 system (copyright 2009, Gaussian, Inc.),
 the Gaussian(R) 03 system (copyright 2003, Gaussian, Inc.),
 the Gaussian(R) 98 system (copyright 1998, Gaussian, Inc.),
 the Gaussian(R) 94 system (copyright 1995, Gaussian, Inc.),
 the Gaussian 92(TM) system (copyright 1992, Gaussian, Inc.),
 the Gaussian 90(TM) system (copyright 1990, Gaussian, Inc.),
 the Gaussian 88(TM) system (copyright 1988, Gaussian, Inc.),
 the Gaussian 86(TM) system (copyright 1986, Carnegie Mellon
 University), and the Gaussian 82(TM) system (copyright 1983,
 Carnegie Mellon University). Gaussian is a federally registered
 trademark of Gaussian, Inc.
  
 This software contains proprietary and confidential information,
 including trade secrets, belonging to Gaussian, Inc.
  
 This software is provided under written license and may be
 used, copied, transmitted, or stored only in accord with that
 written license.
  
 The following legend is applicable only to US Government
 contracts under FAR:
  
                    RESTRICTED RIGHTS LEGEND
  
 Use, reproduction and disclosure by the US Government is
 subject to restrictions as set forth in subparagraphs (a)
 and (c) of the Commercial Computer Software - Restricted
 Rights clause in FAR 52.227-19.
  
 Gaussian, Inc.
 340 Quinnipiac St., Bldg. 40, Wallingford CT 06492
  
  
 ---------------------------------------------------------------
 Warning -- This program may not be used in any manner that
 competes with the business of Gaussian, Inc. or will provide
 assistance to any competitor of Gaussian, Inc.  The licensee
 of this program is prohibited from giving any competitor of
 Gaussian, Inc. access to this program.  By using this program,
 the user acknowledges that Gaussian, Inc. is engaged in the
 business of creating and licensing software in the field of
 computational chemistry and represents and warrants to the
 licensee that it is not a competitor of Gaussian, Inc. and that
 it will not use this program in any manner prohibited above.
 ---------------------------------------------------------------
  

 Cite this work as:
 Gaussian 16, Revision A.03,
 M. J. Frisch, G. W. Trucks, H. B. Schlegel, G. E. Scuseria, 
 M. A. Robb, J. R. Cheeseman, G. Scalmani, V. Barone, 
 G. A. Petersson, H. Nakatsuji, X. Li, M. Caricato, A. V. Marenich, 
 J. Bloino, B. G. Janesko, R. Gomperts, B. Mennucci, H. P. Hratchian, 
 J. V. Ortiz, A. F. Izmaylov, J. L. Sonnenberg, D. Williams-Young, 
 F. Ding, F. Lipparini, F. Egidi, J. Goings, B. Peng, A. Petrone, 
 T. Henderson, D. Ranasinghe, V. G. Zakrzewski, J. Gao, N. Rega, 
 G. Zheng, W. Liang, M. Hada, M. Ehara, K. Toyota, R. Fukuda, 
 J. Hasegawa, M. Ishida, T. Nakajima, Y. Honda, O. Kitao, H. Nakai, 
 T. Vreven, K. Throssell, J. A. Montgomery, Jr., J. E. Peralta, 
 F. Ogliaro, M. J. Bearpark, J. J. Heyd, E. N. Brothers, K. N. Kudin, 
 V. N. Staroverov, T. A. Keith, R. Kobayashi, J. Normand, 
 K. Raghavachari, A. P. Rendell, J. C. Burant, S. S. Iyengar, 
 J. Tomasi, M. Cossi, J. M. Millam, M. Klene, C. Adamo, R. Cammi, 
 J. W. Ochterski, R. L. Martin, K. Morokuma, O. Farkas, 
 J. B. Foresman, and D. J. Fox, Gaussian, Inc., Wallingford CT, 2016.
 
 ******************************************
 Gaussian 16:  ES64L-G16RevA.03 25-Dec-2016
                27-Dec-2023 
 ******************************************
 %chk=136.chk
 %nproc=8
 Will use up to    8 processors via shared memory.
 %mem=30GB
 --------------------------------------
 #P UB3LYP/6-311++G(d,p) nosym opt freq
 --------------------------------------
 1/18=20,19=15,26=3,38=1/1,3;
 2/9=110,12=2,15=1,17=6,18=5,40=1/2;
 3/5=4,6=6,7=1111,11=2,25=1,30=1,71=1,74=-5,116=2/1,2,3;
 4//1;
 5/5=2,38=5/2;
 6/7=2,8=2,9=2,10=2,28=1/1;
 7/30=1/1,2,3,16;
 1/18=20,19=15,26=3/3(2);
 2/9=110,15=1/2;
 99//99;
 2/9=110,15=1/2;
 3/5=4,6=6,7=1111,11=2,25=1,30=1,71=1,74=-5,116=2/1,2,3;
 4/5=5,16=3,69=1/1;
 5/5=2,38=5/2;
 7/30=1/1,2,3,16;
 1/18=20,19=15,26=3/3(-5);
 2/9=110,15=1/2;
 6/7=2,8=2,9=2,10=2,19=2,28=1/1;
 99/9=1/99;
 Leave Link    1 at Wed Dec 27 19:44:35 2023, MaxMem=  4026531840 cpu:               2.9 elap:               0.5
 (Enter /sysapps/ubuntu-applications/gaussian/Gaussian/AVX2/g16/l101.exe)
 --------
 Oxidized
 --------
 Symbolic Z-matrix:
 Charge =  0 Multiplicity = 1
 O                    -0.04955  -1.51221  -2.32177 
 C                    -0.02718  -0.83099  -1.30758 
 C                     1.25868  -0.45193  -0.65446 
 C                     2.44255  -0.88423  -1.21488 
 C                     3.69204  -0.55643  -0.64051 
 C                     4.92089  -0.99226  -1.20309 
 C                     6.11698  -0.65438  -0.61739 
 C                     6.14267   0.13501   0.5583 
 C                     4.9717    0.57314   1.1283 
 C                     3.71797   0.24243   0.5492 
 C                     2.49331   0.67508   1.10723 
 C                     1.28462   0.34411   0.53092 
 C                     0.02711   0.83114   1.16736 
 O                     0.04977   1.51227   2.18163 
 C                    -1.25877   0.45205   0.51435 
 C                    -2.44249   0.88427   1.07478 
 C                    -3.69212   0.55638   0.50039 
 C                    -4.92065   0.99213   1.06301 
 C                    -6.11711   0.65421   0.47734 
 C                    -6.14284  -0.13491  -0.69794 
 C                    -4.97171  -0.57308  -1.26813 
 C                    -3.71822  -0.24247  -0.68932 
 C                    -2.49328  -0.67503  -1.24733 
 C                    -1.28466  -0.34411  -0.67121 
 H                     2.39881  -1.48732  -2.11469 
 H                     4.89898  -1.59665  -2.10343 
 H                     7.04996  -0.99181  -1.05427 
 H                     7.09494   0.39259   1.00764 
 H                     4.98913   1.17772   2.02859 
 H                     2.48898   1.28022   2.00672 
 H                    -2.3988    1.48737   1.97461 
 H                    -4.89899   1.59652   1.96332 
 H                    -7.04974   0.99188   0.91471 
 H                    -7.09484  -0.39285  -1.14771 
 H                    -4.9893   -1.17766  -2.16844 
 H                    -2.48885  -1.28019  -2.14685 
 
 ITRead=  0  0  0  0  0  0  0  0  0  0  0  0  0  0  0  0  0  0  0  0
 ITRead=  0  0  0  0  0  0  0  0  0  0  0  0  0  0  0  0
 MicOpt= -1 -1 -1 -1 -1 -1 -1 -1 -1 -1 -1 -1 -1 -1 -1 -1 -1 -1 -1 -1
 MicOpt= -1 -1 -1 -1 -1 -1 -1 -1 -1 -1 -1 -1 -1 -1 -1 -1
 NAtoms=     36 NQM=       36 NQMF=       0 NMMI=      0 NMMIF=      0
                NMic=       0 NMicF=      0.
                    Isotopes and Nuclear Properties:
 (Nuclear quadrupole moments (NQMom) in fm**2, nuclear magnetic moments (NMagM)
  in nuclear magnetons)

  Atom         1           2           3           4           5           6           7           8           9          10
 IAtWgt=          16          12          12          12          12          12          12          12          12          12
 AtmWgt=  15.9949146  12.0000000  12.0000000  12.0000000  12.0000000  12.0000000  12.0000000  12.0000000  12.0000000  12.0000000
 NucSpn=           0           0           0           0           0           0           0           0           0           0
 AtZEff=  -0.0000000  -0.0000000  -0.0000000  -0.0000000  -0.0000000  -0.0000000  -0.0000000  -0.0000000  -0.0000000  -0.0000000
 NQMom=    0.0000000   0.0000000   0.0000000   0.0000000   0.0000000   0.0000000   0.0000000   0.0000000   0.0000000   0.0000000
 NMagM=    0.0000000   0.0000000   0.0000000   0.0000000   0.0000000   0.0000000   0.0000000   0.0000000   0.0000000   0.0000000
 AtZNuc=   8.0000000   6.0000000   6.0000000   6.0000000   6.0000000   6.0000000   6.0000000   6.0000000   6.0000000   6.0000000

  Atom        11          12          13          14          15          16          17          18          19          20
 IAtWgt=          12          12          12          16          12          12          12          12          12          12
 AtmWgt=  12.0000000  12.0000000  12.0000000  15.9949146  12.0000000  12.0000000  12.0000000  12.0000000  12.0000000  12.0000000
 NucSpn=           0           0           0           0           0           0           0           0           0           0
 AtZEff=  -0.0000000  -0.0000000  -0.0000000  -0.0000000  -0.0000000  -0.0000000  -0.0000000  -0.0000000  -0.0000000  -0.0000000
 NQMom=    0.0000000   0.0000000   0.0000000   0.0000000   0.0000000   0.0000000   0.0000000   0.0000000   0.0000000   0.0000000
 NMagM=    0.0000000   0.0000000   0.0000000   0.0000000   0.0000000   0.0000000   0.0000000   0.0000000   0.0000000   0.0000000
 AtZNuc=   6.0000000   6.0000000   6.0000000   8.0000000   6.0000000   6.0000000   6.0000000   6.0000000   6.0000000   6.0000000

  Atom        21          22          23          24          25          26          27          28          29          30
 IAtWgt=          12          12          12          12           1           1           1           1           1           1
 AtmWgt=  12.0000000  12.0000000  12.0000000  12.0000000   1.0078250   1.0078250   1.0078250   1.0078250   1.0078250   1.0078250
 NucSpn=           0           0           0           0           1           1           1           1           1           1
 AtZEff=  -0.0000000  -0.0000000  -0.0000000  -0.0000000  -0.0000000  -0.0000000  -0.0000000  -0.0000000  -0.0000000  -0.0000000
 NQMom=    0.0000000   0.0000000   0.0000000   0.0000000   0.0000000   0.0000000   0.0000000   0.0000000   0.0000000   0.0000000
 NMagM=    0.0000000   0.0000000   0.0000000   0.0000000   2.7928460   2.7928460   2.7928460   2.7928460   2.7928460   2.7928460
 AtZNuc=   6.0000000   6.0000000   6.0000000   6.0000000   1.0000000   1.0000000   1.0000000   1.0000000   1.0000000   1.0000000

  Atom        31          32          33          34          35          36
 IAtWgt=           1           1           1           1           1           1
 AtmWgt=   1.0078250   1.0078250   1.0078250   1.0078250   1.0078250   1.0078250
 NucSpn=           1           1           1           1           1           1
 AtZEff=  -0.0000000  -0.0000000  -0.0000000  -0.0000000  -0.0000000  -0.0000000
 NQMom=    0.0000000   0.0000000   0.0000000   0.0000000   0.0000000   0.0000000
 NMagM=    2.7928460   2.7928460   2.7928460   2.7928460   2.7928460   2.7928460
 AtZNuc=   1.0000000   1.0000000   1.0000000   1.0000000   1.0000000   1.0000000
 Leave Link  101 at Wed Dec 27 19:44:36 2023, MaxMem=  4026531840 cpu:               7.1 elap:               1.1
 (Enter /sysapps/ubuntu-applications/gaussian/Gaussian/AVX2/g16/l103.exe)

 GradGradGradGradGradGradGradGradGradGradGradGradGradGradGradGradGradGrad
 Berny optimization.
 Initialization pass.
                           ----------------------------
                           !    Initial Parameters    !
                           ! (Angstroms and Degrees)  !
 --------------------------                            --------------------------
 ! Name  Definition              Value          Derivative Info.                !
 --------------------------------------------------------------------------------
 ! R1    R(1,2)                  1.2219         estimate D2E/DX2                !
 ! R2    R(2,3)                  1.4912         estimate D2E/DX2                !
 ! R3    R(2,24)                 1.4911         estimate D2E/DX2                !
 ! R4    R(3,4)                  1.3793         estimate D2E/DX2                !
 ! R5    R(3,12)                 1.4281         estimate D2E/DX2                !
 ! R6    R(4,5)                  1.4137         estimate D2E/DX2                !
 ! R7    R(4,25)                 1.0841         estimate D2E/DX2                !
 ! R8    R(5,6)                  1.42           estimate D2E/DX2                !
 ! R9    R(5,10)                 1.4333         estimate D2E/DX2                !
 ! R10   R(6,7)                  1.374          estimate D2E/DX2                !
 ! R11   R(6,26)                 1.0846         estimate D2E/DX2                !
 ! R12   R(7,8)                  1.4164         estimate D2E/DX2                !
 ! R13   R(7,27)                 1.0841         estimate D2E/DX2                !
 ! R14   R(8,9)                  1.3741         estimate D2E/DX2                !
 ! R15   R(8,28)                 1.084          estimate D2E/DX2                !
 ! R16   R(9,10)                 1.4201         estimate D2E/DX2                !
 ! R17   R(9,29)                 1.0846         estimate D2E/DX2                !
 ! R18   R(10,11)                1.4136         estimate D2E/DX2                !
 ! R19   R(11,12)                1.3793         estimate D2E/DX2                !
 ! R20   R(11,30)                1.0841         estimate D2E/DX2                !
 ! R21   R(12,13)                1.4912         estimate D2E/DX2                !
 ! R22   R(13,14)                1.222          estimate D2E/DX2                !
 ! R23   R(13,15)                1.4912         estimate D2E/DX2                !
 ! R24   R(15,16)                1.3792         estimate D2E/DX2                !
 ! R25   R(15,24)                1.4283         estimate D2E/DX2                !
 ! R26   R(16,17)                1.4139         estimate D2E/DX2                !
 ! R27   R(16,31)                1.0841         estimate D2E/DX2                !
 ! R28   R(17,18)                1.4198         estimate D2E/DX2                !
 ! R29   R(17,22)                1.4333         estimate D2E/DX2                !
 ! R30   R(18,19)                1.3743         estimate D2E/DX2                !
 ! R31   R(18,32)                1.0846         estimate D2E/DX2                !
 ! R32   R(19,20)                1.4159         estimate D2E/DX2                !
 ! R33   R(19,33)                1.084          estimate D2E/DX2                !
 ! R34   R(20,21)                1.3743         estimate D2E/DX2                !
 ! R35   R(20,34)                1.084          estimate D2E/DX2                !
 ! R36   R(21,22)                1.4197         estimate D2E/DX2                !
 ! R37   R(21,35)                1.0846         estimate D2E/DX2                !
 ! R38   R(22,23)                1.4138         estimate D2E/DX2                !
 ! R39   R(23,24)                1.3792         estimate D2E/DX2                !
 ! R40   R(23,36)                1.0841         estimate D2E/DX2                !
 ! A1    A(1,2,3)              121.3998         estimate D2E/DX2                !
 ! A2    A(1,2,24)             121.3879         estimate D2E/DX2                !
 ! A3    A(3,2,24)             117.2122         estimate D2E/DX2                !
 ! A4    A(2,3,4)              118.8487         estimate D2E/DX2                !
 ! A5    A(2,3,12)             121.3922         estimate D2E/DX2                !
 ! A6    A(4,3,12)             119.7591         estimate D2E/DX2                !
 ! A7    A(3,4,5)              121.3897         estimate D2E/DX2                !
 ! A8    A(3,4,25)             118.4865         estimate D2E/DX2                !
 ! A9    A(5,4,25)             120.1238         estimate D2E/DX2                !
 ! A10   A(4,5,6)              122.1889         estimate D2E/DX2                !
 ! A11   A(4,5,10)             118.8471         estimate D2E/DX2                !
 ! A12   A(6,5,10)             118.964          estimate D2E/DX2                !
 ! A13   A(5,6,7)              120.5949         estimate D2E/DX2                !
 ! A14   A(5,6,26)             118.8427         estimate D2E/DX2                !
 ! A15   A(7,6,26)             120.5624         estimate D2E/DX2                !
 ! A16   A(6,7,8)              120.4439         estimate D2E/DX2                !
 ! A17   A(6,7,27)             120.0578         estimate D2E/DX2                !
 ! A18   A(8,7,27)             119.4983         estimate D2E/DX2                !
 ! A19   A(7,8,9)              120.4376         estimate D2E/DX2                !
 ! A20   A(7,8,28)             119.502          estimate D2E/DX2                !
 ! A21   A(9,8,28)             120.0604         estimate D2E/DX2                !
 ! A22   A(8,9,10)             120.5946         estimate D2E/DX2                !
 ! A23   A(8,9,29)             120.5566         estimate D2E/DX2                !
 ! A24   A(10,9,29)            118.8488         estimate D2E/DX2                !
 ! A25   A(5,10,9)             118.965          estimate D2E/DX2                !
 ! A26   A(5,10,11)            118.854          estimate D2E/DX2                !
 ! A27   A(9,10,11)            122.181          estimate D2E/DX2                !
 ! A28   A(10,11,12)           121.3837         estimate D2E/DX2                !
 ! A29   A(10,11,30)           120.1201         estimate D2E/DX2                !
 ! A30   A(12,11,30)           118.4962         estimate D2E/DX2                !
 ! A31   A(3,12,11)            119.7665         estimate D2E/DX2                !
 ! A32   A(3,12,13)            121.3993         estimate D2E/DX2                !
 ! A33   A(11,12,13)           118.8342         estimate D2E/DX2                !
 ! A34   A(12,13,14)           121.3774         estimate D2E/DX2                !
 ! A35   A(12,13,15)           117.211          estimate D2E/DX2                !
 ! A36   A(14,13,15)           121.4116         estimate D2E/DX2                !
 ! A37   A(13,15,16)           118.849          estimate D2E/DX2                !
 ! A38   A(13,15,24)           121.3873         estimate D2E/DX2                !
 ! A39   A(16,15,24)           119.7636         estimate D2E/DX2                !
 ! A40   A(15,16,17)           121.3877         estimate D2E/DX2                !
 ! A41   A(15,16,31)           118.4913         estimate D2E/DX2                !
 ! A42   A(17,16,31)           120.1211         estimate D2E/DX2                !
 ! A43   A(16,17,18)           122.1832         estimate D2E/DX2                !
 ! A44   A(16,17,22)           118.854          estimate D2E/DX2                !
 ! A45   A(18,17,22)           118.9628         estimate D2E/DX2                !
 ! A46   A(17,18,19)           120.5969         estimate D2E/DX2                !
 ! A47   A(17,18,32)           118.862          estimate D2E/DX2                !
 ! A48   A(19,18,32)           120.541          estimate D2E/DX2                !
 ! A49   A(18,19,20)           120.4379         estimate D2E/DX2                !
 ! A50   A(18,19,33)           120.0314         estimate D2E/DX2                !
 ! A51   A(20,19,33)           119.5308         estimate D2E/DX2                !
 ! A52   A(19,20,21)           120.4385         estimate D2E/DX2                !
 ! A53   A(19,20,34)           119.5367         estimate D2E/DX2                !
 ! A54   A(21,20,34)           120.0247         estimate D2E/DX2                !
 ! A55   A(20,21,22)           120.598          estimate D2E/DX2                !
 ! A56   A(20,21,35)           120.5507         estimate D2E/DX2                !
 ! A57   A(22,21,35)           118.8513         estimate D2E/DX2                !
 ! A58   A(17,22,21)           118.9659         estimate D2E/DX2                !
 ! A59   A(17,22,23)           118.8391         estimate D2E/DX2                !
 ! A60   A(21,22,23)           122.195          estimate D2E/DX2                !
 ! A61   A(22,23,24)           121.3966         estimate D2E/DX2                !
 ! A62   A(22,23,36)           120.118          estimate D2E/DX2                !
 ! A63   A(24,23,36)           118.4854         estimate D2E/DX2                !
 ! A64   A(2,24,15)            121.3979         estimate D2E/DX2                !
 ! A65   A(2,24,23)            118.8431         estimate D2E/DX2                !
 ! A66   A(15,24,23)           119.759          estimate D2E/DX2                !
 ! D1    D(1,2,3,4)              0.0091         estimate D2E/DX2                !
 ! D2    D(1,2,3,12)          -179.9934         estimate D2E/DX2                !
 ! D3    D(24,2,3,4)          -179.9976         estimate D2E/DX2                !
 ! D4    D(24,2,3,12)            0.0            estimate D2E/DX2                !
 ! D5    D(1,2,24,15)          179.9933         estimate D2E/DX2                !
 ! D6    D(1,2,24,23)           -0.0053         estimate D2E/DX2                !
 ! D7    D(3,2,24,15)            0.0            estimate D2E/DX2                !
 ! D8    D(3,2,24,23)         -179.9987         estimate D2E/DX2                !
 ! D9    D(2,3,4,5)           -179.9997         estimate D2E/DX2                !
 ! D10   D(2,3,4,25)             0.0002         estimate D2E/DX2                !
 ! D11   D(12,3,4,5)             0.0026         estimate D2E/DX2                !
 ! D12   D(12,3,4,25)         -179.9974         estimate D2E/DX2                !
 ! D13   D(2,3,12,11)          179.9981         estimate D2E/DX2                !
 ! D14   D(2,3,12,13)           -0.0036         estimate D2E/DX2                !
 ! D15   D(4,3,12,11)           -0.0043         estimate D2E/DX2                !
 ! D16   D(4,3,12,13)          179.994          estimate D2E/DX2                !
 ! D17   D(3,4,5,6)           -179.9989         estimate D2E/DX2                !
 ! D18   D(3,4,5,10)             0.0008         estimate D2E/DX2                !
 ! D19   D(25,4,5,6)             0.0011         estimate D2E/DX2                !
 ! D20   D(25,4,5,10)         -179.9991         estimate D2E/DX2                !
 ! D21   D(4,5,6,7)           -179.9984         estimate D2E/DX2                !
 ! D22   D(4,5,6,26)             0.0024         estimate D2E/DX2                !
 ! D23   D(10,5,6,7)             0.0018         estimate D2E/DX2                !
 ! D24   D(10,5,6,26)         -179.9973         estimate D2E/DX2                !
 ! D25   D(4,5,10,9)           179.9972         estimate D2E/DX2                !
 ! D26   D(4,5,10,11)           -0.0027         estimate D2E/DX2                !
 ! D27   D(6,5,10,9)            -0.003          estimate D2E/DX2                !
 ! D28   D(6,5,10,11)          179.9971         estimate D2E/DX2                !
 ! D29   D(5,6,7,8)              0.0001         estimate D2E/DX2                !
 ! D30   D(5,6,7,27)          -179.9989         estimate D2E/DX2                !
 ! D31   D(26,6,7,8)           179.9992         estimate D2E/DX2                !
 ! D32   D(26,6,7,27)            0.0002         estimate D2E/DX2                !
 ! D33   D(6,7,8,9)             -0.0009         estimate D2E/DX2                !
 ! D34   D(6,7,8,28)           179.9995         estimate D2E/DX2                !
 ! D35   D(27,7,8,9)           179.9982         estimate D2E/DX2                !
 ! D36   D(27,7,8,28)           -0.0014         estimate D2E/DX2                !
 ! D37   D(7,8,9,10)            -0.0004         estimate D2E/DX2                !
 ! D38   D(7,8,9,29)           179.9996         estimate D2E/DX2                !
 ! D39   D(28,8,9,10)          179.9992         estimate D2E/DX2                !
 ! D40   D(28,8,9,29)           -0.0008         estimate D2E/DX2                !
 ! D41   D(8,9,10,5)             0.0024         estimate D2E/DX2                !
 ! D42   D(8,9,10,11)         -179.9978         estimate D2E/DX2                !
 ! D43   D(29,9,10,5)         -179.9976         estimate D2E/DX2                !
 ! D44   D(29,9,10,11)           0.0022         estimate D2E/DX2                !
 ! D45   D(5,10,11,12)           0.001          estimate D2E/DX2                !
 ! D46   D(5,10,11,30)        -179.9983         estimate D2E/DX2                !
 ! D47   D(9,10,11,12)        -179.9989         estimate D2E/DX2                !
 ! D48   D(9,10,11,30)           0.0018         estimate D2E/DX2                !
 ! D49   D(10,11,12,3)           0.0025         estimate D2E/DX2                !
 ! D50   D(10,11,12,13)       -179.9959         estimate D2E/DX2                !
 ! D51   D(30,11,12,3)        -179.9982         estimate D2E/DX2                !
 ! D52   D(30,11,12,13)          0.0034         estimate D2E/DX2                !
 ! D53   D(3,12,13,14)        -179.999          estimate D2E/DX2                !
 ! D54   D(3,12,13,15)           0.0068         estimate D2E/DX2                !
 ! D55   D(11,12,13,14)         -0.0007         estimate D2E/DX2                !
 ! D56   D(11,12,13,15)       -179.9949         estimate D2E/DX2                !
 ! D57   D(12,13,15,16)        179.991          estimate D2E/DX2                !
 ! D58   D(12,13,15,24)         -0.0068         estimate D2E/DX2                !
 ! D59   D(14,13,15,16)         -0.0031         estimate D2E/DX2                !
 ! D60   D(14,13,15,24)        179.999          estimate D2E/DX2                !
 ! D61   D(13,15,16,17)        179.9994         estimate D2E/DX2                !
 ! D62   D(13,15,16,31)         -0.0003         estimate D2E/DX2                !
 ! D63   D(24,15,16,17)         -0.0027         estimate D2E/DX2                !
 ! D64   D(24,15,16,31)        179.9976         estimate D2E/DX2                !
 ! D65   D(13,15,24,2)           0.0036         estimate D2E/DX2                !
 ! D66   D(13,15,24,23)       -179.9978         estimate D2E/DX2                !
 ! D67   D(16,15,24,2)        -179.9942         estimate D2E/DX2                !
 ! D68   D(16,15,24,23)          0.0044         estimate D2E/DX2                !
 ! D69   D(15,16,17,18)        179.9989         estimate D2E/DX2                !
 ! D70   D(15,16,17,22)         -0.0009         estimate D2E/DX2                !
 ! D71   D(31,16,17,18)         -0.0014         estimate D2E/DX2                !
 ! D72   D(31,16,17,22)        179.9988         estimate D2E/DX2                !
 ! D73   D(16,17,18,19)        179.9985         estimate D2E/DX2                !
 ! D74   D(16,17,18,32)         -0.0023         estimate D2E/DX2                !
 ! D75   D(22,17,18,19)         -0.0018         estimate D2E/DX2                !
 ! D76   D(22,17,18,32)        179.9974         estimate D2E/DX2                !
 ! D77   D(16,17,22,21)       -179.9972         estimate D2E/DX2                !
 ! D78   D(16,17,22,23)          0.0028         estimate D2E/DX2                !
 ! D79   D(18,17,22,21)          0.003          estimate D2E/DX2                !
 ! D80   D(18,17,22,23)       -179.997          estimate D2E/DX2                !
 ! D81   D(17,18,19,20)         -0.0002         estimate D2E/DX2                !
 ! D82   D(17,18,19,33)        179.9989         estimate D2E/DX2                !
 ! D83   D(32,18,19,20)       -179.9993         estimate D2E/DX2                !
 ! D84   D(32,18,19,33)         -0.0003         estimate D2E/DX2                !
 ! D85   D(18,19,20,21)          0.0009         estimate D2E/DX2                !
 ! D86   D(18,19,20,34)       -179.9995         estimate D2E/DX2                !
 ! D87   D(33,19,20,21)       -179.9982         estimate D2E/DX2                !
 ! D88   D(33,19,20,34)          0.0014         estimate D2E/DX2                !
 ! D89   D(19,20,21,22)          0.0004         estimate D2E/DX2                !
 ! D90   D(19,20,21,35)       -179.9995         estimate D2E/DX2                !
 ! D91   D(34,20,21,22)       -179.9992         estimate D2E/DX2                !
 ! D92   D(34,20,21,35)          0.0009         estimate D2E/DX2                !
 ! D93   D(20,21,22,17)         -0.0024         estimate D2E/DX2                !
 ! D94   D(20,21,22,23)        179.9976         estimate D2E/DX2                !
 ! D95   D(35,21,22,17)        179.9976         estimate D2E/DX2                !
 ! D96   D(35,21,22,23)         -0.0024         estimate D2E/DX2                !
 ! D97   D(17,22,23,24)         -0.0011         estimate D2E/DX2                !
 ! D98   D(17,22,23,36)        179.9985         estimate D2E/DX2                !
 ! D99   D(21,22,23,24)        179.9989         estimate D2E/DX2                !
 ! D100  D(21,22,23,36)         -0.0015         estimate D2E/DX2                !
 ! D101  D(22,23,24,2)         179.9962         estimate D2E/DX2                !
 ! D102  D(22,23,24,15)         -0.0025         estimate D2E/DX2                !
 ! D103  D(36,23,24,2)          -0.0034         estimate D2E/DX2                !
 ! D104  D(36,23,24,15)        179.9979         estimate D2E/DX2                !
 --------------------------------------------------------------------------------
 Trust Radius=3.00D-01 FncErr=1.00D-07 GrdErr=1.00D-06 EigMax=2.50D+02 EigMin=1.00D-04
 Number of steps in this run=    216 maximum allowed number of steps=    216.
 GradGradGradGradGradGradGradGradGradGradGradGradGradGradGradGradGradGrad

 Leave Link  103 at Wed Dec 27 19:44:37 2023, MaxMem=  4026531840 cpu:               1.3 elap:               0.4
 (Enter /sysapps/ubuntu-applications/gaussian/Gaussian/AVX2/g16/l202.exe)
                          Input orientation:                          
 ---------------------------------------------------------------------
 Center     Atomic      Atomic             Coordinates (Angstroms)
 Number     Number       Type             X           Y           Z
 ---------------------------------------------------------------------
      1          8           0       -0.049546   -1.512209   -2.321771
      2          6           0       -0.027182   -0.830990   -1.307575
      3          6           0        1.258680   -0.451933   -0.654462
      4          6           0        2.442553   -0.884226   -1.214879
      5          6           0        3.692039   -0.556428   -0.640507
      6          6           0        4.920892   -0.992258   -1.203094
      7          6           0        6.116981   -0.654381   -0.617392
      8          6           0        6.142672    0.135013    0.558299
      9          6           0        4.971704    0.573137    1.128300
     10          6           0        3.717968    0.242429    0.549197
     11          6           0        2.493307    0.675075    1.107229
     12          6           0        1.284622    0.344109    0.530922
     13          6           0        0.027108    0.831137    1.167361
     14          8           0        0.049773    1.512269    2.181634
     15          6           0       -1.258771    0.452053    0.514348
     16          6           0       -2.442491    0.884266    1.074781
     17          6           0       -3.692117    0.556377    0.500389
     18          6           0       -4.920649    0.992126    1.063008
     19          6           0       -6.117110    0.654211    0.477344
     20          6           0       -6.142839   -0.134906   -0.697943
     21          6           0       -4.971712   -0.573075   -1.268125
     22          6           0       -3.718223   -0.242472   -0.689321
     23          6           0       -2.493282   -0.675034   -1.247334
     24          6           0       -1.284658   -0.344108   -0.671210
     25          1           0        2.398812   -1.487315   -2.114689
     26          1           0        4.898977   -1.596652   -2.103432
     27          1           0        7.049959   -0.991808   -1.054270
     28          1           0        7.094938    0.392593    1.007636
     29          1           0        4.989126    1.177716    2.028591
     30          1           0        2.488983    1.280216    2.006721
     31          1           0       -2.398797    1.487373    1.974607
     32          1           0       -4.898989    1.596516    1.963323
     33          1           0       -7.049735    0.991884    0.914713
     34          1           0       -7.094844   -0.392854   -1.147713
     35          1           0       -4.989299   -1.177661   -2.168444
     36          1           0       -2.488849   -1.280187   -2.146847
 ---------------------------------------------------------------------
                    Distance matrix (angstroms):
                    1          2          3          4          5
     1  O    0.000000
     2  C    1.221946   0.000000
     3  C    2.369717   1.491201   0.000000
     4  C    2.798237   2.472047   1.379311   0.000000
     5  C    4.211843   3.788531   2.435642   1.413708   0.000000
     6  C    5.121234   4.951804   3.742291   2.480720   1.420046
     7  C    6.454985   6.185328   4.862659   3.729778   2.427030
     8  C    7.025077   6.517802   5.066426   4.227752   2.814397
     9  C    6.439302   5.735322   4.244474   3.743127   2.458076
    10  C    5.051274   4.315783   2.824718   2.451122   1.433262
    11  C    4.796702   3.801628   2.428581   2.797531   2.451151
    12  C    3.655650   2.545930   1.428108   2.428463   2.824689
    13  C    4.203711   2.981765   2.545992   3.801567   4.315720
    14  O    5.425679   4.203732   3.655542   4.796341   5.050751
    15  C    3.655697   2.546059   2.919052   4.298333   5.182783
    16  C    4.796441   3.801505   4.298183   5.677478   6.530717
    17  C    5.050936   4.315700   5.182737   6.530824   7.554187
    18  C    6.438639   5.734931   6.574125   7.932604   8.915065
    19  C    7.024511   6.517590   7.543661   8.859923   9.946589
    20  C    6.454611   6.185260   7.408433   8.633520   9.844075
    21  C    5.120533   4.951409   6.261712   7.420982   8.686470
    22  C    4.211451   3.788453   4.981431   6.216367   7.417070
    23  C    2.797699   2.471761   3.805061   4.940373   6.216149
    24  C    2.369454   1.491060   2.545678   3.805181   4.981319
    25  H    2.457226   2.639629   2.122305   1.084107   2.170760
    26  H    4.954057   5.048432   4.081869   2.707600   2.163080
    27  H    7.230515   7.083498   5.830114   4.611460   3.411214
    28  H    8.109061   7.588277   6.126802   5.311735   3.898299
    29  H    7.179802   6.350453   4.875526   4.610503   3.437117
    30  H    5.742614   4.666137   3.405272   3.881452   3.439247
    31  H    5.742416   4.666057   4.904085   6.263862   6.936442
    32  H    7.179366   6.350281   6.997559   8.375756   9.231515
    33  H    8.108511   7.587996   8.577685   9.907496  10.963653
    34  H    7.229633   7.083034   8.368282   9.550283  10.800040
    35  H    4.953442   5.048156   6.469626   7.498521   8.836637
    36  H    2.456549   2.639310   4.117911   5.034290   6.402832
                    6          7          8          9         10
     6  C    0.000000
     7  C    1.373986   0.000000
     8  C    2.421981   1.416352   0.000000
     9  C    2.808637   2.421962   1.374052   0.000000
    10  C    2.458048   2.814331   2.427099   1.420064   0.000000
    11  C    3.743095   4.227622   3.729726   2.480582   1.413640
    12  C    4.244425   5.066291   4.862625   3.742177   2.435538
    13  C    5.735237   6.517566   6.185117   4.951476   3.788291
    14  O    6.438699   7.024239   6.454105   5.120243   4.211057
    15  C    6.574487   7.543656   7.408360   6.261822   4.981274
    16  C    7.932809   8.859766   8.633259   7.420913   6.216064
    17  C    8.915383   9.946546   9.843982   8.686561   7.416893
    18  C   10.292178  11.285566  11.107945   9.901437   8.686297
    19  C   11.285930  12.352483  12.271038  11.108200   9.843957
    20  C   11.108392  12.271085  12.352521  11.285812   9.946520
    21  C    9.901695  11.108068  11.285688  10.292141   8.915057
    22  C    8.686797   9.844089   9.946673   8.915368   7.554204
    23  C    7.421089   8.633301   8.859807   7.932691   6.530612
    24  C    6.261937   7.408335   7.543638   6.574317   5.182633
    25  H    2.727082   4.093954   4.877838   4.624091   3.439255
    26  H    1.084611   2.140029   3.410316   3.893246   3.437069
    27  H    2.134262   1.084051   2.166397   3.395852   3.898283
    28  H    3.395823   2.166396   1.084003   2.134310   3.411252
    29  H    3.893229   3.410258   2.140013   1.084594   2.163148
    30  H    4.623984   4.877602   4.093759   2.726809   2.170664
    31  H    8.356088   9.155547   8.763076   7.475048   6.402850
    32  H   10.637575  11.535953  11.226235   9.958672   8.836586
    33  H   12.317379  13.357393  13.225009  12.030626  10.799940
    34  H   12.030805  13.225050  13.357431  12.317262  10.963576
    35  H    9.958823  11.226266  11.535988  10.637452   9.231399
    36  H    7.475148   8.763057   9.155532   8.355911   6.936252
                   11         12         13         14         15
    11  C    0.000000
    12  C    1.379343   0.000000
    13  C    2.471863   1.491171   0.000000
    14  O    2.797516   2.369451   1.221967   0.000000
    15  C    3.805172   2.545737   1.491179   2.369850   0.000000
    16  C    4.940336   3.805118   2.471905   2.798373   1.379161
    17  C    6.216254   4.981357   3.788533   4.212132   2.435621
    18  C    7.420864   6.261663   4.951475   5.121227   3.741932
    19  C    8.633451   7.408419   6.185373   6.455332   4.862684
    20  C    8.859895   7.543656   6.517733   7.025211   5.066388
    21  C    7.932635   6.574155   5.735120   6.439317   4.244294
    22  C    6.530895   5.182811   4.315948   5.051662   2.824905
    23  C    5.677397   4.298070   3.801535   4.796795   2.428552
    24  C    4.298209   2.918898   2.546031   3.655894   1.428317
    25  H    3.881445   3.405112   4.666053   5.742289   4.904171
    26  H    4.610459   4.875442   6.350382   7.179273   6.997701
    27  H    5.311653   6.126714   7.588097   8.108272   8.577896
    28  H    4.611369   5.830041   7.083223   7.229543   8.368472
    29  H    2.707521   4.081821   5.048114   4.953035   6.469601
    30  H    1.084113   2.122443   2.639512   2.456459   4.118093
    31  H    5.034367   4.118113   2.639566   2.457433   2.122240
    32  H    7.498533   6.469725   5.048345   4.954291   4.081729
    33  H    9.550240   8.368298   7.083176   7.230415   5.829835
    34  H    9.907466   8.577668   7.588144   8.109229   6.126668
    35  H    8.375682   6.997460   6.350370   7.179913   4.875467
    36  H    6.263700   4.903863   4.666016   5.742661   3.405247
                   16         17         18         19         20
    16  C    0.000000
    17  C    1.413861   0.000000
    18  C    2.480532   1.419756   0.000000
    19  C    3.729971   2.427075   1.374303   0.000000
    20  C    4.227746   2.814233   2.421755   1.415863   0.000000
    21  C    3.742995   2.457777   2.808317   2.421741   1.374277
    22  C    2.451344   1.433266   2.457787   2.814215   2.427016
    23  C    2.797537   2.451145   3.742888   4.227710   3.729991
    24  C    2.428573   2.824779   4.244227   5.066400   4.862757
    25  H    6.263811   6.936478   8.355830   9.155637   8.763332
    26  H    8.375747   9.231593  10.637348  11.536072  11.226478
    27  H    9.907528  10.963851  12.317237  13.357654  13.225399
    28  H    9.550330  10.800217  12.030662  13.225274  13.357619
    29  H    7.498320   8.836597   9.958435  11.226260  11.535927
    30  H    5.034354   6.403044   7.475041   8.763316   9.155661
    31  H    1.084128   2.170887   2.726907   4.094119   4.877721
    32  H    2.707617   2.163008   1.084584   2.140068   3.409886
    33  H    4.611280   3.411001   2.134244   1.084022   2.166281
    34  H    5.311770   3.898183   3.395965   2.166361   1.084040
    35  H    4.610454   3.436894   3.892939   3.409972   2.140179
    36  H    3.881481   3.439285   4.623876   4.877761   4.094220
                   21         22         23         24         25
    21  C    0.000000
    22  C    1.419700   0.000000
    23  C    2.480613   1.413849   0.000000
    24  C    3.742072   2.435754   1.379204   0.000000
    25  H    7.475101   6.403079   5.034351   4.118071   0.000000
    26  H    9.958712   8.836835   7.498518   6.469735   2.502580
    27  H   12.030862  10.800391   9.550449   8.368518   4.796163
    28  H   12.317290  10.963915   9.907506   8.577813   5.944457
    29  H   10.637288   9.231571   8.375607   6.997517   5.565868
    30  H    8.355913   6.936615   6.263772   4.904091   4.965217
    31  H    4.623921   3.439442   3.881473   3.405286   6.970521
    32  H    3.892900   3.436947   4.610389   4.875467   8.910561
    33  H    3.395888   3.898145   5.311716   6.126674  10.227353
    34  H    2.134167   3.410910   4.611282   5.829896   9.605331
    35  H    1.084623   2.162873   2.707615   4.081775   7.394793
    36  H    2.727044   2.170851   1.084137   2.122222   4.892154
                   26         27         28         29         30
    26  H    0.000000
    27  H    2.468461   0.000000
    28  H    4.296287   2.483958   0.000000
    29  H    4.977837   4.296266   2.468443   0.000000
    30  H    5.565770   5.944263   4.795922   2.502339   0.000000
    31  H    8.910618  10.227386   9.605445   7.394607   4.892273
    32  H   11.078581  12.592960  12.092024   9.897195   7.394867
    33  H   12.592912  14.374049  14.157668  12.091709   9.605350
    34  H   12.091909  14.157787  14.374017  12.592773  10.227383
    35  H    9.897362  12.092132  12.592933  11.078442   8.910548
    36  H    7.394728   9.605506  10.227313   8.910425   6.970409
                   31         32         33         34         35
    31  H    0.000000
    32  H    2.502599   0.000000
    33  H    4.795843   2.467969   0.000000
    34  H    5.944493   4.296268   2.484579   0.000000
    35  H    5.565786   4.977521   4.296298   2.468022   0.000000
    36  H    4.965267   5.565761   5.944505   4.795917   2.502644
                   36
    36  H    0.000000
 Symmetry turned off by external request.
 Stoichiometry    C22H12O2
 Framework group  C1[X(C22H12O2)]
 Deg. of freedom   102
 Full point group                 C1      NOp   1
 Rotational constants (GHZ):           0.8331753           0.1164713           0.1021865
 Leave Link  202 at Wed Dec 27 19:44:37 2023, MaxMem=  4026531840 cpu:               0.6 elap:               0.2
 (Enter /sysapps/ubuntu-applications/gaussian/Gaussian/AVX2/g16/l301.exe)
 Standard basis: 6-311++G(d,p) (5D, 7F)
 Ernie: Thresh=  0.10000D-02 Tol=  0.10000D-05 Strict=F.
   612 basis functions,   972 primitive gaussians,   636 cartesian basis functions
    80 alpha electrons       80 beta electrons
       nuclear repulsion energy      1765.2538848402 Hartrees.
 IExCor=  402 DFT=T Ex+Corr=B3LYP ExCW=0 ScaHFX=  0.200000
 ScaDFX=  0.800000  0.720000  1.000000  0.810000 ScalE2=  1.000000  1.000000
 IRadAn=      5 IRanWt=     -1 IRanGd=            0 ICorTp=0 IEmpDi=  4
 NAtoms=   36 NActive=   36 NUniq=   36 SFac= 1.00D+00 NAtFMM=   60 NAOKFM=F Big=F
 Integral buffers will be    131072 words long.
 Raffenetti 2 integral format.
 Two-electron integral symmetry is turned off.
 Leave Link  301 at Wed Dec 27 19:44:38 2023, MaxMem=  4026531840 cpu:               1.4 elap:               0.7
 (Enter /sysapps/ubuntu-applications/gaussian/Gaussian/AVX2/g16/l302.exe)
 NPDir=0 NMtPBC=     1 NCelOv=     1 NCel=       1 NClECP=     1 NCelD=      1
         NCelK=      1 NCelE2=     1 NClLst=     1 CellRange=     0.0.
 One-electron integrals computed using PRISM.
 NBasis=   612 RedAO= T EigKep=  1.13D-06  NBF=   612
 NBsUse=   599 1.00D-06 EigRej=  9.85D-07 NBFU=   599
 Precomputing XC quadrature grid using
 IXCGrd= 4 IRadAn=           5 IRanWt=          -1 IRanGd=           0 AccXCQ= 0.00D+00.
 Generated NRdTot=       0 NPtTot=           0 NUsed=           0 NTot=          32
 NSgBfM=   622   622   622   622   622 MxSgAt=    36 MxSgA2=    36.
 Leave Link  302 at Wed Dec 27 19:44:40 2023, MaxMem=  4026531840 cpu:               7.5 elap:               1.2
 (Enter /sysapps/ubuntu-applications/gaussian/Gaussian/AVX2/g16/l303.exe)
 DipDrv:  MaxL=1.
 Leave Link  303 at Wed Dec 27 19:44:40 2023, MaxMem=  4026531840 cpu:               1.3 elap:               0.3
 (Enter /sysapps/ubuntu-applications/gaussian/Gaussian/AVX2/g16/l401.exe)
 ExpMin= 3.60D-02 ExpMax= 8.59D+03 ExpMxC= 1.30D+03 IAcc=3 IRadAn=         5 AccDes= 0.00D+00
 Harris functional with IExCor=  402 and IRadAn=       5 diagonalized for initial guess.
 HarFok:  IExCor=  402 AccDes= 0.00D+00 IRadAn=         5 IDoV= 1 UseB2=F ITyADJ=14
 ICtDFT=  3500011 ScaDFX=  1.000000  1.000000  1.000000  1.000000
 FoFCou: FMM=F IPFlag=           0 FMFlag=      100000 FMFlg1=           0
         NFxFlg=           0 DoJE=T BraDBF=F KetDBF=T FulRan=T
         wScrn=  0.000000 ICntrl=       500 IOpCl=  0 I1Cent=   200000004 NGrid=           0
         NMat0=    1 NMatS0=      1 NMatT0=    0 NMatD0=    1 NMtDS0=    0 NMtDT0=    0
 Symmetry not used in FoFCou.
 Harris En= -996.328896809869    
 JPrj=0 DoOrth=F DoCkMO=F.
 Initial guess <Sx>= 0.0000 <Sy>= 0.0000 <Sz>= 0.0000 <S**2>=-0.0000 S=-0.0000
 Leave Link  401 at Wed Dec 27 19:44:44 2023, MaxMem=  4026531840 cpu:              28.5 elap:               3.8
 (Enter /sysapps/ubuntu-applications/gaussian/Gaussian/AVX2/g16/l502.exe)
 Two-electron integral symmetry not used.
 UHF open shell SCF:
 Using DIIS extrapolation, IDIIS=  1040.
 NGot=  4026531840 LenX=  4025713364 LenY=  4025308232
 Requested convergence on RMS density matrix=1.00D-08 within 128 cycles.
 Requested convergence on MAX density matrix=1.00D-06.
 Requested convergence on             energy=1.00D-06.
 No special actions if energy rises.
 Fock matrices will be formed incrementally for  20 cycles.

 Cycle   1  Pass 1  IDiag  1:
 FoFJK:  IHMeth= 1 ICntrl=       0 DoSepK=F KAlg= 0 I1Cent=           0 FoldK=F
 IRaf= 780000000 NMat=       1 IRICut=       1 DoRegI=T DoRafI=F ISym2E= 0 IDoP0=0 IntGTp=1.
 FoFCou: FMM=F IPFlag=           0 FMFlag=      100000 FMFlg1=           0
         NFxFlg=           0 DoJE=F BraDBF=F KetDBF=F FulRan=T
         wScrn=  0.000000 ICntrl=         0 IOpCl=  1 I1Cent=           0 NGrid=           0
         NMat0=    1 NMatS0=      1 NMatT0=    0 NMatD0=    1 NMtDS0=    0 NMtDT0=    0
 Symmetry not used in FoFCou.
 E= -995.823452650209    
 DIIS: error= 4.33D-02 at cycle   1 NSaved=   1.
 NSaved= 1 IEnMin= 1 EnMin= -995.823452650209     IErMin= 1 ErrMin= 4.33D-02
 ErrMax= 4.33D-02  0.00D+00 EMaxC= 1.00D-01 BMatC= 2.28D+00 BMatP= 2.28D+00
 IDIUse=3 WtCom= 5.67D-01 WtEn= 4.33D-01
 Coeff-Com:  0.100D+01
 Coeff-En:   0.100D+01
 Coeff:      0.100D+01
 Gap=     0.103 Goal=   None    Shift=    0.000
 Gap=     0.103 Goal=   None    Shift=    0.000
 GapD=    0.103 DampG=1.000 DampE=0.500 DampFc=0.5000 IDamp=-1.
 Damping current iteration by 5.00D-01
 RMSDP=1.76D-02 MaxDP=5.79D-01              OVMax= 2.88D-01

 Cycle   2  Pass 1  IDiag  1:
 RMSU=  7.83D-03    CP:  1.07D+00
 E= -995.980430519546     Delta-E=       -0.156977869337 Rises=F Damp=T
 DIIS: error= 1.84D-02 at cycle   2 NSaved=   2.
 NSaved= 2 IEnMin= 2 EnMin= -995.980430519546     IErMin= 2 ErrMin= 1.84D-02
 ErrMax= 1.84D-02  0.00D+00 EMaxC= 1.00D-01 BMatC= 3.69D-01 BMatP= 2.28D+00
 IDIUse=3 WtCom= 8.16D-01 WtEn= 1.84D-01
 Coeff-Com:  0.169D+00 0.831D+00
 Coeff-En:   0.276D+00 0.724D+00
 Coeff:      0.189D+00 0.811D+00
 Gap=     0.172 Goal=   None    Shift=    0.000
 Gap=     0.172 Goal=   None    Shift=    0.000
 RMSDP=1.28D-02 MaxDP=5.33D-01 DE=-1.57D-01 OVMax= 3.00D-01

 Cycle   3  Pass 1  IDiag  1:
 RMSU=  9.41D-03    CP:  9.35D-01  4.79D-01
 E= -996.185425589653     Delta-E=       -0.204995070107 Rises=F Damp=F
 DIIS: error= 3.12D-02 at cycle   3 NSaved=   3.
 NSaved= 3 IEnMin= 3 EnMin= -996.185425589653     IErMin= 2 ErrMin= 1.84D-02
 ErrMax= 3.12D-02  0.00D+00 EMaxC= 1.00D-01 BMatC= 5.52D-01 BMatP= 3.69D-01
 IDIUse=2 WtCom= 0.00D+00 WtEn= 1.00D+00
 Coeff-En:   0.000D+00 0.763D-01 0.924D+00
 Coeff:      0.000D+00 0.763D-01 0.924D+00
 Gap=     0.128 Goal=   None    Shift=    0.000
 Gap=     0.128 Goal=   None    Shift=    0.000
 RMSDP=2.14D-02 MaxDP=7.99D-01 DE=-2.05D-01 OVMax= 2.82D-01

 Cycle   4  Pass 1  IDiag  1:
 RMSU=  4.49D-03    CP:  1.19D+00  1.73D+00 -2.30D-01
 E= -995.619190466142     Delta-E=        0.566235123511 Rises=F Damp=F
 DIIS: error= 7.23D-02 at cycle   4 NSaved=   4.
 NSaved= 4 IEnMin= 3 EnMin= -996.185425589653     IErMin= 2 ErrMin= 1.84D-02
 ErrMax= 7.23D-02  0.00D+00 EMaxC= 1.00D-01 BMatC= 3.27D+00 BMatP= 3.69D-01
 IDIUse=2 WtCom= 0.00D+00 WtEn= 1.00D+00
 Coeff-En:   0.000D+00 0.000D+00 0.781D+00 0.219D+00
 Coeff:      0.000D+00 0.000D+00 0.781D+00 0.219D+00
 Gap=     0.148 Goal=   None    Shift=    0.000
 Gap=     0.148 Goal=   None    Shift=    0.000
 RMSDP=1.23D-02 MaxDP=4.66D-01 DE= 5.66D-01 OVMax= 1.48D-01

 Cycle   5  Pass 1  IDiag  1:
 RMSU=  1.49D-03    CP:  1.04D+00  9.61D-01  3.83D-01  4.36D-01
 E= -996.260657625171     Delta-E=       -0.641467159029 Rises=F Damp=F
 DIIS: error= 1.93D-02 at cycle   5 NSaved=   5.
 NSaved= 5 IEnMin= 5 EnMin= -996.260657625171     IErMin= 2 ErrMin= 1.84D-02
 ErrMax= 1.93D-02  0.00D+00 EMaxC= 1.00D-01 BMatC= 2.25D-01 BMatP= 3.69D-01
 IDIUse=3 WtCom= 8.07D-01 WtEn= 1.93D-01
 Coeff-Com: -0.455D-02 0.335D-01 0.280D+00-0.107D+00 0.799D+00
 Coeff-En:   0.000D+00 0.000D+00 0.339D+00 0.000D+00 0.661D+00
 Coeff:     -0.367D-02 0.271D-01 0.291D+00-0.866D-01 0.772D+00
 Gap=     0.139 Goal=   None    Shift=    0.000
 Gap=     0.139 Goal=   None    Shift=    0.000
 RMSDP=4.69D-03 MaxDP=1.75D-01 DE=-6.41D-01 OVMax= 5.97D-02

 Cycle   6  Pass 1  IDiag  1:
 RMSU=  3.73D-04    CP:  9.76D-01  7.32D-01  6.18D-01  1.97D-01  7.00D-01
 E= -996.310044584389     Delta-E=       -0.049386959217 Rises=F Damp=F
 DIIS: error= 1.58D-03 at cycle   6 NSaved=   6.
 NSaved= 6 IEnMin= 6 EnMin= -996.310044584389     IErMin= 6 ErrMin= 1.58D-03
 ErrMax= 1.58D-03  0.00D+00 EMaxC= 1.00D-01 BMatC= 1.41D-03 BMatP= 2.25D-01
 IDIUse=3 WtCom= 9.84D-01 WtEn= 1.58D-02
 Coeff-Com: -0.390D-02 0.170D-01 0.163D+00-0.668D-01 0.503D+00 0.387D+00
 Coeff-En:   0.000D+00 0.000D+00 0.000D+00 0.000D+00 0.000D+00 0.100D+01
 Coeff:     -0.384D-02 0.167D-01 0.161D+00-0.658D-01 0.495D+00 0.397D+00
 Gap=     0.137 Goal=   None    Shift=    0.000
 Gap=     0.137 Goal=   None    Shift=    0.000
 RMSDP=3.15D-04 MaxDP=1.21D-02 DE=-4.94D-02 OVMax= 8.96D-03

 Cycle   7  Pass 1  IDiag  1:
 RMSU=  9.51D-05    CP:  9.81D-01  7.42D-01  6.12D-01  2.08D-01  7.73D-01
                    CP:  7.66D-01
 E= -996.310425282104     Delta-E=       -0.000380697716 Rises=F Damp=F
 DIIS: error= 4.26D-04 at cycle   7 NSaved=   7.
 NSaved= 7 IEnMin= 7 EnMin= -996.310425282104     IErMin= 7 ErrMin= 4.26D-04
 ErrMax= 4.26D-04  0.00D+00 EMaxC= 1.00D-01 BMatC= 1.30D-04 BMatP= 1.41D-03
 IDIUse=3 WtCom= 9.96D-01 WtEn= 4.26D-03
 Coeff-Com: -0.101D-02 0.290D-02 0.437D-01-0.212D-01 0.145D+00 0.223D+00
 Coeff-Com:  0.607D+00
 Coeff-En:   0.000D+00 0.000D+00 0.000D+00 0.000D+00 0.000D+00 0.925D-01
 Coeff-En:   0.908D+00
 Coeff:     -0.100D-02 0.288D-02 0.436D-01-0.211D-01 0.144D+00 0.223D+00
 Coeff:      0.608D+00
 Gap=     0.137 Goal=   None    Shift=    0.000
 Gap=     0.137 Goal=   None    Shift=    0.000
 RMSDP=4.91D-05 MaxDP=2.96D-03 DE=-3.81D-04 OVMax= 2.22D-03

 Cycle   8  Pass 1  IDiag  1:
 RMSU=  2.43D-05    CP:  9.81D-01  7.41D-01  6.12D-01  2.09D-01  7.60D-01
                    CP:  7.70D-01  6.18D-01
 E= -996.310457131238     Delta-E=       -0.000031849134 Rises=F Damp=F
 DIIS: error= 9.54D-05 at cycle   8 NSaved=   8.
 NSaved= 8 IEnMin= 8 EnMin= -996.310457131238     IErMin= 8 ErrMin= 9.54D-05
 ErrMax= 9.54D-05  0.00D+00 EMaxC= 1.00D-01 BMatC= 1.15D-05 BMatP= 1.30D-04
 IDIUse=1 WtCom= 1.00D+00 WtEn= 0.00D+00
 Coeff-Com:  0.243D-03-0.128D-02 0.828D-02-0.355D-02 0.246D-01 0.789D-01
 Coeff-Com:  0.335D+00 0.558D+00
 Coeff:      0.243D-03-0.128D-02 0.828D-02-0.355D-02 0.246D-01 0.789D-01
 Coeff:      0.335D+00 0.558D+00
 Gap=     0.137 Goal=   None    Shift=    0.000
 Gap=     0.137 Goal=   None    Shift=    0.000
 RMSDP=3.15D-05 MaxDP=2.09D-03 DE=-3.18D-05 OVMax= 4.80D-04

 Cycle   9  Pass 1  IDiag  1:
 RMSU=  1.06D-05    CP:  9.81D-01  7.40D-01  6.14D-01  2.09D-01  7.63D-01
                    CP:  7.57D-01  7.46D-01  5.74D-01
 E= -996.310459484451     Delta-E=       -0.000002353212 Rises=F Damp=F
 DIIS: error= 1.75D-05 at cycle   9 NSaved=   9.
 NSaved= 9 IEnMin= 9 EnMin= -996.310459484451     IErMin= 9 ErrMin= 1.75D-05
 ErrMax= 1.75D-05  0.00D+00 EMaxC= 1.00D-01 BMatC= 3.85D-07 BMatP= 1.15D-05
 IDIUse=1 WtCom= 1.00D+00 WtEn= 0.00D+00
 Coeff-Com:  0.164D-03-0.646D-03 0.141D-02-0.601D-03 0.354D-02 0.223D-01
 Coeff-Com:  0.106D+00 0.250D+00 0.617D+00
 Coeff:      0.164D-03-0.646D-03 0.141D-02-0.601D-03 0.354D-02 0.223D-01
 Coeff:      0.106D+00 0.250D+00 0.617D+00
 Gap=     0.137 Goal=   None    Shift=    0.000
 Gap=     0.137 Goal=   None    Shift=    0.000
 RMSDP=8.76D-06 MaxDP=3.24D-04 DE=-2.35D-06 OVMax= 1.25D-04

 Cycle  10  Pass 1  IDiag  1:
 RMSU=  3.15D-06    CP:  9.80D-01  7.39D-01  6.14D-01  2.08D-01  7.63D-01
                    CP:  7.61D-01  7.63D-01  5.77D-01  9.83D-01
 E= -996.310459576406     Delta-E=       -0.000000091956 Rises=F Damp=F
 DIIS: error= 4.40D-06 at cycle  10 NSaved=  10.
 NSaved=10 IEnMin=10 EnMin= -996.310459576406     IErMin=10 ErrMin= 4.40D-06
 ErrMax= 4.40D-06  0.00D+00 EMaxC= 1.00D-01 BMatC= 2.85D-08 BMatP= 3.85D-07
 IDIUse=1 WtCom= 1.00D+00 WtEn= 0.00D+00
 Coeff-Com:  0.482D-04-0.106D-03-0.272D-03 0.724D-04-0.109D-02 0.222D-02
 Coeff-Com:  0.155D-01 0.666D-01 0.285D+00 0.632D+00
 Coeff:      0.482D-04-0.106D-03-0.272D-03 0.724D-04-0.109D-02 0.222D-02
 Coeff:      0.155D-01 0.666D-01 0.285D+00 0.632D+00
 Gap=     0.137 Goal=   None    Shift=    0.000
 Gap=     0.137 Goal=   None    Shift=    0.000
 RMSDP=1.70D-06 MaxDP=1.11D-04 DE=-9.20D-08 OVMax= 1.47D-05

 Cycle  11  Pass 1  IDiag  1:
 RMSU=  5.32D-07    CP:  9.80D-01  7.39D-01  6.14D-01  2.08D-01  7.63D-01
                    CP:  7.61D-01  7.57D-01  5.79D-01  9.46D-01  7.85D-01
 E= -996.310459582737     Delta-E=       -0.000000006331 Rises=F Damp=F
 DIIS: error= 1.07D-06 at cycle  11 NSaved=  11.
 NSaved=11 IEnMin=11 EnMin= -996.310459582737     IErMin=11 ErrMin= 1.07D-06
 ErrMax= 1.07D-06  0.00D+00 EMaxC= 1.00D-01 BMatC= 1.15D-09 BMatP= 2.85D-08
 IDIUse=1 WtCom= 1.00D+00 WtEn= 0.00D+00
 Coeff-Com:  0.696D-05-0.161D-04-0.133D-03 0.473D-04-0.438D-03 0.609D-04
 Coeff-Com:  0.131D-02 0.131D-01 0.649D-01 0.208D+00 0.713D+00
 Coeff:      0.696D-05-0.161D-04-0.133D-03 0.473D-04-0.438D-03 0.609D-04
 Coeff:      0.131D-02 0.131D-01 0.649D-01 0.208D+00 0.713D+00
 Gap=     0.137 Goal=   None    Shift=    0.000
 Gap=     0.137 Goal=   None    Shift=    0.000
 RMSDP=2.56D-07 MaxDP=1.34D-05 DE=-6.33D-09 OVMax= 5.23D-06

 Cycle  12  Pass 1  IDiag  1:
 RMSU=  9.97D-08    CP:  9.80D-01  7.39D-01  6.14D-01  2.08D-01  7.63D-01
                    CP:  7.61D-01  7.56D-01  5.82D-01  9.46D-01  7.98D-01
                    CP:  8.15D-01
 E= -996.310459582972     Delta-E=       -0.000000000235 Rises=F Damp=F
 DIIS: error= 3.84D-07 at cycle  12 NSaved=  12.
 NSaved=12 IEnMin=12 EnMin= -996.310459582972     IErMin=12 ErrMin= 3.84D-07
 ErrMax= 3.84D-07  0.00D+00 EMaxC= 1.00D-01 BMatC= 2.31D-10 BMatP= 1.15D-09
 IDIUse=1 WtCom= 1.00D+00 WtEn= 0.00D+00
 Coeff-Com: -0.417D-06 0.241D-06-0.522D-04 0.188D-04-0.150D-03-0.819D-04
 Coeff-Com: -0.315D-03 0.310D-02 0.177D-01 0.740D-01 0.398D+00 0.508D+00
 Coeff:     -0.417D-06 0.241D-06-0.522D-04 0.188D-04-0.150D-03-0.819D-04
 Coeff:     -0.315D-03 0.310D-02 0.177D-01 0.740D-01 0.398D+00 0.508D+00
 Gap=     0.137 Goal=   None    Shift=    0.000
 Gap=     0.137 Goal=   None    Shift=    0.000
 RMSDP=6.21D-08 MaxDP=1.99D-06 DE=-2.35D-10 OVMax= 2.37D-06

 Cycle  13  Pass 1  IDiag  1:
 RMSU=  4.01D-08    CP:  9.80D-01  7.39D-01  6.14D-01  2.08D-01  7.63D-01
                    CP:  7.61D-01  7.56D-01  5.82D-01  9.47D-01  7.98D-01
                    CP:  8.73D-01  8.15D-01
 E= -996.310459582997     Delta-E=       -0.000000000025 Rises=F Damp=F
 DIIS: error= 2.31D-07 at cycle  13 NSaved=  13.
 NSaved=13 IEnMin=13 EnMin= -996.310459582997     IErMin=13 ErrMin= 2.31D-07
 ErrMax= 2.31D-07  0.00D+00 EMaxC= 1.00D-01 BMatC= 2.39D-11 BMatP= 2.31D-10
 IDIUse=1 WtCom= 1.00D+00 WtEn= 0.00D+00
 Coeff-Com: -0.189D-05 0.376D-05-0.111D-04 0.405D-05-0.189D-04-0.709D-04
 Coeff-Com: -0.444D-03-0.791D-03-0.305D-02-0.383D-03 0.797D-01 0.244D+00
 Coeff-Com:  0.681D+00
 Coeff:     -0.189D-05 0.376D-05-0.111D-04 0.405D-05-0.189D-04-0.709D-04
 Coeff:     -0.444D-03-0.791D-03-0.305D-02-0.383D-03 0.797D-01 0.244D+00
 Coeff:      0.681D+00
 Gap=     0.137 Goal=   None    Shift=    0.000
 Gap=     0.137 Goal=   None    Shift=    0.000
 RMSDP=3.68D-08 MaxDP=1.65D-06 DE=-2.50D-11 OVMax= 1.13D-06

 Cycle  14  Pass 1  IDiag  1:
 RMSU=  1.15D-08    CP:  9.80D-01  7.39D-01  6.14D-01  2.08D-01  7.63D-01
                    CP:  7.61D-01  7.57D-01  5.81D-01  9.48D-01  8.01D-01
                    CP:  8.90D-01  8.33D-01  8.67D-01
 E= -996.310459583012     Delta-E=       -0.000000000015 Rises=F Damp=F
 DIIS: error= 7.17D-08 at cycle  14 NSaved=  14.
 NSaved=14 IEnMin=14 EnMin= -996.310459583012     IErMin=14 ErrMin= 7.17D-08
 ErrMax= 7.17D-08  0.00D+00 EMaxC= 1.00D-01 BMatC= 3.63D-12 BMatP= 2.39D-11
 IDIUse=1 WtCom= 1.00D+00 WtEn= 0.00D+00
 Coeff-Com: -0.124D-05 0.265D-05-0.184D-05 0.443D-06 0.388D-05-0.389D-04
 Coeff-Com: -0.261D-03-0.800D-03-0.357D-02-0.741D-02 0.133D-01 0.106D+00
 Coeff-Com:  0.422D+00 0.470D+00
 Coeff:     -0.124D-05 0.265D-05-0.184D-05 0.443D-06 0.388D-05-0.389D-04
 Coeff:     -0.261D-03-0.800D-03-0.357D-02-0.741D-02 0.133D-01 0.106D+00
 Coeff:      0.422D+00 0.470D+00
 Gap=     0.137 Goal=   None    Shift=    0.000
 Gap=     0.137 Goal=   None    Shift=    0.000
 RMSDP=7.47D-09 MaxDP=3.72D-07 DE=-1.46D-11 OVMax= 3.04D-07

 SCF Done:  E(UB3LYP) =  -996.310459583     A.U. after   14 cycles
            NFock= 14  Conv=0.75D-08     -V/T= 2.0043
 <Sx>= 0.0000 <Sy>= 0.0000 <Sz>= 0.0000 <S**2>=-0.0000 S=-0.0000
 <L.S>=  0.00000000000    
 KE= 9.920924562342D+02 PE=-5.848044991335D+03 EE= 2.094388190678D+03
 Annihilation of the first spin contaminant:
 S**2 before annihilation    -0.0000,   after    -0.0000
 Leave Link  502 at Wed Dec 27 19:50:53 2023, MaxMem=  4026531840 cpu:            2917.3 elap:             369.1
 (Enter /sysapps/ubuntu-applications/gaussian/Gaussian/AVX2/g16/l601.exe)
 Copying SCF densities to generalized density rwf, IOpCl= 1 IROHF=0.

 **********************************************************************

            Population analysis using the SCF density.

 **********************************************************************

 Alpha  occ. eigenvalues --  -19.11750 -19.11749 -10.27217 -10.27216 -10.20767
 Alpha  occ. eigenvalues --  -10.20767 -10.20725 -10.20725 -10.20297 -10.20296
 Alpha  occ. eigenvalues --  -10.20254 -10.20253 -10.19807 -10.19806 -10.19805
 Alpha  occ. eigenvalues --  -10.19803 -10.19714 -10.19713 -10.19679 -10.19679
 Alpha  occ. eigenvalues --  -10.19624 -10.19623 -10.19614 -10.19613  -1.05287
 Alpha  occ. eigenvalues --   -1.05100  -0.90275  -0.89944  -0.86071  -0.84576
 Alpha  occ. eigenvalues --   -0.79938  -0.79932  -0.79184  -0.76328  -0.75255
 Alpha  occ. eigenvalues --   -0.74767  -0.68820  -0.67875  -0.64439  -0.64128
 Alpha  occ. eigenvalues --   -0.61979  -0.61706  -0.58979  -0.57650  -0.55229
 Alpha  occ. eigenvalues --   -0.54005  -0.53528  -0.50452  -0.49619  -0.48599
 Alpha  occ. eigenvalues --   -0.48287  -0.46709  -0.45931  -0.45427  -0.44905
 Alpha  occ. eigenvalues --   -0.44482  -0.44464  -0.44204  -0.43678  -0.42832
 Alpha  occ. eigenvalues --   -0.42771  -0.41510  -0.40837  -0.40322  -0.40031
 Alpha  occ. eigenvalues --   -0.38705  -0.37793  -0.36619  -0.35651  -0.35260
 Alpha  occ. eigenvalues --   -0.35071  -0.33565  -0.31093  -0.30741  -0.27593
 Alpha  occ. eigenvalues --   -0.27574  -0.26699  -0.26525  -0.24194  -0.24165
 Alpha virt. eigenvalues --   -0.10477  -0.09651  -0.06159  -0.04002  -0.01789
 Alpha virt. eigenvalues --   -0.01054  -0.00926  -0.00387   0.00402   0.00454
 Alpha virt. eigenvalues --    0.00676   0.00772   0.02009   0.02808   0.03153
 Alpha virt. eigenvalues --    0.03674   0.03760   0.04485   0.04771   0.05533
 Alpha virt. eigenvalues --    0.05612   0.06052   0.06116   0.06461   0.06475
 Alpha virt. eigenvalues --    0.06732   0.06771   0.07144   0.08371   0.09495
 Alpha virt. eigenvalues --    0.09517   0.09645   0.09677   0.09731   0.10261
 Alpha virt. eigenvalues --    0.10264   0.10632   0.10910   0.11319   0.11565
 Alpha virt. eigenvalues --    0.11691   0.12052   0.12166   0.12175   0.12190
 Alpha virt. eigenvalues --    0.12761   0.12882   0.12990   0.13362   0.13786
 Alpha virt. eigenvalues --    0.14026   0.14468   0.14663   0.15601   0.15736
 Alpha virt. eigenvalues --    0.15818   0.16421   0.16722   0.16762   0.17001
 Alpha virt. eigenvalues --    0.17549   0.17594   0.17671   0.18468   0.18608
 Alpha virt. eigenvalues --    0.18978   0.19341   0.19551   0.19776   0.20207
 Alpha virt. eigenvalues --    0.20934   0.21187   0.21449   0.21621   0.21800
 Alpha virt. eigenvalues --    0.21823   0.22245   0.22400   0.22540   0.22696
 Alpha virt. eigenvalues --    0.22757   0.23025   0.23220   0.23405   0.23937
 Alpha virt. eigenvalues --    0.24128   0.24484   0.24585   0.24978   0.25924
 Alpha virt. eigenvalues --    0.26324   0.26506   0.26959   0.27245   0.27655
 Alpha virt. eigenvalues --    0.28048   0.28189   0.28405   0.28488   0.28560
 Alpha virt. eigenvalues --    0.28617   0.29310   0.29460   0.30160   0.30665
 Alpha virt. eigenvalues --    0.31051   0.31278   0.31425   0.31610   0.31814
 Alpha virt. eigenvalues --    0.32138   0.32355   0.32426   0.33374   0.33597
 Alpha virt. eigenvalues --    0.33863   0.33942   0.35026   0.35742   0.35927
 Alpha virt. eigenvalues --    0.36464   0.36570   0.36907   0.37553   0.37819
 Alpha virt. eigenvalues --    0.39386   0.40142   0.40583   0.41316   0.42314
 Alpha virt. eigenvalues --    0.43202   0.44777   0.44918   0.45232   0.47328
 Alpha virt. eigenvalues --    0.47960   0.48514   0.50044   0.50413   0.51477
 Alpha virt. eigenvalues --    0.51727   0.52033   0.52253   0.53061   0.53348
 Alpha virt. eigenvalues --    0.54583   0.54600   0.54658   0.54723   0.54915
 Alpha virt. eigenvalues --    0.55767   0.56010   0.56018   0.56435   0.56755
 Alpha virt. eigenvalues --    0.57040   0.57334   0.57459   0.57772   0.57832
 Alpha virt. eigenvalues --    0.59316   0.59540   0.59577   0.60766   0.61666
 Alpha virt. eigenvalues --    0.62037   0.63080   0.63951   0.64020   0.64276
 Alpha virt. eigenvalues --    0.65287   0.65668   0.65826   0.66166   0.66233
 Alpha virt. eigenvalues --    0.66533   0.66537   0.67044   0.67574   0.69148
 Alpha virt. eigenvalues --    0.69266   0.69687   0.71287   0.71624   0.71899
 Alpha virt. eigenvalues --    0.72034   0.73039   0.73300   0.73750   0.74115
 Alpha virt. eigenvalues --    0.74669   0.74830   0.75358   0.76550   0.77383
 Alpha virt. eigenvalues --    0.77587   0.78025   0.78254   0.80116   0.82599
 Alpha virt. eigenvalues --    0.82628   0.82733   0.85085   0.85151   0.85280
 Alpha virt. eigenvalues --    0.85931   0.86685   0.88535   0.88685   0.88922
 Alpha virt. eigenvalues --    0.90147   0.90319   0.90877   0.91299   0.91346
 Alpha virt. eigenvalues --    0.91490   0.92425   0.92947   0.93858   0.94071
 Alpha virt. eigenvalues --    0.94186   0.94567   0.96274   0.96290   0.96503
 Alpha virt. eigenvalues --    0.97202   0.97547   0.97856   0.97865   0.98189
 Alpha virt. eigenvalues --    0.98377   1.00822   1.01720   1.02166   1.02517
 Alpha virt. eigenvalues --    1.03531   1.04117   1.04375   1.04882   1.05088
 Alpha virt. eigenvalues --    1.05858   1.06998   1.08511   1.08528   1.09261
 Alpha virt. eigenvalues --    1.10059   1.10373   1.11631   1.11865   1.12523
 Alpha virt. eigenvalues --    1.13929   1.14220   1.14261   1.16335   1.20638
 Alpha virt. eigenvalues --    1.20754   1.22031   1.22232   1.22941   1.23487
 Alpha virt. eigenvalues --    1.25087   1.25864   1.28278   1.30264   1.33836
 Alpha virt. eigenvalues --    1.35064   1.35112   1.35347   1.36241   1.37006
 Alpha virt. eigenvalues --    1.40236   1.43241   1.45750   1.46177   1.46315
 Alpha virt. eigenvalues --    1.47364   1.47415   1.48225   1.48542   1.48782
 Alpha virt. eigenvalues --    1.49599   1.49655   1.50223   1.50455   1.50951
 Alpha virt. eigenvalues --    1.51083   1.51379   1.54308   1.54586   1.54980
 Alpha virt. eigenvalues --    1.55061   1.56527   1.57598   1.58306   1.59066
 Alpha virt. eigenvalues --    1.59712   1.63002   1.63451   1.63470   1.65556
 Alpha virt. eigenvalues --    1.66173   1.66183   1.69204   1.70618   1.71230
 Alpha virt. eigenvalues --    1.72290   1.72566   1.72690   1.73829   1.74633
 Alpha virt. eigenvalues --    1.74936   1.75250   1.75624   1.77025   1.78291
 Alpha virt. eigenvalues --    1.79256   1.80242   1.83162   1.84821   1.85909
 Alpha virt. eigenvalues --    1.86003   1.86311   1.87297   1.87342   1.88138
 Alpha virt. eigenvalues --    1.88787   1.88910   1.88979   1.89966   1.92385
 Alpha virt. eigenvalues --    1.92391   1.92417   1.92579   1.92965   1.95432
 Alpha virt. eigenvalues --    1.96052   1.96472   1.96587   1.97538   1.98566
 Alpha virt. eigenvalues --    2.00474   2.01126   2.02803   2.03015   2.05309
 Alpha virt. eigenvalues --    2.07698   2.09426   2.10550   2.10682   2.10873
 Alpha virt. eigenvalues --    2.11196   2.11203   2.11716   2.14189   2.15359
 Alpha virt. eigenvalues --    2.17439   2.18738   2.19216   2.21496   2.21637
 Alpha virt. eigenvalues --    2.22671   2.23732   2.26333   2.26478   2.31947
 Alpha virt. eigenvalues --    2.33464   2.35070   2.37526   2.38911   2.40082
 Alpha virt. eigenvalues --    2.41197   2.42984   2.43322   2.44426   2.46118
 Alpha virt. eigenvalues --    2.46231   2.47992   2.48014   2.49265   2.54909
 Alpha virt. eigenvalues --    2.58026   2.58066   2.60599   2.62295   2.62320
 Alpha virt. eigenvalues --    2.63528   2.65196   2.65435   2.67426   2.69548
 Alpha virt. eigenvalues --    2.70207   2.70365   2.70464   2.71345   2.72657
 Alpha virt. eigenvalues --    2.73401   2.74273   2.74326   2.74534   2.74613
 Alpha virt. eigenvalues --    2.75080   2.75954   2.76430   2.76652   2.77208
 Alpha virt. eigenvalues --    2.77688   2.77952   2.78409   2.80079   2.80531
 Alpha virt. eigenvalues --    2.80993   2.82774   2.83659   2.84408   2.85121
 Alpha virt. eigenvalues --    2.85742   2.86565   2.87013   2.87824   2.88455
 Alpha virt. eigenvalues --    2.90810   2.90974   2.92592   2.94223   2.94647
 Alpha virt. eigenvalues --    2.95599   2.97552   2.98193   2.98403   3.00006
 Alpha virt. eigenvalues --    3.05935   3.06671   3.07223   3.08978   3.09067
 Alpha virt. eigenvalues --    3.11814   3.14809   3.18334   3.18818   3.22656
 Alpha virt. eigenvalues --    3.22668   3.23810   3.29134   3.31211   3.32275
 Alpha virt. eigenvalues --    3.34200   3.36131   3.36558   3.37270   3.38830
 Alpha virt. eigenvalues --    3.40652   3.41537   3.43935   3.44890   3.46866
 Alpha virt. eigenvalues --    3.54189   3.54193   3.54948   3.55167   3.58279
 Alpha virt. eigenvalues --    3.59842   3.60371   3.60524   3.66444   3.66492
 Alpha virt. eigenvalues --    3.69948   3.72888   3.73971   3.78481   3.82855
 Alpha virt. eigenvalues --    3.87229   4.02586   4.02781   4.03592   4.03611
 Alpha virt. eigenvalues --    4.17885   4.18327   4.21126   4.21585   4.24062
 Alpha virt. eigenvalues --    4.25740   4.28312   4.37992   4.59557   4.73884
 Alpha virt. eigenvalues --    4.81108   4.81699   4.83965   4.85625   5.05658
 Alpha virt. eigenvalues --    5.06770   5.26219   5.29624   5.74984   5.83198
 Alpha virt. eigenvalues --   23.47418  23.57481  23.77189  23.80237  23.87723
 Alpha virt. eigenvalues --   23.88285  23.89097  23.92869  23.93813  23.94233
 Alpha virt. eigenvalues --   23.97741  23.97987  23.99243  24.00393  24.10095
 Alpha virt. eigenvalues --   24.10443  24.11117  24.11208  24.14750  24.14967
 Alpha virt. eigenvalues --   24.17766  24.17929  50.04971  50.09785
  Beta  occ. eigenvalues --  -19.11750 -19.11749 -10.27217 -10.27216 -10.20767
  Beta  occ. eigenvalues --  -10.20767 -10.20725 -10.20725 -10.20297 -10.20296
  Beta  occ. eigenvalues --  -10.20254 -10.20253 -10.19807 -10.19806 -10.19805
  Beta  occ. eigenvalues --  -10.19803 -10.19714 -10.19713 -10.19679 -10.19679
  Beta  occ. eigenvalues --  -10.19624 -10.19623 -10.19614 -10.19613  -1.05287
  Beta  occ. eigenvalues --   -1.05100  -0.90275  -0.89944  -0.86071  -0.84576
  Beta  occ. eigenvalues --   -0.79938  -0.79932  -0.79184  -0.76328  -0.75255
  Beta  occ. eigenvalues --   -0.74767  -0.68820  -0.67875  -0.64439  -0.64128
  Beta  occ. eigenvalues --   -0.61979  -0.61706  -0.58979  -0.57650  -0.55229
  Beta  occ. eigenvalues --   -0.54005  -0.53528  -0.50452  -0.49619  -0.48599
  Beta  occ. eigenvalues --   -0.48287  -0.46709  -0.45931  -0.45427  -0.44905
  Beta  occ. eigenvalues --   -0.44482  -0.44464  -0.44204  -0.43678  -0.42832
  Beta  occ. eigenvalues --   -0.42771  -0.41510  -0.40837  -0.40322  -0.40031
  Beta  occ. eigenvalues --   -0.38705  -0.37793  -0.36619  -0.35651  -0.35260
  Beta  occ. eigenvalues --   -0.35071  -0.33565  -0.31093  -0.30741  -0.27593
  Beta  occ. eigenvalues --   -0.27574  -0.26699  -0.26525  -0.24194  -0.24165
  Beta virt. eigenvalues --   -0.10477  -0.09651  -0.06159  -0.04002  -0.01789
  Beta virt. eigenvalues --   -0.01054  -0.00926  -0.00387   0.00402   0.00454
  Beta virt. eigenvalues --    0.00676   0.00772   0.02009   0.02808   0.03153
  Beta virt. eigenvalues --    0.03674   0.03760   0.04485   0.04771   0.05533
  Beta virt. eigenvalues --    0.05612   0.06052   0.06116   0.06461   0.06475
  Beta virt. eigenvalues --    0.06732   0.06771   0.07144   0.08371   0.09495
  Beta virt. eigenvalues --    0.09517   0.09645   0.09677   0.09731   0.10261
  Beta virt. eigenvalues --    0.10264   0.10632   0.10910   0.11319   0.11565
  Beta virt. eigenvalues --    0.11691   0.12052   0.12166   0.12175   0.12190
  Beta virt. eigenvalues --    0.12761   0.12882   0.12990   0.13362   0.13786
  Beta virt. eigenvalues --    0.14026   0.14468   0.14663   0.15601   0.15736
  Beta virt. eigenvalues --    0.15818   0.16421   0.16722   0.16762   0.17001
  Beta virt. eigenvalues --    0.17549   0.17594   0.17671   0.18468   0.18608
  Beta virt. eigenvalues --    0.18978   0.19341   0.19551   0.19776   0.20207
  Beta virt. eigenvalues --    0.20934   0.21187   0.21449   0.21621   0.21800
  Beta virt. eigenvalues --    0.21823   0.22245   0.22400   0.22540   0.22696
  Beta virt. eigenvalues --    0.22757   0.23025   0.23220   0.23405   0.23937
  Beta virt. eigenvalues --    0.24128   0.24484   0.24585   0.24978   0.25924
  Beta virt. eigenvalues --    0.26324   0.26506   0.26959   0.27245   0.27655
  Beta virt. eigenvalues --    0.28048   0.28189   0.28405   0.28488   0.28560
  Beta virt. eigenvalues --    0.28617   0.29310   0.29460   0.30160   0.30665
  Beta virt. eigenvalues --    0.31051   0.31278   0.31425   0.31610   0.31814
  Beta virt. eigenvalues --    0.32138   0.32355   0.32426   0.33374   0.33597
  Beta virt. eigenvalues --    0.33863   0.33942   0.35026   0.35742   0.35927
  Beta virt. eigenvalues --    0.36464   0.36570   0.36907   0.37553   0.37819
  Beta virt. eigenvalues --    0.39386   0.40142   0.40583   0.41316   0.42314
  Beta virt. eigenvalues --    0.43202   0.44777   0.44918   0.45232   0.47328
  Beta virt. eigenvalues --    0.47960   0.48514   0.50044   0.50413   0.51477
  Beta virt. eigenvalues --    0.51727   0.52033   0.52253   0.53061   0.53348
  Beta virt. eigenvalues --    0.54583   0.54600   0.54658   0.54723   0.54915
  Beta virt. eigenvalues --    0.55767   0.56010   0.56018   0.56435   0.56755
  Beta virt. eigenvalues --    0.57040   0.57334   0.57459   0.57772   0.57832
  Beta virt. eigenvalues --    0.59316   0.59540   0.59577   0.60766   0.61666
  Beta virt. eigenvalues --    0.62037   0.63080   0.63951   0.64020   0.64276
  Beta virt. eigenvalues --    0.65287   0.65668   0.65826   0.66166   0.66233
  Beta virt. eigenvalues --    0.66533   0.66537   0.67044   0.67574   0.69148
  Beta virt. eigenvalues --    0.69266   0.69687   0.71287   0.71624   0.71899
  Beta virt. eigenvalues --    0.72034   0.73039   0.73300   0.73750   0.74115
  Beta virt. eigenvalues --    0.74669   0.74830   0.75358   0.76550   0.77383
  Beta virt. eigenvalues --    0.77587   0.78025   0.78254   0.80116   0.82599
  Beta virt. eigenvalues --    0.82628   0.82733   0.85085   0.85151   0.85280
  Beta virt. eigenvalues --    0.85931   0.86685   0.88535   0.88685   0.88922
  Beta virt. eigenvalues --    0.90147   0.90319   0.90877   0.91299   0.91346
  Beta virt. eigenvalues --    0.91490   0.92425   0.92947   0.93858   0.94071
  Beta virt. eigenvalues --    0.94186   0.94567   0.96274   0.96290   0.96503
  Beta virt. eigenvalues --    0.97202   0.97547   0.97856   0.97865   0.98189
  Beta virt. eigenvalues --    0.98377   1.00822   1.01720   1.02166   1.02517
  Beta virt. eigenvalues --    1.03531   1.04117   1.04375   1.04882   1.05088
  Beta virt. eigenvalues --    1.05858   1.06998   1.08511   1.08528   1.09261
  Beta virt. eigenvalues --    1.10059   1.10373   1.11631   1.11865   1.12523
  Beta virt. eigenvalues --    1.13929   1.14220   1.14261   1.16335   1.20638
  Beta virt. eigenvalues --    1.20754   1.22031   1.22232   1.22941   1.23487
  Beta virt. eigenvalues --    1.25087   1.25864   1.28278   1.30264   1.33836
  Beta virt. eigenvalues --    1.35064   1.35112   1.35347   1.36241   1.37006
  Beta virt. eigenvalues --    1.40236   1.43241   1.45750   1.46177   1.46315
  Beta virt. eigenvalues --    1.47364   1.47415   1.48225   1.48542   1.48782
  Beta virt. eigenvalues --    1.49599   1.49655   1.50223   1.50455   1.50951
  Beta virt. eigenvalues --    1.51083   1.51379   1.54308   1.54586   1.54980
  Beta virt. eigenvalues --    1.55061   1.56527   1.57598   1.58306   1.59066
  Beta virt. eigenvalues --    1.59712   1.63002   1.63451   1.63470   1.65556
  Beta virt. eigenvalues --    1.66173   1.66183   1.69204   1.70618   1.71230
  Beta virt. eigenvalues --    1.72290   1.72566   1.72690   1.73829   1.74633
  Beta virt. eigenvalues --    1.74936   1.75250   1.75624   1.77025   1.78291
  Beta virt. eigenvalues --    1.79256   1.80242   1.83162   1.84821   1.85909
  Beta virt. eigenvalues --    1.86003   1.86311   1.87297   1.87342   1.88138
  Beta virt. eigenvalues --    1.88787   1.88910   1.88979   1.89966   1.92385
  Beta virt. eigenvalues --    1.92391   1.92417   1.92579   1.92965   1.95432
  Beta virt. eigenvalues --    1.96052   1.96472   1.96587   1.97538   1.98566
  Beta virt. eigenvalues --    2.00474   2.01126   2.02803   2.03015   2.05309
  Beta virt. eigenvalues --    2.07698   2.09426   2.10550   2.10682   2.10873
  Beta virt. eigenvalues --    2.11196   2.11203   2.11716   2.14189   2.15359
  Beta virt. eigenvalues --    2.17439   2.18738   2.19216   2.21496   2.21637
  Beta virt. eigenvalues --    2.22671   2.23732   2.26333   2.26478   2.31947
  Beta virt. eigenvalues --    2.33464   2.35070   2.37526   2.38911   2.40082
  Beta virt. eigenvalues --    2.41197   2.42984   2.43322   2.44426   2.46118
  Beta virt. eigenvalues --    2.46231   2.47992   2.48014   2.49265   2.54909
  Beta virt. eigenvalues --    2.58026   2.58066   2.60599   2.62295   2.62320
  Beta virt. eigenvalues --    2.63528   2.65196   2.65435   2.67426   2.69548
  Beta virt. eigenvalues --    2.70207   2.70365   2.70464   2.71345   2.72657
  Beta virt. eigenvalues --    2.73401   2.74273   2.74326   2.74534   2.74613
  Beta virt. eigenvalues --    2.75080   2.75954   2.76430   2.76652   2.77208
  Beta virt. eigenvalues --    2.77688   2.77952   2.78409   2.80079   2.80531
  Beta virt. eigenvalues --    2.80993   2.82774   2.83659   2.84408   2.85121
  Beta virt. eigenvalues --    2.85742   2.86565   2.87013   2.87824   2.88455
  Beta virt. eigenvalues --    2.90810   2.90974   2.92592   2.94223   2.94647
  Beta virt. eigenvalues --    2.95599   2.97552   2.98193   2.98403   3.00006
  Beta virt. eigenvalues --    3.05935   3.06671   3.07223   3.08978   3.09067
  Beta virt. eigenvalues --    3.11814   3.14809   3.18334   3.18818   3.22656
  Beta virt. eigenvalues --    3.22668   3.23810   3.29134   3.31211   3.32275
  Beta virt. eigenvalues --    3.34200   3.36131   3.36558   3.37270   3.38830
  Beta virt. eigenvalues --    3.40652   3.41537   3.43935   3.44890   3.46866
  Beta virt. eigenvalues --    3.54189   3.54193   3.54948   3.55167   3.58279
  Beta virt. eigenvalues --    3.59842   3.60371   3.60524   3.66444   3.66492
  Beta virt. eigenvalues --    3.69948   3.72888   3.73971   3.78481   3.82855
  Beta virt. eigenvalues --    3.87229   4.02586   4.02781   4.03592   4.03611
  Beta virt. eigenvalues --    4.17885   4.18327   4.21126   4.21585   4.24062
  Beta virt. eigenvalues --    4.25740   4.28312   4.37992   4.59557   4.73884
  Beta virt. eigenvalues --    4.81108   4.81699   4.83965   4.85625   5.05658
  Beta virt. eigenvalues --    5.06770   5.26219   5.29624   5.74984   5.83198
  Beta virt. eigenvalues --   23.47418  23.57481  23.77189  23.80237  23.87723
  Beta virt. eigenvalues --   23.88285  23.89097  23.92869  23.93813  23.94233
  Beta virt. eigenvalues --   23.97741  23.97987  23.99243  24.00393  24.10095
  Beta virt. eigenvalues --   24.10443  24.11117  24.11208  24.14750  24.14967
  Beta virt. eigenvalues --   24.17766  24.17929  50.04971  50.09785
          Condensed to atoms (all electrons):
               1          2          3          4          5          6
     1  O    8.113487   0.456480  -0.283546   0.348075   0.187112   0.034115
     2  C    0.456480  14.056821  -2.460034  -2.630439   0.913268   0.669496
     3  C   -0.283546  -2.460034  19.966414   1.025044  -1.997500  -1.285951
     4  C    0.348075  -2.630439   1.025044  10.961424   1.230008  -2.774747
     5  C    0.187112   0.913268  -1.997500   1.230008  11.782723  -0.094161
     6  C    0.034115   0.669496  -1.285951  -2.774747  -0.094161   9.680999
     7  C    0.002964   0.143503  -0.170976  -0.549429  -0.306527   0.401433
     8  C    0.000081  -0.128262  -0.262706   0.120092   0.219540  -0.617567
     9  C   -0.004070   0.053444  -1.064144  -1.060758  -0.194791   1.792287
    10  C   -0.013950  -0.719347  -3.210292  -1.508676  -1.220624  -0.194703
    11  C   -0.029211  -0.167382  -0.126108  -0.133473  -1.507742  -1.061095
    12  C   -0.403216   0.746996   1.231282  -0.126972  -3.210578  -1.063323
    13  C   -0.001791  -0.711178   0.746532  -0.167059  -0.718793   0.053829
    14  O   -0.000042  -0.001794  -0.403179  -0.029234  -0.013925  -0.004060
    15  C   -0.403262   0.746382  -5.133496  -1.694652  -0.834179  -0.199180
    16  C   -0.029255  -0.166205  -1.694761   0.121754   0.109718   0.042355
    17  C   -0.013860  -0.717505  -0.832123   0.109763   0.032071   0.011546
    18  C   -0.004062   0.054744  -0.198634   0.042333   0.011556   0.002159
    19  C    0.000082  -0.128279  -0.012591   0.005965   0.001610   0.000089
    20  C    0.002958   0.143494   0.081407  -0.010043  -0.002129  -0.000344
    21  C    0.034144   0.669150   0.621283  -0.101530  -0.017530  -0.005355
    22  C    0.187138   0.912469   1.687104   0.133864  -0.055842  -0.017539
    23  C    0.348195  -2.634309   2.062357   0.148583   0.134316  -0.101517
    24  C   -0.283459  -2.459851  -2.768474   2.063258   1.688197   0.621054
    25  H   -0.021713  -0.001199   0.285453   0.424185  -0.250558  -0.157615
    26  H    0.002332   0.050781  -0.068865  -0.092813  -0.020622   0.520888
    27  H   -0.000008  -0.004466   0.004324   0.018018   0.055218  -0.085197
    28  H    0.000003   0.002450   0.000507  -0.010681  -0.018494  -0.004009
    29  H   -0.000073  -0.001250  -0.058552  -0.017096  -0.022738   0.064730
    30  H    0.000832   0.021867   0.185071   0.047473  -0.012483  -0.026520
    31  H    0.000831   0.021742   0.039835  -0.007944  -0.002605  -0.000776
[...]
 0382140,-0.01618408,-0.02409751,-0.00456300,-0.00062032,-0.00181819,-0
 .00090542,0.00000734,0.00001795,-0.00458534,0.00114028,0.00099866,0.00
 042730,0.00081257,0.00122580,0.00010389,0.00009757,0.00016083,0.000007
 08,-0.00000107,-0.00000128,0.00000069,-0.00000086,-0.00000126,0.000000
 73,-0.00000034,-0.00000056,0.00000131,0.00000022,0.00000032,-0.0000018
 7,-0.00000002,-0.00000038,-0.00001037,0.00000057,-0.00000034,-0.000366
 01,-0.00040098,-0.00064275,0.05834078,0.00005664,-0.00002927,-0.000003
 00,-0.00014171,0.00004847,0.00004609,0.00005628,-0.00000437,-0.0000038
 3,-0.00001831,0.00001152,0.00001281,0.00000904,0.00001081,-0.00000021,
 -0.00000234,0.00000394,0.00000478,0.00000288,-0.00000089,0.00000405,0.
 00000332,-0.00000406,0.00000314,0.00000255,0.00000166,-0.00000750,0.00
 000362,-0.00000053,-0.00000229,-0.00000054,-0.00001668,0.00000675,0.00
 001586,-0.00001085,0.00000437,-0.00003770,-0.00000124,-0.00016340,-0.0
 0000114,0.00002060,0.00010585,0.00023495,0.00008809,0.00000207,-0.0011
 1075,-0.00178596,0.00171338,-0.00130916,-0.00247505,-0.00800585,-0.001
 86209,-0.12905510,-0.13791514,0.00132037,0.00001831,-0.00621452,-0.001
 22248,0.00609356,-0.00340507,0.00006298,-0.00052276,0.00072292,0.00192
 400,0.00394707,-0.00209545,-0.00045020,-0.00013144,-0.00048691,0.00011
 675,-0.00002406,0.00015598,-0.00000489,0.00000180,-0.00000156,-0.00000
 086,0.00000010,-0.00000071,0.00000145,0.00000075,-0.00000089,0.0000014
 0,0.00000113,-0.00000035,0.00000045,0.00000319,-0.00000011,0.00000241,
 0.00000513,-0.00000210,0.00045127,0.00032113,0.00012061,0.00203048,0.1
 2745210,0.00008055,-0.00000802,-0.00003091,-0.00020472,0.00005447,0.00
 007761,0.00008097,-0.00000666,-0.00000341,-0.00002578,0.00001321,0.000
 01991,0.00001186,-0.00000090,0.00001086,-0.00000289,0.00000496,0.00000
 780,0.00000461,0.00000357,0.00000215,0.00000521,0.00000285,-0.00000142
 ,0.00000337,-0.00000783,-0.00000458,0.00000526,-0.00000264,-0.00000236
 ,-0.00000027,0.00000592,-0.00001244,0.00002875,0.00000308,-0.00000643,
 -0.00007295,-0.00015462,-0.00012815,0.00000913,0.00010046,0.00009938,0
 .00035484,-0.00003185,0.00007464,-0.00135128,0.00183408,-0.00035428,-0
 .00186958,-0.00685163,-0.00747968,-0.00430367,-0.13790937,-0.24178733,
 0.00193271,-0.00743195,-0.00665864,-0.00271393,-0.00336283,0.00313649,
 0.00010115,0.00071902,0.00007017,0.00216325,-0.00214926,0.00239961,-0.
 00065179,-0.00039918,-0.00046413,0.00018934,0.00015462,0.00011957,-0.0
 0000696,-0.00000129,0.00000022,-0.00000126,-0.00000071,-0.00000061,0.0
 0000211,-0.00000102,0.00000005,0.00000207,-0.00000043,0.00000093,0.000
 00031,-0.00000014,0.00000309,0.00000240,-0.00000223,0.00000351,0.00063
 123,0.00005734,0.00039228,0.00533860,0.15267755,0.25230359,-0.00005733
 ,0.00003274,0.00004483,0.00012292,-0.00003193,-0.00004447,-0.00004857,
 -0.00001241,-0.00001684,0.00000131,-0.00000546,-0.00000781,0.00000146,
 -0.00000267,-0.00000386,-0.00000870,-0.00000568,-0.00000931,-0.0000046
 9,0.00000210,0.00000322,-0.00000314,-0.00000042,-0.00000127,-0.0000053
 2,0.00000801,0.00001296,-0.00000499,0.00000090,0.00000077,0.00000853,0
 .00002029,0.00002925,-0.00010961,-0.00000966,-0.00002739,0.00021727,0.
 00015254,0.00024069,-0.00008888,-0.00007755,-0.00011895,-0.00063770,-0
 .00014446,-0.00020354,-0.00040842,0.00064136,0.00091582,-0.00259829,-0
 .00187555,-0.00359124,-0.01924040,0.00983889,0.01300839,-0.26376828,0.
 07484916,0.09558742,0.00433252,-0.00161349,-0.00229796,0.00153507,-0.0
 0027928,-0.00068511,0.00003713,-0.00036011,-0.00048552,0.00017401,0.00
 001848,0.00010192,-0.00004514,-0.00007925,-0.00013733,0.00000158,0.000
 00121,0.00000171,0.00000073,0.00000145,0.00000211,-0.00000301,0.000000
 81,0.00000093,-0.00000407,-0.00000028,-0.00000082,0.00000121,-0.000001
 40,-0.00000210,0.00000654,-0.00000111,-0.00000143,0.00001123,-0.000003
 30,-0.00001669,0.00094638,-0.00032149,-0.00006840,0.27893753,0.0000225
 8,-0.00000564,-0.00000333,-0.00003783,0.00005741,-0.00003658,0.0000092
 2,-0.00004908,0.00003529,0.00000519,0.00000002,0.00000486,-0.00000485,
 -0.00000105,-0.00000145,0.00000511,0.00000354,-0.00000009,-0.00000147,
 -0.00000566,0.00000038,-0.00000066,0.00000623,0.00000015,0.00000341,-0
 .00001528,0.00000797,-0.00000514,0.00000277,-0.00000116,0.00000184,0.0
 0001610,-0.00000852,0.00000082,0.00004572,-0.00004753,-0.00008954,0.00
 001967,-0.00000243,0.00002264,-0.00001048,0.00004030,-0.00012290,-0.00
 049602,0.00044204,-0.00010696,0.00026774,0.00018682,-0.00147667,0.0059
 0951,-0.00461654,-0.00764833,0.00646849,0.00292548,0.07520176,-0.07119
 522,-0.04488346,0.01571974,-0.00182627,-0.00590618,-0.00068530,0.00201
 499,-0.00511412,-0.00062785,-0.00056650,0.00013595,0.00019891,-0.00060
 333,0.00045009,-0.00005051,0.00007912,-0.00023614,-0.00000168,0.000001
 89,-0.00000164,-0.00000034,0.00000075,-0.00000102,0.00000081,0.0000003
 2,-0.00000083,0.00000075,0.00000126,-0.00000064,-0.00000022,0.00000126
 ,-0.00000026,-0.00000107,0.00000260,-0.00000138,0.00001448,0.00012098,
 -0.00008641,0.00003429,-0.00314172,0.00267843,-0.08076361,0.06459278,0
 .00002976,-0.00000262,-0.00000416,-0.00005333,-0.00003616,0.00002274,0
 .00001539,0.00003378,-0.00002108,0.00000803,0.00000412,0.00000367,-0.0
 0000709,-0.00000131,-0.00000273,0.00000672,-0.00000084,0.00000306,-0.0
 0000210,0.00000063,-0.00000520,-0.00000162,0.00000016,0.00000623,0.000
 00614,0.00000830,-0.00000773,-0.00000823,-0.00000074,0.00000164,0.0000
 0180,-0.00000724,0.00001128,-0.00001186,-0.00004824,0.00000516,-0.0001
 1923,0.00001438,0.00003022,0.00003002,0.00003335,0.00001515,-0.0001716
 2,0.00044050,-0.00015589,-0.00019684,0.00023897,0.00047862,-0.00299843
 ,-0.00464370,0.00183087,-0.01299795,0.00414079,0.00939913,0.09611220,-
 0.04490779,-0.09760438,0.02347790,-0.00711081,-0.00606339,-0.00128883,
 -0.00508570,-0.00223134,-0.00088371,0.00015416,-0.00051929,0.00037054,
 0.00043746,-0.00022036,-0.00009454,-0.00023820,-0.00012520,-0.00000260
 ,-0.00000143,0.00000059,-0.00000056,-0.00000089,0.00000005,0.00000093,
 -0.00000083,-0.00000025,0.00000071,-0.00000071,0.00000071,-0.00000035,
 -0.00000034,0.00000090,-0.00000137,-0.00000138,0.00000133,0.00000985,-
 0.00008758,0.00005016,0.00046085,0.00265374,-0.00096246,-0.10249194,0.
 05263853,0.09657962,-0.00008487,0.00008337,0.00012056,0.00021203,-0.00
 016893,-0.00023753,-0.00010812,0.00002335,0.00002177,0.00000715,-0.000
 01943,-0.00002991,-0.00000468,-0.00000026,-0.00000095,-0.00000612,-0.0
 0000888,-0.00001221,-0.00000302,0.00000120,0.00000115,-0.00000474,-0.0
 0000219,-0.00000317,-0.00000859,0.00000671,0.00000911,0.00000193,0.000
 00244,0.00000379,0.00000132,0.00000529,0.00000816,-0.00004841,0.000011
 92,0.00001938,0.00012710,0.00002645,0.00004257,-0.00006062,-0.00002799
 ,-0.00004566,-0.00003584,0.00009205,0.00011807,0.00015526,-0.00008854,
 -0.00005851,0.00009779,0.00030181,0.00050316,0.00160488,0.00038083,0.0
 0030103,0.00338974,0.00126250,0.00191321,-0.27234999,-0.05712691,-0.10
 128259,-0.01925129,-0.00770597,-0.01308433,-0.00233164,0.00263381,0.00
 313235,-0.00043937,-0.00058395,-0.00090829,-0.00061994,0.00014901,0.00
 023396,0.00000666,0.00000078,0.00000138,0.00000131,0.00000140,0.000002
 07,-0.00000407,0.00000074,0.00000070,-0.00000310,-0.00000051,-0.000001
 03,0.00000066,-0.00000143,-0.00000218,0.00000162,-0.00000117,-0.000001
 82,-0.00001073,-0.00000717,-0.00001428,0.00002562,0.00010495,0.0001530
 2,0.00064557,-0.00033689,-0.00026585,0.28814429,-0.00001685,-0.0000156
 0,0.00002996,0.00007323,0.00002637,0.00001883,0.00001285,0.00004380,-0
 .00004952,-0.00000096,0.00001788,-0.00000604,0.00000578,0.00000236,-0.
 00000102,-0.00000429,-0.00001424,0.00000898,0.00000144,0.00000607,0.00
 000006,0.00000139,-0.00000560,0.00000067,-0.00000407,0.00000341,-0.000
 00093,0.00000461,-0.00000166,-0.00000172,-0.00000536,0.,0.00000412,-0.
 00000977,-0.00004934,0.00003364,0.00003243,0.00005207,-0.00003982,-0.0
 0001786,-0.00000137,0.00000024,0.00006328,0.00006702,-0.00024620,-0.00
 026892,-0.00057905,0.00045389,0.00056891,-0.00064505,0.00010190,0.0007
 8687,0.00192436,-0.00514574,-0.01606867,-0.00060075,-0.00629101,-0.057
 48246,-0.05998183,-0.03742243,0.00978320,0.00647575,0.00414331,0.00223
 487,0.00556172,-0.00487622,0.00016436,0.00030824,0.00026569,0.00012736
 ,-0.00051907,0.00042512,0.00000074,0.00000245,-0.00000149,0.00000022,0
 .00000113,-0.00000043,-0.00000029,0.00000126,-0.00000071,-0.00000051,0
 .00000044,-0.00000076,0.00000036,0.00000084,-0.00000083,0.00000173,0.0
 0000184,-0.00000146,0.00004028,0.00004043,0.00000108,-0.00076837,-0.00
 012023,-0.00033624,0.00012668,-0.00156446,0.00174820,0.06103815,0.0525
 7377,-0.00002840,0.00003691,0.00001638,0.00012240,0.00000200,0.0000286
 3,0.00000621,-0.00004879,0.00000558,-0.00000246,-0.00000731,0.00001084
 ,0.00000805,-0.00000144,0.00000174,-0.00000539,0.00000867,-0.00000797,
 0.00000151,0.00000005,0.00000627,0.00000215,0.00000042,-0.00000521,-0.
 00000692,-0.00000018,0.00000308,0.00000701,-0.00000188,-0.00000258,-0.
 00000768,0.00000487,0.00000367,-0.00001283,0.00003515,-0.00002103,0.00
 005146,-0.00004027,0.00002406,-0.00003061,-0.00000046,-0.00000518,0.00
 007521,-0.00024427,-0.00012239,-0.00032705,0.00046632,-0.00022600,0.00
 090131,0.00008296,-0.00050102,0.00090439,-0.00517379,-0.00220987,-0.02
 385880,-0.00508550,-0.00634326,-0.10181178,-0.03739816,-0.10020006,0.0
 1292286,0.00292717,0.00939779,0.00253996,-0.00484878,0.00191113,0.0002
 0408,0.00021378,0.00046936,0.00020202,0.00042662,-0.00015053,0.0000013
 2,-0.00000148,0.00000137,0.00000033,-0.00000035,0.00000093,-0.00000083
 ,-0.00000064,0.00000071,-0.00000104,-0.00000076,-0.00000028,0.00000049
 ,-0.00000096,0.00000003,0.00000248,-0.00000166,0.00000060,0.00005626,-
 0.00000220,0.00004222,-0.00114567,-0.00027561,-0.00041939,0.00042278,0
 .00171646,-0.00015276,0.10903418,0.04461516,0.09935807,0.00010985,0.00
 007034,0.00011573,-0.00013712,-0.00007485,-0.00012836,0.00006024,-0.00
 000344,-0.00000004,-0.00001316,0.00001180,0.00001813,-0.00000081,0.000
 00126,0.00000174,0.00000067,0.00000227,0.00000294,-0.00000217,0.000000
 62,0.00000120,0.00000116,0.00000369,0.00000581,0.00000920,-0.00000077,
 -0.00000054,-0.00001169,0.00000279,0.00000253,0.00002489,0.00001124,0.
 00001830,-0.00004295,-0.00001235,-0.00002143,0.00010880,0.00001591,0.0
 0003046,-0.00008026,0.00001945,0.00002504,0.00008940,-0.00010904,-0.00
 014725,0.00040110,-0.00085154,-0.00125049,-0.00473543,-0.00037519,-0.0
 0126583,-0.00090853,0.00001580,0.00003018,-0.00438129,0.00155163,0.001
 42417,0.00477201,0.01585980,0.02362183,-0.05858774,-0.00238554,-0.0050
 9468,0.00298308,-0.01557128,-0.02315009,0.00141620,-0.00093402,-0.0010
 8523,0.00017280,0.00024956,0.00037647,-0.00001047,0.00000079,-0.000000
 02,-0.00000187,0.00000045,0.00000031,0.00000121,-0.00000022,-0.0000003
 5,0.00000066,0.00000036,0.00000049,0.00000080,0.00000081,0.00000122,0.
 00000743,0.00000061,0.00000124,-0.00035583,-0.00006403,-0.00013135,0.0
 0013613,-0.00004594,0.00001774,0.00006813,0.00075604,0.00112417,0.0009
 4096,-0.00041631,-0.00020925,0.05833078,-0.00000782,0.00001453,0.00009
 638,0.00005136,0.00000192,-0.00015249,-0.00002192,-0.00000915,0.000004
 15,0.00000014,-0.00001773,0.00000523,-0.00000356,-0.00000036,-0.000002
 48,-0.00000237,0.00000169,-0.00000781,-0.00000352,-0.00000383,0.000003
 00,-0.00000311,-0.00000097,0.00000353,0.00000183,0.00000381,0.00000487
 ,-0.00000711,0.00001135,-0.00000056,0.00001697,0.00000900,0.00001154,-
 0.00005290,0.00000148,-0.00000277,0.00013588,0.00003513,0.00004551,-0.
 00005219,-0.00002612,-0.00000587,-0.00012827,-0.00000485,0.00016752,0.
 00041107,-0.00009742,-0.00037622,-0.00115840,0.00414221,-0.00201976,-0
 .00003983,-0.00051884,0.00072176,0.00215401,0.00585817,-0.00352014,-0.
 00164122,-0.00121510,-0.00825175,-0.00228479,-0.12899215,-0.13783608,0
 .00094653,-0.00126745,-0.00605123,0.00081793,-0.00179978,0.00182729,-0
 .00024206,0.00008667,-0.00003285,-0.00000105,0.00000527,-0.00000213,-0
 .00000002,0.00000319,-0.00000014,-0.00000140,0.00000126,-0.00000034,-0
 .00000143,0.00000084,-0.00000095,0.00000081,-0.00000004,-0.00000080,0.
 00000443,0.00000134,-0.00000161,-0.00008908,0.00010009,-0.00010173,-0.
 00003861,-0.00078900,0.00046180,-0.00011720,-0.00017532,-0.00037322,-0
 .00006033,-0.00313396,0.00268421,0.00181636,0.12745323,-0.00000051,0.0
 0010188,0.00010076,0.00005938,-0.00016139,-0.00012882,-0.00002748,0.00
 000546,-0.00000681,0.00000075,0.00000603,-0.00001220,-0.00000543,-0.00
 000214,-0.00000242,-0.00000396,-0.00000750,-0.00000459,-0.00000496,0.0
 0000329,-0.00000146,-0.00000430,0.00000400,0.00000216,0.00000330,0.000
 00470,0.00000783,-0.00001217,0.00000013,0.00001075,0.00002685,0.000011
 15,0.00002048,-0.00008175,0.00000004,-0.00000476,0.00020901,0.00003720
 ,0.00008075,-0.00008155,-0.00000093,-0.00003166,-0.00017582,0.00016865
 ,0.00011507,0.00062678,-0.00046406,-0.00047174,-0.00243023,-0.00196478
 ,0.00235506,-0.00005303,0.00072544,0.00006918,0.00232015,-0.00356143,0
 .00319057,-0.00240386,-0.00703417,-0.00637137,-0.00494542,-0.13784207,
 -0.24173403,0.00141653,-0.00720004,-0.00775843,0.00152616,0.00170029,-
 0.00035104,-0.00035454,0.00000155,0.00007504,-0.00000276,-0.00000201,0
 .00000348,-0.00000038,-0.00000011,0.00000309,-0.00000210,-0.00000026,0
 .00000090,-0.00000218,-0.00000083,0.00000003,0.00000122,-0.00000080,-0
 .00000057,0.00000692,-0.00000187,0.00000033,-0.00016869,-0.00009998,0.
 00000394,0.00002858,0.00046129,-0.00041337,-0.00017443,-0.00031241,-0.
 00040660,0.00031991,0.00265925,-0.00096505,0.00503150,0.15264669,0.252
 23374,0.00013259,0.00126408,0.00189816,-0.00016340,-0.00183027,-0.0023
 9203,0.00059440,0.00021105,0.00033141,-0.00005285,0.00010960,0.0001549
 0,-0.00005253,0.00000386,0.00000460,0.00001952,0.00000938,0.00001736,-
 0.00002540,-0.00000162,-0.00000448,0.00000088,0.00003287,0.00004924,0.
 00006723,-0.00000025,0.00000459,-0.00008668,0.00003107,0.00003940,0.00
 018331,0.00009234,0.00015100,-0.00013156,-0.00006556,-0.00010498,0.001
 74107,-0.00060859,-0.00084539,-0.00085842,-0.00033704,-0.00052599,-0.0
 0529186,-0.00043355,-0.00152679,-0.00103689,0.00002650,0.00004111,-0.0
 0424044,0.00111737,0.00097401,0.00026448,0.00068432,0.00105087,0.00016
 697,0.00013426,0.00021793,0.00023550,-0.00026810,-0.00037810,0.0013747
 2,0.00055686,0.00114785,0.00354191,0.01472918,0.02186763,-0.05747656,0
 .00054035,-0.00044810,0.00506056,-0.01575897,-0.02342288,-0.00009766,0
 .00000649,-0.00000118,-0.00001036,0.00000241,0.00000239,0.00000654,-0.
 00000107,-0.00000137,0.00000163,0.00000172,0.00000247,0.00000743,0.000
 00442,0.00000692,0.00005835,0.00000305,0.00000881,0.00008426,-0.000030
 61,0.00001080,-0.00034330,0.00012792,0.00015498,-0.00001258,-0.0000357
 7,-0.00005695,0.00001122,-0.00000405,-0.00001773,-0.00036619,-0.000399
 13,-0.00064146,0.05669412,0.00136615,0.00021191,0.00055641,0.00046673,
 -0.00413076,0.00129198,-0.00012713,0.00020275,-0.00021337,0.00000305,0
 .00002721,-0.00005341,-0.00000373,-0.00001742,0.00002826,-0.00000723,-
 0.00002273,0.00000983,-0.00000262,0.00000428,0.00000006,-0.00000325,-0
 .00000241,0.00000266,0.00000128,-0.00000012,0.00000591,-0.00000521,0.0
 0000748,-0.00000554,0.00001656,-0.00000495,0.00001306,-0.00007179,-0.0
 0001084,0.00001434,0.00032216,0.00053873,-0.00049457,-0.00012653,-0.00
 041791,0.00011447,-0.00099279,0.00543394,-0.00298991,0.00019190,-0.000
 58469,0.00072545,0.00142613,0.00407550,-0.00223309,-0.00028169,-0.0003
 2372,-0.00018476,0.00000036,-0.00002751,0.00010250,0.00010023,-0.00001
 797,0.00006924,-0.00099390,-0.00187310,0.00186373,-0.00090204,-0.00082
 672,-0.00736106,-0.00029236,-0.13192085,-0.13740051,-0.00073361,-0.000
 06548,-0.00740358,0.00000614,0.00004939,-0.00001128,0.00000057,0.00000
 514,-0.00000223,-0.00000111,0.00000260,-0.00000139,-0.00000117,0.00000
 184,-0.00000166,0.00000061,0.00000134,-0.00000187,0.00000306,-0.000005
 67,-0.00000412,-0.00002552,-0.00053421,0.00028245,0.00010286,0.0000838
 6,-0.00011258,0.00001169,0.00004288,0.00000269,0.00001377,0.00012100,-
 0.00008626,0.00045295,0.00032090,0.00011975,0.00008547,0.12965631,0.00
 203266,0.00054216,0.00084983,0.00103510,0.00113321,-0.00322114,-0.0001
 7086,-0.00018943,0.00004645,-0.00000356,-0.00004603,-0.00000530,-0.000
 00663,0.00002881,0.00000577,-0.00000735,0.00001099,-0.00001383,-0.0000
 0594,0.00000013,0.00000392,-0.00000445,0.00000518,0.00000303,0.0000068
 6,0.00000579,0.00000507,-0.00001454,-0.00000302,0.00000546,0.00003834,
 0.00001835,0.00001699,-0.00011441,0.00001465,-0.00001002,0.00053900,-0
 .00055940,0.00009200,-0.00021331,0.00009973,-0.00036729,-0.00235899,-0
 .00295145,0.00284622,0.00028599,0.00071426,0.00001806,0.00143345,-0.00
 225371,0.00239236,-0.00038575,-0.00011749,-0.00041430,0.00001905,0.000
 11193,0.00007143,0.00016990,0.00004364,0.00001639,-0.00116678,0.001970
 94,-0.00032135,-0.00137338,-0.00626997,-0.00534327,-0.00168723,-0.1373
 4001,-0.24385458,-0.00107501,-0.00844629,-0.00775218,-0.00000161,-0.00
 001130,0.00004040,-0.00000035,-0.00000211,0.00000352,-0.00000143,-0.00
 000138,0.00000133,-0.00000182,-0.00000146,0.00000061,0.00000124,-0.000
 00160,0.00000033,0.00000882,-0.00000412,-0.00000827,0.00001826,0.00028
 214,-0.00030462,0.00011762,-0.00011084,0.00000773,0.00001360,-0.000000
 63,0.00004168,0.00000880,-0.00008752,0.00005011,0.00063369,0.00005745,
 0.00039177,0.00223102,0.15335841,0.25470572\\-0.00003384,0.00002185,0.
 00003786,-0.00003995,-0.00002353,-0.00006179,0.00002924,-0.00005936,-0
 .00007894,0.00000450,0.00004555,0.00006735,-0.00006997,-0.00007013,-0.
 00011040,0.00019769,0.00002614,0.00005152,-0.00011079,-0.00009427,-0.0
 0014926,-0.00000220,0.00010175,0.00015044,0.00012723,-0.00001247,-0.00
 000971,-0.00013517,0.00007506,0.00010112,0.00003937,-0.00002399,-0.000
 03243,0.00002700,0.00003494,0.00006191,-0.00004716,0.00004757,0.000042
 47,0.00007428,-0.00001036,0.00000103,-0.00010433,0.00009800,0.00014670
 ,0.00008643,-0.00004172,-0.00005488,-0.00004337,0.00006291,0.00009118,
 0.00008908,-0.00001631,-0.00001693,-0.00008399,-0.00009313,-0.00014291
 ,-0.00005447,0.00010517,0.00015339,0.00006882,0.00004261,0.00006824,-0
 .00013660,-0.00010323,-0.00016306,0.00007634,0.00005719,0.00009031,0.0
 0000284,-0.00013512,-0.00019296,-0.00000884,-0.00000361,-0.00000753,-0
 .00002242,-0.00001273,-0.00002237,0.00000412,-0.00000014,-0.00000144,-
 0.00002234,-0.00000592,-0.00001094,-0.00000885,0.00000850,0.00001207,0
 .00000988,0.00001159,0.00001837,0.00000886,0.00001226,0.00002012,-0.00
 000396,0.00000476,0.00000852,0.00003268,0.00001278,0.00002287,0.000027
 86,-0.00002623,-0.00003647,0.00001566,-0.00001973,-0.00002843,0.000006
 38,-0.00001663,-0.00002500\\\@


 EXPERIMENTALISTS THINK SILICON IS REALLY FUN TO USE
     ITS PLACE IN NOVEL COMPOUNDS IS CERTAIN TO AMUSE
 THEY SIT ALL DAY IN LABORATORIES MAKING ALL THIS SLUDGE
     "LOADED WITH THE SILICON THEY SAY", TO ME IT LOOKS LIKE FUDGE.
 FOR HAPPY THOUGH THEY BE WITH CRUD, I'D LIKE TO KNOW A LITTLE
      ABOUT THE PI BONDS ON THE EDGE AND SIGMAS IN THE MIDDLE.

 SO LETS DERIVE A WAVEFUNCTION.....6-31G*
     USE AN OPTIMAL GEOMETRY AND SEE WHERE ELECTRONS ARE.
 BUT WHAT OF CORRELATION?  ASKS THE WIRY LITTLE SKEPTIC.
     WE'LL THROW IN PERTURBATION AS AN ELECTRON ANTISEPTIC.
 AND WHEN THE PROGRAM GIVES US ANSWERS IN THEM WE CAN TRUST
     SINCE NOBODY CAN MAKE THE STUFF, WE HAVE NO CHOICE, WE MUST.

 SO THEORY GUYS HAVE GOT IT MADE, IN ROOMS FREE OF POLLUTION.
     INSTEAD OF PROBLEMS WITH THE REFLUX, THEY HAVE ONLY SOLUTIONS.
 AND WHEN THE FEDS ANNOUNCE THE LIST OF CARCINOGENIC TERRORS,
     THE THEORISTS SIT SAFELY AT THEIR TERMINALS FIXING ERRORS.
 IN OTHER WORDS, EXPERIMENTALISTS WILL LIKELY DIE OF CANCER
     FROM WORKING HARD YET FRUITLESSLY...TILL THEORY GIVES THE ANSWER.
          -- THOMAS A. HOLME, 1983
 Job cpu time:       0 days 14 hours 24 minutes  7.9 seconds.
 Elapsed time:       0 days  1 hours 48 minutes 44.8 seconds.
 File lengths (MBytes):  RWF=   2415 Int=      0 D2E=      0 Chk=     39 Scr=      1
 Normal termination of Gaussian 16 at Wed Dec 27 21:41:14 2023.
