 Entering Gaussian System, Link 0=g16
 Input=157-an-new-PCM.com
 Output=157-an-new-PCM.log
 Initial command:
 /sysapps/ubuntu-applications/gaussian/Gaussian/AVX2/g16/l1.exe "/scratch/selhajj1/4296322/Gau-549835.inp" -scrdir="/scratch/selhajj1/4296322/"
 Entering Link 1 = /sysapps/ubuntu-applications/gaussian/Gaussian/AVX2/g16/l1.exe PID=    549837.
  
 Copyright (c) 1988,1990,1992,1993,1995,1998,2003,2009,2016,
            Gaussian, Inc.  All Rights Reserved.
  
 This is part of the Gaussian(R) 16 program.  It is based on
 the Gaussian(R) 09 system (copyright 2009, Gaussian, Inc.),
 the Gaussian(R) 03 system (copyright 2003, Gaussian, Inc.),
 the Gaussian(R) 98 system (copyright 1998, Gaussian, Inc.),
 the Gaussian(R) 94 system (copyright 1995, Gaussian, Inc.),
 the Gaussian 92(TM) system (copyright 1992, Gaussian, Inc.),
 the Gaussian 90(TM) system (copyright 1990, Gaussian, Inc.),
 the Gaussian 88(TM) system (copyright 1988, Gaussian, Inc.),
 the Gaussian 86(TM) system (copyright 1986, Carnegie Mellon
 University), and the Gaussian 82(TM) system (copyright 1983,
 Carnegie Mellon University). Gaussian is a federally registered
 trademark of Gaussian, Inc.
  
 This software contains proprietary and confidential information,
 including trade secrets, belonging to Gaussian, Inc.
  
 This software is provided under written license and may be
 used, copied, transmitted, or stored only in accord with that
 written license.
  
 The following legend is applicable only to US Government
 contracts under FAR:
  
                    RESTRICTED RIGHTS LEGEND
  
 Use, reproduction and disclosure by the US Government is
 subject to restrictions as set forth in subparagraphs (a)
 and (c) of the Commercial Computer Software - Restricted
 Rights clause in FAR 52.227-19.
  
 Gaussian, Inc.
 340 Quinnipiac St., Bldg. 40, Wallingford CT 06492
  
  
 ---------------------------------------------------------------
 Warning -- This program may not be used in any manner that
 competes with the business of Gaussian, Inc. or will provide
 assistance to any competitor of Gaussian, Inc.  The licensee
 of this program is prohibited from giving any competitor of
 Gaussian, Inc. access to this program.  By using this program,
 the user acknowledges that Gaussian, Inc. is engaged in the
 business of creating and licensing software in the field of
 computational chemistry and represents and warrants to the
 licensee that it is not a competitor of Gaussian, Inc. and that
 it will not use this program in any manner prohibited above.
 ---------------------------------------------------------------
  

 Cite this work as:
 Gaussian 16, Revision A.03,
 M. J. Frisch, G. W. Trucks, H. B. Schlegel, G. E. Scuseria, 
 M. A. Robb, J. R. Cheeseman, G. Scalmani, V. Barone, 
 G. A. Petersson, H. Nakatsuji, X. Li, M. Caricato, A. V. Marenich, 
 J. Bloino, B. G. Janesko, R. Gomperts, B. Mennucci, H. P. Hratchian, 
 J. V. Ortiz, A. F. Izmaylov, J. L. Sonnenberg, D. Williams-Young, 
 F. Ding, F. Lipparini, F. Egidi, J. Goings, B. Peng, A. Petrone, 
 T. Henderson, D. Ranasinghe, V. G. Zakrzewski, J. Gao, N. Rega, 
 G. Zheng, W. Liang, M. Hada, M. Ehara, K. Toyota, R. Fukuda, 
 J. Hasegawa, M. Ishida, T. Nakajima, Y. Honda, O. Kitao, H. Nakai, 
 T. Vreven, K. Throssell, J. A. Montgomery, Jr., J. E. Peralta, 
 F. Ogliaro, M. J. Bearpark, J. J. Heyd, E. N. Brothers, K. N. Kudin, 
 V. N. Staroverov, T. A. Keith, R. Kobayashi, J. Normand, 
 K. Raghavachari, A. P. Rendell, J. C. Burant, S. S. Iyengar, 
 J. Tomasi, M. Cossi, J. M. Millam, M. Klene, C. Adamo, R. Cammi, 
 J. W. Ochterski, R. L. Martin, K. Morokuma, O. Farkas, 
 J. B. Foresman, and D. J. Fox, Gaussian, Inc., Wallingford CT, 2016.
 
 ******************************************
 Gaussian 16:  ES64L-G16RevA.03 25-Dec-2016
                17-Jan-2024 
 ******************************************
 %chk=157-an-PCM.chk
 %nproc=8
 Will use up to    8 processors via shared memory.
 %mem=30GB
 ----------------------------------------------------------------
 #P UB3LYP/6-311++G(d,p) SCRF=(PCM,Solvent=n,n-DiMethylFormamide)
 ----------------------------------------------------------------
 1/38=1,172=1/1;
 2/12=2,17=6,18=5,40=1/2;
 3/5=4,6=6,7=1111,11=2,25=1,30=1,70=2201,72=148,74=-5,116=2/1,2,3;
 4//1;
 5/5=2,38=5,53=148/2;
 6/7=2,8=2,9=2,10=2,28=1/1;
 99/5=1,9=1/99;
 Leave Link    1 at Wed Jan 17 09:25:38 2024, MaxMem=  4026531840 cpu:               0.8 elap:               0.1
 (Enter /sysapps/ubuntu-applications/gaussian/Gaussian/AVX2/g16/l101.exe)
 -------
 Reduced
 -------
 Symbolic Z-matrix:
 Charge = -2 Multiplicity = 1
 C                    -1.68718   1.96166  -5.16399 
 C                    -1.61725   0.64323  -5.54287 
 C                    -1.31272  -0.36979  -4.59222 
 C                    -1.45787   2.36524  -3.80676 
 C                    -1.14858   1.33194  -2.84424 
 C                    -1.08729  -0.00928  -3.27829 
 C                    -1.53036   3.71074  -3.42506 
 C                    -0.90052   1.64531  -1.44666 
 C                    -1.2986    4.08319  -2.07671 
 C                    -0.98688   3.0612   -1.09933 
 C                    -1.35449   5.44477  -1.60751 
 C                    -1.1195    5.75623  -0.2829 
 C                    -0.81537   4.74798   0.65959 
 C                    -0.75564   3.43782   0.24076 
 O                    -1.83124   4.63956  -4.41061 
 O                    -0.6283    0.75304  -0.58963 
 N                    -1.66622   6.50871  -2.55904 
 H                    -1.91923   2.73387  -5.8879 
 H                    -1.79698   0.3718   -6.58142 
 H                    -1.25912  -1.41096  -4.89962 
 H                    -0.85179  -0.74981  -2.5205 
 S                    -1.20598   7.50218   0.26096 
 H                    -0.63763   5.03582   1.68797 
 H                    -1.83322   5.51739  -3.94877 
 H                    -2.47738   7.01197  -2.19633 
 H                    -0.52549   2.63608   0.93398 
 O                    -2.59977   7.94039  -0.06232 
 O                    -0.90247   7.49524   1.71445 
 O                    -0.18244   8.21636  -0.56529 
 H                    -0.9191    7.2021   -2.49359 
 
 ITRead=  0  0  0  0  0  0  0  0  0  0  0  0  0  0  0  0  0  0  0  0
 ITRead=  0  0  0  0  0  0  0  0  0  0
 MicOpt= -1 -1 -1 -1 -1 -1 -1 -1 -1 -1 -1 -1 -1 -1 -1 -1 -1 -1 -1 -1
 MicOpt= -1 -1 -1 -1 -1 -1 -1 -1 -1 -1
 NAtoms=     30 NQM=       30 NQMF=       0 NMMI=      0 NMMIF=      0
                NMic=       0 NMicF=      0.
                    Isotopes and Nuclear Properties:
 (Nuclear quadrupole moments (NQMom) in fm**2, nuclear magnetic moments (NMagM)
  in nuclear magnetons)

  Atom         1           2           3           4           5           6           7           8           9          10
 IAtWgt=          12          12          12          12          12          12          12          12          12          12
 AtmWgt=  12.0000000  12.0000000  12.0000000  12.0000000  12.0000000  12.0000000  12.0000000  12.0000000  12.0000000  12.0000000
 NucSpn=           0           0           0           0           0           0           0           0           0           0
 AtZEff=  -0.0000000  -0.0000000  -0.0000000  -0.0000000  -0.0000000  -0.0000000  -0.0000000  -0.0000000  -0.0000000  -0.0000000
 NQMom=    0.0000000   0.0000000   0.0000000   0.0000000   0.0000000   0.0000000   0.0000000   0.0000000   0.0000000   0.0000000
 NMagM=    0.0000000   0.0000000   0.0000000   0.0000000   0.0000000   0.0000000   0.0000000   0.0000000   0.0000000   0.0000000
 AtZNuc=   6.0000000   6.0000000   6.0000000   6.0000000   6.0000000   6.0000000   6.0000000   6.0000000   6.0000000   6.0000000

  Atom        11          12          13          14          15          16          17          18          19          20
 IAtWgt=          12          12          12          12          16          16          14           1           1           1
 AtmWgt=  12.0000000  12.0000000  12.0000000  12.0000000  15.9949146  15.9949146  14.0030740   1.0078250   1.0078250   1.0078250
 NucSpn=           0           0           0           0           0           0           2           1           1           1
 AtZEff=  -0.0000000  -0.0000000  -0.0000000  -0.0000000  -0.0000000  -0.0000000  -0.0000000  -0.0000000  -0.0000000  -0.0000000
 NQMom=    0.0000000   0.0000000   0.0000000   0.0000000   0.0000000   0.0000000   2.0440000   0.0000000   0.0000000   0.0000000
 NMagM=    0.0000000   0.0000000   0.0000000   0.0000000   0.0000000   0.0000000   0.4037610   2.7928460   2.7928460   2.7928460
 AtZNuc=   6.0000000   6.0000000   6.0000000   6.0000000   8.0000000   8.0000000   7.0000000   1.0000000   1.0000000   1.0000000

  Atom        21          22          23          24          25          26          27          28          29          30
 IAtWgt=           1          32           1           1           1           1          16          16          16           1
 AtmWgt=   1.0078250  31.9720718   1.0078250   1.0078250   1.0078250   1.0078250  15.9949146  15.9949146  15.9949146   1.0078250
 NucSpn=           1           0           1           1           1           1           0           0           0           1
 AtZEff=  -0.0000000  -0.0000000  -0.0000000  -0.0000000  -0.0000000  -0.0000000  -0.0000000  -0.0000000  -0.0000000  -0.0000000
 NQMom=    0.0000000   0.0000000   0.0000000   0.0000000   0.0000000   0.0000000   0.0000000   0.0000000   0.0000000   0.0000000
 NMagM=    2.7928460   0.0000000   2.7928460   2.7928460   2.7928460   2.7928460   0.0000000   0.0000000   0.0000000   2.7928460
 AtZNuc=   1.0000000  16.0000000   1.0000000   1.0000000   1.0000000   1.0000000   8.0000000   8.0000000   8.0000000   1.0000000
 Leave Link  101 at Wed Jan 17 09:25:39 2024, MaxMem=  4026531840 cpu:               1.7 elap:               0.3
 (Enter /sysapps/ubuntu-applications/gaussian/Gaussian/AVX2/g16/l202.exe)
                          Input orientation:                          
 ---------------------------------------------------------------------
 Center     Atomic      Atomic             Coordinates (Angstroms)
 Number     Number       Type             X           Y           Z
 ---------------------------------------------------------------------
      1          6           0       -1.687184    1.961661   -5.163994
      2          6           0       -1.617253    0.643232   -5.542870
      3          6           0       -1.312718   -0.369785   -4.592224
      4          6           0       -1.457870    2.365240   -3.806760
      5          6           0       -1.148583    1.331940   -2.844236
      6          6           0       -1.087291   -0.009284   -3.278295
      7          6           0       -1.530362    3.710737   -3.425057
      8          6           0       -0.900521    1.645312   -1.446656
      9          6           0       -1.298604    4.083195   -2.076713
     10          6           0       -0.986875    3.061199   -1.099326
     11          6           0       -1.354489    5.444768   -1.607512
     12          6           0       -1.119496    5.756229   -0.282902
     13          6           0       -0.815371    4.747983    0.659586
     14          6           0       -0.755635    3.437822    0.240764
     15          8           0       -1.831244    4.639563   -4.410608
     16          8           0       -0.628298    0.753044   -0.589634
     17          7           0       -1.666215    6.508711   -2.559041
     18          1           0       -1.919226    2.733870   -5.887902
     19          1           0       -1.796979    0.371798   -6.581423
     20          1           0       -1.259115   -1.410961   -4.899615
     21          1           0       -0.851786   -0.749811   -2.520499
     22         16           0       -1.205977    7.502177    0.260960
     23          1           0       -0.637634    5.035825    1.687972
     24          1           0       -1.833220    5.517394   -3.948772
     25          1           0       -2.477378    7.011974   -2.196327
     26          1           0       -0.525493    2.636079    0.933983
     27          8           0       -2.599770    7.940390   -0.062321
     28          8           0       -0.902466    7.495239    1.714446
     29          8           0       -0.182435    8.216362   -0.565286
     30          1           0       -0.919104    7.202096   -2.493586
 ---------------------------------------------------------------------
                    Distance matrix (angstroms):
                    1          2          3          4          5
     1  C    0.000000
     2  C    1.373569   0.000000
     3  C    2.429565   1.422207   0.000000
     4  C    1.434415   2.450468   2.849278   0.000000
     5  C    2.463314   2.824287   2.445050   1.445621   0.000000
     6  C    2.792912   2.415561   1.381010   2.460685   1.411044
     7  C    2.471389   3.728575   4.249742   1.400469   2.478262
     8  C    3.812810   4.277480   3.758340   2.529629   1.453605
     9  C    3.766060   4.893785   5.114394   2.443317   2.860245
    10  C    4.268600   5.097943   4.906950   2.834853   2.461950
    11  C    4.989117   6.213762   6.535999   3.785614   4.299679
    12  C    6.208549   7.352399   7.492372   4.902130   5.112300
    13  C    6.514425   7.480806   7.349858   5.102795   4.904809
    14  C    5.679634   6.480937   6.177863   4.245706   3.755845
    15  O    2.785588   4.159143   5.039387   2.382559   3.722891
    16  O    4.848377   5.052191   4.213063   3.692867   2.385172
    17  N    5.240409   6.580994   7.181400   4.332270   5.210397
    18  H    1.083602   2.140328   3.417500   2.163305   3.438488
    19  H    2.132797   1.088380   2.177468   3.433302   3.912653
    20  H    3.409944   2.182143   1.086927   3.936182   3.429330
    21  H    3.877891   3.414855   2.156136   3.424230   2.127576
    22  S    7.769106   8.994371   9.248382   6.557280   6.907775
    23  H    7.582973   8.517018   8.313677   6.164162   5.875436
    24  H    3.760496   5.132762   5.945068   3.177598   4.382551
    25  H    5.910763   7.245691   7.847746   5.022452   5.869265
    26  H    6.244172   6.863891   6.339866   4.839145   4.045239
    27  O    7.912337   9.178795   9.551729   6.812272   7.315505
    28  O    8.862799  10.006476  10.089648   7.557055   7.669968
    29  O    7.907823   9.175366   9.550691   6.809517   7.315895
    30  H    5.931542   7.266653   7.867185   5.040820   5.885095
                    6          7          8          9         10
     6  C    0.000000
     7  C    3.749188   0.000000
     8  C    2.475373   2.928609   0.000000
     9  C    4.270461   1.417910   2.549258   0.000000
    10  C    3.766411   2.475137   1.460422   1.448080   0.000000
    11  C    5.710481   2.518187   3.829860   1.441233   2.464710
    12  C    6.497273   3.771735   4.278073   2.459447   2.819100
    13  C    6.181621   4.274506   3.751010   2.857060   2.443036
    14  C    4.937237   3.756718   2.466064   2.466175   1.411084
    15  O    4.842249   1.387285   4.314719   2.457706   3.764144
    16  O    2.832087   4.195389   1.266781   3.708183   2.390804
    17  N    6.583064   2.932081   5.047409   2.500181   3.804945
    18  H    3.876475   2.677889   4.684804   4.090356   4.889467
    19  H    3.399932   4.602417   5.365753   5.857923   6.159751
    20  H    2.150093   5.336636   4.625183   6.177061   5.875077
    21  H    1.085402   4.601650   2.625286   4.873863   4.069617
    22  S    8.304364   5.297826   6.108365   4.142793   4.649803
    23  H    7.093597   5.356854   4.624995   3.939193   3.433678
    24  H    5.616949   1.905258   4.703566   2.418129   3.855974
    25  H    7.238858   3.647572   5.643540   3.159361   4.362755
    26  H    5.005682   4.600639   2.605707   3.428722   2.127897
    27  O    8.707893   5.508320   6.665721   4.541890   5.242453
    28  O    9.015514   6.413361   6.649377   5.115844   5.252157
    29  O    8.708641   5.504167   6.668670   4.540189   5.244810
    30  H    7.255898   3.664814   5.654578   3.169440   4.369849
                   11         12         13         14         15
    11  C    0.000000
    12  C    1.380877   0.000000
    13  C    2.432260   1.413271   0.000000
    14  C    2.793310   2.404502   1.376772   0.000000
    15  O    2.955165   4.334915   5.172100   4.923046   0.000000
    16  O    4.855482   5.036588   4.189879   2.813149   5.581393
    17  N    1.461012   2.458849   3.766120   4.254224   2.636143
    18  H    5.098003   6.417963   6.938642   6.277742   2.412842
    19  H    7.118329   8.313991   8.517439   7.551631   4.788260
    20  H    7.605791   8.526555   8.308683   7.084327   6.097155
    21  H    6.281645   6.885279   6.351378   5.016980   5.794584
    22  S    2.783195   1.830737   2.810171   4.089278   5.514442
    23  H    3.397253   2.153025   1.082599   2.159155   6.226910
    24  H    2.390807   3.742332   4.781733   4.799794   0.991909
    25  H    2.015866   2.661190   4.005516   4.656004   3.308907
    26  H    3.877520   3.401321   2.149293   1.084578   5.855219
    27  O    3.188490   2.647721   3.727827   4.875019   5.513047
    28  O    3.929906   2.657190   2.944101   4.319251   6.821569
    29  O    3.184600   2.647655   3.732368   4.879828   5.504413
    30  H    2.015661   2.649115   3.996989   4.655443   3.327694
                   16         17         18         19         20
    16  O    0.000000
    17  N    6.171186   0.000000
    18  H    5.801880   5.039321   0.000000
    19  H    6.116592   7.338825   2.464812   0.000000
    20  H    4.863824   8.268326   4.311854   2.509184   0.000000
    21  H    2.456982   7.304172   4.961337   4.317696   2.502644
    22  S    6.827007   3.025095   7.813705   9.899990  10.299436
    23  H    4.850751   4.611344   8.020931   9.564524   9.238159
    24  H    5.952703   1.715212   3.393468   5.780080   7.016823
    25  H    6.721217   1.021186   5.678154   7.986485   8.929600
    26  H    2.424417   5.338515   6.963488   7.951413   7.137759
    27  O    7.471459   3.025697   7.842728  10.021315  10.613413
    28  O    7.130298   4.451881   9.027742  10.971099  11.099252
    29  O    7.476664   3.015416   7.836096  10.016878  10.612775
    30  H    6.730518   1.021392   5.699708   8.008374   8.949264
                   21         22         23         24         25
    21  H    0.000000
    22  S    8.715347   0.000000
    23  H    7.157561   2.905558   0.000000
    24  H    6.502387   4.696237   5.782233   0.000000
    25  H    7.936809   2.809808   4.730497   2.391605   0.000000
    26  H    4.848109   4.959327   2.517907   5.818369   5.723386
    27  O    9.198787   1.496396   3.917908   4.643599   2.330433
    28  O    9.269206   1.484853   2.473773   6.070438   4.243588
    29  O    9.201258   1.496790   3.924308   4.632224   3.062288
    30  H    7.952237   2.785654   4.717773   2.406532   1.597726
                   26         27         28         29         30
    26  H    0.000000
    27  O    5.781951   0.000000
    28  O    4.935855   2.497179   0.000000
    29  O    5.788355   2.484480   2.497127   0.000000
    30  H    5.722907   3.046435   4.218263   2.299947   0.000000
 Stoichiometry    C14H9NO5S(2-)
 Framework group  C1[X(C14H9NO5S)]
 Deg. of freedom    84
 Full point group                 C1      NOp   1
 Largest Abelian subgroup         C1      NOp   1
 Largest concise Abelian subgroup C1      NOp   1
                         Standard orientation:                         
 ---------------------------------------------------------------------
 Center     Atomic      Atomic             Coordinates (Angstroms)
 Number     Number       Type             X           Y           Z
 ---------------------------------------------------------------------
      1          6           0        3.704383   -1.709504   -0.000576
      2          6           0        5.018866   -1.310971   -0.000547
      3          6           0        5.358394    0.070113    0.000164
      4          6           0        2.631824   -0.757053    0.000086
      5          6           0        2.982013    0.645512    0.000710
      6          6           0        4.345481    1.008832    0.000738
      7          6           0        1.293030   -1.168082    0.000176
      8          6           0        1.963602    1.682722    0.000848
      9          6           0        0.251459   -0.206002    0.000077
     10          6           0        0.584096    1.203356    0.000029
     11          6           0       -1.148122   -0.549988   -0.000490
     12          6           0       -2.125547    0.425440   -0.001812
     13          6           0       -1.785657    1.797230   -0.002828
     14          6           0       -0.456549    2.156358   -0.001646
     15          8           0        1.043204   -2.532685   -0.001855
     16          8           0        2.252028    2.916231    0.001475
     17          7           0       -1.530025   -1.960203    0.000110
     18          1           0        3.445158   -2.761642   -0.001067
     19          1           0        5.808116   -2.060407   -0.000961
     20          1           0        6.400874    0.377756    0.000151
     21          1           0        4.559735    2.072877    0.001108
     22         16           0       -3.888981   -0.066390    0.000495
     23          1           0       -2.583259    2.529248   -0.004262
     24          1           0        0.054812   -2.616118   -0.003957
     25          1           0       -2.137195   -2.109688    0.807464
     26          1           0       -0.155906    3.198434   -0.002158
     27          8           0       -4.064280   -0.875225    1.247193
     28          8           0       -4.668052    1.197640   -0.007635
     29          8           0       -4.063016   -0.889855   -1.237244
     30          1           0       -2.161169   -2.103432   -0.790070
 ---------------------------------------------------------------------
 Rotational constants (GHZ):           0.7340296           0.1643006           0.1379635
 Leave Link  202 at Wed Jan 17 09:25:39 2024, MaxMem=  4026531840 cpu:               0.6 elap:               0.1
 (Enter /sysapps/ubuntu-applications/gaussian/Gaussian/AVX2/g16/l301.exe)
 Standard basis: 6-311++G(d,p) (5D, 7F)
 Ernie: Thresh=  0.10000D-02 Tol=  0.10000D-05 Strict=F.
 There are   554 symmetry adapted cartesian basis functions of A   symmetry.
 There are   533 symmetry adapted basis functions of A   symmetry.
   533 basis functions,   851 primitive gaussians,   554 cartesian basis functions
    79 alpha electrons       79 beta electrons
       nuclear repulsion energy      1771.1267164808 Hartrees.
 IExCor=  402 DFT=T Ex+Corr=B3LYP ExCW=0 ScaHFX=  0.200000
 ScaDFX=  0.800000  0.720000  1.000000  0.810000 ScalE2=  1.000000  1.000000
 IRadAn=      5 IRanWt=     -1 IRanGd=            0 ICorTp=0 IEmpDi=  4
 NAtoms=   30 NActive=   30 NUniq=   30 SFac= 1.00D+00 NAtFMM=   60 NAOKFM=F Big=F
 Integral buffers will be    131072 words long.
 Raffenetti 2 integral format.
 Two-electron integral symmetry is turned on.
 ------------------------------------------------------------------------------
 Polarizable Continuum Model (PCM)
 =================================
 Model                : PCM.
 Atomic radii         : UFF (Universal Force Field).
 Polarization charges : Total charges.
 Charge compensation  : None.
 Solution method      : On-the-fly selection.
 Cavity type          : Scaled VdW (van der Waals Surface) (Alpha=1.100).
 Cavity algorithm     : GePol (No added spheres)
                        Default sphere list used, NSphG=   30.
                        Lebedev-Laikov grids with approx.  5.0 points / Ang**2.
                        Smoothing algorithm: York/Karplus (Gamma=1.0000).
                        Polarization charges: spherical gaussians, with
                                              point-specific exponents (IZeta= 3).
                        Self-potential: point-specific (ISelfS= 7).
                        Self-field    : sphere-specific E.n sum rule (ISelfD= 2).
 Solvent              : n,n-DiMethylFormamide, Eps=  37.219000 Eps(inf)=   2.046330
 ------------------------------------------------------------------------------
 GePol: Number of generator spheres                  =      30
 GePol: Total number of spheres                      =      30
 GePol: Number of exposed spheres                    =      30 (100.00%)
 GePol: Number of points                             =    2516
 GePol: Average weight of points                     =       0.12
 GePol: Minimum weight of points                     =   0.24D-09
 GePol: Maximum weight of points                     =    0.20577
 GePol: Number of points with low weight             =     150
 GePol: Fraction of low-weight points (<1% of avg)   =       5.96%
 GePol: Cavity surface area                          =    311.330 Ang**2
 GePol: Cavity volume                                =    349.927 Ang**3
 Leave Link  301 at Wed Jan 17 09:25:39 2024, MaxMem=  4026531840 cpu:               1.0 elap:               0.2
 (Enter /sysapps/ubuntu-applications/gaussian/Gaussian/AVX2/g16/l302.exe)
 NPDir=0 NMtPBC=     1 NCelOv=     1 NCel=       1 NClECP=     1 NCelD=      1
         NCelK=      1 NCelE2=     1 NClLst=     1 CellRange=     0.0.
 One-electron integrals computed using PRISM.
 One-electron integral symmetry used in STVInt
 NBasis=   533 RedAO= T EigKep=  1.07D-06  NBF=   533
 NBsUse=   525 1.00D-06 EigRej=  5.96D-07 NBFU=   525
 Precomputing XC quadrature grid using
 IXCGrd= 4 IRadAn=           5 IRanWt=          -1 IRanGd=           0 AccXCQ= 0.00D+00.
 Generated NRdTot=       0 NPtTot=           0 NUsed=           0 NTot=          32
 NSgBfM=   549   549   549   549   549 MxSgAt=    30 MxSgA2=    30.
 Leave Link  302 at Wed Jan 17 09:25:40 2024, MaxMem=  4026531840 cpu:               6.9 elap:               0.9
 (Enter /sysapps/ubuntu-applications/gaussian/Gaussian/AVX2/g16/l303.exe)
 DipDrv:  MaxL=1.
 Leave Link  303 at Wed Jan 17 09:25:40 2024, MaxMem=  4026531840 cpu:               1.5 elap:               0.3
 (Enter /sysapps/ubuntu-applications/gaussian/Gaussian/AVX2/g16/l401.exe)
 ExpMin= 3.60D-02 ExpMax= 9.34D+04 ExpMxC= 3.17D+03 IAcc=3 IRadAn=         5 AccDes= 0.00D+00
 Harris functional with IExCor=  402 and IRadAn=       5 diagonalized for initial guess.
 HarFok:  IExCor=  402 AccDes= 0.00D+00 IRadAn=         5 IDoV= 1 UseB2=F ITyADJ=14
 ICtDFT=  3500011 ScaDFX=  1.000000  1.000000  1.000000  1.000000
 FoFCou: FMM=F IPFlag=           0 FMFlag=      100000 FMFlg1=           0
         NFxFlg=           0 DoJE=T BraDBF=F KetDBF=T FulRan=T
         wScrn=  0.000000 ICntrl=       500 IOpCl=  0 I1Cent=   200000004 NGrid=           0
         NMat0=    1 NMatS0=      1 NMatT0=    0 NMatD0=    1 NMtDS0=    0 NMtDT0=    0
 Petite list used in FoFCou.
 Harris En= -1368.73168128510    
 JPrj=0 DoOrth=F DoCkMO=F.
 Initial guess <Sx>= 0.0000 <Sy>= 0.0000 <Sz>= 0.0000 <S**2>=-0.0000 S=-0.0000
 Leave Link  401 at Wed Jan 17 09:25:46 2024, MaxMem=  4026531840 cpu:              41.5 elap:               5.2
 (Enter /sysapps/ubuntu-applications/gaussian/Gaussian/AVX2/g16/l502.exe)
 Integral symmetry usage will be decided dynamically.
 UHF open shell SCF:
 Using DIIS extrapolation, IDIIS=  1040.
 NGot=  4026531840 LenX=  4025908439 LenY=  4025600969
 Requested convergence on RMS density matrix=1.00D-08 within 128 cycles.
 Requested convergence on MAX density matrix=1.00D-06.
 Requested convergence on             energy=1.00D-06.
 No special actions if energy rises.
 Fock matrices will be formed incrementally for  20 cycles.

 Cycle   1  Pass 1  IDiag  1:
 FoFJK:  IHMeth= 1 ICntrl=       0 DoSepK=F KAlg= 0 I1Cent=           0 FoldK=F
 IRaf= 830000000 NMat=       1 IRICut=       1 DoRegI=T DoRafI=F ISym2E= 0 IDoP0=0 IntGTp=1.
 FoFCou: FMM=F IPFlag=           0 FMFlag=      100000 FMFlg1=           0
         NFxFlg=           0 DoJE=F BraDBF=F KetDBF=F FulRan=T
         wScrn=  0.000000 ICntrl=         0 IOpCl=  1 I1Cent=           0 NGrid=           0
         NMat0=    1 NMatS0=      1 NMatT0=    0 NMatD0=    1 NMtDS0=    0 NMtDT0=    0
 Symmetry not used in FoFCou.
 Inv3:  Mode=1 IEnd=    18990768.
 Iteration    1 A*A^-1 deviation from unit magnitude is 4.00D-15 for     71.
 Iteration    1 A*A^-1 deviation from orthogonality  is 1.97D-15 for   1816    274.
 Iteration    1 A^-1*A deviation from unit magnitude is 4.00D-15 for     71.
 Iteration    1 A^-1*A deviation from orthogonality  is 2.60D-15 for   1551    622.
 E= -1367.76889862592    
 DIIS: error= 5.77D-02 at cycle   1 NSaved=   1.
 NSaved= 1 IEnMin= 1 EnMin= -1367.76889862592     IErMin= 1 ErrMin= 5.77D-02
 ErrMax= 5.77D-02  0.00D+00 EMaxC= 1.00D-01 BMatC= 4.14D+00 BMatP= 4.14D+00
 IDIUse=3 WtCom= 4.23D-01 WtEn= 5.77D-01
 Coeff-Com:  0.100D+01
 Coeff-En:   0.100D+01
 Coeff:      0.100D+01
 Gap=     0.097 Goal=   None    Shift=    0.000
 Gap=     0.097 Goal=   None    Shift=    0.000
 GapD=    0.097 DampG=0.500 DampE=0.500 DampFc=0.2500 IDamp=-1.
 Damping current iteration by 2.50D-01
 RMSDP=1.08D-01 MaxDP=7.36D+00              OVMax= 3.82D-01

 Cycle   2  Pass 1  IDiag  1:
 RMSU=  2.05D-02    CP:  1.25D+00
 E= -1368.03968089834     Delta-E=       -0.270782272421 Rises=F Damp=T
 DIIS: error= 1.96D-02 at cycle   2 NSaved=   2.
 NSaved= 2 IEnMin= 2 EnMin= -1368.03968089834     IErMin= 2 ErrMin= 1.96D-02
 ErrMax= 1.96D-02  0.00D+00 EMaxC= 1.00D-01 BMatC= 7.52D-01 BMatP= 4.14D+00
 IDIUse=3 WtCom= 8.04D-01 WtEn= 1.96D-01
 Coeff-Com: -0.567D+00 0.157D+01
 Coeff-En:   0.000D+00 0.100D+01
 Coeff:     -0.456D+00 0.146D+01
 Gap=     0.222 Goal=   None    Shift=    0.000
 Gap=     0.222 Goal=   None    Shift=    0.000
 RMSDP=2.26D-02 MaxDP=2.26D+00 DE=-2.71D-01 OVMax= 2.92D-01

 Cycle   3  Pass 1  IDiag  1:
 RMSU=  8.71D-03    CP:  9.77D-01  5.97D-01
 E= -1368.47009566341     Delta-E=       -0.430414765066 Rises=F Damp=F
 DIIS: error= 1.14D-02 at cycle   3 NSaved=   3.
 NSaved= 3 IEnMin= 3 EnMin= -1368.47009566341     IErMin= 3 ErrMin= 1.14D-02
 ErrMax= 1.14D-02  0.00D+00 EMaxC= 1.00D-01 BMatC= 2.41D-01 BMatP= 7.52D-01
 IDIUse=3 WtCom= 8.86D-01 WtEn= 1.14D-01
 Coeff-Com: -0.312D+00 0.808D+00 0.505D+00
 Coeff-En:   0.000D+00 0.000D+00 0.100D+01
 Coeff:     -0.277D+00 0.716D+00 0.561D+00
 Gap=     0.093 Goal=   None    Shift=    0.000
 Gap=     0.093 Goal=   None    Shift=    0.000
 RMSDP=7.72D-03 MaxDP=5.96D-01 DE=-4.30D-01 OVMax= 1.65D-01

 Cycle   4  Pass 1  IDiag  1:
 RMSU=  4.22D-03    CP:  1.03D+00  7.81D-01  5.70D-01
 E= -1368.51274868394     Delta-E=       -0.042653020535 Rises=F Damp=F
 DIIS: error= 7.97D-03 at cycle   4 NSaved=   4.
 NSaved= 4 IEnMin= 4 EnMin= -1368.51274868394     IErMin= 4 ErrMin= 7.97D-03
 ErrMax= 7.97D-03  0.00D+00 EMaxC= 1.00D-01 BMatC= 7.49D-02 BMatP= 2.41D-01
 IDIUse=3 WtCom= 9.20D-01 WtEn= 7.97D-02
 Coeff-Com: -0.103D+00 0.253D+00 0.360D+00 0.491D+00
 Coeff-En:   0.000D+00 0.000D+00 0.247D+00 0.753D+00
 Coeff:     -0.949D-01 0.232D+00 0.351D+00 0.512D+00
 Gap=     0.094 Goal=   None    Shift=    0.000
 Gap=     0.094 Goal=   None    Shift=    0.000
 RMSDP=3.08D-03 MaxDP=3.07D-01 DE=-4.27D-02 OVMax= 8.38D-02

 Cycle   5  Pass 1  IDiag  1:
 RMSU=  1.96D-03    CP:  1.01D+00  7.88D-01  7.85D-01  7.56D-01
 E= -1368.52806917911     Delta-E=       -0.015320495171 Rises=F Damp=F
 DIIS: error= 2.74D-03 at cycle   5 NSaved=   5.
 NSaved= 5 IEnMin= 5 EnMin= -1368.52806917911     IErMin= 5 ErrMin= 2.74D-03
 ErrMax= 2.74D-03  0.00D+00 EMaxC= 1.00D-01 BMatC= 8.31D-03 BMatP= 7.49D-02
 IDIUse=3 WtCom= 9.73D-01 WtEn= 2.74D-02
 Coeff-Com: -0.230D-01 0.486D-01 0.152D+00 0.324D+00 0.499D+00
 Coeff-En:   0.000D+00 0.000D+00 0.000D+00 0.599D-01 0.940D+00
 Coeff:     -0.224D-01 0.472D-01 0.148D+00 0.316D+00 0.511D+00
 Gap=     0.093 Goal=   None    Shift=    0.000
 Gap=     0.093 Goal=   None    Shift=    0.000
 RMSDP=1.78D-03 MaxDP=1.48D-01 DE=-1.53D-02 OVMax= 2.72D-02

 Cycle   6  Pass 1  IDiag  1:
 RMSU=  5.49D-04    CP:  9.92D-01  7.65D-01  7.65D-01  7.66D-01  7.87D-01
 E= -1368.52974176949     Delta-E=       -0.001672590378 Rises=F Damp=F
 DIIS: error= 5.38D-04 at cycle   6 NSaved=   6.
 NSaved= 6 IEnMin= 6 EnMin= -1368.52974176949     IErMin= 6 ErrMin= 5.38D-04
 ErrMax= 5.38D-04  0.00D+00 EMaxC= 1.00D-01 BMatC= 6.30D-04 BMatP= 8.31D-03
 IDIUse=3 WtCom= 9.95D-01 WtEn= 5.38D-03
 Coeff-Com: -0.395D-02 0.516D-02 0.460D-01 0.121D+00 0.287D+00 0.545D+00
 Coeff-En:   0.000D+00 0.000D+00 0.000D+00 0.000D+00 0.123D-01 0.988D+00
 Coeff:     -0.392D-02 0.513D-02 0.457D-01 0.121D+00 0.286D+00 0.547D+00
 Gap=     0.093 Goal=   None    Shift=    0.000
 Gap=     0.093 Goal=   None    Shift=    0.000
 RMSDP=2.69D-04 MaxDP=1.76D-02 DE=-1.67D-03 OVMax= 6.19D-03

 Cycle   7  Pass 1  IDiag  1:
 RMSU=  1.71D-04    CP:  9.92D-01  7.66D-01  7.73D-01  7.87D-01  8.73D-01
                    CP:  9.77D-01
 E= -1368.52986541504     Delta-E=       -0.000123645552 Rises=F Damp=F
 DIIS: error= 2.21D-04 at cycle   7 NSaved=   7.
 NSaved= 7 IEnMin= 7 EnMin= -1368.52986541504     IErMin= 7 ErrMin= 2.21D-04
 ErrMax= 2.21D-04  0.00D+00 EMaxC= 1.00D-01 BMatC= 6.96D-05 BMatP= 6.30D-04
 IDIUse=3 WtCom= 9.98D-01 WtEn= 2.21D-03
 Coeff-Com: -0.140D-03-0.115D-02 0.107D-01 0.348D-01 0.113D+00 0.318D+00
 Coeff-Com:  0.524D+00
 Coeff-En:   0.000D+00 0.000D+00 0.000D+00 0.000D+00 0.000D+00 0.726D-01
 Coeff-En:   0.927D+00
 Coeff:     -0.139D-03-0.115D-02 0.107D-01 0.347D-01 0.113D+00 0.318D+00
 Coeff:      0.525D+00
 Gap=     0.093 Goal=   None    Shift=    0.000
 Gap=     0.093 Goal=   None    Shift=    0.000
 RMSDP=8.01D-05 MaxDP=5.10D-03 DE=-1.24D-04 OVMax= 1.95D-03

 Cycle   8  Pass 1  IDiag  1:
 RMSU=  5.62D-05    CP:  9.92D-01  7.64D-01  7.77D-01  7.83D-01  8.71D-01
                    CP:  9.67D-01  1.01D+00
 E= -1368.52988233962     Delta-E=       -0.000016924578 Rises=F Damp=F
 DIIS: error= 6.98D-05 at cycle   8 NSaved=   8.
 NSaved= 8 IEnMin= 8 EnMin= -1368.52988233962     IErMin= 8 ErrMin= 6.98D-05
 ErrMax= 6.98D-05  0.00D+00 EMaxC= 1.00D-01 BMatC= 5.08D-06 BMatP= 6.96D-05
 IDIUse=1 WtCom= 1.00D+00 WtEn= 0.00D+00
 Coeff-Com:  0.361D-03-0.120D-02 0.140D-02 0.717D-02 0.364D-01 0.119D+00
 Coeff-Com:  0.272D+00 0.565D+00
 Coeff:      0.361D-03-0.120D-02 0.140D-02 0.717D-02 0.364D-01 0.119D+00
 Coeff:      0.272D+00 0.565D+00
 Gap=     0.093 Goal=   None    Shift=    0.000
 Gap=     0.093 Goal=   None    Shift=    0.000
 RMSDP=2.77D-05 MaxDP=1.90D-03 DE=-1.69D-05 OVMax= 4.77D-04

 Cycle   9  Pass 1  IDiag  1:
 RMSU=  1.05D-05    CP:  9.92D-01  7.65D-01  7.78D-01  7.85D-01  8.81D-01
                    CP:  9.73D-01  1.05D+00  9.14D-01
 E= -1368.52988350606     Delta-E=       -0.000001166439 Rises=F Damp=F
 DIIS: error= 3.18D-05 at cycle   9 NSaved=   9.
 NSaved= 9 IEnMin= 9 EnMin= -1368.52988350606     IErMin= 9 ErrMin= 3.18D-05
 ErrMax= 3.18D-05  0.00D+00 EMaxC= 1.00D-01 BMatC= 8.03D-07 BMatP= 5.08D-06
 IDIUse=1 WtCom= 1.00D+00 WtEn= 0.00D+00
 Coeff-Com:  0.178D-03-0.360D-03-0.917D-03-0.183D-02 0.280D-02 0.154D-01
 Coeff-Com:  0.663D-01 0.317D+00 0.602D+00
 Coeff:      0.178D-03-0.360D-03-0.917D-03-0.183D-02 0.280D-02 0.154D-01
 Coeff:      0.663D-01 0.317D+00 0.602D+00
 Gap=     0.093 Goal=   None    Shift=    0.000
 Gap=     0.093 Goal=   None    Shift=    0.000
 RMSDP=1.46D-05 MaxDP=1.04D-03 DE=-1.17D-06 OVMax= 1.51D-04

 Cycle  10  Pass 1  IDiag  1:
 RMSU=  5.27D-06    CP:  9.92D-01  7.64D-01  7.78D-01  7.84D-01  8.84D-01
                    CP:  9.75D-01  1.05D+00  9.57D-01  1.09D+00
 E= -1368.52988369321     Delta-E=       -0.000000187150 Rises=F Damp=F
 DIIS: error= 6.63D-06 at cycle  10 NSaved=  10.
 NSaved=10 IEnMin=10 EnMin= -1368.52988369321     IErMin=10 ErrMin= 6.63D-06
 ErrMax= 6.63D-06  0.00D+00 EMaxC= 1.00D-01 BMatC= 8.19D-08 BMatP= 8.03D-07
 IDIUse=1 WtCom= 1.00D+00 WtEn= 0.00D+00
 Coeff-Com:  0.537D-04-0.887D-04-0.520D-03-0.134D-02-0.248D-03 0.156D-02
 Coeff-Com:  0.191D-01 0.139D+00 0.335D+00 0.508D+00
 Coeff:      0.537D-04-0.887D-04-0.520D-03-0.134D-02-0.248D-03 0.156D-02
 Coeff:      0.191D-01 0.139D+00 0.335D+00 0.508D+00
 Gap=     0.093 Goal=   None    Shift=    0.000
 Gap=     0.093 Goal=   None    Shift=    0.000
 RMSDP=3.73D-06 MaxDP=3.16D-04 DE=-1.87D-07 OVMax= 6.96D-05

 Cycle  11  Pass 1  IDiag  1:
 RMSU=  1.16D-06    CP:  9.92D-01  7.64D-01  7.79D-01  7.84D-01  8.84D-01
                    CP:  9.77D-01  1.06D+00  9.66D-01  1.08D+00  8.79D-01
 E= -1368.52988371064     Delta-E=       -0.000000017426 Rises=F Damp=F
 DIIS: error= 1.84D-06 at cycle  11 NSaved=  11.
 NSaved=11 IEnMin=11 EnMin= -1368.52988371064     IErMin=11 ErrMin= 1.84D-06
 ErrMax= 1.84D-06  0.00D+00 EMaxC= 1.00D-01 BMatC= 9.32D-09 BMatP= 8.19D-08
 IDIUse=1 WtCom= 1.00D+00 WtEn= 0.00D+00
 Coeff-Com: -0.138D-04 0.334D-04-0.138D-03-0.504D-03-0.892D-03-0.277D-02
 Coeff-Com: -0.293D-02 0.129D-01 0.602D-01 0.264D+00 0.670D+00
 Coeff:     -0.138D-04 0.334D-04-0.138D-03-0.504D-03-0.892D-03-0.277D-02
 Coeff:     -0.293D-02 0.129D-01 0.602D-01 0.264D+00 0.670D+00
 Gap=     0.093 Goal=   None    Shift=    0.000
 Gap=     0.093 Goal=   None    Shift=    0.000
 RMSDP=1.33D-06 MaxDP=9.50D-05 DE=-1.74D-08 OVMax= 1.81D-05

 Cycle  12  Pass 1  IDiag  1:
 RMSU=  3.61D-07    CP:  9.92D-01  7.64D-01  7.79D-01  7.84D-01  8.84D-01
                    CP:  9.77D-01  1.06D+00  9.74D-01  1.09D+00  8.75D-01
                    CP:  8.78D-01
 E= -1368.52988371275     Delta-E=       -0.000000002115 Rises=F Damp=F
 DIIS: error= 7.10D-07 at cycle  12 NSaved=  12.
 NSaved=12 IEnMin=12 EnMin= -1368.52988371275     IErMin=12 ErrMin= 7.10D-07
 ErrMax= 7.10D-07  0.00D+00 EMaxC= 1.00D-01 BMatC= 1.05D-09 BMatP= 9.32D-09
 IDIUse=1 WtCom= 1.00D+00 WtEn= 0.00D+00
 Coeff-Com: -0.111D-04 0.204D-04-0.213D-04-0.128D-03-0.367D-03-0.144D-02
 Coeff-Com: -0.283D-02-0.554D-02-0.913D-03 0.898D-01 0.339D+00 0.583D+00
 Coeff:     -0.111D-04 0.204D-04-0.213D-04-0.128D-03-0.367D-03-0.144D-02
 Coeff:     -0.283D-02-0.554D-02-0.913D-03 0.898D-01 0.339D+00 0.583D+00
 Gap=     0.093 Goal=   None    Shift=    0.000
 Gap=     0.093 Goal=   None    Shift=    0.000
 RMSDP=6.22D-07 MaxDP=4.46D-05 DE=-2.11D-09 OVMax= 1.47D-05

 Cycle  13  Pass 1  IDiag  1:
 RMSU=  1.82D-07    CP:  9.92D-01  7.64D-01  7.79D-01  7.84D-01  8.85D-01
                    CP:  9.77D-01  1.06D+00  9.75D-01  1.11D+00  8.82D-01
                    CP:  9.64D-01  6.85D-01
 E= -1368.52988371299     Delta-E=       -0.000000000239 Rises=F Damp=F
 DIIS: error= 5.65D-07 at cycle  13 NSaved=  13.
 NSaved=13 IEnMin=13 EnMin= -1368.52988371299     IErMin=13 ErrMin= 5.65D-07
 ErrMax= 5.65D-07  0.00D+00 EMaxC= 1.00D-01 BMatC= 1.97D-10 BMatP= 1.05D-09
 IDIUse=1 WtCom= 1.00D+00 WtEn= 0.00D+00
 Coeff-Com: -0.374D-05 0.604D-05 0.957D-05-0.578D-06-0.823D-04-0.470D-03
 Coeff-Com: -0.122D-02-0.559D-02-0.115D-01 0.934D-02 0.803D-01 0.330D+00
 Coeff-Com:  0.599D+00
 Coeff:     -0.374D-05 0.604D-05 0.957D-05-0.578D-06-0.823D-04-0.470D-03
 Coeff:     -0.122D-02-0.559D-02-0.115D-01 0.934D-02 0.803D-01 0.330D+00
 Coeff:      0.599D+00
 Gap=     0.093 Goal=   None    Shift=    0.000
 Gap=     0.093 Goal=   None    Shift=    0.000
 RMSDP=1.50D-07 MaxDP=1.18D-05 DE=-2.39D-10 OVMax= 3.37D-06

 Cycle  14  Pass 1  IDiag  1:
 RMSU=  6.85D-08    CP:  9.92D-01  7.64D-01  7.79D-01  7.84D-01  8.85D-01
                    CP:  9.77D-01  1.06D+00  9.75D-01  1.11D+00  8.92D-01
                    CP:  9.67D-01  8.01D-01  8.49D-01
 E= -1368.52988371305     Delta-E=       -0.000000000058 Rises=F Damp=F
 DIIS: error= 1.10D-07 at cycle  14 NSaved=  14.
 NSaved=14 IEnMin=14 EnMin= -1368.52988371305     IErMin=14 ErrMin= 1.10D-07
 ErrMax= 1.10D-07  0.00D+00 EMaxC= 1.00D-01 BMatC= 3.07D-11 BMatP= 1.97D-10
 IDIUse=1 WtCom= 1.00D+00 WtEn= 0.00D+00
 Coeff-Com: -0.584D-06 0.101D-05 0.963D-05 0.160D-04 0.742D-05-0.906D-04
 Coeff-Com: -0.303D-03-0.243D-02-0.661D-02-0.541D-02 0.225D-02 0.123D+00
 Coeff-Com:  0.345D+00 0.545D+00
 Coeff:     -0.584D-06 0.101D-05 0.963D-05 0.160D-04 0.742D-05-0.906D-04
 Coeff:     -0.303D-03-0.243D-02-0.661D-02-0.541D-02 0.225D-02 0.123D+00
 Coeff:      0.345D+00 0.545D+00
 Gap=     0.093 Goal=   None    Shift=    0.000
 Gap=     0.093 Goal=   None    Shift=    0.000
 RMSDP=6.57D-08 MaxDP=3.81D-06 DE=-5.80D-11 OVMax= 1.87D-06

 Cycle  15  Pass 1  IDiag  1:
 RMSU=  3.23D-08    CP:  9.92D-01  7.64D-01  7.79D-01  7.84D-01  8.85D-01
                    CP:  9.77D-01  1.06D+00  9.75D-01  1.11D+00  8.93D-01
                    CP:  9.73D-01  7.93D-01  9.14D-01  7.74D-01
 E= -1368.52988371306     Delta-E=       -0.000000000016 Rises=F Damp=F
 DIIS: error= 5.79D-08 at cycle  15 NSaved=  15.
 NSaved=15 IEnMin=15 EnMin= -1368.52988371306     IErMin=15 ErrMin= 5.79D-08
 ErrMax= 5.79D-08  0.00D+00 EMaxC= 1.00D-01 BMatC= 3.47D-12 BMatP= 3.07D-11
 IDIUse=1 WtCom= 1.00D+00 WtEn= 0.00D+00
 Coeff-Com:  0.640D-06-0.922D-06 0.323D-05 0.629D-05 0.165D-04 0.105D-04
 Coeff-Com:  0.203D-04-0.367D-03-0.141D-02-0.300D-02-0.913D-02 0.824D-02
 Coeff-Com:  0.541D-01 0.246D+00 0.706D+00
 Coeff:      0.640D-06-0.922D-06 0.323D-05 0.629D-05 0.165D-04 0.105D-04
 Coeff:      0.203D-04-0.367D-03-0.141D-02-0.300D-02-0.913D-02 0.824D-02
 Coeff:      0.541D-01 0.246D+00 0.706D+00
 Gap=     0.093 Goal=   None    Shift=    0.000
 Gap=     0.093 Goal=   None    Shift=    0.000
 RMSDP=2.25D-08 MaxDP=1.75D-06 DE=-1.64D-11 OVMax= 5.07D-07

 Cycle  16  Pass 1  IDiag  1:
 RMSU=  9.90D-09    CP:  9.92D-01  7.64D-01  7.79D-01  7.84D-01  8.85D-01
                    CP:  9.77D-01  1.06D+00  9.75D-01  1.11D+00  8.93D-01
                    CP:  9.74D-01  8.10D-01  9.18D-01  9.13D-01  7.73D-01
 E= -1368.52988371300     Delta-E=        0.000000000067 Rises=F Damp=F
 DIIS: error= 1.38D-08 at cycle  16 NSaved=  16.
 NSaved=16 IEnMin=15 EnMin= -1368.52988371306     IErMin=16 ErrMin= 1.38D-08
 ErrMax= 1.38D-08  0.00D+00 EMaxC= 1.00D-01 BMatC= 5.78D-13 BMatP= 3.47D-12
 IDIUse=1 WtCom= 1.00D+00 WtEn= 0.00D+00
 Coeff-Com:  0.529D-06-0.774D-06 0.130D-05 0.260D-05 0.109D-04 0.152D-04
 Coeff-Com:  0.444D-04-0.166D-04-0.316D-03-0.146D-02-0.625D-02-0.656D-02
 Coeff-Com: -0.654D-04 0.110D+00 0.432D+00 0.473D+00
 Coeff:      0.529D-06-0.774D-06 0.130D-05 0.260D-05 0.109D-04 0.152D-04
 Coeff:      0.444D-04-0.166D-04-0.316D-03-0.146D-02-0.625D-02-0.656D-02
 Coeff:     -0.654D-04 0.110D+00 0.432D+00 0.473D+00
 Gap=     0.093 Goal=   None    Shift=    0.000
 Gap=     0.093 Goal=   None    Shift=    0.000
 RMSDP=6.89D-09 MaxDP=4.45D-07 DE= 6.71D-11 OVMax= 1.19D-07

 Error on total polarization charges =  0.02649
 SCF Done:  E(UB3LYP) =  -1368.52988371     A.U. after   16 cycles
            NFock= 16  Conv=0.69D-08     -V/T= 2.0032
 <Sx>= 0.0000 <Sy>= 0.0000 <Sz>= 0.0000 <S**2>=-0.0000 S=-0.0000
 <L.S>=  0.00000000000    
 KE= 1.364122694800D+03 PE=-6.798448822663D+03 EE= 2.294669527670D+03
 Annihilation of the first spin contaminant:
 S**2 before annihilation    -0.0000,   after     0.0000
 Leave Link  502 at Wed Jan 17 09:34:06 2024, MaxMem=  4026531840 cpu:            3978.3 elap:             500.3
 (Enter /sysapps/ubuntu-applications/gaussian/Gaussian/AVX2/g16/l601.exe)
 Copying SCF densities to generalized density rwf, IOpCl= 1 IROHF=0.

 **********************************************************************

            Population analysis using the SCF density.

 **********************************************************************

 Orbital symmetries:
 Alpha Orbitals:
       Occupied  (A) (A) (A) (A) (A) (A) (A) (A) (A) (A) (A) (A)
                 (A) (A) (A) (A) (A) (A) (A) (A) (A) (A) (A) (A)
                 (A) (A) (A) (A) (A) (A) (A) (A) (A) (A) (A) (A)
                 (A) (A) (A) (A) (A) (A) (A) (A) (A) (A) (A) (A)
                 (A) (A) (A) (A) (A) (A) (A) (A) (A) (A) (A) (A)
                 (A) (A) (A) (A) (A) (A) (A) (A) (A) (A) (A) (A)
                 (A) (A) (A) (A) (A) (A) (A)
       Virtual   (A) (A) (A) (A) (A) (A) (A) (A) (A) (A) (A) (A)
                 (A) (A) (A) (A) (A) (A) (A) (A) (A) (A) (A) (A)
                 (A) (A) (A) (A) (A) (A) (A) (A) (A) (A) (A) (A)
                 (A) (A) (A) (A) (A) (A) (A) (A) (A) (A) (A) (A)
                 (A) (A) (A) (A) (A) (A) (A) (A) (A) (A) (A) (A)
                 (A) (A) (A) (A) (A) (A) (A) (A) (A) (A) (A) (A)
                 (A) (A) (A) (A) (A) (A) (A) (A) (A) (A) (A) (A)
                 (A) (A) (A) (A) (A) (A) (A) (A) (A) (A) (A) (A)
                 (A) (A) (A) (A) (A) (A) (A) (A) (A) (A) (A) (A)
                 (A) (A) (A) (A) (A) (A) (A) (A) (A) (A) (A) (A)
                 (A) (A) (A) (A) (A) (A) (A) (A) (A) (A) (A) (A)
                 (A) (A) (A) (A) (A) (A) (A) (A) (A) (A) (A) (A)
                 (A) (A) (A) (A) (A) (A) (A) (A) (A) (A) (A) (A)
                 (A) (A) (A) (A) (A) (A) (A) (A) (A) (A) (A) (A)
                 (A) (A) (A) (A) (A) (A) (A) (A) (A) (A) (A) (A)
                 (A) (A) (A) (A) (A) (A) (A) (A) (A) (A) (A) (A)
                 (A) (A) (A) (A) (A) (A) (A) (A) (A) (A) (A) (A)
                 (A) (A) (A) (A) (A) (A) (A) (A) (A) (A) (A) (A)
                 (A) (A) (A) (A) (A) (A) (A) (A) (A) (A) (A) (A)
                 (A) (A) (A) (A) (A) (A) (A) (A) (A) (A) (A) (A)
                 (A) (A) (A) (A) (A) (A) (A) (A) (A) (A) (A) (A)
                 (A) (A) (A) (A) (A) (A) (A) (A) (A) (A) (A) (A)
                 (A) (A) (A) (A) (A) (A) (A) (A) (A) (A) (A) (A)
                 (A) (A) (A) (A) (A) (A) (A) (A) (A) (A) (A) (A)
                 (A) (A) (A) (A) (A) (A) (A) (A) (A) (A) (A) (A)
                 (A) (A) (A) (A) (A) (A) (A) (A) (A) (A) (A) (A)
                 (A) (A) (A) (A) (A) (A) (A) (A) (A) (A) (A) (A)
                 (A) (A) (A) (A) (A) (A) (A) (A) (A) (A) (A) (A)
                 (A) (A) (A) (A) (A) (A) (A) (A) (A) (A) (A) (A)
                 (A) (A) (A) (A) (A) (A) (A) (A) (A) (A) (A) (A)
                 (A) (A) (A) (A) (A) (A) (A) (A) (A) (A) (A) (A)
                 (A) (A) (A) (A) (A) (A) (A) (A) (A) (A) (A) (A)
                 (A) (A) (A) (A) (A) (A) (A) (A) (A) (A) (A) (A)
                 (A) (A) (A) (A) (A) (A) (A) (A) (A) (A) (A) (A)
                 (A) (A) (A) (A) (A) (A) (A) (A) (A) (A) (A) (A)
                 (A) (A) (A) (A) (A) (A) (A) (A) (A) (A) (A) (A)
                 (A) (A) (A) (A) (A) (A) (A) (A) (A) (A) (A) (A)
                 (A) (A)
 Beta  Orbitals:
       Occupied  (A) (A) (A) (A) (A) (A) (A) (A) (A) (A) (A) (A)
                 (A) (A) (A) (A) (A) (A) (A) (A) (A) (A) (A) (A)
                 (A) (A) (A) (A) (A) (A) (A) (A) (A) (A) (A) (A)
                 (A) (A) (A) (A) (A) (A) (A) (A) (A) (A) (A) (A)
                 (A) (A) (A) (A) (A) (A) (A) (A) (A) (A) (A) (A)
                 (A) (A) (A) (A) (A) (A) (A) (A) (A) (A) (A) (A)
                 (A) (A) (A) (A) (A) (A) (A)
       Virtual   (A) (A) (A) (A) (A) (A) (A) (A) (A) (A) (A) (A)
                 (A) (A) (A) (A) (A) (A) (A) (A) (A) (A) (A) (A)
                 (A) (A) (A) (A) (A) (A) (A) (A) (A) (A) (A) (A)
                 (A) (A) (A) (A) (A) (A) (A) (A) (A) (A) (A) (A)
                 (A) (A) (A) (A) (A) (A) (A) (A) (A) (A) (A) (A)
                 (A) (A) (A) (A) (A) (A) (A) (A) (A) (A) (A) (A)
                 (A) (A) (A) (A) (A) (A) (A) (A) (A) (A) (A) (A)
                 (A) (A) (A) (A) (A) (A) (A) (A) (A) (A) (A) (A)
                 (A) (A) (A) (A) (A) (A) (A) (A) (A) (A) (A) (A)
                 (A) (A) (A) (A) (A) (A) (A) (A) (A) (A) (A) (A)
                 (A) (A) (A) (A) (A) (A) (A) (A) (A) (A) (A) (A)
                 (A) (A) (A) (A) (A) (A) (A) (A) (A) (A) (A) (A)
                 (A) (A) (A) (A) (A) (A) (A) (A) (A) (A) (A) (A)
                 (A) (A) (A) (A) (A) (A) (A) (A) (A) (A) (A) (A)
                 (A) (A) (A) (A) (A) (A) (A) (A) (A) (A) (A) (A)
                 (A) (A) (A) (A) (A) (A) (A) (A) (A) (A) (A) (A)
                 (A) (A) (A) (A) (A) (A) (A) (A) (A) (A) (A) (A)
                 (A) (A) (A) (A) (A) (A) (A) (A) (A) (A) (A) (A)
                 (A) (A) (A) (A) (A) (A) (A) (A) (A) (A) (A) (A)
                 (A) (A) (A) (A) (A) (A) (A) (A) (A) (A) (A) (A)
                 (A) (A) (A) (A) (A) (A) (A) (A) (A) (A) (A) (A)
                 (A) (A) (A) (A) (A) (A) (A) (A) (A) (A) (A) (A)
                 (A) (A) (A) (A) (A) (A) (A) (A) (A) (A) (A) (A)
                 (A) (A) (A) (A) (A) (A) (A) (A) (A) (A) (A) (A)
                 (A) (A) (A) (A) (A) (A) (A) (A) (A) (A) (A) (A)
                 (A) (A) (A) (A) (A) (A) (A) (A) (A) (A) (A) (A)
                 (A) (A) (A) (A) (A) (A) (A) (A) (A) (A) (A) (A)
                 (A) (A) (A) (A) (A) (A) (A) (A) (A) (A) (A) (A)
                 (A) (A) (A) (A) (A) (A) (A) (A) (A) (A) (A) (A)
                 (A) (A) (A) (A) (A) (A) (A) (A) (A) (A) (A) (A)
                 (A) (A) (A) (A) (A) (A) (A) (A) (A) (A) (A) (A)
                 (A) (A) (A) (A) (A) (A) (A) (A) (A) (A) (A) (A)
                 (A) (A) (A) (A) (A) (A) (A) (A) (A) (A) (A) (A)
                 (A) (A) (A) (A) (A) (A) (A) (A) (A) (A) (A) (A)
                 (A) (A) (A) (A) (A) (A) (A) (A) (A) (A) (A) (A)
                 (A) (A) (A) (A) (A) (A) (A) (A) (A) (A) (A) (A)
                 (A) (A) (A) (A) (A) (A) (A) (A) (A) (A) (A) (A)
                 (A) (A)
 The electronic state is 1-A.
 Alpha  occ. eigenvalues --  -89.04299 -19.10981 -19.09067 -19.08710 -19.08705
 Alpha  occ. eigenvalues --  -19.04597 -14.30918 -10.21024 -10.20571 -10.19966
 Alpha  occ. eigenvalues --  -10.18790 -10.17612 -10.16535 -10.16490 -10.16326
 Alpha  occ. eigenvalues --  -10.16239 -10.16018 -10.16008 -10.15889 -10.15845
 Alpha  occ. eigenvalues --  -10.15422  -8.10184  -6.06465  -6.06448  -6.06344
 Alpha  occ. eigenvalues --   -1.10481  -1.02037  -0.97215  -0.97102  -0.96541
 Alpha  occ. eigenvalues --   -0.90873  -0.84861  -0.83318  -0.78330  -0.74386
 Alpha  occ. eigenvalues --   -0.73557  -0.72884  -0.67003  -0.64515  -0.61858
 Alpha  occ. eigenvalues --   -0.58944  -0.57013  -0.56119  -0.53288  -0.51590
 Alpha  occ. eigenvalues --   -0.49731  -0.48831  -0.47673  -0.47150  -0.46091
 Alpha  occ. eigenvalues --   -0.45047  -0.44325  -0.43489  -0.42809  -0.41600
 Alpha  occ. eigenvalues --   -0.41090  -0.40385  -0.39719  -0.37994  -0.37115
 Alpha  occ. eigenvalues --   -0.36103  -0.35496  -0.35189  -0.34010  -0.33198
 Alpha  occ. eigenvalues --   -0.33163  -0.32863  -0.32191  -0.29635  -0.29622
 Alpha  occ. eigenvalues --   -0.28826  -0.26669  -0.26587  -0.25483  -0.24717
 Alpha  occ. eigenvalues --   -0.24079  -0.23466  -0.21994  -0.14149
 Alpha virt. eigenvalues --   -0.04821  -0.01577  -0.00174   0.00195   0.00652
 Alpha virt. eigenvalues --    0.01187   0.02297   0.02447   0.03880   0.04246
 Alpha virt. eigenvalues --    0.04458   0.04604   0.05339   0.05415   0.06124
 Alpha virt. eigenvalues --    0.06187   0.06778   0.07563   0.07614   0.07861
 Alpha virt. eigenvalues --    0.08863   0.08880   0.09264   0.09615   0.10187
 Alpha virt. eigenvalues --    0.10891   0.11006   0.11184   0.11610   0.11912
 Alpha virt. eigenvalues --    0.11943   0.12505   0.12880   0.12956   0.13484
 Alpha virt. eigenvalues --    0.13556   0.13730   0.14055   0.14511   0.14996
 Alpha virt. eigenvalues --    0.15226   0.15521   0.15761   0.16245   0.16981
 Alpha virt. eigenvalues --    0.17217   0.17782   0.17963   0.18124   0.18686
 Alpha virt. eigenvalues --    0.18797   0.19763   0.19821   0.20300   0.20541
 Alpha virt. eigenvalues --    0.20722   0.20811   0.21415   0.21516   0.22639
 Alpha virt. eigenvalues --    0.22784   0.23038   0.23217   0.23950   0.24512
 Alpha virt. eigenvalues --    0.24622   0.25041   0.25188   0.25920   0.26226
 Alpha virt. eigenvalues --    0.26513   0.26695   0.26846   0.27447   0.27804
 Alpha virt. eigenvalues --    0.27839   0.28207   0.28682   0.28958   0.29106
 Alpha virt. eigenvalues --    0.29481   0.29671   0.30000   0.30228   0.30914
 Alpha virt. eigenvalues --    0.31175   0.31609   0.31739   0.32203   0.32239
 Alpha virt. eigenvalues --    0.32739   0.33259   0.33560   0.34015   0.34038
 Alpha virt. eigenvalues --    0.34757   0.34766   0.35467   0.35888   0.36625
 Alpha virt. eigenvalues --    0.37249   0.37905   0.38083   0.38446   0.39516
 Alpha virt. eigenvalues --    0.39888   0.40372   0.41195   0.41300   0.42458
 Alpha virt. eigenvalues --    0.42711   0.43551   0.44141   0.44198   0.45423
 Alpha virt. eigenvalues --    0.46306   0.46935   0.48039   0.49275   0.50734
 Alpha virt. eigenvalues --    0.51170   0.52629   0.52758   0.55021   0.55185
 Alpha virt. eigenvalues --    0.55807   0.56259   0.57374   0.57676   0.58004
 Alpha virt. eigenvalues --    0.59343   0.59489   0.60227   0.60289   0.60616
 Alpha virt. eigenvalues --    0.61867   0.62588   0.63535   0.64539   0.65022
 Alpha virt. eigenvalues --    0.65594   0.65712   0.66083   0.66679   0.67802
 Alpha virt. eigenvalues --    0.67886   0.68634   0.69051   0.69760   0.69906
 Alpha virt. eigenvalues --    0.71148   0.73641   0.74361   0.75016   0.75515
 Alpha virt. eigenvalues --    0.77564   0.77784   0.78016   0.78064   0.78646
 Alpha virt. eigenvalues --    0.80328   0.81423   0.82275   0.83652   0.84535
 Alpha virt. eigenvalues --    0.85456   0.86904   0.87449   0.88022   0.88911
 Alpha virt. eigenvalues --    0.89900   0.90570   0.91906   0.92144   0.93948
 Alpha virt. eigenvalues --    0.94209   0.94873   0.95733   0.96641   0.96906
 Alpha virt. eigenvalues --    0.97416   0.97787   0.98401   0.99841   0.99941
 Alpha virt. eigenvalues --    1.01674   1.01731   1.02468   1.03372   1.03475
 Alpha virt. eigenvalues --    1.04271   1.05743   1.06448   1.06928   1.08455
 Alpha virt. eigenvalues --    1.08553   1.08966   1.09360   1.09971   1.12139
 Alpha virt. eigenvalues --    1.12371   1.13411   1.14763   1.15272   1.16209
 Alpha virt. eigenvalues --    1.16860   1.17091   1.19268   1.19390   1.19984
 Alpha virt. eigenvalues --    1.21405   1.21525   1.22934   1.23833   1.24169
 Alpha virt. eigenvalues --    1.25907   1.26566   1.26760   1.28169   1.28291
 Alpha virt. eigenvalues --    1.29477   1.30015   1.32535   1.33167   1.34301
 Alpha virt. eigenvalues --    1.37037   1.38386   1.41905   1.43023   1.46542
 Alpha virt. eigenvalues --    1.47678   1.49122   1.49677   1.50811   1.51162
 Alpha virt. eigenvalues --    1.51641   1.52917   1.54401   1.54791   1.54960
 Alpha virt. eigenvalues --    1.55575   1.57961   1.58688   1.59283   1.61777
 Alpha virt. eigenvalues --    1.62993   1.64259   1.65806   1.66103   1.66887
 Alpha virt. eigenvalues --    1.67126   1.68239   1.70934   1.71570   1.72894
 Alpha virt. eigenvalues --    1.75247   1.75529   1.76739   1.76839   1.79129
 Alpha virt. eigenvalues --    1.79574   1.81139   1.81584   1.83399   1.85024
 Alpha virt. eigenvalues --    1.86090   1.88115   1.89689   1.89887   1.90370
 Alpha virt. eigenvalues --    1.92814   1.92831   1.93691   1.95343   1.96786
 Alpha virt. eigenvalues --    1.97917   1.98245   1.98303   1.99299   1.99611
 Alpha virt. eigenvalues --    1.99838   2.00306   2.00828   2.01658   2.03157
 Alpha virt. eigenvalues --    2.04972   2.09093   2.09461   2.12164   2.12950
 Alpha virt. eigenvalues --    2.14209   2.16256   2.18745   2.20498   2.22844
 Alpha virt. eigenvalues --    2.23250   2.26021   2.29271   2.31271   2.32207
 Alpha virt. eigenvalues --    2.34372   2.34863   2.39942   2.40671   2.43109
 Alpha virt. eigenvalues --    2.44884   2.47835   2.50355   2.50713   2.54371
 Alpha virt. eigenvalues --    2.55596   2.57276   2.62149   2.63941   2.64240
 Alpha virt. eigenvalues --    2.65869   2.66519   2.66836   2.68951   2.72876
 Alpha virt. eigenvalues --    2.74479   2.74668   2.76253   2.76876   2.77680
 Alpha virt. eigenvalues --    2.78661   2.78741   2.78934   2.79900   2.80270
 Alpha virt. eigenvalues --    2.81947   2.82623   2.83678   2.83889   2.84286
 Alpha virt. eigenvalues --    2.84987   2.85634   2.86407   2.87379   2.87990
 Alpha virt. eigenvalues --    2.88384   2.89170   2.89656   2.90182   2.90968
 Alpha virt. eigenvalues --    2.91496   2.93296   2.94998   2.95969   2.97300
 Alpha virt. eigenvalues --    2.99049   2.99253   3.00472   3.05795   3.06472
 Alpha virt. eigenvalues --    3.07933   3.08435   3.10805   3.11824   3.12627
 Alpha virt. eigenvalues --    3.15381   3.16608   3.17028   3.18597   3.21627
 Alpha virt. eigenvalues --    3.22766   3.23350   3.26044   3.27324   3.31349
 Alpha virt. eigenvalues --    3.33830   3.35027   3.36702   3.38807   3.41840
 Alpha virt. eigenvalues --    3.44814   3.45908   3.49193   3.49753   3.53212
 Alpha virt. eigenvalues --    3.55901   3.57790   3.59046   3.59553   3.61507
 Alpha virt. eigenvalues --    3.62939   3.65104   3.77001   3.81170   3.84471
 Alpha virt. eigenvalues --    3.89280   3.93622   4.02679   4.05658   4.09563
 Alpha virt. eigenvalues --    4.13213   4.22050   4.26445   4.32433   4.35811
 Alpha virt. eigenvalues --    4.49932   4.67103   4.83614   4.86316   4.87484
 Alpha virt. eigenvalues --    4.93198   5.02460   5.05216   5.06369   5.08984
 Alpha virt. eigenvalues --    5.10197   5.11304   5.12154   5.12957   5.15292
 Alpha virt. eigenvalues --    5.27454   5.31459   5.32237   5.53398   5.78157
 Alpha virt. eigenvalues --    5.83897   8.23636  17.40047  17.44238  17.52678
 Alpha virt. eigenvalues --   23.50275  23.70617  23.86574  23.89242  23.93433
 Alpha virt. eigenvalues --   23.96230  23.99282  24.00837  24.01784  24.07537
 Alpha virt. eigenvalues --   24.09006  24.14073  24.19671  24.20128  35.65883
 Alpha virt. eigenvalues --   49.90581  49.91492  49.99824  50.02427  50.12632
 Alpha virt. eigenvalues --  189.33195
  Beta  occ. eigenvalues --  -89.04299 -19.10981 -19.09067 -19.08710 -19.08705
  Beta  occ. eigenvalues --  -19.04597 -14.30918 -10.21024 -10.20571 -10.19966
  Beta  occ. eigenvalues --  -10.18790 -10.17612 -10.16535 -10.16490 -10.16326
  Beta  occ. eigenvalues --  -10.16239 -10.16018 -10.16008 -10.15889 -10.15845
  Beta  occ. eigenvalues --  -10.15422  -8.10184  -6.06465  -6.06448  -6.06344
  Beta  occ. eigenvalues --   -1.10481  -1.02037  -0.97215  -0.97102  -0.96541
  Beta  occ. eigenvalues --   -0.90873  -0.84861  -0.83318  -0.78330  -0.74386
  Beta  occ. eigenvalues --   -0.73557  -0.72884  -0.67003  -0.64515  -0.61858
  Beta  occ. eigenvalues --   -0.58944  -0.57013  -0.56119  -0.53288  -0.51590
  Beta  occ. eigenvalues --   -0.49731  -0.48831  -0.47673  -0.47150  -0.46091
  Beta  occ. eigenvalues --   -0.45047  -0.44325  -0.43489  -0.42809  -0.41600
  Beta  occ. eigenvalues --   -0.41090  -0.40385  -0.39719  -0.37994  -0.37115
  Beta  occ. eigenvalues --   -0.36103  -0.35496  -0.35189  -0.34010  -0.33198
  Beta  occ. eigenvalues --   -0.33163  -0.32863  -0.32191  -0.29635  -0.29622
  Beta  occ. eigenvalues --   -0.28826  -0.26669  -0.26587  -0.25483  -0.24717
  Beta  occ. eigenvalues --   -0.24079  -0.23466  -0.21994  -0.14149
  Beta virt. eigenvalues --   -0.04821  -0.01577  -0.00174   0.00195   0.00652
  Beta virt. eigenvalues --    0.01187   0.02297   0.02447   0.03880   0.04246
  Beta virt. eigenvalues --    0.04458   0.04604   0.05339   0.05415   0.06124
  Beta virt. eigenvalues --    0.06187   0.06778   0.07563   0.07614   0.07861
  Beta virt. eigenvalues --    0.08863   0.08880   0.09264   0.09615   0.10187
  Beta virt. eigenvalues --    0.10891   0.11006   0.11184   0.11610   0.11912
  Beta virt. eigenvalues --    0.11943   0.12505   0.12880   0.12956   0.13484
  Beta virt. eigenvalues --    0.13556   0.13730   0.14055   0.14511   0.14996
  Beta virt. eigenvalues --    0.15226   0.15521   0.15761   0.16245   0.16981
  Beta virt. eigenvalues --    0.17217   0.17782   0.17963   0.18124   0.18686
  Beta virt. eigenvalues --    0.18797   0.19763   0.19821   0.20300   0.20541
  Beta virt. eigenvalues --    0.20722   0.20811   0.21415   0.21516   0.22639
  Beta virt. eigenvalues --    0.22784   0.23038   0.23217   0.23950   0.24512
  Beta virt. eigenvalues --    0.24622   0.25041   0.25188   0.25920   0.26226
  Beta virt. eigenvalues --    0.26513   0.26695   0.26846   0.27447   0.27804
  Beta virt. eigenvalues --    0.27839   0.28207   0.28682   0.28958   0.29106
  Beta virt. eigenvalues --    0.29481   0.29671   0.30000   0.30228   0.30914
  Beta virt. eigenvalues --    0.31175   0.31609   0.31739   0.32203   0.32239
  Beta virt. eigenvalues --    0.32739   0.33259   0.33560   0.34015   0.34038
  Beta virt. eigenvalues --    0.34757   0.34766   0.35467   0.35888   0.36625
  Beta virt. eigenvalues --    0.37249   0.37905   0.38083   0.38446   0.39516
  Beta virt. eigenvalues --    0.39888   0.40372   0.41195   0.41300   0.42458
  Beta virt. eigenvalues --    0.42711   0.43551   0.44141   0.44198   0.45423
  Beta virt. eigenvalues --    0.46306   0.46935   0.48039   0.49275   0.50734
  Beta virt. eigenvalues --    0.51170   0.52629   0.52758   0.55021   0.55185
  Beta virt. eigenvalues --    0.55807   0.56259   0.57374   0.57676   0.58004
  Beta virt. eigenvalues --    0.59343   0.59489   0.60227   0.60289   0.60616
  Beta virt. eigenvalues --    0.61867   0.62588   0.63535   0.64539   0.65022
  Beta virt. eigenvalues --    0.65594   0.65712   0.66083   0.66679   0.67802
  Beta virt. eigenvalues --    0.67886   0.68634   0.69051   0.69760   0.69906
  Beta virt. eigenvalues --    0.71148   0.73641   0.74361   0.75016   0.75515
  Beta virt. eigenvalues --    0.77564   0.77784   0.78016   0.78064   0.78646
  Beta virt. eigenvalues --    0.80328   0.81423   0.82275   0.83652   0.84535
  Beta virt. eigenvalues --    0.85456   0.86904   0.87449   0.88022   0.88911
  Beta virt. eigenvalues --    0.89900   0.90570   0.91906   0.92144   0.93948
  Beta virt. eigenvalues --    0.94209   0.94873   0.95733   0.96641   0.96906
  Beta virt. eigenvalues --    0.97416   0.97787   0.98401   0.99841   0.99941
  Beta virt. eigenvalues --    1.01674   1.01731   1.02468   1.03372   1.03475
  Beta virt. eigenvalues --    1.04271   1.05743   1.06448   1.06928   1.08455
  Beta virt. eigenvalues --    1.08553   1.08966   1.09360   1.09971   1.12139
  Beta virt. eigenvalues --    1.12371   1.13411   1.14763   1.15272   1.16209
  Beta virt. eigenvalues --    1.16860   1.17091   1.19268   1.19390   1.19984
  Beta virt. eigenvalues --    1.21405   1.21525   1.22934   1.23833   1.24169
  Beta virt. eigenvalues --    1.25907   1.26566   1.26760   1.28169   1.28291
  Beta virt. eigenvalues --    1.29477   1.30015   1.32535   1.33167   1.34301
  Beta virt. eigenvalues --    1.37037   1.38386   1.41905   1.43023   1.46542
  Beta virt. eigenvalues --    1.47678   1.49122   1.49677   1.50811   1.51162
  Beta virt. eigenvalues --    1.51641   1.52917   1.54401   1.54791   1.54960
  Beta virt. eigenvalues --    1.55575   1.57961   1.58688   1.59283   1.61777
  Beta virt. eigenvalues --    1.62993   1.64259   1.65806   1.66103   1.66887
  Beta virt. eigenvalues --    1.67126   1.68239   1.70934   1.71570   1.72894
  Beta virt. eigenvalues --    1.75247   1.75529   1.76739   1.76839   1.79129
  Beta virt. eigenvalues --    1.79574   1.81139   1.81584   1.83399   1.85024
  Beta virt. eigenvalues --    1.86090   1.88115   1.89689   1.89887   1.90370
  Beta virt. eigenvalues --    1.92814   1.92831   1.93691   1.95343   1.96786
  Beta virt. eigenvalues --    1.97917   1.98245   1.98303   1.99299   1.99611
  Beta virt. eigenvalues --    1.99838   2.00306   2.00828   2.01658   2.03157
  Beta virt. eigenvalues --    2.04972   2.09093   2.09461   2.12164   2.12950
  Beta virt. eigenvalues --    2.14209   2.16256   2.18745   2.20498   2.22844
  Beta virt. eigenvalues --    2.23250   2.26021   2.29271   2.31271   2.32207
  Beta virt. eigenvalues --    2.34372   2.34863   2.39942   2.40671   2.43109
  Beta virt. eigenvalues --    2.44884   2.47835   2.50355   2.50713   2.54371
  Beta virt. eigenvalues --    2.55596   2.57276   2.62149   2.63941   2.64240
  Beta virt. eigenvalues --    2.65869   2.66519   2.66836   2.68951   2.72876
  Beta virt. eigenvalues --    2.74479   2.74668   2.76253   2.76876   2.77680
  Beta virt. eigenvalues --    2.78661   2.78741   2.78934   2.79900   2.80270
  Beta virt. eigenvalues --    2.81947   2.82623   2.83678   2.83889   2.84286
  Beta virt. eigenvalues --    2.84987   2.85634   2.86407   2.87379   2.87990
  Beta virt. eigenvalues --    2.88384   2.89170   2.89656   2.90182   2.90968
  Beta virt. eigenvalues --    2.91496   2.93296   2.94998   2.95969   2.97300
  Beta virt. eigenvalues --    2.99049   2.99253   3.00472   3.05795   3.06472
  Beta virt. eigenvalues --    3.07933   3.08435   3.10805   3.11824   3.12627
  Beta virt. eigenvalues --    3.15381   3.16608   3.17028   3.18597   3.21627
  Beta virt. eigenvalues --    3.22766   3.23350   3.26044   3.27324   3.31349
  Beta virt. eigenvalues --    3.33830   3.35027   3.36702   3.38807   3.41840
  Beta virt. eigenvalues --    3.44814   3.45908   3.49193   3.49753   3.53212
  Beta virt. eigenvalues --    3.55901   3.57790   3.59046   3.59553   3.61507
  Beta virt. eigenvalues --    3.62939   3.65104   3.77001   3.81170   3.84471
  Beta virt. eigenvalues --    3.89280   3.93622   4.02679   4.05658   4.09563
  Beta virt. eigenvalues --    4.13213   4.22050   4.26445   4.32433   4.35811
  Beta virt. eigenvalues --    4.49932   4.67103   4.83614   4.86316   4.87484
  Beta virt. eigenvalues --    4.93198   5.02460   5.05216   5.06369   5.08984
  Beta virt. eigenvalues --    5.10197   5.11304   5.12154   5.12957   5.15292
  Beta virt. eigenvalues --    5.27454   5.31459   5.32237   5.53398   5.78157
  Beta virt. eigenvalues --    5.83897   8.23636  17.40047  17.44238  17.52678
  Beta virt. eigenvalues --   23.50275  23.70617  23.86574  23.89242  23.93433
  Beta virt. eigenvalues --   23.96230  23.99282  24.00837  24.01784  24.07537
  Beta virt. eigenvalues --   24.09006  24.14073  24.19671  24.20128  35.65883
  Beta virt. eigenvalues --   49.90581  49.91492  49.99824  50.02427  50.12632
  Beta virt. eigenvalues --  189.33195
          Condensed to atoms (all electrons):
               1          2          3          4          5          6
     1  C   12.696557  -1.143672  -2.318029  -3.412463  -4.860766   2.927235
     2  C   -1.143672   7.765645   0.788096  -1.139987   0.398400  -1.074128
     3  C   -2.318029   0.788096   9.276811   1.588998   1.248683  -0.887520
     4  C   -3.412463  -1.139987   1.588998  22.442656  -1.596465  -1.387135
     5  C   -4.860766   0.398400   1.248683  -1.596465  28.838924  -1.267907
     6  C    2.927235  -1.074128  -0.887520  -1.387135  -1.267907  10.593020
     7  C   -0.513860   0.604891  -0.609291  -0.707332  -0.658249  -0.586672
     8  C    0.342260  -0.151009  -1.360173  -3.420352   0.612585  -0.887629
     9  C    1.068063   0.364501  -0.587485   1.245929  -8.770055  -1.265113
    10  C   -0.205567  -0.245027  -0.540288  -4.778252  -3.352520  -0.265552
    11  C    1.255686   0.029652  -0.303553  -0.186784  -4.185414  -0.095730
    12  C   -0.034488  -0.043048  -0.009085   0.005150  -0.929963  -0.035923
    13  C   -0.254639   0.016662   0.022976  -0.469006   1.267772  -0.083631
    14  C    0.066274  -0.012312  -0.157027  -1.461959  -0.535166  -0.132300
    15  O    0.163665   0.112481  -0.005361  -0.649081  -0.183814  -0.037615
    16  O   -0.013036  -0.014731   0.078927  -0.361401  -0.312576   0.128402
    17  N   -0.034691   0.005405   0.004863   0.016478   0.122210   0.003682
    18  H    0.558157  -0.131313  -0.036758  -0.181465   0.030124   0.085468
    19  H   -0.099103   0.446258  -0.059534   0.025106   0.003914  -0.004766
    20  H   -0.008828  -0.056269   0.507209  -0.010929   0.012865  -0.119367
    21  H    0.065292  -0.012510  -0.199132   0.104403  -0.117151   0.417377
    22  S    0.007426  -0.002093  -0.000477  -0.032347  -0.032185   0.004651
    23  H   -0.001566   0.000432  -0.000053   0.003814   0.022504  -0.000728
    24  H   -0.141647  -0.035447   0.014159   0.166743   0.140875   0.000919
    25  H    0.001245   0.000591   0.000199  -0.001132  -0.006780  -0.000187
    26  H   -0.000874   0.001828  -0.002325  -0.026778  -0.061153  -0.012331
    27  O   -0.000322  -0.000061   0.000002  -0.002499   0.002653   0.000185
    28  O    0.000464   0.000039  -0.000044   0.004240  -0.005709  -0.000468
    29  O   -0.000333  -0.000063   0.000004  -0.002500   0.002939   0.000196
    30  H    0.001289   0.000563   0.000173  -0.001201  -0.007142  -0.000231
               7          8          9         10         11         12
     1  C   -0.513860   0.342260   1.068063  -0.205567   1.255686  -0.034488
     2  C    0.604891  -0.151009   0.364501  -0.245027   0.029652  -0.043048
     3  C   -0.609291  -1.360173  -0.587485  -0.540288  -0.303553  -0.009085
     4  C   -0.707332  -3.420352   1.245929  -4.778252  -0.186784   0.005150
     5  C   -0.658249   0.612585  -8.770055  -3.352520  -4.185414  -0.929963
     6  C   -0.586672  -0.887629  -1.265113  -0.265552  -0.095730  -0.035923
     7  C    9.639731   1.481937  -1.645484   1.397579  -3.241121   0.611337
     8  C    1.481937  15.622187  -2.355072   0.057061  -2.696952  -2.566010
     9  C   -1.645484  -2.355072  14.892858  -1.218852   6.629723   1.966432
    10  C    1.397579   0.057061  -1.218852  17.799297  -3.694988   0.134024
    11  C   -3.241121  -2.696952   6.629723  -3.694988  16.461319   0.260195
    12  C    0.611337  -2.566010   1.966432   0.134024   0.260195  20.907011
    13  C    0.453525   2.278751  -3.506246  -1.065445  -4.295802  -6.635201
    14  C   -0.482374  -1.541777  -0.328419   1.777706   0.128140  -5.535897
    15  O    0.324373  -0.005120   0.079291  -0.062938   0.204156  -0.050983
    16  O   -0.031204   0.896288  -0.210826  -0.390479  -0.045507  -0.017813
    17  N    0.062541   0.073960  -0.305706   0.206090  -0.444826   0.145464
    18  H   -0.014831   0.023757  -0.040066   0.008398   0.041712  -0.003280
    19  H    0.022506  -0.009434   0.005045  -0.005999   0.001217  -0.000676
    20  H   -0.016842   0.013337  -0.006834   0.008973  -0.001343   0.000084
    21  H    0.013718   0.065805   0.025844  -0.013484   0.007444   0.000380
    22  S   -0.096822  -0.170913   0.050232  -0.336293   1.201876  -0.763169
    23  H   -0.012553   0.061218  -0.025134  -0.072086  -0.014851  -0.010826
    24  H    0.206511   0.029675  -0.225825   0.117629  -0.416199   0.107144
    25  H    0.001035   0.007110  -0.001279  -0.003479   0.002366  -0.034309
    26  H   -0.005534   0.003361   0.050979   0.096172   0.031756  -0.090854
    27  O    0.015725  -0.000472  -0.063137   0.023336  -0.218301  -0.196555
    28  O   -0.032378  -0.004688   0.101823   0.003195  -0.011425   0.261868
    29  O    0.016674   0.000006  -0.064586   0.026026  -0.227570  -0.198586
    30  H    0.001148   0.006992  -0.000441  -0.003583   0.004966  -0.032809
              13         14         15         16         17         18
     1  C   -0.254639   0.066274   0.163665  -0.013036  -0.034691   0.558157
     2  C    0.016662  -0.012312   0.112481  -0.014731   0.005405  -0.131313
     3  C    0.022976  -0.157027  -0.005361   0.078927   0.004863  -0.036758
     4  C   -0.469006  -1.461959  -0.649081  -0.361401   0.016478  -0.181465
     5  C    1.267772  -0.535166  -0.183814  -0.312576   0.122210   0.030124
     6  C   -0.083631  -0.132300  -0.037615   0.128402   0.003682   0.085468
     7  C    0.453525  -0.482374   0.324373  -0.031204   0.062541  -0.014831
     8  C    2.278751  -1.541777  -0.005120   0.896288   0.073960   0.023757
     9  C   -3.506246  -0.328419   0.079291  -0.210826  -0.305706  -0.040066
    10  C   -1.065445   1.777706  -0.062938  -0.390479   0.206090   0.008398
    11  C   -4.295802   0.128140   0.204156  -0.045507  -0.444826   0.041712
    12  C   -6.635201  -5.535897  -0.050983  -0.017813   0.145464  -0.003280
    13  C   15.919777   2.102789  -0.021910   0.152434  -0.039290  -0.007622
    14  C    2.102789  11.528605   0.011281   0.135443  -0.157456   0.004304
    15  O   -0.021910   0.011281   8.381287  -0.000256   0.056609  -0.013692
    16  O    0.152434   0.135443  -0.000256   8.555304   0.000213   0.000552
    17  N   -0.039290  -0.157456   0.056609   0.000213   7.415786   0.002196
    18  H   -0.007622   0.004304  -0.013692   0.000552   0.002196   0.545596
    19  H    0.000505   0.000441   0.001612  -0.000397  -0.000017  -0.016107
    20  H   -0.000606   0.000228  -0.000091   0.003133   0.000015   0.000117
    21  H   -0.004483  -0.013016   0.000115  -0.008022  -0.000173   0.002138
    22  S   -0.874088  -0.029773   0.014984  -0.000217  -0.050115   0.000601
    23  H    0.536860  -0.161842  -0.000123   0.003189   0.002103  -0.000061
    24  H    0.037279  -0.022552   0.178331   0.000309  -0.059385  -0.007571
    25  H    0.024213   0.006205  -0.004690  -0.000015   0.317931  -0.000225
    26  H   -0.168535   0.497429   0.000730  -0.003681  -0.003134   0.000045
    27  O    0.327491   0.094367   0.000038  -0.000004  -0.022852   0.000017
    28  O   -0.019078   0.081145   0.000141  -0.000017  -0.027246   0.000006
    29  O    0.336898   0.096937   0.000034  -0.000004  -0.022680   0.000019
    30  H    0.023049   0.005310  -0.004598  -0.000015   0.316299  -0.000197
              19         20         21         22         23         24
     1  C   -0.099103  -0.008828   0.065292   0.007426  -0.001566  -0.141647
     2  C    0.446258  -0.056269  -0.012510  -0.002093   0.000432  -0.035447
     3  C   -0.059534   0.507209  -0.199132  -0.000477  -0.000053   0.014159
     4  C    0.025106  -0.010929   0.104403  -0.032347   0.003814   0.166743
     5  C    0.003914   0.012865  -0.117151  -0.032185   0.022504   0.140875
     6  C   -0.004766  -0.119367   0.417377   0.004651  -0.000728   0.000919
     7  C    0.022506  -0.016842   0.013718  -0.096822  -0.012553   0.206511
     8  C   -0.009434   0.013337   0.065805  -0.170913   0.061218   0.029675
     9  C    0.005045  -0.006834   0.025844   0.050232  -0.025134  -0.225825
    10  C   -0.005999   0.008973  -0.013484  -0.336293  -0.072086   0.117629
    11  C    0.001217  -0.001343   0.007444   1.201876  -0.014851  -0.416199
    12  C   -0.000676   0.000084   0.000380  -0.763169  -0.010826   0.107144
    13  C    0.000505  -0.000606  -0.004483  -0.874088   0.536860   0.037279
    14  C    0.000441   0.000228  -0.013016  -0.029773  -0.161842  -0.022552
    15  O    0.001612  -0.000091   0.000115   0.014984  -0.000123   0.178331
    16  O   -0.000397   0.003133  -0.008022  -0.000217   0.003189   0.000309
    17  N   -0.000017   0.000015  -0.000173  -0.050115   0.002103  -0.059385
    18  H   -0.016107   0.000117   0.002138   0.000601  -0.000061  -0.007571
    19  H    0.530329  -0.014148   0.000220  -0.000023   0.000009  -0.000365
    20  H   -0.014148   0.533639  -0.015139   0.000013  -0.000010   0.000151
    21  H    0.000220  -0.015139   0.531151  -0.000266  -0.000013  -0.000339
    22  S   -0.000023   0.000013  -0.000266  16.899159  -0.042481  -0.002776
    23  H    0.000009  -0.000010  -0.000013  -0.042481   0.514351  -0.000006
    24  H   -0.000365   0.000151  -0.000339  -0.002776  -0.000006   0.425237
    25  H    0.000004  -0.000008   0.000019  -0.014025   0.000164   0.002495
    26  H   -0.000026  -0.000057  -0.000377   0.015360  -0.020865  -0.000049
    27  O   -0.000000   0.000000  -0.000004   0.170336  -0.004166   0.000970
    28  O    0.000000  -0.000000   0.000012  -0.568568   0.007146  -0.002824
    29  O   -0.000000   0.000000  -0.000004   0.163276  -0.004081   0.000853
    30  H    0.000004  -0.000008   0.000020  -0.016039   0.000185   0.002185
              25         26         27         28         29         30
     1  C    0.001245  -0.000874  -0.000322   0.000464  -0.000333   0.001289
     2  C    0.000591   0.001828  -0.000061   0.000039  -0.000063   0.000563
     3  C    0.000199  -0.002325   0.000002  -0.000044   0.000004   0.000173
     4  C   -0.001132  -0.026778  -0.002499   0.004240  -0.002500  -0.001201
     5  C   -0.006780  -0.061153   0.002653  -0.005709   0.002939  -0.007142
     6  C   -0.000187  -0.012331   0.000185  -0.000468   0.000196  -0.000231
     7  C    0.001035  -0.005534   0.015725  -0.032378   0.016674   0.001148
     8  C    0.007110   0.003361  -0.000472  -0.004688   0.000006   0.006992
     9  C   -0.001279   0.050979  -0.063137   0.101823  -0.064586  -0.000441
    10  C   -0.003479   0.096172   0.023336   0.003195   0.026026  -0.003583
    11  C    0.002366   0.031756  -0.218301  -0.011425  -0.227570   0.004966
    12  C   -0.034309  -0.090854  -0.196555   0.261868  -0.198586  -0.032809
    13  C    0.024213  -0.168535   0.327491  -0.019078   0.336898   0.023049
    14  C    0.006205   0.497429   0.094367   0.081145   0.096937   0.005310
    15  O   -0.004690   0.000730   0.000038   0.000141   0.000034  -0.004598
    16  O   -0.000015  -0.003681  -0.000004  -0.000017  -0.000004  -0.000015
    17  N    0.317931  -0.003134  -0.022852  -0.027246  -0.022680   0.316299
    18  H   -0.000225   0.000045   0.000017   0.000006   0.000019  -0.000197
    19  H    0.000004  -0.000026  -0.000000   0.000000  -0.000000   0.000004
    20  H   -0.000008  -0.000057   0.000000  -0.000000   0.000000  -0.000008
    21  H    0.000019  -0.000377  -0.000004   0.000012  -0.000004   0.000020
    22  S   -0.014025   0.015360   0.170336  -0.568568   0.163276  -0.016039
    23  H    0.000164  -0.020865  -0.004166   0.007146  -0.004081   0.000185
    24  H    0.002495  -0.000049   0.000970  -0.002824   0.000853   0.002185
    25  H    0.428364   0.000095   0.010450   0.007726  -0.005437  -0.061851
    26  H    0.000095   0.535395   0.001301   0.000484   0.001301   0.000072
    27  O    0.010450   0.001301   8.719604  -0.253497  -0.190703  -0.006389
    28  O    0.007726   0.000484  -0.253497   8.998106  -0.251173   0.008218
    29  O   -0.005437   0.001301  -0.190703  -0.251173   8.720596   0.011736
    30  H   -0.061851   0.000072  -0.006389   0.008218   0.011736   0.429586
          Atomic-Atomic Spin Densities.
               1          2          3          4          5          6
     1  C    0.000000  -0.000000  -0.000000  -0.000000  -0.000000   0.000000
     2  C   -0.000000   0.000000   0.000000   0.000000   0.000000  -0.000000
     3  C   -0.000000   0.000000   0.000000  -0.000000   0.000000  -0.000000
     4  C   -0.000000   0.000000  -0.000000   0.000000  -0.000000  -0.000000
     5  C   -0.000000   0.000000   0.000000  -0.000000   0.000000  -0.000000
     6  C    0.000000  -0.000000  -0.000000  -0.000000  -0.000000   0.000000
     7  C    0.000000  -0.000000  -0.000000  -0.000000  -0.000000   0.000000
     8  C    0.000000  -0.000000  -0.000000  -0.000000   0.000000   0.000000
     9  C    0.000000  -0.000000  -0.000000   0.000000  -0.000000   0.000000
    10  C   -0.000000  -0.000000  -0.000000  -0.000000   0.000000   0.000000
    11  C    0.000000  -0.000000  -0.000000   0.000000  -0.000000   0.000000
    12  C   -0.000000  -0.000000  -0.000000   0.000000  -0.000000   0.000000
    13  C   -0.000000   0.000000   0.000000  -0.000000   0.000000   0.000000
    14  C    0.000000  -0.000000   0.000000  -0.000000  -0.000000   0.000000
    15  O    0.000000  -0.000000  -0.000000  -0.000000  -0.000000   0.000000
    16  O   -0.000000  -0.000000  -0.000000  -0.000000   0.000000   0.000000
    17  N   -0.000000   0.000000   0.000000   0.000000   0.000000  -0.000000
    18  H    0.000000  -0.000000  -0.000000  -0.000000  -0.000000   0.000000
    19  H   -0.000000   0.000000   0.000000   0.000000  -0.000000  -0.000000
    20  H   -0.000000   0.000000   0.000000  -0.000000   0.000000  -0.000000
    21  H    0.000000  -0.000000  -0.000000   0.000000  -0.000000   0.000000
    22  S    0.000000  -0.000000  -0.000000  -0.000000  -0.000000  -0.000000
    23  H   -0.000000  -0.000000   0.000000   0.000000   0.000000   0.000000
    24  H   -0.000000   0.000000   0.000000   0.000000   0.000000  -0.000000
    25  H    0.000000   0.000000  -0.000000  -0.000000  -0.000000  -0.000000
    26  H    0.000000   0.000000  -0.000000   0.000000  -0.000000  -0.000000
    27  O    0.000000   0.000000  -0.000000   0.000000   0.000000  -0.000000
[...]
     1  C   -0.109729  -0.000000
     2  C   -0.473774   0.000000
     3  C   -0.454963  -0.000000
     4  C    0.225551   0.000000
     5  C    0.178568   0.000000
     6  C   -0.016202  -0.000000
     7  C   -0.198682  -0.000000
     8  C   -0.406689   0.000000
     9  C    0.139838  -0.000000
    10  C    0.599345   0.000000
    11  C   -0.179841  -0.000000
    12  C   -1.209614   0.000000
    13  C   -0.055394  -0.000000
    14  C    0.035264  -0.000000
    15  O   -0.488854  -0.000000
    16  O   -0.543993  -0.000000
    17  N   -0.584272   0.000000
    18  H    0.149979  -0.000000
    19  H    0.173425   0.000000
    20  H    0.170714  -0.000000
    21  H    0.150180   0.000000
    22  S    0.504758  -0.000000
    23  H    0.219471  -0.000000
    24  H    0.483519  -0.000000
    25  H    0.323204   0.000000
    26  H    0.160268  -0.000000
    27  O   -0.407514  -0.000000
    28  O   -0.297498  -0.000000
    29  O   -0.409773  -0.000000
    30  H    0.322710   0.000000
 Sum of Mulliken charges =  -2.00000  -0.00000
 Mulliken charges and spin densities with hydrogens summed into heavy atoms:
               1          2
     1  C    0.040250  -0.000000
     2  C   -0.300349   0.000000
     3  C   -0.284250  -0.000000
     4  C    0.225551   0.000000
     5  C    0.178568   0.000000
     6  C    0.133977   0.000000
     7  C   -0.198682  -0.000000
     8  C   -0.406689   0.000000
     9  C    0.139838  -0.000000
    10  C    0.599345   0.000000
    11  C   -0.179841  -0.000000
    12  C   -1.209614   0.000000
    13  C    0.164077  -0.000000
    14  C    0.195532  -0.000000
    15  O   -0.005335  -0.000000
    16  O   -0.543993  -0.000000
    17  N    0.061641   0.000000
    22  S    0.504758  -0.000000
    27  O   -0.407514  -0.000000
    28  O   -0.297498  -0.000000
    29  O   -0.409773  -0.000000
 Electronic spatial extent (au):  <R**2>=           7366.7605
 Charge=             -2.0000 electrons
 Dipole moment (field-independent basis, Debye):
    X=              9.4932    Y=             -4.7582    Z=              0.0180  Tot=             10.6190
 Quadrupole moment (field-independent basis, Debye-Ang):
   XX=           -257.0543   YY=           -170.1275   ZZ=           -146.1289
   XY=            -12.1820   XZ=             -0.0272   YZ=             -0.0870
 Traceless Quadrupole moment (field-independent basis, Debye-Ang):
   XX=            -65.9508   YY=             20.9761   ZZ=             44.9747
   XY=            -12.1820   XZ=             -0.0272   YZ=             -0.0870
 Octapole moment (field-independent basis, Debye-Ang**2):
  XXX=            334.3481  YYY=            -71.2165  ZZZ=             -0.0459  XYY=            -60.6970
  XXY=            -44.1488  XXZ=             -0.0174  XZZ=              2.6581  YZZ=             -0.4386
  YYZ=              0.2267  XYZ=              0.0457
 Hexadecapole moment (field-independent basis, Debye-Ang**3):
 XXXX=         -10165.0598 YYYY=          -2123.3099 ZZZZ=           -299.6010 XXXY=            -42.9688
 XXXZ=             -0.3188 YYYX=           -131.3397 YYYZ=             -0.6869 ZZZX=              0.3925
 ZZZY=             -0.1274 XXYY=          -1888.6517 XXZZ=          -1623.4026 YYZZ=           -373.4092
 XXYZ=              0.0299 YYXZ=             -0.7482 ZZXY=            -10.3722
 N-N= 1.771126716481D+03 E-N=-6.798448824251D+03  KE= 1.364122694800D+03
                          Isotropic Fermi Contact Couplings
        Atom                 a.u.       MegaHertz       Gauss      10(-4) cm-1
     1  C(13)             -0.00000      -0.00000      -0.00000      -0.00000
     2  C(13)             -0.00000      -0.00000      -0.00000      -0.00000
     3  C(13)              0.00000       0.00000       0.00000       0.00000
     4  C(13)             -0.00000      -0.00000      -0.00000      -0.00000
     5  C(13)              0.00000       0.00000       0.00000       0.00000
     6  C(13)             -0.00000      -0.00000      -0.00000      -0.00000
     7  C(13)             -0.00000      -0.00000      -0.00000      -0.00000
     8  C(13)             -0.00000      -0.00000      -0.00000      -0.00000
     9  C(13)             -0.00000      -0.00000      -0.00000      -0.00000
    10  C(13)             -0.00000      -0.00000      -0.00000      -0.00000
    11  C(13)              0.00000       0.00000       0.00000       0.00000
    12  C(13)             -0.00000      -0.00000      -0.00000      -0.00000
    13  C(13)             -0.00000      -0.00000      -0.00000      -0.00000
    14  C(13)             -0.00000      -0.00000      -0.00000      -0.00000
    15  O(17)             -0.00000       0.00000       0.00000       0.00000
    16  O(17)             -0.00000       0.00000       0.00000       0.00000
    17  N(14)              0.00000       0.00000       0.00000       0.00000
    18  H(1)               0.00000       0.00000       0.00000       0.00000
    19  H(1)              -0.00000      -0.00000      -0.00000      -0.00000
    20  H(1)               0.00000       0.00000       0.00000       0.00000
    21  H(1)              -0.00000      -0.00000      -0.00000      -0.00000
    22  S(33)              0.00000       0.00000       0.00000       0.00000
    23  H(1)               0.00000       0.00000       0.00000       0.00000
    24  H(1)              -0.00000      -0.00000      -0.00000      -0.00000
    25  H(1)               0.00000       0.00000       0.00000       0.00000
    26  H(1)              -0.00000      -0.00000      -0.00000      -0.00000
    27  O(17)             -0.00000       0.00000       0.00000       0.00000
    28  O(17)             -0.00000       0.00000       0.00000       0.00000
    29  O(17)             -0.00000       0.00000       0.00000       0.00000
    30  H(1)              -0.00000      -0.00000      -0.00000      -0.00000
 --------------------------------------------------------
       Center         ----  Spin Dipole Couplings  ----
                      3XX-RR        3YY-RR        3ZZ-RR
 --------------------------------------------------------
     1   Atom        0.000000     -0.000000     -0.000000
     2   Atom        0.000000      0.000000     -0.000000
     3   Atom       -0.000000      0.000000     -0.000000
     4   Atom        0.000000      0.000000     -0.000000
     5   Atom       -0.000000      0.000000     -0.000000
     6   Atom        0.000000     -0.000000     -0.000000
     7   Atom        0.000000     -0.000000     -0.000000
     8   Atom       -0.000000      0.000000     -0.000000
     9   Atom       -0.000000      0.000000     -0.000000
    10   Atom        0.000000      0.000000     -0.000000
    11   Atom       -0.000000      0.000000      0.000000
    12   Atom        0.000000     -0.000000     -0.000000
    13   Atom       -0.000000      0.000000      0.000000
    14   Atom        0.000000     -0.000000     -0.000000
    15   Atom       -0.000000      0.000000      0.000000
    16   Atom        0.000000     -0.000000     -0.000000
    17   Atom        0.000000     -0.000000     -0.000000
    18   Atom        0.000000     -0.000000      0.000000
    19   Atom        0.000000      0.000000     -0.000000
    20   Atom       -0.000000      0.000000     -0.000000
    21   Atom        0.000000     -0.000000     -0.000000
    22   Atom        0.000000     -0.000000     -0.000000
    23   Atom       -0.000000      0.000000     -0.000000
    24   Atom       -0.000000      0.000000     -0.000000
    25   Atom        0.000000     -0.000000     -0.000000
    26   Atom       -0.000000      0.000000     -0.000000
    27   Atom        0.000000     -0.000000      0.000000
    28   Atom        0.000000     -0.000000     -0.000000
    29   Atom       -0.000000     -0.000000      0.000000
    30   Atom        0.000000      0.000000     -0.000000
 --------------------------------------------------------
                        XY            XZ            YZ
 --------------------------------------------------------
     1   Atom       -0.000000     -0.000000      0.000000
     2   Atom        0.000000     -0.000000     -0.000000
     3   Atom       -0.000000     -0.000000     -0.000000
     4   Atom       -0.000000      0.000000     -0.000000
     5   Atom        0.000000     -0.000000      0.000000
     6   Atom        0.000000      0.000000      0.000000
     7   Atom       -0.000000     -0.000000     -0.000000
     8   Atom       -0.000000     -0.000000      0.000000
     9   Atom       -0.000000     -0.000000      0.000000
    10   Atom        0.000000     -0.000000      0.000000
    11   Atom        0.000000     -0.000000     -0.000000
    12   Atom       -0.000000     -0.000000      0.000000
    13   Atom        0.000000     -0.000000     -0.000000
    14   Atom        0.000000      0.000000     -0.000000
    15   Atom       -0.000000      0.000000      0.000000
    16   Atom       -0.000000      0.000000     -0.000000
    17   Atom       -0.000000      0.000000      0.000000
    18   Atom       -0.000000     -0.000000      0.000000
    19   Atom       -0.000000      0.000000     -0.000000
    20   Atom       -0.000000     -0.000000     -0.000000
    21   Atom        0.000000      0.000000     -0.000000
    22   Atom        0.000000      0.000000      0.000000
    23   Atom       -0.000000     -0.000000     -0.000000
    24   Atom        0.000000     -0.000000      0.000000
    25   Atom        0.000000     -0.000000      0.000000
    26   Atom       -0.000000     -0.000000      0.000000
    27   Atom       -0.000000      0.000000     -0.000000
    28   Atom        0.000000      0.000000     -0.000000
    29   Atom       -0.000000     -0.000000      0.000000
    30   Atom       -0.000000      0.000000     -0.000000
 --------------------------------------------------------


 ---------------------------------------------------------------------------------
              Anisotropic Spin Dipole Couplings in Principal Axis System
 ---------------------------------------------------------------------------------

       Atom             a.u.   MegaHertz   Gauss  10(-4) cm-1        Axes

              Baa    -0.0000    -0.000    -0.000    -0.000  0.0797  0.9652 -0.2491
     1 C(13)  Bbb    -0.0000    -0.000    -0.000    -0.000  0.0317  0.2473  0.9684
              Bcc     0.0000     0.000     0.000     0.000  0.9963 -0.0851 -0.0109
 
              Baa    -0.0000    -0.000    -0.000    -0.000 -0.6720  0.7404 -0.0127
     2 C(13)  Bbb    -0.0000    -0.000    -0.000    -0.000  0.0059  0.0225  0.9997
              Bcc     0.0000     0.000     0.000     0.000  0.7405  0.6718 -0.0195
 
              Baa    -0.0000    -0.000    -0.000    -0.000  0.8204  0.5667  0.0754
     3 C(13)  Bbb    -0.0000    -0.000    -0.000    -0.000 -0.0758 -0.0230  0.9969
              Bcc     0.0000     0.000     0.000     0.000 -0.5667  0.8236 -0.0241
 
              Baa    -0.0000    -0.000    -0.000    -0.000  0.7621  0.6396 -0.1007
     4 C(13)  Bbb    -0.0000    -0.000    -0.000    -0.000  0.0567  0.0890  0.9944
              Bcc     0.0000     0.000     0.000     0.000 -0.6450  0.7635 -0.0316
 
              Baa    -0.0000    -0.000    -0.000    -0.000  0.0537 -0.0229  0.9983
     5 C(13)  Bbb    -0.0000    -0.000    -0.000    -0.000  0.9485 -0.3113 -0.0581
              Bcc     0.0000     0.000     0.000     0.000  0.3121  0.9500  0.0050
 
              Baa    -0.0000    -0.000    -0.000    -0.000 -0.3472  0.9375 -0.0226
     6 C(13)  Bbb    -0.0000    -0.000    -0.000    -0.000 -0.0180  0.0174  0.9997
              Bcc     0.0000     0.000     0.000     0.000  0.9376  0.3475  0.0108
 
              Baa    -0.0000    -0.000    -0.000    -0.000  0.4859  0.8723  0.0557
     7 C(13)  Bbb    -0.0000    -0.000    -0.000    -0.000 -0.0399 -0.0415  0.9983
              Bcc     0.0000     0.000     0.000     0.000  0.8731 -0.4873  0.0146
 
              Baa    -0.0000    -0.000    -0.000    -0.000  0.9959  0.0899  0.0100
     8 C(13)  Bbb    -0.0000    -0.000    -0.000    -0.000 -0.0079 -0.0234  0.9997
              Bcc     0.0000     0.000     0.000     0.000 -0.0901  0.9957  0.0226
 
              Baa    -0.0000    -0.000    -0.000    -0.000  0.9967  0.0741  0.0337
     9 C(13)  Bbb    -0.0000    -0.000    -0.000    -0.000 -0.0317 -0.0281  0.9991
              Bcc     0.0000     0.000     0.000     0.000 -0.0749  0.9969  0.0257
 
              Baa    -0.0000    -0.000    -0.000    -0.000  0.0305 -0.0320  0.9990
    10 C(13)  Bbb    -0.0000    -0.000    -0.000    -0.000  0.9017 -0.4305 -0.0413
              Bcc     0.0000     0.000     0.000     0.000  0.4314  0.9020  0.0157
 
              Baa    -0.0000    -0.000    -0.000    -0.000  0.8090 -0.5866  0.0363
    11 C(13)  Bbb     0.0000     0.000     0.000     0.000  0.0511  0.1319  0.9899
              Bcc     0.0000     0.000     0.000     0.000  0.5855  0.7990 -0.1367
 
              Baa    -0.0000    -0.000    -0.000    -0.000  0.0291  0.0323  0.9991
    12 C(13)  Bbb    -0.0000    -0.000    -0.000    -0.000  0.1142  0.9928 -0.0355
              Bcc     0.0000     0.000     0.000     0.000  0.9930 -0.1151 -0.0252
 
              Baa    -0.0000    -0.000    -0.000    -0.000  0.7946 -0.6068  0.0178
    13 C(13)  Bbb     0.0000     0.000     0.000     0.000  0.0007  0.0302  0.9995
              Bcc     0.0000     0.000     0.000     0.000  0.6071  0.7942 -0.0244
 
              Baa    -0.0000    -0.000    -0.000    -0.000 -0.4822  0.8485  0.2181
    14 C(13)  Bbb    -0.0000    -0.000    -0.000    -0.000  0.1166 -0.1846  0.9759
              Bcc     0.0000     0.000     0.000     0.000  0.8683  0.4960 -0.0099
 
              Baa    -0.0000     0.000     0.000     0.000  0.9993  0.0372 -0.0064
    15 O(17)  Bbb     0.0000    -0.000    -0.000    -0.000  0.0192 -0.3549  0.9347
              Bcc     0.0000    -0.000    -0.000    -0.000 -0.0325  0.9342  0.3554
 
              Baa    -0.0000     0.000     0.000     0.000  0.4140  0.9103  0.0049
    16 O(17)  Bbb    -0.0000     0.000     0.000     0.000 -0.0046 -0.0034  1.0000
              Bcc     0.0000    -0.000    -0.000    -0.000  0.9103 -0.4140  0.0028
 
              Baa    -0.0000    -0.000    -0.000    -0.000  0.3492  0.9370 -0.0059
    17 N(14)  Bbb    -0.0000    -0.000    -0.000    -0.000  0.0030  0.0052  1.0000
              Bcc     0.0000     0.000     0.000     0.000  0.9371 -0.3492 -0.0010
 
              Baa    -0.0000    -0.000    -0.000    -0.000  0.2351  0.9720 -0.0051
    18 H(1)   Bbb     0.0000     0.000     0.000     0.000  0.0161  0.0014  0.9999
              Bcc     0.0000     0.000     0.000     0.000  0.9718 -0.2351 -0.0154
 
              Baa    -0.0000    -0.000    -0.000    -0.000 -0.0049  0.0030  1.0000
    19 H(1)   Bbb    -0.0000    -0.000    -0.000    -0.000  0.4463  0.8949 -0.0005
              Bcc     0.0000     0.000     0.000     0.000  0.8949 -0.4463  0.0058
 
              Baa    -0.0000    -0.000    -0.000    -0.000  0.9413  0.3274  0.0825
    20 H(1)   Bbb    -0.0000    -0.000    -0.000    -0.000 -0.0783 -0.0260  0.9966
              Bcc     0.0000     0.000     0.000     0.000 -0.3284  0.9445 -0.0012
 
              Baa    -0.0000    -0.000    -0.000    -0.000 -0.3633  0.9293  0.0669
    21 H(1)   Bbb    -0.0000    -0.000    -0.000    -0.000  0.0269 -0.0613  0.9978
              Bcc     0.0000     0.000     0.000     0.000  0.9313  0.3643 -0.0027
 
              Baa    -0.0000    -0.000    -0.000    -0.000 -0.3932  0.8694 -0.2992
    22 S(33)  Bbb    -0.0000    -0.000    -0.000    -0.000 -0.2066  0.2336  0.9502
              Bcc     0.0000     0.000     0.000     0.000  0.8959  0.4354  0.0877
 
              Baa    -0.0000    -0.000    -0.000    -0.000  0.9832  0.1658  0.0762
    23 H(1)   Bbb    -0.0000    -0.000    -0.000    -0.000 -0.0790  0.0104  0.9968
              Bcc     0.0000     0.000     0.000     0.000 -0.1645  0.9861 -0.0233
 
              Baa    -0.0000    -0.000    -0.000    -0.000  0.8957 -0.4440  0.0228
    24 H(1)   Bbb    -0.0000    -0.000    -0.000    -0.000 -0.0209  0.0091  0.9997
              Bcc     0.0000     0.000     0.000     0.000  0.4441  0.8960  0.0012
 
              Baa    -0.0000    -0.000    -0.000    -0.000  0.5342 -0.4996  0.6819
    25 H(1)   Bbb     0.0000     0.000     0.000     0.000  0.3025  0.8662  0.3976
              Bcc     0.0000     0.000     0.000     0.000  0.7894  0.0061 -0.6139
 
              Baa    -0.0000    -0.000    -0.000    -0.000 -0.0178 -0.0276  0.9995
    26 H(1)   Bbb    -0.0000    -0.000    -0.000    -0.000  0.9559  0.2925  0.0251
              Bcc     0.0000     0.000     0.000     0.000 -0.2930  0.9559  0.0212
 
              Baa    -0.0000     0.000     0.000     0.000  0.4063  0.9098  0.0851
    27 O(17)  Bbb    -0.0000     0.000     0.000     0.000  0.7442 -0.2755 -0.6085
              Bcc     0.0000    -0.000    -0.000    -0.000  0.5301 -0.3106  0.7890
 
              Baa    -0.0000     0.000     0.000     0.000 -0.5643  0.8235  0.0584
    28 O(17)  Bbb    -0.0000     0.000     0.000     0.000  0.0297 -0.0504  0.9983
              Bcc     0.0000    -0.000    -0.000    -0.000  0.8250  0.5651  0.0040
 
              Baa    -0.0000     0.000     0.000     0.000  0.6803  0.7137  0.1667
    29 O(17)  Bbb    -0.0000     0.000     0.000     0.000  0.4518 -0.5875  0.6714
              Bcc     0.0000    -0.000    -0.000    -0.000 -0.5771  0.3814  0.7221
 
              Baa    -0.0000    -0.000    -0.000    -0.000 -0.4343  0.2233  0.8727
    30 H(1)   Bbb    -0.0000    -0.000    -0.000    -0.000  0.4931  0.8697  0.0229
              Bcc     0.0000     0.000     0.000     0.000  0.7538 -0.4402  0.4878
 

 ---------------------------------------------------------------------------------

 No NMR shielding tensors so no spin-rotation constants.
 Leave Link  601 at Wed Jan 17 09:34:09 2024, MaxMem=  4026531840 cpu:              12.6 elap:               2.8
 (Enter /sysapps/ubuntu-applications/gaussian/Gaussian/AVX2/g16/l9999.exe)
 1\1\GINC-ACIDSGN003\SP\UB3LYP\6-311++G(d,p)\C14H9N1O5S1(2-)\SELHAJJ1\1
 7-Jan-2024\0\\#P UB3LYP/6-311++G(d,p) SCRF=(PCM,Solvent=n,n-DiMethylFo
 rmamide)\\Reduced\\-2,1\C,0,-1.687184,1.961661,-5.163994\C,0,-1.617253
 ,0.643232,-5.54287\C,0,-1.312718,-0.369785,-4.592224\C,0,-1.45787,2.36
 524,-3.80676\C,0,-1.148583,1.33194,-2.844236\C,0,-1.087291,-0.009284,-
 3.278295\C,0,-1.530362,3.710737,-3.425057\C,0,-0.900521,1.645312,-1.44
 6656\C,0,-1.298604,4.083195,-2.076713\C,0,-0.986875,3.061199,-1.099326
 \C,0,-1.354489,5.444768,-1.607512\C,0,-1.119496,5.756229,-0.282902\C,0
 ,-0.815371,4.747983,0.659586\C,0,-0.755635,3.437822,0.240764\O,0,-1.83
 1244,4.639563,-4.410608\O,0,-0.628298,0.753044,-0.589634\N,0,-1.666215
 ,6.508711,-2.559041\H,0,-1.919226,2.73387,-5.887902\H,0,-1.796979,0.37
 1798,-6.581423\H,0,-1.259115,-1.410961,-4.899615\H,0,-0.851786,-0.7498
 11,-2.520499\S,0,-1.205977,7.502177,0.26096\H,0,-0.637634,5.035825,1.6
 87972\H,0,-1.83322,5.517394,-3.948772\H,0,-2.477378,7.011974,-2.196327
 \H,0,-0.525493,2.636079,0.933983\O,0,-2.59977,7.94039,-0.062321\O,0,-0
 .902466,7.495239,1.714446\O,0,-0.182435,8.216362,-0.565286\H,0,-0.9191
 04,7.202096,-2.493586\\Version=ES64L-G16RevA.03\State=1-A\HF=-1368.529
 8837\S2=0.\S2-1=0.\S2A=0.\RMSD=6.894e-09\Dipole=-0.4831146,-2.1663767,
 -3.5394423\Quadrupole=32.6070434,-38.226758,5.6197146,2.6698459,-2.705
 9896,-25.9285388\PG=C01 [X(C14H9N1O5S1)]\\@


 I DO NOT KNOW WHAT I MAY APPEAR TO THE WORLD; BUT TO MYSELF
 I SEEM TO HAVE BEEN ONLY LIKE A BOY PLAYING ON THE SEASHORE,
 AND DIVERTING MYSELF IN NOW AND THEN FINDING A SMOOTHER PEBBLE
 OR A PRETTIER SHELL THAN ORDINARY, WHILST THE GREAT OCEAN OF
 TRUTH LAY ALL UNDISCOVERED BEFORE ME.
                                          -- NEWTON (1642-1726)
 Job cpu time:       0 days  1 hours  7 minutes 26.3 seconds.
 Elapsed time:       0 days  0 hours  8 minutes 30.5 seconds.
 File lengths (MBytes):  RWF=    381 Int=      0 D2E=      0 Chk=     22 Scr=      1
 Normal termination of Gaussian 16 at Wed Jan 17 09:34:09 2024.
