 Entering Gaussian System, Link 0=g16
 Input=125.com
 Output=125.log
 Initial command:
 /sysapps/ubuntu-applications/gaussian/Gaussian/AVX2/g16/l1.exe "/scratch/selhajj1/4221635/Gau-1283414.inp" -scrdir="/scratch/selhajj1/4221635/"
 Entering Link 1 = /sysapps/ubuntu-applications/gaussian/Gaussian/AVX2/g16/l1.exe PID=   1283422.
  
 Copyright (c) 1988,1990,1992,1993,1995,1998,2003,2009,2016,
            Gaussian, Inc.  All Rights Reserved.
  
 This is part of the Gaussian(R) 16 program.  It is based on
 the Gaussian(R) 09 system (copyright 2009, Gaussian, Inc.),
 the Gaussian(R) 03 system (copyright 2003, Gaussian, Inc.),
 the Gaussian(R) 98 system (copyright 1998, Gaussian, Inc.),
 the Gaussian(R) 94 system (copyright 1995, Gaussian, Inc.),
 the Gaussian 92(TM) system (copyright 1992, Gaussian, Inc.),
 the Gaussian 90(TM) system (copyright 1990, Gaussian, Inc.),
 the Gaussian 88(TM) system (copyright 1988, Gaussian, Inc.),
 the Gaussian 86(TM) system (copyright 1986, Carnegie Mellon
 University), and the Gaussian 82(TM) system (copyright 1983,
 Carnegie Mellon University). Gaussian is a federally registered
 trademark of Gaussian, Inc.
  
 This software contains proprietary and confidential information,
 including trade secrets, belonging to Gaussian, Inc.
  
 This software is provided under written license and may be
 used, copied, transmitted, or stored only in accord with that
 written license.
  
 The following legend is applicable only to US Government
 contracts under FAR:
  
                    RESTRICTED RIGHTS LEGEND
  
 Use, reproduction and disclosure by the US Government is
 subject to restrictions as set forth in subparagraphs (a)
 and (c) of the Commercial Computer Software - Restricted
 Rights clause in FAR 52.227-19.
  
 Gaussian, Inc.
 340 Quinnipiac St., Bldg. 40, Wallingford CT 06492
  
  
 ---------------------------------------------------------------
 Warning -- This program may not be used in any manner that
 competes with the business of Gaussian, Inc. or will provide
 assistance to any competitor of Gaussian, Inc.  The licensee
 of this program is prohibited from giving any competitor of
 Gaussian, Inc. access to this program.  By using this program,
 the user acknowledges that Gaussian, Inc. is engaged in the
 business of creating and licensing software in the field of
 computational chemistry and represents and warrants to the
 licensee that it is not a competitor of Gaussian, Inc. and that
 it will not use this program in any manner prohibited above.
 ---------------------------------------------------------------
  

 Cite this work as:
 Gaussian 16, Revision A.03,
 M. J. Frisch, G. W. Trucks, H. B. Schlegel, G. E. Scuseria, 
 M. A. Robb, J. R. Cheeseman, G. Scalmani, V. Barone, 
 G. A. Petersson, H. Nakatsuji, X. Li, M. Caricato, A. V. Marenich, 
 J. Bloino, B. G. Janesko, R. Gomperts, B. Mennucci, H. P. Hratchian, 
 J. V. Ortiz, A. F. Izmaylov, J. L. Sonnenberg, D. Williams-Young, 
 F. Ding, F. Lipparini, F. Egidi, J. Goings, B. Peng, A. Petrone, 
 T. Henderson, D. Ranasinghe, V. G. Zakrzewski, J. Gao, N. Rega, 
 G. Zheng, W. Liang, M. Hada, M. Ehara, K. Toyota, R. Fukuda, 
 J. Hasegawa, M. Ishida, T. Nakajima, Y. Honda, O. Kitao, H. Nakai, 
 T. Vreven, K. Throssell, J. A. Montgomery, Jr., J. E. Peralta, 
 F. Ogliaro, M. J. Bearpark, J. J. Heyd, E. N. Brothers, K. N. Kudin, 
 V. N. Staroverov, T. A. Keith, R. Kobayashi, J. Normand, 
 K. Raghavachari, A. P. Rendell, J. C. Burant, S. S. Iyengar, 
 J. Tomasi, M. Cossi, J. M. Millam, M. Klene, C. Adamo, R. Cammi, 
 J. W. Ochterski, R. L. Martin, K. Morokuma, O. Farkas, 
 J. B. Foresman, and D. J. Fox, Gaussian, Inc., Wallingford CT, 2016.
 
 ******************************************
 Gaussian 16:  ES64L-G16RevA.03 25-Dec-2016
                21-Dec-2023 
 ******************************************
 %chk=125.chk
 %nproc=8
 Will use up to    8 processors via shared memory.
 %mem=30GB
 --------------------------------------
 #P UB3LYP/6-311++G(d,p) nosym opt freq
 --------------------------------------
 1/18=20,19=15,26=3,38=1/1,3;
 2/9=110,12=2,15=1,17=6,18=5,40=1/2;
 3/5=4,6=6,7=1111,11=2,25=1,30=1,71=1,74=-5,116=2/1,2,3;
 4//1;
 5/5=2,38=5/2;
 6/7=2,8=2,9=2,10=2,28=1/1;
 7/30=1/1,2,3,16;
 1/18=20,19=15,26=3/3(2);
 2/9=110,15=1/2;
 99//99;
 2/9=110,15=1/2;
 3/5=4,6=6,7=1111,11=2,25=1,30=1,71=1,74=-5,116=2/1,2,3;
 4/5=5,16=3,69=1/1;
 5/5=2,38=5/2;
 7/30=1/1,2,3,16;
 1/18=20,19=15,26=3/3(-5);
 2/9=110,15=1/2;
 6/7=2,8=2,9=2,10=2,19=2,28=1/1;
 99/9=1/99;
 Leave Link    1 at Thu Dec 21 05:33:55 2023, MaxMem=  4026531840 cpu:               0.7 elap:               0.1
 (Enter /sysapps/ubuntu-applications/gaussian/Gaussian/AVX2/g16/l101.exe)
 --------
 Oxidized
 --------
 Symbolic Z-matrix:
 Charge =  0 Multiplicity = 1
 C                    -4.63415  -0.39469  -0.52692 
 C                    -3.9237   -0.40884   0.78489 
 C                    -2.54603   0.11761   0.71745 
 C                    -2.24603   1.45174   0.90983 
 C                    -0.95415   1.90922   0.84045 
 C                     0.07044   1.02735   0.57408 
 C                     1.45467   1.50115   0.49696 
 O                     1.68958   2.74315   0.68111 
 C                     2.55171   0.58797   0.21703 
 C                     3.85988   1.00396   0.13875 
 C                     4.90285   0.13313  -0.12783 
 C                     4.55305  -1.20017  -0.3144 
 C                     3.25307  -1.65223  -0.24318 
 C                     2.25236  -0.73669   0.02618 
 C                     0.88558  -1.24527   0.09541 
 O                     0.63964  -2.47202  -0.08489 
 C                    -0.20447  -0.30893   0.37848 
 C                    -1.52619  -0.76718   0.45113 
 H                    -4.00444  -0.60504  -1.3945 
 H                    -5.4412   -1.18365  -0.49112 
 H                    -5.19543   0.5645   -0.6529 
 H                    -4.49261   0.26365   1.48809 
 H                    -3.86756  -1.4327    1.2176 
 H                    -3.08235   2.10477   1.11591 
 H                    -0.73026   2.95191   0.99201 
 H                     4.11227   2.04553   0.28687 
 H                     5.93278   0.44628  -0.1919 
 H                     5.35908  -1.91906  -0.52822 
 H                     3.04187  -2.70526  -0.39793 
 H                    -1.71029  -1.8202    0.29328 
 
 ITRead=  0  0  0  0  0  0  0  0  0  0  0  0  0  0  0  0  0  0  0  0
 ITRead=  0  0  0  0  0  0  0  0  0  0
 MicOpt= -1 -1 -1 -1 -1 -1 -1 -1 -1 -1 -1 -1 -1 -1 -1 -1 -1 -1 -1 -1
 MicOpt= -1 -1 -1 -1 -1 -1 -1 -1 -1 -1
 NAtoms=     30 NQM=       30 NQMF=       0 NMMI=      0 NMMIF=      0
                NMic=       0 NMicF=      0.
                    Isotopes and Nuclear Properties:
 (Nuclear quadrupole moments (NQMom) in fm**2, nuclear magnetic moments (NMagM)
  in nuclear magnetons)

  Atom         1           2           3           4           5           6           7           8           9          10
 IAtWgt=          12          12          12          12          12          12          12          16          12          12
 AtmWgt=  12.0000000  12.0000000  12.0000000  12.0000000  12.0000000  12.0000000  12.0000000  15.9949146  12.0000000  12.0000000
 NucSpn=           0           0           0           0           0           0           0           0           0           0
 AtZEff=  -0.0000000  -0.0000000  -0.0000000  -0.0000000  -0.0000000  -0.0000000  -0.0000000  -0.0000000  -0.0000000  -0.0000000
 NQMom=    0.0000000   0.0000000   0.0000000   0.0000000   0.0000000   0.0000000   0.0000000   0.0000000   0.0000000   0.0000000
 NMagM=    0.0000000   0.0000000   0.0000000   0.0000000   0.0000000   0.0000000   0.0000000   0.0000000   0.0000000   0.0000000
 AtZNuc=   6.0000000   6.0000000   6.0000000   6.0000000   6.0000000   6.0000000   6.0000000   8.0000000   6.0000000   6.0000000

  Atom        11          12          13          14          15          16          17          18          19          20
 IAtWgt=          12          12          12          12          12          16          12          12           1           1
 AtmWgt=  12.0000000  12.0000000  12.0000000  12.0000000  12.0000000  15.9949146  12.0000000  12.0000000   1.0078250   1.0078250
 NucSpn=           0           0           0           0           0           0           0           0           1           1
 AtZEff=  -0.0000000  -0.0000000  -0.0000000  -0.0000000  -0.0000000  -0.0000000  -0.0000000  -0.0000000  -0.0000000  -0.0000000
 NQMom=    0.0000000   0.0000000   0.0000000   0.0000000   0.0000000   0.0000000   0.0000000   0.0000000   0.0000000   0.0000000
 NMagM=    0.0000000   0.0000000   0.0000000   0.0000000   0.0000000   0.0000000   0.0000000   0.0000000   2.7928460   2.7928460
 AtZNuc=   6.0000000   6.0000000   6.0000000   6.0000000   6.0000000   8.0000000   6.0000000   6.0000000   1.0000000   1.0000000

  Atom        21          22          23          24          25          26          27          28          29          30
 IAtWgt=           1           1           1           1           1           1           1           1           1           1
 AtmWgt=   1.0078250   1.0078250   1.0078250   1.0078250   1.0078250   1.0078250   1.0078250   1.0078250   1.0078250   1.0078250
 NucSpn=           1           1           1           1           1           1           1           1           1           1
 AtZEff=  -0.0000000  -0.0000000  -0.0000000  -0.0000000  -0.0000000  -0.0000000  -0.0000000  -0.0000000  -0.0000000  -0.0000000
 NQMom=    0.0000000   0.0000000   0.0000000   0.0000000   0.0000000   0.0000000   0.0000000   0.0000000   0.0000000   0.0000000
 NMagM=    2.7928460   2.7928460   2.7928460   2.7928460   2.7928460   2.7928460   2.7928460   2.7928460   2.7928460   2.7928460
 AtZNuc=   1.0000000   1.0000000   1.0000000   1.0000000   1.0000000   1.0000000   1.0000000   1.0000000   1.0000000   1.0000000
 Leave Link  101 at Thu Dec 21 05:33:55 2023, MaxMem=  4026531840 cpu:               4.1 elap:               0.8
 (Enter /sysapps/ubuntu-applications/gaussian/Gaussian/AVX2/g16/l103.exe)

 GradGradGradGradGradGradGradGradGradGradGradGradGradGradGradGradGradGrad
 Berny optimization.
 Initialization pass.
                           ----------------------------
                           !    Initial Parameters    !
                           ! (Angstroms and Degrees)  !
 --------------------------                            --------------------------
 ! Name  Definition              Value          Derivative Info.                !
 --------------------------------------------------------------------------------
 ! R1    R(1,2)                  1.4919         estimate D2E/DX2                !
 ! R2    R(1,19)                 1.0925         estimate D2E/DX2                !
 ! R3    R(1,20)                 1.1292         estimate D2E/DX2                !
 ! R4    R(1,21)                 1.1185         estimate D2E/DX2                !
 ! R5    R(2,3)                  1.4764         estimate D2E/DX2                !
 ! R6    R(2,22)                 1.1271         estimate D2E/DX2                !
 ! R7    R(2,23)                 1.113          estimate D2E/DX2                !
 ! R8    R(3,4)                  1.3809         estimate D2E/DX2                !
 ! R9    R(3,18)                 1.3762         estimate D2E/DX2                !
 ! R10   R(4,5)                  1.3722         estimate D2E/DX2                !
 ! R11   R(4,24)                 1.0809         estimate D2E/DX2                !
 ! R12   R(5,6)                  1.3778         estimate D2E/DX2                !
 ! R13   R(5,25)                 1.0772         estimate D2E/DX2                !
 ! R14   R(6,7)                  1.4651         estimate D2E/DX2                !
 ! R15   R(6,17)                 1.3782         estimate D2E/DX2                !
 ! R16   R(7,8)                  1.2774         estimate D2E/DX2                !
 ! R17   R(7,9)                  1.4546         estimate D2E/DX2                !
 ! R18   R(9,10)                 1.375          estimate D2E/DX2                !
 ! R19   R(9,14)                 1.3714         estimate D2E/DX2                !
 ! R20   R(10,11)                1.3846         estimate D2E/DX2                !
 ! R21   R(10,26)                1.0819         estimate D2E/DX2                !
 ! R22   R(11,12)                1.391          estimate D2E/DX2                !
 ! R23   R(11,27)                1.0784         estimate D2E/DX2                !
 ! R24   R(12,13)                1.3782         estimate D2E/DX2                !
 ! R25   R(12,28)                1.101          estimate D2E/DX2                !
 ! R26   R(13,14)                1.3828         estimate D2E/DX2                !
 ! R27   R(13,29)                1.0851         estimate D2E/DX2                !
 ! R28   R(14,15)                1.46           estimate D2E/DX2                !
 ! R29   R(15,16)                1.2641         estimate D2E/DX2                !
 ! R30   R(15,17)                1.4646         estimate D2E/DX2                !
 ! R31   R(17,18)                1.4008         estimate D2E/DX2                !
 ! R32   R(18,30)                1.0806         estimate D2E/DX2                !
 ! A1    A(2,1,19)             114.9586         estimate D2E/DX2                !
 ! A2    A(2,1,20)             107.8087         estimate D2E/DX2                !
 ! A3    A(2,1,21)             110.2522         estimate D2E/DX2                !
 ! A4    A(19,1,20)            107.6148         estimate D2E/DX2                !
 ! A5    A(19,1,21)            111.4042         estimate D2E/DX2                !
 ! A6    A(20,1,21)            104.129          estimate D2E/DX2                !
 ! A7    A(1,2,3)              113.6291         estimate D2E/DX2                !
 ! A8    A(1,2,22)             107.6107         estimate D2E/DX2                !
 ! A9    A(1,2,23)             112.0003         estimate D2E/DX2                !
 ! A10   A(3,2,22)             106.6632         estimate D2E/DX2                !
 ! A11   A(3,2,23)             107.3812         estimate D2E/DX2                !
 ! A12   A(22,2,23)            109.3773         estimate D2E/DX2                !
 ! A13   A(2,3,4)              122.7426         estimate D2E/DX2                !
 ! A14   A(2,3,18)             118.1058         estimate D2E/DX2                !
 ! A15   A(4,3,18)             119.1516         estimate D2E/DX2                !
 ! A16   A(3,4,5)              121.3032         estimate D2E/DX2                !
 ! A17   A(3,4,24)             116.2415         estimate D2E/DX2                !
 ! A18   A(5,4,24)             122.4553         estimate D2E/DX2                !
 ! A19   A(4,5,6)              119.7667         estimate D2E/DX2                !
 ! A20   A(4,5,25)             120.7486         estimate D2E/DX2                !
 ! A21   A(6,5,25)             119.4847         estimate D2E/DX2                !
 ! A22   A(5,6,7)              120.3822         estimate D2E/DX2                !
 ! A23   A(5,6,17)             119.9782         estimate D2E/DX2                !
 ! A24   A(7,6,17)             119.6396         estimate D2E/DX2                !
 ! A25   A(6,7,8)              118.7247         estimate D2E/DX2                !
 ! A26   A(6,7,9)              121.3105         estimate D2E/DX2                !
 ! A27   A(8,7,9)              119.9648         estimate D2E/DX2                !
 ! A28   A(7,9,10)             122.5875         estimate D2E/DX2                !
 ! A29   A(7,9,14)             117.9407         estimate D2E/DX2                !
 ! A30   A(10,9,14)            119.4718         estimate D2E/DX2                !
 ! A31   A(9,10,11)            122.5026         estimate D2E/DX2                !
 ! A32   A(9,10,26)            120.3603         estimate D2E/DX2                !
 ! A33   A(11,10,26)           117.137          estimate D2E/DX2                !
 ! A34   A(10,11,12)           116.0558         estimate D2E/DX2                !
 ! A35   A(10,11,27)           123.244          estimate D2E/DX2                !
 ! A36   A(12,11,27)           120.7002         estimate D2E/DX2                !
 ! A37   A(11,12,13)           123.0028         estimate D2E/DX2                !
 ! A38   A(11,12,28)           117.892          estimate D2E/DX2                !
 ! A39   A(13,12,28)           119.1051         estimate D2E/DX2                !
 ! A40   A(12,13,14)           118.3924         estimate D2E/DX2                !
 ! A41   A(12,13,29)           119.6394         estimate D2E/DX2                !
 ! A42   A(14,13,29)           121.9682         estimate D2E/DX2                !
 ! A43   A(9,14,13)            120.5745         estimate D2E/DX2                !
 ! A44   A(9,14,15)            122.2911         estimate D2E/DX2                !
 ! A45   A(13,14,15)           117.1344         estimate D2E/DX2                !
 ! A46   A(14,15,16)           120.8928         estimate D2E/DX2                !
 ! A47   A(14,15,17)           118.8954         estimate D2E/DX2                !
 ! A48   A(16,15,17)           120.2118         estimate D2E/DX2                !
 ! A49   A(6,17,15)            119.9227         estimate D2E/DX2                !
 ! A50   A(6,17,18)            119.8702         estimate D2E/DX2                !
 ! A51   A(15,17,18)           120.2071         estimate D2E/DX2                !
 ! A52   A(3,18,17)            119.9302         estimate D2E/DX2                !
 ! A53   A(3,18,30)            121.9073         estimate D2E/DX2                !
 ! A54   A(17,18,30)           118.1625         estimate D2E/DX2                !
 ! D1    D(19,1,2,3)            35.6873         estimate D2E/DX2                !
 ! D2    D(19,1,2,22)          153.5431         estimate D2E/DX2                !
 ! D3    D(19,1,2,23)          -86.2125         estimate D2E/DX2                !
 ! D4    D(20,1,2,3)           155.6938         estimate D2E/DX2                !
 ! D5    D(20,1,2,22)          -86.4504         estimate D2E/DX2                !
 ! D6    D(20,1,2,23)           33.7941         estimate D2E/DX2                !
 ! D7    D(21,1,2,3)           -91.239          estimate D2E/DX2                !
 ! D8    D(21,1,2,22)           26.6168         estimate D2E/DX2                !
 ! D9    D(21,1,2,23)          146.8612         estimate D2E/DX2                !
 ! D10   D(1,2,3,4)             89.9995         estimate D2E/DX2                !
 ! D11   D(1,2,3,18)           -90.001          estimate D2E/DX2                !
 ! D12   D(22,2,3,4)           -28.4028         estimate D2E/DX2                !
 ! D13   D(22,2,3,18)          151.5967         estimate D2E/DX2                !
 ! D14   D(23,2,3,4)          -145.5703         estimate D2E/DX2                !
 ! D15   D(23,2,3,18)           34.4291         estimate D2E/DX2                !
 ! D16   D(2,3,4,5)            179.9994         estimate D2E/DX2                !
 ! D17   D(2,3,4,24)            -0.0004         estimate D2E/DX2                !
 ! D18   D(18,3,4,5)             0.0            estimate D2E/DX2                !
 ! D19   D(18,3,4,24)         -179.9998         estimate D2E/DX2                !
 ! D20   D(2,3,18,17)         -179.9995         estimate D2E/DX2                !
 ! D21   D(2,3,18,30)            0.0007         estimate D2E/DX2                !
 ! D22   D(4,3,18,17)           -0.0001         estimate D2E/DX2                !
 ! D23   D(4,3,18,30)         -179.9998         estimate D2E/DX2                !
 ! D24   D(3,4,5,6)              0.0            estimate D2E/DX2                !
 ! D25   D(3,4,5,25)           180.0            estimate D2E/DX2                !
 ! D26   D(24,4,5,6)           179.9998         estimate D2E/DX2                !
 ! D27   D(24,4,5,25)           -0.0002         estimate D2E/DX2                !
 ! D28   D(4,5,6,7)            179.9999         estimate D2E/DX2                !
 ! D29   D(4,5,6,17)             0.0001         estimate D2E/DX2                !
 ! D30   D(25,5,6,7)            -0.0001         estimate D2E/DX2                !
 ! D31   D(25,5,6,17)         -179.9999         estimate D2E/DX2                !
 ! D32   D(5,6,7,8)              0.0002         estimate D2E/DX2                !
 ! D33   D(5,6,7,9)           -179.9999         estimate D2E/DX2                !
 ! D34   D(17,6,7,8)           180.0            estimate D2E/DX2                !
 ! D35   D(17,6,7,9)            -0.0001         estimate D2E/DX2                !
 ! D36   D(5,6,17,15)          179.9999         estimate D2E/DX2                !
 ! D37   D(5,6,17,18)           -0.0001         estimate D2E/DX2                !
 ! D38   D(7,6,17,15)            0.0001         estimate D2E/DX2                !
 ! D39   D(7,6,17,18)         -179.9999         estimate D2E/DX2                !
 ! D40   D(6,7,9,10)          -179.9999         estimate D2E/DX2                !
 ! D41   D(6,7,9,14)             0.0            estimate D2E/DX2                !
 ! D42   D(8,7,9,10)             0.0            estimate D2E/DX2                !
 ! D43   D(8,7,9,14)           180.0            estimate D2E/DX2                !
 ! D44   D(7,9,10,11)          179.9998         estimate D2E/DX2                !
 ! D45   D(7,9,10,26)            0.0001         estimate D2E/DX2                !
 ! D46   D(14,9,10,11)          -0.0001         estimate D2E/DX2                !
 ! D47   D(14,9,10,26)        -179.9999         estimate D2E/DX2                !
 ! D48   D(7,9,14,13)         -180.0            estimate D2E/DX2                !
 ! D49   D(7,9,14,15)            0.0001         estimate D2E/DX2                !
 ! D50   D(10,9,14,13)           0.0            estimate D2E/DX2                !
 ! D51   D(10,9,14,15)        -180.0            estimate D2E/DX2                !
 ! D52   D(9,10,11,12)           0.0002         estimate D2E/DX2                !
 ! D53   D(9,10,11,27)         179.9999         estimate D2E/DX2                !
 ! D54   D(26,10,11,12)        179.9999         estimate D2E/DX2                !
 ! D55   D(26,10,11,27)         -0.0004         estimate D2E/DX2                !
 ! D56   D(10,11,12,13)          0.0            estimate D2E/DX2                !
 ! D57   D(10,11,12,28)       -180.0            estimate D2E/DX2                !
 ! D58   D(27,11,12,13)       -179.9997         estimate D2E/DX2                !
 ! D59   D(27,11,12,28)          0.0003         estimate D2E/DX2                !
 ! D60   D(11,12,13,14)         -0.0001         estimate D2E/DX2                !
 ! D61   D(11,12,13,29)       -179.9995         estimate D2E/DX2                !
 ! D62   D(28,12,13,14)        179.9998         estimate D2E/DX2                !
 ! D63   D(28,12,13,29)          0.0005         estimate D2E/DX2                !
 ! D64   D(12,13,14,9)           0.0001         estimate D2E/DX2                !
 ! D65   D(12,13,14,15)       -179.9999         estimate D2E/DX2                !
 ! D66   D(29,13,14,9)         179.9995         estimate D2E/DX2                !
 ! D67   D(29,13,14,15)         -0.0006         estimate D2E/DX2                !
 ! D68   D(9,14,15,16)         179.9998         estimate D2E/DX2                !
 ! D69   D(9,14,15,17)          -0.0001         estimate D2E/DX2                !
 ! D70   D(13,14,15,16)         -0.0002         estimate D2E/DX2                !
 ! D71   D(13,14,15,17)        179.9999         estimate D2E/DX2                !
 ! D72   D(14,15,17,6)           0.0            estimate D2E/DX2                !
 ! D73   D(14,15,17,18)       -180.0            estimate D2E/DX2                !
 ! D74   D(16,15,17,6)        -179.9999         estimate D2E/DX2                !
 ! D75   D(16,15,17,18)          0.0001         estimate D2E/DX2                !
 ! D76   D(6,17,18,3)            0.0001         estimate D2E/DX2                !
 ! D77   D(6,17,18,30)         179.9999         estimate D2E/DX2                !
 ! D78   D(15,17,18,3)        -179.9999         estimate D2E/DX2                !
 ! D79   D(15,17,18,30)         -0.0001         estimate D2E/DX2                !
 --------------------------------------------------------------------------------
 Trust Radius=3.00D-01 FncErr=1.00D-07 GrdErr=1.00D-06 EigMax=2.50D+02 EigMin=1.00D-04
 Number of steps in this run=    175 maximum allowed number of steps=    180.
 GradGradGradGradGradGradGradGradGradGradGradGradGradGradGradGradGradGrad

 Leave Link  103 at Thu Dec 21 05:33:56 2023, MaxMem=  4026531840 cpu:               0.3 elap:               0.1
 (Enter /sysapps/ubuntu-applications/gaussian/Gaussian/AVX2/g16/l202.exe)
                          Input orientation:                          
 ---------------------------------------------------------------------
 Center     Atomic      Atomic             Coordinates (Angstroms)
 Number     Number       Type             X           Y           Z
 ---------------------------------------------------------------------
      1          6           0       -4.634151   -0.394686   -0.526918
      2          6           0       -3.923700   -0.408845    0.784892
      3          6           0       -2.546027    0.117615    0.717449
      4          6           0       -2.246030    1.451744    0.909828
      5          6           0       -0.954151    1.909222    0.840450
      6          6           0        0.070444    1.027346    0.574081
      7          6           0        1.454668    1.501148    0.496960
      8          8           0        1.689577    2.743148    0.681106
      9          6           0        2.551709    0.587967    0.217027
     10          6           0        3.859882    1.003963    0.138750
     11          6           0        4.902849    0.133130   -0.127834
     12          6           0        4.553052   -1.200168   -0.314403
     13          6           0        3.253067   -1.652228   -0.243184
     14          6           0        2.252360   -0.736690    0.026183
     15          6           0        0.885580   -1.245269    0.095411
     16          8           0        0.639641   -2.472024   -0.084894
     17          6           0       -0.204469   -0.308925    0.378481
     18          6           0       -1.526186   -0.767177    0.451126
     19          1           0       -4.004437   -0.605038   -1.394498
     20          1           0       -5.441197   -1.183648   -0.491118
     21          1           0       -5.195429    0.564497   -0.652896
     22          1           0       -4.492614    0.263653    1.488088
     23          1           0       -3.867555   -1.432698    1.217597
     24          1           0       -3.082347    2.104765    1.115909
     25          1           0       -0.730262    2.951911    0.992007
     26          1           0        4.112275    2.045530    0.286874
     27          1           0        5.932783    0.446279   -0.191904
     28          1           0        5.359085   -1.919059   -0.528217
     29          1           0        3.041871   -2.705263   -0.397934
     30          1           0       -1.710288   -1.820200    0.293281
 ---------------------------------------------------------------------
                    Distance matrix (angstroms):
                    1          2          3          4          5
     1  C    0.000000
     2  C    1.491907   0.000000
     3  C    2.484182   1.476378   0.000000
     4  C    3.343151   2.508381   1.380908   0.000000
     5  C    4.551932   3.767591   2.399803   1.372243   0.000000
     6  C    5.036625   4.249738   2.773822   2.378843   1.377844
     7  C    6.458810   5.714702   4.238908   3.723986   2.467169
     8  O    7.162043   6.438533   4.983481   4.148378   2.776710
     9  C    7.290792   6.576248   5.143789   4.923859   3.798083
    10  C    8.634114   7.937107   6.492779   6.170675   4.948413
    11  C    9.559928   8.890151   7.496699   7.343158   6.196493
    12  C    9.224894   8.584287   7.293709   7.399926   6.428941
    13  C    7.991879   7.355878   6.138783   6.419046   5.617729
    14  C    6.917147   6.231119   4.922622   5.079920   4.236224
    15  C    5.619449   4.929925   3.744370   4.212379   3.726997
    16  O    5.685385   5.083043   4.183117   4.971170   4.753079
    17  C    4.522077   3.742704   2.404107   2.747773   2.386549
    18  C    3.279446   2.447014   1.376176   2.377434   2.764401
    19  H    1.092466   2.189692   2.666366   3.554190   4.541007
    20  H    1.129188   2.128689   3.396457   4.372302   5.610035
    21  H    1.118452   2.152190   3.016103   3.453731   4.693272
    22  H    2.124545   1.127120   2.098669   2.606354   3.955762
    23  H    2.169902   1.112952   2.097631   3.323262   4.449561
    24  H    3.369604   2.671270   2.096467   1.080894   2.154839
    25  H    5.361641   4.640649   3.377221   2.134200   1.077170
    26  H    9.116846   8.417177   6.945159   6.416284   5.098401
    27  H   10.605637   9.941611   8.533766   8.313709   7.115885
    28  H   10.108831   9.496057   8.257755   8.442041   7.509057
    29  H    8.017276   7.429118   6.359034   6.852214   6.228584
    30  H    3.354667   2.670730   2.152558   3.372354   3.844442
                    6          7          8          9         10
     6  C    0.000000
     7  C    1.465098   0.000000
     8  O    2.361571   1.277363   0.000000
     9  C    2.545038   1.454566   2.367160   0.000000
    10  C    3.814432   2.482048   2.833573   1.374953   0.000000
    11  C    4.964317   3.761887   4.218020   2.419435   1.384629
    12  C    5.083797   4.189917   4.973959   2.735913   2.354576
    13  C    4.239944   3.704839   4.755853   2.392105   2.751263
    14  C    2.858806   2.421954   3.585376   1.371403   2.372060
    15  C    2.461371   2.833357   4.110586   2.480228   3.729262
    16  O    3.606082   4.097429   5.374676   3.620871   4.743675
    17  C    1.378208   2.458280   3.604739   2.902930   4.277861
    18  C    2.405132   3.746050   4.766173   4.303539   5.678401
    19  H    4.810888   6.149427   6.923891   6.855897   8.172346
    20  H    6.033351   7.465747   8.224461   8.217459   9.575617
    21  H    5.426704   6.813462   7.343662   7.795862   9.100466
    22  H    4.715945   6.154989   6.709590   7.165421   8.493112
    23  H    4.687619   6.119872   6.971888   6.803762   8.174014
    24  H    3.375574   4.618653   4.834030   5.903495   7.096558
    25  H    2.125969   2.669027   2.448645   4.118272   5.058851
    26  H    4.177987   2.720912   2.551775   2.136524   1.081899
    27  H    5.940655   4.651967   4.903320   3.408659   2.171926
    28  H    6.153542   5.290867   6.055074   3.836916   3.352091
    29  H    4.868938   4.584096   5.716485   3.385822   3.836082
    30  H    3.370219   4.592362   5.703826   4.895886   6.247125
                   11         12         13         14         15
    11  C    0.000000
    12  C    1.390989   0.000000
    13  C    2.433637   1.378184   0.000000
    14  C    2.793814   2.371496   1.382817   0.000000
    15  C    4.253031   3.690574   2.425955   1.459977   0.000000
    16  O    4.996360   4.121295   2.743559   2.371621   1.264090
    17  C    5.151356   4.889623   3.761049   2.518552   1.464607
    18  C    6.517533   6.142528   4.909852   3.802488   2.484294
    19  H    9.027130   8.645889   7.422499   6.417412   5.151891
    20  H   10.433847   9.995825   8.710411   7.723871   6.354204
    21  H   10.121116   9.912694   8.744073   7.591034   6.388574
    22  H    9.534304   9.338941   8.164770   6.973702   5.756853
    23  H    9.010105   8.561993   7.272231   6.273536   4.887404
    24  H    8.318509   8.442020   7.489967   6.141699   5.292314
    25  H    6.397774   6.845428   6.212142   4.840933   4.585973
    26  H    2.110513   3.330222   3.833095   3.356783   4.612763
    27  H    1.078392   2.151615   3.404002   3.872013   5.330867
    28  H    2.140078   1.101003   2.141904   3.370029   4.566744
    29  H    3.404800   2.134468   1.085096   2.162980   2.650389
    30  H    6.908431   6.323223   4.995088   4.116785   2.666126
                   16         17         18         19         20
    16  O    0.000000
    17  C    2.367749   0.000000
    18  C    2.807958   1.400788   0.000000
    19  H    5.173796   4.203676   3.094244   0.000000
    20  H    6.229087   5.380024   4.048281   1.793088   0.000000
    21  H    6.602358   5.170714   4.056546   1.826540   1.772734
    22  H    6.024803   4.466235   3.307203   3.049958   2.629020
    23  H    4.805362   3.922395   2.551941   2.743501   2.336253
    24  H    6.020143   3.827778   3.333410   3.807286   4.354350
    25  H    5.696967   3.359453   3.841570   5.391430   6.441693
    26  H    5.710140   4.917940   6.303217   8.702501  10.114429
    27  H    6.045270   6.209793   7.584337  10.064781  11.494068
    28  H    4.772363   5.862403   7.049319   9.494874  10.825354
    29  H    2.433742   4.109012   5.034304   7.419874   8.618958
    30  H    2.467805   2.135112   1.080586   3.096504   3.865250
                   21         22         23         24         25
    21  H    0.000000
    22  H    2.273382   0.000000
    23  H    3.041510   1.827969   0.000000
    24  H    3.156930   2.348843   3.624988   0.000000
    25  H    5.323830   4.650604   5.396137   2.503060   0.000000
    26  H    9.471535   8.869166   8.754542   7.242471   4.976836
    27  H   11.138383  10.561468  10.077890   9.259239   7.216371
    28  H   10.843494  10.290077   9.402941   9.494845   7.944657
    29  H    8.866196   8.315046   7.208989   7.933103   6.940067
    30  H    4.327613   3.675778   2.378722   4.238468   4.921556
                   26         27         28         29         30
    26  H    0.000000
    27  H    2.470037   0.000000
    28  H    4.235195   2.457042   0.000000
    29  H    4.917800   4.281592   2.450423   0.000000
    30  H    6.989002   7.986793   7.117631   4.883045   0.000000
 Symmetry turned off by external request.
 Stoichiometry    C16H12O2
 Framework group  C1[X(C16H12O2)]
 Deg. of freedom    84
 Full point group                 C1      NOp   1
 Rotational constants (GHZ):           0.9963026           0.2699570           0.2167767
 Leave Link  202 at Thu Dec 21 05:33:56 2023, MaxMem=  4026531840 cpu:               0.4 elap:               0.1
 (Enter /sysapps/ubuntu-applications/gaussian/Gaussian/AVX2/g16/l301.exe)
 Standard basis: 6-311++G(d,p) (5D, 7F)
 Ernie: Thresh=  0.10000D-02 Tol=  0.10000D-05 Strict=F.
   480 basis functions,   756 primitive gaussians,   498 cartesian basis functions
    62 alpha electrons       62 beta electrons
       nuclear repulsion energy      1202.5690999111 Hartrees.
 IExCor=  402 DFT=T Ex+Corr=B3LYP ExCW=0 ScaHFX=  0.200000
 ScaDFX=  0.800000  0.720000  1.000000  0.810000 ScalE2=  1.000000  1.000000
 IRadAn=      5 IRanWt=     -1 IRanGd=            0 ICorTp=0 IEmpDi=  4
 NAtoms=   30 NActive=   30 NUniq=   30 SFac= 1.00D+00 NAtFMM=   60 NAOKFM=F Big=F
 Integral buffers will be    131072 words long.
 Raffenetti 2 integral format.
 Two-electron integral symmetry is turned off.
 Leave Link  301 at Thu Dec 21 05:33:56 2023, MaxMem=  4026531840 cpu:               0.7 elap:               0.2
 (Enter /sysapps/ubuntu-applications/gaussian/Gaussian/AVX2/g16/l302.exe)
 NPDir=0 NMtPBC=     1 NCelOv=     1 NCel=       1 NClECP=     1 NCelD=      1
         NCelK=      1 NCelE2=     1 NClLst=     1 CellRange=     0.0.
 One-electron integrals computed using PRISM.
 NBasis=   480 RedAO= T EigKep=  1.19D-06  NBF=   480
 NBsUse=   473 1.00D-06 EigRej=  6.55D-07 NBFU=   473
 Precomputing XC quadrature grid using
 IXCGrd= 4 IRadAn=           5 IRanWt=          -1 IRanGd=           0 AccXCQ= 0.00D+00.
 Generated NRdTot=       0 NPtTot=           0 NUsed=           0 NTot=          32
 NSgBfM=   496   496   496   496   496 MxSgAt=    30 MxSgA2=    30.
 Leave Link  302 at Thu Dec 21 05:33:59 2023, MaxMem=  4026531840 cpu:              14.1 elap:               2.8
 (Enter /sysapps/ubuntu-applications/gaussian/Gaussian/AVX2/g16/l303.exe)
 DipDrv:  MaxL=1.
 Leave Link  303 at Thu Dec 21 05:33:59 2023, MaxMem=  4026531840 cpu:               1.6 elap:               0.4
 (Enter /sysapps/ubuntu-applications/gaussian/Gaussian/AVX2/g16/l401.exe)
 ExpMin= 3.60D-02 ExpMax= 8.59D+03 ExpMxC= 1.30D+03 IAcc=3 IRadAn=         5 AccDes= 0.00D+00
 Harris functional with IExCor=  402 and IRadAn=       5 diagonalized for initial guess.
 HarFok:  IExCor=  402 AccDes= 0.00D+00 IRadAn=         5 IDoV= 1 UseB2=F ITyADJ=14
 ICtDFT=  3500011 ScaDFX=  1.000000  1.000000  1.000000  1.000000
 FoFCou: FMM=F IPFlag=           0 FMFlag=      100000 FMFlg1=           0
         NFxFlg=           0 DoJE=T BraDBF=F KetDBF=T FulRan=T
         wScrn=  0.000000 ICntrl=       500 IOpCl=  0 I1Cent=   200000004 NGrid=           0
         NMat0=    1 NMatS0=      1 NMatT0=    0 NMatD0=    1 NMtDS0=    0 NMtDT0=    0
 Symmetry not used in FoFCou.
 Harris En= -767.637554931756    
 JPrj=0 DoOrth=F DoCkMO=F.
 Initial guess <Sx>= 0.0000 <Sy>= 0.0000 <Sz>= 0.0000 <S**2>=-0.0000 S=-0.0000
 Leave Link  401 at Thu Dec 21 05:34:04 2023, MaxMem=  4026531840 cpu:              34.4 elap:               4.4
 (Enter /sysapps/ubuntu-applications/gaussian/Gaussian/AVX2/g16/l502.exe)
 Two-electron integral symmetry not used.
 UHF open shell SCF:
 Using DIIS extrapolation, IDIIS=  1040.
 NGot=  4026531840 LenX=  4026028256 LenY=  4025779754
 Requested convergence on RMS density matrix=1.00D-08 within 128 cycles.
 Requested convergence on MAX density matrix=1.00D-06.
 Requested convergence on             energy=1.00D-06.
 No special actions if energy rises.
 Fock matrices will be formed incrementally for  20 cycles.

 Cycle   1  Pass 1  IDiag  1:
 FoFJK:  IHMeth= 1 ICntrl=       0 DoSepK=F KAlg= 0 I1Cent=           0 FoldK=F
 IRaf= 840000000 NMat=       1 IRICut=       1 DoRegI=T DoRafI=F ISym2E= 0 IDoP0=0 IntGTp=1.
 FoFCou: FMM=F IPFlag=           0 FMFlag=      100000 FMFlg1=           0
         NFxFlg=           0 DoJE=F BraDBF=F KetDBF=F FulRan=T
         wScrn=  0.000000 ICntrl=         0 IOpCl=  1 I1Cent=           0 NGrid=           0
         NMat0=    1 NMatS0=      1 NMatT0=    0 NMatD0=    1 NMtDS0=    0 NMtDT0=    0
 Symmetry not used in FoFCou.
 E= -767.136016852455    
 DIIS: error= 2.81D-02 at cycle   1 NSaved=   1.
 NSaved= 1 IEnMin= 1 EnMin= -767.136016852455     IErMin= 1 ErrMin= 2.81D-02
 ErrMax= 2.81D-02  0.00D+00 EMaxC= 1.00D-01 BMatC= 2.08D+00 BMatP= 2.08D+00
 IDIUse=3 WtCom= 7.19D-01 WtEn= 2.81D-01
 Coeff-Com:  0.100D+01
 Coeff-En:   0.100D+01
 Coeff:      0.100D+01
 Gap=     0.082 Goal=   None    Shift=    0.000
 Gap=     0.082 Goal=   None    Shift=    0.000
 GapD=    0.082 DampG=0.500 DampE=0.500 DampFc=0.2500 IDamp=-1.
 Damping current iteration by 2.50D-01
 RMSDP=1.71D-02 MaxDP=9.20D-01              OVMax= 3.11D-01

 Cycle   2  Pass 1  IDiag  1:
 RMSU=  3.97D-03    CP:  1.03D+00
 E= -767.290577025671     Delta-E=       -0.154560173216 Rises=F Damp=T
 DIIS: error= 1.40D-02 at cycle   2 NSaved=   2.
 NSaved= 2 IEnMin= 2 EnMin= -767.290577025671     IErMin= 2 ErrMin= 1.40D-02
 ErrMax= 1.40D-02  0.00D+00 EMaxC= 1.00D-01 BMatC= 4.94D-01 BMatP= 2.08D+00
 IDIUse=3 WtCom= 8.60D-01 WtEn= 1.40D-01
 Coeff-Com: -0.593D+00 0.159D+01
 Coeff-En:   0.000D+00 0.100D+01
 Coeff:     -0.510D+00 0.151D+01
 Gap=     0.160 Goal=   None    Shift=    0.000
 Gap=     0.160 Goal=   None    Shift=    0.000
 RMSDP=9.78D-03 MaxDP=8.78D-01 DE=-1.55D-01 OVMax= 3.16D-01

 Cycle   3  Pass 1  IDiag  1:
 RMSU=  9.53D-03    CP:  1.01D+00  4.95D-01
 E= -767.492103224746     Delta-E=       -0.201526199075 Rises=F Damp=F
 DIIS: error= 2.55D-02 at cycle   3 NSaved=   3.
 NSaved= 3 IEnMin= 3 EnMin= -767.492103224746     IErMin= 2 ErrMin= 1.40D-02
 ErrMax= 2.55D-02  0.00D+00 EMaxC= 1.00D-01 BMatC= 4.04D-01 BMatP= 4.94D-01
 IDIUse=3 WtCom= 7.45D-01 WtEn= 2.55D-01
 Coeff-Com: -0.465D+00 0.101D+01 0.452D+00
 Coeff-En:   0.000D+00 0.000D+00 0.100D+01
 Coeff:     -0.346D+00 0.754D+00 0.592D+00
 Gap=     0.164 Goal=   None    Shift=    0.000
 Gap=     0.164 Goal=   None    Shift=    0.000
 RMSDP=8.11D-03 MaxDP=5.34D-01 DE=-2.02D-01 OVMax= 1.54D-01

 Cycle   4  Pass 1  IDiag  1:
 RMSU=  3.49D-03    CP:  1.07D+00  1.42D+00  4.31D-01
 E= -767.520414368642     Delta-E=       -0.028311143896 Rises=F Damp=F
 DIIS: error= 2.28D-02 at cycle   4 NSaved=   4.
 NSaved= 4 IEnMin= 4 EnMin= -767.520414368642     IErMin= 2 ErrMin= 1.40D-02
 ErrMax= 2.28D-02  0.00D+00 EMaxC= 1.00D-01 BMatC= 2.93D-01 BMatP= 4.04D-01
 IDIUse=3 WtCom= 7.72D-01 WtEn= 2.28D-01
 Coeff-Com: -0.567D-01 0.165D+00 0.437D+00 0.455D+00
 Coeff-En:   0.000D+00 0.000D+00 0.432D+00 0.568D+00
 Coeff:     -0.438D-01 0.127D+00 0.436D+00 0.481D+00
 Gap=     0.152 Goal=   None    Shift=    0.000
 Gap=     0.152 Goal=   None    Shift=    0.000
 RMSDP=4.63D-03 MaxDP=2.79D-01 DE=-2.83D-02 OVMax= 7.55D-02

 Cycle   5  Pass 1  IDiag  1:
 RMSU=  9.47D-04    CP:  1.02D+00  9.83D-01  6.46D-01  4.04D-01
 E= -767.581575585647     Delta-E=       -0.061161217005 Rises=F Damp=F
 DIIS: error= 1.80D-03 at cycle   5 NSaved=   5.
 NSaved= 5 IEnMin= 5 EnMin= -767.581575585647     IErMin= 5 ErrMin= 1.80D-03
 ErrMax= 1.80D-03  0.00D+00 EMaxC= 1.00D-01 BMatC= 2.86D-03 BMatP= 2.93D-01
 IDIUse=3 WtCom= 9.82D-01 WtEn= 1.80D-02
 Coeff-Com: -0.121D-02 0.133D-01 0.174D+00 0.228D+00 0.586D+00
 Coeff-En:   0.000D+00 0.000D+00 0.000D+00 0.000D+00 0.100D+01
 Coeff:     -0.119D-02 0.131D-01 0.171D+00 0.224D+00 0.594D+00
 Gap=     0.152 Goal=   None    Shift=    0.000
 Gap=     0.152 Goal=   None    Shift=    0.000
 RMSDP=5.79D-04 MaxDP=5.23D-02 DE=-6.12D-02 OVMax= 1.63D-02

 Cycle   6  Pass 1  IDiag  1:
 RMSU=  3.59D-04    CP:  1.01D+00  9.67D-01  6.36D-01  4.15D-01  7.50D-01
 E= -767.582002315414     Delta-E=       -0.000426729767 Rises=F Damp=F
 DIIS: error= 1.14D-03 at cycle   6 NSaved=   6.
 NSaved= 6 IEnMin= 6 EnMin= -767.582002315414     IErMin= 6 ErrMin= 1.14D-03
 ErrMax= 1.14D-03  0.00D+00 EMaxC= 1.00D-01 BMatC= 9.07D-04 BMatP= 2.86D-03
 IDIUse=3 WtCom= 9.89D-01 WtEn= 1.14D-02
 Coeff-Com:  0.376D-02-0.717D-02 0.577D-01 0.883D-01 0.401D+00 0.457D+00
 Coeff-En:   0.000D+00 0.000D+00 0.000D+00 0.000D+00 0.265D+00 0.735D+00
 Coeff:      0.372D-02-0.709D-02 0.570D-01 0.873D-01 0.399D+00 0.460D+00
 Gap=     0.148 Goal=   None    Shift=    0.000
 Gap=     0.148 Goal=   None    Shift=    0.000
 RMSDP=1.91D-04 MaxDP=1.57D-02 DE=-4.27D-04 OVMax= 7.55D-03

 Cycle   7  Pass 1  IDiag  1:
 RMSU=  1.14D-04    CP:  1.01D+00  9.63D-01  6.44D-01  4.24D-01  7.82D-01
                    CP:  6.95D-01
 E= -767.582198939795     Delta-E=       -0.000196624381 Rises=F Damp=F
 DIIS: error= 4.08D-04 at cycle   7 NSaved=   7.
 NSaved= 7 IEnMin= 7 EnMin= -767.582198939795     IErMin= 7 ErrMin= 4.08D-04
 ErrMax= 4.08D-04  0.00D+00 EMaxC= 1.00D-01 BMatC= 1.18D-04 BMatP= 9.07D-04
 IDIUse=3 WtCom= 9.96D-01 WtEn= 4.08D-03
 Coeff-Com:  0.170D-02-0.454D-02 0.139D-01 0.254D-01 0.185D+00 0.307D+00
 Coeff-Com:  0.472D+00
 Coeff-En:   0.000D+00 0.000D+00 0.000D+00 0.000D+00 0.000D+00 0.922D-01
 Coeff-En:   0.908D+00
 Coeff:      0.169D-02-0.452D-02 0.139D-01 0.253D-01 0.184D+00 0.306D+00
 Coeff:      0.473D+00
 Gap=     0.148 Goal=   None    Shift=    0.000
 Gap=     0.148 Goal=   None    Shift=    0.000
 RMSDP=8.55D-05 MaxDP=7.01D-03 DE=-1.97D-04 OVMax= 2.10D-03

 Cycle   8  Pass 1  IDiag  1:
 RMSU=  4.29D-05    CP:  1.01D+00  9.68D-01  6.43D-01  4.30D-01  7.73D-01
                    CP:  6.90D-01  6.28D-01
 E= -767.582222925596     Delta-E=       -0.000023985801 Rises=F Damp=F
 DIIS: error= 9.95D-05 at cycle   8 NSaved=   8.
 NSaved= 8 IEnMin= 8 EnMin= -767.582222925596     IErMin= 8 ErrMin= 9.95D-05
 ErrMax= 9.95D-05  0.00D+00 EMaxC= 1.00D-01 BMatC= 9.58D-06 BMatP= 1.18D-04
 IDIUse=1 WtCom= 1.00D+00 WtEn= 0.00D+00
 Coeff-Com:  0.646D-03-0.194D-02 0.373D-02 0.776D-02 0.805D-01 0.148D+00
 Coeff-Com:  0.290D+00 0.472D+00
 Coeff:      0.646D-03-0.194D-02 0.373D-02 0.776D-02 0.805D-01 0.148D+00
 Coeff:      0.290D+00 0.472D+00
 Gap=     0.148 Goal=   None    Shift=    0.000
 Gap=     0.148 Goal=   None    Shift=    0.000
 RMSDP=1.97D-05 MaxDP=1.33D-03 DE=-2.40D-05 OVMax= 6.77D-04

 Cycle   9  Pass 1  IDiag  1:
 RMSU=  1.37D-05    CP:  1.01D+00  9.69D-01  6.43D-01  4.28D-01  7.73D-01
                    CP:  6.84D-01  6.88D-01  7.52D-01
 E= -767.582224627462     Delta-E=       -0.000001701866 Rises=F Damp=F
 DIIS: error= 4.63D-05 at cycle   9 NSaved=   9.
 NSaved= 9 IEnMin= 9 EnMin= -767.582224627462     IErMin= 9 ErrMin= 4.63D-05
 ErrMax= 4.63D-05  0.00D+00 EMaxC= 1.00D-01 BMatC= 1.78D-06 BMatP= 9.58D-06
 IDIUse=1 WtCom= 1.00D+00 WtEn= 0.00D+00
 Coeff-Com:  0.130D-03-0.427D-03-0.579D-04 0.285D-03 0.192D-01 0.392D-01
 Coeff-Com:  0.102D+00 0.323D+00 0.517D+00
 Coeff:      0.130D-03-0.427D-03-0.579D-04 0.285D-03 0.192D-01 0.392D-01
 Coeff:      0.102D+00 0.323D+00 0.517D+00
 Gap=     0.148 Goal=   None    Shift=    0.000
 Gap=     0.148 Goal=   None    Shift=    0.000
 RMSDP=1.25D-05 MaxDP=8.74D-04 DE=-1.70D-06 OVMax= 2.36D-04

 Cycle  10  Pass 1  IDiag  1:
 RMSU=  3.97D-06    CP:  1.01D+00  9.68D-01  6.44D-01  4.28D-01  7.78D-01
                    CP:  6.80D-01  6.58D-01  7.00D-01  5.25D-01
 E= -767.582225018030     Delta-E=       -0.000000390568 Rises=F Damp=F
 DIIS: error= 7.53D-06 at cycle  10 NSaved=  10.
 NSaved=10 IEnMin=10 EnMin= -767.582225018030     IErMin=10 ErrMin= 7.53D-06
 ErrMax= 7.53D-06  0.00D+00 EMaxC= 1.00D-01 BMatC= 8.27D-08 BMatP= 1.78D-06
 IDIUse=1 WtCom= 1.00D+00 WtEn= 0.00D+00
 Coeff-Com:  0.478D-04-0.152D-03-0.190D-03-0.245D-03 0.680D-02 0.141D-01
 Coeff-Com:  0.410D-01 0.155D+00 0.285D+00 0.499D+00
 Coeff:      0.478D-04-0.152D-03-0.190D-03-0.245D-03 0.680D-02 0.141D-01
 Coeff:      0.410D-01 0.155D+00 0.285D+00 0.499D+00
 Gap=     0.148 Goal=   None    Shift=    0.000
 Gap=     0.148 Goal=   None    Shift=    0.000
 RMSDP=2.68D-06 MaxDP=1.93D-04 DE=-3.91D-07 OVMax= 5.36D-05

 Cycle  11  Pass 1  IDiag  1:
 RMSU=  1.22D-06    CP:  1.01D+00  9.68D-01  6.44D-01  4.28D-01  7.78D-01
                    CP:  6.81D-01  6.63D-01  6.99D-01  5.22D-01  7.45D-01
 E= -767.582225037632     Delta-E=       -0.000000019602 Rises=F Damp=F
 DIIS: error= 2.06D-06 at cycle  11 NSaved=  11.
 NSaved=11 IEnMin=11 EnMin= -767.582225037632     IErMin=11 ErrMin= 2.06D-06
 ErrMax= 2.06D-06  0.00D+00 EMaxC= 1.00D-01 BMatC= 7.04D-09 BMatP= 8.27D-08
 IDIUse=1 WtCom= 1.00D+00 WtEn= 0.00D+00
 Coeff-Com: -0.317D-06-0.738D-05-0.858D-04-0.181D-03 0.915D-03 0.181D-02
 Coeff-Com:  0.700D-02 0.360D-01 0.744D-01 0.263D+00 0.617D+00
 Coeff:     -0.317D-06-0.738D-05-0.858D-04-0.181D-03 0.915D-03 0.181D-02
 Coeff:      0.700D-02 0.360D-01 0.744D-01 0.263D+00 0.617D+00
 Gap=     0.148 Goal=   None    Shift=    0.000
 Gap=     0.148 Goal=   None    Shift=    0.000
 RMSDP=7.39D-07 MaxDP=4.18D-05 DE=-1.96D-08 OVMax= 1.77D-05

 Cycle  12  Pass 1  IDiag  1:
 RMSU=  3.68D-07    CP:  1.01D+00  9.68D-01  6.44D-01  4.28D-01  7.78D-01
                    CP:  6.80D-01  6.63D-01  7.07D-01  5.28D-01  7.89D-01
                    CP:  7.64D-01
 E= -767.582225039244     Delta-E=       -0.000000001612 Rises=F Damp=F
 DIIS: error= 7.99D-07 at cycle  12 NSaved=  12.
 NSaved=12 IEnMin=12 EnMin= -767.582225039244     IErMin=12 ErrMin= 7.99D-07
 ErrMax= 7.99D-07  0.00D+00 EMaxC= 1.00D-01 BMatC= 8.94D-10 BMatP= 7.04D-09
 IDIUse=1 WtCom= 1.00D+00 WtEn= 0.00D+00
 Coeff-Com: -0.480D-05 0.649D-05-0.410D-04-0.926D-04 0.118D-03 0.172D-03
 Coeff-Com:  0.154D-02 0.116D-01 0.260D-01 0.125D+00 0.366D+00 0.469D+00
 Coeff:     -0.480D-05 0.649D-05-0.410D-04-0.926D-04 0.118D-03 0.172D-03
 Coeff:      0.154D-02 0.116D-01 0.260D-01 0.125D+00 0.366D+00 0.469D+00
 Gap=     0.148 Goal=   None    Shift=    0.000
 Gap=     0.148 Goal=   None    Shift=    0.000
 RMSDP=1.78D-07 MaxDP=1.26D-05 DE=-1.61D-09 OVMax= 6.30D-06

 Cycle  13  Pass 1  IDiag  1:
 RMSU=  1.16D-07    CP:  1.01D+00  9.68D-01  6.44D-01  4.28D-01  7.78D-01
                    CP:  6.80D-01  6.63D-01  7.07D-01  5.29D-01  7.85D-01
                    CP:  7.88D-01  6.97D-01
 E= -767.582225039475     Delta-E=       -0.000000000231 Rises=F Damp=F
 DIIS: error= 1.50D-07 at cycle  13 NSaved=  13.
 NSaved=13 IEnMin=13 EnMin= -767.582225039475     IErMin=13 ErrMin= 1.50D-07
 ErrMax= 1.50D-07  0.00D+00 EMaxC= 1.00D-01 BMatC= 4.24D-11 BMatP= 8.94D-10
 IDIUse=1 WtCom= 1.00D+00 WtEn= 0.00D+00
 Coeff-Com: -0.355D-05 0.532D-05-0.682D-05-0.120D-04-0.695D-04-0.167D-03
 Coeff-Com: -0.325D-03-0.273D-03 0.229D-03 0.151D-01 0.627D-01 0.189D+00
 Coeff-Com:  0.734D+00
 Coeff:     -0.355D-05 0.532D-05-0.682D-05-0.120D-04-0.695D-04-0.167D-03
 Coeff:     -0.325D-03-0.273D-03 0.229D-03 0.151D-01 0.627D-01 0.189D+00
 Coeff:      0.734D+00
 Gap=     0.148 Goal=   None    Shift=    0.000
 Gap=     0.148 Goal=   None    Shift=    0.000
 RMSDP=1.13D-07 MaxDP=8.39D-06 DE=-2.31D-10 OVMax= 1.12D-06

 Cycle  14  Pass 1  IDiag  1:
 RMSU=  4.99D-08    CP:  1.01D+00  9.68D-01  6.44D-01  4.28D-01  7.78D-01
                    CP:  6.80D-01  6.63D-01  7.07D-01  5.29D-01  7.95D-01
                    CP:  8.04D-01  7.01D-01  9.22D-01
 E= -767.582225039496     Delta-E=       -0.000000000021 Rises=F Damp=F
 DIIS: error= 3.86D-08 at cycle  14 NSaved=  14.
 NSaved=14 IEnMin=14 EnMin= -767.582225039496     IErMin=14 ErrMin= 3.86D-08
 ErrMax= 3.86D-08  0.00D+00 EMaxC= 1.00D-01 BMatC= 2.59D-12 BMatP= 4.24D-11
 IDIUse=1 WtCom= 1.00D+00 WtEn= 0.00D+00
 Coeff-Com: -0.135D-05 0.201D-05-0.659D-06 0.104D-05-0.412D-04-0.941D-04
 Coeff-Com: -0.265D-03-0.931D-03-0.182D-02-0.224D-02 0.245D-03 0.467D-01
 Coeff-Com:  0.290D+00 0.668D+00
 Coeff:     -0.135D-05 0.201D-05-0.659D-06 0.104D-05-0.412D-04-0.941D-04
 Coeff:     -0.265D-03-0.931D-03-0.182D-02-0.224D-02 0.245D-03 0.467D-01
 Coeff:      0.290D+00 0.668D+00
 Gap=     0.148 Goal=   None    Shift=    0.000
 Gap=     0.148 Goal=   None    Shift=    0.000
 RMSDP=2.57D-08 MaxDP=2.08D-06 DE=-2.11D-11 OVMax= 3.97D-07

 Cycle  15  Pass 1  IDiag  1:
 RMSU=  9.55D-09    CP:  1.01D+00  9.68D-01  6.44D-01  4.28D-01  7.78D-01
                    CP:  6.80D-01  6.63D-01  7.07D-01  5.29D-01  7.95D-01
                    CP:  8.03D-01  7.24D-01  9.32D-01  7.48D-01
 E= -767.582225039513     Delta-E=       -0.000000000017 Rises=F Damp=F
 DIIS: error= 1.59D-08 at cycle  15 NSaved=  15.
 NSaved=15 IEnMin=15 EnMin= -767.582225039513     IErMin=15 ErrMin= 1.59D-08
 ErrMax= 1.59D-08  0.00D+00 EMaxC= 1.00D-01 BMatC= 4.21D-13 BMatP= 2.59D-12
 IDIUse=1 WtCom= 1.00D+00 WtEn= 0.00D+00
 Coeff-Com: -0.458D-06 0.703D-06 0.138D-06 0.139D-05-0.157D-04-0.371D-04
 Coeff-Com: -0.113D-03-0.443D-03-0.970D-03-0.223D-02-0.484D-02 0.106D-01
 Coeff-Com:  0.925D-01 0.355D+00 0.551D+00
 Coeff:     -0.458D-06 0.703D-06 0.138D-06 0.139D-05-0.157D-04-0.371D-04
 Coeff:     -0.113D-03-0.443D-03-0.970D-03-0.223D-02-0.484D-02 0.106D-01
 Coeff:      0.925D-01 0.355D+00 0.551D+00
 Gap=     0.148 Goal=   None    Shift=    0.000
 Gap=     0.148 Goal=   None    Shift=    0.000
 RMSDP=6.70D-09 MaxDP=6.48D-07 DE=-1.71D-11 OVMax= 1.49D-07

 SCF Done:  E(UB3LYP) =  -767.582225040     A.U. after   15 cycles
            NFock= 15  Conv=0.67D-08     -V/T= 2.0036
 <Sx>= 0.0000 <Sy>= 0.0000 <Sz>= 0.0000 <S**2>=-0.0000 S=-0.0000
 <L.S>=  0.00000000000    
 KE= 7.647944682829D+02 PE=-4.192010078204D+03 EE= 1.457064284970D+03
 Annihilation of the first spin contaminant:
 S**2 before annihilation    -0.0000,   after     0.0000
 Leave Link  502 at Thu Dec 21 05:39:26 2023, MaxMem=  4026531840 cpu:            2555.6 elap:             322.1
 (Enter /sysapps/ubuntu-applications/gaussian/Gaussian/AVX2/g16/l601.exe)
 Copying SCF densities to generalized density rwf, IOpCl= 1 IROHF=0.

 **********************************************************************

            Population analysis using the SCF density.

 **********************************************************************

 Alpha  occ. eigenvalues --  -19.12168 -19.11787 -10.27503 -10.27454 -10.20514
 Alpha  occ. eigenvalues --  -10.20374 -10.20273 -10.20173 -10.20104 -10.20010
 Alpha  occ. eigenvalues --  -10.19872 -10.19752 -10.19559 -10.19383 -10.19307
 Alpha  occ. eigenvalues --  -10.19094 -10.18820 -10.17816  -1.03601  -1.02613
 Alpha  occ. eigenvalues --   -0.90599  -0.89570  -0.83675  -0.80466  -0.78406
 Alpha  occ. eigenvalues --   -0.77945  -0.75666  -0.69452  -0.68020  -0.65418
 Alpha  occ. eigenvalues --   -0.62957  -0.61237  -0.59170  -0.56265  -0.54942
 Alpha  occ. eigenvalues --   -0.50963  -0.49881  -0.49135  -0.48241  -0.46160
 Alpha  occ. eigenvalues --   -0.45609  -0.45312  -0.44989  -0.44055  -0.43782
 Alpha  occ. eigenvalues --   -0.43249  -0.42301  -0.40736  -0.39935  -0.39200
 Alpha  occ. eigenvalues --   -0.38447  -0.37754  -0.36207  -0.35603  -0.35289
 Alpha  occ. eigenvalues --   -0.34690  -0.28718  -0.28256  -0.27796  -0.27691
 Alpha  occ. eigenvalues --   -0.27127  -0.26760
 Alpha virt. eigenvalues --   -0.12007  -0.07685  -0.03519  -0.02763  -0.01231
 Alpha virt. eigenvalues --   -0.00795   0.00671   0.01094   0.01128   0.01450
 Alpha virt. eigenvalues --    0.03014   0.03289   0.03603   0.03709   0.03866
 Alpha virt. eigenvalues --    0.04865   0.05049   0.05210   0.05574   0.06116
 Alpha virt. eigenvalues --    0.06500   0.07084   0.07438   0.08428   0.08747
 Alpha virt. eigenvalues --    0.09445   0.09487   0.09658   0.10189   0.10425
 Alpha virt. eigenvalues --    0.10935   0.11244   0.11556   0.11677   0.12286
 Alpha virt. eigenvalues --    0.12531   0.12782   0.13106   0.13190   0.13352
 Alpha virt. eigenvalues --    0.13851   0.14110   0.14456   0.14785   0.14860
 Alpha virt. eigenvalues --    0.15216   0.15623   0.15970   0.16366   0.16999
 Alpha virt. eigenvalues --    0.17328   0.17512   0.17892   0.18309   0.18657
 Alpha virt. eigenvalues --    0.19034   0.19572   0.19934   0.19989   0.20215
 Alpha virt. eigenvalues --    0.20722   0.21275   0.21374   0.22208   0.22485
 Alpha virt. eigenvalues --    0.23070   0.23283   0.23430   0.23744   0.24472
 Alpha virt. eigenvalues --    0.24673   0.24941   0.25697   0.25951   0.26102
 Alpha virt. eigenvalues --    0.26340   0.26715   0.27014   0.27422   0.27719
 Alpha virt. eigenvalues --    0.29021   0.29050   0.29402   0.29619   0.30764
 Alpha virt. eigenvalues --    0.31020   0.31289   0.31776   0.32087   0.32340
 Alpha virt. eigenvalues --    0.32403   0.32960   0.33067   0.33354   0.34094
 Alpha virt. eigenvalues --    0.35685   0.36005   0.36138   0.36434   0.36943
 Alpha virt. eigenvalues --    0.37864   0.38745   0.39173   0.40005   0.40918
 Alpha virt. eigenvalues --    0.42027   0.42195   0.42645   0.44015   0.45328
 Alpha virt. eigenvalues --    0.46261   0.47332   0.48361   0.49661   0.50124
 Alpha virt. eigenvalues --    0.51269   0.52236   0.52924   0.53214   0.53882
 Alpha virt. eigenvalues --    0.54171   0.55282   0.55893   0.56203   0.57168
 Alpha virt. eigenvalues --    0.57920   0.58158   0.58801   0.59248   0.59944
 Alpha virt. eigenvalues --    0.61346   0.61482   0.61762   0.62684   0.63341
 Alpha virt. eigenvalues --    0.63829   0.64193   0.65116   0.65302   0.65524
 Alpha virt. eigenvalues --    0.66036   0.66551   0.66765   0.67527   0.67988
 Alpha virt. eigenvalues --    0.68598   0.69622   0.69845   0.71237   0.72328
 Alpha virt. eigenvalues --    0.72625   0.72974   0.73760   0.74259   0.74637
 Alpha virt. eigenvalues --    0.75449   0.76846   0.77491   0.78087   0.78779
 Alpha virt. eigenvalues --    0.80614   0.81287   0.83317   0.84402   0.85539
 Alpha virt. eigenvalues --    0.86260   0.87462   0.88644   0.89140   0.90155
 Alpha virt. eigenvalues --    0.91022   0.91520   0.92409   0.92688   0.93380
 Alpha virt. eigenvalues --    0.94087   0.95172   0.96395   0.96602   0.97151
 Alpha virt. eigenvalues --    0.98730   0.99603   1.00072   1.00363   1.01925
 Alpha virt. eigenvalues --    1.02339   1.03510   1.04669   1.05635   1.07205
 Alpha virt. eigenvalues --    1.07705   1.08185   1.09439   1.10565   1.12025
 Alpha virt. eigenvalues --    1.12315   1.14782   1.15641   1.16271   1.16955
 Alpha virt. eigenvalues --    1.19627   1.23075   1.23767   1.24347   1.26256
 Alpha virt. eigenvalues --    1.27854   1.28674   1.29436   1.32767   1.33760
 Alpha virt. eigenvalues --    1.34498   1.35573   1.38073   1.41664   1.42804
 Alpha virt. eigenvalues --    1.45404   1.46221   1.46722   1.47864   1.48455
 Alpha virt. eigenvalues --    1.49327   1.49558   1.50194   1.51413   1.51942
 Alpha virt. eigenvalues --    1.53112   1.54668   1.55114   1.55839   1.56819
 Alpha virt. eigenvalues --    1.58542   1.58719   1.60856   1.61324   1.63729
 Alpha virt. eigenvalues --    1.64235   1.65755   1.66358   1.67296   1.68462
 Alpha virt. eigenvalues --    1.69048   1.70331   1.71726   1.72235   1.72662
 Alpha virt. eigenvalues --    1.73130   1.74972   1.76339   1.77078   1.77753
 Alpha virt. eigenvalues --    1.78720   1.80211   1.81119   1.83878   1.85442
 Alpha virt. eigenvalues --    1.87804   1.88396   1.89257   1.90779   1.92132
 Alpha virt. eigenvalues --    1.92976   1.93254   1.93793   1.94134   1.95028
 Alpha virt. eigenvalues --    1.95594   1.97432   1.98307   1.99379   2.00182
 Alpha virt. eigenvalues --    2.02258   2.02652   2.05542   2.06649   2.08868
 Alpha virt. eigenvalues --    2.09392   2.09887   2.13005   2.13333   2.14236
 Alpha virt. eigenvalues --    2.15213   2.19329   2.19758   2.23738   2.25743
 Alpha virt. eigenvalues --    2.26714   2.28045   2.31111   2.32127   2.35793
 Alpha virt. eigenvalues --    2.36220   2.37902   2.40424   2.40921   2.42414
 Alpha virt. eigenvalues --    2.44105   2.46644   2.46875   2.47355   2.50326
 Alpha virt. eigenvalues --    2.53731   2.56309   2.57917   2.60221   2.61189
 Alpha virt. eigenvalues --    2.61282   2.64724   2.64987   2.65726   2.66766
 Alpha virt. eigenvalues --    2.70112   2.70259   2.70548   2.72394   2.73055
 Alpha virt. eigenvalues --    2.73669   2.74358   2.75119   2.76238   2.76389
 Alpha virt. eigenvalues --    2.77170   2.78472   2.79060   2.79224   2.80471
 Alpha virt. eigenvalues --    2.81281   2.82985   2.84339   2.85528   2.85852
 Alpha virt. eigenvalues --    2.86921   2.88235   2.89680   2.90558   2.91656
 Alpha virt. eigenvalues --    2.92886   2.94060   2.95761   2.96795   2.97316
 Alpha virt. eigenvalues --    2.99624   3.03828   3.09592   3.11507   3.12766
 Alpha virt. eigenvalues --    3.14061   3.19269   3.22422   3.23697   3.25299
 Alpha virt. eigenvalues --    3.28162   3.28773   3.31595   3.33072   3.34804
 Alpha virt. eigenvalues --    3.37643   3.40694   3.42144   3.46712   3.50161
 Alpha virt. eigenvalues --    3.52076   3.54112   3.55021   3.57082   3.59857
 Alpha virt. eigenvalues --    3.62734   3.65241   3.68260   3.70818   3.81386
 Alpha virt. eigenvalues --    3.82777   3.83582   3.87606   3.92211   4.00884
 Alpha virt. eigenvalues --    4.06406   4.09490   4.17659   4.19983   4.22237
 Alpha virt. eigenvalues --    4.24986   4.28525   4.35161   4.50079   4.80021
 Alpha virt. eigenvalues --    4.85160   4.87790   5.05146   5.06376   5.24260
 Alpha virt. eigenvalues --    5.26706   5.71991   5.79879  23.49929  23.65969
 Alpha virt. eigenvalues --   23.86710  23.91010  23.91445  23.93752  23.95829
 Alpha virt. eigenvalues --   23.97465  23.98956  23.99592  24.10565  24.12478
 Alpha virt. eigenvalues --   24.13322  24.14683  24.22207  24.23504  50.01090
 Alpha virt. eigenvalues --   50.05924
  Beta  occ. eigenvalues --  -19.12168 -19.11787 -10.27503 -10.27454 -10.20514
  Beta  occ. eigenvalues --  -10.20374 -10.20273 -10.20173 -10.20104 -10.20010
  Beta  occ. eigenvalues --  -10.19872 -10.19752 -10.19559 -10.19383 -10.19307
  Beta  occ. eigenvalues --  -10.19094 -10.18820 -10.17816  -1.03601  -1.02613
  Beta  occ. eigenvalues --   -0.90599  -0.89570  -0.83675  -0.80466  -0.78406
  Beta  occ. eigenvalues --   -0.77945  -0.75666  -0.69452  -0.68020  -0.65418
  Beta  occ. eigenvalues --   -0.62957  -0.61237  -0.59170  -0.56265  -0.54942
  Beta  occ. eigenvalues --   -0.50963  -0.49881  -0.49135  -0.48241  -0.46160
  Beta  occ. eigenvalues --   -0.45609  -0.45312  -0.44989  -0.44055  -0.43782
  Beta  occ. eigenvalues --   -0.43249  -0.42301  -0.40736  -0.39935  -0.39200
  Beta  occ. eigenvalues --   -0.38447  -0.37754  -0.36207  -0.35603  -0.35289
  Beta  occ. eigenvalues --   -0.34690  -0.28718  -0.28256  -0.27796  -0.27691
  Beta  occ. eigenvalues --   -0.27127  -0.26760
  Beta virt. eigenvalues --   -0.12007  -0.07685  -0.03519  -0.02763  -0.01231
  Beta virt. eigenvalues --   -0.00795   0.00671   0.01094   0.01128   0.01450
  Beta virt. eigenvalues --    0.03014   0.03289   0.03603   0.03709   0.03866
  Beta virt. eigenvalues --    0.04865   0.05049   0.05210   0.05574   0.06116
  Beta virt. eigenvalues --    0.06500   0.07084   0.07438   0.08428   0.08747
  Beta virt. eigenvalues --    0.09445   0.09487   0.09658   0.10189   0.10425
  Beta virt. eigenvalues --    0.10935   0.11244   0.11556   0.11677   0.12286
  Beta virt. eigenvalues --    0.12531   0.12782   0.13106   0.13190   0.13352
  Beta virt. eigenvalues --    0.13851   0.14110   0.14456   0.14785   0.14860
  Beta virt. eigenvalues --    0.15216   0.15623   0.15970   0.16366   0.16999
  Beta virt. eigenvalues --    0.17328   0.17512   0.17892   0.18309   0.18657
  Beta virt. eigenvalues --    0.19034   0.19572   0.19934   0.19989   0.20215
  Beta virt. eigenvalues --    0.20722   0.21275   0.21374   0.22208   0.22485
  Beta virt. eigenvalues --    0.23070   0.23283   0.23430   0.23744   0.24472
  Beta virt. eigenvalues --    0.24673   0.24941   0.25697   0.25951   0.26102
  Beta virt. eigenvalues --    0.26340   0.26715   0.27014   0.27422   0.27719
  Beta virt. eigenvalues --    0.29021   0.29050   0.29402   0.29619   0.30764
  Beta virt. eigenvalues --    0.31020   0.31289   0.31776   0.32087   0.32340
  Beta virt. eigenvalues --    0.32403   0.32960   0.33067   0.33354   0.34094
  Beta virt. eigenvalues --    0.35685   0.36005   0.36138   0.36434   0.36943
  Beta virt. eigenvalues --    0.37864   0.38745   0.39173   0.40005   0.40918
  Beta virt. eigenvalues --    0.42027   0.42195   0.42645   0.44015   0.45328
  Beta virt. eigenvalues --    0.46261   0.47332   0.48361   0.49661   0.50124
  Beta virt. eigenvalues --    0.51269   0.52236   0.52924   0.53214   0.53882
  Beta virt. eigenvalues --    0.54171   0.55282   0.55893   0.56203   0.57168
  Beta virt. eigenvalues --    0.57920   0.58158   0.58801   0.59248   0.59944
  Beta virt. eigenvalues --    0.61346   0.61482   0.61762   0.62684   0.63341
  Beta virt. eigenvalues --    0.63829   0.64193   0.65116   0.65302   0.65524
  Beta virt. eigenvalues --    0.66036   0.66551   0.66765   0.67527   0.67988
  Beta virt. eigenvalues --    0.68598   0.69622   0.69845   0.71237   0.72328
  Beta virt. eigenvalues --    0.72625   0.72974   0.73760   0.74259   0.74637
  Beta virt. eigenvalues --    0.75449   0.76846   0.77491   0.78087   0.78779
  Beta virt. eigenvalues --    0.80614   0.81287   0.83317   0.84402   0.85539
  Beta virt. eigenvalues --    0.86260   0.87462   0.88644   0.89140   0.90155
  Beta virt. eigenvalues --    0.91022   0.91520   0.92409   0.92688   0.93380
  Beta virt. eigenvalues --    0.94087   0.95172   0.96395   0.96602   0.97151
  Beta virt. eigenvalues --    0.98730   0.99603   1.00072   1.00363   1.01925
  Beta virt. eigenvalues --    1.02339   1.03510   1.04669   1.05635   1.07205
  Beta virt. eigenvalues --    1.07705   1.08185   1.09439   1.10565   1.12025
  Beta virt. eigenvalues --    1.12315   1.14782   1.15641   1.16271   1.16955
  Beta virt. eigenvalues --    1.19627   1.23075   1.23767   1.24347   1.26256
  Beta virt. eigenvalues --    1.27854   1.28674   1.29436   1.32767   1.33760
  Beta virt. eigenvalues --    1.34498   1.35573   1.38073   1.41664   1.42804
  Beta virt. eigenvalues --    1.45404   1.46221   1.46722   1.47864   1.48455
  Beta virt. eigenvalues --    1.49327   1.49558   1.50194   1.51413   1.51942
  Beta virt. eigenvalues --    1.53112   1.54668   1.55114   1.55839   1.56819
  Beta virt. eigenvalues --    1.58542   1.58719   1.60856   1.61324   1.63729
  Beta virt. eigenvalues --    1.64235   1.65755   1.66358   1.67296   1.68462
  Beta virt. eigenvalues --    1.69048   1.70331   1.71726   1.72235   1.72662
  Beta virt. eigenvalues --    1.73130   1.74972   1.76339   1.77078   1.77753
  Beta virt. eigenvalues --    1.78720   1.80211   1.81119   1.83878   1.85442
  Beta virt. eigenvalues --    1.87804   1.88396   1.89257   1.90779   1.92132
  Beta virt. eigenvalues --    1.92976   1.93254   1.93793   1.94134   1.95028
  Beta virt. eigenvalues --    1.95594   1.97432   1.98307   1.99379   2.00182
  Beta virt. eigenvalues --    2.02258   2.02652   2.05542   2.06649   2.08868
  Beta virt. eigenvalues --    2.09392   2.09887   2.13005   2.13333   2.14236
  Beta virt. eigenvalues --    2.15213   2.19329   2.19758   2.23738   2.25743
  Beta virt. eigenvalues --    2.26714   2.28045   2.31111   2.32127   2.35793
  Beta virt. eigenvalues --    2.36220   2.37902   2.40424   2.40921   2.42414
  Beta virt. eigenvalues --    2.44105   2.46644   2.46875   2.47355   2.50326
  Beta virt. eigenvalues --    2.53731   2.56309   2.57917   2.60221   2.61189
  Beta virt. eigenvalues --    2.61282   2.64724   2.64987   2.65726   2.66766
  Beta virt. eigenvalues --    2.70112   2.70259   2.70548   2.72394   2.73055
  Beta virt. eigenvalues --    2.73669   2.74358   2.75119   2.76238   2.76389
  Beta virt. eigenvalues --    2.77170   2.78472   2.79060   2.79224   2.80471
  Beta virt. eigenvalues --    2.81281   2.82985   2.84339   2.85528   2.85852
  Beta virt. eigenvalues --    2.86921   2.88235   2.89680   2.90558   2.91656
  Beta virt. eigenvalues --    2.92886   2.94060   2.95761   2.96795   2.97316
  Beta virt. eigenvalues --    2.99624   3.03828   3.09592   3.11507   3.12766
  Beta virt. eigenvalues --    3.14061   3.19269   3.22422   3.23697   3.25299
  Beta virt. eigenvalues --    3.28162   3.28773   3.31595   3.33072   3.34804
  Beta virt. eigenvalues --    3.37643   3.40694   3.42144   3.46712   3.50161
  Beta virt. eigenvalues --    3.52076   3.54112   3.55021   3.57082   3.59857
  Beta virt. eigenvalues --    3.62734   3.65241   3.68260   3.70818   3.81386
  Beta virt. eigenvalues --    3.82777   3.83582   3.87606   3.92211   4.00884
  Beta virt. eigenvalues --    4.06406   4.09490   4.17659   4.19983   4.22237
  Beta virt. eigenvalues --    4.24986   4.28525   4.35161   4.50079   4.80021
  Beta virt. eigenvalues --    4.85160   4.87790   5.05146   5.06376   5.24260
  Beta virt. eigenvalues --    5.26706   5.71991   5.79879  23.49929  23.65969
  Beta virt. eigenvalues --   23.86710  23.91010  23.91445  23.93752  23.95829
  Beta virt. eigenvalues --   23.97465  23.98956  23.99592  24.10565  24.12478
  Beta virt. eigenvalues --   24.13322  24.14683  24.22207  24.23504  50.01090
  Beta virt. eigenvalues --   50.05924
          Condensed to atoms (all electrons):
               1          2          3          4          5          6
     1  C    5.379856   0.170773  -0.117386  -0.021277   0.088683  -0.006811
     2  C    0.170773   8.096973  -0.673424  -0.888114   0.693753  -0.835561
     3  C   -0.117386  -0.673424  13.362621  -1.758001   0.056225  -0.327908
     4  C   -0.021277  -0.888114  -1.758001  12.731135  -0.999480  -1.731981
     5  C    0.088683   0.693753   0.056225  -0.999480  10.373906   2.824569
     6  C   -0.006811  -0.835561  -0.327908  -1.731981   2.824569  17.996168
     7  C   -0.013448  -0.427184  -1.982251   2.262175  -3.259537  -0.290149
     8  O   -0.000074  -0.003273  -0.037713   0.137392   0.164300  -0.250682
     9  C   -0.002960  -0.217340  -1.402309   1.155687  -1.521949  -1.479490
    10  C    0.001210   0.002733  -0.082200  -0.065700   0.231820   0.714055
    11  C    0.000024  -0.000482  -0.018241  -0.008360  -0.067302   0.022653
    12  C   -0.000477  -0.009014  -0.067257   0.036711  -0.050494  -0.324715
    13  C    0.000675  -0.003712  -0.124850  -0.148299  -0.155975  -1.134465
    14  C    0.001610  -0.008785   0.294350   0.189999  -2.843609  -7.681182
    15  C    0.017332  -0.063087   0.414086  -0.237202  -0.520803   2.088901
    16  O    0.001334   0.018907   0.163749  -0.001219  -0.038135  -0.380840
    17  C   -0.021975  -0.446743  -2.597516  -1.849442  -0.502114  -1.280156
    18  C    0.100850   0.133953   0.717211  -2.819841   1.190946  -2.358158
    19  H    0.400241   0.004418  -0.040512   0.032155  -0.000842  -0.017759
    20  H    0.405255  -0.035212  -0.006597  -0.024894   0.001359  -0.004690
    21  H    0.386434   0.007228  -0.014234   0.034193  -0.003701   0.007049
    22  H   -0.070470   0.447667  -0.159522   0.096494   0.058006   0.001854
    23  H   -0.052555   0.438008  -0.067204  -0.049097  -0.034217  -0.011381
    24  H    0.001633  -0.050900  -0.003481   0.474055  -0.179207  -0.040227
    25  H    0.000432   0.010454  -0.033009  -0.207611   0.398832   0.110888
    26  H   -0.000008  -0.000544  -0.004049   0.002744  -0.020734  -0.060903
    27  H    0.000000   0.000030   0.000444  -0.000664   0.001577   0.016251
    28  H   -0.000004  -0.000076  -0.001020   0.000799  -0.000799  -0.013252
    29  H    0.000040  -0.000403  -0.004574  -0.003365   0.000673   0.024053
    30  H   -0.003086  -0.133499  -0.236733   0.122842   0.019068   0.190472
               7          8          9         10         11         12
     1  C   -0.013448  -0.000074  -0.002960   0.001210   0.000024  -0.000477
     2  C   -0.427184  -0.003273  -0.217340   0.002733  -0.000482  -0.009014
     3  C   -1.982251  -0.037713  -1.402309  -0.082200  -0.018241  -0.067257
     4  C    2.262175   0.137392   1.155687  -0.065700  -0.008360   0.036711
     5  C   -3.259537   0.164300  -1.521949   0.231820  -0.067302  -0.050494
     6  C   -0.290149  -0.250682  -1.479490   0.714055   0.022653  -0.324715
     7  C   14.209408   0.917961  -0.307434  -1.431583   0.051271  -0.455251
     8  O    0.917961   8.146753  -0.298304   0.261330   0.075358  -0.009161
     9  C   -0.307434  -0.298304  21.089492   0.712876  -0.603874   0.207815
    10  C   -1.431583   0.261330   0.712876   9.353345   0.320683  -0.581502
    11  C    0.051271   0.075358  -0.603874   0.320683   6.928538   0.411336
    12  C   -0.455251  -0.009161   0.207815  -0.581502   0.411336   7.318604
    13  C   -1.209029  -0.019849  -2.447550   2.217971  -0.595629  -0.425548
    14  C   -0.975264  -0.416967  -0.986571  -2.861133  -0.033362  -0.781327
    15  C    1.318418   0.004998   1.376444  -0.965256  -0.032833   0.599598
    16  O   -0.033732   0.000009  -0.432313  -0.035228  -0.003655   0.088458
    17  C   -0.150451  -0.362720  -6.596186  -1.890158  -0.291039   0.243155
    18  C   -1.460553  -0.044240  -2.526181  -0.330345  -0.057003  -0.107359
    19  H   -0.000547  -0.000011  -0.001951   0.000072  -0.000026  -0.000141
    20  H   -0.000128  -0.000002  -0.000178   0.000026   0.000002  -0.000016
    21  H    0.000147  -0.000001   0.000078  -0.000073  -0.000001   0.000006
    22  H   -0.005907  -0.000079  -0.002807  -0.000101   0.000042  -0.000105
    23  H    0.000935   0.000035   0.000452  -0.000111  -0.000058  -0.000224
    24  H    0.059588   0.004348   0.033789   0.000646  -0.000372   0.000722
    25  H    0.067848  -0.017223  -0.073005  -0.006664   0.001681  -0.001025
    26  H    0.021563  -0.012865   0.057839   0.375954  -0.170522  -0.007077
    27  H    0.036781   0.002354   0.016252  -0.099852   0.466717  -0.040007
    28  H   -0.024855  -0.000327  -0.010312  -0.011777  -0.046853   0.478090
    29  H    0.005505   0.000439   0.091738   0.043522   0.005473  -0.150131
    30  H    0.065333   0.000209   0.051776  -0.005313   0.002224   0.009168
              13         14         15         16         17         18
     1  C    0.000675   0.001610   0.017332   0.001334  -0.021975   0.100850
     2  C   -0.003712  -0.008785  -0.063087   0.018907  -0.446743   0.133953
     3  C   -0.124850   0.294350   0.414086   0.163749  -2.597516   0.717211
     4  C   -0.148299   0.189999  -0.237202  -0.001219  -1.849442  -2.819841
     5  C   -0.155975  -2.843609  -0.520803  -0.038135  -0.502114   1.190946
     6  C   -1.134465  -7.681182   2.088901  -0.380840  -1.280156  -2.358158
     7  C   -1.209029  -0.975264   1.318418  -0.033732  -0.150451  -1.460553
     8  O   -0.019849  -0.416967   0.004998   0.000009  -0.362720  -0.044240
     9  C   -2.447550  -0.986571   1.376444  -0.432313  -6.596186  -2.526181
    10  C    2.217971  -2.861133  -0.965256  -0.035228  -1.890158  -0.330345
    11  C   -0.595629  -0.033362  -0.032833  -0.003655  -0.291039  -0.057003
    12  C   -0.425548  -0.781327   0.599598   0.088458   0.243155  -0.107359
    13  C   10.548143   0.100703  -1.986763   0.195737   0.769445  -0.009658
    14  C    0.100703  20.953902  -1.628174  -0.162995   1.465527   0.882760
    15  C   -1.986763  -1.628174   8.809351   0.615999  -1.514904  -1.659958
    16  O    0.195737  -0.162995   0.615999   8.140744  -0.218902   0.343967
    17  C    0.769445   1.465527  -1.514904  -0.218902  17.695987   2.988620
    18  C   -0.009658   0.882760  -1.659958   0.343967   2.988620  10.990725
    19  H    0.000253   0.004072  -0.002747   0.000245  -0.012871  -0.010176
    20  H   -0.000125  -0.000315  -0.001680   0.000055   0.002709   0.024760
    21  H    0.000031   0.000040   0.001943   0.000002  -0.006060  -0.042797
    22  H   -0.000341   0.001968   0.005519   0.000340  -0.034367  -0.039669
    23  H    0.000160   0.009119   0.004231   0.001764   0.021494   0.058587
    24  H    0.000889   0.004080  -0.012286  -0.000342   0.011058   0.007954
    25  H   -0.002686  -0.013970   0.010948   0.000210   0.058022   0.025259
    26  H    0.040424   0.108254  -0.005751   0.000465   0.009161  -0.001009
    27  H   -0.028188  -0.026988  -0.003899  -0.000225  -0.005292   0.000461
    28  H   -0.113967   0.041867   0.011826   0.002595   0.009209   0.000057
    29  H    0.393813  -0.015088   0.019033  -0.012082  -0.041477  -0.017707
    30  H   -0.027561  -0.077942   0.076441  -0.021597   0.083404   0.170381
              19         20         21         22         23         24
     1  C    0.400241   0.405255   0.386434  -0.070470  -0.052555   0.001633
     2  C    0.004418  -0.035212   0.007228   0.447667   0.438008  -0.050900
     3  C   -0.040512  -0.006597  -0.014234  -0.159522  -0.067204  -0.003481
     4  C    0.032155  -0.024894   0.034193   0.096494  -0.049097   0.474055
     5  C   -0.000842   0.001359  -0.003701   0.058006  -0.034217  -0.179207
     6  C   -0.017759  -0.004690   0.007049   0.001854  -0.011381  -0.040227
     7  C   -0.000547  -0.000128   0.000147  -0.005907   0.000935   0.059588
     8  O   -0.000011  -0.000002  -0.000001  -0.000079   0.000035   0.004348
     9  C   -0.001951  -0.000178   0.000078  -0.002807   0.000452   0.033789
    10  C    0.000072   0.000026  -0.000073  -0.000101  -0.000111   0.000646
    11  C   -0.000026   0.000002  -0.000001   0.000042  -0.000058  -0.000372
    12  C   -0.000141  -0.000016   0.000006  -0.000105  -0.000224   0.000722
    13  C    0.000253  -0.000125   0.000031  -0.000341   0.000160   0.000889
    14  C    0.004072  -0.000315   0.000040   0.001968   0.009119   0.004080
    15  C   -0.002747  -0.001680   0.001943   0.005519   0.004231  -0.012286
    16  O    0.000245   0.000055   0.000002   0.000340   0.001764  -0.000342
    17  C   -0.012871   0.002709  -0.006060  -0.034367   0.021494   0.011058
    18  C   -0.010176   0.024760  -0.042797  -0.039669   0.058587   0.007954
    19  H    0.553141  -0.025333  -0.034373   0.012258   0.001542   0.002247
    20  H   -0.025333   0.565540  -0.031298   0.002584  -0.013176  -0.000977
    21  H   -0.034373  -0.031298   0.559550  -0.021454   0.010356  -0.003321
    22  H    0.012258   0.002584  -0.021454   0.603305  -0.040691  -0.005149
    23  H    0.001542  -0.013176   0.010356  -0.040691   0.577031   0.004906
    24  H    0.002247  -0.000977  -0.003321  -0.005149   0.004906   0.546112
    25  H   -0.000229   0.000119   0.000032   0.001659  -0.000790  -0.018460
    26  H    0.000008  -0.000001  -0.000001  -0.000002   0.000009   0.000065
    27  H   -0.000000  -0.000000   0.000000   0.000001  -0.000001  -0.000015
    28  H    0.000000   0.000000  -0.000000  -0.000002   0.000002   0.000012
    29  H    0.000010  -0.000005   0.000002   0.000010   0.000012  -0.000030
    30  H   -0.003509  -0.001027  -0.001337   0.003844  -0.018731  -0.001635
              25         26         27         28         29         30
     1  C    0.000432  -0.000008   0.000000  -0.000004   0.000040  -0.003086
     2  C    0.010454  -0.000544   0.000030  -0.000076  -0.000403  -0.133499
     3  C   -0.033009  -0.004049   0.000444  -0.001020  -0.004574  -0.236733
     4  C   -0.207611   0.002744  -0.000664   0.000799  -0.003365   0.122842
     5  C    0.398832  -0.020734   0.001577  -0.000799   0.000673   0.019068
     6  C    0.110888  -0.060903   0.016251  -0.013252   0.024053   0.190472
     7  C    0.067848   0.021563   0.036781  -0.024855   0.005505   0.065333
     8  O   -0.017223  -0.012865   0.002354  -0.000327   0.000439   0.000209
     9  C   -0.073005   0.057839   0.016252  -0.010312   0.091738   0.051776
    10  C   -0.006664   0.375954  -0.099852  -0.011777   0.043522  -0.005313
    11  C    0.001681  -0.170522   0.466717  -0.046853   0.005473   0.002224
    12  C   -0.001025  -0.007077  -0.040007   0.478090  -0.150131   0.009168
    13  C   -0.002686   0.040424  -0.028188  -0.113967   0.393813  -0.027561
    14  C   -0.013970   0.108254  -0.026988   0.041867  -0.015088  -0.077942
    15  C    0.010948  -0.005751  -0.003899   0.011826   0.019033   0.076441
    16  O    0.000210   0.000465  -0.000225   0.002595  -0.012082  -0.021597
    17  C    0.058022   0.009161  -0.005292   0.009209  -0.041477   0.083404
    18  C    0.025259  -0.001009   0.000461   0.000057  -0.017707   0.170381
    19  H   -0.000229   0.000008  -0.000000   0.000000   0.000010  -0.003509
    20  H    0.000119  -0.000001  -0.000000   0.000000  -0.000005  -0.001027
    21  H    0.000032  -0.000001   0.000000  -0.000000   0.000002  -0.001337
    22  H    0.001659  -0.000002   0.000001  -0.000002   0.000010   0.003844
    23  H   -0.000790   0.000009  -0.000001   0.000002   0.000012  -0.018731
    24  H   -0.018460   0.000065  -0.000015   0.000012  -0.000030  -0.001635
    25  H    0.490132  -0.000153   0.000014  -0.000050  -0.000045   0.002691
    26  H   -0.000153   0.489342  -0.013874   0.000612   0.001106  -0.000112
    27  H    0.000014  -0.013874   0.520991  -0.017069   0.000952   0.000001
    28  H   -0.000050   0.000612  -0.017069   0.534551  -0.015583  -0.000091
    29  H   -0.000045   0.001106   0.000952  -0.015583   0.485591  -0.000055
    30  H    0.002691  -0.000112   0.000001  -0.000091  -0.000055   0.544684
          Atomic-Atomic Spin Densities.
               1          2          3          4          5          6
     1  C    0.000000  -0.000000   0.000000   0.000000  -0.000000   0.000000
     2  C   -0.000000  -0.000000  -0.000000   0.000000  -0.000000   0.000000
     3  C    0.000000  -0.000000  -0.000000  -0.000000  -0.000000   0.000000
     4  C    0.000000   0.000000  -0.000000  -0.000000   0.000000   0.000000
     5  C   -0.000000  -0.000000  -0.000000   0.000000  -0.000000  -0.000000
     6  C    0.000000   0.000000   0.000000   0.000000  -0.000000  -0.000000
     7  C    0.000000   0.000000   0.000000  -0.000000   0.000000   0.000000
     8  O   -0.000000  -0.000000  -0.000000   0.000000  -0.000000  -0.000000
     9  C    0.000000   0.000000   0.000000  -0.000000   0.000000   0.000000
    10  C   -0.000000  -0.000000  -0.000000   0.000000  -0.000000  -0.000000
    11  C    0.000000   0.000000   0.000000  -0.000000   0.000000   0.000000
    12  C    0.000000   0.000000   0.000000  -0.000000   0.000000  -0.000000
    13  C    0.000000  -0.000000  -0.000000   0.000000  -0.000000  -0.000000
[...]
 .00010961,-0.00003358,0.00002710,-0.00006907,-0.00006578,0.00001138,-0
 .00021832,-0.00104063,0.00005598,0.00060012,-0.00017827,0.00035479,0.0
 0025747,-0.13828814,0.17763276,-0.00033730,-0.00055185,0.00015555,-0.0
 0089015,0.00119110,-0.00279873,0.00448627,-0.00229324,0.00330488,0.043
 84016,-0.03938245,-0.05105884,0.00098412,-0.00151423,0.00370852,0.0010
 4396,-0.00080698,0.00730471,-0.00007311,-0.00021114,0.00020590,0.00005
 579,0.00005455,0.00011291,0.00000952,0.00005898,-0.00022838,-0.0000115
 2,0.00000171,-0.00013766,0.00000784,-0.00000123,0.00003233,-0.00000703
 ,0.00000613,-0.00005447,0.00001856,-0.00000838,0.00006723,0.00003528,-
 0.00002593,0.00016934,-0.00015989,0.00020392,-0.00122776,0.00005933,-0
 .00004662,0.00018799,-0.00019578,0.00017556,-0.00068640,0.00011471,-0.
 00153654,0.00624804,0.00000702,0.00007358,0.00000098,-0.00009209,0.000
 19490,-0.00019269,-0.00020961,0.00004234,-0.00026200,0.00020451,-0.000
 37653,-0.00005567,0.00025655,0.00019930,0.00009414,-0.04869032,0.04380
 291,0.03936991,-0.00007014,-0.00006476,0.00010164,0.00028938,-0.001135
 26,-0.00014849,-0.00480717,-0.00113754,0.00126037,-0.00120320,-0.02865
 386,-0.00417847,-0.06909356,-0.05548721,-0.00566609,0.01028378,0.02275
 670,0.00303273,0.00013177,0.00213938,-0.00015790,-0.00064456,-0.001630
 73,-0.00021530,0.00037010,-0.00045257,-0.00008467,-0.00000076,-0.00013
 972,-0.00002377,-0.00007461,0.00001642,0.00001311,-0.00005752,-0.00012
 740,-0.00001619,0.00013921,-0.00015134,-0.00004003,-0.00010797,0.00009
 639,0.00003015,0.00172489,0.00064739,-0.00000455,-0.00064801,0.0006791
 7,0.00013150,-0.00407641,0.00257589,0.00173704,-0.00110391,0.00036203,
 0.00007946,0.00000425,0.00000293,-0.00000999,-0.00002697,0.00001469,-0
 .00005816,-0.00000503,0.00002811,-0.00004227,0.00001276,0.00004327,0.0
 0002881,-0.00034061,-0.00016074,-0.00001128,0.00099496,0.00053188,-0.0
 0057258,0.06828471,-0.00001880,-0.00001840,0.00003688,0.00026884,-0.00
 024422,0.00001881,-0.00132410,0.00148050,-0.00093056,0.00059281,-0.003
 69981,-0.00145813,-0.05457560,-0.32223748,-0.04104485,-0.00344969,-0.0
 1634965,-0.00298256,-0.00166018,-0.00267160,0.00042778,-0.00184230,0.0
 0202541,0.00058862,0.00010666,-0.00000024,-0.00004660,-0.00001891,-0.0
 0000755,0.00000172,0.00004039,0.00001219,-0.00000449,0.00002377,0.0000
 3639,0.00000603,-0.00005152,0.00005657,0.00001388,0.00013215,-0.000029
 68,-0.00001831,-0.00100769,-0.00018882,-0.00005883,0.00030915,-0.00049
 170,-0.00003646,0.00329074,-0.00013490,-0.00153259,0.00013102,0.000588
 04,0.00026539,0.00000438,-0.00000107,-0.00000453,-0.00001125,0.0000068
 4,-0.00001703,-0.00000090,0.00001331,-0.00000906,-0.00001852,0.0000001
 8,0.00000645,-0.00009367,-0.00003084,-0.00000292,-0.00008772,0.0005953
 9,0.00083342,0.05928727,0.34136596,-0.00009565,-0.00009907,0.00001189,
 -0.00021300,0.00023244,-0.00017762,0.00148088,-0.00063677,0.00742645,0
 .00084715,0.00201487,0.00479136,-0.00547522,-0.04103019,-0.04619266,-0
 .00145658,-0.00614297,0.00296110,-0.00081761,-0.00007520,-0.00381519,-
 0.00024615,0.00060447,-0.00002694,0.00000025,0.00001838,0.00023985,-0.
 00000016,0.00001639,0.00001074,0.00001452,0.00000206,-0.00000431,0.000
 00767,0.00002180,-0.00000804,-0.00002127,0.00002721,0.00001730,0.00003
 026,-0.00001049,-0.00004266,-0.00029379,-0.00025527,0.00092876,0.00007
 616,-0.00010522,-0.00051672,0.00184275,-0.00150323,0.00601645,0.000141
 55,0.00022905,-0.00104234,-0.00000251,-0.00001396,-0.00001048,0.000016
 51,-0.00002069,-0.00004003,-0.00001332,-0.00000883,0.00001968,0.000052
 02,0.00000519,-0.00003981,0.00001207,0.00000850,-0.00008576,-0.0007099
 0,0.00078134,-0.00408223,0.00490979,0.04583522,0.03435088,0.00001464,0
 .00000637,-0.00003127,0.00000395,0.00000819,0.00004098,-0.00007838,0.0
 0013027,0.00001573,-0.00005961,0.00005461,0.00001696,0.00001689,0.0001
 1970,0.00002301,0.00051315,0.00031986,0.00001646,-0.00052601,-0.002953
 82,-0.00090880,0.00098679,0.00213873,0.00020038,-0.00042069,-0.0295901
 6,-0.00430461,-0.06722637,-0.04995826,-0.00480489,0.00845908,0.0238229
 8,0.00339599,-0.00321819,0.00270790,0.00176556,-0.00103370,0.00029791,
 0.00004237,-0.00574300,-0.00076780,0.00141084,0.00159974,-0.00135595,-
 0.00030601,-0.00098329,-0.00049435,-0.00001889,-0.00021606,-0.00006887
 ,0.00001377,0.00025095,0.00009260,-0.00001834,-0.00000549,-0.00000049,
 0.00000108,0.00001498,0.00000168,0.00000983,-0.00000374,-0.00000150,0.
 00000094,0.00000614,0.00000363,-0.00000461,0.00001280,0.00000579,-0.00
 000477,0.00001803,-0.00000291,-0.00000346,-0.00008651,0.00002173,0.000
 01924,0.06646911,-0.00000448,-0.00000250,0.00000817,0.00000204,0.00000
 423,-0.00000836,0.00001203,-0.00000780,0.00000266,-0.00000896,0.000013
 88,0.00000428,-0.00000034,-0.00005668,-0.00001512,-0.00029287,-0.00007
 323,-0.00001335,0.00090598,-0.00224789,0.00017091,0.00242246,0.0005407
 2,-0.00017756,-0.00346785,-0.00685194,-0.00132189,-0.05085412,-0.32481
 860,-0.04029019,-0.00537440,-0.01202222,-0.00202219,0.00284414,-0.0001
 0839,-0.00159505,0.00047941,0.00050210,0.00020035,-0.00145927,0.001404
 69,-0.00068412,0.00031530,-0.00006002,-0.00020044,-0.00012887,-0.00019
 487,0.00006376,-0.00007182,0.00003787,0.00001841,-0.00001289,0.0000037
 8,0.00000347,0.00000226,0.00000006,0.00000052,-0.00000624,-0.00000115,
 -0.00000331,0.00000156,0.00000081,0.00000031,-0.00000502,0.00000027,0.
 00000082,-0.00000266,-0.00000302,-0.00000002,-0.00001086,0.00000074,0.
 00000239,0.00001803,0.00002381,-0.00000475,0.05481648,0.34389706,-0.00
 000499,-0.00000341,0.00000844,0.00000168,0.00000013,-0.00001113,0.0000
 1239,-0.00001840,-0.00000208,0.00000364,-0.00000273,-0.00001533,0.0000
 0180,-0.00002877,0.00003186,-0.00008381,-0.00008864,0.00022049,-0.0002
 7857,0.00064641,-0.00383832,0.00025055,-0.00013812,-0.00026044,-0.0000
 4247,0.00190299,0.00417399,-0.00494602,-0.04040360,-0.04596549,-0.0013
 7816,-0.00562859,0.00366242,0.00178748,-0.00157636,0.00701157,0.000072
 42,0.00022192,-0.00105567,0.00130056,-0.00076747,0.00640429,-0.0000326
 7,0.00000484,0.00093175,0.00004045,0.00010939,-0.00047351,0.00001130,0
 .00001816,-0.00002101,-0.00003470,-0.00000862,-0.00000938,0.00000123,-
 0.00000220,-0.00000064,-0.00000314,-0.00000023,-0.00000348,0.00000013,
 0.00000294,0.00000071,0.00000012,0.00000037,0.00000045,-0.00000211,0.0
 0000058,0.00000062,-0.00000472,0.00000131,-0.00000323,0.00001903,-0.00
 000566,0.00003730,0.00411852,0.04499734,0.03411246,-0.00000890,-0.0000
 0722,0.00001801,0.00000266,0.00000467,-0.00002036,0.00003244,-0.000011
 45,-0.00000578,-0.00002790,0.00002004,0.00001051,-0.00009077,-0.000126
 36,-0.00002963,-0.00027348,0.00036429,0.00007056,-0.00041487,-0.001485
 82,-0.00017133,0.00006792,0.00044090,0.00007807,-0.00151113,0.00373685
 ,0.00170895,-0.01728882,-0.00981112,0.00105866,-0.30365191,-0.08766139
 ,0.01841297,-0.00154746,0.00055691,0.00075473,0.00180704,-0.00103126,0
 .00049230,0.00054655,0.00064286,-0.00005384,-0.00005439,0.00004443,-0.
 00015861,-0.00005934,-0.00007262,0.00002184,0.00003656,0.00005428,0.00
 003221,-0.00005794,0.00001144,0.00001612,0.00000434,0.00000030,0.00000
 075,-0.00001265,-0.00000275,-0.00000684,0.00000335,0.00000274,0.000000
 48,-0.00000836,0.00000039,0.00000257,-0.00000561,-0.00000498,0.0000004
 6,-0.00002411,-0.00000197,0.00000799,0.00001857,0.00000343,-0.00000171
 ,0.00086481,0.00021189,-0.00059220,0.32120137,0.00000149,0.00000064,-0
 .00000235,0.00000009,0.00000255,0.00000364,0.00000769,-0.00001766,0.00
 000140,0.00002878,-0.00000301,-0.00000694,0.00005313,0.00008613,0.0000
 3145,0.00023345,-0.00032426,-0.00005230,0.00089171,0.00094229,0.000017
 78,-0.00019783,-0.00013368,-0.00001639,0.00315302,-0.00198928,-0.00191
 987,0.02045096,0.01064721,-0.00148024,-0.08766928,-0.08996453,0.002466
 75,-0.02985495,-0.00503612,0.00224536,-0.00051324,-0.00548102,-0.00200
 516,0.00067793,-0.00107934,-0.00013888,0.00006452,-0.00023630,0.000181
 90,-0.00019213,0.00020836,0.00002324,-0.00010020,-0.00001893,-0.000028
 20,-0.00001415,0.00003481,-0.00000007,0.00000043,0.00000054,0.00000103
 ,-0.00000016,-0.00000005,0.00000067,-0.00000021,-0.00000018,-0.0000003
 0,-0.00000119,0.00000149,0.00000040,0.00000208,0.00000061,-0.00000100,
 0.00001146,0.00000595,-0.00000690,-0.00000496,-0.00000192,0.00000075,-
 0.00046342,0.00069281,0.00085760,0.09420329,0.09100049,0.00000176,0.00
 000068,-0.00000166,-0.00000040,-0.00000071,0.00000066,-0.00000954,0.00
 000854,-0.00004532,0.00001260,-0.00000710,0.00002432,0.00000105,0.0000
 5523,-0.00014175,0.00004943,-0.00006605,-0.00020884,0.00021725,0.00030
 871,0.00019918,-0.00002646,-0.00009485,0.00010204,0.00161417,-0.001992
 28,0.00685484,0.00600079,0.00225978,0.00386018,0.01841348,0.00246690,-
 0.04063325,-0.00421568,-0.00151761,0.00409412,0.00057717,-0.00193685,0
 .00676823,-0.00004746,-0.00013581,-0.00075932,-0.00015566,0.00018356,-
 0.00134154,0.00000281,0.00000816,0.00021287,0.00000670,-0.00004595,0.0
 0021416,0.00001008,-0.00000535,0.00005211,-0.00000045,-0.00000139,-0.0
 0000043,0.00000142,0.00000036,0.00000074,-0.00000074,0.00000123,-0.000
 00013,0.00000192,-0.00000222,-0.00000040,0.00000045,0.00000170,-0.0000
 0018,0.00001061,-0.00000546,0.00003686,-0.00000335,-0.00000028,-0.0000
 0197,-0.00070253,0.00077557,-0.00399316,-0.02110674,-0.00099954,0.0283
 1702,-0.00000638,-0.00000501,0.00001244,0.00000099,0.00002365,-0.00000
 085,-0.00001964,-0.00002122,0.00000397,-0.00001056,0.00001030,-0.00000
 141,-0.00001845,0.00001422,0.00000908,0.00003031,-0.00007319,0.0000143
 9,-0.00009675,-0.00004412,-0.00016883,0.00007145,0.00012378,0.00003743
 ,-0.00015215,-0.00100042,-0.00023566,0.00118266,-0.00200484,0.00041043
 ,0.00840353,-0.00594850,-0.00154082,-0.21263493,0.13107750,0.04290326,
 -0.01728876,0.02048592,0.00599997,-0.00419388,-0.00332777,0.00088980,-
 0.00001790,0.00187311,0.00032961,-0.00005257,-0.00048513,-0.00005790,-
 0.00048413,-0.00031642,-0.00001559,-0.00005284,0.00019351,0.00001791,0
 .00000474,0.00000045,0.00000059,-0.00001118,-0.00000242,-0.00000512,0.
 00000277,0.00000146,0.00000051,-0.00001424,0.00000063,0.00000103,-0.00
 000157,-0.00000508,-0.00000085,-0.00000618,0.00000586,0.00000193,-0.00
 000872,0.00000807,0.00000273,0.00024423,-0.00033067,-0.00009920,0.0006
 2173,0.00052738,-0.00044599,0.22348370,0.00000083,0.00000154,-0.000005
 55,-0.00000416,0.00000322,0.00000210,-0.00003446,0.00001326,-0.0000009
 6,-0.00000958,-0.00001268,0.00000698,0.00003513,0.00002362,-0.00000921
 ,0.00007411,-0.00001921,-0.00005194,-0.00007331,-0.00019694,0.00020851
 ,0.00024527,0.00009276,-0.00004974,-0.00103789,-0.00045999,0.00017439,
 -0.00253096,-0.00492299,-0.00166212,0.02447246,-0.01394276,-0.00592275
 ,0.13108648,-0.17136889,-0.03786674,-0.00978388,0.01062806,0.00226296,
 -0.00273437,0.00041921,-0.00080101,-0.00050314,0.00057217,0.00012203,0
 .00015645,-0.00002335,-0.00004185,-0.00018457,-0.00012476,0.00003456,0
 .00001606,0.00003690,0.00003059,-0.00000151,-0.00000006,-0.00000068,0.
 00000460,0.00000105,0.00000179,-0.00000095,-0.00000119,0.00000005,0.00
 000255,-0.00000011,-0.00000090,0.00000236,0.00000135,0.00000013,0.0000
 0585,-0.00000128,-0.00000088,-0.00001231,0.00000201,0.00000230,0.00113
 962,-0.00056886,-0.00021428,-0.00023497,0.00086962,0.00077301,-0.14065
 428,0.17841282,0.00001073,0.00000485,-0.00000386,-0.00000077,-0.000005
 51,0.00004457,0.00000260,-0.00000052,0.00001544,-0.00000595,0.00000383
 ,-0.00003873,0.00001351,-0.00000551,0.00004142,0.00003748,-0.00003621,
 0.00023893,-0.00017429,0.00020558,-0.00135954,0.00005737,-0.00003549,0
 .00019898,-0.00023996,0.00016842,-0.00067650,0.00032368,-0.00172628,0.
 00683611,0.00343121,-0.00216655,0.00301992,0.04290231,-0.03786185,-0.0
 5020606,0.00105452,-0.00147701,0.00381624,0.00098634,-0.00072919,0.007
 15044,-0.00005688,-0.00016817,0.00017522,0.00004588,0.00003733,0.00011
 480,0.00000893,0.00005011,-0.00018913,-0.00001281,0.00000689,-0.000152
 98,-0.00000035,-0.00000169,-0.00000122,0.00000319,0.00000028,0.0000032
 7,-0.00000132,0.00000068,-0.00000045,-0.00000363,-0.00000439,-0.000001
 28,-0.00000137,0.00000126,0.,0.00000124,-0.00000046,-0.00000185,-0.000
 00124,-0.00000048,-0.00000210,0.00014094,-0.00003215,-0.00014386,-0.00
 057065,0.00067903,-0.00350182,-0.04739445,0.04229749,0.03864281,-0.000
 00129,0.00000382,0.00000262,-0.00001184,-0.00001220,-0.00000620,-0.000
 06495,0.00002289,0.00000841,-0.00005353,-0.00013445,-0.00001390,0.0001
 5148,-0.00015174,-0.00004336,-0.00012305,0.00009019,0.00002636,0.00174
 090,0.00064239,0.00000476,-0.00064721,0.00066588,0.00012859,-0.0040621
 8,0.00258117,0.00175444,-0.00108290,0.00036134,0.00005749,-0.00492931,
 -0.00125222,0.00133101,-0.00118553,-0.02859650,-0.00397513,-0.06994164
 ,-0.05738363,-0.00567136,0.01043776,0.02264900,0.00287677,0.00004666,0
 .00215778,-0.00014449,-0.00073276,-0.00160253,-0.00019637,0.00040648,-
 0.00045782,-0.00010115,-0.00002548,-0.00014871,-0.00001392,-0.00000393
 ,-0.00000112,-0.00000631,0.00000889,0.00000242,0.00000083,-0.00000130,
 -0.00000340,-0.00000062,0.00001145,-0.00000771,-0.00000114,-0.00000630
 ,0.00000130,0.00000671,-0.00000717,-0.00001270,-0.00000232,0.00004557,
 -0.00001988,-0.00000945,0.00007185,0.00000159,-0.00011136,-0.00016424,
 -0.00131116,-0.00020995,0.00100851,0.00056065,-0.00055413,0.06920289,0
 .00000496,0.00000087,-0.00000817,0.00000294,-0.00000202,0.00000767,0.0
 0002406,0.00000913,-0.00000110,0.00002672,0.00004122,0.00000273,-0.000
 05626,0.00005752,0.00001575,0.00014203,-0.00002801,-0.00001584,-0.0010
 4026,-0.00017953,-0.00005131,0.00031264,-0.00049413,-0.00004017,0.0032
 7726,-0.00008808,-0.00151811,0.00017156,0.00054461,0.00024576,-0.00139
 408,0.00140659,-0.00081976,0.00062749,-0.00340627,-0.00136083,-0.05648
 936,-0.32239430,-0.03913715,-0.00347366,-0.01656595,-0.00289312,-0.001
 67249,-0.00272370,0.00040935,-0.00192119,0.00205145,0.00060185,0.00009
 662,-0.00000433,-0.00004250,-0.00000685,-0.00000685,-0.00000837,-0.000
 00059,0.00000172,0.00000098,0.00000225,0.00000077,0.00000330,-0.000000
 71,-0.00000110,-0.00000029,0.00000231,0.00000142,-0.00000032,0.0000028
 9,0.00000135,-0.00000100,0.00000843,0.00000168,0.00000017,-0.00001970,
 -0.00000425,0.00000194,-0.00003015,-0.00009338,0.00012475,0.00016005,-
 0.00020660,-0.00003312,-0.00011428,0.00056476,0.00079404,0.06133514,0.
 34149011,-0.00000328,0.00000320,0.00000515,0.00000360,-0.00000178,-0.0
 0000270,0.00000779,0.00000562,-0.00003141,0.00001111,0.00001980,0.0000
 1184,-0.00002798,0.00002944,0.00000532,0.00003287,-0.00001092,-0.00003
 929,-0.00027000,-0.00025921,0.00091912,0.00007041,-0.00008348,-0.00051
 080,0.00186876,-0.00143208,0.00625777,0.00002666,0.00022264,-0.0010593
 9,0.00130686,-0.00083918,0.00719149,0.00079809,0.00225005,0.00471893,-
 0.00552692,-0.03902305,-0.04564796,-0.00138981,-0.00613258,0.00297249,
 -0.00075903,-0.00006560,-0.00386175,-0.00025630,0.00057349,-0.00006602
 ,-0.00001125,0.00002493,0.00019587,0.00000924,0.00000803,0.00005465,0.
 00000124,-0.00000335,-0.00000111,-0.00000096,-0.00000072,-0.00000201,-
 0.00000040,0.00000171,-0.00000071,0.00000148,0.,-0.00000105,0.00000228
 ,0.00000309,0.00000128,0.00000172,0.00000312,-0.00000480,-0.00000924,0
 .00000173,0.00000032,-0.00011680,0.00012087,-0.00080007,0.00003092,0.0
 0014885,-0.00010506,-0.00066446,0.00071149,-0.00401817,0.00484392,0.04
 372824,0.03378187,-0.00018591,0.00005291,0.00008823,0.00114792,0.00111
 047,-0.00089269,0.00742015,0.02263322,0.00333894,-0.00340804,0.0028208
 9,0.00173321,-0.00097071,0.00022646,0.00001385,-0.00572220,-0.00065797
 ,0.00145891,0.00160580,-0.00136895,-0.00026822,-0.00098740,-0.00048596
 ,-0.00003373,-0.00018073,-0.00004482,0.00000964,0.00020453,0.00009932,
 -0.00000762,-0.00000616,0.00014711,0.00002272,-0.00008544,0.00002383,0
 .00001149,0.00004980,0.00011619,0.00001636,0.00046152,0.00030732,0.000
 02669,-0.00054041,-0.00304447,-0.00092061,0.00093062,0.00216859,0.0001
 9993,-0.00060666,-0.02975937,-0.00437958,-0.06572244,-0.04663614,-0.00
 396055,-0.00007393,0.00003823,-0.00017838,0.00000284,-0.00002607,-0.00
 004504,0.00008276,-0.00008051,0.00004664,0.00019967,-0.00028217,-0.000
 00057,-0.00016331,-0.00034827,0.00034862,0.00034358,0.00120992,0.00011
 164,0.00005573,-0.00003966,-0.00009723,0.00005393,-0.00000183,-0.00000
 721,-0.00000543,0.00001547,0.00000325,0.00001621,-0.00000208,-0.000002
 16,-0.00008781,0.00002220,0.00001948,0.06617152,0.00039245,0.00005445,
 -0.00003302,-0.00133057,0.00056781,0.00093960,-0.00499752,-0.01363579,
 -0.00217869,0.00267654,-0.00023984,-0.00141835,0.00062233,0.00042774,0
 .00014396,-0.00157879,0.00154794,-0.00059979,0.00036805,-0.00007780,-0
 .00018199,-0.00015726,-0.00021662,0.00005626,-0.00009474,0.00004334,0.
 00002021,0.00000123,0.00000708,0.00000002,-0.00000986,-0.00000645,-0.0
 0000033,-0.00000637,0.00001768,0.00001023,-0.00000666,-0.00006439,-0.0
 0001853,-0.00030884,-0.00006466,-0.00000784,0.00098481,-0.00234912,0.0
 0010307,0.00247100,0.00063096,-0.00016478,-0.00361491,-0.00741183,-0.0
 0136743,-0.04751304,-0.32152493,-0.03891244,0.00015158,0.00001100,0.00
 021416,-0.00001608,0.00003831,0.00013166,-0.00008562,0.00006225,-0.000
 04390,-0.00023868,0.00032486,-0.00009671,0.00076303,0.00052695,-0.0002
 3020,-0.00023722,-0.00061371,-0.00007806,-0.00002145,-0.00009444,0.000
 10475,-0.00000037,-0.00001228,-0.00000164,-0.00000688,-0.00000060,0.00
 000113,-0.00001252,0.00000073,0.00000166,0.00002021,0.00002533,-0.0000
 0435,0.05178615,0.34202603,-0.00051144,0.00013929,0.00028295,-0.001086
 35,-0.00029930,-0.00338139,-0.00031695,-0.00552770,0.00390344,0.001658
 25,-0.00174425,0.00637510,0.00016671,0.00021257,-0.00102950,0.00130865
 ,-0.00070698,0.00654776,-0.00004459,-0.00000924,0.00102565,0.00004500,
 0.00012453,-0.00051277,0.00000050,0.00001634,-0.00003384,-0.00002130,-
 0.00001309,0.00000277,-0.00000300,-0.00001607,-0.00000494,0.00000475,0
 .00000082,-0.00002496,0.00000319,-0.00003270,0.00003488,-0.00007944,-0
 .00008936,0.00022174,-0.00028009,0.00066488,-0.00388219,0.00026027,-0.
 00014901,-0.00021827,-0.00019672,0.00185494,0.00380980,-0.00446783,-0.
 03859612,-0.04508386,-0.00012778,-0.00005497,-0.00017525,0.00000040,-0
 .00010424,-0.00023242,0.00000243,-0.00001671,-0.00004909,0.00032710,0.
 00013517,0.00002426,0.00025913,0.00069324,0.00000167,-0.00015200,-0.00
 020256,-0.00020461,-0.00010006,0.00011739,-0.00072322,-0.00000762,-0.0
 0000132,0.00000050,-0.00000042,-0.00000171,-0.00000248,-0.00000397,0.0
 0000020,-0.00000060,0.00001920,-0.00000537,0.00003618,0.00334398,0.043
 61133,0.03329270\\-0.00000119,0.00000080,0.00001549,-0.00001617,0.0000
 0156,-0.00000959,0.00001874,-0.00001076,-0.00000313,-0.00000076,0.0000
 0569,0.00000115,-0.00000637,0.00000266,0.00000027,-0.00000802,-0.00001
 196,-0.00000727,0.00001811,0.00000426,-0.00000005,-0.00000248,-0.00000
 236,0.00000021,0.00000122,0.00002630,0.00000160,-0.00001220,0.00000058
 ,0.00000023,0.00000311,-0.00001977,-0.00000459,0.00001773,0.00001594,0
 .00000025,-0.00002197,0.00000898,0.00000407,0.00001586,-0.00002587,-0.
 00000655,-0.00001332,-0.00000188,0.00000662,0.00000091,0.00000224,-0.0
 0000263,0.00001113,0.00000279,0.00000205,-0.00001270,0.00000547,0.0000
 0366,0.00000092,-0.00000122,-0.00000110,0.00000104,-0.00000130,-0.0000
 0074,0.00000212,-0.00000177,-0.00000260,0.00000245,-0.00000172,0.00000
 352,0.00000072,-0.00000029,0.00000297,0.00000059,0.00000033,-0.0000014
 3,0.00000195,0.00000015,-0.00000144,0.00000020,0.00000093,-0.00000132,
 -0.00000064,0.00000336,-0.00000085,-0.00000225,-0.00000163,-0.00000008
 ,0.00000034,-0.00000082,0.00000048,0.00000091,-0.00000072,0.00000080\\
 \@


 IT PROBABLY IS NOT POSSIBLE FOR A SCIENTIST TO INTERROGATE NATURE 
 FROM A WHOLLY DISINTERESTED VIEWPOINT.
 EVEN IF HE HAS NO PARTICULAR AXE TO GRIND, HE IS LIKELY TO HAVE 
 A DISTINCTIVE WAY OF VIEWING NATURE.

                                                   -- JOHN LOSEE
 Job cpu time:       0 days  7 hours 58 minutes 43.7 seconds.
 Elapsed time:       0 days  1 hours 36 minutes 20.4 seconds.
 File lengths (MBytes):  RWF=   1213 Int=      0 D2E=      0 Chk=     27 Scr=      1
 Normal termination of Gaussian 16 at Thu Dec 21 08:54:22 2023.
