 Entering Gaussian System, Link 0=g16
 Input=258-PCM.com
 Output=258-PCM.log
 Initial command:
 /sysapps/ubuntu-applications/gaussian/Gaussian/AVX2/g16/l1.exe "/scratch/selhajj1/4304433/Gau-3396289.inp" -scrdir="/scratch/selhajj1/4304433/"
 Entering Link 1 = /sysapps/ubuntu-applications/gaussian/Gaussian/AVX2/g16/l1.exe PID=   3396291.
  
 Copyright (c) 1988,1990,1992,1993,1995,1998,2003,2009,2016,
            Gaussian, Inc.  All Rights Reserved.
  
 This is part of the Gaussian(R) 16 program.  It is based on
 the Gaussian(R) 09 system (copyright 2009, Gaussian, Inc.),
 the Gaussian(R) 03 system (copyright 2003, Gaussian, Inc.),
 the Gaussian(R) 98 system (copyright 1998, Gaussian, Inc.),
 the Gaussian(R) 94 system (copyright 1995, Gaussian, Inc.),
 the Gaussian 92(TM) system (copyright 1992, Gaussian, Inc.),
 the Gaussian 90(TM) system (copyright 1990, Gaussian, Inc.),
 the Gaussian 88(TM) system (copyright 1988, Gaussian, Inc.),
 the Gaussian 86(TM) system (copyright 1986, Carnegie Mellon
 University), and the Gaussian 82(TM) system (copyright 1983,
 Carnegie Mellon University). Gaussian is a federally registered
 trademark of Gaussian, Inc.
  
 This software contains proprietary and confidential information,
 including trade secrets, belonging to Gaussian, Inc.
  
 This software is provided under written license and may be
 used, copied, transmitted, or stored only in accord with that
 written license.
  
 The following legend is applicable only to US Government
 contracts under FAR:
  
                    RESTRICTED RIGHTS LEGEND
  
 Use, reproduction and disclosure by the US Government is
 subject to restrictions as set forth in subparagraphs (a)
 and (c) of the Commercial Computer Software - Restricted
 Rights clause in FAR 52.227-19.
  
 Gaussian, Inc.
 340 Quinnipiac St., Bldg. 40, Wallingford CT 06492
  
  
 ---------------------------------------------------------------
 Warning -- This program may not be used in any manner that
 competes with the business of Gaussian, Inc. or will provide
 assistance to any competitor of Gaussian, Inc.  The licensee
 of this program is prohibited from giving any competitor of
 Gaussian, Inc. access to this program.  By using this program,
 the user acknowledges that Gaussian, Inc. is engaged in the
 business of creating and licensing software in the field of
 computational chemistry and represents and warrants to the
 licensee that it is not a competitor of Gaussian, Inc. and that
 it will not use this program in any manner prohibited above.
 ---------------------------------------------------------------
  

 Cite this work as:
 Gaussian 16, Revision A.03,
 M. J. Frisch, G. W. Trucks, H. B. Schlegel, G. E. Scuseria, 
 M. A. Robb, J. R. Cheeseman, G. Scalmani, V. Barone, 
 G. A. Petersson, H. Nakatsuji, X. Li, M. Caricato, A. V. Marenich, 
 J. Bloino, B. G. Janesko, R. Gomperts, B. Mennucci, H. P. Hratchian, 
 J. V. Ortiz, A. F. Izmaylov, J. L. Sonnenberg, D. Williams-Young, 
 F. Ding, F. Lipparini, F. Egidi, J. Goings, B. Peng, A. Petrone, 
 T. Henderson, D. Ranasinghe, V. G. Zakrzewski, J. Gao, N. Rega, 
 G. Zheng, W. Liang, M. Hada, M. Ehara, K. Toyota, R. Fukuda, 
 J. Hasegawa, M. Ishida, T. Nakajima, Y. Honda, O. Kitao, H. Nakai, 
 T. Vreven, K. Throssell, J. A. Montgomery, Jr., J. E. Peralta, 
 F. Ogliaro, M. J. Bearpark, J. J. Heyd, E. N. Brothers, K. N. Kudin, 
 V. N. Staroverov, T. A. Keith, R. Kobayashi, J. Normand, 
 K. Raghavachari, A. P. Rendell, J. C. Burant, S. S. Iyengar, 
 J. Tomasi, M. Cossi, J. M. Millam, M. Klene, C. Adamo, R. Cammi, 
 J. W. Ochterski, R. L. Martin, K. Morokuma, O. Farkas, 
 J. B. Foresman, and D. J. Fox, Gaussian, Inc., Wallingford CT, 2016.
 
 ******************************************
 Gaussian 16:  ES64L-G16RevA.03 25-Dec-2016
                21-Jan-2024 
 ******************************************
 %chk=258-PCM.chk
 %nproc=8
 Will use up to    8 processors via shared memory.
 %mem=30GB
 ----------------------------------------------------------------
 #P UB3LYP/6-311++G(d,p) SCRF=(PCM,Solvent=n,n-DiMethylFormamide)
 ----------------------------------------------------------------
 1/38=1,172=1/1;
 2/12=2,17=6,18=5,40=1/2;
 3/5=4,6=6,7=1111,11=2,25=1,30=1,70=2201,72=148,74=-5,116=2/1,2,3;
 4//1;
 5/5=2,38=5,53=148/2;
 6/7=2,8=2,9=2,10=2,28=1/1;
 99/5=1,9=1/99;
 Leave Link    1 at Sun Jan 21 08:00:54 2024, MaxMem=  4026531840 cpu:               0.7 elap:               0.1
 (Enter /sysapps/ubuntu-applications/gaussian/Gaussian/AVX2/g16/l101.exe)
 ------------------
 Quinone PCM in DMF
 ------------------
 Symbolic Z-matrix:
 Charge =  0 Multiplicity = 1
 C                     3.32347  -0.95811  -0.09745 
 O                     1.9236   -1.13753   0.09295 
 C                     1.08669  -0.09893  -0.08765 
 C                     1.53545   1.1768   -0.4622 
 C                     0.63603   2.2218   -0.63759 
 C                    -0.72473   2.02236  -0.44511 
 C                    -1.18766   0.76185  -0.07311 
 C                    -2.6655    0.60044   0.12201 
 O                    -3.43993   1.53065  -0.03727 
 C                    -3.16002  -0.73211   0.51707 
 C                    -2.32049  -1.75816   0.6932 
 C                    -0.84567  -1.65274   0.51127 
 O                    -0.16838  -2.65061   0.69544 
 C                    -0.30092  -0.32269   0.11351 
 H                     3.76683  -1.93047   0.10707 
 H                     3.55229  -0.66273  -1.12643 
 H                     3.73011  -0.21856   0.59979 
 H                     2.59006   1.35544  -0.61755 
 H                     1.00725   3.19842  -0.9272 
 H                    -1.44164   2.8221   -0.57623 
 H                    -4.23235  -0.82197   0.65239 
 H                    -2.66449  -2.74526   0.98309 
 
 ITRead=  0  0  0  0  0  0  0  0  0  0  0  0  0  0  0  0  0  0  0  0
 ITRead=  0  0
 MicOpt= -1 -1 -1 -1 -1 -1 -1 -1 -1 -1 -1 -1 -1 -1 -1 -1 -1 -1 -1 -1
 MicOpt= -1 -1
 NAtoms=     22 NQM=       22 NQMF=       0 NMMI=      0 NMMIF=      0
                NMic=       0 NMicF=      0.
                    Isotopes and Nuclear Properties:
 (Nuclear quadrupole moments (NQMom) in fm**2, nuclear magnetic moments (NMagM)
  in nuclear magnetons)

  Atom         1           2           3           4           5           6           7           8           9          10
 IAtWgt=          12          16          12          12          12          12          12          12          16          12
 AtmWgt=  12.0000000  15.9949146  12.0000000  12.0000000  12.0000000  12.0000000  12.0000000  12.0000000  15.9949146  12.0000000
 NucSpn=           0           0           0           0           0           0           0           0           0           0
 AtZEff=  -0.0000000  -0.0000000  -0.0000000  -0.0000000  -0.0000000  -0.0000000  -0.0000000  -0.0000000  -0.0000000  -0.0000000
 NQMom=    0.0000000   0.0000000   0.0000000   0.0000000   0.0000000   0.0000000   0.0000000   0.0000000   0.0000000   0.0000000
 NMagM=    0.0000000   0.0000000   0.0000000   0.0000000   0.0000000   0.0000000   0.0000000   0.0000000   0.0000000   0.0000000
 AtZNuc=   6.0000000   8.0000000   6.0000000   6.0000000   6.0000000   6.0000000   6.0000000   6.0000000   8.0000000   6.0000000

  Atom        11          12          13          14          15          16          17          18          19          20
 IAtWgt=          12          12          16          12           1           1           1           1           1           1
 AtmWgt=  12.0000000  12.0000000  15.9949146  12.0000000   1.0078250   1.0078250   1.0078250   1.0078250   1.0078250   1.0078250
 NucSpn=           0           0           0           0           1           1           1           1           1           1
 AtZEff=  -0.0000000  -0.0000000  -0.0000000  -0.0000000  -0.0000000  -0.0000000  -0.0000000  -0.0000000  -0.0000000  -0.0000000
 NQMom=    0.0000000   0.0000000   0.0000000   0.0000000   0.0000000   0.0000000   0.0000000   0.0000000   0.0000000   0.0000000
 NMagM=    0.0000000   0.0000000   0.0000000   0.0000000   2.7928460   2.7928460   2.7928460   2.7928460   2.7928460   2.7928460
 AtZNuc=   6.0000000   6.0000000   8.0000000   6.0000000   1.0000000   1.0000000   1.0000000   1.0000000   1.0000000   1.0000000

  Atom        21          22
 IAtWgt=           1           1
 AtmWgt=   1.0078250   1.0078250
 NucSpn=           1           1
 AtZEff=  -0.0000000  -0.0000000
 NQMom=    0.0000000   0.0000000
 NMagM=    2.7928460   2.7928460
 AtZNuc=   1.0000000   1.0000000
 Leave Link  101 at Sun Jan 21 08:00:54 2024, MaxMem=  4026531840 cpu:               1.7 elap:               0.2
 (Enter /sysapps/ubuntu-applications/gaussian/Gaussian/AVX2/g16/l202.exe)
                          Input orientation:                          
 ---------------------------------------------------------------------
 Center     Atomic      Atomic             Coordinates (Angstroms)
 Number     Number       Type             X           Y           Z
 ---------------------------------------------------------------------
      1          6           0        3.323469   -0.958107   -0.097450
      2          8           0        1.923598   -1.137532    0.092946
      3          6           0        1.086686   -0.098933   -0.087653
      4          6           0        1.535449    1.176798   -0.462195
      5          6           0        0.636026    2.221802   -0.637586
      6          6           0       -0.724729    2.022357   -0.445105
      7          6           0       -1.187656    0.761846   -0.073114
      8          6           0       -2.665501    0.600440    0.122008
      9          8           0       -3.439930    1.530653   -0.037270
     10          6           0       -3.160016   -0.732105    0.517069
     11          6           0       -2.320490   -1.758162    0.693203
     12          6           0       -0.845673   -1.652737    0.511272
     13          8           0       -0.168380   -2.650614    0.695441
     14          6           0       -0.300921   -0.322692    0.113514
     15          1           0        3.766832   -1.930468    0.107067
     16          1           0        3.552294   -0.662725   -1.126425
     17          1           0        3.730107   -0.218556    0.599788
     18          1           0        2.590062    1.355442   -0.617551
     19          1           0        1.007253    3.198420   -0.927198
     20          1           0       -1.441637    2.822101   -0.576233
     21          1           0       -4.232353   -0.821972    0.652385
     22          1           0       -2.664492   -2.745256    0.983088
 ---------------------------------------------------------------------
                    Distance matrix (angstroms):
                    1          2          3          4          5
     1  C    0.000000
     2  O    1.424108   0.000000
     3  C    2.396137   1.346004   0.000000
     4  C    2.808536   2.411424   1.403267   0.000000
     5  C    4.198323   3.671055   2.427207   1.389877   0.000000
     6  C    5.039041   4.157888   2.812271   2.413227   1.388698
     7  C    4.827948   3.648988   2.431827   2.781882   2.403314
     8  C    6.192333   4.907262   3.822563   4.280358   3.755779
     9  O    7.207018   5.991961   4.811272   5.006013   4.177497
    10  C    6.516463   5.117361   4.336020   5.162389   4.946588
    11  C    5.754954   4.331024   3.869318   4.981686   5.133430
    12  C    4.270222   2.847682   2.550888   3.824088   4.304342
    13  O    3.960589   2.651186   2.949492   4.346520   5.115121
    14  C    3.685710   2.369150   1.419855   2.439706   2.813622
    15  H    1.088064   2.006604   3.252018   3.867587   5.253361
    16  H    1.094715   2.089248   2.734252   2.809397   4.130869
    17  H    1.094729   2.089230   2.733964   2.809154   4.130349
    18  H    2.482116   2.676546   2.157809   1.080860   2.137578
    19  H    4.830120   4.547622   3.403481   2.140601   1.084190
    20  H    6.101266   5.239399   3.894043   3.403391   2.163517
    21  H    7.594158   6.189369   5.418728   6.205232   5.884700
    22  H    6.341699   4.942439   4.713899   5.925441   6.179941
                    6          7          8          9         10
     6  C    0.000000
     7  C    1.393401   0.000000
     8  C    2.471854   1.499383   0.000000
     9  O    2.789340   2.380144   1.220822   0.000000
    10  C    3.800456   2.543700   1.475227   2.346427   0.000000
    11  C    4.258465   2.867228   2.451183   3.550076   1.337393
    12  C    3.799421   2.507722   2.922346   4.143071   2.490739
    13  O    4.842213   3.643416   4.139298   5.359375   3.558424
    14  C    2.447636   1.413277   2.538402   3.648424   2.916316
    15  H    6.008647   5.641628   6.912353   7.996100   7.041690
    16  H    5.095762   5.060236   6.466463   7.408668   6.910933
    17  H    5.095003   5.059484   6.465511   7.407767   6.909730
    18  H    3.385610   3.862631   5.360776   6.060382   6.221625
    19  H    2.148325   3.388802   4.619465   4.832272   5.907712
    20  H    1.082008   2.135951   2.630810   2.439568   4.096403
    21  H    4.647378   3.507849   2.181646   2.576510   1.084570
    22  H    5.341587   3.949224   3.454727   4.463836   2.124969
                   11         12         13         14         15
    11  C    0.000000
    12  C    1.489731   0.000000
    13  O    2.329818   1.220001   0.000000
    14  C    2.544656   1.491303   2.403212   0.000000
    15  H    6.117903   4.638504   4.043598   4.373968   0.000000
    16  H    6.245048   4.796279   4.595031   4.062061   1.781769
    17  H    6.244104   4.796089   4.595896   4.061588   1.781787
    18  H    5.960380   4.704004   5.037999   3.421750   3.564697
    19  H    6.186055   5.388530   6.182740   3.897772   5.915275
    20  H    4.833494   4.643492   5.760985   3.415656   7.083923
    21  H    2.129164   3.489941   4.456642   3.999477   8.094016
    22  H    1.084770   2.173548   2.514413   3.494488   6.541653
                   16         17         18         19         20
    16  H    0.000000
    17  H    1.791289   0.000000
    18  H    2.292998   2.293270   0.000000
    19  H    4.628754   4.628320   2.449027   0.000000
    20  H    6.114415   6.113555   4.290384   2.502370   0.000000
    21  H    7.986880   7.985465   7.273185   6.790589   4.751512
    22  H    6.887337   6.886365   6.854787   7.242803   5.909511
                   21         22
    21  H    0.000000
    22  H    2.503313   0.000000
 Stoichiometry    C11H8O3
 Framework group  C1[X(C11H8O3)]
 Deg. of freedom    60
 Full point group                 C1      NOp   1
 Largest Abelian subgroup         C1      NOp   1
 Largest concise Abelian subgroup C1      NOp   1
                         Standard orientation:                         
 ---------------------------------------------------------------------
 Center     Atomic      Atomic             Coordinates (Angstroms)
 Number     Number       Type             X           Y           Z
 ---------------------------------------------------------------------
      1          6           0        3.767009   -0.341542    0.001316
      2          8           0        2.397242   -0.731186    0.000482
      3          6           0        1.435277    0.210275   -0.000044
      4          6           0        1.722339    1.583867   -0.000277
      5          6           0        0.697381    2.522598   -0.000444
      6          6           0       -0.631050    2.117933   -0.000317
      7          6           0       -0.934091    0.757884   -0.000190
      8          6           0       -2.383739    0.374906    0.000199
      9          8           0       -3.270028    1.214488   -0.000371
     10          6           0       -2.709288   -1.063951    0.001567
     11          6           0       -1.746225   -1.991922    0.001156
     12          6           0       -0.292500   -1.666375   -0.000684
     13          8           0        0.505800   -2.588934   -0.002587
     14          6           0        0.083200   -0.223172   -0.000250
     15          1           0        4.329297   -1.273055    0.001963
     16          1           0        4.019036    0.235306   -0.894300
     17          1           0        4.017765    0.235800    0.896988
     18          1           0        2.748895    1.922159   -0.000370
     19          1           0        0.944670    3.578210   -0.000638
     20          1           0       -1.443883    2.832106   -0.000315
     21          1           0       -3.764615   -1.314104    0.002557
     22          1           0       -1.965156   -3.054369    0.001739
 ---------------------------------------------------------------------
 Rotational constants (GHZ):           1.1381697           0.6360629           0.4091025
 Leave Link  202 at Sun Jan 21 08:00:54 2024, MaxMem=  4026531840 cpu:               0.5 elap:               0.1
 (Enter /sysapps/ubuntu-applications/gaussian/Gaussian/AVX2/g16/l301.exe)
 Standard basis: 6-311++G(d,p) (5D, 7F)
 Ernie: Thresh=  0.10000D-02 Tol=  0.10000D-05 Strict=F.
 There are   378 symmetry adapted cartesian basis functions of A   symmetry.
 There are   364 symmetry adapted basis functions of A   symmetry.
   364 basis functions,   576 primitive gaussians,   378 cartesian basis functions
    49 alpha electrons       49 beta electrons
       nuclear repulsion energy       834.7629510175 Hartrees.
 IExCor=  402 DFT=T Ex+Corr=B3LYP ExCW=0 ScaHFX=  0.200000
 ScaDFX=  0.800000  0.720000  1.000000  0.810000 ScalE2=  1.000000  1.000000
 IRadAn=      5 IRanWt=     -1 IRanGd=            0 ICorTp=0 IEmpDi=  4
 NAtoms=   22 NActive=   22 NUniq=   22 SFac= 1.00D+00 NAtFMM=   60 NAOKFM=F Big=F
 Integral buffers will be    131072 words long.
 Raffenetti 2 integral format.
 Two-electron integral symmetry is turned on.
 ------------------------------------------------------------------------------
 Polarizable Continuum Model (PCM)
 =================================
 Model                : PCM.
 Atomic radii         : UFF (Universal Force Field).
 Polarization charges : Total charges.
 Charge compensation  : None.
 Solution method      : On-the-fly selection.
 Cavity type          : Scaled VdW (van der Waals Surface) (Alpha=1.100).
 Cavity algorithm     : GePol (No added spheres)
                        Default sphere list used, NSphG=   22.
                        Lebedev-Laikov grids with approx.  5.0 points / Ang**2.
                        Smoothing algorithm: York/Karplus (Gamma=1.0000).
                        Polarization charges: spherical gaussians, with
                                              point-specific exponents (IZeta= 3).
                        Self-potential: point-specific (ISelfS= 7).
                        Self-field    : sphere-specific E.n sum rule (ISelfD= 2).
 Solvent              : n,n-DiMethylFormamide, Eps=  37.219000 Eps(inf)=   2.046330
 ------------------------------------------------------------------------------
 GePol: Number of generator spheres                  =      22
 GePol: Total number of spheres                      =      22
 GePol: Number of exposed spheres                    =      22 (100.00%)
 GePol: Number of points                             =    1877
 GePol: Average weight of points                     =       0.13
 GePol: Minimum weight of points                     =   0.85D-10
 GePol: Maximum weight of points                     =    0.20577
 GePol: Number of points with low weight             =     100
 GePol: Fraction of low-weight points (<1% of avg)   =       5.33%
 GePol: Cavity surface area                          =    236.817 Ang**2
 GePol: Cavity volume                                =    250.102 Ang**3
 Leave Link  301 at Sun Jan 21 08:00:54 2024, MaxMem=  4026531840 cpu:               1.0 elap:               0.2
 (Enter /sysapps/ubuntu-applications/gaussian/Gaussian/AVX2/g16/l302.exe)
 NPDir=0 NMtPBC=     1 NCelOv=     1 NCel=       1 NClECP=     1 NCelD=      1
         NCelK=      1 NCelE2=     1 NClLst=     1 CellRange=     0.0.
 One-electron integrals computed using PRISM.
 One-electron integral symmetry used in STVInt
 NBasis=   364 RedAO= T EigKep=  1.29D-06  NBF=   364
 NBsUse=   361 1.00D-06 EigRej=  8.70D-07 NBFU=   361
 Precomputing XC quadrature grid using
 IXCGrd= 4 IRadAn=           5 IRanWt=          -1 IRanGd=           0 AccXCQ= 0.00D+00.
 Generated NRdTot=       0 NPtTot=           0 NUsed=           0 NTot=          32
 NSgBfM=   378   378   378   378   378 MxSgAt=    22 MxSgA2=    22.
 Leave Link  302 at Sun Jan 21 08:00:55 2024, MaxMem=  4026531840 cpu:               2.6 elap:               0.4
 (Enter /sysapps/ubuntu-applications/gaussian/Gaussian/AVX2/g16/l303.exe)
 DipDrv:  MaxL=1.
 Leave Link  303 at Sun Jan 21 08:00:55 2024, MaxMem=  4026531840 cpu:               0.6 elap:               0.1
 (Enter /sysapps/ubuntu-applications/gaussian/Gaussian/AVX2/g16/l401.exe)
 ExpMin= 3.60D-02 ExpMax= 8.59D+03 ExpMxC= 1.30D+03 IAcc=3 IRadAn=         5 AccDes= 0.00D+00
 Harris functional with IExCor=  402 and IRadAn=       5 diagonalized for initial guess.
 HarFok:  IExCor=  402 AccDes= 0.00D+00 IRadAn=         5 IDoV= 1 UseB2=F ITyADJ=14
 ICtDFT=  3500011 ScaDFX=  1.000000  1.000000  1.000000  1.000000
 FoFCou: FMM=F IPFlag=           0 FMFlag=      100000 FMFlg1=           0
         NFxFlg=           0 DoJE=T BraDBF=F KetDBF=T FulRan=T
         wScrn=  0.000000 ICntrl=       500 IOpCl=  0 I1Cent=   200000004 NGrid=           0
         NMat0=    1 NMatS0=      1 NMatT0=    0 NMatD0=    1 NMtDS0=    0 NMtDT0=    0
 Petite list used in FoFCou.
 Harris En= -649.831057526100    
 JPrj=0 DoOrth=F DoCkMO=F.
 Initial guess <Sx>= 0.0000 <Sy>= 0.0000 <Sz>= 0.0000 <S**2>= 0.0000 S= 0.0000
 Leave Link  401 at Sun Jan 21 08:00:56 2024, MaxMem=  4026531840 cpu:              11.3 elap:               1.4
 (Enter /sysapps/ubuntu-applications/gaussian/Gaussian/AVX2/g16/l502.exe)
 Integral symmetry usage will be decided dynamically.
 UHF open shell SCF:
 Using DIIS extrapolation, IDIIS=  1040.
 NGot=  4026531840 LenX=  4026239438 LenY=  4026096113
 Requested convergence on RMS density matrix=1.00D-08 within 128 cycles.
 Requested convergence on MAX density matrix=1.00D-06.
 Requested convergence on             energy=1.00D-06.
 No special actions if energy rises.
 Fock matrices will be formed incrementally for  20 cycles.

 Cycle   1  Pass 1  IDiag  1:
 FoFJK:  IHMeth= 1 ICntrl=       0 DoSepK=F KAlg= 0 I1Cent=           0 FoldK=F
 IRaf= 900000000 NMat=       1 IRICut=       1 DoRegI=T DoRafI=F ISym2E= 0 IDoP0=0 IntGTp=1.
 FoFCou: FMM=F IPFlag=           0 FMFlag=      100000 FMFlg1=           0
         NFxFlg=           0 DoJE=F BraDBF=F KetDBF=F FulRan=T
         wScrn=  0.000000 ICntrl=         0 IOpCl=  1 I1Cent=           0 NGrid=           0
         NMat0=    1 NMatS0=      1 NMatT0=    0 NMatD0=    1 NMtDS0=    0 NMtDT0=    0
 Symmetry not used in FoFCou.
 Inv3:  Mode=1 IEnd=    10569387.
 Iteration    1 A*A^-1 deviation from unit magnitude is 3.11D-15 for    255.
 Iteration    1 A*A^-1 deviation from orthogonality  is 1.69D-15 for   1829    416.
 Iteration    1 A^-1*A deviation from unit magnitude is 3.00D-15 for    255.
 Iteration    1 A^-1*A deviation from orthogonality  is 2.00D-15 for   1791    439.
 E= -649.522253897469    
 DIIS: error= 3.20D-02 at cycle   1 NSaved=   1.
 NSaved= 1 IEnMin= 1 EnMin= -649.522253897469     IErMin= 1 ErrMin= 3.20D-02
 ErrMax= 3.20D-02  0.00D+00 EMaxC= 1.00D-01 BMatC= 1.53D+00 BMatP= 1.53D+00
 IDIUse=3 WtCom= 6.80D-01 WtEn= 3.20D-01
 Coeff-Com:  0.100D+01
 Coeff-En:   0.100D+01
 Coeff:      0.100D+01
 Gap=     0.117 Goal=   None    Shift=    0.000
 Gap=     0.117 Goal=   None    Shift=    0.000
 GapD=    0.117 DampG=1.000 DampE=0.500 DampFc=0.5000 IDamp=-1.
 Damping current iteration by 5.00D-01
 RMSDP=1.65D-02 MaxDP=1.09D+00              OVMax= 2.54D-01

 Cycle   2  Pass 1  IDiag  1:
 RMSU=  8.22D-03    CP:  9.92D-01
 E= -649.617660122258     Delta-E=       -0.095406224788 Rises=F Damp=T
 DIIS: error= 1.37D-02 at cycle   2 NSaved=   2.
 NSaved= 2 IEnMin= 2 EnMin= -649.617660122258     IErMin= 2 ErrMin= 1.37D-02
 ErrMax= 1.37D-02  0.00D+00 EMaxC= 1.00D-01 BMatC= 2.15D-01 BMatP= 1.53D+00
 IDIUse=3 WtCom= 8.63D-01 WtEn= 1.37D-01
 Coeff-Com:  0.173D+00 0.827D+00
 Coeff-En:   0.290D+00 0.710D+00
 Coeff:      0.189D+00 0.811D+00
 Gap=     0.156 Goal=   None    Shift=    0.000
 Gap=     0.156 Goal=   None    Shift=    0.000
 RMSDP=7.92D-03 MaxDP=5.31D-01 DE=-9.54D-02 OVMax= 2.57D-01

 Cycle   3  Pass 1  IDiag  1:
 RMSU=  6.74D-03    CP:  9.64D-01  5.40D-01
 E= -649.771463101186     Delta-E=       -0.153802978928 Rises=F Damp=F
 DIIS: error= 1.74D-02 at cycle   3 NSaved=   3.
 NSaved= 3 IEnMin= 3 EnMin= -649.771463101186     IErMin= 2 ErrMin= 1.37D-02
 ErrMax= 1.74D-02  0.00D+00 EMaxC= 1.00D-01 BMatC= 2.28D-01 BMatP= 2.15D-01
 IDIUse=3 WtCom= 8.26D-01 WtEn= 1.74D-01
 Coeff-Com:  0.528D-02 0.507D+00 0.488D+00
 Coeff-En:   0.000D+00 0.000D+00 0.100D+01
 Coeff:      0.436D-02 0.419D+00 0.577D+00
 Gap=     0.127 Goal=   None    Shift=    0.000
 Gap=     0.127 Goal=   None    Shift=    0.000
 RMSDP=4.08D-03 MaxDP=4.58D-01 DE=-1.54D-01 OVMax= 1.01D-01

 Cycle   4  Pass 1  IDiag  1:
 RMSU=  2.60D-03    CP:  9.95D-01  7.78D-01  7.65D-01
 E= -649.805056849893     Delta-E=       -0.033593748707 Rises=F Damp=F
 DIIS: error= 1.02D-02 at cycle   4 NSaved=   4.
 NSaved= 4 IEnMin= 4 EnMin= -649.805056849893     IErMin= 4 ErrMin= 1.02D-02
 ErrMax= 1.02D-02  0.00D+00 EMaxC= 1.00D-01 BMatC= 7.07D-02 BMatP= 2.15D-01
 IDIUse=3 WtCom= 8.98D-01 WtEn= 1.02D-01
 Coeff-Com:  0.193D-02 0.100D+00 0.368D+00 0.530D+00
 Coeff-En:   0.000D+00 0.000D+00 0.278D+00 0.722D+00
 Coeff:      0.174D-02 0.900D-01 0.359D+00 0.549D+00
 Gap=     0.122 Goal=   None    Shift=    0.000
 Gap=     0.122 Goal=   None    Shift=    0.000
 RMSDP=2.69D-03 MaxDP=3.40D-01 DE=-3.36D-02 OVMax= 3.76D-02

 Cycle   5  Pass 1  IDiag  1:
 RMSU=  5.52D-04    CP:  9.61D-01  6.38D-01  7.87D-01  5.36D-01
 E= -649.819114680516     Delta-E=       -0.014057830623 Rises=F Damp=F
 DIIS: error= 1.16D-03 at cycle   5 NSaved=   5.
 NSaved= 5 IEnMin= 5 EnMin= -649.819114680516     IErMin= 5 ErrMin= 1.16D-03
 ErrMax= 1.16D-03  0.00D+00 EMaxC= 1.00D-01 BMatC= 1.86D-03 BMatP= 7.07D-02
 IDIUse=3 WtCom= 9.88D-01 WtEn= 1.16D-02
 Coeff-Com: -0.314D-03 0.133D-01 0.155D+00 0.297D+00 0.536D+00
 Coeff-En:   0.000D+00 0.000D+00 0.000D+00 0.000D+00 0.100D+01
 Coeff:     -0.311D-03 0.131D-01 0.153D+00 0.293D+00 0.541D+00
 Gap=     0.124 Goal=   None    Shift=    0.000
 Gap=     0.124 Goal=   None    Shift=    0.000
 RMSDP=3.79D-04 MaxDP=2.70D-02 DE=-1.41D-02 OVMax= 1.06D-02

 Cycle   6  Pass 1  IDiag  1:
 RMSU=  2.39D-04    CP:  9.56D-01  6.41D-01  7.88D-01  5.43D-01  9.15D-01
 E= -649.819507453883     Delta-E=       -0.000392773367 Rises=F Damp=F
 DIIS: error= 5.04D-04 at cycle   6 NSaved=   6.
 NSaved= 6 IEnMin= 6 EnMin= -649.819507453883     IErMin= 6 ErrMin= 5.04D-04
 ErrMax= 5.04D-04  0.00D+00 EMaxC= 1.00D-01 BMatC= 1.72D-04 BMatP= 1.86D-03
 IDIUse=3 WtCom= 9.95D-01 WtEn= 5.04D-03
 Coeff-Com: -0.196D-03-0.112D-02 0.478D-01 0.107D+00 0.302D+00 0.544D+00
 Coeff-En:   0.000D+00 0.000D+00 0.000D+00 0.000D+00 0.458D-01 0.954D+00
 Coeff:     -0.195D-03-0.112D-02 0.475D-01 0.106D+00 0.301D+00 0.546D+00
 Gap=     0.124 Goal=   None    Shift=    0.000
 Gap=     0.124 Goal=   None    Shift=    0.000
 RMSDP=1.44D-04 MaxDP=8.22D-03 DE=-3.93D-04 OVMax= 3.38D-03

 Cycle   7  Pass 1  IDiag  1:
 RMSU=  6.53D-05    CP:  9.58D-01  6.40D-01  7.94D-01  5.52D-01  9.06D-01
                    CP:  7.74D-01
 E= -649.819550090842     Delta-E=       -0.000042636959 Rises=F Damp=F
 DIIS: error= 1.07D-04 at cycle   7 NSaved=   7.
 NSaved= 7 IEnMin= 7 EnMin= -649.819550090842     IErMin= 7 ErrMin= 1.07D-04
 ErrMax= 1.07D-04  0.00D+00 EMaxC= 1.00D-01 BMatC= 1.68D-05 BMatP= 1.72D-04
 IDIUse=3 WtCom= 9.99D-01 WtEn= 1.07D-03
 Coeff-Com: -0.317D-04-0.170D-02 0.127D-01 0.324D-01 0.121D+00 0.309D+00
 Coeff-Com:  0.527D+00
 Coeff-En:   0.000D+00 0.000D+00 0.000D+00 0.000D+00 0.000D+00 0.865D-02
 Coeff-En:   0.991D+00
 Coeff:     -0.316D-04-0.170D-02 0.127D-01 0.323D-01 0.121D+00 0.308D+00
 Coeff:      0.527D+00
 Gap=     0.124 Goal=   None    Shift=    0.000
 Gap=     0.124 Goal=   None    Shift=    0.000
 RMSDP=3.35D-05 MaxDP=4.46D-03 DE=-4.26D-05 OVMax= 6.81D-04

 Cycle   8  Pass 1  IDiag  1:
 RMSU=  1.61D-05    CP:  9.59D-01  6.40D-01  7.95D-01  5.56D-01  9.06D-01
                    CP:  7.72D-01  8.38D-01
 E= -649.819553971170     Delta-E=       -0.000003880328 Rises=F Damp=F
 DIIS: error= 1.41D-05 at cycle   8 NSaved=   8.
 NSaved= 8 IEnMin= 8 EnMin= -649.819553971170     IErMin= 8 ErrMin= 1.41D-05
 ErrMax= 1.41D-05  0.00D+00 EMaxC= 1.00D-01 BMatC= 4.21D-07 BMatP= 1.68D-05
 IDIUse=1 WtCom= 1.00D+00 WtEn= 0.00D+00
 Coeff-Com:  0.710D-04-0.615D-03 0.143D-02 0.443D-02 0.249D-01 0.775D-01
 Coeff-Com:  0.185D+00 0.707D+00
 Coeff:      0.710D-04-0.615D-03 0.143D-02 0.443D-02 0.249D-01 0.775D-01
 Coeff:      0.185D+00 0.707D+00
 Gap=     0.124 Goal=   None    Shift=    0.000
 Gap=     0.124 Goal=   None    Shift=    0.000
 RMSDP=6.95D-06 MaxDP=4.82D-04 DE=-3.88D-06 OVMax= 7.57D-05

 Cycle   9  Pass 1  IDiag  1:
 RMSU=  4.50D-06    CP:  9.59D-01  6.39D-01  7.95D-01  5.56D-01  9.06D-01
                    CP:  7.65D-01  8.17D-01  7.70D-01
 E= -649.819554017393     Delta-E=       -0.000000046223 Rises=F Damp=F
 DIIS: error= 1.00D-05 at cycle   9 NSaved=   9.
 NSaved= 9 IEnMin= 9 EnMin= -649.819554017393     IErMin= 9 ErrMin= 1.00D-05
 ErrMax= 1.00D-05  0.00D+00 EMaxC= 1.00D-01 BMatC= 1.82D-07 BMatP= 4.21D-07
 IDIUse=1 WtCom= 1.00D+00 WtEn= 0.00D+00
 Coeff-Com:  0.459D-04-0.248D-03-0.125D-03 0.548D-04 0.527D-02 0.211D-01
 Coeff-Com:  0.663D-01 0.448D+00 0.460D+00
 Coeff:      0.459D-04-0.248D-03-0.125D-03 0.548D-04 0.527D-02 0.211D-01
 Coeff:      0.663D-01 0.448D+00 0.460D+00
 Gap=     0.124 Goal=   None    Shift=    0.000
 Gap=     0.124 Goal=   None    Shift=    0.000
 RMSDP=2.56D-06 MaxDP=1.59D-04 DE=-4.62D-08 OVMax= 3.48D-05

 Cycle  10  Pass 1  IDiag  1:
 RMSU=  1.56D-06    CP:  9.59D-01  6.39D-01  7.95D-01  5.56D-01  9.06D-01
                    CP:  7.67D-01  8.11D-01  8.36D-01  8.43D-01
 E= -649.819554049577     Delta-E=       -0.000000032184 Rises=F Damp=F
 DIIS: error= 3.11D-06 at cycle  10 NSaved=  10.
 NSaved=10 IEnMin=10 EnMin= -649.819554049577     IErMin=10 ErrMin= 3.11D-06
 ErrMax= 3.11D-06  0.00D+00 EMaxC= 1.00D-01 BMatC= 6.62D-09 BMatP= 1.82D-07
 IDIUse=1 WtCom= 1.00D+00 WtEn= 0.00D+00
 Coeff-Com:  0.167D-04-0.747D-04-0.148D-03-0.282D-03 0.798D-03 0.458D-02
 Coeff-Com:  0.173D-01 0.161D+00 0.221D+00 0.595D+00
 Coeff:      0.167D-04-0.747D-04-0.148D-03-0.282D-03 0.798D-03 0.458D-02
 Coeff:      0.173D-01 0.161D+00 0.221D+00 0.595D+00
 Gap=     0.124 Goal=   None    Shift=    0.000
 Gap=     0.124 Goal=   None    Shift=    0.000
 RMSDP=6.58D-07 MaxDP=2.59D-05 DE=-3.22D-08 OVMax= 1.45D-05

 Cycle  11  Pass 1  IDiag  1:
 RMSU=  4.13D-07    CP:  9.59D-01  6.39D-01  7.95D-01  5.56D-01  9.07D-01
                    CP:  7.67D-01  8.15D-01  8.46D-01  8.38D-01  8.71D-01
 E= -649.819554050552     Delta-E=       -0.000000000975 Rises=F Damp=F
 DIIS: error= 1.97D-06 at cycle  11 NSaved=  11.
 NSaved=11 IEnMin=11 EnMin= -649.819554050552     IErMin=11 ErrMin= 1.97D-06
 ErrMax= 1.97D-06  0.00D+00 EMaxC= 1.00D-01 BMatC= 1.97D-09 BMatP= 6.62D-09
 IDIUse=1 WtCom= 1.00D+00 WtEn= 0.00D+00
 Coeff-Com:  0.495D-05-0.154D-04-0.871D-04-0.211D-03-0.190D-03 0.312D-03
 Coeff-Com:  0.276D-02 0.486D-01 0.832D-01 0.389D+00 0.476D+00
 Coeff:      0.495D-05-0.154D-04-0.871D-04-0.211D-03-0.190D-03 0.312D-03
 Coeff:      0.276D-02 0.486D-01 0.832D-01 0.389D+00 0.476D+00
 Gap=     0.124 Goal=   None    Shift=    0.000
 Gap=     0.124 Goal=   None    Shift=    0.000
 RMSDP=3.10D-07 MaxDP=2.39D-05 DE=-9.75D-10 OVMax= 8.24D-06

 Cycle  12  Pass 1  IDiag  1:
 RMSU=  1.62D-07    CP:  9.59D-01  6.39D-01  7.95D-01  5.56D-01  9.07D-01
                    CP:  7.67D-01  8.14D-01  8.51D-01  8.41D-01  9.42D-01
                    CP:  8.78D-01
 E= -649.819554050923     Delta-E=       -0.000000000371 Rises=F Damp=F
 DIIS: error= 4.02D-07 at cycle  12 NSaved=  12.
 NSaved=12 IEnMin=12 EnMin= -649.819554050923     IErMin=12 ErrMin= 4.02D-07
 ErrMax= 4.02D-07  0.00D+00 EMaxC= 1.00D-01 BMatC= 1.26D-10 BMatP= 1.97D-09
 IDIUse=1 WtCom= 1.00D+00 WtEn= 0.00D+00
 Coeff-Com:  0.819D-06-0.786D-06-0.360D-04-0.969D-04-0.213D-03-0.322D-03
 Coeff-Com: -0.279D-03 0.110D-01 0.241D-01 0.164D+00 0.266D+00 0.536D+00
 Coeff:      0.819D-06-0.786D-06-0.360D-04-0.969D-04-0.213D-03-0.322D-03
 Coeff:     -0.279D-03 0.110D-01 0.241D-01 0.164D+00 0.266D+00 0.536D+00
 Gap=     0.124 Goal=   None    Shift=    0.000
 Gap=     0.124 Goal=   None    Shift=    0.000
 RMSDP=1.01D-07 MaxDP=7.78D-06 DE=-3.71D-10 OVMax= 2.42D-06

 Cycle  13  Pass 1  IDiag  1:
 RMSU=  4.01D-08    CP:  9.59D-01  6.39D-01  7.95D-01  5.56D-01  9.07D-01
                    CP:  7.67D-01  8.14D-01  8.52D-01  8.46D-01  9.55D-01
                    CP:  9.05D-01  8.60D-01
 E= -649.819554050936     Delta-E=       -0.000000000013 Rises=F Damp=F
 DIIS: error= 1.01D-07 at cycle  13 NSaved=  13.
 NSaved=13 IEnMin=13 EnMin= -649.819554050936     IErMin=13 ErrMin= 1.01D-07
 ErrMax= 1.01D-07  0.00D+00 EMaxC= 1.00D-01 BMatC= 1.32D-11 BMatP= 1.26D-10
 IDIUse=1 WtCom= 1.00D+00 WtEn= 0.00D+00
 Coeff-Com: -0.502D-06 0.162D-05-0.312D-05-0.117D-04-0.670D-04-0.178D-03
 Coeff-Com: -0.526D-03-0.256D-02-0.191D-02 0.196D-01 0.509D-01 0.276D+00
 Coeff-Com:  0.659D+00
 Coeff:     -0.502D-06 0.162D-05-0.312D-05-0.117D-04-0.670D-04-0.178D-03
 Coeff:     -0.526D-03-0.256D-02-0.191D-02 0.196D-01 0.509D-01 0.276D+00
 Coeff:      0.659D+00
 Gap=     0.124 Goal=   None    Shift=    0.000
 Gap=     0.124 Goal=   None    Shift=    0.000
 RMSDP=3.22D-08 MaxDP=1.77D-06 DE=-1.28D-11 OVMax= 9.38D-07

 Cycle  14  Pass 1  IDiag  1:
 RMSU=  1.31D-08    CP:  9.59D-01  6.39D-01  7.95D-01  5.56D-01  9.07D-01
                    CP:  7.67D-01  8.14D-01  8.52D-01  8.49D-01  9.63D-01
                    CP:  9.04D-01  8.78D-01  7.39D-01
 E= -649.819554050948     Delta-E=       -0.000000000012 Rises=F Damp=F
 DIIS: error= 1.51D-08 at cycle  14 NSaved=  14.
 NSaved=14 IEnMin=14 EnMin= -649.819554050948     IErMin=14 ErrMin= 1.51D-08
 ErrMax= 1.51D-08  0.00D+00 EMaxC= 1.00D-01 BMatC= 5.74D-13 BMatP= 1.32D-11
 IDIUse=1 WtCom= 1.00D+00 WtEn= 0.00D+00
 Coeff-Com: -0.232D-06 0.684D-06 0.775D-06 0.936D-06-0.148D-04-0.575D-04
 Coeff-Com: -0.197D-03-0.171D-02-0.236D-02-0.211D-02 0.102D-02 0.592D-01
 Coeff-Com:  0.248D+00 0.699D+00
 Coeff:     -0.232D-06 0.684D-06 0.775D-06 0.936D-06-0.148D-04-0.575D-04
 Coeff:     -0.197D-03-0.171D-02-0.236D-02-0.211D-02 0.102D-02 0.592D-01
 Coeff:      0.248D+00 0.699D+00
 Gap=     0.124 Goal=   None    Shift=    0.000
 Gap=     0.124 Goal=   None    Shift=    0.000
 RMSDP=1.16D-08 MaxDP=8.03D-07 DE=-1.18D-11 OVMax= 1.14D-07

 Cycle  15  Pass 1  IDiag  1:
 RMSU=  3.30D-09    CP:  9.59D-01  6.39D-01  7.95D-01  5.56D-01  9.07D-01
                    CP:  7.67D-01  8.14D-01  8.53D-01  8.49D-01  9.65D-01
                    CP:  9.13D-01  9.01D-01  7.69D-01  9.88D-01
 E= -649.819554050938     Delta-E=        0.000000000009 Rises=F Damp=F
 DIIS: error= 1.02D-08 at cycle  15 NSaved=  15.
 NSaved=15 IEnMin=14 EnMin= -649.819554050948     IErMin=15 ErrMin= 1.02D-08
 ErrMax= 1.02D-08  0.00D+00 EMaxC= 1.00D-01 BMatC= 1.24D-13 BMatP= 5.74D-13
 IDIUse=1 WtCom= 1.00D+00 WtEn= 0.00D+00
 Coeff-Com: -0.397D-07 0.113D-06 0.596D-06 0.145D-05 0.165D-06-0.799D-05
 Coeff-Com: -0.320D-04-0.486D-03-0.894D-03-0.254D-02-0.513D-02-0.266D-02
 Coeff-Com:  0.604D-01 0.371D+00 0.580D+00
 Coeff:     -0.397D-07 0.113D-06 0.596D-06 0.145D-05 0.165D-06-0.799D-05
 Coeff:     -0.320D-04-0.486D-03-0.894D-03-0.254D-02-0.513D-02-0.266D-02
 Coeff:      0.604D-01 0.371D+00 0.580D+00
 Gap=     0.124 Goal=   None    Shift=    0.000
 Gap=     0.124 Goal=   None    Shift=    0.000
 RMSDP=3.12D-09 MaxDP=1.99D-07 DE= 9.32D-12 OVMax= 1.40D-07

 Error on total polarization charges =  0.01465
 SCF Done:  E(UB3LYP) =  -649.819554051     A.U. after   15 cycles
            NFock= 15  Conv=0.31D-08     -V/T= 2.0040
 <Sx>= 0.0000 <Sy>= 0.0000 <Sz>= 0.0000 <S**2>=-0.0000 S=-0.0000
 <L.S>=  0.00000000000    
 KE= 6.472506318215D+02 PE=-3.186649461179D+03 EE= 1.054816324289D+03
 Annihilation of the first spin contaminant:
 S**2 before annihilation    -0.0000,   after     0.0000
 Leave Link  502 at Sun Jan 21 08:02:35 2024, MaxMem=  4026531840 cpu:             788.1 elap:              99.0
 (Enter /sysapps/ubuntu-applications/gaussian/Gaussian/AVX2/g16/l601.exe)
 Copying SCF densities to generalized density rwf, IOpCl= 1 IROHF=0.

 **********************************************************************

            Population analysis using the SCF density.

 **********************************************************************

 Orbital symmetries:
 Alpha Orbitals:
       Occupied  (A) (A) (A) (A) (A) (A) (A) (A) (A) (A) (A) (A)
                 (A) (A) (A) (A) (A) (A) (A) (A) (A) (A) (A) (A)
                 (A) (A) (A) (A) (A) (A) (A) (A) (A) (A) (A) (A)
                 (A) (A) (A) (A) (A) (A) (A) (A) (A) (A) (A) (A)
                 (A)
       Virtual   (A) (A) (A) (A) (A) (A) (A) (A) (A) (A) (A) (A)
                 (A) (A) (A) (A) (A) (A) (A) (A) (A) (A) (A) (A)
                 (A) (A) (A) (A) (A) (A) (A) (A) (A) (A) (A) (A)
                 (A) (A) (A) (A) (A) (A) (A) (A) (A) (A) (A) (A)
                 (A) (A) (A) (A) (A) (A) (A) (A) (A) (A) (A) (A)
                 (A) (A) (A) (A) (A) (A) (A) (A) (A) (A) (A) (A)
                 (A) (A) (A) (A) (A) (A) (A) (A) (A) (A) (A) (A)
                 (A) (A) (A) (A) (A) (A) (A) (A) (A) (A) (A) (A)
                 (A) (A) (A) (A) (A) (A) (A) (A) (A) (A) (A) (A)
                 (A) (A) (A) (A) (A) (A) (A) (A) (A) (A) (A) (A)
                 (A) (A) (A) (A) (A) (A) (A) (A) (A) (A) (A) (A)
                 (A) (A) (A) (A) (A) (A) (A) (A) (A) (A) (A) (A)
                 (A) (A) (A) (A) (A) (A) (A) (A) (A) (A) (A) (A)
                 (A) (A) (A) (A) (A) (A) (A) (A) (A) (A) (A) (A)
                 (A) (A) (A) (A) (A) (A) (A) (A) (A) (A) (A) (A)
                 (A) (A) (A) (A) (A) (A) (A) (A) (A) (A) (A) (A)
                 (A) (A) (A) (A) (A) (A) (A) (A) (A) (A) (A) (A)
                 (A) (A) (A) (A) (A) (A) (A) (A) (A) (A) (A) (A)
                 (A) (A) (A) (A) (A) (A) (A) (A) (A) (A) (A) (A)
                 (A) (A) (A) (A) (A) (A) (A) (A) (A) (A) (A) (A)
                 (A) (A) (A) (A) (A) (A) (A) (A) (A) (A) (A) (A)
                 (A) (A) (A) (A) (A) (A) (A) (A) (A) (A) (A) (A)
                 (A) (A) (A) (A) (A) (A) (A) (A) (A) (A) (A) (A)
                 (A) (A) (A) (A) (A) (A) (A) (A) (A) (A) (A) (A)
                 (A) (A) (A) (A) (A) (A) (A) (A) (A) (A) (A) (A)
                 (A) (A) (A) (A) (A) (A) (A) (A) (A) (A) (A) (A)
 Beta  Orbitals:
       Occupied  (A) (A) (A) (A) (A) (A) (A) (A) (A) (A) (A) (A)
                 (A) (A) (A) (A) (A) (A) (A) (A) (A) (A) (A) (A)
                 (A) (A) (A) (A) (A) (A) (A) (A) (A) (A) (A) (A)
                 (A) (A) (A) (A) (A) (A) (A) (A) (A) (A) (A) (A)
                 (A)
       Virtual   (A) (A) (A) (A) (A) (A) (A) (A) (A) (A) (A) (A)
                 (A) (A) (A) (A) (A) (A) (A) (A) (A) (A) (A) (A)
                 (A) (A) (A) (A) (A) (A) (A) (A) (A) (A) (A) (A)
                 (A) (A) (A) (A) (A) (A) (A) (A) (A) (A) (A) (A)
                 (A) (A) (A) (A) (A) (A) (A) (A) (A) (A) (A) (A)
                 (A) (A) (A) (A) (A) (A) (A) (A) (A) (A) (A) (A)
                 (A) (A) (A) (A) (A) (A) (A) (A) (A) (A) (A) (A)
                 (A) (A) (A) (A) (A) (A) (A) (A) (A) (A) (A) (A)
                 (A) (A) (A) (A) (A) (A) (A) (A) (A) (A) (A) (A)
                 (A) (A) (A) (A) (A) (A) (A) (A) (A) (A) (A) (A)
                 (A) (A) (A) (A) (A) (A) (A) (A) (A) (A) (A) (A)
                 (A) (A) (A) (A) (A) (A) (A) (A) (A) (A) (A) (A)
                 (A) (A) (A) (A) (A) (A) (A) (A) (A) (A) (A) (A)
                 (A) (A) (A) (A) (A) (A) (A) (A) (A) (A) (A) (A)
                 (A) (A) (A) (A) (A) (A) (A) (A) (A) (A) (A) (A)
                 (A) (A) (A) (A) (A) (A) (A) (A) (A) (A) (A) (A)
                 (A) (A) (A) (A) (A) (A) (A) (A) (A) (A) (A) (A)
                 (A) (A) (A) (A) (A) (A) (A) (A) (A) (A) (A) (A)
                 (A) (A) (A) (A) (A) (A) (A) (A) (A) (A) (A) (A)
                 (A) (A) (A) (A) (A) (A) (A) (A) (A) (A) (A) (A)
                 (A) (A) (A) (A) (A) (A) (A) (A) (A) (A) (A) (A)
                 (A) (A) (A) (A) (A) (A) (A) (A) (A) (A) (A) (A)
                 (A) (A) (A) (A) (A) (A) (A) (A) (A) (A) (A) (A)
                 (A) (A) (A) (A) (A) (A) (A) (A) (A) (A) (A) (A)
                 (A) (A) (A) (A) (A) (A) (A) (A) (A) (A) (A) (A)
                 (A) (A) (A) (A) (A) (A) (A) (A) (A) (A) (A) (A)
 The electronic state is 1-A.
 Alpha  occ. eigenvalues --  -19.17431 -19.13710 -19.13132 -10.28560 -10.28433
 Alpha  occ. eigenvalues --  -10.26908 -10.22977 -10.21224 -10.21195 -10.21106
 Alpha  occ. eigenvalues --  -10.20939 -10.20222 -10.19798 -10.19317  -1.09524
 Alpha  occ. eigenvalues --   -1.06991  -1.06394  -0.89005  -0.84086  -0.78737
 Alpha  occ. eigenvalues --   -0.77965  -0.72055  -0.70037  -0.65026  -0.64291
 Alpha  occ. eigenvalues --   -0.58786  -0.54907  -0.54223  -0.51985  -0.50711
 Alpha  occ. eigenvalues --   -0.48921  -0.48711  -0.47171  -0.46330  -0.45094
 Alpha  occ. eigenvalues --   -0.44101  -0.43001  -0.42581  -0.41973  -0.39625
 Alpha  occ. eigenvalues --   -0.39256  -0.38696  -0.35550  -0.34535  -0.30948
 Alpha  occ. eigenvalues --   -0.28750  -0.28504  -0.27154  -0.25114
 Alpha virt. eigenvalues --   -0.12709  -0.04881  -0.03724  -0.00622   0.00408
 Alpha virt. eigenvalues --    0.00841   0.02051   0.02514   0.02579   0.03228
 Alpha virt. eigenvalues --    0.03261   0.04518   0.05376   0.05695   0.05775
 Alpha virt. eigenvalues --    0.05996   0.07163   0.07645   0.08436   0.08959
 Alpha virt. eigenvalues --    0.09217   0.09849   0.10820   0.11067   0.11259
 Alpha virt. eigenvalues --    0.11907   0.12026   0.12301   0.12855   0.12905
 Alpha virt. eigenvalues --    0.13552   0.13989   0.14110   0.14610   0.14742
 Alpha virt. eigenvalues --    0.15088   0.15393   0.15634   0.16447   0.17169
 Alpha virt. eigenvalues --    0.17977   0.18022   0.18758   0.18904   0.19310
 Alpha virt. eigenvalues --    0.20818   0.21100   0.21274   0.21505   0.22393
 Alpha virt. eigenvalues --    0.22491   0.23088   0.23514   0.24059   0.24719
 Alpha virt. eigenvalues --    0.25407   0.26242   0.26649   0.27413   0.27810
 Alpha virt. eigenvalues --    0.27932   0.28467   0.28801   0.28921   0.29375
 Alpha virt. eigenvalues --    0.29891   0.30497   0.31046   0.31349   0.32351
 Alpha virt. eigenvalues --    0.32571   0.32982   0.33108   0.34032   0.34286
 Alpha virt. eigenvalues --    0.35636   0.35953   0.37095   0.37725   0.39109
 Alpha virt. eigenvalues --    0.39747   0.41325   0.41814   0.44063   0.44964
 Alpha virt. eigenvalues --    0.45888   0.47645   0.48705   0.51464   0.51781
 Alpha virt. eigenvalues --    0.51794   0.53242   0.53308   0.53451   0.57018
 Alpha virt. eigenvalues --    0.57696   0.58740   0.58756   0.59588   0.59904
 Alpha virt. eigenvalues --    0.61333   0.62121   0.62824   0.62994   0.63583
 Alpha virt. eigenvalues --    0.63678   0.64207   0.65307   0.66841   0.68334
 Alpha virt. eigenvalues --    0.68369   0.69679   0.73461   0.73685   0.73968
 Alpha virt. eigenvalues --    0.74982   0.76315   0.77439   0.78947   0.79802
 Alpha virt. eigenvalues --    0.80462   0.83765   0.84709   0.86276   0.86686
 Alpha virt. eigenvalues --    0.87376   0.88619   0.89394   0.90869   0.92165
 Alpha virt. eigenvalues --    0.93460   0.93633   0.95047   0.96984   0.97379
 Alpha virt. eigenvalues --    0.98946   1.01713   1.01823   1.02595   1.02941
 Alpha virt. eigenvalues --    1.03283   1.05101   1.06297   1.07090   1.08244
 Alpha virt. eigenvalues --    1.08867   1.10363   1.11152   1.13273   1.14228
 Alpha virt. eigenvalues --    1.16534   1.21089   1.21464   1.21967   1.22159
 Alpha virt. eigenvalues --    1.24784   1.27818   1.28044   1.30394   1.33150
 Alpha virt. eigenvalues --    1.37794   1.41312   1.43221   1.44038   1.46931
 Alpha virt. eigenvalues --    1.47183   1.47559   1.48791   1.51025   1.52311
 Alpha virt. eigenvalues --    1.53980   1.54258   1.55556   1.56697   1.56707
 Alpha virt. eigenvalues --    1.57607   1.63886   1.65195   1.66215   1.68103
 Alpha virt. eigenvalues --    1.69378   1.69514   1.70724   1.72769   1.72964
 Alpha virt. eigenvalues --    1.74255   1.74388   1.77948   1.78781   1.79115
 Alpha virt. eigenvalues --    1.80747   1.85505   1.87782   1.87949   1.89280
 Alpha virt. eigenvalues --    1.90070   1.91550   1.92089   1.93284   1.96104
 Alpha virt. eigenvalues --    1.97298   1.98104   2.01490   2.02186   2.04536
 Alpha virt. eigenvalues --    2.06782   2.07931   2.09030   2.11121   2.11380
 Alpha virt. eigenvalues --    2.15219   2.17867   2.20945   2.24117   2.26236
 Alpha virt. eigenvalues --    2.28440   2.32749   2.35984   2.39878   2.43760
 Alpha virt. eigenvalues --    2.46460   2.47436   2.48241   2.51978   2.53371
 Alpha virt. eigenvalues --    2.54987   2.58242   2.59131   2.59308   2.63889
 Alpha virt. eigenvalues --    2.67514   2.69409   2.69937   2.70000   2.71392
 Alpha virt. eigenvalues --    2.72662   2.73509   2.75128   2.76537   2.76672
 Alpha virt. eigenvalues --    2.77970   2.81114   2.82018   2.83158   2.83507
 Alpha virt. eigenvalues --    2.84902   2.88782   2.91050   2.92391   2.92821
 Alpha virt. eigenvalues --    2.96251   2.99074   3.04388   3.04690   3.07782
 Alpha virt. eigenvalues --    3.10095   3.14994   3.15357   3.19839   3.20896
 Alpha virt. eigenvalues --    3.21983   3.23994   3.27846   3.32197   3.34889
 Alpha virt. eigenvalues --    3.36156   3.39671   3.42842   3.46113   3.51269
 Alpha virt. eigenvalues --    3.53278   3.55219   3.61231   3.63917   3.65667
 Alpha virt. eigenvalues --    3.75215   3.77014   3.81538   3.85550   4.03071
 Alpha virt. eigenvalues --    4.04076   4.06957   4.11458   4.13424   4.21072
 Alpha virt. eigenvalues --    4.23863   4.35114   4.68753   4.83437   5.01912
 Alpha virt. eigenvalues --    5.02741   5.05016   5.20823   5.22402   5.43261
 Alpha virt. eigenvalues --    5.70698   5.78265   5.82012  23.56128  23.73340
 Alpha virt. eigenvalues --   23.84626  23.89987  23.90771  23.91788  23.93264
 Alpha virt. eigenvalues --   24.00551  24.06000  24.16673  24.23201  49.97309
 Alpha virt. eigenvalues --   50.00366  50.04791
  Beta  occ. eigenvalues --  -19.17431 -19.13710 -19.13132 -10.28560 -10.28433
  Beta  occ. eigenvalues --  -10.26908 -10.22977 -10.21224 -10.21195 -10.21106
  Beta  occ. eigenvalues --  -10.20939 -10.20222 -10.19798 -10.19317  -1.09524
  Beta  occ. eigenvalues --   -1.06991  -1.06394  -0.89005  -0.84086  -0.78737
  Beta  occ. eigenvalues --   -0.77965  -0.72055  -0.70037  -0.65026  -0.64291
  Beta  occ. eigenvalues --   -0.58786  -0.54907  -0.54223  -0.51985  -0.50711
  Beta  occ. eigenvalues --   -0.48921  -0.48711  -0.47171  -0.46330  -0.45094
  Beta  occ. eigenvalues --   -0.44101  -0.43001  -0.42581  -0.41973  -0.39625
  Beta  occ. eigenvalues --   -0.39256  -0.38696  -0.35550  -0.34535  -0.30948
  Beta  occ. eigenvalues --   -0.28750  -0.28504  -0.27154  -0.25114
  Beta virt. eigenvalues --   -0.12709  -0.04881  -0.03724  -0.00622   0.00408
  Beta virt. eigenvalues --    0.00841   0.02051   0.02514   0.02579   0.03228
  Beta virt. eigenvalues --    0.03261   0.04518   0.05376   0.05695   0.05775
  Beta virt. eigenvalues --    0.05996   0.07163   0.07645   0.08436   0.08959
  Beta virt. eigenvalues --    0.09217   0.09849   0.10820   0.11067   0.11259
  Beta virt. eigenvalues --    0.11907   0.12026   0.12301   0.12855   0.12905
  Beta virt. eigenvalues --    0.13552   0.13989   0.14110   0.14610   0.14742
  Beta virt. eigenvalues --    0.15088   0.15393   0.15634   0.16447   0.17169
  Beta virt. eigenvalues --    0.17977   0.18022   0.18758   0.18904   0.19310
  Beta virt. eigenvalues --    0.20818   0.21100   0.21274   0.21505   0.22393
  Beta virt. eigenvalues --    0.22491   0.23088   0.23514   0.24059   0.24719
  Beta virt. eigenvalues --    0.25407   0.26242   0.26649   0.27413   0.27810
  Beta virt. eigenvalues --    0.27932   0.28467   0.28801   0.28921   0.29375
  Beta virt. eigenvalues --    0.29891   0.30497   0.31046   0.31349   0.32351
  Beta virt. eigenvalues --    0.32571   0.32982   0.33108   0.34032   0.34286
  Beta virt. eigenvalues --    0.35636   0.35953   0.37095   0.37725   0.39109
  Beta virt. eigenvalues --    0.39747   0.41325   0.41814   0.44063   0.44964
  Beta virt. eigenvalues --    0.45888   0.47645   0.48705   0.51464   0.51781
  Beta virt. eigenvalues --    0.51794   0.53242   0.53308   0.53451   0.57018
  Beta virt. eigenvalues --    0.57696   0.58740   0.58756   0.59588   0.59904
  Beta virt. eigenvalues --    0.61333   0.62121   0.62824   0.62994   0.63583
  Beta virt. eigenvalues --    0.63678   0.64207   0.65307   0.66841   0.68334
  Beta virt. eigenvalues --    0.68369   0.69679   0.73461   0.73685   0.73968
  Beta virt. eigenvalues --    0.74982   0.76315   0.77439   0.78947   0.79802
  Beta virt. eigenvalues --    0.80462   0.83765   0.84709   0.86276   0.86686
  Beta virt. eigenvalues --    0.87376   0.88619   0.89394   0.90869   0.92165
  Beta virt. eigenvalues --    0.93460   0.93633   0.95047   0.96984   0.97379
  Beta virt. eigenvalues --    0.98946   1.01713   1.01823   1.02595   1.02941
  Beta virt. eigenvalues --    1.03283   1.05101   1.06297   1.07090   1.08244
  Beta virt. eigenvalues --    1.08867   1.10363   1.11152   1.13273   1.14228
  Beta virt. eigenvalues --    1.16534   1.21089   1.21464   1.21967   1.22159
  Beta virt. eigenvalues --    1.24784   1.27818   1.28044   1.30394   1.33150
  Beta virt. eigenvalues --    1.37794   1.41312   1.43221   1.44038   1.46931
  Beta virt. eigenvalues --    1.47183   1.47559   1.48791   1.51025   1.52311
  Beta virt. eigenvalues --    1.53980   1.54258   1.55556   1.56697   1.56707
  Beta virt. eigenvalues --    1.57607   1.63886   1.65195   1.66215   1.68103
  Beta virt. eigenvalues --    1.69378   1.69514   1.70724   1.72769   1.72964
  Beta virt. eigenvalues --    1.74255   1.74388   1.77948   1.78781   1.79115
  Beta virt. eigenvalues --    1.80747   1.85505   1.87782   1.87949   1.89280
  Beta virt. eigenvalues --    1.90070   1.91550   1.92089   1.93284   1.96104
  Beta virt. eigenvalues --    1.97298   1.98104   2.01490   2.02186   2.04536
  Beta virt. eigenvalues --    2.06782   2.07931   2.09030   2.11121   2.11380
  Beta virt. eigenvalues --    2.15219   2.17867   2.20945   2.24117   2.26236
  Beta virt. eigenvalues --    2.28440   2.32749   2.35984   2.39878   2.43760
  Beta virt. eigenvalues --    2.46460   2.47436   2.48241   2.51978   2.53371
  Beta virt. eigenvalues --    2.54987   2.58242   2.59131   2.59308   2.63889
  Beta virt. eigenvalues --    2.67514   2.69409   2.69937   2.70000   2.71392
  Beta virt. eigenvalues --    2.72662   2.73509   2.75128   2.76537   2.76672
  Beta virt. eigenvalues --    2.77970   2.81114   2.82018   2.83158   2.83507
  Beta virt. eigenvalues --    2.84902   2.88782   2.91050   2.92391   2.92821
  Beta virt. eigenvalues --    2.96251   2.99074   3.04388   3.04690   3.07782
  Beta virt. eigenvalues --    3.10095   3.14994   3.15357   3.19839   3.20896
  Beta virt. eigenvalues --    3.21983   3.23994   3.27846   3.32197   3.34889
  Beta virt. eigenvalues --    3.36156   3.39671   3.42842   3.46113   3.51269
  Beta virt. eigenvalues --    3.53278   3.55219   3.61231   3.63917   3.65667
  Beta virt. eigenvalues --    3.75215   3.77014   3.81538   3.85550   4.03071
  Beta virt. eigenvalues --    4.04076   4.06957   4.11458   4.13424   4.21072
  Beta virt. eigenvalues --    4.23863   4.35114   4.68753   4.83437   5.01912
  Beta virt. eigenvalues --    5.02741   5.05016   5.20823   5.22402   5.43261
  Beta virt. eigenvalues --    5.70698   5.78265   5.82012  23.56128  23.73340
  Beta virt. eigenvalues --   23.84626  23.89987  23.90771  23.91788  23.93264
  Beta virt. eigenvalues --   24.00551  24.06000  24.16673  24.23201  49.97309
  Beta virt. eigenvalues --   50.00366  50.04791
          Condensed to atoms (all electrons):
               1          2          3          4          5          6
     1  C    5.199418   0.138797   0.245643  -0.573153  -0.212055  -0.015415
     2  O    0.138797   8.229426   0.173353   0.279109   0.077429   0.021443
     3  C    0.245643   0.173353  14.143880  -0.989106  -2.611687   1.873677
     4  C   -0.573153   0.279109  -0.989106  15.566527  -0.678952  -0.796961
     5  C   -0.212055   0.077429  -2.611687  -0.678952   9.218668  -0.299923
     6  C   -0.015415   0.021443   1.873677  -0.796961  -0.299923   9.899383
     7  C    0.044192  -0.062495  -5.663480  -1.917188   0.853816  -4.130335
     8  C   -0.022993  -0.007600   1.521987   1.614569  -0.925034  -0.211396
     9  O   -0.000025   0.000033  -0.046904  -0.024349   0.104686   0.069474
    10  C    0.012094   0.001115  -1.041957  -0.456734   0.047247  -0.572924
    11  C   -0.025945  -0.001671  -0.058951  -0.371006  -0.000595   0.394808
    12  C   -0.019287  -0.207910  -2.591153  -3.323541   0.766138   0.259711
    13  O    0.006045  -0.005754   0.121850   0.005947  -0.019551   0.029207
    14  C    0.301803  -0.335963   0.744329  -2.926762  -0.165028  -0.853206
    15  H    0.399889  -0.073773   0.036805  -0.007056  -0.011847  -0.006076
    16  H    0.399719  -0.029349  -0.052489   0.017231   0.020647   0.000295
    17  H    0.399790  -0.029315  -0.052318   0.016576   0.020680   0.000328
    18  H    0.002727  -0.023953  -0.072763   0.601446  -0.103215  -0.012803
    19  H    0.002555  -0.001204   0.026945  -0.030260   0.419274  -0.088478
    20  H   -0.000770   0.000422   0.005254  -0.017928  -0.109659   0.384814
    21  H    0.000211  -0.000031  -0.013920   0.000696   0.004027  -0.014297
    22  H   -0.000377   0.000053  -0.030007  -0.009231   0.002117  -0.002740
               7          8          9         10         11         12
     1  C    0.044192  -0.022993  -0.000025   0.012094  -0.025945  -0.019287
     2  O   -0.062495  -0.007600   0.000033   0.001115  -0.001671  -0.207910
     3  C   -5.663480   1.521987  -0.046904  -1.041957  -0.058951  -2.591153
     4  C   -1.917188   1.614569  -0.024349  -0.456734  -0.371006  -3.323541
     5  C    0.853816  -0.925034   0.104686   0.047247  -0.000595   0.766138
     6  C   -4.130335  -0.211396   0.069474  -0.572924   0.394808   0.259711
     7  C   21.757254  -6.948561   0.078996   0.848141  -0.098282   2.086761
     8  C   -6.948561  13.407055   0.353614  -1.524197  -0.987184  -0.755362
     9  O    0.078996   0.353614   8.198943  -0.238357  -0.039729   0.016838
    10  C    0.848141  -1.524197  -0.238357   8.767620   0.460995   0.056211
    11  C   -0.098282  -0.987184  -0.039729   0.460995   8.626301   0.121283
    12  C    2.086761  -0.755362   0.016838   0.056211   0.121283  12.113836
    13  O   -0.189884   0.012048   0.000317  -0.042755  -0.201660   0.419577
    14  C   -0.735463   0.868767  -0.155042  -0.573408  -2.279351  -2.448744
    15  H    0.012394   0.000308   0.000012   0.001285  -0.006568  -0.003612
    16  H   -0.004331  -0.000237  -0.000015  -0.000745   0.001743  -0.001367
    17  H   -0.004308  -0.000260  -0.000015  -0.000736   0.001773  -0.001230
    18  H    0.016095  -0.004709  -0.000072  -0.000329  -0.005061  -0.046554
    19  H   -0.038746  -0.002964   0.003019   0.006373   0.000473   0.012775
    20  H    0.112407  -0.044573  -0.009156  -0.001481   0.013092  -0.022881
    21  H   -0.030292  -0.057230  -0.013953   0.430757  -0.024351   0.033084
    22  H    0.055387   0.005118   0.001850   0.011166   0.457125  -0.081920
              13         14         15         16         17         18
     1  C    0.006045   0.301803   0.399889   0.399719   0.399790   0.002727
     2  O   -0.005754  -0.335963  -0.073773  -0.029349  -0.029315  -0.023953
     3  C    0.121850   0.744329   0.036805  -0.052489  -0.052318  -0.072763
     4  C    0.005947  -2.926762  -0.007056   0.017231   0.016576   0.601446
     5  C   -0.019551  -0.165028  -0.011847   0.020647   0.020680  -0.103215
     6  C    0.029207  -0.853206  -0.006076   0.000295   0.000328  -0.012803
     7  C   -0.189884  -0.735463   0.012394  -0.004331  -0.004308   0.016095
     8  C    0.012048   0.868767   0.000308  -0.000237  -0.000260  -0.004709
     9  O    0.000317  -0.155042   0.000012  -0.000015  -0.000015  -0.000072
    10  C   -0.042755  -0.573408   0.001285  -0.000745  -0.000736  -0.000329
    11  C   -0.201660  -2.279351  -0.006568   0.001743   0.001773  -0.005061
    12  C    0.419577  -2.448744  -0.003612  -0.001367  -0.001230  -0.046554
    13  O    8.201527  -0.019279  -0.002423  -0.000115  -0.000116   0.000643
    14  C   -0.019279  14.322223   0.016911   0.009541   0.009820  -0.013168
    15  H   -0.002423   0.016911   0.490827  -0.026771  -0.026763   0.004319
    16  H   -0.000115   0.009541  -0.026771   0.557697  -0.054473  -0.009220
    17  H   -0.000116   0.009820  -0.026763  -0.054473   0.557628  -0.009248
    18  H    0.000643  -0.013168   0.004319  -0.009220  -0.009248   0.476813
    19  H   -0.000328   0.005454   0.000212   0.000709   0.000712  -0.012170
    20  H    0.000496   0.032748  -0.000171   0.000013   0.000014   0.002796
    21  H    0.000499   0.002742   0.000020  -0.000001  -0.000001  -0.000012
    22  H   -0.014931  -0.071553  -0.000091   0.000054   0.000054  -0.000173
              19         20         21         22
     1  C    0.002555  -0.000770   0.000211  -0.000377
     2  O   -0.001204   0.000422  -0.000031   0.000053
     3  C    0.026945   0.005254  -0.013920  -0.030007
     4  C   -0.030260  -0.017928   0.000696  -0.009231
     5  C    0.419274  -0.109659   0.004027   0.002117
     6  C   -0.088478   0.384814  -0.014297  -0.002740
     7  C   -0.038746   0.112407  -0.030292   0.055387
     8  C   -0.002964  -0.044573  -0.057230   0.005118
     9  O    0.003019  -0.009156  -0.013953   0.001850
    10  C    0.006373  -0.001481   0.430757   0.011166
    11  C    0.000473   0.013092  -0.024351   0.457125
    12  C    0.012775  -0.022881   0.033084  -0.081920
    13  O   -0.000328   0.000496   0.000499  -0.014931
    14  C    0.005454   0.032748   0.002742  -0.071553
    15  H    0.000212  -0.000171   0.000020  -0.000091
    16  H    0.000709   0.000013  -0.000001   0.000054
    17  H    0.000712   0.000014  -0.000001   0.000054
    18  H   -0.012170   0.002796  -0.000012  -0.000173
    19  H    0.487969  -0.015087  -0.000015  -0.000021
    20  H   -0.015087   0.491441  -0.000557   0.000340
    21  H   -0.000015  -0.000557   0.463333  -0.015540
    22  H   -0.000021   0.000340  -0.015540   0.461960
          Atomic-Atomic Spin Densities.
               1          2          3          4          5          6
     1  C   -0.000000   0.000000  -0.000000  -0.000000   0.000000  -0.000000
     2  O    0.000000  -0.000000   0.000000   0.000000  -0.000000   0.000000
     3  C   -0.000000   0.000000   0.000000   0.000000  -0.000000   0.000000
     4  C   -0.000000   0.000000   0.000000   0.000000  -0.000000   0.000000
     5  C    0.000000  -0.000000  -0.000000  -0.000000  -0.000000  -0.000000
     6  C   -0.000000   0.000000   0.000000   0.000000  -0.000000   0.000000
     7  C    0.000000  -0.000000  -0.000000  -0.000000   0.000000  -0.000000
     8  C   -0.000000   0.000000   0.000000   0.000000  -0.000000   0.000000
     9  O   -0.000000   0.000000  -0.000000   0.000000   0.000000  -0.000000
    10  C    0.000000   0.000000  -0.000000  -0.000000   0.000000  -0.000000
    11  C   -0.000000   0.000000   0.000000   0.000000  -0.000000  -0.000000
    12  C    0.000000   0.000000  -0.000000  -0.000000   0.000000  -0.000000
    13  O   -0.000000  -0.000000   0.000000   0.000000  -0.000000   0.000000
    14  C    0.000000  -0.000000  -0.000000  -0.000000   0.000000  -0.000000
    15  H    0.000000   0.000000  -0.000000  -0.000000   0.000000  -0.000000
    16  H   -0.000000   0.000000   0.000000   0.000000  -0.000000   0.000000
    17  H   -0.000000   0.000000   0.000000   0.000000  -0.000000   0.000000
    18  H    0.000000  -0.000000   0.000000  -0.000000  -0.000000   0.000000
    19  H    0.000000  -0.000000   0.000000  -0.000000  -0.000000  -0.000000
    20  H   -0.000000  -0.000000   0.000000   0.000000  -0.000000   0.000000
    21  H    0.000000   0.000000  -0.000000  -0.000000   0.000000  -0.000000
    22  H    0.000000  -0.000000  -0.000000  -0.000000   0.000000  -0.000000
               7          8          9         10         11         12
     1  C    0.000000  -0.000000  -0.000000   0.000000  -0.000000   0.000000
     2  O   -0.000000   0.000000   0.000000   0.000000   0.000000   0.000000
     3  C   -0.000000   0.000000  -0.000000  -0.000000   0.000000  -0.000000
     4  C   -0.000000   0.000000   0.000000  -0.000000   0.000000  -0.000000
     5  C    0.000000  -0.000000   0.000000   0.000000  -0.000000   0.000000
     6  C   -0.000000   0.000000  -0.000000  -0.000000  -0.000000  -0.000000
     7  C    0.000000  -0.000000   0.000000   0.000000  -0.000000   0.000000
     8  C   -0.000000  -0.000000   0.000000  -0.000000   0.000000  -0.000000
     9  O    0.000000   0.000000  -0.000000   0.000000   0.000000   0.000000
    10  C    0.000000  -0.000000   0.000000   0.000000  -0.000000   0.000000
    11  C   -0.000000   0.000000   0.000000  -0.000000  -0.000000  -0.000000
    12  C    0.000000  -0.000000   0.000000   0.000000  -0.000000   0.000000
    13  O   -0.000000   0.000000  -0.000000  -0.000000   0.000000  -0.000000
    14  C   -0.000000   0.000000  -0.000000  -0.000000   0.000000  -0.000000
    15  H    0.000000  -0.000000   0.000000   0.000000   0.000000   0.000000
    16  H   -0.000000   0.000000  -0.000000  -0.000000   0.000000  -0.000000
    17  H   -0.000000   0.000000  -0.000000  -0.000000   0.000000  -0.000000
    18  H   -0.000000  -0.000000   0.000000  -0.000000   0.000000   0.000000
    19  H    0.000000  -0.000000   0.000000   0.000000  -0.000000   0.000000
    20  H   -0.000000   0.000000  -0.000000  -0.000000   0.000000  -0.000000
    21  H    0.000000  -0.000000   0.000000   0.000000  -0.000000   0.000000
    22  H    0.000000  -0.000000  -0.000000  -0.000000  -0.000000   0.000000
              13         14         15         16         17         18
     1  C   -0.000000   0.000000   0.000000  -0.000000  -0.000000   0.000000
     2  O   -0.000000  -0.000000   0.000000   0.000000   0.000000  -0.000000
     3  C    0.000000  -0.000000  -0.000000   0.000000   0.000000   0.000000
     4  C    0.000000  -0.000000  -0.000000   0.000000   0.000000  -0.000000
     5  C   -0.000000   0.000000   0.000000  -0.000000  -0.000000  -0.000000
     6  C    0.000000  -0.000000  -0.000000   0.000000   0.000000   0.000000
     7  C   -0.000000  -0.000000   0.000000  -0.000000  -0.000000  -0.000000
     8  C    0.000000   0.000000  -0.000000   0.000000   0.000000  -0.000000
     9  O   -0.000000  -0.000000   0.000000  -0.000000  -0.000000   0.000000
    10  C   -0.000000  -0.000000   0.000000  -0.000000  -0.000000  -0.000000
    11  C    0.000000   0.000000   0.000000   0.000000   0.000000   0.000000
    12  C   -0.000000  -0.000000   0.000000  -0.000000  -0.000000   0.000000
    13  O    0.000000  -0.000000  -0.000000   0.000000  -0.000000   0.000000
    14  C   -0.000000   0.000000   0.000000  -0.000000  -0.000000  -0.000000
    15  H   -0.000000   0.000000  -0.000000   0.000000   0.000000  -0.000000
    16  H    0.000000  -0.000000   0.000000  -0.000000  -0.000000   0.000000
    17  H   -0.000000  -0.000000   0.000000  -0.000000  -0.000000   0.000000
    18  H    0.000000  -0.000000  -0.000000   0.000000   0.000000  -0.000000
    19  H   -0.000000   0.000000   0.000000  -0.000000  -0.000000  -0.000000
    20  H    0.000000   0.000000  -0.000000   0.000000   0.000000   0.000000
    21  H   -0.000000  -0.000000  -0.000000  -0.000000  -0.000000  -0.000000
    22  H   -0.000000   0.000000   0.000000  -0.000000  -0.000000   0.000000
              19         20         21         22
     1  C    0.000000  -0.000000   0.000000   0.000000
     2  O   -0.000000  -0.000000   0.000000  -0.000000
     3  C    0.000000   0.000000  -0.000000  -0.000000
     4  C   -0.000000   0.000000  -0.000000  -0.000000
     5  C   -0.000000  -0.000000   0.000000   0.000000
     6  C   -0.000000   0.000000  -0.000000  -0.000000
     7  C    0.000000  -0.000000   0.000000   0.000000
     8  C   -0.000000   0.000000  -0.000000  -0.000000
     9  O    0.000000  -0.000000   0.000000  -0.000000
    10  C    0.000000  -0.000000   0.000000  -0.000000
    11  C   -0.000000   0.000000  -0.000000  -0.000000
    12  C    0.000000  -0.000000   0.000000   0.000000
    13  O   -0.000000   0.000000  -0.000000  -0.000000
    14  C    0.000000   0.000000  -0.000000   0.000000
    15  H    0.000000  -0.000000  -0.000000   0.000000
    16  H   -0.000000   0.000000  -0.000000  -0.000000
    17  H   -0.000000   0.000000  -0.000000  -0.000000
    18  H   -0.000000   0.000000  -0.000000   0.000000
    19  H   -0.000000  -0.000000   0.000000   0.000000
    20  H   -0.000000  -0.000000  -0.000000  -0.000000
    21  H    0.000000  -0.000000   0.000000   0.000000
    22  H    0.000000  -0.000000   0.000000   0.000000
 Mulliken charges and spin densities:
               1          2
     1  C   -0.282865   0.000000
     2  O   -0.142164  -0.000000
     3  C    0.331012  -0.000000
     4  C    0.020123  -0.000000
     5  C   -0.397182  -0.000000
     6  C    0.071415  -0.000000
     7  C   -0.042082   0.000000
     8  C   -0.291164  -0.000000
     9  O   -0.300165   0.000000
    10  C   -0.189380   0.000000
    11  C    0.022763  -0.000000
    12  C   -0.382653   0.000000
    13  O   -0.301360  -0.000000
    14  C    0.262632  -0.000000
    15  H    0.202166   0.000000
    16  H    0.171465  -0.000000
    17  H    0.171410  -0.000000
    18  H    0.208609   0.000000
    19  H    0.222803  -0.000000
    20  H    0.178422  -0.000000
    21  H    0.234830   0.000000
    22  H    0.231362   0.000000
 Sum of Mulliken charges =  -0.00000  -0.00000
 Mulliken charges and spin densities with hydrogens summed into heavy atoms:
               1          2
     1  C    0.262177   0.000000
     2  O   -0.142164  -0.000000
     3  C    0.331012  -0.000000
     4  C    0.228733  -0.000000
     5  C   -0.174379  -0.000000
     6  C    0.249837  -0.000000
     7  C   -0.042082   0.000000
     8  C   -0.291164  -0.000000
     9  O   -0.300165   0.000000
    10  C    0.045450   0.000000
    11  C    0.254125  -0.000000
    12  C   -0.382653   0.000000
    13  O   -0.301360  -0.000000
    14  C    0.262632  -0.000000
 Electronic spatial extent (au):  <R**2>=           2595.3986
 Charge=             -0.0000 electrons
 Dipole moment (field-independent basis, Debye):
    X=              3.8639    Y=              2.4040    Z=              0.0081  Tot=              4.5507
 Quadrupole moment (field-independent basis, Debye-Ang):
   XX=            -72.1350   YY=            -82.5999   ZZ=            -81.6651
   XY=             17.6708   XZ=             -0.0005   YZ=             -0.0184
 Traceless Quadrupole moment (field-independent basis, Debye-Ang):
   XX=              6.6650   YY=             -3.7999   ZZ=             -2.8651
   XY=             17.6708   XZ=             -0.0005   YZ=             -0.0184
 Octapole moment (field-independent basis, Debye-Ang**2):
  XXX=            109.6010  YYY=             36.5857  ZZZ=             -0.0067  XYY=             -3.3517
  XXY=            -33.3766  XXZ=              0.0548  XZZ=              3.4017  YZZ=             -5.3421
  YYZ=              0.0499  XYZ=             -0.0093
 Hexadecapole moment (field-independent basis, Debye-Ang**3):
 XXXX=          -1981.8450 YYYY=          -1195.0002 ZZZZ=            -94.6790 XXXY=            113.0634
 XXXZ=             -0.0393 YYYX=             60.8709 YYYZ=             -0.1630 ZZZX=              0.0252
 ZZZY=              0.0310 XXYY=           -544.5199 XXZZ=           -370.9132 YYZZ=           -232.7674
 XXYZ=             -0.0486 YYXZ=             -0.0080 ZZXY=            -11.4643
 N-N= 8.347629510175D+02 E-N=-3.186649461557D+03  KE= 6.472506318215D+02
                          Isotropic Fermi Contact Couplings
        Atom                 a.u.       MegaHertz       Gauss      10(-4) cm-1
     1  C(13)             -0.00000      -0.00000      -0.00000      -0.00000
     2  O(17)             -0.00000       0.00000       0.00000       0.00000
     3  C(13)             -0.00000      -0.00000      -0.00000      -0.00000
     4  C(13)             -0.00000      -0.00000      -0.00000      -0.00000
     5  C(13)             -0.00000      -0.00000      -0.00000      -0.00000
     6  C(13)             -0.00000      -0.00000      -0.00000      -0.00000
     7  C(13)              0.00000       0.00000       0.00000       0.00000
     8  C(13)              0.00000       0.00000       0.00000       0.00000
     9  O(17)              0.00000      -0.00000      -0.00000      -0.00000
    10  C(13)              0.00000       0.00000       0.00000       0.00000
    11  C(13)              0.00000       0.00000       0.00000       0.00000
    12  C(13)             -0.00000      -0.00000      -0.00000      -0.00000
    13  O(17)              0.00000      -0.00000      -0.00000      -0.00000
    14  C(13)             -0.00000      -0.00000      -0.00000      -0.00000
    15  H(1)               0.00000       0.00000       0.00000       0.00000
    16  H(1)              -0.00000      -0.00000      -0.00000      -0.00000
    17  H(1)              -0.00000      -0.00000      -0.00000      -0.00000
    18  H(1)              -0.00000      -0.00000      -0.00000      -0.00000
    19  H(1)               0.00000       0.00000       0.00000       0.00000
    20  H(1)              -0.00000      -0.00000      -0.00000      -0.00000
    21  H(1)               0.00000       0.00000       0.00000       0.00000
    22  H(1)              -0.00000      -0.00000      -0.00000      -0.00000
 --------------------------------------------------------
       Center         ----  Spin Dipole Couplings  ----
                      3XX-RR        3YY-RR        3ZZ-RR
 --------------------------------------------------------
     1   Atom        0.000000      0.000000     -0.000000
     2   Atom       -0.000000     -0.000000      0.000000
     3   Atom        0.000000      0.000000     -0.000000
     4   Atom       -0.000000      0.000000      0.000000
     5   Atom       -0.000000      0.000000     -0.000000
     6   Atom       -0.000000      0.000000      0.000000
     7   Atom       -0.000000      0.000000     -0.000000
     8   Atom       -0.000000      0.000000     -0.000000
     9   Atom       -0.000000      0.000000     -0.000000
    10   Atom        0.000000     -0.000000     -0.000000
    11   Atom        0.000000      0.000000     -0.000000
    12   Atom       -0.000000      0.000000     -0.000000
    13   Atom       -0.000000      0.000000      0.000000
    14   Atom       -0.000000      0.000000     -0.000000
    15   Atom       -0.000000      0.000000     -0.000000
    16   Atom       -0.000000     -0.000000      0.000000
    17   Atom       -0.000000      0.000000      0.000000
    18   Atom       -0.000000      0.000000     -0.000000
    19   Atom       -0.000000      0.000000      0.000000
    20   Atom       -0.000000     -0.000000      0.000000
    21   Atom       -0.000000      0.000000      0.000000
    22   Atom       -0.000000     -0.000000      0.000000
 --------------------------------------------------------
                        XY            XZ            YZ
 --------------------------------------------------------
     1   Atom        0.000000      0.000000      0.000000
     2   Atom       -0.000000      0.000000     -0.000000
     3   Atom        0.000000      0.000000     -0.000000
     4   Atom       -0.000000     -0.000000      0.000000
     5   Atom        0.000000      0.000000      0.000000
     6   Atom       -0.000000     -0.000000     -0.000000
     7   Atom       -0.000000     -0.000000      0.000000
     8   Atom        0.000000      0.000000     -0.000000
     9   Atom        0.000000     -0.000000     -0.000000
    10   Atom        0.000000     -0.000000      0.000000
    11   Atom        0.000000      0.000000     -0.000000
    12   Atom       -0.000000     -0.000000      0.000000
    13   Atom       -0.000000     -0.000000      0.000000
    14   Atom        0.000000      0.000000     -0.000000
    15   Atom       -0.000000     -0.000000      0.000000
    16   Atom        0.000000     -0.000000     -0.000000
    17   Atom        0.000000      0.000000      0.000000
    18   Atom       -0.000000      0.000000      0.000000
    19   Atom       -0.000000      0.000000     -0.000000
    20   Atom       -0.000000     -0.000000      0.000000
    21   Atom       -0.000000     -0.000000      0.000000
    22   Atom        0.000000      0.000000     -0.000000
 --------------------------------------------------------


 ---------------------------------------------------------------------------------
              Anisotropic Spin Dipole Couplings in Principal Axis System
 ---------------------------------------------------------------------------------

       Atom             a.u.   MegaHertz   Gauss  10(-4) cm-1        Axes

              Baa    -0.0000    -0.000    -0.000    -0.000  0.0759 -0.1580  0.9845
     1 C(13)  Bbb    -0.0000    -0.000    -0.000    -0.000  0.7390 -0.6539 -0.1619
              Bcc     0.0000     0.000     0.000     0.000  0.6694  0.7399  0.0672
 
              Baa    -0.0000     0.000     0.000     0.000  0.7204  0.6935  0.0006
     2 O(17)  Bbb     0.0000    -0.000    -0.000    -0.000 -0.0056  0.0050  1.0000
              Bcc     0.0000    -0.000    -0.000    -0.000 -0.6935  0.7204 -0.0075
 
              Baa    -0.0000    -0.000    -0.000    -0.000 -0.6954  0.7183  0.0216
     3 C(13)  Bbb    -0.0000    -0.000    -0.000    -0.000  0.0098 -0.0206  0.9997
              Bcc     0.0000     0.000     0.000     0.000  0.7186  0.6954  0.0073
 
              Baa    -0.0000    -0.000    -0.000    -0.000  0.9403  0.3403  0.0016
     4 C(13)  Bbb     0.0000     0.000     0.000     0.000  0.0189 -0.0568  0.9982
              Bcc     0.0000     0.000     0.000     0.000 -0.3398  0.9386  0.0598
 
              Baa    -0.0000    -0.000    -0.000    -0.000  0.9205 -0.3893 -0.0335
     5 C(13)  Bbb    -0.0000    -0.000    -0.000    -0.000  0.0217 -0.0348  0.9992
              Bcc     0.0000     0.000     0.000     0.000  0.3901  0.9205  0.0236
 
              Baa    -0.0000    -0.000    -0.000    -0.000  0.9802  0.1973  0.0145
     6 C(13)  Bbb     0.0000     0.000     0.000     0.000 -0.0142 -0.0027  0.9999
              Bcc     0.0000     0.000     0.000     0.000 -0.1973  0.9803 -0.0001
 
              Baa    -0.0000    -0.000    -0.000    -0.000  0.9311  0.3646  0.0111
     7 C(13)  Bbb    -0.0000    -0.000    -0.000    -0.000 -0.0053 -0.0172  0.9998
              Bcc     0.0000     0.000     0.000     0.000 -0.3647  0.9310  0.0141
 
              Baa    -0.0000    -0.000    -0.000    -0.000  0.7815 -0.6234 -0.0273
     8 C(13)  Bbb    -0.0000    -0.000    -0.000    -0.000  0.0113 -0.0296  0.9995
              Bcc     0.0000     0.000     0.000     0.000  0.6239  0.7814  0.0161
 
              Baa    -0.0000     0.000     0.000     0.000  0.9951 -0.0876  0.0464
     9 O(17)  Bbb    -0.0000     0.000     0.000     0.000 -0.0461  0.0048  0.9989
              Bcc     0.0000    -0.000    -0.000    -0.000  0.0878  0.9961 -0.0007
 
              Baa    -0.0000    -0.000    -0.000    -0.000  0.0082 -0.0427  0.9991
    10 C(13)  Bbb    -0.0000    -0.000    -0.000    -0.000 -0.1078  0.9932  0.0433
              Bcc     0.0000     0.000     0.000     0.000  0.9941  0.1080 -0.0035
 
              Baa    -0.0000    -0.000    -0.000    -0.000  0.7589 -0.6498 -0.0437
    11 C(13)  Bbb    -0.0000    -0.000    -0.000    -0.000  0.0322 -0.0295  0.9990
              Bcc     0.0000     0.000     0.000     0.000  0.6504  0.7596  0.0015
 
              Baa    -0.0000    -0.000    -0.000    -0.000  0.9555  0.2948  0.0132
    12 C(13)  Bbb    -0.0000    -0.000    -0.000    -0.000 -0.0097 -0.0135  0.9999
              Bcc     0.0000     0.000     0.000     0.000 -0.2950  0.9555  0.0100
 
              Baa    -0.0000     0.000     0.000     0.000  0.8810  0.4731  0.0005
    13 O(17)  Bbb     0.0000    -0.000    -0.000    -0.000  0.0023 -0.0053  1.0000
              Bcc     0.0000    -0.000    -0.000    -0.000 -0.4731  0.8810  0.0057
 
              Baa    -0.0000    -0.000    -0.000    -0.000  0.9583 -0.2814 -0.0502
    14 C(13)  Bbb    -0.0000    -0.000    -0.000    -0.000  0.0587  0.0217  0.9980
              Bcc     0.0000     0.000     0.000     0.000  0.2797  0.9593 -0.0373
 
              Baa    -0.0000    -0.000    -0.000    -0.000  0.0197 -0.0341  0.9992
    15 H(1)   Bbb    -0.0000    -0.000    -0.000    -0.000  0.9026  0.4305 -0.0031
              Bcc     0.0000     0.000     0.000     0.000 -0.4301  0.9019  0.0392
 
              Baa    -0.0000    -0.000    -0.000    -0.000  0.9561  0.0954  0.2771
    16 H(1)   Bbb    -0.0000    -0.000    -0.000    -0.000 -0.1608  0.9613  0.2237
              Bcc     0.0000     0.000     0.000     0.000 -0.2451 -0.2584  0.9344
 
              Baa    -0.0000    -0.000    -0.000    -0.000  0.9831  0.0371 -0.1793
    17 H(1)   Bbb    -0.0000    -0.000    -0.000    -0.000 -0.1055  0.9151 -0.3891
              Bcc     0.0000     0.000     0.000     0.000  0.1497  0.4014  0.9036
 
              Baa    -0.0000    -0.000    -0.000    -0.000  0.8239  0.5659 -0.0306
    18 H(1)   Bbb    -0.0000    -0.000    -0.000    -0.000  0.0408 -0.0054  0.9992
              Bcc     0.0000     0.000     0.000     0.000 -0.5653  0.8244  0.0275
 
              Baa    -0.0000    -0.000    -0.000    -0.000  0.9546  0.2975 -0.0133
    19 H(1)   Bbb     0.0000     0.000     0.000     0.000 -0.2952  0.9514  0.0879
              Bcc     0.0000     0.000     0.000     0.000  0.0388 -0.0800  0.9960
 
              Baa    -0.0000    -0.000    -0.000    -0.000  0.7574  0.6528  0.0148
    20 H(1)   Bbb     0.0000     0.000     0.000     0.000 -0.6414  0.7480 -0.1709
              Bcc     0.0000     0.000     0.000     0.000 -0.1226  0.1200  0.9852
 
              Baa    -0.0000    -0.000    -0.000    -0.000  0.9967  0.0818  0.0005
    21 H(1)   Bbb     0.0000     0.000     0.000     0.000 -0.0817  0.9963 -0.0276
              Bcc     0.0000     0.000     0.000     0.000 -0.0027  0.0275  0.9996
 
              Baa    -0.0000    -0.000    -0.000    -0.000 -0.5822  0.8130  0.0087
    22 H(1)   Bbb     0.0000     0.000     0.000     0.000  0.8125  0.5815  0.0403
              Bcc     0.0000     0.000     0.000     0.000 -0.0277 -0.0305  0.9992
 

 ---------------------------------------------------------------------------------

 No NMR shielding tensors so no spin-rotation constants.
 Leave Link  601 at Sun Jan 21 08:02:36 2024, MaxMem=  4026531840 cpu:               2.4 elap:               0.4
 (Enter /sysapps/ubuntu-applications/gaussian/Gaussian/AVX2/g16/l9999.exe)
 1\1\GINC-ACIDSCN020\SP\UB3LYP\6-311++G(d,p)\C11H8O3\SELHAJJ1\21-Jan-20
 24\0\\#P UB3LYP/6-311++G(d,p) SCRF=(PCM,Solvent=n,n-DiMethylFormamide)
 \\Quinone PCM in DMF\\0,1\C,0,3.323469,-0.958107,-0.09745\O,0,1.923598
 ,-1.137532,0.092946\C,0,1.086686,-0.098933,-0.087653\C,0,1.535449,1.17
 6798,-0.462195\C,0,0.636026,2.221802,-0.637586\C,0,-0.724729,2.022357,
 -0.445105\C,0,-1.187656,0.761846,-0.073114\C,0,-2.665501,0.60044,0.122
 008\O,0,-3.43993,1.530653,-0.03727\C,0,-3.160016,-0.732105,0.517069\C,
 0,-2.32049,-1.758162,0.693203\C,0,-0.845673,-1.652737,0.511272\O,0,-0.
 16838,-2.650614,0.695441\C,0,-0.300921,-0.322692,0.113514\H,0,3.766832
 ,-1.930468,0.107067\H,0,3.552294,-0.662725,-1.126425\H,0,3.730107,-0.2
 18556,0.599788\H,0,2.590062,1.355442,-0.617551\H,0,1.007253,3.19842,-0
 .927198\H,0,-1.441637,2.822101,-0.576233\H,0,-4.232353,-0.821972,0.652
 385\H,0,-2.664492,-2.745256,0.983088\\Version=ES64L-G16RevA.03\State=1
 -A\HF=-649.8195541\S2=0.\S2-1=0.\S2A=0.\RMSD=3.123e-09\Dipole=1.615569
 4,0.6917285,-0.3419284\Quadrupole=7.8937883,-6.203461,-1.6903273,11.13
 83154,-3.9032075,-0.1220021\PG=C01 [X(C11H8O3)]\\@


 IN THE WOODS WE RETURN TO REASON AND FAITH.

                                 -- EMERSON
 Job cpu time:       0 days  0 hours 13 minutes 30.1 seconds.
 Elapsed time:       0 days  0 hours  1 minutes 42.0 seconds.
 File lengths (MBytes):  RWF=    191 Int=      0 D2E=      0 Chk=     11 Scr=      1
 Normal termination of Gaussian 16 at Sun Jan 21 08:02:36 2024.
